Title t=  52.00000 step= 26000
44434
    1GLY      N    1   4.177   4.075   5.466
    1GLY    HT1    2   4.255   4.109   5.407
    1GLY    HT2    3   4.168   3.971   5.464
    1GLY    HT3    4   4.206   4.094   5.564
    1GLY     CA    5   4.042   4.147   5.440
    1GLY    HA1    6   4.058   4.247   5.403
    1GLY    HA2    7   3.978   4.139   5.526
    1GLY      C    8   3.964   4.086   5.329
    1GLY      O    9   4.010   3.992   5.262
    2PRO      N   10   3.849   4.142   5.292
    2PRO     CD   11   3.772   4.231   5.369
    2PRO    HD1   12   3.823   4.329   5.379
    2PRO    HD2   13   3.760   4.189   5.471
    2PRO     CA   14   3.762   4.081   5.190
    2PRO     HA   15   3.776   3.974   5.181
    2PRO     CB   16   3.621   4.122   5.230
    2PRO    HB1   17   3.579   4.052   5.305
    2PRO    HB2   18   3.539   4.123   5.154
    2PRO     CG   19   3.646   4.258   5.293
    2PRO    HG1   20   3.660   4.334   5.213
    2PRO    HG2   21   3.570   4.297   5.365
    2PRO      C   22   3.788   4.130   5.054
    2PRO      O   23   3.880   4.203   5.036
    3GLY      N   24   3.697   4.099   4.959
    3GLY     HN   25   3.624   4.033   4.977
    3GLY     CA   26   3.709   4.147   4.819
    3GLY    HA1   27   3.755   4.245   4.823
    3GLY    HA2   28   3.615   4.139   4.766
    3GLY      C   29   3.808   4.062   4.738
    3GLY      O   30   3.895   3.990   4.797
    4ASP      N   31   3.797   4.059   4.601
    4ASP     HN   32   3.730   4.116   4.556
    4ASP     CA   33   3.873   3.969   4.515
    4ASP     HA   34   3.892   3.880   4.573
    4ASP     CB   35   3.790   3.934   4.387
    4ASP    HB1   36   3.848   3.871   4.316
    4ASP    HB2   37   3.755   4.017   4.322
    4ASP     CG   38   3.662   3.860   4.435
    4ASP    OD1   39   3.660   3.765   4.516
    4ASP    OD2   40   3.553   3.882   4.371
    4ASP      C   41   4.004   4.043   4.478
    4ASP      O   42   3.999   4.162   4.457
    5PRO      N   43   4.120   3.977   4.470
    5PRO     CD   44   4.144   3.842   4.526
    5PRO    HD1   45   4.090   3.773   4.458
    5PRO    HD2   46   4.096   3.833   4.626
    5PRO     CA   47   4.236   4.043   4.422
    5PRO     HA   48   4.267   4.119   4.491
    5PRO     CB   49   4.332   3.925   4.410
    5PRO    HB1   50   4.438   3.957   4.422
    5PRO    HB2   51   4.319   3.880   4.309
    5PRO     CG   52   4.298   3.821   4.514
    5PRO    HG1   53   4.322   3.713   4.498
    5PRO    HG2   54   4.334   3.841   4.617
    5PRO      C   55   4.224   4.114   4.281
    5PRO      O   56   4.157   4.060   4.200
    6GLY      N   57   4.275   4.234   4.262
    6GLY     HN   58   4.317   4.276   4.342
    6GLY     CA   59   4.245   4.310   4.140
    6GLY    HA1   60   4.272   4.413   4.156
    6GLY    HA2   61   4.139   4.293   4.126
    6GLY      C   62   4.306   4.260   4.005
    6GLY      O   63   4.381   4.167   3.996
    7SER      N   64   4.273   4.327   3.898
    7SER     HN   65   4.200   4.395   3.903
    7SER     CA   66   4.327   4.302   3.766
    7SER     HA   67   4.281   4.212   3.728
    7SER     CB   68   4.278   4.410   3.666
    7SER    HB1   69   4.284   4.380   3.560
    7SER    HB2   70   4.329   4.506   3.688
    7SER     OG   71   4.141   4.442   3.699
    7SER    HG1   72   4.124   4.532   3.670
    7SER      C   73   4.476   4.290   3.754
    7SER      O   74   4.551   4.344   3.840
    8GLY      N   75   4.531   4.218   3.650
    8GLY     HN   76   4.474   4.194   3.572
    8GLY     CA   77   4.678   4.215   3.630
    8GLY    HA1   78   4.698   4.126   3.572
    8GLY    HA2   79   4.726   4.214   3.727
    8GLY      C   80   4.725   4.338   3.550
    8GLY      O   81   4.666   4.446   3.550
    9ASN      N   82   4.838   4.321   3.476
    9ASN     HN   83   4.883   4.233   3.477
    9ASN     CA   84   4.911   4.431   3.410
    9ASN     HA   85   4.852   4.519   3.430
    9ASN     CB   86   5.052   4.427   3.471
    9ASN    HB1   87   5.099   4.329   3.450
    9ASN    HB2   88   5.048   4.446   3.581
    9ASN     CG   89   5.139   4.543   3.424
    9ASN    OD1   90   5.243   4.537   3.356
    9ASN    ND2   91   5.089   4.661   3.457
    9ASN   HD21   92   5.147   4.742   3.443
    9ASN   HD22   93   4.994   4.675   3.487
    9ASN      C   94   4.911   4.408   3.259
    9ASN      O   95   4.976   4.312   3.219
   10PRO      N   96   4.845   4.483   3.171
   10PRO     CD   97   4.761   4.599   3.211
   10PRO    HD1   98   4.828   4.675   3.256
   10PRO    HD2   99   4.686   4.558   3.282
   10PRO     CA  100   4.863   4.481   3.025
   10PRO     HA  101   4.795   4.407   2.987
   10PRO     CB  102   4.811   4.625   2.988
   10PRO    HB1  103   4.800   4.620   2.878
   10PRO    HB2  104   4.883   4.707   3.010
   10PRO     CG  105   4.696   4.644   3.081
   10PRO    HG1  106   4.658   4.748   3.088
   10PRO    HG2  107   4.617   4.567   3.068
   10PRO      C  108   5.002   4.468   2.965
   10PRO      O  109   5.092   4.532   3.013
   11GLY      N  110   5.015   4.374   2.864
   11GLY     HN  111   4.938   4.324   2.826
   11GLY     CA  112   5.138   4.327   2.804
   11GLY    HA1  113   5.107   4.268   2.719
   11GLY    HA2  114   5.183   4.255   2.871
   11GLY      C  115   5.253   4.426   2.762
   11GLY      O  116   5.230   4.537   2.721
   12SER      N  117   5.373   4.366   2.764
   12SER     HN  118   5.382   4.268   2.779
   12SER     CA  119   5.504   4.435   2.755
   12SER     HA  120   5.522   4.496   2.843
   12SER     CB  121   5.611   4.321   2.762
   12SER    HB1  122   5.710   4.368   2.741
   12SER    HB2  123   5.593   4.254   2.676
   12SER     OG  124   5.607   4.257   2.886
   12SER    HG1  125   5.652   4.319   2.944
   12SER      C  126   5.532   4.518   2.624
   12SER      O  127   5.511   4.473   2.510
   13GLY      N  128   5.581   4.639   2.640
   13GLY     HN  129   5.612   4.673   2.729
   13GLY     CA  130   5.600   4.729   2.520
   13GLY    HA1  131   5.628   4.829   2.550
   13GLY    HA2  132   5.503   4.721   2.472
   13GLY      C  133   5.693   4.676   2.417
   13GLY      O  134   5.780   4.596   2.440
   14ASP      N  135   5.688   4.726   2.296
   14ASP     HN  136   5.622   4.797   2.275
   14ASP     CA  137   5.774   4.701   2.182
   14ASP     HA  138   5.771   4.599   2.149
   14ASP     CB  139   5.717   4.787   2.068
   14ASP    HB1  140   5.778   4.780   1.976
   14ASP    HB2  141   5.708   4.896   2.090
   14ASP     CG  142   5.567   4.750   2.040
   14ASP    OD1  143   5.495   4.827   1.971
   14ASP    OD2  144   5.518   4.644   2.084
   14ASP      C  145   5.918   4.743   2.193
   14ASP      O  146   5.951   4.850   2.245
   15PRO      N  147   6.013   4.661   2.149
   15PRO     CD  148   5.999   4.520   2.110
   15PRO    HD1  149   5.930   4.512   2.024
   15PRO    HD2  150   5.991   4.442   2.189
   15PRO     CA  151   6.150   4.697   2.170
   15PRO     HA  152   6.178   4.730   2.269
   15PRO     CB  153   6.217   4.564   2.148
   15PRO    HB1  154   6.218   4.511   2.246
   15PRO    HB2  155   6.318   4.574   2.102
   15PRO     CG  156   6.131   4.484   2.050
   15PRO    HG1  157   6.156   4.533   1.953
   15PRO    HG2  158   6.153   4.377   2.067
   15PRO      C  159   6.189   4.815   2.084
   15PRO    OT1  160   6.149   4.817   1.965
   15PRO    OT2  161   6.266   4.904   2.122
   16LIT    LIT  162   3.513   3.695   4.419
   17LIT    LIT  163   6.288   3.512   2.238
   18LIT    LIT  164   4.979   1.035   1.163
   19LIT    LIT  165   3.724   4.804   3.847
   20LIT    LIT  166   5.726   7.078   4.041
   21LIT    LIT  167   1.881   1.809   3.635
   22LIT    LIT  168   6.285   1.298   6.306
   23LIT    LIT  169   6.982   6.320   5.864
   24LIT    LIT  170   2.701   0.547   3.654
   25LIT    LIT  171   6.277   0.229   4.306
   26LIT    LIT  172   2.241   3.792   3.874
   27LIT    LIT  173   0.521   1.068   4.623
   28LIT    LIT  174   5.657   2.074   2.038
   29LIT    LIT  175   7.072   0.298   3.453
   30LIT    LIT  176   6.049   7.502   6.040
   31LIT    LIT  177   1.431   0.007   1.974
   32LIT    LIT  178   0.910   1.401   4.976
   33LIT    LIT  179   1.900   7.201   0.956
   34LIT    LIT  180   4.904   4.820   5.517
   35LIT    LIT  181   5.477   3.956   0.737
   36LIT    LIT  182   6.009   0.110   1.629
   37LIT    LIT  183   1.427   4.578   0.044
   38LIT    LIT  184   4.395   5.129   4.807
   39LIT    LIT  185   3.188   2.178   5.149
   40LIT    LIT  186   7.915   5.863   2.577
   41LIT    LIT  187   6.165   5.013   1.984
   42LIT    LIT  188   4.619   5.877   0.733
   43LIT    LIT  189   1.760   1.363   2.061
   44LIT    LIT  190   0.728   1.379   1.161
   45LIT    LIT  191   2.283   2.673   1.518
   46LIT    LIT  192   4.631   3.882   0.286
   47LIT    LIT  193   4.064   1.529   0.734
   48LIT    LIT  194   0.265   4.791   4.740
   49LIT    LIT  195   5.346   4.702   2.027
   50LIT    LIT  196   4.491   0.982   2.189
   51LIT    LIT  197   4.177   2.943   5.754
   52LIT    LIT  198   1.853   5.520   0.471
   53LIT    LIT  199   1.788   5.663   1.740
   54LIT    LIT  200   1.404   7.699   4.280
   55LIT    LIT  201   1.709   0.428   5.667
   56LIT    LIT  202   6.051   7.697   4.549
   57LIT    LIT  203   0.204   0.716   3.015
   58LIT    LIT  204   7.634   3.663   0.861
   59LIT    LIT  205   3.591   5.271   1.392
   60CLA    CLA  206   6.822   6.699   2.389
   61CLA    CLA  207   7.670   5.670   5.408
   62CLA    CLA  208   6.440   5.258   2.238
   63CLA    CLA  209   1.248   1.795   1.258
   64CLA    CLA  210   1.236   2.363   4.268
   65CLA    CLA  211   3.481   1.838   1.723
   66CLA    CLA  212   3.030   3.101   5.347
   67CLA    CLA  213   8.140   0.508   6.469
   68CLA    CLA  214   7.480   1.184   4.076
   69CLA    CLA  215   6.957   7.411   6.159
   70CLA    CLA  216   3.127   4.739   1.649
   71CLA    CLA  217   3.390   2.112   2.581
   72CLA    CLA  218   0.791   2.587   1.922
   73CLA    CLA  219   4.075   5.394   4.073
   74CLA    CLA  220   3.239   5.338   1.659
   75CLA    CLA  221   4.319   2.979   3.552
   76CLA    CLA  222   3.495   5.391   4.567
   77CLA    CLA  223   4.612   4.868   6.311
   78CLA    CLA  224   6.748   1.794   0.821
   79CLA    CLA  225   0.964   0.117   1.090
   80CLA    CLA  226   2.264   7.720   1.282
   81CLA    CLA  227   0.164   0.940   3.031
   82CLA    CLA  228   1.958   4.997   0.277
   83CLA    CLA  229   6.768   3.648   4.017
   84CLA    CLA  230   4.800   2.164   6.376
   85CLA    CLA  231   1.158   4.294   6.498
   86CLA    CLA  232   6.600   2.909   2.439
   87CLA    CLA  233   8.103   2.185   2.762
   88CLA    CLA  234   1.200   7.376   1.098
   89CLA    CLA  235   0.070   2.354   6.177
   90CLA    CLA  236   4.193   1.288   3.444
   91CLA    CLA  237   5.256   1.139   2.546
   92CLA    CLA  238   2.026   3.254   6.596
   93CLA    CLA  239   4.633   1.955   4.028
   94CLA    CLA  240   4.159   5.058   5.551
   95CLA    CLA  241   7.808   3.794   0.908
   96CLA    CLA  242   6.092   0.356   4.342
   97CLA    CLA  243   4.690   3.900   3.027
   98CLA    CLA  244   0.404   5.030   6.408
   99CLA    CLA  245   1.711   0.290   6.702
  100CLA    CLA  246   1.744   5.987   2.489
  101CLA    CLA  247   4.525   2.017   1.266
  102TIP3   OH2  248   2.841   3.832   1.299
  102TIP3    H1  249   2.769   3.774   1.275
  102TIP3    H2  250   2.804   3.892   1.364
  103TIP3   OH2  251   6.809   0.900   3.468
  103TIP3    H1  252   6.717   0.919   3.454
  103TIP3    H2  253   6.834   0.954   3.544
  104TIP3   OH2  254   1.237   5.708   0.474
  104TIP3    H1  255   1.262   5.770   0.405
  104TIP3    H2  256   1.317   5.659   0.492
  105TIP3   OH2  257   1.773   7.062   2.346
  105TIP3    H1  258   1.812   7.057   2.434
  105TIP3    H2  259   1.782   6.974   2.310
  106TIP3   OH2  260   4.401   1.149   0.065
  106TIP3    H1  261   4.391   1.083  -0.003
  106TIP3    H2  262   4.397   1.100   0.147
  107TIP3   OH2  263   2.976   2.505   0.123
  107TIP3    H1  264   2.958   2.436   0.186
  107TIP3    H2  265   2.976   2.586   0.174
  108TIP3   OH2  266   1.277   5.676   5.179
  108TIP3    H1  267   1.205   5.738   5.163
  108TIP3    H2  268   1.263   5.606   5.115
  109TIP3   OH2  269   3.964   1.950   0.693
  109TIP3    H1  270   4.028   1.932   0.623
  109TIP3    H2  271   4.010   1.926   0.773
  110TIP3   OH2  272   5.605   0.899   2.689
  110TIP3    H1  273   5.672   0.886   2.623
  110TIP3    H2  274   5.646   0.956   2.754
  111TIP3   OH2  275   6.673   2.982   5.577
  111TIP3    H1  276   6.608   3.011   5.512
  111TIP3    H2  277   6.672   3.051   5.643
  112TIP3   OH2  278   7.729   5.254   3.654
  112TIP3    H1  279   7.734   5.349   3.650
  112TIP3    H2  280   7.638   5.235   3.677
  113TIP3   OH2  281   0.244   5.682   6.215
  113TIP3    H1  282   0.251   5.745   6.286
  113TIP3    H2  283   0.333   5.647   6.206
  114TIP3   OH2  284   6.851   1.144   2.854
  114TIP3    H1  285   6.779   1.104   2.903
  114TIP3    H2  286   6.930   1.114   2.897
  115TIP3   OH2  287   0.866   7.797   1.242
  115TIP3    H1  288   0.939   7.765   1.189
  115TIP3    H2  289   0.896   7.789   1.332
  116TIP3   OH2  290   2.968   3.081   2.335
  116TIP3    H1  291   3.060   3.106   2.339
  116TIP3    H2  292   2.930   3.138   2.268
  117TIP3   OH2  293   3.576   4.529   4.387
  117TIP3    H1  294   3.554   4.574   4.305
  117TIP3    H2  295   3.638   4.461   4.360
  118TIP3   OH2  296   1.149   3.628   0.975
  118TIP3    H1  297   1.226   3.618   0.919
  118TIP3    H2  298   1.126   3.538   0.999
  119TIP3   OH2  299   2.028   4.533   0.426
  119TIP3    H1  300   2.015   4.523   0.332
  119TIP3    H2  301   1.961   4.596   0.453
  120TIP3   OH2  302   2.856   2.572   5.553
  120TIP3    H1  303   2.914   2.529   5.490
  120TIP3    H2  304   2.789   2.507   5.572
  121TIP3   OH2  305   6.563   2.173   5.056
  121TIP3    H1  306   6.564   2.079   5.035
  121TIP3    H2  307   6.647   2.206   5.023
  122TIP3   OH2  308   0.870   5.808   1.147
  122TIP3    H1  309   0.776   5.793   1.159
  122TIP3    H2  310   0.894   5.758   1.069
  123TIP3   OH2  311   7.581   6.552   2.012
  123TIP3    H1  312   7.608   6.541   1.921
  123TIP3    H2  313   7.529   6.474   2.032
  124TIP3   OH2  314   1.012   6.308   2.660
  124TIP3    H1  315   0.970   6.320   2.745
  124TIP3    H2  316   0.959   6.241   2.617
  125TIP3   OH2  317   6.742   5.027   5.119
  125TIP3    H1  318   6.663   4.975   5.101
  125TIP3    H2  319   6.732   5.056   5.210
  126TIP3   OH2  320   0.275   6.214   5.582
  126TIP3    H1  321   0.198   6.200   5.636
  126TIP3    H2  322   0.331   6.271   5.634
  127TIP3   OH2  323   6.528   1.342   4.536
  127TIP3    H1  324   6.481   1.313   4.615
  127TIP3    H2  325   6.460   1.377   4.479
  128TIP3   OH2  326   3.535   7.386   1.987
  128TIP3    H1  327   3.625   7.359   2.006
  128TIP3    H2  328   3.501   7.418   2.070
  129TIP3   OH2  329   7.607   0.220   4.969
  129TIP3    H1  330   7.562   0.140   4.995
  129TIP3    H2  331   7.700   0.200   4.981
  130TIP3   OH2  332   7.167   1.263   0.063
  130TIP3    H1  333   7.164   1.212  -0.018
  130TIP3    H2  334   7.161   1.198   0.133
  131TIP3   OH2  335   8.180   3.026   0.109
  131TIP3    H1  336   8.145   2.994   0.026
  131TIP3    H2  337   8.235   2.954   0.141
  132TIP3   OH2  338   1.176   5.197   5.564
  132TIP3    H1  339   1.161   5.272   5.621
  132TIP3    H2  340   1.140   5.223   5.479
  133TIP3   OH2  341   5.199   4.647   5.749
  133TIP3    H1  342   5.162   4.735   5.753
  133TIP3    H2  343   5.150   4.598   5.815
  134TIP3   OH2  344   6.136   2.927   3.827
  134TIP3    H1  345   6.182   2.919   3.910
  134TIP3    H2  346   6.158   2.847   3.779
  135TIP3   OH2  347   7.146   1.044   5.318
  135TIP3    H1  348   7.106   1.131   5.321
  135TIP3    H2  349   7.197   1.038   5.398
  136TIP3   OH2  350   4.773   4.913   4.553
  136TIP3    H1  351   4.828   4.835   4.541
  136TIP3    H2  352   4.829   4.986   4.526
  137TIP3   OH2  353   2.400   2.186   4.439
  137TIP3    H1  354   2.409   2.239   4.518
  137TIP3    H2  355   2.420   2.097   4.467
  138TIP3   OH2  356   3.574   7.537   5.321
  138TIP3    H1  357   3.518   7.597   5.272
  138TIP3    H2  358   3.607   7.476   5.255
  139TIP3   OH2  359   4.760   3.957   5.019
  139TIP3    H1  360   4.801   3.874   4.996
  139TIP3    H2  361   4.827   4.006   5.066
  140TIP3   OH2  362   0.794   6.554   4.630
  140TIP3    H1  363   0.722   6.492   4.614
  140TIP3    H2  364   0.873   6.501   4.624
  141TIP3   OH2  365   4.230   6.334   1.378
  141TIP3    H1  366   4.168   6.347   1.306
  141TIP3    H2  367   4.245   6.422   1.413
  142TIP3   OH2  368   1.237   2.681   3.566
  142TIP3    H1  369   1.194   2.735   3.499
  142TIP3    H2  370   1.239   2.737   3.643
  143TIP3   OH2  371   4.154   3.009   2.807
  143TIP3    H1  372   4.223   2.989   2.743
  143TIP3    H2  373   4.083   3.044   2.754
  144TIP3   OH2  374   6.842   6.571   4.042
  144TIP3    H1  375   6.764   6.518   4.055
  144TIP3    H2  376   6.847   6.627   4.120
  145TIP3   OH2  377   0.517   1.002   6.661
  145TIP3    H1  378   0.577   1.042   6.724
  145TIP3    H2  379   0.570   0.934   6.618
  146TIP3   OH2  380   4.647   0.966   2.073
  146TIP3    H1  381   4.672   1.001   1.987
  146TIP3    H2  382   4.725   0.978   2.127
  147TIP3   OH2  383   3.712   0.470   3.643
  147TIP3    H1  384   3.700   0.377   3.625
  147TIP3    H2  385   3.627   0.510   3.624
  148TIP3   OH2  386   4.426   0.545   5.782
  148TIP3    H1  387   4.358   0.481   5.803
  148TIP3    H2  388   4.421   0.609   5.853
  149TIP3   OH2  389   1.788   0.410   6.283
  149TIP3    H1  390   1.868   0.378   6.325
  149TIP3    H2  391   1.789   0.505   6.297
  150TIP3   OH2  392   7.428   1.795   6.041
  150TIP3    H1  393   7.415   1.724   5.979
  150TIP3    H2  394   7.340   1.832   6.053
  151TIP3   OH2  395   5.786   6.558   3.254
  151TIP3    H1  396   5.736   6.566   3.173
  151TIP3    H2  397   5.824   6.470   3.251
  152TIP3   OH2  398   5.125   2.804   6.146
  152TIP3    H1  399   5.116   2.709   6.149
  152TIP3    H2  400   5.193   2.820   6.080
  153TIP3   OH2  401   7.377   3.627   0.503
  153TIP3    H1  402   7.414   3.565   0.566
  153TIP3    H2  403   7.427   3.707   0.515
  154TIP3   OH2  404   0.102   7.641   1.841
  154TIP3    H1  405   0.027   7.693   1.869
  154TIP3    H2  406   0.166   7.705   1.812
  155TIP3   OH2  407   1.157   7.500   1.945
  155TIP3    H1  408   1.215   7.517   1.872
  155TIP3    H2  409   1.081   7.457   1.906
  156TIP3   OH2  410   7.518   6.824   6.311
  156TIP3    H1  411   7.514   6.736   6.348
  156TIP3    H2  412   7.600   6.861   6.345
  157TIP3   OH2  413   7.327   5.531   0.340
  157TIP3    H1  414   7.331   5.624   0.362
  157TIP3    H2  415   7.271   5.527   0.262
  158TIP3   OH2  416   2.958   5.810   4.740
  158TIP3    H1  417   2.986   5.792   4.650
  158TIP3    H2  418   2.973   5.728   4.786
  159TIP3   OH2  419   0.436   4.710   5.755
  159TIP3    H1  420   0.512   4.767   5.751
  159TIP3    H2  421   0.380   4.749   5.823
  160TIP3   OH2  422   2.014   2.882   3.308
  160TIP3    H1  423   2.045   2.791   3.309
  160TIP3    H2  424   1.965   2.889   3.226
  161TIP3   OH2  425   7.717   7.022   5.172
  161TIP3    H1  426   7.631   7.042   5.208
  161TIP3    H2  427   7.762   6.975   5.242
  162TIP3   OH2  428   8.198   5.055   4.162
  162TIP3    H1  429   8.125   5.113   4.186
  162TIP3    H2  430   8.185   4.977   4.216
  163TIP3   OH2  431   3.004   2.969   1.723
  163TIP3    H1  432   3.040   2.973   1.635
  163TIP3    H2  433   2.929   3.028   1.721
  164TIP3   OH2  434   3.205   4.855   0.462
  164TIP3    H1  435   3.258   4.880   0.386
  164TIP3    H2  436   3.126   4.817   0.425
  165TIP3   OH2  437   3.599   1.120   1.460
  165TIP3    H1  438   3.609   1.175   1.382
  165TIP3    H2  439   3.684   1.123   1.502
  166TIP3   OH2  440   8.150   2.797   6.455
  166TIP3    H1  441   8.220   2.790   6.390
  166TIP3    H2  442   8.113   2.884   6.441
  167TIP3   OH2  443   0.635   0.561   1.867
  167TIP3    H1  444   0.688   0.482   1.854
  167TIP3    H2  445   0.595   0.578   1.782
  168TIP3   OH2  446   4.510   1.839   3.786
  168TIP3    H1  447   4.577   1.828   3.718
  168TIP3    H2  448   4.555   1.882   3.858
  169TIP3   OH2  449   4.006   6.943   6.326
  169TIP3    H1  450   4.052   6.925   6.244
  169TIP3    H2  451   3.914   6.947   6.301
  170TIP3   OH2  452   0.381   4.358   6.722
  170TIP3    H1  453   0.378   4.392   6.811
  170TIP3    H2  454   0.469   4.323   6.712
  171TIP3   OH2  455   7.224   4.450   1.472
  171TIP3    H1  456   7.230   4.417   1.562
  171TIP3    H2  457   7.303   4.418   1.429
  172TIP3   OH2  458   5.316   7.845   6.712
  172TIP3    H1  459   5.275   7.811   6.632
  172TIP3    H2  460   5.317   7.770   6.772
  173TIP3   OH2  461   2.437   1.856   2.284
  173TIP3    H1  462   2.518   1.892   2.248
  173TIP3    H2  463   2.440   1.877   2.377
  174TIP3   OH2  464   5.777   1.451   5.550
  174TIP3    H1  465   5.712   1.393   5.589
  174TIP3    H2  466   5.775   1.430   5.456
  175TIP3   OH2  467   3.930   1.321   4.688
  175TIP3    H1  468   3.973   1.403   4.664
  175TIP3    H2  469   3.898   1.336   4.777
  176TIP3   OH2  470   3.637   1.537   4.853
  176TIP3    H1  471   3.604   1.619   4.889
  176TIP3    H2  472   3.695   1.564   4.782
  177TIP3   OH2  473   3.688   7.779   4.515
  177TIP3    H1  474   3.710   7.701   4.464
  177TIP3    H2  475   3.769   7.803   4.559
  178TIP3   OH2  476   6.743   3.799   6.134
  178TIP3    H1  477   6.736   3.705   6.150
  178TIP3    H2  478   6.655   3.833   6.148
  179TIP3   OH2  479   3.934   4.882   2.906
  179TIP3    H1  480   4.017   4.929   2.894
  179TIP3    H2  481   3.870   4.934   2.859
  180TIP3   OH2  482   4.615   3.929   4.706
  180TIP3    H1  483   4.579   3.888   4.785
  180TIP3    H2  484   4.636   4.019   4.733
  181TIP3   OH2  485   2.128   5.389   3.659
  181TIP3    H1  486   2.144   5.479   3.690
  181TIP3    H2  487   2.190   5.377   3.587
  182TIP3   OH2  488   8.161   3.457   4.351
  182TIP3    H1  489   8.088   3.445   4.411
  182TIP3    H2  490   8.140   3.537   4.302
  183TIP3   OH2  491   7.202   2.959   3.225
  183TIP3    H1  492   7.216   2.978   3.132
  183TIP3    H2  493   7.284   2.920   3.254
  184TIP3   OH2  494   5.230   2.175   3.652
  184TIP3    H1  495   5.158   2.141   3.704
  184TIP3    H2  496   5.293   2.208   3.716
  185TIP3   OH2  497   3.548   5.616   5.978
  185TIP3    H1  498   3.557   5.681   5.909
  185TIP3    H2  499   3.632   5.571   5.980
  186TIP3   OH2  500   2.181   2.455   2.699
  186TIP3    H1  501   2.178   2.551   2.704
  186TIP3    H2  502   2.112   2.432   2.637
  187TIP3   OH2  503   1.215   6.402   2.253
  187TIP3    H1  504   1.158   6.444   2.317
  187TIP3    H2  505   1.167   6.410   2.170
  188TIP3   OH2  506   4.786   1.676   5.947
  188TIP3    H1  507   4.768   1.725   5.867
  188TIP3    H2  508   4.727   1.715   6.012
  189TIP3   OH2  509   3.892   1.083   1.067
  189TIP3    H1  510   3.972   1.052   1.024
  189TIP3    H2  511   3.923   1.128   1.146
  190TIP3   OH2  512   1.311   6.961   3.450
  190TIP3    H1  513   1.313   6.870   3.479
  190TIP3    H2  514   1.286   7.011   3.528
  191TIP3   OH2  515   0.964   2.660   4.925
  191TIP3    H1  516   0.984   2.637   4.834
  191TIP3    H2  517   0.984   2.581   4.975
  192TIP3   OH2  518   6.114   1.877   0.547
  192TIP3    H1  519   6.077   1.923   0.622
  192TIP3    H2  520   6.207   1.898   0.549
  193TIP3   OH2  521   1.052   6.286   6.053
  193TIP3    H1  522   1.132   6.249   6.016
  193TIP3    H2  523   1.080   6.324   6.137
  194TIP3   OH2  524   7.513   7.263   0.463
  194TIP3    H1  525   7.423   7.289   0.484
  194TIP3    H2  526   7.552   7.242   0.548
  195TIP3   OH2  527   1.256   0.407   3.986
  195TIP3    H1  528   1.196   0.362   4.045
  195TIP3    H2  529   1.203   0.430   3.910
  196TIP3   OH2  530   7.454   5.870   3.768
  196TIP3    H1  531   7.543   5.898   3.748
  196TIP3    H2  532   7.406   5.951   3.784
  197TIP3   OH2  533   6.663   5.643   2.594
  197TIP3    H1  534   6.569   5.660   2.597
  197TIP3    H2  535   6.675   5.586   2.518
  198TIP3   OH2  536   5.004   5.717   3.826
  198TIP3    H1  537   5.068   5.773   3.782
  198TIP3    H2  538   4.970   5.771   3.898
  199TIP3   OH2  539   8.218   4.966   2.825
  199TIP3    H1  540   8.246   4.884   2.785
  199TIP3    H2  541   8.291   4.991   2.881
  200TIP3   OH2  542   3.847   0.615   5.074
  200TIP3    H1  543   3.849   0.702   5.114
  200TIP3    H2  544   3.755   0.601   5.052
  201TIP3   OH2  545   1.792   7.051   2.874
  201TIP3    H1  546   1.830   6.963   2.874
  201TIP3    H2  547   1.767   7.066   2.965
  202TIP3   OH2  548   7.588   3.212   4.671
  202TIP3    H1  549   7.570   3.268   4.746
  202TIP3    H2  550   7.683   3.204   4.669
  203TIP3   OH2  551   0.051   1.126   3.704
  203TIP3    H1  552   0.088   1.130   3.616
  203TIP3    H2  553  -0.024   1.185   3.701
  204TIP3   OH2  554   4.310   0.402   1.591
  204TIP3    H1  555   4.293   0.454   1.670
  204TIP3    H2  556   4.362   0.328   1.623
  205TIP3   OH2  557   3.382   2.742   3.394
  205TIP3    H1  558   3.392   2.662   3.342
  205TIP3    H2  559   3.298   2.731   3.439
  206TIP3   OH2  560   1.851   5.433   0.651
  206TIP3    H1  561   1.838   5.338   0.656
  206TIP3    H2  562   1.823   5.465   0.737
  207TIP3   OH2  563   4.867   1.209   5.380
  207TIP3    H1  564   4.919   1.209   5.299
  207TIP3    H2  565   4.910   1.274   5.436
  208TIP3   OH2  566   3.100   0.690   2.877
  208TIP3    H1  567   3.070   0.627   2.943
  208TIP3    H2  568   3.032   0.757   2.876
  209TIP3   OH2  569   3.765   5.737   3.921
  209TIP3    H1  570   3.713   5.724   4.000
  209TIP3    H2  571   3.726   5.677   3.857
  210TIP3   OH2  572   4.709   0.871   5.988
  210TIP3    H1  573   4.621   0.845   6.014
  210TIP3    H2  574   4.700   0.960   5.955
  211TIP3   OH2  575   3.120   1.945   4.601
  211TIP3    H1  576   3.116   2.015   4.667
  211TIP3    H2  577   3.137   1.991   4.519
  212TIP3   OH2  578   3.610   4.166   0.411
  212TIP3    H1  579   3.599   4.204   0.324
  212TIP3    H2  580   3.641   4.239   0.465
  213TIP3   OH2  581   7.787   2.095   1.316
  213TIP3    H1  582   7.784   2.037   1.393
  213TIP3    H2  583   7.871   2.141   1.324
  214TIP3   OH2  584   3.459   1.141   5.493
  214TIP3    H1  585   3.511   1.087   5.552
  214TIP3    H2  586   3.393   1.082   5.458
  215TIP3   OH2  587   5.166   7.234   5.233
  215TIP3    H1  588   5.219   7.155   5.233
  215TIP3    H2  589   5.087   7.211   5.282
  216TIP3   OH2  590   6.667   7.487   5.471
  216TIP3    H1  591   6.649   7.396   5.494
  216TIP3    H2  592   6.692   7.484   5.379
  217TIP3   OH2  593   7.095   5.530   5.139
  217TIP3    H1  594   7.188   5.553   5.144
  217TIP3    H2  595   7.091   5.439   5.171
  218TIP3   OH2  596   5.912   1.061   1.868
  218TIP3    H1  597   5.885   1.011   1.945
  218TIP3    H2  598   5.846   1.040   1.802
  219TIP3   OH2  599   1.030   6.324   4.035
  219TIP3    H1  600   0.957   6.327   3.974
  219TIP3    H2  601   1.015   6.246   4.088
  220TIP3   OH2  602   2.624   2.627   2.438
  220TIP3    H1  603   2.694   2.611   2.500
  220TIP3    H2  604   2.547   2.586   2.478
  221TIP3   OH2  605   5.665   2.736   3.962
  221TIP3    H1  606   5.669   2.772   3.873
  221TIP3    H2  607   5.692   2.645   3.953
  222TIP3   OH2  608   3.723   2.230   4.243
  222TIP3    H1  609   3.781   2.166   4.201
  222TIP3    H2  610   3.669   2.264   4.171
  223TIP3   OH2  611   0.907   0.365   2.076
  223TIP3    H1  612   0.984   0.379   2.022
  223TIP3    H2  613   0.928   0.288   2.129
  224TIP3   OH2  614   1.511   2.594   2.857
  224TIP3    H1  615   1.420   2.569   2.848
  224TIP3    H2  616   1.521   2.614   2.950
  225TIP3   OH2  617   6.843   1.571   0.414
  225TIP3    H1  618   6.885   1.486   0.418
  225TIP3    H2  619   6.840   1.601   0.505
  226TIP3   OH2  620   4.998   3.498   3.923
  226TIP3    H1  621   4.931   3.519   3.857
  226TIP3    H2  622   5.080   3.497   3.874
  227TIP3   OH2  623   8.087   6.773   0.484
  227TIP3    H1  624   8.155   6.708   0.467
  227TIP3    H2  625   8.134   6.855   0.494
  228TIP3   OH2  626   7.376   0.678   4.106
  228TIP3    H1  627   7.326   0.707   4.182
  228TIP3    H2  628   7.462   0.653   4.142
  229TIP3   OH2  629   4.992   7.783   4.724
  229TIP3    H1  630   4.974   7.754   4.814
  229TIP3    H2  631   5.067   7.731   4.697
  230TIP3   OH2  632   2.453   4.057   5.290
  230TIP3    H1  633   2.394   4.023   5.224
  230TIP3    H2  634   2.540   4.032   5.259
  231TIP3   OH2  635   4.295   0.212   2.737
  231TIP3    H1  636   4.335   0.151   2.799
  231TIP3    H2  637   4.218   0.165   2.704
  232TIP3   OH2  638   1.934   7.314   6.590
  232TIP3    H1  639   1.962   7.311   6.681
  232TIP3    H2  640   1.997   7.372   6.547
  233TIP3   OH2  641   7.167   4.806   4.342
  233TIP3    H1  642   7.188   4.797   4.249
  233TIP3    H2  643   7.116   4.887   4.346
  234TIP3   OH2  644   4.710   2.843   6.069
  234TIP3    H1  645   4.736   2.783   5.998
  234TIP3    H2  646   4.709   2.929   6.027
  235TIP3   OH2  647   6.514   6.141   1.224
  235TIP3    H1  648   6.544   6.230   1.207
  235TIP3    H2  649   6.593   6.088   1.226
  236TIP3   OH2  650   0.577   3.225   0.320
  236TIP3    H1  651   0.656   3.251   0.274
  236TIP3    H2  652   0.521   3.186   0.253
  237TIP3   OH2  653   1.468   3.034   5.274
  237TIP3    H1  654   1.480   2.952   5.226
  237TIP3    H2  655   1.391   3.018   5.328
  238TIP3   OH2  656   7.027   0.746   2.356
  238TIP3    H1  657   6.960   0.685   2.324
  238TIP3    H2  658   6.989   0.782   2.436
  239TIP3   OH2  659   4.374   7.079   0.791
  239TIP3    H1  660   4.337   6.995   0.819
  239TIP3    H2  661   4.376   7.132   0.870
  240TIP3   OH2  662   4.083   3.384   5.787
  240TIP3    H1  663   4.005   3.332   5.807
  240TIP3    H2  664   4.097   3.372   5.693
  241TIP3   OH2  665   7.588   3.160   0.644
  241TIP3    H1  666   7.646   3.231   0.616
  241TIP3    H2  667   7.534   3.141   0.567
  242TIP3   OH2  668   7.570   3.279   1.216
  242TIP3    H1  669   7.490   3.316   1.253
  242TIP3    H2  670   7.632   3.278   1.290
  243TIP3   OH2  671   1.773   0.060   2.167
  243TIP3    H1  672   1.767   0.154   2.181
  243TIP3    H2  673   1.847   0.049   2.107
  244TIP3   OH2  674   5.439   4.699   5.147
  244TIP3    H1  675   5.413   4.607   5.143
  244TIP3    H2  676   5.477   4.709   5.234
  245TIP3   OH2  677   7.358   6.425   3.323
  245TIP3    H1  678   7.358   6.480   3.244
  245TIP3    H2  679   7.408   6.476   3.387
  246TIP3   OH2  680   2.141   1.550   3.889
  246TIP3    H1  681   2.156   1.456   3.875
  246TIP3    H2  682   2.061   1.554   3.942
  247TIP3   OH2  683   1.961   1.098   5.025
  247TIP3    H1  684   1.897   1.134   4.962
  247TIP3    H2  685   2.046   1.128   4.992
  248TIP3   OH2  686   1.388   4.697   3.527
  248TIP3    H1  687   1.429   4.691   3.613
  248TIP3    H2  688   1.334   4.619   3.521
  249TIP3   OH2  689   5.849   0.177   0.443
  249TIP3    H1  690   5.822   0.269   0.445
  249TIP3    H2  691   5.794   0.135   0.509
  250TIP3   OH2  692   1.402   5.894   2.370
  250TIP3    H1  693   1.382   5.940   2.288
  250TIP3    H2  694   1.493   5.919   2.389
  251TIP3   OH2  695   6.412   6.384   6.525
  251TIP3    H1  696   6.452   6.365   6.440
  251TIP3    H2  697   6.353   6.311   6.541
  252TIP3   OH2  698   4.421   0.421   0.638
  252TIP3    H1  699   4.494   0.360   0.638
  252TIP3    H2  700   4.461   0.507   0.635
  253TIP3   OH2  701   6.469   2.596   2.416
  253TIP3    H1  702   6.526   2.674   2.421
  253TIP3    H2  703   6.530   2.523   2.411
  254TIP3   OH2  704   7.262   6.631   3.136
  254TIP3    H1  705   7.332   6.681   3.177
  254TIP3    H2  706   7.300   6.602   3.052
  255TIP3   OH2  707   8.241   5.721   3.556
  255TIP3    H1  708   8.235   5.738   3.650
  255TIP3    H2  709   8.225   5.628   3.547
  256TIP3   OH2  710   7.866   0.123   3.830
  256TIP3    H1  711   7.862   0.028   3.842
  256TIP3    H2  712   7.783   0.155   3.865
  257TIP3   OH2  713   4.156   2.587   4.942
  257TIP3    H1  714   4.231   2.529   4.953
  257TIP3    H2  715   4.080   2.530   4.955
  258TIP3   OH2  716   2.838   4.386   2.349
  258TIP3    H1  717   2.921   4.341   2.364
  258TIP3    H2  718   2.815   4.366   2.259
  259TIP3   OH2  719   5.237   4.659   0.810
  259TIP3    H1  720   5.310   4.599   0.796
  259TIP3    H2  721   5.161   4.603   0.825
  260TIP3   OH2  722   2.199   1.260   1.731
  260TIP3    H1  723   2.269   1.194   1.730
  260TIP3    H2  724   2.155   1.249   1.647
  261TIP3   OH2  725   7.102   1.251   0.630
  261TIP3    H1  726   7.114   1.159   0.656
  261TIP3    H2  727   7.026   1.280   0.679
  262TIP3   OH2  728   3.231   6.761   1.250
  262TIP3    H1  729   3.171   6.763   1.175
  262TIP3    H2  730   3.175   6.744   1.326
  263TIP3   OH2  731   3.693   4.873   4.326
  263TIP3    H1  732   3.729   4.797   4.280
  263TIP3    H2  733   3.727   4.865   4.415
  264TIP3   OH2  734   5.443   3.033   5.197
  264TIP3    H1  735   5.418   3.005   5.285
  264TIP3    H2  736   5.517   3.092   5.210
  265TIP3   OH2  737   2.421   2.229   3.641
  265TIP3    H1  738   2.383   2.158   3.694
  265TIP3    H2  739   2.509   2.198   3.620
  266TIP3   OH2  740   6.406   0.997   2.273
  266TIP3    H1  741   6.449   1.056   2.334
  266TIP3    H2  742   6.355   1.054   2.216
  267TIP3   OH2  743   1.029   4.061   4.300
  267TIP3    H1  744   0.993   4.120   4.234
  267TIP3    H2  745   1.106   4.107   4.334
  268TIP3   OH2  746   0.326   6.709   3.958
  268TIP3    H1  747   0.271   6.635   3.933
  268TIP3    H2  748   0.352   6.690   4.049
  269TIP3   OH2  749   5.278   3.563   1.671
  269TIP3    H1  750   5.254   3.504   1.742
  269TIP3    H2  751   5.373   3.569   1.675
  270TIP3   OH2  752   4.897   2.061   0.710
  270TIP3    H1  753   4.831   2.106   0.764
  270TIP3    H2  754   4.906   2.116   0.632
  271TIP3   OH2  755   5.292   3.632   4.411
  271TIP3    H1  756   5.249   3.717   4.403
  271TIP3    H2  757   5.383   3.654   4.434
  272TIP3   OH2  758   3.963   0.395   6.070
  272TIP3    H1  759   3.935   0.384   6.161
  272TIP3    H2  760   3.960   0.489   6.056
  273TIP3   OH2  761   3.176   0.908   2.411
  273TIP3    H1  762   3.244   0.974   2.398
  273TIP3    H2  763   3.112   0.926   2.342
  274TIP3   OH2  764   1.818   6.119   1.067
  274TIP3    H1  765   1.807   6.109   0.972
  274TIP3    H2  766   1.896   6.067   1.087
  275TIP3   OH2  767   1.738   3.069   4.136
  275TIP3    H1  768   1.768   2.979   4.143
  275TIP3    H2  769   1.682   3.082   4.212
  276TIP3   OH2  770   3.099   0.200   0.675
  276TIP3    H1  771   3.013   0.163   0.654
  276TIP3    H2  772   3.080   0.269   0.738
  277TIP3   OH2  773   1.201   1.073   4.796
  277TIP3    H1  774   1.279   1.098   4.747
  277TIP3    H2  775   1.228   0.996   4.846
  278TIP3   OH2  776   6.569   2.371   0.252
  278TIP3    H1  777   6.628   2.401   0.183
  278TIP3    H2  778   6.515   2.447   0.273
  279TIP3   OH2  779   1.912   1.749   2.856
  279TIP3    H1  780   1.912   1.703   2.940
  279TIP3    H2  781   1.959   1.831   2.873
  280TIP3   OH2  782   2.181   1.214   4.894
  280TIP3    H1  783   2.211   1.279   4.831
  280TIP3    H2  784   2.255   1.202   4.954
  281TIP3   OH2  785   3.152   5.013   0.741
  281TIP3    H1  786   3.179   4.983   0.654
  281TIP3    H2  787   3.095   5.088   0.725
  282TIP3   OH2  788   3.857   0.216   2.169
  282TIP3    H1  789   3.833   0.194   2.079
  282TIP3    H2  790   3.795   0.167   2.224
  283TIP3   OH2  791   6.042   1.653   0.095
  283TIP3    H1  792   6.103   1.598   0.046
  283TIP3    H2  793   5.990   1.697   0.028
  284TIP3   OH2  794   8.069   6.345   1.661
  284TIP3    H1  795   8.056   6.350   1.566
  284TIP3    H2  796   8.122   6.265   1.673
  285TIP3   OH2  797   5.542   7.604   5.946
  285TIP3    H1  798   5.466   7.561   5.906
  285TIP3    H2  799   5.551   7.562   6.032
  286TIP3   OH2  800   6.378   7.142   2.746
  286TIP3    H1  801   6.418   7.092   2.818
  286TIP3    H2  802   6.396   7.090   2.668
  287TIP3   OH2  803   6.297   1.606   5.582
  287TIP3    H1  804   6.267   1.697   5.590
  287TIP3    H2  805   6.392   1.611   5.595
  288TIP3   OH2  806   7.395   5.557   4.648
  288TIP3    H1  807   7.334   5.525   4.581
  288TIP3    H2  808   7.476   5.575   4.601
  289TIP3   OH2  809   5.073   5.889   2.123
  289TIP3    H1  810   5.091   5.956   2.189
  289TIP3    H2  811   5.151   5.833   2.123
  290TIP3   OH2  812   6.406   6.310   3.389
  290TIP3    H1  813   6.322   6.339   3.354
  290TIP3    H2  814   6.386   6.228   3.434
  291TIP3   OH2  815   5.399   5.664   0.067
  291TIP3    H1  816   5.364   5.613  -0.006
  291TIP3    H2  817   5.350   5.747   0.064
  292TIP3   OH2  818   2.566   7.315   1.974
  292TIP3    H1  819   2.562   7.323   1.879
  292TIP3    H2  820   2.659   7.308   1.994
  293TIP3   OH2  821   0.825   6.647   2.372
  293TIP3    H1  822   0.833   6.615   2.282
  293TIP3    H2  823   0.762   6.719   2.367
  294TIP3   OH2  824   7.922   4.664   0.326
  294TIP3    H1  825   7.955   4.592   0.379
  294TIP3    H2  826   7.874   4.719   0.387
  295TIP3   OH2  827   7.208   7.005   4.284
  295TIP3    H1  828   7.161   7.087   4.297
  295TIP3    H2  829   7.198   6.958   4.367
  296TIP3   OH2  830   3.526   7.685   4.723
  296TIP3    H1  831   3.569   7.599   4.725
  296TIP3    H2  832   3.584   7.739   4.671
  297TIP3   OH2  833   5.506   4.050   6.615
  297TIP3    H1  834   5.530   4.024   6.526
  297TIP3    H2  835   5.586   4.036   6.666
  298TIP3   OH2  836   0.376   0.831   6.060
  298TIP3    H1  837   0.455   0.842   6.007
  298TIP3    H2  838   0.329   0.759   6.019
  299TIP3   OH2  839   2.819   3.871   0.849
  299TIP3    H1  840   2.909   3.899   0.832
  299TIP3    H2  841   2.768   3.913   0.779
  300TIP3   OH2  842   2.941   6.312   3.316
  300TIP3    H1  843   2.848   6.315   3.295
  300TIP3    H2  844   2.944   6.296   3.411
  301TIP3   OH2  845   5.616   2.916   2.903
  301TIP3    H1  846   5.677   2.886   2.971
  301TIP3    H2  847   5.565   2.838   2.881
  302TIP3   OH2  848   3.086   7.726   2.764
  302TIP3    H1  849   3.091   7.763   2.852
  302TIP3    H2  850   3.127   7.793   2.709
  303TIP3   OH2  851   6.687   6.492   4.894
  303TIP3    H1  852   6.721   6.456   4.976
  303TIP3    H2  853   6.610   6.438   4.873
  304TIP3   OH2  854   4.804   3.415   0.497
  304TIP3    H1  855   4.892   3.379   0.489
  304TIP3    H2  856   4.755   3.347   0.545
  305TIP3   OH2  857   7.441   3.581   2.009
  305TIP3    H1  858   7.503   3.645   1.974
  305TIP3    H2  859   7.453   3.503   1.954
  306TIP3   OH2  860   6.284   1.411   0.847
  306TIP3    H1  861   6.374   1.392   0.821
  306TIP3    H2  862   6.238   1.426   0.765
  307TIP3   OH2  863   5.460   2.684   4.223
  307TIP3    H1  864   5.425   2.669   4.136
  307TIP3    H2  865   5.543   2.730   4.208
  308TIP3   OH2  866   6.882   4.004   6.315
  308TIP3    H1  867   6.952   3.979   6.255
  308TIP3    H2  868   6.839   4.078   6.273
  309TIP3   OH2  869   4.873   0.864   3.960
  309TIP3    H1  870   4.948   0.903   4.005
  309TIP3    H2  871   4.805   0.858   4.026
  310TIP3   OH2  872   6.360   6.613   2.037
  310TIP3    H1  873   6.309   6.694   2.041
  310TIP3    H2  874   6.342   6.569   2.119
  311TIP3   OH2  875   4.621   6.998   1.055
  311TIP3    H1  876   4.616   7.092   1.070
  311TIP3    H2  877   4.699   6.986   1.000
  312TIP3   OH2  878   7.817   0.332   0.166
  312TIP3    H1  879   7.809   0.427   0.156
  312TIP3    H2  880   7.764   0.295   0.095
  313TIP3   OH2  881   6.216   6.894   6.397
  313TIP3    H1  882   6.164   6.829   6.350
  313TIP3    H2  883   6.152   6.957   6.430
  314TIP3   OH2  884   0.554   6.015   1.232
  314TIP3    H1  885   0.587   6.015   1.322
  314TIP3    H2  886   0.472   5.967   1.237
  315TIP3   OH2  887   7.039   7.298   6.694
  315TIP3    H1  888   7.038   7.217   6.643
  315TIP3    H2  889   7.030   7.368   6.629
  316TIP3   OH2  890   5.220   0.798   1.970
  316TIP3    H1  891   5.304   0.834   1.940
  316TIP3    H2  892   5.156   0.864   1.945
  317TIP3   OH2  893   7.498   7.413   0.946
  317TIP3    H1  894   7.463   7.394   0.859
  317TIP3    H2  895   7.436   7.373   1.006
  318TIP3   OH2  896   0.207   1.383   4.165
  318TIP3    H1  897   0.185   1.295   4.134
  318TIP3    H2  898   0.133   1.438   4.137
  319TIP3   OH2  899   0.000   4.651   6.624
  319TIP3    H1  900   0.052   4.647   6.704
  319TIP3    H2  901   0.057   4.696   6.561
  320TIP3   OH2  902   2.793   2.487   1.934
  320TIP3    H1  903   2.880   2.488   1.973
  320TIP3    H2  904   2.740   2.543   1.992
  321TIP3   OH2  905   7.769   4.454   2.654
  321TIP3    H1  906   7.723   4.518   2.599
  321TIP3    H2  907   7.732   4.468   2.741
  322TIP3   OH2  908   5.242   1.270   5.059
  322TIP3    H1  909   5.210   1.284   4.970
  322TIP3    H2  910   5.273   1.180   5.061
  323TIP3   OH2  911   4.836   5.089   2.304
  323TIP3    H1  912   4.871   5.160   2.249
  323TIP3    H2  913   4.846   5.121   2.393
  324TIP3   OH2  914   3.652   5.860   6.641
  324TIP3    H1  915   3.683   5.924   6.704
  324TIP3    H2  916   3.660   5.776   6.686
  325TIP3   OH2  917   0.584   5.005   4.765
  325TIP3    H1  918   0.643   5.015   4.690
  325TIP3    H2  919   0.610   5.075   4.825
  326TIP3   OH2  920   6.056   0.853   2.829
  326TIP3    H1  921   6.108   0.808   2.896
  326TIP3    H2  922   6.056   0.944   2.857
  327TIP3   OH2  923   7.827   0.302   2.253
  327TIP3    H1  924   7.916   0.272   2.273
  327TIP3    H2  925   7.774   0.270   2.325
  328TIP3   OH2  926   0.334   1.381   2.297
  328TIP3    H1  927   0.241   1.395   2.311
  328TIP3    H2  928   0.371   1.468   2.286
  329TIP3   OH2  929   7.570   3.729   5.952
  329TIP3    H1  930   7.561   3.762   5.862
  329TIP3    H2  931   7.501   3.663   5.960
  330TIP3   OH2  932   4.643   3.662   3.240
  330TIP3    H1  933   4.681   3.704   3.163
  330TIP3    H2  934   4.572   3.607   3.205
  331TIP3   OH2  935   1.276   4.907   5.566
  331TIP3    H1  936   1.289   4.855   5.645
  331TIP3    H2  937   1.240   4.990   5.598
  332TIP3   OH2  938   6.823   5.615   1.651
  332TIP3    H1  939   6.819   5.668   1.571
  332TIP3    H2  940   6.759   5.655   1.710
  333TIP3   OH2  941   8.248   5.959   1.491
  333TIP3    H1  942   8.334   5.998   1.508
  333TIP3    H2  943   8.199   5.972   1.572
  334TIP3   OH2  944   5.058   0.428   3.186
  334TIP3    H1  945   4.981   0.371   3.186
  334TIP3    H2  946   5.107   0.402   3.108
  335TIP3   OH2  947   8.243   5.578   3.199
  335TIP3    H1  948   8.338   5.582   3.188
  335TIP3    H2  949   8.229   5.506   3.261
  336TIP3   OH2  950   6.311   1.880   5.588
  336TIP3    H1  951   6.385   1.914   5.638
  336TIP3    H2  952   6.299   1.943   5.517
  337TIP3   OH2  953   1.942   3.913   0.689
  337TIP3    H1  954   1.853   3.893   0.660
  337TIP3    H2  955   1.990   3.830   0.677
  338TIP3   OH2  956   0.491   5.629   2.451
  338TIP3    H1  957   0.402   5.653   2.428
  338TIP3    H2  958   0.540   5.711   2.449
  339TIP3   OH2  959   4.434   6.136   2.053
  339TIP3    H1  960   4.405   6.088   1.976
  339TIP3    H2  961   4.518   6.175   2.028
  340TIP3   OH2  962   5.690   4.039   4.297
  340TIP3    H1  963   5.737   3.956   4.301
  340TIP3    H2  964   5.664   4.058   4.387
  341TIP3   OH2  965   2.489   1.034   1.930
  341TIP3    H1  966   2.517   0.944   1.941
  341TIP3    H2  967   2.443   1.035   1.846
  342TIP3   OH2  968   3.748   2.228   2.280
  342TIP3    H1  969   3.804   2.304   2.294
  342TIP3    H2  970   3.666   2.265   2.245
  343TIP3   OH2  971   0.258   3.557   0.552
  343TIP3    H1  972   0.327   3.519   0.497
  343TIP3    H2  973   0.235   3.487   0.613
  344TIP3   OH2  974   3.629   2.786   3.185
  344TIP3    H1  975   3.573   2.773   3.262
  344TIP3    H2  976   3.703   2.727   3.199
  345TIP3   OH2  977   0.068   0.551   5.018
  345TIP3    H1  978   0.038   0.460   5.014
  345TIP3    H2  979   0.153   0.550   4.974
  346TIP3   OH2  980   3.348   1.390   6.251
  346TIP3    H1  981   3.305   1.396   6.166
  346TIP3    H2  982   3.348   1.480   6.285
  347TIP3   OH2  983   4.239   2.428   2.776
  347TIP3    H1  984   4.152   2.390   2.780
  347TIP3    H2  985   4.264   2.441   2.868
  348TIP3   OH2  986   7.481   0.495   3.875
  348TIP3    H1  987   7.448   0.584   3.887
  348TIP3    H2  988   7.416   0.453   3.819
  349TIP3   OH2  989   0.161   4.471   2.936
  349TIP3    H1  990   0.220   4.516   2.876
  349TIP3    H2  991   0.091   4.533   2.953
  350TIP3   OH2  992   1.381   2.042   5.220
  350TIP3    H1  993   1.433   2.095   5.280
  350TIP3    H2  994   1.312   2.101   5.190
  351TIP3   OH2  995   0.618   6.771   4.478
  351TIP3    H1  996   0.636   6.865   4.479
  351TIP3    H2  997   0.673   6.736   4.547
  352TIP3   OH2  998   0.005   2.225   0.033
  352TIP3    H1  999  -0.031   2.310   0.006
  352TIP3    H2 1000   0.044   2.242   0.119
  353TIP3   OH2 1001   7.131   7.572   1.636
  353TIP3    H1 1002   7.056   7.631   1.628
  353TIP3    H2 1003   7.185   7.610   1.705
  354TIP3   OH2 1004   7.976   1.745   3.690
  354TIP3    H1 1005   7.929   1.776   3.767
  354TIP3    H2 1006   7.956   1.809   3.622
  355TIP3   OH2 1007   0.502   0.440   0.831
  355TIP3    H1 1008   0.506   0.506   0.901
  355TIP3    H2 1009   0.465   0.363   0.873
  356TIP3   OH2 1010   2.941   2.263   2.319
  356TIP3    H1 1011   2.989   2.321   2.259
  356TIP3    H2 1012   3.009   2.223   2.373
  357TIP3   OH2 1013   3.279   2.071   3.169
  357TIP3    H1 1014   3.188   2.084   3.142
  357TIP3    H2 1015   3.319   2.158   3.159
  358TIP3   OH2 1016   0.767   7.232   3.095
  358TIP3    H1 1017   0.772   7.194   3.182
  358TIP3    H2 1018   0.703   7.303   3.103
  359TIP3   OH2 1019   0.419   2.105   5.517
  359TIP3    H1 1020   0.515   2.105   5.517
  359TIP3    H2 1021   0.395   2.017   5.487
  360TIP3   OH2 1022   3.389   2.685   3.694
  360TIP3    H1 1023   3.438   2.760   3.727
  360TIP3    H2 1024   3.449   2.640   3.635
  361TIP3   OH2 1025   3.505   3.357   0.574
  361TIP3    H1 1026   3.455   3.301   0.514
  361TIP3    H2 1027   3.557   3.414   0.517
  362TIP3   OH2 1028   4.511   2.865   3.798
  362TIP3    H1 1029   4.603   2.849   3.777
  362TIP3    H2 1030   4.480   2.922   3.727
  363TIP3   OH2 1031   5.047   4.649   5.100
  363TIP3    H1 1032   5.126   4.639   5.046
  363TIP3    H2 1033   4.979   4.674   5.038
  364TIP3   OH2 1034   2.333   1.052   1.257
  364TIP3    H1 1035   2.362   1.129   1.208
  364TIP3    H2 1036   2.295   0.994   1.191
  365TIP3   OH2 1037   3.050   6.695   2.412
  365TIP3    H1 1038   3.059   6.617   2.357
  365TIP3    H2 1039   2.975   6.741   2.375
  366TIP3   OH2 1040   2.285   2.406   6.186
  366TIP3    H1 1041   2.213   2.467   6.206
  366TIP3    H2 1042   2.360   2.463   6.171
  367TIP3   OH2 1043   1.726   6.182   5.554
  367TIP3    H1 1044   1.786   6.107   5.555
  367TIP3    H2 1045   1.772   6.248   5.503
  368TIP3   OH2 1046   0.774   4.152   5.530
  368TIP3    H1 1047   0.772   4.150   5.625
  368TIP3    H2 1048   0.822   4.073   5.505
  369TIP3   OH2 1049   2.805   4.690   2.907
  369TIP3    H1 1050   2.819   4.755   2.975
  369TIP3    H2 1051   2.854   4.722   2.832
  370TIP3   OH2 1052   8.086   3.125   1.418
  370TIP3    H1 1053   8.137   3.081   1.351
  370TIP3    H2 1054   8.088   3.066   1.493
  371TIP3   OH2 1055   5.405   2.633   3.220
  371TIP3    H1 1056   5.467   2.705   3.233
  371TIP3    H2 1057   5.461   2.557   3.205
  372TIP3   OH2 1058   2.114   2.342   1.132
  372TIP3    H1 1059   2.155   2.323   1.216
  372TIP3    H2 1060   2.161   2.286   1.070
  373TIP3   OH2 1061   8.244   7.816   4.437
  373TIP3    H1 1062   8.252   7.777   4.350
  373TIP3    H2 1063   8.221   7.743   4.494
  374TIP3   OH2 1064   3.488   1.592   4.293
  374TIP3    H1 1065   3.473   1.631   4.379
  374TIP3    H2 1066   3.451   1.504   4.301
  375TIP3   OH2 1067   1.273   1.567   1.500
  375TIP3    H1 1068   1.302   1.611   1.421
  375TIP3    H2 1069   1.344   1.507   1.522
  376TIP3   OH2 1070   8.232   7.502   1.309
  376TIP3    H1 1071   8.240   7.471   1.219
  376TIP3    H2 1072   8.310   7.468   1.354
  377TIP3   OH2 1073   6.867   1.418   3.666
  377TIP3    H1 1074   6.854   1.499   3.715
  377TIP3    H2 1075   6.904   1.357   3.730
  378TIP3   OH2 1076   4.440   0.927   5.615
  378TIP3    H1 1077   4.481   1.009   5.588
  378TIP3    H2 1078   4.355   0.927   5.571
  379TIP3   OH2 1079   2.945   1.567   3.944
  379TIP3    H1 1080   2.914   1.566   3.854
  379TIP3    H2 1081   2.923   1.481   3.979
  380TIP3   OH2 1082   4.418   4.182   3.389
  380TIP3    H1 1083   4.379   4.096   3.405
  380TIP3    H2 1084   4.492   4.164   3.330
  381TIP3   OH2 1085   5.835   2.815   4.947
  381TIP3    H1 1086   5.746   2.824   4.981
  381TIP3    H2 1087   5.825   2.815   4.852
  382TIP3   OH2 1088   1.384   6.394   4.451
  382TIP3    H1 1089   1.447   6.384   4.381
  382TIP3    H2 1090   1.302   6.415   4.407
  383TIP3   OH2 1091   3.811   0.116   6.261
  383TIP3    H1 1092   3.737   0.063   6.291
  383TIP3    H2 1093   3.873   0.114   6.333
  384TIP3   OH2 1094   4.083   1.640   5.850
  384TIP3    H1 1095   4.126   1.577   5.792
  384TIP3    H2 1096   4.154   1.695   5.883
  385TIP3   OH2 1097   6.099   7.627   5.892
  385TIP3    H1 1098   6.170   7.640   5.829
  385TIP3    H2 1099   6.021   7.660   5.847
  386TIP3   OH2 1100   2.663   4.576   0.773
  386TIP3    H1 1101   2.648   4.654   0.826
  386TIP3    H2 1102   2.696   4.609   0.690
  387TIP3   OH2 1103   3.598   2.655   0.800
  387TIP3    H1 1104   3.561   2.618   0.720
  387TIP3    H2 1105   3.604   2.749   0.783
  388TIP3   OH2 1106   1.525   2.391   3.353
  388TIP3    H1 1107   1.558   2.479   3.336
  388TIP3    H2 1108   1.573   2.335   3.292
  389TIP3   OH2 1109   7.851   2.248   2.944
  389TIP3    H1 1110   7.855   2.202   3.028
  389TIP3    H2 1111   7.927   2.215   2.895
  390TIP3   OH2 1112   3.711   3.019   4.820
  390TIP3    H1 1113   3.783   3.010   4.882
  390TIP3    H2 1114   3.723   3.106   4.782
  391TIP3   OH2 1115   7.895   7.767   4.010
  391TIP3    H1 1116   7.937   7.684   3.986
  391TIP3    H2 1117   7.946   7.834   3.963
  392TIP3   OH2 1118   7.389   2.099   0.383
  392TIP3    H1 1119   7.457   2.073   0.445
  392TIP3    H2 1120   7.324   2.145   0.436
  393TIP3   OH2 1121   1.526   6.746   5.749
  393TIP3    H1 1122   1.592   6.746   5.680
  393TIP3    H2 1123   1.558   6.683   5.814
  394TIP3   OH2 1124   2.384   5.380   6.439
  394TIP3    H1 1125   2.341   5.351   6.359
  394TIP3    H2 1126   2.312   5.402   6.499
  395TIP3   OH2 1127   8.182   2.238   6.573
  395TIP3    H1 1128   8.244   2.240   6.646
  395TIP3    H2 1129   8.105   2.285   6.606
  396TIP3   OH2 1130   6.008   6.255   5.566
  396TIP3    H1 1131   5.971   6.343   5.555
  396TIP3    H2 1132   5.935   6.196   5.547
  397TIP3   OH2 1133   7.782   0.231   6.110
  397TIP3    H1 1134   7.694   0.195   6.112
  397TIP3    H2 1135   7.806   0.231   6.017
  398TIP3   OH2 1136   6.806   7.069   2.815
  398TIP3    H1 1137   6.771   7.136   2.757
  398TIP3    H2 1138   6.768   6.987   2.782
  399TIP3   OH2 1139   7.100   3.247   3.213
  399TIP3    H1 1140   7.100   3.265   3.119
  399TIP3    H2 1141   7.081   3.153   3.219
  400TIP3   OH2 1142   4.077   7.477   2.718
  400TIP3    H1 1143   4.075   7.385   2.694
  400TIP3    H2 1144   4.135   7.517   2.653
  401TIP3   OH2 1145   1.721   7.073   3.974
  401TIP3    H1 1146   1.704   7.158   3.934
  401TIP3    H2 1147   1.666   7.072   4.052
  402TIP3   OH2 1148   0.965   3.303   6.466
  402TIP3    H1 1149   0.893   3.365   6.451
  402TIP3    H2 1150   1.040   3.359   6.487
  403TIP3   OH2 1151   7.597   0.850   3.391
  403TIP3    H1 1152   7.561   0.849   3.302
  403TIP3    H2 1153   7.683   0.891   3.382
  404TIP3   OH2 1154   4.203   6.983   2.280
  404TIP3    H1 1155   4.206   7.005   2.374
  404TIP3    H2 1156   4.224   7.065   2.236
  405TIP3   OH2 1157   6.704   7.643   5.800
  405TIP3    H1 1158   6.796   7.665   5.788
  405TIP3    H2 1159   6.693   7.634   5.895
  406TIP3   OH2 1160   1.417   6.890   1.422
  406TIP3    H1 1161   1.499   6.904   1.470
  406TIP3    H2 1162   1.430   6.808   1.375
  407TIP3   OH2 1163   1.167   3.870   2.453
  407TIP3    H1 1164   1.219   3.791   2.434
  407TIP3    H2 1165   1.221   3.942   2.422
  408TIP3   OH2 1166   7.021   6.437   2.492
  408TIP3    H1 1167   6.975   6.516   2.463
  408TIP3    H2 1168   7.029   6.447   2.587
  409TIP3   OH2 1169   7.716   5.008   1.465
  409TIP3    H1 1170   7.725   5.096   1.428
  409TIP3    H2 1171   7.626   4.982   1.445
  410TIP3   OH2 1172   0.211   6.587   0.533
  410TIP3    H1 1173   0.157   6.633   0.597
  410TIP3    H2 1174   0.153   6.568   0.460
  411TIP3   OH2 1175   2.458   0.959   2.554
  411TIP3    H1 1176   2.549   0.987   2.563
  411TIP3    H2 1177   2.453   0.878   2.604
  412TIP3   OH2 1178   7.103   5.084   4.634
  412TIP3    H1 1179   7.145   5.111   4.715
  412TIP3    H2 1180   7.037   5.152   4.618
  413TIP3   OH2 1181   2.952   0.753   4.480
  413TIP3    H1 1182   2.899   0.780   4.555
  413TIP3    H2 1183   3.014   0.824   4.468
  414TIP3   OH2 1184   4.794   4.159   6.563
  414TIP3    H1 1185   4.721   4.097   6.577
  414TIP3    H2 1186   4.803   4.204   6.647
  415TIP3   OH2 1187   6.897   7.452   0.941
  415TIP3    H1 1188   6.883   7.368   0.984
  415TIP3    H2 1189   6.939   7.430   0.858
  416TIP3   OH2 1190   1.257   5.785   0.082
  416TIP3    H1 1191   1.276   5.807  -0.009
  416TIP3    H2 1192   1.191   5.849   0.109
  417TIP3   OH2 1193   2.841   2.742   0.470
  417TIP3    H1 1194   2.779   2.697   0.412
  417TIP3    H2 1195   2.924   2.699   0.454
  418TIP3   OH2 1196   7.481   3.948   2.961
  418TIP3    H1 1197   7.551   3.981   3.017
  418TIP3    H2 1198   7.524   3.926   2.878
  419TIP3   OH2 1199   7.467   2.675   6.282
  419TIP3    H1 1200   7.399   2.734   6.250
  419TIP3    H2 1201   7.451   2.592   6.235
  420TIP3   OH2 1202   3.192   5.779   0.186
  420TIP3    H1 1203   3.164   5.832   0.261
  420TIP3    H2 1204   3.263   5.830   0.147
  421TIP3   OH2 1205   2.850   3.366   5.272
  421TIP3    H1 1206   2.903   3.443   5.253
  421TIP3    H2 1207   2.913   3.302   5.306
  422TIP3   OH2 1208   1.543   5.441   5.878
  422TIP3    H1 1209   1.535   5.347   5.889
  422TIP3    H2 1210   1.455   5.475   5.890
  423TIP3   OH2 1211   4.238   0.094   2.262
  423TIP3    H1 1212   4.312   0.156   2.255
  423TIP3    H2 1213   4.227   0.061   2.173
  424TIP3   OH2 1214   7.558   6.959   0.105
  424TIP3    H1 1215   7.477   6.929   0.146
  424TIP3    H2 1216   7.536   6.969   0.013
  425TIP3   OH2 1217   7.461   0.513   1.714
  425TIP3    H1 1218   7.495   0.513   1.625
  425TIP3    H2 1219   7.530   0.555   1.766
  426TIP3   OH2 1220   3.720   6.143   1.580
  426TIP3    H1 1221   3.689   6.201   1.510
  426TIP3    H2 1222   3.640   6.120   1.628
  427TIP3   OH2 1223   4.809   3.009   2.889
  427TIP3    H1 1224   4.802   2.975   2.979
  427TIP3    H2 1225   4.720   3.002   2.855
  428TIP3   OH2 1226   0.409   2.708   0.988
  428TIP3    H1 1227   0.464   2.697   1.066
  428TIP3    H2 1228   0.323   2.676   1.016
  429TIP3   OH2 1229   6.556   4.240   4.683
  429TIP3    H1 1230   6.515   4.272   4.763
  429TIP3    H2 1231   6.580   4.149   4.703
  430TIP3   OH2 1232   5.593   5.432   2.320
  430TIP3    H1 1233   5.537   5.362   2.353
  430TIP3    H2 1234   5.546   5.468   2.245
  431TIP3   OH2 1235   4.760   5.002   2.972
  431TIP3    H1 1236   4.819   4.970   3.040
  431TIP3    H2 1237   4.815   5.055   2.915
  432TIP3   OH2 1238   2.295   4.634   3.433
  432TIP3    H1 1239   2.263   4.701   3.494
  432TIP3    H2 1240   2.237   4.640   3.357
  433TIP3   OH2 1241   6.496   7.372   3.307
  433TIP3    H1 1242   6.545   7.292   3.325
  433TIP3    H2 1243   6.510   7.427   3.384
  434TIP3   OH2 1244   2.297   4.944   1.822
  434TIP3    H1 1245   2.216   4.901   1.794
  434TIP3    H2 1246   2.323   4.894   1.900
  435TIP3   OH2 1247   6.322   1.656   4.365
  435TIP3    H1 1248   6.408   1.625   4.336
  435TIP3    H2 1249   6.333   1.750   4.376
  436TIP3   OH2 1250   5.874   6.216   4.834
  436TIP3    H1 1251   5.895   6.308   4.817
  436TIP3    H2 1252   5.941   6.168   4.785
  437TIP3   OH2 1253   5.402   1.754   2.140
  437TIP3    H1 1254   5.312   1.727   2.160
  437TIP3    H2 1255   5.456   1.699   2.197
  438TIP3   OH2 1256   1.665   2.139   1.310
  438TIP3    H1 1257   1.597   2.107   1.251
  438TIP3    H2 1258   1.747   2.129   1.261
  439TIP3   OH2 1259   0.877   0.235   5.922
  439TIP3    H1 1260   0.831   0.317   5.936
  439TIP3    H2 1261   0.969   0.260   5.916
  440TIP3   OH2 1262   7.688   4.853   0.982
  440TIP3    H1 1263   7.621   4.921   0.993
  440TIP3    H2 1264   7.755   4.875   1.048
  441TIP3   OH2 1265   0.742   7.590   6.614
  441TIP3    H1 1266   0.717   7.520   6.555
  441TIP3    H2 1267   0.671   7.654   6.606
  442TIP3   OH2 1268   7.026   0.241   0.769
  442TIP3    H1 1269   7.119   0.237   0.747
  442TIP3    H2 1270   7.025   0.259   0.863
  443TIP3   OH2 1271   2.879   3.712   3.397
  443TIP3    H1 1272   2.960   3.685   3.439
  443TIP3    H2 1273   2.888   3.687   3.306
  444TIP3   OH2 1274   1.331   0.301   3.033
  444TIP3    H1 1275   1.290   0.240   2.971
  444TIP3    H2 1276   1.325   0.386   2.989
  445TIP3   OH2 1277   3.713   6.571   1.274
  445TIP3    H1 1278   3.693   6.549   1.183
  445TIP3    H2 1279   3.635   6.616   1.306
  446TIP3   OH2 1280   7.369   6.234   0.045
  446TIP3    H1 1281   7.348   6.323   0.019
  446TIP3    H2 1282   7.463   6.234   0.060
  447TIP3   OH2 1283   6.885   7.262   4.217
  447TIP3    H1 1284   6.863   7.172   4.192
  447TIP3    H2 1285   6.946   7.252   4.290
  448TIP3   OH2 1286   1.783   0.952   3.030
  448TIP3    H1 1287   1.801   0.858   3.034
  448TIP3    H2 1288   1.717   0.967   3.098
  449TIP3   OH2 1289   5.012   7.050   6.439
  449TIP3    H1 1290   4.978   6.994   6.369
  449TIP3    H2 1291   5.099   7.014   6.459
  450TIP3   OH2 1292   7.074   0.670   1.274
  450TIP3    H1 1293   7.128   0.591   1.278
  450TIP3    H2 1294   7.127   0.738   1.316
  451TIP3   OH2 1295   1.331   1.987   6.202
  451TIP3    H1 1296   1.364   2.046   6.135
  451TIP3    H2 1297   1.379   2.011   6.281
  452TIP3   OH2 1298   6.575   2.419   3.022
  452TIP3    H1 1299   6.649   2.415   3.082
  452TIP3    H2 1300   6.614   2.430   2.935
  453TIP3   OH2 1301   1.890   3.806   3.638
  453TIP3    H1 1302   1.959   3.871   3.628
  453TIP3    H2 1303   1.821   3.852   3.685
  454TIP3   OH2 1304   1.797   7.614   6.344
  454TIP3    H1 1305   1.758   7.548   6.287
  454TIP3    H2 1306   1.891   7.599   6.337
  455TIP3   OH2 1307   3.023   5.572   4.872
  455TIP3    H1 1308   3.045   5.506   4.938
  455TIP3    H2 1309   2.981   5.523   4.801
  456TIP3   OH2 1310   6.752   6.354   5.370
  456TIP3    H1 1311   6.660   6.332   5.389
  456TIP3    H2 1312   6.802   6.297   5.428
  457TIP3   OH2 1313   6.923   7.379   1.969
  457TIP3    H1 1314   7.003   7.329   1.958
  457TIP3    H2 1315   6.860   7.317   2.006
  458TIP3   OH2 1316   5.288   2.311   6.656
  458TIP3    H1 1317   5.207   2.267   6.629
  458TIP3    H2 1318   5.264   2.404   6.659
  459TIP3   OH2 1319   7.059   5.310   1.687
  459TIP3    H1 1320   7.137   5.349   1.647
  459TIP3    H2 1321   7.078   5.309   1.781
  460TIP3   OH2 1322   4.909   6.401   0.023
  460TIP3    H1 1323   5.004   6.411   0.031
  460TIP3    H2 1324   4.879   6.485  -0.011
  461TIP3   OH2 1325   7.305   1.989   3.455
  461TIP3    H1 1326   7.282   1.942   3.535
  461TIP3    H2 1327   7.280   1.930   3.384
  462TIP3   OH2 1328   6.300   1.942   3.167
  462TIP3    H1 1329   6.286   1.874   3.102
  462TIP3    H2 1330   6.385   1.921   3.207
  463TIP3   OH2 1331   2.651   1.989   4.889
  463TIP3    H1 1332   2.588   1.952   4.951
  463TIP3    H2 1333   2.711   1.918   4.869
  464TIP3   OH2 1334   5.141   1.270   6.207
  464TIP3    H1 1335   5.128   1.192   6.262
  464TIP3    H2 1336   5.231   1.297   6.225
  465TIP3   OH2 1337   3.128   2.469   2.454
  465TIP3    H1 1338   3.216   2.468   2.493
  465TIP3    H2 1339   3.100   2.560   2.460
  466TIP3   OH2 1340   0.742   5.762   6.241
  466TIP3    H1 1341   0.829   5.795   6.264
  466TIP3    H2 1342   0.698   5.837   6.200
  467TIP3   OH2 1343   6.205   0.353   6.596
  467TIP3    H1 1344   6.179   0.265   6.625
  467TIP3    H2 1345   6.125   0.390   6.558
  468TIP3   OH2 1346   2.889   1.770   4.594
  468TIP3    H1 1347   2.974   1.809   4.611
  468TIP3    H2 1348   2.867   1.797   4.505
  469TIP3   OH2 1349   1.282   3.156   5.584
  469TIP3    H1 1350   1.371   3.128   5.605
  469TIP3    H2 1351   1.252   3.202   5.662
  470TIP3   OH2 1352   3.904   4.326   3.763
  470TIP3    H1 1353   3.860   4.267   3.702
  470TIP3    H2 1354   3.984   4.352   3.718
  471TIP3   OH2 1355   0.095   5.174   0.567
  471TIP3    H1 1356   0.179   5.199   0.606
  471TIP3    H2 1357   0.110   5.179   0.473
  472TIP3   OH2 1358   4.552   6.054   6.360
  472TIP3    H1 1359   4.644   6.046   6.333
  472TIP3    H2 1360   4.513   5.970   6.337
  473TIP3   OH2 1361   3.099   1.308   2.460
  473TIP3    H1 1362   3.023   1.307   2.518
  473TIP3    H2 1363   3.101   1.397   2.424
  474TIP3   OH2 1364   5.074   7.147   3.217
  474TIP3    H1 1365   5.026   7.229   3.204
  474TIP3    H2 1366   5.006   7.080   3.225
  475TIP3   OH2 1367   2.106   4.529   0.848
  475TIP3    H1 1368   2.014   4.556   0.850
  475TIP3    H2 1369   2.118   4.492   0.761
  476TIP3   OH2 1370   1.731   7.310   0.299
  476TIP3    H1 1371   1.779   7.288   0.220
  476TIP3    H2 1372   1.645   7.337   0.268
  477TIP3   OH2 1373   4.305   6.366   5.988
  477TIP3    H1 1374   4.339   6.444   5.945
  477TIP3    H2 1375   4.210   6.373   5.981
  478TIP3   OH2 1376   6.597   6.593   1.505
  478TIP3    H1 1377   6.562   6.682   1.504
  478TIP3    H2 1378   6.683   6.601   1.464
  479TIP3   OH2 1379   1.343   0.146   1.874
  479TIP3    H1 1380   1.275   0.134   1.807
  479TIP3    H2 1381   1.390   0.224   1.845
  480TIP3   OH2 1382   1.068   7.629   3.961
  480TIP3    H1 1383   1.144   7.615   3.904
  480TIP3    H2 1384   0.994   7.640   3.900
  481TIP3   OH2 1385   6.267   3.462   3.434
  481TIP3    H1 1386   6.363   3.469   3.434
  481TIP3    H2 1387   6.237   3.550   3.411
  482TIP3   OH2 1388   5.555   4.716   5.414
  482TIP3    H1 1389   5.576   4.774   5.487
  482TIP3    H2 1390   5.528   4.634   5.456
  483TIP3   OH2 1391   3.556   2.425   5.579
  483TIP3    H1 1392   3.514   2.399   5.661
  483TIP3    H2 1393   3.498   2.491   5.542
  484TIP3   OH2 1394   3.745   1.923   2.668
  484TIP3    H1 1395   3.834   1.939   2.700
  484TIP3    H2 1396   3.722   2.004   2.622
  485TIP3   OH2 1397   6.925   4.867   2.950
  485TIP3    H1 1398   6.990   4.821   2.897
  485TIP3    H2 1399   6.841   4.846   2.908
  486TIP3   OH2 1400   6.094   0.071   4.778
  486TIP3    H1 1401   6.132  -0.016   4.772
  486TIP3    H2 1402   6.169   0.130   4.774
  487TIP3   OH2 1403   3.520   4.143   3.319
  487TIP3    H1 1404   3.588   4.124   3.255
  487TIP3    H2 1405   3.442   4.163   3.267
  488TIP3   OH2 1406   3.800   1.016   4.436
  488TIP3    H1 1407   3.854   0.995   4.513
  488TIP3    H2 1408   3.849   1.084   4.390
  489TIP3   OH2 1409   7.600   3.600   3.052
  489TIP3    H1 1410   7.520   3.633   3.093
  489TIP3    H2 1411   7.607   3.647   2.970
  490TIP3   OH2 1412   7.955   3.783   4.028
  490TIP3    H1 1413   7.942   3.803   3.935
  490TIP3    H2 1414   7.988   3.865   4.066
  491TIP3   OH2 1415   4.583   0.696   0.998
  491TIP3    H1 1416   4.560   0.734   1.083
  491TIP3    H2 1417   4.548   0.607   1.002
  492TIP3   OH2 1418   8.232   6.099   6.646
  492TIP3    H1 1419   8.234   6.045   6.726
  492TIP3    H2 1420   8.324   6.118   6.629
  493TIP3   OH2 1421   2.715   5.656   4.527
  493TIP3    H1 1422   2.761   5.591   4.580
  493TIP3    H2 1423   2.635   5.674   4.577
  494TIP3   OH2 1424   4.705   2.917   3.177
  494TIP3    H1 1425   4.770   2.910   3.246
  494TIP3    H2 1426   4.630   2.867   3.210
  495TIP3   OH2 1427   1.486   0.966   1.914
  495TIP3    H1 1428   1.430   0.980   1.838
  495TIP3    H2 1429   1.551   0.902   1.884
  496TIP3   OH2 1430   3.852   0.880   5.538
  496TIP3    H1 1431   3.856   0.973   5.560
  496TIP3    H2 1432   3.920   0.867   5.472
  497TIP3   OH2 1433   2.975   4.251   3.517
  497TIP3    H1 1434   2.915   4.199   3.571
  497TIP3    H2 1435   3.060   4.210   3.532
  498TIP3   OH2 1436   5.450   3.000   6.150
  498TIP3    H1 1437   5.445   2.978   6.243
  498TIP3    H2 1438   5.447   3.095   6.148
  499TIP3   OH2 1439   3.419   4.364   0.621
  499TIP3    H1 1440   3.483   4.328   0.682
  499TIP3    H2 1441   3.335   4.357   0.667
  500TIP3   OH2 1442   1.043   0.787   1.234
  500TIP3    H1 1443   1.134   0.759   1.242
  500TIP3    H2 1444   1.018   0.764   1.145
  501TIP3   OH2 1445   3.365   0.953   5.305
  501TIP3    H1 1446   3.388   0.893   5.235
  501TIP3    H2 1447   3.274   0.977   5.288
  502TIP3   OH2 1448   0.471   3.847   3.767
  502TIP3    H1 1449   0.449   3.769   3.715
  502TIP3    H2 1450   0.511   3.812   3.847
  503TIP3   OH2 1451   2.844   4.854   6.616
  503TIP3    H1 1452   2.877   4.841   6.527
  503TIP3    H2 1453   2.869   4.944   6.638
  504TIP3   OH2 1454   4.348   2.091   3.175
  504TIP3    H1 1455   4.392   2.112   3.257
  504TIP3    H2 1456   4.335   1.996   3.179
  505TIP3   OH2 1457   2.829   4.692   5.152
  505TIP3    H1 1458   2.781   4.775   5.143
  505TIP3    H2 1459   2.788   4.649   5.226
  506TIP3   OH2 1460   3.105   7.740   5.348
  506TIP3    H1 1461   3.035   7.683   5.319
  506TIP3    H2 1462   3.070   7.829   5.338
  507TIP3   OH2 1463   4.445   3.633   5.543
  507TIP3    H1 1464   4.374   3.635   5.607
  507TIP3    H2 1465   4.409   3.586   5.468
  508TIP3   OH2 1466   1.974   6.521   0.358
  508TIP3    H1 1467   1.913   6.448   0.369
  508TIP3    H2 1468   2.016   6.530   0.443
  509TIP3   OH2 1469   4.086   0.273   5.395
  509TIP3    H1 1470   4.017   0.287   5.460
  509TIP3    H2 1471   4.166   0.299   5.441
  510TIP3   OH2 1472   5.155   3.612   0.531
  510TIP3    H1 1473   5.154   3.534   0.586
  510TIP3    H2 1474   5.173   3.684   0.591
  511TIP3   OH2 1475   3.919   3.234   6.565
  511TIP3    H1 1476   3.927   3.325   6.537
  511TIP3    H2 1477   3.842   3.201   6.518
  512TIP3   OH2 1478   8.173   4.757   2.662
  512TIP3    H1 1479   8.154   4.673   2.704
  512TIP3    H2 1480   8.089   4.804   2.662
  513TIP3   OH2 1481   0.072   3.948   0.894
  513TIP3    H1 1482   0.082   3.933   0.800
  513TIP3    H2 1483  -0.022   3.939   0.909
  514TIP3   OH2 1484   5.076   5.354   1.229
  514TIP3    H1 1485   5.003   5.402   1.268
  514TIP3    H2 1486   5.108   5.411   1.160
  515TIP3   OH2 1487   5.614   5.382   6.097
  515TIP3    H1 1488   5.694   5.348   6.137
  515TIP3    H2 1489   5.543   5.351   6.153
  516TIP3   OH2 1490   4.854   0.693   6.457
  516TIP3    H1 1491   4.921   0.698   6.389
  516TIP3    H2 1492   4.771   0.697   6.409
  517TIP3   OH2 1493   0.487   3.122   3.496
  517TIP3    H1 1494   0.563   3.166   3.458
  517TIP3    H2 1495   0.434   3.193   3.533
  518TIP3   OH2 1496   0.282   6.125   2.072
  518TIP3    H1 1497   0.248   6.041   2.042
  518TIP3    H2 1498   0.247   6.189   2.009
  519TIP3   OH2 1499   0.174   1.142   5.872
  519TIP3    H1 1500   0.206   1.231   5.859
  519TIP3    H2 1501   0.204   1.117   5.959
  520TIP3   OH2 1502   6.818   3.770   0.494
  520TIP3    H1 1503   6.890   3.750   0.554
  520TIP3    H2 1504   6.780   3.851   0.529
  521TIP3   OH2 1505   3.294   2.642   0.725
  521TIP3    H1 1506   3.361   2.586   0.685
  521TIP3    H2 1507   3.316   2.731   0.695
  522TIP3   OH2 1508   2.197   3.308   2.452
  522TIP3    H1 1509   2.201   3.350   2.537
  522TIP3    H2 1510   2.155   3.372   2.395
  523TIP3   OH2 1511   3.045   2.324   1.977
  523TIP3    H1 1512   3.117   2.280   2.022
  523TIP3    H2 1513   3.051   2.416   2.006
  524TIP3   OH2 1514   2.436   4.210   1.104
  524TIP3    H1 1515   2.500   4.164   1.049
  524TIP3    H2 1516   2.466   4.195   1.193
  525TIP3   OH2 1517   8.111   1.574   2.715
  525TIP3    H1 1518   8.120   1.507   2.647
  525TIP3    H2 1519   8.078   1.651   2.669
  526TIP3   OH2 1520   2.180   5.606   3.799
  526TIP3    H1 1521   2.127   5.631   3.875
  526TIP3    H2 1522   2.270   5.623   3.826
  527TIP3   OH2 1523   3.569   6.249   5.892
  527TIP3    H1 1524   3.495   6.269   5.834
  527TIP3    H2 1525   3.632   6.319   5.876
  528TIP3   OH2 1526   8.228   0.863   5.083
  528TIP3    H1 1527   8.185   0.802   5.142
  528TIP3    H2 1528   8.297   0.811   5.041
  529TIP3   OH2 1529   6.471   0.308   4.750
  529TIP3    H1 1530   6.560   0.332   4.774
  529TIP3    H2 1531   6.417   0.379   4.785
  530TIP3   OH2 1532   4.750   6.375   5.907
  530TIP3    H1 1533   4.718   6.310   5.969
  530TIP3    H2 1534   4.817   6.424   5.955
  531TIP3   OH2 1535   1.426   0.602   0.892
  531TIP3    H1 1536   1.505   0.656   0.892
  531TIP3    H2 1537   1.388   0.615   0.805
  532TIP3   OH2 1538   1.865   5.030   5.300
  532TIP3    H1 1539   1.913   5.112   5.288
  532TIP3    H2 1540   1.903   4.991   5.378
  533TIP3   OH2 1541   7.554   5.886   4.473
  533TIP3    H1 1542   7.596   5.968   4.499
  533TIP3    H2 1543   7.608   5.817   4.513
  534TIP3   OH2 1544   7.369   7.481   3.749
  534TIP3    H1 1545   7.362   7.537   3.826
  534TIP3    H2 1546   7.461   7.453   3.748
  535TIP3   OH2 1547   4.575   2.237   3.713
  535TIP3    H1 1548   4.544   2.324   3.739
  535TIP3    H2 1549   4.497   2.183   3.714
  536TIP3   OH2 1550   3.761   1.327   4.292
  536TIP3    H1 1551   3.852   1.311   4.318
  536TIP3    H2 1552   3.720   1.361   4.372
  537TIP3   OH2 1553   4.505   2.472   1.567
  537TIP3    H1 1554   4.552   2.402   1.522
  537TIP3    H2 1555   4.415   2.463   1.538
  538TIP3   OH2 1556   8.003   7.377   2.181
  538TIP3    H1 1557   7.999   7.352   2.088
  538TIP3    H2 1558   8.046   7.303   2.224
  539TIP3   OH2 1559   1.175   0.484   3.716
  539TIP3    H1 1560   1.233   0.420   3.674
  539TIP3    H2 1561   1.225   0.565   3.717
  540TIP3   OH2 1562   4.526   4.999   2.807
  540TIP3    H1 1563   4.542   5.028   2.717
  540TIP3    H2 1564   4.614   4.983   2.843
  541TIP3   OH2 1565   3.915   1.137   5.500
  541TIP3    H1 1566   3.880   1.222   5.525
  541TIP3    H2 1567   3.962   1.154   5.419
  542TIP3   OH2 1568   2.218   5.401   4.929
  542TIP3    H1 1569   2.290   5.418   4.869
  542TIP3    H2 1570   2.191   5.311   4.908
  543TIP3   OH2 1571   8.036   1.044   6.443
  543TIP3    H1 1572   8.054   1.028   6.351
  543TIP3    H2 1573   7.995   1.131   6.444
  544TIP3   OH2 1574   5.532   0.927   4.696
  544TIP3    H1 1575   5.584   0.935   4.616
  544TIP3    H2 1576   5.582   0.974   4.762
  545TIP3   OH2 1577   3.420   7.208   1.786
  545TIP3    H1 1578   3.422   7.263   1.864
  545TIP3    H2 1579   3.512   7.190   1.767
  546TIP3   OH2 1580   7.565   1.513   4.778
  546TIP3    H1 1581   7.524   1.593   4.811
  546TIP3    H2 1582   7.524   1.443   4.829
  547TIP3   OH2 1583   7.386   4.813   4.997
  547TIP3    H1 1584   7.344   4.788   5.079
  547TIP3    H2 1585   7.330   4.778   4.929
  548TIP3   OH2 1586   2.194   6.183   6.382
  548TIP3    H1 1587   2.156   6.268   6.403
  548TIP3    H2 1588   2.177   6.128   6.459
  549TIP3   OH2 1589   4.391   2.998   4.267
  549TIP3    H1 1590   4.409   3.043   4.350
  549TIP3    H2 1591   4.295   2.990   4.265
  550TIP3   OH2 1592   8.240   3.504   3.197
  550TIP3    H1 1593   8.274   3.568   3.260
  550TIP3    H2 1594   8.238   3.551   3.114
  551TIP3   OH2 1595   7.005   3.894   5.287
  551TIP3    H1 1596   6.997   3.815   5.233
  551TIP3    H2 1597   7.053   3.866   5.364
  552TIP3   OH2 1598   1.686   2.770   4.871
  552TIP3    H1 1599   1.653   2.772   4.782
  552TIP3    H2 1600   1.691   2.676   4.892
  553TIP3   OH2 1601   2.276   1.415   1.965
  553TIP3    H1 1602   2.223   1.492   1.983
  553TIP3    H2 1603   2.261   1.397   1.872
  554TIP3   OH2 1604   5.667   4.615   6.011
  554TIP3    H1 1605   5.688   4.523   6.026
  554TIP3    H2 1606   5.589   4.612   5.956
  555TIP3   OH2 1607   8.133   7.838   2.678
  555TIP3    H1 1608   8.130   7.818   2.585
  555TIP3    H2 1609   8.176   7.762   2.717
  556TIP3   OH2 1610   2.003   3.982   5.519
  556TIP3    H1 1611   2.084   3.968   5.470
  556TIP3    H2 1612   1.947   3.908   5.494
  557TIP3   OH2 1613   2.961   0.466   0.528
  557TIP3    H1 1614   2.997   0.432   0.610
  557TIP3    H2 1615   2.933   0.555   0.549
  558TIP3   OH2 1616   7.483   5.865   6.442
  558TIP3    H1 1617   7.432   5.821   6.511
  558TIP3    H2 1618   7.421   5.876   6.370
  559TIP3   OH2 1619   1.276   4.076   2.088
  559TIP3    H1 1620   1.299   4.104   2.177
  559TIP3    H2 1621   1.227   3.995   2.101
  560TIP3   OH2 1622   0.246   0.562   1.609
  560TIP3    H1 1623   0.153   0.555   1.628
  560TIP3    H2 1624   0.266   0.486   1.554
  561TIP3   OH2 1625   5.365   2.883   1.229
  561TIP3    H1 1626   5.289   2.834   1.260
  561TIP3    H2 1627   5.438   2.822   1.240
  562TIP3   OH2 1628   3.702   0.171   2.754
  562TIP3    H1 1629   3.779   0.228   2.759
  562TIP3    H2 1630   3.698   0.129   2.840
  563TIP3   OH2 1631   6.691   0.084   2.221
  563TIP3    H1 1632   6.655   0.039   2.144
  563TIP3    H2 1633   6.778   0.114   2.194
  564TIP3   OH2 1634   4.318   5.695   4.219
  564TIP3    H1 1635   4.256   5.717   4.149
  564TIP3    H2 1636   4.316   5.771   4.277
  565TIP3   OH2 1637   5.905   0.543   1.699
  565TIP3    H1 1638   5.983   0.586   1.734
  565TIP3    H2 1639   5.846   0.536   1.774
  566TIP3   OH2 1640   7.310   3.683   3.528
  566TIP3    H1 1641   7.232   3.669   3.583
  566TIP3    H2 1642   7.331   3.596   3.494
  567TIP3   OH2 1643   2.411   3.013   0.620
  567TIP3    H1 1644   2.392   3.036   0.529
  567TIP3    H2 1645   2.336   2.962   0.649
  568TIP3   OH2 1646   7.368   3.112   1.893
  568TIP3    H1 1647   7.344   3.046   1.828
  568TIP3    H2 1648   7.449   3.079   1.932
  569TIP3   OH2 1649   3.238   3.403   3.968
  569TIP3    H1 1650   3.208   3.434   3.883
  569TIP3    H2 1651   3.204   3.314   3.974
  570TIP3   OH2 1652   5.262   4.872   0.197
  570TIP3    H1 1653   5.213   4.947   0.165
  570TIP3    H2 1654   5.259   4.809   0.125
  571TIP3   OH2 1655   7.633   2.890   5.446
  571TIP3    H1 1656   7.647   2.894   5.351
  571TIP3    H2 1657   7.627   2.797   5.465
  572TIP3   OH2 1658   4.750   0.306   1.095
  572TIP3    H1 1659   4.835   0.278   1.128
  572TIP3    H2 1660   4.771   0.361   1.019
  573TIP3   OH2 1661   3.105   1.256   3.409
  573TIP3    H1 1662   3.115   1.264   3.504
  573TIP3    H2 1663   3.142   1.338   3.374
  574TIP3   OH2 1664   4.909   3.359   3.295
  574TIP3    H1 1665   4.971   3.296   3.332
  574TIP3    H2 1666   4.914   3.434   3.355
  575TIP3   OH2 1667   0.839   2.046   1.417
  575TIP3    H1 1668   0.926   2.041   1.458
  575TIP3    H2 1669   0.784   2.088   1.483
  576TIP3   OH2 1670   2.949   6.822   2.102
  576TIP3    H1 1671   2.946   6.904   2.052
  576TIP3    H2 1672   2.909   6.844   2.186
  577TIP3   OH2 1673   3.975   2.349   2.755
  577TIP3    H1 1674   3.953   2.279   2.817
  577TIP3    H2 1675   3.892   2.390   2.734
  578TIP3   OH2 1676   7.879   1.627   2.202
  578TIP3    H1 1677   7.849   1.607   2.291
  578TIP3    H2 1678   7.844   1.556   2.148
  579TIP3   OH2 1679   4.014   4.602   1.929
  579TIP3    H1 1680   4.038   4.657   2.004
  579TIP3    H2 1681   4.092   4.549   1.912
  580TIP3   OH2 1682   4.150   0.415   0.642
  580TIP3    H1 1683   4.142   0.383   0.731
  580TIP3    H2 1684   4.243   0.403   0.620
  581TIP3   OH2 1685   5.823   1.239   1.501
  581TIP3    H1 1686   5.782   1.214   1.418
  581TIP3    H2 1687   5.917   1.224   1.487
  582TIP3   OH2 1688   7.259   4.499   2.597
  582TIP3    H1 1689   7.225   4.420   2.556
  582TIP3    H2 1690   7.221   4.571   2.547
  583TIP3   OH2 1691   4.100   0.233   6.429
  583TIP3    H1 1692   4.042   0.306   6.407
  583TIP3    H2 1693   4.119   0.244   6.522
  584TIP3   OH2 1694   3.272   7.804   5.928
  584TIP3    H1 1695   3.176   7.802   5.935
  584TIP3    H2 1696   3.300   7.716   5.953
  585TIP3   OH2 1697   6.993   5.680   6.583
  585TIP3    H1 1698   6.964   5.608   6.528
  585TIP3    H2 1699   6.940   5.672   6.663
  586TIP3   OH2 1700   1.327   1.304   0.891
  586TIP3    H1 1701   1.238   1.305   0.928
  586TIP3    H2 1702   1.315   1.328   0.799
  587TIP3   OH2 1703   0.843   7.104   0.309
  587TIP3    H1 1704   0.880   7.191   0.295
  587TIP3    H2 1705   0.898   7.046   0.256
  588TIP3   OH2 1706   3.128   0.248   4.042
  588TIP3    H1 1707   3.091   0.280   4.125
  588TIP3    H2 1708   3.133   0.327   3.988
  589TIP3   OH2 1709   5.099   2.435   1.444
  589TIP3    H1 1710   5.077   2.360   1.389
  589TIP3    H2 1711   5.024   2.445   1.502
  590TIP3   OH2 1712   7.817   4.278   0.281
  590TIP3    H1 1713   7.810   4.256   0.374
  590TIP3    H2 1714   7.830   4.193   0.238
  591TIP3   OH2 1715   6.707   6.191   4.276
  591TIP3    H1 1716   6.728   6.173   4.185
  591TIP3    H2 1717   6.750   6.275   4.294
  592TIP3   OH2 1718   4.934   3.770   6.321
  592TIP3    H1 1719   4.937   3.827   6.398
  592TIP3    H2 1720   4.841   3.768   6.296
  593TIP3   OH2 1721   4.178   3.852   1.965
  593TIP3    H1 1722   4.182   3.847   1.869
  593TIP3    H2 1723   4.245   3.917   1.988
  594TIP3   OH2 1724   4.821   0.326   0.242
  594TIP3    H1 1725   4.874   0.248   0.225
  594TIP3    H2 1726   4.857   0.392   0.182
  595TIP3   OH2 1727   8.242   4.561   0.158
  595TIP3    H1 1728   8.197   4.642   0.134
  595TIP3    H2 1729   8.177   4.511   0.207
  596TIP3   OH2 1730   2.953   5.872   6.429
  596TIP3    H1 1731   2.866   5.856   6.464
  596TIP3    H2 1732   2.938   5.909   6.342
  597TIP3   OH2 1733   7.662   1.021   1.085
  597TIP3    H1 1734   7.580   0.993   1.126
  597TIP3    H2 1735   7.661   0.979   0.999
  598TIP3   OH2 1736   2.614   1.517   5.455
  598TIP3    H1 1737   2.589   1.608   5.472
  598TIP3    H2 1738   2.632   1.481   5.542
  599TIP3   OH2 1739   8.041   3.874   3.254
  599TIP3    H1 1740   8.066   3.856   3.345
  599TIP3    H2 1741   7.988   3.799   3.228
  600TIP3   OH2 1742   3.881   6.790   4.568
  600TIP3    H1 1743   3.917   6.857   4.510
  600TIP3    H2 1744   3.957   6.754   4.613
  601TIP3   OH2 1745   1.650   0.962   4.987
  601TIP3    H1 1746   1.654   0.897   5.057
  601TIP3    H2 1747   1.581   1.022   5.013
  602TIP3   OH2 1748   1.923   3.901   1.561
  602TIP3    H1 1749   1.990   3.970   1.556
  602TIP3    H2 1750   1.901   3.896   1.654
  603TIP3   OH2 1751   3.113   6.927   3.102
  603TIP3    H1 1752   3.035   6.875   3.084
  603TIP3    H2 1753   3.117   6.990   3.030
  604TIP3   OH2 1754   1.233   7.591   6.240
  604TIP3    H1 1755   1.274   7.519   6.193
  604TIP3    H2 1756   1.167   7.624   6.180
  605TIP3   OH2 1757   5.970   3.090   4.194
  605TIP3    H1 1758   5.933   3.004   4.173
  605TIP3    H2 1759   6.056   3.089   4.153
  606TIP3   OH2 1760   8.030   6.966   4.863
  606TIP3    H1 1761   7.939   6.992   4.879
  606TIP3    H2 1762   8.033   6.874   4.887
  607TIP3   OH2 1763   3.849   1.373   3.035
  607TIP3    H1 1764   3.938   1.402   3.017
  607TIP3    H2 1765   3.842   1.288   2.991
  608TIP3   OH2 1766   7.282   3.300   2.149
  608TIP3    H1 1767   7.208   3.248   2.183
  608TIP3    H2 1768   7.310   3.253   2.070
  609TIP3   OH2 1769   0.613   3.333   1.262
  609TIP3    H1 1770   0.640   3.284   1.185
  609TIP3    H2 1771   0.689   3.386   1.286
  610TIP3   OH2 1772   4.748   3.307   2.631
  610TIP3    H1 1773   4.784   3.225   2.596
  610TIP3    H2 1774   4.658   3.285   2.655
  611TIP3   OH2 1775   3.067   1.786   5.271
  611TIP3    H1 1776   3.034   1.696   5.269
  611TIP3    H2 1777   3.087   1.802   5.363
  612TIP3   OH2 1778   2.864   2.091   2.051
  612TIP3    H1 1779   2.922   2.156   2.010
  612TIP3    H2 1780   2.790   2.142   2.082
  613TIP3   OH2 1781   3.023   0.622   1.741
  613TIP3    H1 1782   2.945   0.669   1.712
  613TIP3    H2 1783   3.091   0.645   1.677
  614TIP3   OH2 1784   3.770   7.506   4.980
  614TIP3    H1 1785   3.757   7.454   4.901
  614TIP3    H2 1786   3.703   7.474   5.041
  615TIP3   OH2 1787   0.927   1.270   4.154
  615TIP3    H1 1788   0.832   1.280   4.149
  615TIP3    H2 1789   0.959   1.357   4.178
  616TIP3   OH2 1790   7.497   7.503   4.902
  616TIP3    H1 1791   7.589   7.485   4.920
  616TIP3    H2 1792   7.495   7.528   4.809
  617TIP3   OH2 1793   3.534   1.555   1.581
  617TIP3    H1 1794   3.530   1.650   1.573
  617TIP3    H2 1795   3.519   1.538   1.674
  618TIP3   OH2 1796   1.274   2.120   5.621
  618TIP3    H1 1797   1.285   2.214   5.606
  618TIP3    H2 1798   1.363   2.085   5.617
  619TIP3   OH2 1799   4.400   7.300   0.634
  619TIP3    H1 1800   4.326   7.314   0.575
  619TIP3    H2 1801   4.385   7.213   0.671
  620TIP3   OH2 1802   7.736   0.727   5.336
  620TIP3    H1 1803   7.738   0.668   5.412
  620TIP3    H2 1804   7.653   0.707   5.293
  621TIP3   OH2 1805   0.269   3.906   6.287
  621TIP3    H1 1806   0.294   3.995   6.262
  621TIP3    H2 1807   0.295   3.852   6.213
  622TIP3   OH2 1808   8.210   6.828   0.896
  622TIP3    H1 1809   8.239   6.825   0.988
  622TIP3    H2 1810   8.221   6.919   0.870
  623TIP3   OH2 1811   0.450   0.223   0.992
  623TIP3    H1 1812   0.523   0.248   1.049
  623TIP3    H2 1813   0.463   0.129   0.977
  624TIP3   OH2 1814   2.359   3.689   0.448
  624TIP3    H1 1815   2.340   3.610   0.498
  624TIP3    H2 1816   2.355   3.760   0.512
  625TIP3   OH2 1817   2.583   6.883   1.080
  625TIP3    H1 1818   2.618   6.817   1.140
  625TIP3    H2 1819   2.497   6.904   1.116
  626TIP3   OH2 1820   2.763   0.111   4.977
  626TIP3    H1 1821   2.764   0.068   5.062
  626TIP3    H2 1822   2.733   0.200   4.996
  627TIP3   OH2 1823   2.868   1.482   1.541
  627TIP3    H1 1824   2.859   1.564   1.590
  627TIP3    H2 1825   2.944   1.439   1.579
  628TIP3   OH2 1826   1.125   7.070   2.096
  628TIP3    H1 1827   1.040   7.076   2.053
  628TIP3    H2 1828   1.104   7.039   2.185
  629TIP3   OH2 1829   5.297   0.347   2.715
  629TIP3    H1 1830   5.317   0.426   2.665
  629TIP3    H2 1831   5.214   0.316   2.680
  630TIP3   OH2 1832   4.618   1.019   3.622
  630TIP3    H1 1833   4.665   1.063   3.693
  630TIP3    H2 1834   4.526   1.024   3.647
  631TIP3   OH2 1835   4.163   2.906   5.110
  631TIP3    H1 1836   4.168   2.867   5.198
  631TIP3    H2 1837   4.245   2.881   5.068
  632TIP3   OH2 1838   2.112   0.843   5.493
  632TIP3    H1 1839   2.141   0.755   5.470
  632TIP3    H2 1840   2.167   0.901   5.440
  633TIP3   OH2 1841   0.883   0.732   6.064
  633TIP3    H1 1842   0.921   0.779   5.991
  633TIP3    H2 1843   0.823   0.794   6.105
  634TIP3   OH2 1844   3.442   6.090   5.286
  634TIP3    H1 1845   3.465   6.025   5.219
  634TIP3    H2 1846   3.520   6.145   5.293
  635TIP3   OH2 1847   3.167   7.025   4.959
  635TIP3    H1 1848   3.220   6.946   4.969
  635TIP3    H2 1849   3.217   7.093   5.004
  636TIP3   OH2 1850   2.345   3.013   4.048
  636TIP3    H1 1851   2.327   3.090   4.102
  636TIP3    H2 1852   2.299   3.030   3.966
  637TIP3   OH2 1853   0.438   1.463   4.865
  637TIP3    H1 1854   0.527   1.490   4.889
  637TIP3    H2 1855   0.388   1.472   4.947
  638TIP3   OH2 1856   4.110   6.283   3.372
  638TIP3    H1 1857   4.177   6.341   3.407
  638TIP3    H2 1858   4.158   6.207   3.340
  639TIP3   OH2 1859   7.382   6.363   2.104
  639TIP3    H1 1860   7.314   6.296   2.104
  639TIP3    H2 1861   7.358   6.422   2.176
  640TIP3   OH2 1862   3.521   4.512   4.131
  640TIP3    H1 1863   3.439   4.470   4.156
  640TIP3    H2 1864   3.582   4.439   4.115
  641TIP3   OH2 1865   6.607   0.495   0.632
  641TIP3    H1 1866   6.625   0.529   0.544
  641TIP3    H2 1867   6.653   0.412   0.636
  642TIP3   OH2 1868   3.705   4.557   1.501
  642TIP3    H1 1869   3.701   4.615   1.577
  642TIP3    H2 1870   3.679   4.471   1.535
  643TIP3   OH2 1871   5.931   0.098   3.438
  643TIP3    H1 1872   5.933   0.033   3.368
  643TIP3    H2 1873   5.845   0.088   3.478
  644TIP3   OH2 1874   5.760   6.603   4.890
  644TIP3    H1 1875   5.790   6.673   4.948
  644TIP3    H2 1876   5.839   6.558   4.863
  645TIP3   OH2 1877   1.354   7.406   5.389
  645TIP3    H1 1878   1.347   7.475   5.455
  645TIP3    H2 1879   1.447   7.406   5.364
  646TIP3   OH2 1880   0.352   0.989   0.124
  646TIP3    H1 1881   0.428   0.971   0.069
  646TIP3    H2 1882   0.288   0.922   0.100
  647TIP3   OH2 1883   7.578   1.990   5.901
  647TIP3    H1 1884   7.524   1.928   5.951
  647TIP3    H2 1885   7.518   2.028   5.837
  648TIP3   OH2 1886   3.476   6.529   6.285
  648TIP3    H1 1887   3.412   6.475   6.239
  648TIP3    H2 1888   3.441   6.618   6.278
  649TIP3   OH2 1889   6.955   2.760   1.588
  649TIP3    H1 1890   6.907   2.716   1.658
  649TIP3    H2 1891   6.936   2.709   1.510
  650TIP3   OH2 1892   1.364   1.740   0.746
  650TIP3    H1 1893   1.367   1.658   0.797
  650TIP3    H2 1894   1.316   1.801   0.802
  651TIP3   OH2 1895   5.782   3.737   4.302
  651TIP3    H1 1896   5.819   3.650   4.287
  651TIP3    H2 1897   5.822   3.767   4.383
  652TIP3   OH2 1898   7.488   6.559   6.444
  652TIP3    H1 1899   7.519   6.552   6.534
  652TIP3    H2 1900   7.409   6.506   6.441
  653TIP3   OH2 1901   6.809   1.723   5.593
  653TIP3    H1 1902   6.860   1.779   5.651
  653TIP3    H2 1903   6.833   1.751   5.505
  654TIP3   OH2 1904   2.829   1.352   2.558
  654TIP3    H1 1905   2.795   1.285   2.616
  654TIP3    H2 1906   2.754   1.379   2.505
  655TIP3   OH2 1907   0.702   4.857   0.858
  655TIP3    H1 1908   0.626   4.829   0.808
  655TIP3    H2 1909   0.767   4.882   0.792
  656TIP3   OH2 1910   1.839   3.811   2.786
  656TIP3    H1 1911   1.804   3.739   2.733
  656TIP3    H2 1912   1.839   3.778   2.875
  657TIP3   OH2 1913   5.800   3.818   3.594
  657TIP3    H1 1914   5.857   3.832   3.670
  657TIP3    H2 1915   5.830   3.735   3.557
  658TIP3   OH2 1916   6.603   7.336   5.793
  658TIP3    H1 1917   6.678   7.393   5.778
  658TIP3    H2 1918   6.546   7.350   5.718
  659TIP3   OH2 1919   8.235   5.401   1.756
  659TIP3    H1 1920   8.291   5.326   1.776
  659TIP3    H2 1921   8.292   5.477   1.768
  660TIP3   OH2 1922   8.131   2.725   2.193
  660TIP3    H1 1923   8.125   2.780   2.115
  660TIP3    H2 1924   8.224   2.703   2.200
  661TIP3   OH2 1925   6.018   2.400   1.007
  661TIP3    H1 1926   6.046   2.489   1.026
  661TIP3    H2 1927   6.082   2.345   1.052
  662TIP3   OH2 1928   2.386   6.203   6.172
  662TIP3    H1 1929   2.446   6.132   6.193
  662TIP3    H2 1930   2.316   6.195   6.237
  663TIP3   OH2 1931   4.436   0.097   0.702
  663TIP3    H1 1932   4.371   0.059   0.762
  663TIP3    H2 1933   4.519   0.085   0.748
  664TIP3   OH2 1934   5.147   1.819   4.760
  664TIP3    H1 1935   5.239   1.839   4.781
  664TIP3    H2 1936   5.131   1.863   4.677
  665TIP3   OH2 1937   4.983   0.186   2.286
  665TIP3    H1 1938   4.891   0.203   2.304
  665TIP3    H2 1939   4.986   0.165   2.192
  666TIP3   OH2 1940   7.914   4.836   1.113
  666TIP3    H1 1941   7.983   4.831   1.046
  666TIP3    H2 1942   7.954   4.799   1.192
  667TIP3   OH2 1943   1.416   4.087   6.560
  667TIP3    H1 1944   1.411   4.082   6.465
  667TIP3    H2 1945   1.348   4.149   6.585
  668TIP3   OH2 1946   3.871   7.745   6.601
  668TIP3    H1 1947   3.847   7.661   6.561
  668TIP3    H2 1948   3.835   7.740   6.690
  669TIP3   OH2 1949   8.073   6.851   1.281
  669TIP3    H1 1950   8.128   6.923   1.249
  669TIP3    H2 1951   8.018   6.828   1.206
  670TIP3   OH2 1952   1.890   3.261   1.032
  670TIP3    H1 1953   1.830   3.193   1.064
  670TIP3    H2 1954   1.879   3.334   1.093
  671TIP3   OH2 1955   8.143   0.399   5.335
  671TIP3    H1 1956   8.153   0.341   5.410
  671TIP3    H2 1957   8.049   0.413   5.326
  672TIP3   OH2 1958   3.460   0.613   2.810
  672TIP3    H1 1959   3.488   0.668   2.883
  672TIP3    H2 1960   3.491   0.659   2.732
  673TIP3   OH2 1961   5.795   4.667   5.042
  673TIP3    H1 1962   5.822   4.709   5.123
  673TIP3    H2 1963   5.825   4.726   4.973
  674TIP3   OH2 1964   1.686   1.187   4.308
  674TIP3    H1 1965   1.686   1.271   4.262
  674TIP3    H2 1966   1.598   1.152   4.294
  675TIP3   OH2 1967   8.211   7.661   6.586
  675TIP3    H1 1968   8.295   7.616   6.576
  675TIP3    H2 1969   8.178   7.632   6.671
  676TIP3   OH2 1970   5.999   2.636   5.760
  676TIP3    H1 1971   5.977   2.599   5.846
  676TIP3    H2 1972   5.968   2.572   5.697
  677TIP3   OH2 1973   4.693   4.569   4.766
  677TIP3    H1 1974   4.766   4.533   4.817
  677TIP3    H2 1975   4.731   4.591   4.682
  678TIP3   OH2 1976   2.527   6.719   0.011
  678TIP3    H1 1977   2.543   6.806   0.047
  678TIP3    H2 1978   2.604   6.700  -0.043
  679TIP3   OH2 1979   3.852   1.986   1.625
  679TIP3    H1 1980   3.785   2.032   1.675
  679TIP3    H2 1981   3.866   1.904   1.673
  680TIP3   OH2 1982   0.490   3.280   1.961
  680TIP3    H1 1983   0.542   3.218   1.909
  680TIP3    H2 1984   0.400   3.262   1.937
  681TIP3   OH2 1985   3.818   3.531   4.565
  681TIP3    H1 1986   3.812   3.472   4.490
  681TIP3    H2 1987   3.763   3.606   4.541
  682TIP3   OH2 1988   8.203   1.789   1.838
  682TIP3    H1 1989   8.176   1.875   1.807
  682TIP3    H2 1990   8.150   1.773   1.916
  683TIP3   OH2 1991   4.234   1.157   4.913
  683TIP3    H1 1992   4.208   1.145   5.004
  683TIP3    H2 1993   4.258   1.249   4.906
  684TIP3   OH2 1994   7.008   0.029   5.678
  684TIP3    H1 1995   6.923   0.002   5.713
  684TIP3    H2 1996   7.003   0.005   5.585
  685TIP3   OH2 1997   4.987   3.654   5.720
  685TIP3    H1 1998   4.918   3.664   5.655
  685TIP3    H2 1999   5.001   3.559   5.726
  686TIP3   OH2 2000   1.993   2.932   5.691
  686TIP3    H1 2001   1.943   2.883   5.757
  686TIP3    H2 2002   2.013   2.868   5.623
  687TIP3   OH2 2003   4.983   6.845   6.692
  687TIP3    H1 2004   4.917   6.809   6.634
  687TIP3    H2 2005   5.009   6.928   6.652
  688TIP3   OH2 2006   3.202   5.927   4.340
  688TIP3    H1 2007   3.192   6.011   4.297
  688TIP3    H2 2008   3.291   5.930   4.377
  689TIP3   OH2 2009   5.893   4.133   0.658
  689TIP3    H1 2010   5.956   4.197   0.690
  689TIP3    H2 2011   5.871   4.162   0.570
  690TIP3   OH2 2012   7.602   1.605   0.086
  690TIP3    H1 2013   7.576   1.513   0.094
  690TIP3    H2 2014   7.544   1.652   0.145
  691TIP3   OH2 2015   1.567   5.768   4.758
  691TIP3    H1 2016   1.570   5.718   4.839
  691TIP3    H2 2017   1.548   5.858   4.785
  692TIP3   OH2 2018   8.107   3.401   5.609
  692TIP3    H1 2019   8.075   3.314   5.634
  692TIP3    H2 2020   8.196   3.405   5.642
  693TIP3   OH2 2021   2.886   6.982   2.642
  693TIP3    H1 2022   2.948   7.038   2.596
  693TIP3    H2 2023   2.884   7.015   2.731
  694TIP3   OH2 2024   6.621   5.045   1.577
  694TIP3    H1 2025   6.577   5.114   1.528
  694TIP3    H2 2026   6.701   5.086   1.609
  695TIP3   OH2 2027   5.650   5.969   6.040
  695TIP3    H1 2028   5.742   5.963   6.015
  695TIP3    H2 2029   5.651   5.959   6.135
  696TIP3   OH2 2030   5.031   5.071   5.287
  696TIP3    H1 2031   5.085   5.043   5.213
  696TIP3    H2 2032   4.942   5.072   5.253
  697TIP3   OH2 2033   6.278   6.657   5.829
  697TIP3    H1 2034   6.338   6.726   5.801
  697TIP3    H2 2035   6.223   6.697   5.896
  698TIP3   OH2 2036   2.786   3.868   3.679
  698TIP3    H1 2037   2.852   3.937   3.681
  698TIP3    H2 2038   2.828   3.795   3.634
  699TIP3   OH2 2039   2.709   6.466   0.482
  699TIP3    H1 2040   2.763   6.396   0.445
  699TIP3    H2 2041   2.637   6.476   0.420
  700TIP3   OH2 2042   6.994   6.593   5.367
  700TIP3    H1 2043   7.004   6.507   5.325
  700TIP3    H2 2044   6.918   6.632   5.323
  701TIP3   OH2 2045   2.980   3.581   3.658
  701TIP3    H1 2046   2.999   3.536   3.576
  701TIP3    H2 2047   2.893   3.548   3.683
  702TIP3   OH2 2048   2.902   4.676   1.848
  702TIP3    H1 2049   2.966   4.702   1.781
  702TIP3    H2 2050   2.845   4.752   1.856
  703TIP3   OH2 2051   0.461   6.803   5.737
  703TIP3    H1 2052   0.471   6.734   5.804
  703TIP3    H2 2053   0.472   6.757   5.654
  704TIP3   OH2 2054   7.769   2.039   2.374
  704TIP3    H1 2055   7.837   1.975   2.351
  704TIP3    H2 2056   7.714   2.043   2.296
  705TIP3   OH2 2057   6.896   7.785   3.343
  705TIP3    H1 2058   6.963   7.751   3.402
  705TIP3    H2 2059   6.867   7.708   3.294
  706TIP3   OH2 2060   6.472   4.343   1.661
  706TIP3    H1 2061   6.380   4.347   1.688
  706TIP3    H2 2062   6.493   4.433   1.633
  707TIP3   OH2 2063   4.000   2.631   3.116
  707TIP3    H1 2064   3.966   2.689   3.184
  707TIP3    H2 2065   4.019   2.689   3.042
  708TIP3   OH2 2066   1.876   7.301   1.949
  708TIP3    H1 2067   1.859   7.305   2.043
  708TIP3    H2 2068   1.877   7.208   1.928
  709TIP3   OH2 2069   3.216   0.483   3.944
  709TIP3    H1 2070   3.286   0.473   3.879
  709TIP3    H2 2071   3.260   0.514   4.022
  710TIP3   OH2 2072   7.955   1.265   6.099
  710TIP3    H1 2073   7.968   1.318   6.177
  710TIP3    H2 2074   8.040   1.264   6.056
  711TIP3   OH2 2075   5.721   3.355   3.364
  711TIP3    H1 2076   5.774   3.353   3.284
  711TIP3    H2 2077   5.671   3.436   3.357
  712TIP3   OH2 2078   7.968   1.297   0.958
  712TIP3    H1 2079   8.026   1.346   0.900
  712TIP3    H2 2080   8.028   1.240   1.008
  713TIP3   OH2 2081   6.428   7.637   3.173
  713TIP3    H1 2082   6.511   7.682   3.189
  713TIP3    H2 2083   6.447   7.545   3.188
  714TIP3   OH2 2084   4.314   6.486   0.128
  714TIP3    H1 2085   4.233   6.436   0.123
  714TIP3    H2 2086   4.373   6.431   0.180
  715TIP3   OH2 2087   6.139   6.590   3.020
  715TIP3    H1 2088   6.050   6.582   2.984
  715TIP3    H2 2089   6.143   6.679   3.054
  716TIP3   OH2 2090   2.707   1.802   2.114
  716TIP3    H1 2091   2.650   1.811   2.037
  716TIP3    H2 2092   2.796   1.796   2.077
  717TIP3   OH2 2093   1.122   2.821   2.783
  717TIP3    H1 2094   1.062   2.885   2.746
  717TIP3    H2 2095   1.196   2.819   2.723
  718TIP3   OH2 2096   6.826   6.208   1.207
  718TIP3    H1 2097   6.823   6.205   1.111
  718TIP3    H2 2098   6.805   6.299   1.228
  719TIP3   OH2 2099   7.846   7.746   0.391
  719TIP3    H1 2100   7.788   7.763   0.466
  719TIP3    H2 2101   7.788   7.749   0.315
  720TIP3   OH2 2102   2.497   1.542   5.079
  720TIP3    H1 2103   2.568   1.478   5.083
  720TIP3    H2 2104   2.464   1.536   4.989
  721TIP3   OH2 2105   7.093   4.713   3.503
  721TIP3    H1 2106   7.149   4.780   3.544
  721TIP3    H2 2107   7.032   4.763   3.449
  722TIP3   OH2 2108   7.911   3.761   6.100
  722TIP3    H1 2109   7.959   3.707   6.163
  722TIP3    H2 2110   7.940   3.729   6.014
  723TIP3   OH2 2111   1.019   5.556   1.660
  723TIP3    H1 2112   1.013   5.556   1.756
  723TIP3    H2 2113   0.992   5.644   1.634
  724TIP3   OH2 2114   4.234   3.549   0.488
  724TIP3    H1 2115   4.168   3.560   0.556
  724TIP3    H2 2116   4.223   3.625   0.431
  725TIP3   OH2 2117   6.922   5.129   5.442
  725TIP3    H1 2118   6.958   5.181   5.515
  725TIP3    H2 2119   6.933   5.038   5.469
  726TIP3   OH2 2120   1.852   0.705   2.972
  726TIP3    H1 2121   1.829   0.613   2.982
  726TIP3    H2 2122   1.911   0.707   2.896
  727TIP3   OH2 2123   0.027   5.390   4.984
  727TIP3    H1 2124   0.032   5.302   5.019
  727TIP3    H2 2125   0.081   5.388   4.904
  728TIP3   OH2 2126   0.806   6.477   0.542
  728TIP3    H1 2127   0.748   6.403   0.526
  728TIP3    H2 2128   0.749   6.543   0.582
  729TIP3   OH2 2129   1.854   2.510   3.926
  729TIP3    H1 2130   1.948   2.496   3.932
  729TIP3    H2 2131   1.844   2.579   3.860
  730TIP3   OH2 2132   0.299   0.102   2.062
  730TIP3    H1 2133   0.387   0.127   2.091
  730TIP3    H2 2134   0.283   0.157   1.985
  731TIP3   OH2 2135   1.663   7.486   6.100
  731TIP3    H1 2136   1.595   7.426   6.069
  731TIP3    H2 2137   1.633   7.573   6.072
  732TIP3   OH2 2138   3.924   4.817   0.479
  732TIP3    H1 2139   3.889   4.748   0.535
  732TIP3    H2 2140   3.896   4.792   0.391
  733TIP3   OH2 2141   7.330   2.820   2.867
  733TIP3    H1 2142   7.366   2.870   2.794
  733TIP3    H2 2143   7.397   2.755   2.888
  734TIP3   OH2 2144   6.213   6.106   0.847
  734TIP3    H1 2145   6.243   6.149   0.927
  734TIP3    H2 2146   6.130   6.150   0.826
  735TIP3   OH2 2147   1.572   3.219   0.450
  735TIP3    H1 2148   1.499   3.240   0.391
  735TIP3    H2 2149   1.635   3.174   0.394
  736TIP3   OH2 2150   7.782   7.585   4.384
  736TIP3    H1 2151   7.854   7.559   4.327
  736TIP3    H2 2152   7.820   7.587   4.472
  737TIP3   OH2 2153   3.720   1.396   4.552
  737TIP3    H1 2154   3.680   1.477   4.584
  737TIP3    H2 2155   3.791   1.378   4.613
  738TIP3   OH2 2156   3.539   5.139   6.137
  738TIP3    H1 2157   3.613   5.182   6.095
  738TIP3    H2 2158   3.464   5.196   6.119
  739TIP3   OH2 2159   4.310   5.143   5.831
  739TIP3    H1 2160   4.264   5.147   5.747
  739TIP3    H2 2161   4.345   5.231   5.843
  740TIP3   OH2 2162   5.521   0.542   5.737
  740TIP3    H1 2163   5.465   0.617   5.757
  740TIP3    H2 2164   5.492   0.512   5.650
  741TIP3   OH2 2165   6.111   2.515   0.196
  741TIP3    H1 2166   6.148   2.515   0.284
  741TIP3    H2 2167   6.123   2.425   0.165
  742TIP3   OH2 2168   4.361   4.430   0.116
  742TIP3    H1 2169   4.401   4.349   0.085
  742TIP3    H2 2170   4.345   4.414   0.209
  743TIP3   OH2 2171   3.330   1.365   4.315
  743TIP3    H1 2172   3.314   1.289   4.259
  743TIP3    H2 2173   3.262   1.428   4.291
  744TIP3   OH2 2174   1.911   5.253   1.483
  744TIP3    H1 2175   1.941   5.273   1.572
  744TIP3    H2 2176   1.913   5.158   1.478
  745TIP3   OH2 2177   5.830   7.512   3.073
  745TIP3    H1 2178   5.800   7.497   3.162
  745TIP3    H2 2179   5.923   7.532   3.082
  746TIP3   OH2 2180   7.974   6.922   0.213
  746TIP3    H1 2181   7.935   6.835   0.205
  746TIP3    H2 2182   8.067   6.906   0.224
  747TIP3   OH2 2183   5.332   2.003   0.438
  747TIP3    H1 2184   5.391   1.970   0.370
  747TIP3    H2 2185   5.299   1.925   0.482
  748TIP3   OH2 2186   1.827   4.465   1.936
  748TIP3    H1 2187   1.739   4.430   1.952
  748TIP3    H2 2188   1.874   4.392   1.895
  749TIP3   OH2 2189   5.256   5.915   3.760
  749TIP3    H1 2190   5.298   5.830   3.768
  749TIP3    H2 2191   5.293   5.953   3.681
  750TIP3   OH2 2192   7.268   5.403   6.390
  750TIP3    H1 2193   7.308   5.355   6.462
  750TIP3    H2 2194   7.224   5.476   6.432
  751TIP3   OH2 2195   6.924   3.046   2.961
  751TIP3    H1 2196   6.938   3.140   2.945
  751TIP3    H2 2197   7.012   3.009   2.965
  752TIP3   OH2 2198   2.674   7.563   1.300
  752TIP3    H1 2199   2.620   7.637   1.273
  752TIP3    H2 2200   2.742   7.556   1.233
  753TIP3   OH2 2201   4.737   3.290   2.950
  753TIP3    H1 2202   4.780   3.205   2.963
  753TIP3    H2 2203   4.660   3.270   2.898
  754TIP3   OH2 2204   0.687   1.010   2.146
  754TIP3    H1 2205   0.692   0.939   2.210
  754TIP3    H2 2206   0.600   1.001   2.107
  755TIP3   OH2 2207   3.362   0.856   1.116
  755TIP3    H1 2208   3.408   0.775   1.094
  755TIP3    H2 2209   3.338   0.893   1.031
  756TIP3   OH2 2210   4.911   4.190   0.913
  756TIP3    H1 2211   4.995   4.217   0.948
  756TIP3    H2 2212   4.914   4.217   0.821
  757TIP3   OH2 2213   7.654   0.095   0.238
  757TIP3    H1 2214   7.728   0.060   0.287
  757TIP3    H2 2215   7.683   0.181   0.208
  758TIP3   OH2 2216   6.934   0.638   4.349
  758TIP3    H1 2217   6.847   0.661   4.383
  758TIP3    H2 2218   6.991   0.640   4.426
  759TIP3   OH2 2219   3.335   3.174   6.138
  759TIP3    H1 2220   3.345   3.087   6.178
  759TIP3    H2 2221   3.373   3.234   6.202
  760TIP3   OH2 2222   0.174   2.968   2.804
  760TIP3    H1 2223   0.112   2.975   2.877
  760TIP3    H2 2224   0.258   2.994   2.841
  761TIP3   OH2 2225   4.625   0.519   2.196
  761TIP3    H1 2226   4.589   0.565   2.120
  761TIP3    H2 2227   4.685   0.455   2.159
  762TIP3   OH2 2228   6.920   1.454   1.180
  762TIP3    H1 2229   7.014   1.450   1.195
  762TIP3    H2 2230   6.890   1.527   1.235
  763TIP3   OH2 2231   3.174   2.192   4.481
  763TIP3    H1 2232   3.241   2.239   4.531
  763TIP3    H2 2233   3.158   2.247   4.405
  764TIP3   OH2 2234   4.454   0.161   4.884
  764TIP3    H1 2235   4.395   0.236   4.894
  764TIP3    H2 2236   4.407   0.088   4.922
  765TIP3   OH2 2237   0.736   5.716   6.739
  765TIP3    H1 2238   0.819   5.753   6.768
  765TIP3    H2 2239   0.758   5.627   6.712
  766TIP3   OH2 2240   1.723   5.178   0.755
  766TIP3    H1 2241   1.632   5.156   0.774
  766TIP3    H2 2242   1.737   5.148   0.665
  767TIP3   OH2 2243   7.446   5.302   6.603
  767TIP3    H1 2244   7.378   5.239   6.582
  767TIP3    H2 2245   7.506   5.254   6.661
  768TIP3   OH2 2246   1.029   4.816   0.281
  768TIP3    H1 2247   1.073   4.827   0.365
  768TIP3    H2 2248   0.951   4.871   0.287
  769TIP3   OH2 2249   7.124   3.981   1.902
  769TIP3    H1 2250   7.097   4.072   1.913
  769TIP3    H2 2251   7.042   3.931   1.907
  770TIP3   OH2 2252   5.486   1.472   4.635
  770TIP3    H1 2253   5.485   1.388   4.588
  770TIP3    H2 2254   5.394   1.494   4.647
  771TIP3   OH2 2255   4.511   5.249   1.930
  771TIP3    H1 2256   4.520   5.276   1.838
  771TIP3    H2 2257   4.494   5.330   1.978
  772TIP3   OH2 2258   3.813   3.241   4.706
  772TIP3    H1 2259   3.853   3.187   4.638
  772TIP3    H2 2260   3.832   3.331   4.679
  773TIP3   OH2 2261   4.955   1.859   0.889
  773TIP3    H1 2262   4.860   1.863   0.899
  773TIP3    H2 2263   4.977   1.931   0.830
  774TIP3   OH2 2264   0.664   6.203   3.071
  774TIP3    H1 2265   0.599   6.133   3.062
  774TIP3    H2 2266   0.721   6.192   2.995
  775TIP3   OH2 2267   1.968   1.782   5.828
  775TIP3    H1 2268   1.936   1.710   5.775
  775TIP3    H2 2269   1.901   1.850   5.820
  776TIP3   OH2 2270   2.583   4.817   6.055
  776TIP3    H1 2271   2.646   4.771   5.999
  776TIP3    H2 2272   2.501   4.769   6.042
  777TIP3   OH2 2273   5.047   6.227   5.510
  777TIP3    H1 2274   5.121   6.219   5.570
  777TIP3    H2 2275   5.029   6.137   5.482
  778TIP3   OH2 2276   6.255   4.803   4.233
  778TIP3    H1 2277   6.348   4.783   4.243
  778TIP3    H2 2278   6.246   4.828   4.141
  779TIP3   OH2 2279   3.073   6.668   6.444
  779TIP3    H1 2280   3.130   6.595   6.469
  779TIP3    H2 2281   3.049   6.651   6.353
  780TIP3   OH2 2282   6.574   3.753   4.710
  780TIP3    H1 2283   6.517   3.729   4.637
  780TIP3    H2 2284   6.650   3.794   4.670
  781TIP3   OH2 2285   1.037   0.379   1.745
  781TIP3    H1 2286   1.069   0.417   1.827
  781TIP3    H2 2287   1.116   0.364   1.693
  782TIP3   OH2 2288   5.482   2.360   5.094
  782TIP3    H1 2289   5.461   2.443   5.137
  782TIP3    H2 2290   5.555   2.324   5.144
  783TIP3   OH2 2291   1.373   1.127   3.980
  783TIP3    H1 2292   1.381   1.210   4.028
  783TIP3    H2 2293   1.306   1.078   4.028
  784TIP3   OH2 2294   6.057   6.580   2.400
  784TIP3    H1 2295   5.975   6.588   2.350
  784TIP3    H2 2296   6.029   6.564   2.490
  785TIP3   OH2 2297   7.879   4.583   0.962
  785TIP3    H1 2298   7.799   4.565   1.010
  785TIP3    H2 2299   7.930   4.638   1.022
  786TIP3   OH2 2300   1.095   4.304   5.731
  786TIP3    H1 2301   1.050   4.219   5.733
  786TIP3    H2 2302   1.089   4.338   5.820
  787TIP3   OH2 2303   8.218   1.939   5.096
  787TIP3    H1 2304   8.219   1.988   5.178
  787TIP3    H2 2305   8.254   1.854   5.118
  788TIP3   OH2 2306   3.977   5.736   5.838
  788TIP3    H1 2307   4.070   5.745   5.820
  788TIP3    H2 2308   3.950   5.821   5.871
  789TIP3   OH2 2309   6.943   3.836   0.795
  789TIP3    H1 2310   6.914   3.919   0.755
  789TIP3    H2 2311   7.020   3.860   0.846
  790TIP3   OH2 2312   4.404   0.743   5.246
  790TIP3    H1 2313   4.459   0.819   5.228
  790TIP3    H2 2314   4.466   0.675   5.274
  791TIP3   OH2 2315   5.451   4.457   0.801
  791TIP3    H1 2316   5.527   4.441   0.745
  791TIP3    H2 2317   5.397   4.379   0.791
  792TIP3   OH2 2318   1.855   4.137   3.923
  792TIP3    H1 2319   1.771   4.167   3.888
  792TIP3    H2 2320   1.904   4.107   3.846
  793TIP3   OH2 2321   6.471   1.374   6.336
  793TIP3    H1 2322   6.552   1.333   6.306
  793TIP3    H2 2323   6.497   1.428   6.410
  794TIP3   OH2 2324   6.898   2.496   5.267
  794TIP3    H1 2325   6.833   2.480   5.335
  794TIP3    H2 2326   6.865   2.572   5.219
  795TIP3   OH2 2327   1.929   1.308   4.031
  795TIP3    H1 2328   1.967   1.224   4.058
  795TIP3    H2 2329   1.940   1.365   4.107
  796TIP3   OH2 2330   1.073   2.354   5.824
  796TIP3    H1 2331   1.104   2.275   5.868
  796TIP3    H2 2332   0.978   2.352   5.835
  797TIP3   OH2 2333   0.434   7.413   5.043
  797TIP3    H1 2334   0.464   7.417   4.952
  797TIP3    H2 2335   0.411   7.503   5.065
  798TIP3   OH2 2336   4.975   6.032   1.652
  798TIP3    H1 2337   5.042   6.087   1.610
  798TIP3    H2 2338   5.017   5.946   1.661
  799TIP3   OH2 2339   7.017   0.891   5.846
  799TIP3    H1 2340   7.095   0.841   5.822
  799TIP3    H2 2341   7.042   0.939   5.925
  800TIP3   OH2 2342   5.509   6.559   0.175
  800TIP3    H1 2343   5.491   6.649   0.149
  800TIP3    H2 2344   5.531   6.564   0.268
  801TIP3   OH2 2345   2.155   0.803   5.187
  801TIP3    H1 2346   2.242   0.823   5.219
  801TIP3    H2 2347   2.166   0.725   5.132
  802TIP3   OH2 2348   0.959   0.557   5.526
  802TIP3    H1 2349   0.973   0.648   5.497
  802TIP3    H2 2350   1.013   0.548   5.604
  803TIP3   OH2 2351   2.278   5.945   0.931
  803TIP3    H1 2352   2.371   5.961   0.918
  803TIP3    H2 2353   2.268   5.850   0.920
  804TIP3   OH2 2354   1.275   1.242   6.418
  804TIP3    H1 2355   1.281   1.223   6.325
  804TIP3    H2 2356   1.340   1.185   6.459
  805TIP3   OH2 2357   1.686   7.388   5.101
  805TIP3    H1 2358   1.656   7.404   5.191
  805TIP3    H2 2359   1.762   7.330   5.111
  806TIP3   OH2 2360   4.662   1.525   0.421
  806TIP3    H1 2361   4.747   1.513   0.464
  806TIP3    H2 2362   4.676   1.598   0.361
  807TIP3   OH2 2363   2.185   1.087   3.823
  807TIP3    H1 2364   2.240   1.028   3.875
  807TIP3    H2 2365   2.100   1.044   3.820
  808TIP3   OH2 2366   5.760   2.687   1.612
  808TIP3    H1 2367   5.783   2.675   1.704
  808TIP3    H2 2368   5.822   2.753   1.580
  809TIP3   OH2 2369   7.231   4.395   1.734
  809TIP3    H1 2370   7.156   4.444   1.766
  809TIP3    H2 2371   7.298   4.406   1.801
  810TIP3   OH2 2372   4.395   1.289   4.107
  810TIP3    H1 2373   4.431   1.326   4.026
  810TIP3    H2 2374   4.462   1.227   4.137
  811TIP3   OH2 2375   7.221   2.125   1.916
  811TIP3    H1 2376   7.149   2.129   1.854
  811TIP3    H2 2377   7.287   2.185   1.880
  812TIP3   OH2 2378   3.900   1.363   2.265
  812TIP3    H1 2379   3.808   1.386   2.276
  812TIP3    H2 2380   3.943   1.398   2.344
  813TIP3   OH2 2381   2.498   2.587   6.203
  813TIP3    H1 2382   2.528   2.678   6.194
  813TIP3    H2 2383   2.576   2.540   6.233
  814TIP3   OH2 2384   0.171   7.197   4.026
  814TIP3    H1 2385   0.223   7.236   4.097
  814TIP3    H2 2386   0.217   7.116   4.005
  815TIP3   OH2 2387   4.691   6.384   3.527
  815TIP3    H1 2388   4.775   6.401   3.483
  815TIP3    H2 2389   4.642   6.331   3.464
  816TIP3   OH2 2390   6.965   1.770   1.895
  816TIP3    H1 2391   6.978   1.841   1.958
  816TIP3    H2 2392   6.953   1.692   1.950
  817TIP3   OH2 2393   3.583   3.823   5.842
  817TIP3    H1 2394   3.548   3.889   5.781
  817TIP3    H2 2395   3.672   3.852   5.860
  818TIP3   OH2 2396   6.797   3.427   2.345
  818TIP3    H1 2397   6.851   3.466   2.276
  818TIP3    H2 2398   6.799   3.491   2.416
  819TIP3   OH2 2399   2.721   6.019   4.377
  819TIP3    H1 2400   2.727   5.960   4.453
  819TIP3    H2 2401   2.768   5.973   4.307
  820TIP3   OH2 2402   0.021   4.518   2.112
  820TIP3    H1 2403   0.003   4.586   2.177
  820TIP3    H2 2404   0.000   4.558   2.028
  821TIP3   OH2 2405   5.640   4.886   2.996
  821TIP3    H1 2406   5.651   4.800   3.035
  821TIP3    H2 2407   5.696   4.884   2.918
  822TIP3   OH2 2408   1.638   4.385   6.234
  822TIP3    H1 2409   1.581   4.364   6.308
  822TIP3    H2 2410   1.582   4.372   6.157
  823TIP3   OH2 2411   5.917   0.855   3.318
  823TIP3    H1 2412   5.952   0.766   3.321
  823TIP3    H2 2413   5.843   0.850   3.257
  824TIP3   OH2 2414   1.707   5.971   4.953
  824TIP3    H1 2415   1.680   5.887   4.989
  824TIP3    H2 2416   1.671   6.036   5.013
  825TIP3   OH2 2417   3.977   1.579   0.563
  825TIP3    H1 2418   3.971   1.662   0.516
  825TIP3    H2 2419   3.908   1.524   0.524
  826TIP3   OH2 2420   6.140   5.758   4.231
  826TIP3    H1 2421   6.133   5.848   4.200
  826TIP3    H2 2422   6.053   5.720   4.216
  827TIP3   OH2 2423   7.222   2.381   5.304
  827TIP3    H1 2424   7.190   2.352   5.389
  827TIP3    H2 2425   7.160   2.345   5.241
  828TIP3   OH2 2426   2.936   0.920   2.782
  828TIP3    H1 2427   2.925   1.015   2.785
  828TIP3    H2 2428   2.937   0.899   2.689
  829TIP3   OH2 2429   4.239   6.179   6.637
  829TIP3    H1 2430   4.319   6.156   6.590
  829TIP3    H2 2431   4.244   6.275   6.646
  830TIP3   OH2 2432   6.055   0.429   4.661
  830TIP3    H1 2433   6.081   0.520   4.651
  830TIP3    H2 2434   6.061   0.393   4.572
  831TIP3   OH2 2435   3.918   2.873   6.623
  831TIP3    H1 2436   3.971   2.936   6.672
  831TIP3    H2 2437   3.946   2.884   6.532
  832TIP3   OH2 2438   7.249   3.134   3.444
  832TIP3    H1 2439   7.285   3.194   3.379
  832TIP3    H2 2440   7.259   3.047   3.405
  833TIP3   OH2 2441   6.762   2.733   2.216
  833TIP3    H1 2442   6.723   2.810   2.256
  833TIP3    H2 2443   6.768   2.669   2.287
  834TIP3   OH2 2444   0.689   4.014   5.785
  834TIP3    H1 2445   0.599   4.036   5.808
  834TIP3    H2 2446   0.682   3.933   5.735
  835TIP3   OH2 2447   7.291   4.760   1.171
  835TIP3    H1 2448   7.374   4.736   1.214
  835TIP3    H2 2449   7.247   4.816   1.234
  836TIP3   OH2 2450   1.177   0.662   2.170
  836TIP3    H1 2451   1.128   0.673   2.252
  836TIP3    H2 2452   1.194   0.751   2.140
  837TIP3   OH2 2453   0.413   4.666   4.139
  837TIP3    H1 2454   0.417   4.760   4.123
  837TIP3    H2 2455   0.426   4.627   4.053
  838TIP3   OH2 2456   3.808   3.626   5.610
  838TIP3    H1 2457   3.836   3.620   5.519
  838TIP3    H2 2458   3.753   3.705   5.613
  839TIP3   OH2 2459   5.574   7.034   1.145
  839TIP3    H1 2460   5.659   6.989   1.145
  839TIP3    H2 2461   5.590   7.115   1.097
  840TIP3   OH2 2462   7.101   2.094   0.147
  840TIP3    H1 2463   7.084   2.024   0.084
  840TIP3    H2 2464   7.099   2.051   0.233
  841TIP3   OH2 2465   7.382   7.058   2.627
  841TIP3    H1 2466   7.393   7.003   2.705
  841TIP3    H2 2467   7.320   7.125   2.653
  842TIP3   OH2 2468   1.878   5.948   6.510
  842TIP3    H1 2469   1.965   5.988   6.519
  842TIP3    H2 2470   1.862   5.908   6.595
  843TIP3   OH2 2471   6.960   4.851   5.492
  843TIP3    H1 2472   6.987   4.770   5.448
  843TIP3    H2 2473   6.931   4.823   5.579
  844TIP3   OH2 2474   7.198   5.036   0.297
  844TIP3    H1 2475   7.215   5.063   0.207
  844TIP3    H2 2476   7.271   4.978   0.319
  845TIP3   OH2 2477   3.961   4.048   3.817
  845TIP3    H1 2478   3.998   4.037   3.730
  845TIP3    H2 2479   3.988   4.136   3.843
  846TIP3   OH2 2480   6.573   0.078   2.469
  846TIP3    H1 2481   6.617   0.046   2.389
  846TIP3    H2 2482   6.492   0.116   2.438
  847TIP3   OH2 2483   5.911   1.728   2.840
  847TIP3    H1 2484   5.864   1.652   2.804
  847TIP3    H2 2485   5.911   1.713   2.935
  848TIP3   OH2 2486   0.263   3.310   0.189
  848TIP3    H1 2487   0.197   3.340   0.251
  848TIP3    H2 2488   0.265   3.215   0.200
  849TIP3   OH2 2489   7.867   7.370   1.605
  849TIP3    H1 2490   7.839   7.444   1.550
  849TIP3    H2 2491   7.789   7.315   1.612
  850TIP3   OH2 2492   4.660   2.817   2.568
  850TIP3    H1 2493   4.663   2.785   2.658
  850TIP3    H2 2494   4.589   2.767   2.527
  851TIP3   OH2 2495   6.892   2.030   4.100
  851TIP3    H1 2496   6.870   2.118   4.131
  851TIP3    H2 2497   6.812   1.999   4.057
  852TIP3   OH2 2498   2.000   1.105   5.970
  852TIP3    H1 2499   1.984   1.014   5.995
  852TIP3    H2 2500   1.995   1.154   6.052
  853TIP3   OH2 2501   3.017   4.739   2.387
  853TIP3    H1 2502   3.040   4.805   2.452
  853TIP3    H2 2503   2.959   4.783   2.326
  854TIP3   OH2 2504   4.995   0.468   1.788
  854TIP3    H1 2505   4.930   0.441   1.725
  854TIP3    H2 2506   5.079   0.444   1.749
  855TIP3   OH2 2507   1.572   4.258   0.330
  855TIP3    H1 2508   1.643   4.244   0.268
  855TIP3    H2 2509   1.607   4.228   0.414
  856TIP3   OH2 2510   1.982   6.692   5.774
  856TIP3    H1 2511   1.964   6.656   5.860
  856TIP3    H2 2512   1.939   6.633   5.713
  857TIP3   OH2 2513   6.457   1.286   3.717
  857TIP3    H1 2514   6.496   1.312   3.801
  857TIP3    H2 2515   6.490   1.197   3.703
  858TIP3   OH2 2516   7.892   2.237   4.078
  858TIP3    H1 2517   7.842   2.318   4.074
  858TIP3    H2 2518   7.848   2.184   4.145
  859TIP3   OH2 2519   6.832   7.308   3.423
  859TIP3    H1 2520   6.831   7.222   3.382
  859TIP3    H2 2521   6.771   7.300   3.497
  860TIP3   OH2 2522   6.798   1.387   3.412
  860TIP3    H1 2523   6.813   1.312   3.355
  860TIP3    H2 2524   6.838   1.362   3.496
  861TIP3   OH2 2525   4.590   3.906   0.472
  861TIP3    H1 2526   4.655   3.871   0.533
  861TIP3    H2 2527   4.512   3.853   0.488
  862TIP3   OH2 2528   1.533   6.111   1.102
  862TIP3    H1 2529   1.627   6.127   1.106
  862TIP3    H2 2530   1.512   6.110   1.009
  863TIP3   OH2 2531   4.053   7.735   1.703
  863TIP3    H1 2532   4.057   7.651   1.749
  863TIP3    H2 2533   4.010   7.715   1.619
  864TIP3   OH2 2534   2.716   4.269   2.563
  864TIP3    H1 2535   2.784   4.277   2.630
  864TIP3    H2 2536   2.753   4.315   2.487
  865TIP3   OH2 2537   6.662   0.656   2.009
  865TIP3    H1 2538   6.701   0.719   1.949
  865TIP3    H2 2539   6.693   0.571   1.977
  866TIP3   OH2 2540   0.570   2.441   5.635
  866TIP3    H1 2541   0.661   2.469   5.647
  866TIP3    H2 2542   0.551   2.389   5.713
  867TIP3   OH2 2543   1.583   3.168   2.876
  867TIP3    H1 2544   1.663   3.119   2.897
  867TIP3    H2 2545   1.513   3.120   2.922
  868TIP3   OH2 2546   3.181   7.742   0.904
  868TIP3    H1 2547   3.088   7.761   0.922
  868TIP3    H2 2548   3.208   7.686   0.977
  869TIP3   OH2 2549   4.202   0.518   2.253
  869TIP3    H1 2550   4.143   0.510   2.328
  869TIP3    H2 2551   4.148   0.491   2.178
  870TIP3   OH2 2552   5.875   2.750   1.216
  870TIP3    H1 2553   5.960   2.706   1.209
  870TIP3    H2 2554   5.893   2.825   1.272
  871TIP3   OH2 2555   2.663   7.203   5.015
  871TIP3    H1 2556   2.666   7.252   4.932
  871TIP3    H2 2557   2.755   7.182   5.033
  872TIP3   OH2 2558   0.828   7.703   3.164
  872TIP3    H1 2559   0.836   7.633   3.228
  872TIP3    H2 2560   0.794   7.660   3.085
  873TIP3   OH2 2561   5.242   5.681   2.085
  873TIP3    H1 2562   5.283   5.698   2.000
  873TIP3    H2 2563   5.307   5.630   2.133
  874TIP3   OH2 2564   1.734   5.287   1.174
  874TIP3    H1 2565   1.809   5.228   1.182
  874TIP3    H2 2566   1.738   5.342   1.252
  875TIP3   OH2 2567  -0.015   2.325   4.842
  875TIP3    H1 2568   0.025   2.353   4.924
  875TIP3    H2 2569  -0.007   2.229   4.843
  876TIP3   OH2 2570   5.777   3.529   0.088
  876TIP3    H1 2571   5.706   3.525   0.024
  876TIP3    H2 2572   5.736   3.504   0.170
  877TIP3   OH2 2573   6.808   2.619   5.694
  877TIP3    H1 2574   6.899   2.641   5.678
  877TIP3    H2 2575   6.763   2.641   5.612
  878TIP3   OH2 2576   0.052   6.706   3.547
  878TIP3    H1 2577   0.102   6.624   3.549
  878TIP3    H2 2578   0.104   6.767   3.599
  879TIP3   OH2 2579   1.918   2.959   1.529
  879TIP3    H1 2580   1.877   3.026   1.583
  879TIP3    H2 2581   1.918   2.997   1.441
  880TIP3   OH2 2582   1.286   5.082   4.853
  880TIP3    H1 2583   1.245   5.142   4.915
  880TIP3    H2 2584   1.369   5.057   4.896
  881TIP3   OH2 2585   3.558   1.896   2.295
  881TIP3    H1 2586   3.534   1.910   2.203
  881TIP3    H2 2587   3.487   1.937   2.344
  882TIP3   OH2 2588   0.298   1.670   3.852
  882TIP3    H1 2589   0.285   1.727   3.928
  882TIP3    H2 2590   0.385   1.631   3.866
  883TIP3   OH2 2591   3.683   5.411   2.622
  883TIP3    H1 2592   3.630   5.335   2.643
  883TIP3    H2 2593   3.649   5.442   2.538
  884TIP3   OH2 2594   4.823   5.885   0.047
  884TIP3    H1 2595   4.797   5.894  -0.045
  884TIP3    H2 2596   4.874   5.964   0.065
  885TIP3   OH2 2597   7.556   7.259   2.856
  885TIP3    H1 2598   7.587   7.170   2.840
  885TIP3    H2 2599   7.537   7.261   2.950
  886TIP3   OH2 2600   0.589   7.304   1.089
  886TIP3    H1 2601   0.599   7.287   1.183
  886TIP3    H2 2602   0.601   7.219   1.048
  887TIP3   OH2 2603   1.672   2.215   3.178
  887TIP3    H1 2604   1.591   2.237   3.131
  887TIP3    H2 2605   1.710   2.143   3.127
  888TIP3   OH2 2606   5.392   5.418   2.112
  888TIP3    H1 2607   5.379   5.442   2.020
  888TIP3    H2 2608   5.354   5.331   2.119
  889TIP3   OH2 2609   3.002   5.785   1.708
  889TIP3    H1 2610   2.991   5.856   1.771
  889TIP3    H2 2611   3.042   5.714   1.758
  890TIP3   OH2 2612   8.137   2.175   1.151
  890TIP3    H1 2613   8.123   2.173   1.246
  890TIP3    H2 2614   8.126   2.267   1.128
  891TIP3   OH2 2615   0.561   0.901   4.713
  891TIP3    H1 2616   0.529   0.813   4.692
  891TIP3    H2 2617   0.649   0.887   4.748
  892TIP3   OH2 2618   3.687   3.711   4.773
  892TIP3    H1 2619   3.714   3.749   4.690
  892TIP3    H2 2620   3.631   3.637   4.749
  893TIP3   OH2 2621   8.167   1.601   4.965
  893TIP3    H1 2622   8.102   1.630   4.900
  893TIP3    H2 2623   8.118   1.541   5.022
  894TIP3   OH2 2624   4.249   1.592   3.369
  894TIP3    H1 2625   4.259   1.497   3.359
  894TIP3    H2 2626   4.248   1.606   3.464
  895TIP3   OH2 2627   5.920   4.668   0.392
  895TIP3    H1 2628   5.946   4.618   0.314
  895TIP3    H2 2629   5.827   4.650   0.402
  896TIP3   OH2 2630   1.735   3.976   6.112
  896TIP3    H1 2631   1.724   4.060   6.067
  896TIP3    H2 2632   1.658   3.925   6.086
  897TIP3   OH2 2633   7.825   2.904   3.105
  897TIP3    H1 2634   7.812   2.996   3.082
  897TIP3    H2 2635   7.892   2.873   3.044
  898TIP3   OH2 2636   4.233   6.146   5.343
  898TIP3    H1 2637   4.156   6.202   5.350
  898TIP3    H2 2638   4.201   6.067   5.299
  899TIP3   OH2 2639   4.741   3.918   2.447
  899TIP3    H1 2640   4.789   3.838   2.428
  899TIP3    H2 2641   4.709   3.907   2.537
  900TIP3   OH2 2642   5.436   3.170   0.052
  900TIP3    H1 2643   5.352   3.217   0.054
  900TIP3    H2 2644   5.439   3.130  -0.035
  901TIP3   OH2 2645   3.807   5.417   5.030
  901TIP3    H1 2646   3.879   5.478   5.012
  901TIP3    H2 2647   3.841   5.331   5.008
  902TIP3   OH2 2648   5.447   3.803   4.596
  902TIP3    H1 2649   5.376   3.793   4.658
  902TIP3    H2 2650   5.459   3.897   4.587
  903TIP3   OH2 2651   3.085   5.686   0.830
  903TIP3    H1 2652   3.130   5.722   0.906
  903TIP3    H2 2653   3.142   5.706   0.756
  904TIP3   OH2 2654   2.214   0.364   2.546
  904TIP3    H1 2655   2.149   0.389   2.612
  904TIP3    H2 2656   2.286   0.326   2.596
  905TIP3   OH2 2657   4.851   5.241   2.828
  905TIP3    H1 2658   4.891   5.304   2.888
  905TIP3    H2 2659   4.910   5.238   2.753
  906TIP3   OH2 2660   4.990   4.921   3.830
  906TIP3    H1 2661   4.918   4.880   3.878
  906TIP3    H2 2662   4.948   4.970   3.760
  907TIP3   OH2 2663   4.164   5.822   3.948
  907TIP3    H1 2664   4.195   5.776   3.870
  907TIP3    H2 2665   4.092   5.767   3.981
  908TIP3   OH2 2666   3.125   3.408   6.739
  908TIP3    H1 2667   3.078   3.484   6.773
  908TIP3    H2 2668   3.071   3.333   6.764
  909TIP3   OH2 2669   3.823   4.446   0.199
  909TIP3    H1 2670   3.904   4.404   0.226
  909TIP3    H2 2671   3.849   4.535   0.173
  910TIP3   OH2 2672   5.850   7.282   5.488
  910TIP3    H1 2673   5.874   7.216   5.423
  910TIP3    H2 2674   5.902   7.358   5.465
  911TIP3   OH2 2675   6.722   3.627   5.556
  911TIP3    H1 2676   6.747   3.696   5.618
  911TIP3    H2 2677   6.804   3.602   5.514
  912TIP3   OH2 2678   2.827   7.683   2.173
  912TIP3    H1 2679   2.828   7.661   2.080
  912TIP3    H2 2680   2.744   7.730   2.186
  913TIP3   OH2 2681   5.919   4.127   2.173
  913TIP3    H1 2682   5.890   4.193   2.236
  913TIP3    H2 2683   5.874   4.150   2.091
  914TIP3   OH2 2684   4.338   5.486   0.737
  914TIP3    H1 2685   4.245   5.464   0.740
  914TIP3    H2 2686   4.374   5.425   0.673
  915TIP3   OH2 2687   2.694   7.289   4.758
  915TIP3    H1 2688   2.697   7.308   4.664
  915TIP3    H2 2689   2.690   7.375   4.800
  916TIP3   OH2 2690   6.013   6.600   2.700
  916TIP3    H1 2691   5.941   6.643   2.654
  916TIP3    H2 2692   6.066   6.672   2.734
  917TIP3   OH2 2693   4.585   1.751   1.776
  917TIP3    H1 2694   4.593   1.784   1.866
  917TIP3    H2 2695   4.507   1.696   1.778
  918TIP3   OH2 2696   0.845   3.547   2.297
  918TIP3    H1 2697   0.838   3.466   2.347
  918TIP3    H2 2698   0.859   3.615   2.364
  919TIP3   OH2 2699   0.050   5.173   1.100
  919TIP3    H1 2700   0.096   5.198   1.180
  919TIP3    H2 2701  -0.033   5.137   1.130
  920TIP3   OH2 2702   3.985   6.205   6.547
  920TIP3    H1 2703   4.066   6.178   6.591
  920TIP3    H2 2704   4.012   6.226   6.458
  921TIP3   OH2 2705   1.313   3.227   1.815
  921TIP3    H1 2706   1.264   3.152   1.849
  921TIP3    H2 2707   1.248   3.279   1.768
  922TIP3   OH2 2708   6.656   2.538   1.963
  922TIP3    H1 2709   6.664   2.603   2.033
  922TIP3    H2 2710   6.572   2.495   1.980
  923TIP3   OH2 2711   6.639   2.628   4.969
  923TIP3    H1 2712   6.594   2.671   4.897
  923TIP3    H2 2713   6.663   2.699   5.029
  924TIP3   OH2 2714   5.330   2.015   4.577
  924TIP3    H1 2715   5.308   2.097   4.532
  924TIP3    H2 2716   5.407   2.036   4.629
  925TIP3   OH2 2717   7.115   1.286   4.801
  925TIP3    H1 2718   7.091   1.362   4.748
  925TIP3    H2 2719   7.101   1.314   4.891
  926TIP3   OH2 2720   4.051   5.914   6.570
  926TIP3    H1 2721   4.121   5.922   6.505
  926TIP3    H2 2722   4.001   5.995   6.562
  927TIP3   OH2 2723   7.069   4.573   5.366
  927TIP3    H1 2724   7.062   4.524   5.448
  927TIP3    H2 2725   7.132   4.524   5.314
  928TIP3   OH2 2726   4.701   6.514   6.194
  928TIP3    H1 2727   4.654   6.516   6.278
  928TIP3    H2 2728   4.774   6.454   6.209
  929TIP3   OH2 2729   3.237   6.397   3.117
  929TIP3    H1 2730   3.206   6.309   3.138
  929TIP3    H2 2731   3.239   6.400   3.021
  930TIP3   OH2 2732   6.861   7.671   1.636
  930TIP3    H1 2733   6.809   7.746   1.606
  930TIP3    H2 2734   6.802   7.597   1.631
  931TIP3   OH2 2735   3.406   4.096   0.867
  931TIP3    H1 2736   3.343   4.167   0.852
  931TIP3    H2 2737   3.394   4.072   0.958
  932TIP3   OH2 2738   6.223   6.873   6.712
  932TIP3    H1 2739   6.240   6.780   6.729
  932TIP3    H2 2740   6.230   6.881   6.617
  933TIP3   OH2 2741   2.757   6.196   6.527
  933TIP3    H1 2742   2.672   6.238   6.541
  933TIP3    H2 2743   2.738   6.102   6.528
  934TIP3   OH2 2744   4.641   6.485   6.471
  934TIP3    H1 2745   4.587   6.561   6.495
  934TIP3    H2 2746   4.718   6.491   6.526
  935TIP3   OH2 2747   0.836   5.961   6.558
  935TIP3    H1 2748   0.816   6.046   6.597
  935TIP3    H2 2749   0.760   5.907   6.579
  936TIP3   OH2 2750   4.956   5.578   1.025
  936TIP3    H1 2751   4.980   5.663   0.989
  936TIP3    H2 2752   4.977   5.516   0.956
  937TIP3   OH2 2753   3.543   7.640   1.885
  937TIP3    H1 2754   3.580   7.621   1.799
  937TIP3    H2 2755   3.509   7.555   1.915
  938TIP3   OH2 2756   5.835   2.070   3.435
  938TIP3    H1 2757   5.832   2.018   3.354
  938TIP3    H2 2758   5.873   2.154   3.409
  939TIP3   OH2 2759   0.881   4.818   2.967
  939TIP3    H1 2760   0.952   4.874   2.999
  939TIP3    H2 2761   0.806   4.841   3.022
  940TIP3   OH2 2762   7.672   5.590   3.221
  940TIP3    H1 2763   7.645   5.657   3.158
  940TIP3    H2 2764   7.685   5.512   3.168
  941TIP3   OH2 2765   0.919   6.070   5.060
  941TIP3    H1 2766   0.901   6.161   5.038
  941TIP3    H2 2767   0.843   6.042   5.112
  942TIP3   OH2 2768   5.075   1.356   4.097
  942TIP3    H1 2769   5.080   1.390   4.008
  942TIP3    H2 2770   5.005   1.407   4.139
  943TIP3   OH2 2771   5.901   1.363   4.647
  943TIP3    H1 2772   5.965   1.401   4.586
  943TIP3    H2 2773   5.936   1.275   4.665
  944TIP3   OH2 2774   6.837   2.330   4.642
  944TIP3    H1 2775   6.879   2.402   4.594
  944TIP3    H2 2776   6.748   2.327   4.607
  945TIP3   OH2 2777   7.532   4.046   5.538
  945TIP3    H1 2778   7.528   4.092   5.454
  945TIP3    H2 2779   7.565   4.111   5.599
  946TIP3   OH2 2780   1.623   3.999   2.486
  946TIP3    H1 2781   1.587   3.931   2.543
  946TIP3    H2 2782   1.592   4.081   2.525
  947TIP3   OH2 2783   8.079   5.297   4.562
  947TIP3    H1 2784   8.073   5.387   4.592
  947TIP3    H2 2785   7.995   5.280   4.520
  948TIP3   OH2 2786   0.178   6.306   2.663
  948TIP3    H1 2787   0.141   6.231   2.617
  948TIP3    H2 2788   0.147   6.382   2.614
  949TIP3   OH2 2789   6.358   0.707   4.278
  949TIP3    H1 2790   6.313   0.646   4.336
  949TIP3    H2 2791   6.409   0.651   4.220
  950TIP3   OH2 2792   0.697   4.513   2.605
  950TIP3    H1 2793   0.619   4.467   2.636
  950TIP3    H2 2794   0.666   4.567   2.533
  951TIP3   OH2 2795   5.997   6.115   1.633
  951TIP3    H1 2796   6.090   6.094   1.630
  951TIP3    H2 2797   5.977   6.125   1.726
  952TIP3   OH2 2798   5.126   2.362   3.882
  952TIP3    H1 2799   5.197   2.324   3.934
  952TIP3    H2 2800   5.107   2.446   3.925
  953TIP3   OH2 2801   2.719   1.859   1.107
  953TIP3    H1 2802   2.794   1.863   1.166
  953TIP3    H2 2803   2.742   1.916   1.033
  954TIP3   OH2 2804   1.148   2.038   6.624
  954TIP3    H1 2805   1.236   2.070   6.643
  954TIP3    H2 2806   1.094   2.117   6.622
  955TIP3   OH2 2807   4.633   0.350   3.590
  955TIP3    H1 2808   4.697   0.286   3.622
  955TIP3    H2 2809   4.556   0.336   3.645
  956TIP3   OH2 2810   3.324   4.899   2.363
  956TIP3    H1 2811   3.313   4.994   2.352
  956TIP3    H2 2812   3.259   4.860   2.304
  957TIP3   OH2 2813   7.457   4.099   4.530
  957TIP3    H1 2814   7.370   4.060   4.525
  957TIP3    H2 2815   7.462   4.135   4.618
  958TIP3   OH2 2816   0.581   1.109   0.475
  958TIP3    H1 2817   0.629   1.188   0.500
  958TIP3    H2 2818   0.491   1.139   0.462
  959TIP3   OH2 2819   5.884   6.234   1.906
  959TIP3    H1 2820   5.919   6.312   1.950
  959TIP3    H2 2821   5.789   6.244   1.909
  960TIP3   OH2 2822   3.265   5.523   0.203
  960TIP3    H1 2823   3.191   5.465   0.225
  960TIP3    H2 2824   3.224   5.607   0.182
  961TIP3   OH2 2825   2.824   0.366   1.677
  961TIP3    H1 2826   2.848   0.449   1.635
  961TIP3    H2 2827   2.818   0.303   1.605
  962TIP3   OH2 2828   0.585   4.629   2.063
  962TIP3    H1 2829   0.623   4.548   2.027
  962TIP3    H2 2830   0.658   4.673   2.105
  963TIP3   OH2 2831   3.549   2.442   3.637
  963TIP3    H1 2832   3.512   2.448   3.726
  963TIP3    H2 2833   3.636   2.481   3.645
  964TIP3   OH2 2834   1.826   5.718   0.518
  964TIP3    H1 2835   1.769   5.783   0.560
  964TIP3    H2 2836   1.915   5.743   0.544
  965TIP3   OH2 2837   8.141   1.427   0.795
  965TIP3    H1 2838   8.163   1.494   0.731
  965TIP3    H2 2839   8.141   1.345   0.745
  966TIP3   OH2 2840   5.306   7.645   2.656
  966TIP3    H1 2841   5.335   7.553   2.660
  966TIP3    H2 2842   5.385   7.696   2.673
  967TIP3   OH2 2843   2.374   6.778   4.443
  967TIP3    H1 2844   2.318   6.833   4.388
  967TIP3    H2 2845   2.393   6.702   4.388
  968TIP3   OH2 2846   6.320   2.076   6.658
  968TIP3    H1 2847   6.284   2.132   6.727
  968TIP3    H2 2848   6.270   2.099   6.580
  969TIP3   OH2 2849   0.529   5.082   5.335
  969TIP3    H1 2850   0.621   5.080   5.307
  969TIP3    H2 2851   0.512   4.994   5.367
  970TIP3   OH2 2852   7.269   2.327   4.914
  970TIP3    H1 2853   7.174   2.315   4.907
  970TIP3    H2 2854   7.296   2.356   4.827
  971TIP3   OH2 2855   2.739   3.213   5.069
  971TIP3    H1 2856   2.669   3.277   5.058
  971TIP3    H2 2857   2.785   3.240   5.148
  972TIP3   OH2 2858   5.108   3.152   3.366
  972TIP3    H1 2859   5.134   3.184   3.452
  972TIP3    H2 2860   5.169   3.080   3.348
  973TIP3   OH2 2861   0.490   2.636   0.736
  973TIP3    H1 2862   0.438   2.653   0.814
  973TIP3    H2 2863   0.426   2.609   0.670
  974TIP3   OH2 2864   6.669   1.224   5.846
  974TIP3    H1 2865   6.604   1.196   5.782
  974TIP3    H2 2866   6.729   1.279   5.795
  975TIP3   OH2 2867   2.526   2.186   0.929
  975TIP3    H1 2868   2.524   2.098   0.891
  975TIP3    H2 2869   2.602   2.228   0.889
  976TIP3   OH2 2870   8.210   3.609   1.599
  976TIP3    H1 2871   8.256   3.531   1.630
  976TIP3    H2 2872   8.253   3.632   1.517
  977TIP3   OH2 2873   5.040   2.244   1.219
  977TIP3    H1 2874   5.061   2.183   1.148
  977TIP3    H2 2875   4.947   2.232   1.235
  978TIP3   OH2 2876   4.610   0.192   3.329
  978TIP3    H1 2877   4.576   0.185   3.239
  978TIP3    H2 2878   4.531   0.198   3.383
  979TIP3   OH2 2879   4.249   0.404   5.928
  979TIP3    H1 2880   4.217   0.323   5.887
  979TIP3    H2 2881   4.195   0.414   6.007
  980TIP3   OH2 2882   1.500   0.899   2.317
  980TIP3    H1 2883   1.593   0.877   2.327
  980TIP3    H2 2884   1.497   0.994   2.330
  981TIP3   OH2 2885   6.004   5.839   3.901
  981TIP3    H1 2886   5.958   5.760   3.928
  981TIP3    H2 2887   5.998   5.897   3.977
  982TIP3   OH2 2888   6.160   5.588   1.131
  982TIP3    H1 2889   6.111   5.514   1.166
  982TIP3    H2 2890   6.235   5.549   1.086
  983TIP3   OH2 2891   3.980  -0.007   5.767
  983TIP3    H1 2892   3.954   0.054   5.836
  983TIP3    H2 2893   3.901  -0.017   5.713
  984TIP3   OH2 2894   7.451   3.415   5.713
  984TIP3    H1 2895   7.517   3.352   5.683
  984TIP3    H2 2896   7.471   3.428   5.806
  985TIP3   OH2 2897   5.086   4.584   6.291
  985TIP3    H1 2898   5.082   4.519   6.361
  985TIP3    H2 2899   5.138   4.544   6.222
  986TIP3   OH2 2900   4.969   1.419   5.530
  986TIP3    H1 2901   4.893   1.446   5.583
  986TIP3    H2 2902   5.035   1.487   5.546
  987TIP3   OH2 2903   4.411   3.211   5.946
  987TIP3    H1 2904   4.385   3.155   6.019
  987TIP3    H2 2905   4.388   3.299   5.974
  988TIP3   OH2 2906   1.506   6.025   0.847
  988TIP3    H1 2907   1.419   5.994   0.823
  988TIP3    H2 2908   1.505   6.118   0.822
  989TIP3   OH2 2909   2.074   5.314   4.648
  989TIP3    H1 2910   2.134   5.388   4.649
  989TIP3    H2 2911   2.081   5.276   4.736
  990TIP3   OH2 2912   7.992   4.028   5.737
  990TIP3    H1 2913   7.897   4.016   5.732
  990TIP3    H2 2914   8.028   3.945   5.707
  991TIP3   OH2 2915   2.697   2.598   0.268
  991TIP3    H1 2916   2.674   2.510   0.299
  991TIP3    H2 2917   2.712   2.586   0.174
  992TIP3   OH2 2918   0.708   2.328   4.921
  992TIP3    H1 2919   0.696   2.241   4.958
  992TIP3    H2 2920   0.621   2.369   4.926
  993TIP3   OH2 2921   7.603   4.379   3.728
  993TIP3    H1 2922   7.631   4.429   3.651
  993TIP3    H2 2923   7.622   4.437   3.801
  994TIP3   OH2 2924   7.218   0.671   3.000
  994TIP3    H1 2925   7.199   0.760   3.029
  994TIP3    H2 2926   7.135   0.625   3.005
  995TIP3   OH2 2927   3.792   7.053   4.921
  995TIP3    H1 2928   3.723   7.116   4.940
  995TIP3    H2 2929   3.777   7.027   4.829
  996TIP3   OH2 2930   3.967   0.769   0.390
  996TIP3    H1 2931   4.027   0.697   0.412
  996TIP3    H2 2932   3.896   0.760   0.454
  997TIP3   OH2 2933   7.299   1.637   5.198
  997TIP3    H1 2934   7.356   1.561   5.212
  997TIP3    H2 2935   7.229   1.627   5.262
  998TIP3   OH2 2936   7.901   3.745   2.689
  998TIP3    H1 2937   7.824   3.725   2.743
  998TIP3    H2 2938   7.867   3.750   2.600
  999TIP3   OH2 2939   6.394   0.213   3.124
  999TIP3    H1 2940   6.388   0.147   3.054
  999TIP3    H2 2941   6.412   0.163   3.203
 1000TIP3   OH2 2942   3.328   7.410   0.944
 1000TIP3    H1 2943   3.393   7.474   0.971
 1000TIP3    H2 2944   3.325   7.418   0.849
 1001TIP3   OH2 2945   3.804   7.751   1.966
 1001TIP3    H1 2946   3.849   7.675   2.002
 1001TIP3    H2 2947   3.727   7.714   1.921
 1002TIP3   OH2 2948   4.703   1.391   5.846
 1002TIP3    H1 2949   4.736   1.437   5.769
 1002TIP3    H2 2950   4.733   1.443   5.920
 1003TIP3   OH2 2951   5.249   4.270   0.790
 1003TIP3    H1 2952   5.229   4.265   0.883
 1003TIP3    H2 2953   5.179   4.324   0.753
 1004TIP3   OH2 2954   7.299   5.127   4.433
 1004TIP3    H1 2955   7.233   5.121   4.502
 1004TIP3    H2 2956   7.259   5.182   4.366
 1005TIP3   OH2 2957   0.908   0.481   5.147
 1005TIP3    H1 2958   1.001   0.465   5.161
 1005TIP3    H2 2959   0.868   0.466   5.233
 1006TIP3   OH2 2960   3.930   3.825   4.016
 1006TIP3    H1 2961   3.948   3.896   3.956
 1006TIP3    H2 2962   3.840   3.840   4.046
 1007TIP3   OH2 2963   2.225   5.778   1.814
 1007TIP3    H1 2964   2.174   5.716   1.866
 1007TIP3    H2 2965   2.260   5.726   1.742
 1008TIP3   OH2 2966   0.842   5.400   0.134
 1008TIP3    H1 2967   0.853   5.390   0.040
 1008TIP3    H2 2968   0.747   5.409   0.146
 1009TIP3   OH2 2969   2.646   1.293   5.101
 1009TIP3    H1 2970   2.620   1.263   5.187
 1009TIP3    H2 2971   2.716   1.233   5.075
 1010TIP3   OH2 2972   7.429   5.529   1.028
 1010TIP3    H1 2973   7.405   5.619   1.004
 1010TIP3    H2 2974   7.492   5.539   1.099
 1011TIP3   OH2 2975   6.958   1.358   5.546
 1011TIP3    H1 2976   6.903   1.292   5.504
 1011TIP3    H2 2977   6.974   1.324   5.634
 1012TIP3   OH2 2978   7.286   3.635   5.749
 1012TIP3    H1 2979   7.332   3.558   5.715
 1012TIP3    H2 2980   7.352   3.704   5.749
 1013TIP3   OH2 2981   5.628   2.023   4.130
 1013TIP3    H1 2982   5.571   1.949   4.151
 1013TIP3    H2 2983   5.628   2.026   4.034
 1014TIP3   OH2 2984   3.019   5.357   5.729
 1014TIP3    H1 2985   3.108   5.321   5.722
 1014TIP3    H2 2986   3.029   5.438   5.779
 1015TIP3   OH2 2987   0.459   0.132   0.356
 1015TIP3    H1 2988   0.477   0.098   0.444
 1015TIP3    H2 2989   0.528   0.196   0.340
 1016TIP3   OH2 2990   4.322   1.520   4.270
 1016TIP3    H1 2991   4.286   1.454   4.210
 1016TIP3    H2 2992   4.412   1.533   4.241
 1017TIP3   OH2 2993   4.776   0.909   4.532
 1017TIP3    H1 2994   4.812   0.978   4.586
 1017TIP3    H2 2995   4.704   0.873   4.584
 1018TIP3   OH2 2996   0.826   0.786   0.677
 1018TIP3    H1 2997   0.792   0.700   0.653
 1018TIP3    H2 2998   0.920   0.772   0.691
 1019TIP3   OH2 2999   1.111   1.585   3.126
 1019TIP3    H1 3000   1.085   1.671   3.158
 1019TIP3    H2 3001   1.031   1.533   3.126
 1020TIP3   OH2 3002   1.210   6.292   0.926
 1020TIP3    H1 3003   1.148   6.356   0.893
 1020TIP3    H2 3004   1.160   6.211   0.931
 1021TIP3   OH2 3005   5.488   0.234   0.629
 1021TIP3    H1 3006   5.506   0.309   0.686
 1021TIP3    H2 3007   5.466   0.273   0.545
 1022TIP3   OH2 3008   4.644   4.304   5.637
 1022TIP3    H1 3009   4.725   4.350   5.614
 1022TIP3    H2 3010   4.670   4.238   5.701
 1023TIP3   OH2 3011   2.290   7.337   6.018
 1023TIP3    H1 3012   2.344   7.407   5.981
 1023TIP3    H2 3013   2.309   7.261   5.962
 1024TIP3   OH2 3014   5.458   3.665   4.149
 1024TIP3    H1 3015   5.549   3.635   4.147
 1024TIP3    H2 3016   5.451   3.716   4.229
 1025TIP3   OH2 3017   0.457   2.777   2.103
 1025TIP3    H1 3018   0.535   2.727   2.127
 1025TIP3    H2 3019   0.439   2.833   2.179
 1026TIP3   OH2 3020   4.880   1.359   3.589
 1026TIP3    H1 3021   4.895   1.447   3.622
 1026TIP3    H2 3022   4.785   1.354   3.577
 1027TIP3   OH2 3023   2.456   4.519   5.896
 1027TIP3    H1 3024   2.421   4.440   5.937
 1027TIP3    H2 3025   2.403   4.590   5.931
 1028TIP3   OH2 3026   6.958   1.779   2.311
 1028TIP3    H1 3027   6.955   1.866   2.351
 1028TIP3    H2 3028   6.982   1.720   2.383
 1029TIP3   OH2 3029   0.373   3.038   0.170
 1029TIP3    H1 3030   0.327   2.958   0.147
 1029TIP3    H2 3031   0.446   3.042   0.107
 1030TIP3   OH2 3032   0.729   2.283   3.876
 1030TIP3    H1 3033   0.800   2.218   3.879
 1030TIP3    H2 3034   0.697   2.279   3.786
 1031TIP3   OH2 3035   2.014   0.179   4.224
 1031TIP3    H1 3036   1.980   0.183   4.135
 1031TIP3    H2 3037   2.102   0.143   4.215
 1032TIP3   OH2 3038   1.471   1.409   5.536
 1032TIP3    H1 3039   1.396   1.443   5.487
 1032TIP3    H2 3040   1.465   1.314   5.527
 1033TIP3   OH2 3041   5.484   2.191   6.224
 1033TIP3    H1 3042   5.516   2.103   6.208
 1033TIP3    H2 3043   5.416   2.180   6.291
 1034TIP3   OH2 3044   6.400   1.613   5.068
 1034TIP3    H1 3045   6.486   1.587   5.034
 1034TIP3    H2 3046   6.339   1.551   5.029
 1035TIP3   OH2 3047   2.144   6.120   0.781
 1035TIP3    H1 3048   2.181   6.048   0.831
 1035TIP3    H2 3049   2.194   6.197   0.808
 1036TIP3   OH2 3050   2.508   5.459   3.772
 1036TIP3    H1 3051   2.507   5.516   3.695
 1036TIP3    H2 3052   2.555   5.509   3.838
 1037TIP3   OH2 3053   6.131   4.433   4.239
 1037TIP3    H1 3054   6.117   4.488   4.162
 1037TIP3    H2 3055   6.182   4.359   4.209
 1038TIP3   OH2 3056   2.770   7.385   6.233
 1038TIP3    H1 3057   2.733   7.320   6.173
 1038TIP3    H2 3058   2.763   7.468   6.186
 1039TIP3   OH2 3059   8.248   7.455   2.552
 1039TIP3    H1 3060   8.325   7.420   2.508
 1039TIP3    H2 3061   8.219   7.384   2.609
 1040TIP3   OH2 3062   7.732   3.366   5.583
 1040TIP3    H1 3063   7.795   3.425   5.541
 1040TIP3    H2 3064   7.713   3.407   5.667
 1041TIP3   OH2 3065   5.000   2.169   1.529
 1041TIP3    H1 3066   5.056   2.110   1.579
 1041TIP3    H2 3067   4.919   2.119   1.515
 1042TIP3   OH2 3068   6.069   7.108   6.540
 1042TIP3    H1 3069   6.008   7.156   6.596
 1042TIP3    H2 3070   6.154   7.147   6.558
 1043TIP3   OH2 3071   3.278   4.966   5.930
 1043TIP3    H1 3072   3.234   5.044   5.964
 1043TIP3    H2 3073   3.347   4.948   5.994
 1044TIP3   OH2 3074   6.331   5.258   3.768
 1044TIP3    H1 3075   6.406   5.198   3.763
 1044TIP3    H2 3076   6.263   5.213   3.717
 1045TIP3   OH2 3077   2.894   1.216   6.555
 1045TIP3    H1 3078   2.877   1.246   6.465
 1045TIP3    H2 3079   2.983   1.248   6.573
 1046TIP3   OH2 3080   4.626   4.164   1.442
 1046TIP3    H1 3081   4.707   4.145   1.396
 1046TIP3    H2 3082   4.572   4.209   1.377
 1047TIP3   OH2 3083   0.991   6.479   6.742
 1047TIP3    H1 3084   1.007   6.491   6.648
 1047TIP3    H2 3085   1.026   6.557   6.783
 1048TIP3   OH2 3086   1.981   4.825   6.778
 1048TIP3    H1 3087   1.901   4.802   6.731
 1048TIP3    H2 3088   2.036   4.868   6.713
 1049TIP3   OH2 3089   2.528   2.215   2.607
 1049TIP3    H1 3090   2.531   2.120   2.607
 1049TIP3    H2 3091   2.615   2.242   2.579
 1050TIP3   OH2 3092   6.147   1.774   2.375
 1050TIP3    H1 3093   6.203   1.779   2.297
 1050TIP3    H2 3094   6.204   1.742   2.444
 1051TIP3   OH2 3095   2.881   2.340   3.643
 1051TIP3    H1 3096   2.848   2.421   3.604
 1051TIP3    H2 3097   2.811   2.276   3.627
 1052TIP3   OH2 3098   3.336   0.030   3.048
 1052TIP3    H1 3099   3.384  -0.031   2.992
 1052TIP3    H2 3100   3.395   0.105   3.057
 1053TIP3   OH2 3101   7.265   2.415   1.014
 1053TIP3    H1 3102   7.244   2.357   0.942
 1053TIP3    H2 3103   7.263   2.359   1.092
 1054TIP3   OH2 3104   8.165   1.261   5.920
 1054TIP3    H1 3105   8.248   1.308   5.914
 1054TIP3    H2 3106   8.190   1.171   5.939
 1055TIP3   OH2 3107   7.013   2.262   4.871
 1055TIP3    H1 3108   6.936   2.278   4.924
 1055TIP3    H2 3109   6.983   2.273   4.781
 1056TIP3   OH2 3110   0.973   3.819   3.625
 1056TIP3    H1 3111   0.958   3.757   3.553
 1056TIP3    H2 3112   1.011   3.766   3.695
 1057TIP3   OH2 3113   2.631   6.419   1.093
 1057TIP3    H1 3114   2.704   6.391   1.038
 1057TIP3    H2 3115   2.558   6.428   1.032
 1058TIP3   OH2 3116   6.983   1.175   2.395
 1058TIP3    H1 3117   7.013   1.263   2.373
 1058TIP3    H2 3118   6.958   1.137   2.310
 1059TIP3   OH2 3119   4.132   3.803   5.465
 1059TIP3    H1 3120   4.084   3.759   5.536
 1059TIP3    H2 3121   4.117   3.748   5.388
 1060TIP3   OH2 3122   8.022   3.461   2.594
 1060TIP3    H1 3123   8.065   3.379   2.619
 1060TIP3    H2 3124   8.095   3.519   2.571
 1061TIP3   OH2 3125   6.435   6.464   2.542
 1061TIP3    H1 3126   6.358   6.458   2.599
 1061TIP3    H2 3127   6.401   6.456   2.454
 1062TIP3   OH2 3128   3.948   6.362   5.550
 1062TIP3    H1 3129   4.042   6.344   5.559
 1062TIP3    H2 3130   3.933   6.437   5.608
 1063TIP3   OH2 3131   6.325   4.568   2.966
 1063TIP3    H1 3132   6.304   4.508   2.895
 1063TIP3    H2 3133   6.302   4.521   3.046
 1064TIP3   OH2 3134   1.193   1.076   2.922
 1064TIP3    H1 3135   1.207   1.127   3.002
 1064TIP3    H2 3136   1.120   1.120   2.879
 1065TIP3   OH2 3137   4.192   0.621   0.475
 1065TIP3    H1 3138   4.272   0.592   0.431
 1065TIP3    H2 3139   4.185   0.563   0.551
 1066TIP3   OH2 3140   7.744   1.114   1.716
 1066TIP3    H1 3141   7.700   1.191   1.752
 1066TIP3    H2 3142   7.781   1.144   1.633
 1067TIP3   OH2 3143   7.058   3.558   4.350
 1067TIP3    H1 3144   6.987   3.607   4.308
 1067TIP3    H2 3145   7.113   3.528   4.278
 1068TIP3   OH2 3146   4.655   0.578   0.540
 1068TIP3    H1 3147   4.659   0.483   0.531
 1068TIP3    H2 3148   4.731   0.610   0.491
 1069TIP3   OH2 3149   2.351   4.806   5.288
 1069TIP3    H1 3150   2.301   4.728   5.312
 1069TIP3    H2 3151   2.287   4.876   5.284
 1070TIP3   OH2 3152   7.402   7.311   5.953
 1070TIP3    H1 3153   7.416   7.313   6.047
 1070TIP3    H2 3154   7.486   7.283   5.917
 1071TIP3   OH2 3155   7.998   2.192   4.885
 1071TIP3    H1 3156   8.064   2.254   4.853
 1071TIP3    H2 3157   7.982   2.220   4.975
 1072TIP3   OH2 3158   4.420   2.519   0.747
 1072TIP3    H1 3159   4.329   2.536   0.723
 1072TIP3    H2 3160   4.470   2.579   0.692
 1073TIP3   OH2 3161   6.929   2.432   4.296
 1073TIP3    H1 3162   7.007   2.459   4.344
 1073TIP3    H2 3163   6.963   2.383   4.221
 1074TIP3   OH2 3164   6.916   2.312   6.366
 1074TIP3    H1 3165   6.937   2.348   6.452
 1074TIP3    H2 3166   6.996   2.270   6.336
 1075TIP3   OH2 3167   3.893   0.955   3.536
 1075TIP3    H1 3168   3.840   0.981   3.461
 1075TIP3    H2 3169   3.842   0.985   3.612
 1076TIP3   OH2 3170   5.689   2.700   6.473
 1076TIP3    H1 3171   5.721   2.772   6.419
 1076TIP3    H2 3172   5.676   2.627   6.412
 1077TIP3   OH2 3173   7.593   4.593   5.378
 1077TIP3    H1 3174   7.569   4.682   5.352
 1077TIP3    H2 3175   7.685   4.600   5.404
 1078TIP3   OH2 3176   3.668   4.112   1.587
 1078TIP3    H1 3177   3.712   4.100   1.502
 1078TIP3    H2 3178   3.720   4.179   1.631
 1079TIP3   OH2 3179   2.860   7.331   2.089
 1079TIP3    H1 3180   2.949   7.363   2.101
 1079TIP3    H2 3181   2.870   7.237   2.074
 1080TIP3   OH2 3182   3.061   7.359   6.199
 1080TIP3    H1 3183   3.115   7.433   6.224
 1080TIP3    H2 3184   2.978   7.373   6.244
 1081TIP3   OH2 3185   7.528   2.745   3.051
 1081TIP3    H1 3186   7.542   2.832   3.015
 1081TIP3    H2 3187   7.519   2.759   3.145
 1082TIP3   OH2 3188   6.235   6.544   5.569
 1082TIP3    H1 3189   6.215   6.563   5.661
 1082TIP3    H2 3190   6.330   6.553   5.563
 1083TIP3   OH2 3191   4.558   3.161   6.315
 1083TIP3    H1 3192   4.533   3.152   6.407
 1083TIP3    H2 3193   4.542   3.075   6.277
 1084TIP3   OH2 3194   3.984   0.861   2.136
 1084TIP3    H1 3195   3.967   0.851   2.042
 1084TIP3    H2 3196   3.955   0.779   2.175
 1085TIP3   OH2 3197   5.491   3.654   3.232
 1085TIP3    H1 3198   5.406   3.635   3.272
 1085TIP3    H2 3199   5.483   3.743   3.199
 1086TIP3   OH2 3200   6.646   5.246   3.156
 1086TIP3    H1 3201   6.725   5.242   3.102
 1086TIP3    H2 3202   6.582   5.289   3.100
 1087TIP3   OH2 3203   2.976   0.951   6.623
 1087TIP3    H1 3204   2.898   0.907   6.655
 1087TIP3    H2 3205   2.952   1.044   6.620
 1088TIP3   OH2 3206   4.665   2.160   0.398
 1088TIP3    H1 3207   4.618   2.152   0.315
 1088TIP3    H2 3208   4.752   2.126   0.380
 1089TIP3   OH2 3209   4.063   5.128   3.097
 1089TIP3    H1 3210   4.128   5.065   3.129
 1089TIP3    H2 3211   4.105   5.213   3.107
 1090TIP3   OH2 3212   0.318   5.806   0.513
 1090TIP3    H1 3213   0.261   5.810   0.590
 1090TIP3    H2 3214   0.373   5.729   0.528
 1091TIP3   OH2 3215   3.613   2.937   0.507
 1091TIP3    H1 3216   3.657   3.018   0.481
 1091TIP3    H2 3217   3.657   2.910   0.588
 1092TIP3   OH2 3218   8.096   6.632   1.461
 1092TIP3    H1 3219   8.124   6.710   1.414
 1092TIP3    H2 3220   8.027   6.594   1.407
 1093TIP3   OH2 3221   3.115   0.348   1.361
 1093TIP3    H1 3222   3.095   0.333   1.453
 1093TIP3    H2 3223   3.134   0.261   1.326
 1094TIP3   OH2 3224   8.208   5.038   4.595
 1094TIP3    H1 3225   8.167   5.122   4.572
 1094TIP3    H2 3226   8.199   5.032   4.690
 1095TIP3   OH2 3227   8.055   2.719   2.472
 1095TIP3    H1 3228   8.098   2.714   2.387
 1095TIP3    H2 3229   7.975   2.770   2.456
 1096TIP3   OH2 3230   5.988   5.849   5.328
 1096TIP3    H1 3231   6.030   5.774   5.288
 1096TIP3    H2 3232   6.044   5.872   5.402
 1097TIP3   OH2 3233   6.233   5.788   1.899
 1097TIP3    H1 3234   6.139   5.781   1.880
 1097TIP3    H2 3235   6.246   5.881   1.917
 1098TIP3   OH2 3236   6.482   3.925   6.173
 1098TIP3    H1 3237   6.446   4.011   6.153
 1098TIP3    H2 3238   6.481   3.919   6.268
 1099TIP3   OH2 3239   6.747   3.287   3.334
 1099TIP3    H1 3240   6.748   3.348   3.408
 1099TIP3    H2 3241   6.839   3.282   3.307
 1100TIP3   OH2 3242   5.450   6.792   5.324
 1100TIP3    H1 3243   5.528   6.838   5.357
 1100TIP3    H2 3244   5.452   6.707   5.369
 1101TIP3   OH2 3245   7.603   1.224   0.329
 1101TIP3    H1 3246   7.662   1.291   0.364
 1101TIP3    H2 3247   7.598   1.243   0.236
 1102TIP3   OH2 3248   1.155   0.877   0.501
 1102TIP3    H1 3249   1.169   0.971   0.506
 1102TIP3    H2 3250   1.179   0.854   0.411
 1103TIP3   OH2 3251   0.598   1.144  -0.030
 1103TIP3    H1 3252   0.548   1.064  -0.016
 1103TIP3    H2 3253   0.596   1.189   0.054
 1104TIP3   OH2 3254   1.223   7.676   5.014
 1104TIP3    H1 3255   1.260   7.598   5.055
 1104TIP3    H2 3256   1.155   7.643   4.956
 1105TIP3   OH2 3257   6.040   6.259   6.697
 1105TIP3    H1 3258   6.132   6.233   6.692
 1105TIP3    H2 3259   6.041   6.340   6.749
 1106TIP3   OH2 3260   6.104   4.173   5.864
 1106TIP3    H1 3261   6.069   4.110   5.927
 1106TIP3    H2 3262   6.057   4.254   5.882
 1107TIP3   OH2 3263   6.604   4.151   5.228
 1107TIP3    H1 3264   6.569   4.171   5.315
 1107TIP3    H2 3265   6.531   4.110   5.181
 1108TIP3   OH2 3266   7.582   6.662   2.274
 1108TIP3    H1 3267   7.666   6.699   2.300
 1108TIP3    H2 3268   7.600   6.612   2.195
 1109TIP3   OH2 3269   7.709   2.331   5.252
 1109TIP3    H1 3270   7.744   2.257   5.202
 1109TIP3    H2 3271   7.752   2.324   5.338
 1110TIP3   OH2 3272   5.052   1.568   3.118
 1110TIP3    H1 3273   5.047   1.663   3.113
 1110TIP3    H2 3274   5.009   1.545   3.201
 1111TIP3   OH2 3275   6.410   3.360   0.502
 1111TIP3    H1 3276   6.356   3.431   0.535
 1111TIP3    H2 3277   6.347   3.295   0.470
 1112TIP3   OH2 3278   5.375   7.537   4.826
 1112TIP3    H1 3279   5.331   7.553   4.743
 1112TIP3    H2 3280   5.331   7.460   4.863
 1113TIP3   OH2 3281   4.154   0.266   4.133
 1113TIP3    H1 3282   4.146   0.247   4.039
 1113TIP3    H2 3283   4.162   0.361   4.137
 1114TIP3   OH2 3284   2.358   5.442   4.421
 1114TIP3    H1 3285   2.332   5.518   4.473
 1114TIP3    H2 3286   2.399   5.383   4.484
 1115TIP3   OH2 3287   5.783   3.132   3.072
 1115TIP3    H1 3288   5.765   3.226   3.062
 1115TIP3    H2 3289   5.833   3.109   2.993
 1116TIP3   OH2 3290   5.638   3.464   6.558
 1116TIP3    H1 3291   5.671   3.448   6.469
 1116TIP3    H2 3292   5.562   3.405   6.565
 1117TIP3   OH2 3293   0.184   7.792   6.288
 1117TIP3    H1 3294   0.161   7.838   6.207
 1117TIP3    H2 3295   0.276   7.769   6.277
 1118TIP3   OH2 3296   5.937   7.034   5.333
 1118TIP3    H1 3297   5.954   7.056   5.242
 1118TIP3    H2 3298   5.930   6.938   5.334
 1119TIP3   OH2 3299   1.903   1.030   6.661
 1119TIP3    H1 3300   1.969   1.046   6.594
 1119TIP3    H2 3301   1.821   1.060   6.622
 1120TIP3   OH2 3302   5.048   3.454   6.713
 1120TIP3    H1 3303   5.107   3.527   6.730
 1120TIP3    H2 3304   5.086   3.380   6.761
 1121TIP3   OH2 3305   5.810   5.568   2.664
 1121TIP3    H1 3306   5.855   5.563   2.749
 1121TIP3    H2 3307   5.738   5.505   2.672
 1122TIP3   OH2 3308   0.943   4.687   5.635
 1122TIP3    H1 3309   0.912   4.769   5.673
 1122TIP3    H2 3310   1.035   4.682   5.662
 1123TIP3   OH2 3311   7.940   5.178   5.377
 1123TIP3    H1 3312   7.869   5.218   5.427
 1123TIP3    H2 3313   7.960   5.097   5.424
 1124TIP3   OH2 3314   7.381   7.724   3.613
 1124TIP3    H1 3315   7.353   7.812   3.640
 1124TIP3    H2 3316   7.353   7.667   3.685
 1125TIP3   OH2 3317   5.603   0.409   2.238
 1125TIP3    H1 3318   5.625   0.325   2.198
 1125TIP3    H2 3319   5.678   0.465   2.220
 1126TIP3   OH2 3320   3.458   3.547   4.546
 1126TIP3    H1 3321   3.488   3.474   4.600
 1126TIP3    H2 3322   3.373   3.519   4.512
 1127TIP3   OH2 3323   2.371   2.105   4.797
 1127TIP3    H1 3324   2.345   2.161   4.725
 1127TIP3    H2 3325   2.410   2.028   4.755
 1128TIP3   OH2 3326   2.523   7.119   0.099
 1128TIP3    H1 3327   2.531   7.210   0.068
 1128TIP3    H2 3328   2.458   7.123   0.168
 1129TIP3   OH2 3329   6.176   1.585   5.944
 1129TIP3    H1 3330   6.082   1.588   5.923
 1129TIP3    H2 3331   6.191   1.661   6.000
 1130TIP3   OH2 3332   2.338   5.448   2.515
 1130TIP3    H1 3333   2.267   5.423   2.573
 1130TIP3    H2 3334   2.418   5.430   2.564
 1131TIP3   OH2 3335   4.337   0.321   5.480
 1131TIP3    H1 3336   4.389   0.395   5.450
 1131TIP3    H2 3337   4.393   0.275   5.542
 1132TIP3   OH2 3338   2.635   3.049   0.352
 1132TIP3    H1 3339   2.729   3.036   0.347
 1132TIP3    H2 3340   2.611   3.089   0.268
 1133TIP3   OH2 3341   0.809   4.106   4.066
 1133TIP3    H1 3342   0.820   4.017   4.033
 1133TIP3    H2 3343   0.716   4.125   4.053
 1134TIP3   OH2 3344   6.000   7.375   5.181
 1134TIP3    H1 3345   5.938   7.416   5.241
 1134TIP3    H2 3346   6.084   7.418   5.200
 1135TIP3   OH2 3347   7.951   1.192   5.739
 1135TIP3    H1 3348   7.942   1.286   5.726
 1135TIP3    H2 3349   8.044   1.175   5.723
 1136TIP3   OH2 3350   0.528   3.954   3.118
 1136TIP3    H1 3351   0.462   3.909   3.065
 1136TIP3    H2 3352   0.477   4.013   3.174
 1137TIP3   OH2 3353   3.786   2.677   1.346
 1137TIP3    H1 3354   3.717   2.685   1.281
 1137TIP3    H2 3355   3.864   2.713   1.303
 1138TIP3   OH2 3356   8.052   1.788   2.565
 1138TIP3    H1 3357   8.109   1.796   2.489
 1138TIP3    H2 3358   7.964   1.779   2.528
 1139TIP3   OH2 3359   8.148   0.259   0.201
 1139TIP3    H1 3360   8.104   0.274   0.284
 1139TIP3    H2 3361   8.078   0.239   0.139
 1140TIP3   OH2 3362   7.803   3.547   1.796
 1140TIP3    H1 3363   7.744   3.495   1.852
 1140TIP3    H2 3364   7.891   3.522   1.825
 1141TIP3   OH2 3365   1.727   3.372   5.381
 1141TIP3    H1 3366   1.658   3.355   5.317
 1141TIP3    H2 3367   1.782   3.293   5.379
 1142TIP3   OH2 3368   2.882   0.867   0.494
 1142TIP3    H1 3369   2.871   0.892   0.585
 1142TIP3    H2 3370   2.802   0.821   0.471
 1143TIP3   OH2 3371   6.893   7.503   3.230
 1143TIP3    H1 3372   6.848   7.454   3.161
 1143TIP3    H2 3373   6.875   7.453   3.310
 1144TIP3   OH2 3374   7.682   0.337   4.392
 1144TIP3    H1 3375   7.613   0.277   4.420
 1144TIP3    H2 3376   7.690   0.400   4.464
 1145TIP3   OH2 3377   8.075   3.261   1.715
 1145TIP3    H1 3378   8.168   3.256   1.695
 1145TIP3    H2 3379   8.071   3.279   1.809
 1146TIP3   OH2 3380   7.637   2.868   6.247
 1146TIP3    H1 3381   7.591   2.785   6.256
 1146TIP3    H2 3382   7.637   2.905   6.335
 1147TIP3   OH2 3383   7.934   1.635   0.597
 1147TIP3    H1 3384   7.844   1.663   0.610
 1147TIP3    H2 3385   7.930   1.539   0.600
 1148TIP3   OH2 3386   2.614   4.001   4.899
 1148TIP3    H1 3387   2.679   4.056   4.855
 1148TIP3    H2 3388   2.569   4.061   4.959
 1149TIP3   OH2 3389   0.558   7.422   4.516
 1149TIP3    H1 3390   0.645   7.404   4.480
 1149TIP3    H2 3391   0.539   7.512   4.488
 1150TIP3   OH2 3392   3.519   4.518   2.266
 1150TIP3    H1 3393   3.534   4.448   2.330
 1150TIP3    H2 3394   3.578   4.496   2.193
 1151TIP3   OH2 3395   4.404   7.153   1.387
 1151TIP3    H1 3396   4.497   7.174   1.386
 1151TIP3    H2 3397   4.363   7.227   1.343
 1152TIP3   OH2 3398   3.929   1.175   6.728
 1152TIP3    H1 3399   3.923   1.086   6.765
 1152TIP3    H2 3400   3.902   1.165   6.637
 1153TIP3   OH2 3401   3.564   2.343   6.280
 1153TIP3    H1 3402   3.602   2.348   6.192
 1153TIP3    H2 3403   3.596   2.421   6.325
 1154TIP3   OH2 3404   1.891   1.186   3.391
 1154TIP3    H1 3405   1.846   1.267   3.414
 1154TIP3    H2 3406   1.905   1.191   3.297
 1155TIP3   OH2 3407   7.617   3.078   0.973
 1155TIP3    H1 3408   7.613   3.118   1.060
 1155TIP3    H2 3409   7.555   3.005   0.977
 1156TIP3   OH2 3410   2.309   1.434   6.303
 1156TIP3    H1 3411   2.365   1.503   6.267
 1156TIP3    H2 3412   2.233   1.432   6.244
 1157TIP3   OH2 3413   0.151   5.392   6.187
 1157TIP3    H1 3414   0.197   5.439   6.256
 1157TIP3    H2 3415   0.202   5.410   6.108
 1158TIP3   OH2 3416   4.737   1.933   1.064
 1158TIP3    H1 3417   4.815   1.908   1.114
 1158TIP3    H2 3418   4.676   1.967   1.129
 1159TIP3   OH2 3419   3.108   0.350   5.223
 1159TIP3    H1 3420   3.088   0.342   5.130
 1159TIP3    H2 3421   3.118   0.444   5.237
 1160TIP3   OH2 3422   5.491   0.730   2.252
 1160TIP3    H1 3423   5.396   0.741   2.261
 1160TIP3    H2 3424   5.512   0.657   2.309
 1161TIP3   OH2 3425   0.904   0.707   3.985
 1161TIP3    H1 3426   0.817   0.738   4.011
 1161TIP3    H2 3427   0.892   0.614   3.968
 1162TIP3   OH2 3428   1.229   0.104   4.261
 1162TIP3    H1 3429   1.208   0.088   4.169
 1162TIP3    H2 3430   1.318   0.138   4.260
 1163TIP3   OH2 3431   3.041   0.302   2.188
 1163TIP3    H1 3432   3.075   0.312   2.099
 1163TIP3    H2 3433   3.012   0.390   2.213
 1164TIP3   OH2 3434   3.454   6.470   2.691
 1164TIP3    H1 3435   3.505   6.496   2.767
 1164TIP3    H2 3436   3.365   6.458   2.724
 1165TIP3   OH2 3437   3.801   1.425   5.330
 1165TIP3    H1 3438   3.802   1.511   5.287
 1165TIP3    H2 3439   3.836   1.442   5.418
 1166TIP3   OH2 3440   6.693   4.345   1.051
 1166TIP3    H1 3441   6.696   4.438   1.074
 1166TIP3    H2 3442   6.599   4.324   1.050
 1167TIP3   OH2 3443   3.823   1.055   5.863
 1167TIP3    H1 3444   3.741   1.104   5.856
 1167TIP3    H2 3445   3.868   1.095   5.938
 1168TIP3   OH2 3446   2.924   3.231   6.700
 1168TIP3    H1 3447   2.985   3.158   6.709
 1168TIP3    H2 3448   2.869   3.227   6.778
 1169TIP3   OH2 3449   5.800   1.643   5.050
 1169TIP3    H1 3450   5.759   1.579   4.991
 1169TIP3    H2 3451   5.808   1.723   4.998
 1170TIP3   OH2 3452   7.035   3.150   5.285
 1170TIP3    H1 3453   7.095   3.089   5.242
 1170TIP3    H2 3454   6.987   3.096   5.348
 1171TIP3   OH2 3455   6.517   1.287   2.659
 1171TIP3    H1 3456   6.458   1.311   2.588
 1171TIP3    H2 3457   6.600   1.329   2.637
 1172TIP3   OH2 3458   7.210   5.663   0.744
 1172TIP3    H1 3459   7.290   5.714   0.754
 1172TIP3    H2 3460   7.160   5.709   0.677
 1173TIP3   OH2 3461   7.172   5.344   0.729
 1173TIP3    H1 3462   7.167   5.330   0.823
 1173TIP3    H2 3463   7.143   5.435   0.717
 1174TIP3   OH2 3464   6.013   1.427   2.886
 1174TIP3    H1 3465   5.951   1.359   2.913
 1174TIP3    H2 3466   6.099   1.392   2.912
 1175TIP3   OH2 3467   5.929   5.538   3.520
 1175TIP3    H1 3468   5.987   5.509   3.449
 1175TIP3    H2 3469   5.989   5.572   3.587
 1176TIP3   OH2 3470   2.042   3.486   6.324
 1176TIP3    H1 3471   2.087   3.403   6.310
 1176TIP3    H2 3472   2.031   3.492   6.419
 1177TIP3   OH2 3473   2.559   7.714   6.218
 1177TIP3    H1 3474   2.578   7.794   6.168
 1177TIP3    H2 3475   2.477   7.734   6.265
 1178TIP3   OH2 3476   0.745   7.732   2.879
 1178TIP3    H1 3477   0.770   7.819   2.847
 1178TIP3    H2 3478   0.791   7.671   2.821
 1179TIP3   OH2 3479   4.360   4.085   4.849
 1179TIP3    H1 3480   4.378   3.992   4.833
 1179TIP3    H2 3481   4.281   4.085   4.903
 1180TIP3   OH2 3482   0.703   2.748   5.611
 1180TIP3    H1 3483   0.755   2.669   5.626
 1180TIP3    H2 3484   0.725   2.806   5.684
 1181TIP3   OH2 3485   7.090   5.572   1.711
 1181TIP3    H1 3486   7.105   5.666   1.699
 1181TIP3    H2 3487   6.999   5.559   1.682
 1182TIP3   OH2 3488   0.487   3.245   3.028
 1182TIP3    H1 3489   0.441   3.163   3.048
 1182TIP3    H2 3490   0.554   3.252   3.096
 1183TIP3   OH2 3491   7.270   0.918   5.111
 1183TIP3    H1 3492   7.215   0.924   5.189
 1183TIP3    H2 3493   7.212   0.882   5.044
 1184TIP3   OH2 3494   1.721   4.938   6.254
 1184TIP3    H1 3495   1.757   4.862   6.208
 1184TIP3    H2 3496   1.676   4.988   6.186
 1185TIP3   OH2 3497   7.702   0.663   4.987
 1185TIP3    H1 3498   7.654   0.734   5.029
 1185TIP3    H2 3499   7.641   0.629   4.921
 1186TIP3   OH2 3500   7.543   7.588   0.476
 1186TIP3    H1 3501   7.457   7.619   0.446
 1186TIP3    H2 3502   7.594   7.578   0.396
 1187TIP3   OH2 3503   7.146   2.587   1.365
 1187TIP3    H1 3504   7.054   2.560   1.367
 1187TIP3    H2 3505   7.184   2.551   1.445
 1188TIP3   OH2 3506   1.672   4.370   3.568
 1188TIP3    H1 3507   1.636   4.395   3.483
 1188TIP3    H2 3508   1.767   4.374   3.555
 1189TIP3   OH2 3509   6.877   3.577   0.745
 1189TIP3    H1 3510   6.897   3.670   0.735
 1189TIP3    H2 3511   6.872   3.564   0.840
 1190TIP3   OH2 3512   1.738   1.967   0.925
 1190TIP3    H1 3513   1.718   2.059   0.909
 1190TIP3    H2 3514   1.832   1.966   0.945
 1191TIP3   OH2 3515   3.311   1.463   3.034
 1191TIP3    H1 3516   3.380   1.433   3.093
 1191TIP3    H2 3517   3.357   1.507   2.963
 1192TIP3   OH2 3518   4.140   1.807   5.570
 1192TIP3    H1 3519   4.165   1.884   5.519
 1192TIP3    H2 3520   4.195   1.811   5.648
 1193TIP3   OH2 3521   2.529   5.036   3.812
 1193TIP3    H1 3522   2.596   5.043   3.881
 1193TIP3    H2 3523   2.566   5.082   3.737
 1194TIP3   OH2 3524   7.405   2.988   4.736
 1194TIP3    H1 3525   7.447   3.054   4.681
 1194TIP3    H2 3526   7.421   3.017   4.825
 1195TIP3   OH2 3527   1.533   3.853   3.621
 1195TIP3    H1 3528   1.604   3.879   3.679
 1195TIP3    H2 3529   1.553   3.897   3.538
 1196TIP3   OH2 3530   2.503   1.339   3.042
 1196TIP3    H1 3531   2.537   1.313   3.128
 1196TIP3    H2 3532   2.528   1.267   2.984
 1197TIP3   OH2 3533   4.437   1.531   5.951
 1197TIP3    H1 3534   4.476   1.547   6.037
 1197TIP3    H2 3535   4.476   1.597   5.895
 1198TIP3   OH2 3536   3.909   0.041   1.031
 1198TIP3    H1 3537   3.852  -0.035   1.018
 1198TIP3    H2 3538   3.922   0.076   0.943
 1199TIP3   OH2 3539   4.734   1.185   1.853
 1199TIP3    H1 3540   4.693   1.248   1.912
 1199TIP3    H2 3541   4.815   1.227   1.825
 1200TIP3   OH2 3542   2.771   2.052   1.521
 1200TIP3    H1 3543   2.690   2.007   1.544
 1200TIP3    H2 3544   2.743   2.132   1.478
 1201TIP3   OH2 3545   4.242   2.069   5.486
 1201TIP3    H1 3546   4.255   2.135   5.555
 1201TIP3    H2 3547   4.159   2.093   5.445
 1202TIP3   OH2 3548   2.994   3.344   5.843
 1202TIP3    H1 3549   2.946   3.391   5.911
 1202TIP3    H2 3550   2.927   3.299   5.792
 1203TIP3   OH2 3551   2.639   1.270   0.298
 1203TIP3    H1 3552   2.669   1.338   0.237
 1203TIP3    H2 3553   2.711   1.207   0.301
 1204TIP3   OH2 3554   4.843   5.307   5.966
 1204TIP3    H1 3555   4.770   5.347   6.013
 1204TIP3    H2 3556   4.903   5.379   5.948
 1205TIP3   OH2 3557   4.064   1.195   5.262
 1205TIP3    H1 3558   4.157   1.208   5.282
 1205TIP3    H2 3559   4.042   1.267   5.203
 1206TIP3   OH2 3560   3.310   1.382   5.268
 1206TIP3    H1 3561   3.400   1.351   5.264
 1206TIP3    H2 3562   3.280   1.382   5.177
 1207TIP3   OH2 3563   8.216   3.841   6.622
 1207TIP3    H1 3564   8.268   3.790   6.560
 1207TIP3    H2 3565   8.267   3.920   6.637
 1208TIP3   OH2 3566   7.719   5.094   2.476
 1208TIP3    H1 3567   7.708   5.141   2.559
 1208TIP3    H2 3568   7.689   5.005   2.494
 1209TIP3   OH2 3569   3.461   5.777   2.700
 1209TIP3    H1 3570   3.486   5.864   2.733
 1209TIP3    H2 3571   3.525   5.718   2.738
 1210TIP3   OH2 3572   5.108   6.493   4.096
 1210TIP3    H1 3573   5.124   6.472   4.188
 1210TIP3    H2 3574   5.168   6.436   4.048
 1211TIP3   OH2 3575   2.858   3.559   5.992
 1211TIP3    H1 3576   2.902   3.630   5.945
 1211TIP3    H2 3577   2.777   3.598   6.024
 1212TIP3   OH2 3578   2.094   4.745   2.261
 1212TIP3    H1 3579   2.006   4.780   2.276
 1212TIP3    H2 3580   2.081   4.652   2.244
 1213TIP3   OH2 3581   3.795   6.895   2.201
 1213TIP3    H1 3582   3.809   6.806   2.168
 1213TIP3    H2 3583   3.710   6.892   2.245
 1214TIP3   OH2 3584   0.235   6.341   4.185
 1214TIP3    H1 3585   0.322   6.378   4.172
 1214TIP3    H2 3586   0.199   6.388   4.260
 1215TIP3   OH2 3587   4.084   3.796   0.422
 1215TIP3    H1 3588   4.048   3.884   0.428
 1215TIP3    H2 3589   4.007   3.739   0.413
 1216TIP3   OH2 3590   1.589   4.045   1.776
 1216TIP3    H1 3591   1.506   3.997   1.785
 1216TIP3    H2 3592   1.593   4.100   1.853
 1217TIP3   OH2 3593   0.175   4.040   3.734
 1217TIP3    H1 3594   0.083   4.020   3.750
 1217TIP3    H2 3595   0.209   3.962   3.690
 1218TIP3   OH2 3596   6.437   1.310   2.177
 1218TIP3    H1 3597   6.365   1.263   2.133
 1218TIP3    H2 3598   6.427   1.401   2.148
 1219TIP3   OH2 3599   7.930   1.412   0.341
 1219TIP3    H1 3600   7.857   1.409   0.402
 1219TIP3    H2 3601   7.971   1.326   0.347
 1220TIP3   OH2 3602   6.037   5.107   2.114
 1220TIP3    H1 3603   5.992   5.185   2.145
 1220TIP3    H2 3604   5.980   5.034   2.139
 1221TIP3   OH2 3605   7.244   6.868   5.763
 1221TIP3    H1 3606   7.251   6.941   5.824
 1221TIP3    H2 3607   7.152   6.870   5.733
 1222TIP3   OH2 3608   1.623   6.091   6.513
 1222TIP3    H1 3609   1.616   6.112   6.420
 1222TIP3    H2 3610   1.679   6.014   6.517
 1223TIP3   OH2 3611   0.852   3.915   4.457
 1223TIP3    H1 3612   0.870   3.822   4.450
 1223TIP3    H2 3613   0.896   3.954   4.381
 1224TIP3   OH2 3614   6.415   6.481   4.837
 1224TIP3    H1 3615   6.405   6.408   4.777
 1224TIP3    H2 3616   6.399   6.559   4.783
 1225TIP3   OH2 3617   3.216   2.051   1.733
 1225TIP3    H1 3618   3.251   2.117   1.792
 1225TIP3    H2 3619   3.277   1.978   1.739
 1226TIP3   OH2 3620   2.873   6.776   3.088
 1226TIP3    H1 3621   2.795   6.737   3.048
 1226TIP3    H2 3622   2.840   6.821   3.166
 1227TIP3   OH2 3623   7.743   7.325   2.582
 1227TIP3    H1 3624   7.782   7.363   2.660
 1227TIP3    H2 3625   7.766   7.386   2.512
 1228TIP3   OH2 3626   7.971   1.616   1.724
 1228TIP3    H1 3627   8.031   1.556   1.769
 1228TIP3    H2 3628   8.028   1.672   1.672
 1229TIP3   OH2 3629   5.968   3.113   4.943
 1229TIP3    H1 3630   5.919   3.033   4.923
 1229TIP3    H2 3631   5.906   3.184   4.924
 1230TIP3   OH2 3632   7.471   6.170   1.290
 1230TIP3    H1 3633   7.455   6.144   1.380
 1230TIP3    H2 3634   7.401   6.233   1.270
 1231TIP3   OH2 3635   6.737   3.875   1.398
 1231TIP3    H1 3636   6.817   3.914   1.363
 1231TIP3    H2 3637   6.767   3.803   1.453
 1232TIP3   OH2 3638   2.059   5.287   0.157
 1232TIP3    H1 3639   2.072   5.295   0.062
 1232TIP3    H2 3640   2.034   5.196   0.170
 1233TIP3   OH2 3641   0.555   2.814   3.229
 1233TIP3    H1 3642   0.527   2.766   3.306
 1233TIP3    H2 3643   0.627   2.762   3.193
 1234TIP3   OH2 3644   3.048   3.949   1.481
 1234TIP3    H1 3645   2.982   3.899   1.529
 1234TIP3    H2 3646   3.013   3.956   1.392
 1235TIP3   OH2 3647   6.343   4.490   0.773
 1235TIP3    H1 3648   6.288   4.548   0.825
 1235TIP3    H2 3649   6.412   4.547   0.738
 1236TIP3   OH2 3650   0.630   5.054   1.053
 1236TIP3    H1 3651   0.685   4.999   0.998
 1236TIP3    H2 3652   0.679   5.135   1.064
 1237TIP3   OH2 3653   0.787   1.658   5.784
 1237TIP3    H1 3654   0.797   1.638   5.877
 1237TIP3    H2 3655   0.704   1.705   5.779
 1238TIP3   OH2 3656   1.955   6.832   0.792
 1238TIP3    H1 3657   1.894   6.845   0.719
 1238TIP3    H2 3658   2.037   6.805   0.751
 1239TIP3   OH2 3659   7.996   3.057   4.378
 1239TIP3    H1 3660   8.054   3.087   4.448
 1239TIP3    H2 3661   7.962   3.137   4.339
 1240TIP3   OH2 3662   3.063   6.332   0.575
 1240TIP3    H1 3663   3.012   6.409   0.599
 1240TIP3    H2 3664   3.120   6.362   0.505
 1241TIP3   OH2 3665   1.093   6.435   1.411
 1241TIP3    H1 3666   1.106   6.342   1.392
 1241TIP3    H2 3667   1.180   6.468   1.433
 1242TIP3   OH2 3668   1.942   4.447   6.694
 1242TIP3    H1 3669   1.945   4.352   6.696
 1242TIP3    H2 3670   1.962   4.474   6.784
 1243TIP3   OH2 3671   3.105   2.657   0.477
 1243TIP3    H1 3672   3.156   2.737   0.467
 1243TIP3    H2 3673   3.139   2.616   0.557
 1244TIP3   OH2 3674   2.496   2.717   2.788
 1244TIP3    H1 3675   2.544   2.790   2.750
 1244TIP3    H2 3676   2.404   2.739   2.774
 1245TIP3   OH2 3677   3.796   5.939   4.994
 1245TIP3    H1 3678   3.830   6.023   4.963
 1245TIP3    H2 3679   3.752   5.901   4.918
 1246TIP3   OH2 3680   1.327   6.289   5.216
 1246TIP3    H1 3681   1.330   6.316   5.125
 1246TIP3    H2 3682   1.408   6.323   5.255
 1247TIP3   OH2 3683   4.169   7.369   5.827
 1247TIP3    H1 3684   4.084   7.409   5.847
 1247TIP3    H2 3685   4.165   7.351   5.733
 1248TIP3   OH2 3686   8.195   5.856   2.137
 1248TIP3    H1 3687   8.099   5.863   2.140
 1248TIP3    H2 3688   8.212   5.795   2.065
 1249TIP3   OH2 3689   7.994   6.386   0.604
 1249TIP3    H1 3690   8.007   6.298   0.568
 1249TIP3    H2 3691   7.967   6.439   0.529
 1250TIP3   OH2 3692   4.765   7.078   3.792
 1250TIP3    H1 3693   4.709   7.153   3.770
 1250TIP3    H2 3694   4.703   7.009   3.818
 1251TIP3   OH2 3695   7.344   3.727   1.219
 1251TIP3    H1 3696   7.438   3.722   1.232
 1251TIP3    H2 3697   7.308   3.737   1.308
 1252TIP3   OH2 3698   0.665   2.619   2.206
 1252TIP3    H1 3699   0.716   2.624   2.286
 1252TIP3    H2 3700   0.730   2.628   2.136
 1253TIP3   OH2 3701   6.462   6.160   5.921
 1253TIP3    H1 3702   6.448   6.075   5.881
 1253TIP3    H2 3703   6.396   6.217   5.882
 1254TIP3   OH2 3704   6.846   3.936   1.686
 1254TIP3    H1 3705   6.881   3.848   1.673
 1254TIP3    H2 3706   6.751   3.923   1.690
 1255TIP3   OH2 3707   4.173   5.081   5.146
 1255TIP3    H1 3708   4.107   5.076   5.215
 1255TIP3    H2 3709   4.201   5.172   5.145
 1256TIP3   OH2 3710   2.830   1.774   4.107
 1256TIP3    H1 3711   2.847   1.702   4.047
 1256TIP3    H2 3712   2.865   1.851   4.062
 1257TIP3   OH2 3713   4.402   3.794   2.414
 1257TIP3    H1 3714   4.410   3.735   2.489
 1257TIP3    H2 3715   4.340   3.861   2.443
 1258TIP3   OH2 3716   0.385   2.991   3.111
 1258TIP3    H1 3717   0.388   2.956   3.022
 1258TIP3    H2 3718   0.446   2.937   3.160
 1259TIP3   OH2 3719   2.635   5.197   6.765
 1259TIP3    H1 3720   2.586   5.185   6.684
 1259TIP3    H2 3721   2.698   5.125   6.767
 1260TIP3   OH2 3722   3.250   1.891   5.858
 1260TIP3    H1 3723   3.224   1.823   5.797
 1260TIP3    H2 3724   3.317   1.941   5.812
 1261TIP3   OH2 3725   5.611   0.719   0.778
 1261TIP3    H1 3726   5.653   0.703   0.693
 1261TIP3    H2 3727   5.518   0.703   0.763
 1262TIP3   OH2 3728   4.238   0.211   5.180
 1262TIP3    H1 3729   4.182   0.210   5.258
 1262TIP3    H2 3730   4.303   0.144   5.196
 1263TIP3   OH2 3731   5.668   0.675   0.516
 1263TIP3    H1 3732   5.710   0.760   0.506
 1263TIP3    H2 3733   5.602   0.672   0.447
 1264TIP3   OH2 3734   4.849   5.916   3.022
 1264TIP3    H1 3735   4.809   5.831   3.037
 1264TIP3    H2 3736   4.881   5.913   2.932
 1265TIP3   OH2 3737   7.651   1.206   3.448
 1265TIP3    H1 3738   7.597   1.152   3.505
 1265TIP3    H2 3739   7.707   1.144   3.401
 1266TIP3   OH2 3740   0.342   0.689   0.245
 1266TIP3    H1 3741   0.298   0.705   0.162
 1266TIP3    H2 3742   0.322   0.598   0.266
 1267TIP3   OH2 3743   5.528   3.018   5.836
 1267TIP3    H1 3744   5.622   3.003   5.835
 1267TIP3    H2 3745   5.510   3.051   5.925
 1268TIP3   OH2 3746   5.530   7.034   3.049
 1268TIP3    H1 3747   5.456   6.976   3.067
 1268TIP3    H2 3748   5.573   7.046   3.134
 1269TIP3   OH2 3749   0.245   4.263   5.025
 1269TIP3    H1 3750   0.186   4.332   5.055
 1269TIP3    H2 3751   0.265   4.212   5.104
 1270TIP3   OH2 3752   3.077   3.928   1.138
 1270TIP3    H1 3753   2.997   3.885   1.166
 1270TIP3    H2 3754   3.145   3.891   1.194
 1271TIP3   OH2 3755   8.138   6.760   4.085
 1271TIP3    H1 3756   8.147   6.810   4.166
 1271TIP3    H2 3757   8.140   6.669   4.113
 1272TIP3   OH2 3758   4.427   0.475   0.919
 1272TIP3    H1 3759   4.418   0.431   0.834
 1272TIP3    H2 3760   4.344   0.459   0.963
 1273TIP3   OH2 3761   0.393   3.252   6.436
 1273TIP3    H1 3762   0.347   3.172   6.461
 1273TIP3    H2 3763   0.435   3.281   6.517
 1274TIP3   OH2 3764   7.978   1.304   2.705
 1274TIP3    H1 3765   8.057   1.282   2.754
 1274TIP3    H2 3766   8.005   1.373   2.644
 1275TIP3   OH2 3767   7.979   0.087   5.287
 1275TIP3    H1 3768   7.958   0.154   5.221
 1275TIP3    H2 3769   7.974   0.133   5.371
 1276TIP3   OH2 3770   5.260   2.541   4.608
 1276TIP3    H1 3771   5.252   2.502   4.695
 1276TIP3    H2 3772   5.310   2.476   4.558
 1277TIP3   OH2 3773   6.914   3.610   5.258
 1277TIP3    H1 3774   6.960   3.535   5.221
 1277TIP3    H2 3775   6.954   3.623   5.344
 1278TIP3   OH2 3776   1.079   1.822   6.262
 1278TIP3    H1 3777   1.145   1.871   6.311
 1278TIP3    H2 3778   1.129   1.763   6.206
 1279TIP3   OH2 3779   0.170   1.712   3.597
 1279TIP3    H1 3780   0.192   1.728   3.689
 1279TIP3    H2 3781   0.122   1.789   3.569
 1280TIP3   OH2 3782   4.035   5.932   2.047
 1280TIP3    H1 3783   4.045   5.841   2.021
 1280TIP3    H2 3784   4.067   5.935   2.137
 1281TIP3   OH2 3785   0.930   6.082   4.512
 1281TIP3    H1 3786   0.865   6.017   4.485
 1281TIP3    H2 3787   0.894   6.119   4.592
 1282TIP3   OH2 3788   6.814   4.588   1.135
 1282TIP3    H1 3789   6.868   4.549   1.204
 1282TIP3    H2 3790   6.876   4.641   1.084
 1283TIP3   OH2 3791   8.200   5.280   3.237
 1283TIP3    H1 3792   8.179   5.188   3.252
 1283TIP3    H2 3793   8.252   5.306   3.313
 1284TIP3   OH2 3794   2.123   2.006   6.121
 1284TIP3    H1 3795   2.202   1.954   6.114
 1284TIP3    H2 3796   2.129   2.069   6.049
 1285TIP3   OH2 3797   6.367   2.915   3.116
 1285TIP3    H1 3798   6.302   2.846   3.098
 1285TIP3    H2 3799   6.450   2.869   3.121
 1286TIP3   OH2 3800   4.419   1.967   1.592
 1286TIP3    H1 3801   4.498   1.958   1.645
 1286TIP3    H2 3802   4.450   2.005   1.510
 1287TIP3   OH2 3803   5.433   6.854   0.138
 1287TIP3    H1 3804   5.455   6.947   0.147
 1287TIP3    H2 3805   5.395   6.847   0.050
 1288TIP3   OH2 3806   2.582   7.317   3.868
 1288TIP3    H1 3807   2.541   7.369   3.799
 1288TIP3    H2 3808   2.572   7.370   3.947
 1289TIP3   OH2 3809   3.887   3.385   1.043
 1289TIP3    H1 3810   3.798   3.362   1.068
 1289TIP3    H2 3811   3.935   3.391   1.125
 1290TIP3   OH2 3812   0.122   1.323   6.185
 1290TIP3    H1 3813   0.166   1.245   6.149
 1290TIP3    H2 3814   0.164   1.337   6.270
 1291TIP3   OH2 3815   7.264   5.126   6.526
 1291TIP3    H1 3816   7.213   5.130   6.445
 1291TIP3    H2 3817   7.219   5.059   6.579
 1292TIP3   OH2 3818   6.025   1.915   1.160
 1292TIP3    H1 3819   5.954   1.978   1.176
 1292TIP3    H2 3820   6.006   1.880   1.073
 1293TIP3   OH2 3821   8.308   0.790   1.773
 1293TIP3    H1 3822   8.225   0.801   1.819
 1293TIP3    H2 3823   8.297   0.709   1.723
 1294TIP3   OH2 3824   7.854   2.225   4.622
 1294TIP3    H1 3825   7.868   2.160   4.552
 1294TIP3    H2 3826   7.907   2.193   4.695
 1295TIP3   OH2 3827   1.951   4.687   1.729
 1295TIP3    H1 3828   2.027   4.660   1.678
 1295TIP3    H2 3829   1.969   4.655   1.817
 1296TIP3   OH2 3830   2.198   6.592   1.845
 1296TIP3    H1 3831   2.241   6.521   1.798
 1296TIP3    H2 3832   2.264   6.660   1.852
 1297TIP3   OH2 3833   1.750   5.538   3.723
 1297TIP3    H1 3834   1.693   5.491   3.662
 1297TIP3    H2 3835   1.771   5.619   3.678
 1298TIP3   OH2 3836   2.310   3.014   5.791
 1298TIP3    H1 3837   2.215   3.025   5.794
 1298TIP3    H2 3838   2.324   2.949   5.721
 1299TIP3   OH2 3839   4.086   2.504   4.548
 1299TIP3    H1 3840   4.043   2.589   4.561
 1299TIP3    H2 3841   4.164   2.508   4.604
 1300TIP3   OH2 3842   7.322   5.170   0.040
 1300TIP3    H1 3843   7.338   5.244   0.099
 1300TIP3    H2 3844   7.299   5.211  -0.044
 1301TIP3   OH2 3845   8.187   0.127   4.921
 1301TIP3    H1 3846   8.211   0.171   5.002
 1301TIP3    H2 3847   8.102   0.165   4.898
 1302TIP3   OH2 3848   1.307   5.334   0.185
 1302TIP3    H1 3849   1.221   5.295   0.201
 1302TIP3    H2 3850   1.319   5.326   0.091
 1303TIP3   OH2 3851   0.482   1.097   5.519
 1303TIP3    H1 3852   0.557   1.099   5.459
 1303TIP3    H2 3853   0.445   1.010   5.508
 1304TIP3   OH2 3854   5.893   7.631   1.947
 1304TIP3    H1 3855   5.915   7.679   1.868
 1304TIP3    H2 3856   5.867   7.698   2.010
 1305TIP3   OH2 3857   3.275   0.541   5.039
 1305TIP3    H1 3858   3.264   0.466   4.980
 1305TIP3    H2 3859   3.196   0.539   5.093
 1306TIP3   OH2 3860   2.749   4.484   4.913
 1306TIP3    H1 3861   2.824   4.539   4.935
 1306TIP3    H2 3862   2.676   4.546   4.905
 1307TIP3   OH2 3863   5.910   7.282   6.706
 1307TIP3    H1 3864   5.980   7.348   6.711
 1307TIP3    H2 3865   5.859   7.295   6.786
 1308TIP3   OH2 3866   5.319   0.084   3.434
 1308TIP3    H1 3867   5.231   0.096   3.401
 1308TIP3    H2 3868   5.374   0.135   3.375
 1309TIP3   OH2 3869   3.634   1.778   0.092
 1309TIP3    H1 3870   3.677   1.692   0.101
 1309TIP3    H2 3871   3.560   1.761   0.034
 1310TIP3   OH2 3872   7.986   1.720   4.768
 1310TIP3    H1 3873   7.905   1.731   4.718
 1310TIP3    H2 3874   7.984   1.791   4.833
 1311TIP3   OH2 3875   2.399   2.346   3.189
 1311TIP3    H1 3876   2.411   2.373   3.097
 1311TIP3    H2 3877   2.360   2.259   3.184
 1312TIP3   OH2 3878   4.199   4.390   4.768
 1312TIP3    H1 3879   4.186   4.451   4.841
 1312TIP3    H2 3880   4.290   4.361   4.777
 1313TIP3   OH2 3881   6.784   5.239   3.541
 1313TIP3    H1 3882   6.840   5.302   3.496
 1313TIP3    H2 3883   6.698   5.250   3.499
 1314TIP3   OH2 3884   1.101   6.929   0.473
 1314TIP3    H1 3885   1.105   6.963   0.562
 1314TIP3    H2 3886   1.029   6.866   0.474
 1315TIP3   OH2 3887   1.614   2.266   6.171
 1315TIP3    H1 3888   1.569   2.332   6.224
 1315TIP3    H2 3889   1.689   2.240   6.224
 1316TIP3   OH2 3890   0.524   4.813   5.415
 1316TIP3    H1 3891   0.545   4.721   5.398
 1316TIP3    H2 3892   0.546   4.826   5.507
 1317TIP3   OH2 3893   0.991   1.186   2.195
 1317TIP3    H1 3894   1.034   1.262   2.233
 1317TIP3    H2 3895   0.898   1.200   2.212
 1318TIP3   OH2 3896   6.907   5.491   3.994
 1318TIP3    H1 3897   6.855   5.571   4.003
 1318TIP3    H2 3898   6.868   5.445   3.920
 1319TIP3   OH2 3899   5.141   0.546   4.395
 1319TIP3    H1 3900   5.128   0.592   4.478
 1319TIP3    H2 3901   5.191   0.608   4.342
 1320TIP3   OH2 3902   4.300   7.467   5.125
 1320TIP3    H1 3903   4.212   7.445   5.095
 1320TIP3    H2 3904   4.286   7.513   5.208
 1321TIP3   OH2 3905   2.472   3.439   2.054
 1321TIP3    H1 3906   2.410   3.373   2.022
 1321TIP3    H2 3907   2.444   3.521   2.013
 1322TIP3   OH2 3908   8.259   3.622   2.032
 1322TIP3    H1 3909   8.352   3.647   2.029
 1322TIP3    H2 3910   8.226   3.663   2.111
 1323TIP3   OH2 3911   1.630   6.691   2.102
 1323TIP3    H1 3912   1.570   6.643   2.044
 1323TIP3    H2 3913   1.708   6.636   2.105
 1324TIP3   OH2 3914   5.574   3.684   0.493
 1324TIP3    H1 3915   5.623   3.672   0.574
 1324TIP3    H2 3916   5.638   3.673   0.423
 1325TIP3   OH2 3917   3.949   7.178   3.855
 1325TIP3    H1 3918   3.989   7.216   3.776
 1325TIP3    H2 3919   4.002   7.213   3.927
 1326TIP3   OH2 3920   0.682   6.189   2.180
 1326TIP3    H1 3921   0.630   6.109   2.178
 1326TIP3    H2 3922   0.630   6.254   2.133
 1327TIP3   OH2 3923   3.426   3.497   2.339
 1327TIP3    H1 3924   3.513   3.524   2.309
 1327TIP3    H2 3925   3.368   3.520   2.267
 1328TIP3   OH2 3926   4.635   4.631   6.532
 1328TIP3    H1 3927   4.660   4.684   6.607
 1328TIP3    H2 3928   4.627   4.693   6.460
 1329TIP3   OH2 3929   6.890   6.184   0.656
 1329TIP3    H1 3930   6.942   6.193   0.576
 1329TIP3    H2 3931   6.835   6.262   0.658
 1330TIP3   OH2 3932   3.153   3.022   1.004
 1330TIP3    H1 3933   3.220   3.021   0.935
 1330TIP3    H2 3934   3.071   3.005   0.958
 1331TIP3   OH2 3935   2.730   4.006   2.236
 1331TIP3    H1 3936   2.761   3.959   2.314
 1331TIP3    H2 3937   2.802   3.998   2.173
 1332TIP3   OH2 3938   2.705   7.247   5.575
 1332TIP3    H1 3939   2.665   7.219   5.493
 1332TIP3    H2 3940   2.794   7.212   5.572
 1333TIP3   OH2 3941   4.671   1.782   2.286
 1333TIP3    H1 3942   4.645   1.730   2.361
 1333TIP3    H2 3943   4.763   1.804   2.301
 1334TIP3   OH2 3944   5.556   7.561   0.239
 1334TIP3    H1 3945   5.537   7.652   0.217
 1334TIP3    H2 3946   5.645   7.546   0.207
 1335TIP3   OH2 3947   1.713   1.801   2.146
 1335TIP3    H1 3948   1.789   1.767   2.194
 1335TIP3    H2 3949   1.642   1.801   2.210
 1336TIP3   OH2 3950   8.121   4.155   2.015
 1336TIP3    H1 3951   8.143   4.199   2.097
 1336TIP3    H2 3952   8.052   4.093   2.039
 1337TIP3   OH2 3953   0.447   6.454   5.759
 1337TIP3    H1 3954   0.424   6.493   5.843
 1337TIP3    H2 3955   0.480   6.528   5.707
 1338TIP3   OH2 3956   2.508   0.743   4.902
 1338TIP3    H1 3957   2.466   0.814   4.853
 1338TIP3    H2 3958   2.436   0.689   4.933
 1339TIP3   OH2 3959   5.629   5.837   5.086
 1339TIP3    H1 3960   5.592   5.901   5.024
 1339TIP3    H2 3961   5.561   5.826   5.153
 1340TIP3   OH2 3962   4.499   5.793   4.706
 1340TIP3    H1 3963   4.459   5.880   4.715
 1340TIP3    H2 3964   4.438   5.734   4.748
 1341TIP3   OH2 3965   6.388   6.417   4.078
 1341TIP3    H1 3966   6.322   6.478   4.047
 1341TIP3    H2 3967   6.416   6.370   3.999
 1342TIP3   OH2 3968   6.444   4.460   5.978
 1342TIP3    H1 3969   6.361   4.476   6.023
 1342TIP3    H2 3970   6.443   4.522   5.905
 1343TIP3   OH2 3971   0.034   7.387   6.620
 1343TIP3    H1 3972   0.082   7.307   6.642
 1343TIP3    H2 3973  -0.048   7.357   6.581
 1344TIP3   OH2 3974   7.688   0.187   3.377
 1344TIP3    H1 3975   7.677   0.117   3.313
 1344TIP3    H2 3976   7.734   0.256   3.330
 1345TIP3   OH2 3977   5.056   0.740   6.213
 1345TIP3    H1 3978   5.135   0.720   6.163
 1345TIP3    H2 3979   5.010   0.805   6.160
 1346TIP3   OH2 3980   2.814   3.797   1.629
 1346TIP3    H1 3981   2.801   3.812   1.723
 1346TIP3    H2 3982   2.773   3.712   1.613
 1347TIP3   OH2 3983   5.558   1.616   1.218
 1347TIP3    H1 3984   5.639   1.571   1.242
 1347TIP3    H2 3985   5.581   1.666   1.140
 1348TIP3   OH2 3986   1.434   5.650   2.463
 1348TIP3    H1 3987   1.493   5.670   2.535
 1348TIP3    H2 3988   1.389   5.732   2.444
 1349TIP3   OH2 3989   0.219   7.775   4.864
 1349TIP3    H1 3990   0.275   7.770   4.942
 1349TIP3    H2 3991   0.145   7.829   4.891
 1350TIP3   OH2 3992   3.914   4.425   6.265
 1350TIP3    H1 3993   3.878   4.469   6.342
 1350TIP3    H2 3994   4.008   4.424   6.280
 1351TIP3   OH2 3995   7.638   0.434   5.735
 1351TIP3    H1 3996   7.578   0.361   5.748
 1351TIP3    H2 3997   7.635   0.483   5.817
 1352TIP3   OH2 3998   3.358   6.442   5.469
 1352TIP3    H1 3999   3.331   6.408   5.383
 1352TIP3    H2 4000   3.283   6.428   5.526
 1353TIP3   OH2 4001   7.466   6.729   0.383
 1353TIP3    H1 4002   7.555   6.695   0.387
 1353TIP3    H2 4003   7.468   6.810   0.434
 1354TIP3   OH2 4004   0.792   6.964   3.025
 1354TIP3    H1 4005   0.751   7.043   3.060
 1354TIP3    H2 4006   0.867   6.996   2.974
 1355TIP3   OH2 4007   5.957   4.421   5.896
 1355TIP3    H1 4008   5.967   4.435   5.802
 1355TIP3    H2 4009   5.863   4.407   5.908
 1356TIP3   OH2 4010   0.675   6.336   0.814
 1356TIP3    H1 4011   0.634   6.306   0.895
 1356TIP3    H2 4012   0.712   6.422   0.837
 1357TIP3   OH2 4013   1.034   6.633   1.585
 1357TIP3    H1 4014   1.053   6.571   1.514
 1357TIP3    H2 4015   1.092   6.707   1.567
 1358TIP3   OH2 4016   0.660   6.556   1.461
 1358TIP3    H1 4017   0.566   6.572   1.454
 1358TIP3    H2 4018   0.700   6.616   1.399
 1359TIP3   OH2 4019  -0.007   5.756   6.116
 1359TIP3    H1 4020  -0.018   5.721   6.028
 1359TIP3    H2 4021   0.073   5.715   6.148
 1360TIP3   OH2 4022   2.123   3.388   2.034
 1360TIP3    H1 4023   2.084   3.463   2.078
 1360TIP3    H2 4024   2.110   3.405   1.941
 1361TIP3   OH2 4025   5.085   4.783   0.389
 1361TIP3    H1 4026   5.019   4.841   0.426
 1361TIP3    H2 4027   5.102   4.818   0.302
 1362TIP3   OH2 4028   0.111   6.091   4.135
 1362TIP3    H1 4029   0.166   6.165   4.162
 1362TIP3    H2 4030   0.161   6.048   4.066
 1363TIP3   OH2 4031   3.037   3.735   5.854
 1363TIP3    H1 4032   2.962   3.779   5.814
 1363TIP3    H2 4033   3.106   3.739   5.788
 1364TIP3   OH2 4034   8.129   4.120   4.545
 1364TIP3    H1 4035   8.060   4.148   4.604
 1364TIP3    H2 4036   8.191   4.074   4.601
 1365TIP3   OH2 4037   8.085   2.828   4.105
 1365TIP3    H1 4038   7.998   2.849   4.140
 1365TIP3    H2 4039   8.136   2.801   4.182
 1366TIP3   OH2 4040   4.737   6.584   4.621
 1366TIP3    H1 4041   4.799   6.626   4.561
 1366TIP3    H2 4042   4.662   6.561   4.566
 1367TIP3   OH2 4043   4.104   0.610   6.529
 1367TIP3    H1 4044   4.184   0.569   6.559
 1367TIP3    H2 4045   4.098   0.691   6.579
 1368TIP3   OH2 4046   1.820   5.373   6.778
 1368TIP3    H1 4047   1.785   5.424   6.705
 1368TIP3    H2 4048   1.757   5.302   6.790
 1369TIP3   OH2 4049   7.871   0.879   5.854
 1369TIP3    H1 4050   7.811   0.868   5.781
 1369TIP3    H2 4051   7.954   0.904   5.813
 1370TIP3   OH2 4052   3.187   3.328   3.708
 1370TIP3    H1 4053   3.108   3.282   3.737
 1370TIP3    H2 4054   3.196   3.305   3.616
 1371TIP3   OH2 4055   6.378   7.568   6.348
 1371TIP3    H1 4056   6.379   7.645   6.291
 1371TIP3    H2 4057   6.403   7.601   6.434
 1372TIP3   OH2 4058   2.705   1.219   6.763
 1372TIP3    H1 4059   2.729   1.209   6.670
 1372TIP3    H2 4060   2.770   1.167   6.810
 1373TIP3   OH2 4061   2.800   5.761   0.084
 1373TIP3    H1 4062   2.801   5.708   0.164
 1373TIP3    H2 4063   2.738   5.717   0.027
 1374TIP3   OH2 4064   5.092   5.738   1.229
 1374TIP3    H1 4065   5.014   5.687   1.249
 1374TIP3    H2 4066   5.080   5.767   1.138
 1375TIP3   OH2 4067   0.392   0.978   3.465
 1375TIP3    H1 4068   0.361   1.008   3.380
 1375TIP3    H2 4069   0.318   0.993   3.524
 1376TIP3   OH2 4070   3.325   5.111   3.441
 1376TIP3    H1 4071   3.400   5.142   3.390
 1376TIP3    H2 4072   3.248   5.147   3.396
 1377TIP3   OH2 4073   5.818   4.956   4.556
 1377TIP3    H1 4074   5.908   4.985   4.572
 1377TIP3    H2 4075   5.795   4.995   4.472
 1378TIP3   OH2 4076   6.290   6.821   4.406
 1378TIP3    H1 4077   6.240   6.889   4.361
 1378TIP3    H2 4078   6.357   6.868   4.455
 1379TIP3   OH2 4079   1.264   1.489   2.123
 1379TIP3    H1 4080   1.244   1.425   2.192
 1379TIP3    H2 4081   1.257   1.439   2.041
 1380TIP3   OH2 4082   1.685   1.136   6.523
 1380TIP3    H1 4083   1.690   1.220   6.569
 1380TIP3    H2 4084   1.606   1.095   6.558
 1381TIP3   OH2 4085   4.801   0.151   3.698
 1381TIP3    H1 4086   4.826   0.060   3.713
 1381TIP3    H2 4087   4.873   0.202   3.737
 1382TIP3   OH2 4088   1.481   5.059   0.502
 1382TIP3    H1 4089   1.422   5.045   0.576
 1382TIP3    H2 4090   1.484   5.154   0.492
 1383TIP3   OH2 4091   5.337   0.379   0.410
 1383TIP3    H1 4092   5.317   0.467   0.442
 1383TIP3    H2 4093   5.257   0.329   0.425
 1384TIP3   OH2 4094   2.346   1.860   6.104
 1384TIP3    H1 4095   2.405   1.784   6.114
 1384TIP3    H2 4096   2.384   1.927   6.161
 1385TIP3   OH2 4097   3.213   5.665   2.840
 1385TIP3    H1 4098   3.291   5.717   2.825
 1385TIP3    H2 4099   3.233   5.579   2.803
 1386TIP3   OH2 4100   0.171   0.679   0.722
 1386TIP3    H1 4101   0.158   0.729   0.803
 1386TIP3    H2 4102   0.217   0.739   0.663
 1387TIP3   OH2 4103   0.949   5.256   2.808
 1387TIP3    H1 4104   0.893   5.180   2.826
 1387TIP3    H2 4105   0.944   5.268   2.713
 1388TIP3   OH2 4106   7.851   0.541   2.068
 1388TIP3    H1 4107   7.881   0.523   2.158
 1388TIP3    H2 4108   7.918   0.503   2.012
 1389TIP3   OH2 4109   5.482   6.439   3.253
 1389TIP3    H1 4110   5.520   6.447   3.166
 1389TIP3    H2 4111   5.422   6.513   3.261
 1390TIP3   OH2 4112   1.092   4.976   4.700
 1390TIP3    H1 4113   1.102   5.021   4.616
 1390TIP3    H2 4114   1.147   5.026   4.760
 1391TIP3   OH2 4115   7.629   0.654   2.671
 1391TIP3    H1 4116   7.541   0.670   2.705
 1391TIP3    H2 4117   7.616   0.603   2.592
 1392TIP3   OH2 4118   2.593   0.937   3.904
 1392TIP3    H1 4119   2.624   0.957   3.992
 1392TIP3    H2 4120   2.670   0.905   3.858
 1393TIP3   OH2 4121   1.090   6.038   2.821
 1393TIP3    H1 4122   1.159   6.033   2.756
 1393TIP3    H2 4123   1.135   6.030   2.905
 1394TIP3   OH2 4124   6.180   3.663   6.281
 1394TIP3    H1 4125   6.198   3.590   6.340
 1394TIP3    H2 4126   6.086   3.681   6.292
 1395TIP3   OH2 4127   2.053   7.517   6.074
 1395TIP3    H1 4128   1.965   7.515   6.036
 1395TIP3    H2 4129   2.099   7.445   6.031
 1396TIP3   OH2 4130   2.145   4.747   3.239
 1396TIP3    H1 4131   2.055   4.753   3.271
 1396TIP3    H2 4132   2.176   4.837   3.236
 1397TIP3   OH2 4133   5.600   3.394   0.256
 1397TIP3    H1 4134   5.505   3.388   0.244
 1397TIP3    H2 4135   5.630   3.304   0.262
 1398TIP3   OH2 4136   2.820   2.823   1.882
 1398TIP3    H1 4137   2.883   2.851   1.815
 1398TIP3    H2 4138   2.863   2.845   1.965
 1399TIP3   OH2 4139   1.638   6.210   2.272
 1399TIP3    H1 4140   1.706   6.198   2.206
 1399TIP3    H2 4141   1.657   6.142   2.337
 1400TIP3   OH2 4142   1.539   2.735   6.229
 1400TIP3    H1 4143   1.520   2.653   6.275
 1400TIP3    H2 4144   1.494   2.802   6.281
 1401TIP3   OH2 4145   2.668   4.769   0.181
 1401TIP3    H1 4146   2.620   4.795   0.103
 1401TIP3    H2 4147   2.715   4.689   0.155
 1402TIP3   OH2 4148   4.086   3.216   1.929
 1402TIP3    H1 4149   3.995   3.245   1.932
 1402TIP3    H2 4150   4.084   3.133   1.881
 1403TIP3   OH2 4151   7.274   0.810   1.387
 1403TIP3    H1 4152   7.322   0.851   1.315
 1403TIP3    H2 4153   7.312   0.723   1.394
 1404TIP3   OH2 4154   4.769   2.251   1.224
 1404TIP3    H1 4155   4.744   2.319   1.286
 1404TIP3    H2 4156   4.704   2.182   1.237
 1405TIP3   OH2 4157   3.230   2.969   2.639
 1405TIP3    H1 4158   3.182   2.895   2.602
 1405TIP3    H2 4159   3.188   3.047   2.602
 1406TIP3   OH2 4160   1.757   2.388   0.097
 1406TIP3    H1 4161   1.665   2.366   0.115
 1406TIP3    H2 4162   1.763   2.388   0.001
 1407TIP3   OH2 4163   0.497   5.183   1.318
 1407TIP3    H1 4164   0.523   5.147   1.233
 1407TIP3    H2 4165   0.402   5.189   1.313
 1408TIP3   OH2 4166   4.422   7.456   2.552
 1408TIP3    H1 4167   4.390   7.543   2.529
 1408TIP3    H2 4168   4.496   7.440   2.494
 1409TIP3   OH2 4169   4.664   7.728   6.438
 1409TIP3    H1 4170   4.741   7.759   6.487
 1409TIP3    H2 4171   4.631   7.654   6.490
 1410TIP3   OH2 4172   5.923   3.355   6.648
 1410TIP3    H1 4173   5.953   3.406   6.723
 1410TIP3    H2 4174   5.838   3.393   6.626
 1411TIP3   OH2 4175   5.729   3.841   1.420
 1411TIP3    H1 4176   5.740   3.882   1.506
 1411TIP3    H2 4177   5.787   3.765   1.422
 1412TIP3   OH2 4178   0.576   0.446   0.425
 1412TIP3    H1 4179   0.590   0.525   0.373
 1412TIP3    H2 4180   0.486   0.455   0.458
 1413TIP3   OH2 4181   2.704   1.124   5.985
 1413TIP3    H1 4182   2.609   1.118   5.994
 1413TIP3    H2 4183   2.736   1.039   6.016
 1414TIP3   OH2 4184   0.467   1.184   5.900
 1414TIP3    H1 4185   0.548   1.210   5.943
 1414TIP3    H2 4186   0.445   1.257   5.842
 1415TIP3   OH2 4187   2.138   3.813   5.725
 1415TIP3    H1 4188   2.192   3.736   5.706
 1415TIP3    H2 4189   2.108   3.842   5.639
 1416TIP3   OH2 4190   2.434   2.040   6.279
 1416TIP3    H1 4191   2.397   2.015   6.364
 1416TIP3    H2 4192   2.528   2.043   6.294
 1417TIP3   OH2 4193   4.877   2.766   0.981
 1417TIP3    H1 4194   4.935   2.691   0.993
 1417TIP3    H2 4195   4.897   2.824   1.054
 1418TIP3   OH2 4196   4.274   4.305   1.152
 1418TIP3    H1 4197   4.338   4.363   1.111
 1418TIP3    H2 4198   4.295   4.218   1.119
 1419TIP3   OH2 4199   6.294   3.319   3.032
 1419TIP3    H1 4200   6.333   3.235   3.009
 1419TIP3    H2 4201   6.362   3.384   3.014
 1420TIP3   OH2 4202   7.325   3.397   2.437
 1420TIP3    H1 4203   7.312   3.384   2.343
 1420TIP3    H2 4204   7.356   3.312   2.468
 1421TIP3   OH2 4205   6.465   6.912   4.961
 1421TIP3    H1 4206   6.540   6.857   4.939
 1421TIP3    H2 4207   6.404   6.853   5.006
 1422TIP3   OH2 4208   4.502   6.197   0.559
 1422TIP3    H1 4209   4.570   6.130   0.563
 1422TIP3    H2 4210   4.421   6.150   0.578
 1423TIP3   OH2 4211   4.449   3.195   0.896
 1423TIP3    H1 4212   4.537   3.185   0.933
 1423TIP3    H2 4213   4.394   3.136   0.947
 1424TIP3   OH2 4214   0.409   6.288   3.824
 1424TIP3    H1 4215   0.469   6.351   3.785
 1424TIP3    H2 4216   0.453   6.259   3.904
 1425TIP3   OH2 4217   6.412   7.053   1.731
 1425TIP3    H1 4218   6.402   7.018   1.820
 1425TIP3    H2 4219   6.448   7.141   1.744
 1426TIP3   OH2 4220   0.290   6.371   1.054
 1426TIP3    H1 4221   0.243   6.307   1.108
 1426TIP3    H2 4222   0.381   6.339   1.053
 1427TIP3   OH2 4223   5.432   7.405   2.678
 1427TIP3    H1 4224   5.423   7.357   2.761
 1427TIP3    H2 4225   5.513   7.373   2.640
 1428TIP3   OH2 4226   2.122   3.227   0.596
 1428TIP3    H1 4227   2.086   3.209   0.683
 1428TIP3    H2 4228   2.194   3.166   0.586
 1429TIP3   OH2 4229   0.115   6.699   6.192
 1429TIP3    H1 4230   0.158   6.783   6.178
 1429TIP3    H2 4231   0.095   6.697   6.285
 1430TIP3   OH2 4232   2.230   3.090   1.790
 1430TIP3    H1 4233   2.310   3.121   1.834
 1430TIP3    H2 4234   2.194   3.025   1.850
 1431TIP3   OH2 4235   2.654   1.540   2.404
 1431TIP3    H1 4236   2.616   1.540   2.316
 1431TIP3    H2 4237   2.594   1.592   2.457
 1432TIP3   OH2 4238   5.466   7.586   2.312
 1432TIP3    H1 4239   5.418   7.541   2.381
 1432TIP3    H2 4240   5.425   7.672   2.307
 1433TIP3   OH2 4241   1.493   1.748   3.709
 1433TIP3    H1 4242   1.510   1.792   3.792
 1433TIP3    H2 4243   1.410   1.702   3.723
 1434TIP3   OH2 4244   4.663   6.376   3.123
 1434TIP3    H1 4245   4.701   6.460   3.096
 1434TIP3    H2 4246   4.584   6.400   3.173
 1435TIP3   OH2 4247   6.607   7.246   1.785
 1435TIP3    H1 4248   6.685   7.260   1.837
 1435TIP3    H2 4249   6.639   7.208   1.703
 1436TIP3   OH2 4250   7.138   4.986   3.548
 1436TIP3    H1 4251   7.051   5.009   3.579
 1436TIP3    H2 4252   7.145   5.028   3.462
 1437TIP3   OH2 4253   6.177   4.309   3.390
 1437TIP3    H1 4254   6.195   4.381   3.451
 1437TIP3    H2 4255   6.094   4.272   3.421
 1438TIP3   OH2 4256   6.578   0.771   3.828
 1438TIP3    H1 4257   6.501   0.773   3.884
 1438TIP3    H2 4258   6.651   0.755   3.888
 1439TIP3   OH2 4259   4.790   1.144   3.839
 1439TIP3    H1 4260   4.810   1.089   3.915
 1439TIP3    H2 4261   4.872   1.190   3.821
 1440TIP3   OH2 4262   5.278   1.789   0.687
 1440TIP3    H1 4263   5.284   1.813   0.779
 1440TIP3    H2 4264   5.366   1.762   0.663
 1441TIP3   OH2 4265   5.086   0.678   1.561
 1441TIP3    H1 4266   5.142   0.611   1.601
 1441TIP3    H2 4267   5.097   0.755   1.617
 1442TIP3   OH2 4268   5.445   3.898   3.136
 1442TIP3    H1 4269   5.479   3.987   3.146
 1442TIP3    H2 4270   5.351   3.907   3.152
 1443TIP3   OH2 4271   3.879   4.611   0.995
 1443TIP3    H1 4272   3.859   4.667   1.071
 1443TIP3    H2 4273   3.965   4.639   0.966
 1444TIP3   OH2 4274   1.857   2.558   0.562
 1444TIP3    H1 4275   1.841   2.549   0.656
 1444TIP3    H2 4276   1.928   2.497   0.543
 1445TIP3   OH2 4277   0.491   2.409   2.256
 1445TIP3    H1 4278   0.479   2.504   2.246
 1445TIP3    H2 4279   0.524   2.380   2.171
 1446TIP3   OH2 4280   4.378   6.589   3.859
 1446TIP3    H1 4281   4.343   6.500   3.862
 1446TIP3    H2 4282   4.305   6.642   3.827
 1447TIP3   OH2 4283   4.957   6.442   1.142
 1447TIP3    H1 4284   4.976   6.473   1.054
 1447TIP3    H2 4285   5.017   6.491   1.198
 1448TIP3   OH2 4286   1.610   0.782   5.192
 1448TIP3    H1 4287   1.599   0.693   5.159
 1448TIP3    H2 4288   1.704   0.791   5.207
 1449TIP3   OH2 4289   1.356   4.097   0.673
 1449TIP3    H1 4290   1.298   4.171   0.693
 1449TIP3    H2 4291   1.316   4.022   0.717
 1450TIP3   OH2 4292   4.950   1.735   6.432
 1450TIP3    H1 4293   5.020   1.739   6.497
 1450TIP3    H2 4294   4.967   1.654   6.384
 1451TIP3   OH2 4295   2.474   6.807   5.761
 1451TIP3    H1 4296   2.482   6.894   5.722
 1451TIP3    H2 4297   2.564   6.783   5.784
 1452TIP3   OH2 4298   1.943   3.213   5.303
 1452TIP3    H1 4299   1.951   3.223   5.397
 1452TIP3    H2 4300   2.030   3.233   5.269
 1453TIP3   OH2 4301   0.532   7.228   4.141
 1453TIP3    H1 4302   0.604   7.171   4.115
 1453TIP3    H2 4303   0.500   7.190   4.223
 1454TIP3   OH2 4304   6.934   4.570   6.670
 1454TIP3    H1 4305   7.026   4.578   6.645
 1454TIP3    H2 4306   6.937   4.557   6.765
 1455TIP3   OH2 4307   5.656   1.228   4.633
 1455TIP3    H1 4308   5.627   1.266   4.550
 1455TIP3    H2 4309   5.740   1.270   4.650
 1456TIP3   OH2 4310   0.166   2.356   4.357
 1456TIP3    H1 4311   0.096   2.377   4.418
 1456TIP3    H2 4312   0.215   2.437   4.346
 1457TIP3   OH2 4313   8.159   0.818   2.897
 1457TIP3    H1 4314   8.110   0.835   2.816
 1457TIP3    H2 4315   8.229   0.883   2.898
 1458TIP3   OH2 4316   3.016   5.419   0.226
 1458TIP3    H1 4317   2.954   5.481   0.265
 1458TIP3    H2 4318   2.988   5.333   0.257
 1459TIP3   OH2 4319   0.545   1.748   3.457
 1459TIP3    H1 4320   0.559   1.703   3.540
 1459TIP3    H2 4321   0.465   1.710   3.422
 1460TIP3   OH2 4322   5.712   0.206   3.089
 1460TIP3    H1 4323   5.742   0.282   3.139
 1460TIP3    H2 4324   5.679   0.146   3.154
 1461TIP3   OH2 4325   1.651   6.743   6.245
 1461TIP3    H1 4326   1.592   6.817   6.264
 1461TIP3    H2 4327   1.730   6.763   6.295
 1462TIP3   OH2 4328   7.922   0.169   1.670
 1462TIP3    H1 4329   7.892   0.205   1.753
 1462TIP3    H2 4330   7.924   0.075   1.684
 1463TIP3   OH2 4331   2.776   0.281   1.017
 1463TIP3    H1 4332   2.720   0.306   0.943
 1463TIP3    H2 4333   2.763   0.186   1.025
 1464TIP3   OH2 4334   5.467   7.392   3.621
 1464TIP3    H1 4335   5.390   7.443   3.597
 1464TIP3    H2 4336   5.439   7.301   3.609
 1465TIP3   OH2 4337   2.595   6.724   1.599
 1465TIP3    H1 4338   2.686   6.695   1.586
 1465TIP3    H2 4339   2.585   6.800   1.542
 1466TIP3   OH2 4340   0.944   4.297   3.042
 1466TIP3    H1 4341   0.926   4.268   2.952
 1466TIP3    H2 4342   0.898   4.233   3.097
 1467TIP3   OH2 4343   5.873   2.415   4.939
 1467TIP3    H1 4344   5.917   2.475   4.878
 1467TIP3    H2 4345   5.939   2.397   5.006
 1468TIP3   OH2 4346   4.085   7.318   4.046
 1468TIP3    H1 4347   4.101   7.375   3.971
 1468TIP3    H2 4348   4.124   7.363   4.121
 1469TIP3   OH2 4349   5.898   6.519   1.154
 1469TIP3    H1 4350   5.979   6.571   1.154
 1469TIP3    H2 4351   5.928   6.428   1.160
 1470TIP3   OH2 4352   5.412   5.380   1.408
 1470TIP3    H1 4353   5.416   5.476   1.410
 1470TIP3    H2 4354   5.323   5.360   1.437
 1471TIP3   OH2 4355   5.825   2.150   6.693
 1471TIP3    H1 4356   5.745   2.201   6.684
 1471TIP3    H2 4357   5.872   2.163   6.610
 1472TIP3   OH2 4358   7.649   5.758   2.002
 1472TIP3    H1 4359   7.628   5.710   2.082
 1472TIP3    H2 4360   7.711   5.701   1.955
 1473TIP3   OH2 4361   0.308   2.925   4.142
 1473TIP3    H1 4362   0.391   2.971   4.135
 1473TIP3    H2 4363   0.283   2.906   4.051
 1474TIP3   OH2 4364   4.342   2.206   2.560
 1474TIP3    H1 4365   4.321   2.144   2.629
 1474TIP3    H2 4366   4.367   2.286   2.607
 1475TIP3   OH2 4367   1.177   1.353   3.343
 1475TIP3    H1 4368   1.096   1.333   3.389
 1475TIP3    H2 4369   1.157   1.432   3.292
 1476TIP3   OH2 4370   7.136   4.651   5.834
 1476TIP3    H1 4371   7.205   4.682   5.775
 1476TIP3    H2 4372   7.182   4.599   5.900
 1477TIP3   OH2 4373   6.261   7.573   0.095
 1477TIP3    H1 4374   6.305   7.640   0.042
 1477TIP3    H2 4375   6.210   7.522   0.032
 1478TIP3   OH2 4376   2.591   5.561   6.455
 1478TIP3    H1 4377   2.530   5.487   6.458
 1478TIP3    H2 4378   2.599   5.583   6.363
 1479TIP3   OH2 4379   2.081   2.257   0.868
 1479TIP3    H1 4380   2.109   2.344   0.838
 1479TIP3    H2 4381   1.985   2.259   0.860
 1480TIP3   OH2 4382   2.074   4.686   4.024
 1480TIP3    H1 4383   1.997   4.645   4.063
 1480TIP3    H2 4384   2.058   4.780   4.030
 1481TIP3   OH2 4385   4.538   3.499   2.031
 1481TIP3    H1 4386   4.512   3.590   2.045
 1481TIP3    H2 4387   4.542   3.462   2.119
 1482TIP3   OH2 4388   3.652   6.140   5.112
 1482TIP3    H1 4389   3.734   6.137   5.063
 1482TIP3    H2 4390   3.610   6.056   5.095
 1483TIP3   OH2 4391   1.980   5.985   0.339
 1483TIP3    H1 4392   2.037   5.959   0.411
 1483TIP3    H2 4393   1.912   6.039   0.380
 1484TIP3   OH2 4394   3.006   7.582   4.264
 1484TIP3    H1 4395   2.974   7.604   4.352
 1484TIP3    H2 4396   3.035   7.491   4.272
 1485TIP3   OH2 4397   4.433   1.723   5.597
 1485TIP3    H1 4398   4.418   1.631   5.578
 1485TIP3    H2 4399   4.472   1.759   5.518
 1486TIP3   OH2 4400   0.447   4.195   1.782
 1486TIP3    H1 4401   0.528   4.212   1.829
 1486TIP3    H2 4402   0.427   4.278   1.737
 1487TIP3   OH2 4403   4.467   1.600   2.188
 1487TIP3    H1 4404   4.436   1.654   2.115
 1487TIP3    H2 4405   4.532   1.654   2.233
 1488TIP3   OH2 4406   7.411   1.259   6.608
 1488TIP3    H1 4407   7.321   1.267   6.640
 1488TIP3    H2 4408   7.433   1.167   6.622
 1489TIP3   OH2 4409   2.925   2.226   6.394
 1489TIP3    H1 4410   2.997   2.268   6.440
 1489TIP3    H2 4411   2.921   2.272   6.310
 1490TIP3   OH2 4412   3.914   5.975   5.922
 1490TIP3    H1 4413   3.860   6.023   5.984
 1490TIP3    H2 4414   4.004   5.997   5.947
 1491TIP3   OH2 4415   3.709   0.876   1.053
 1491TIP3    H1 4416   3.684   0.869   1.145
 1491TIP3    H2 4417   3.743   0.966   1.044
 1492TIP3   OH2 4418   5.038   3.872   5.186
 1492TIP3    H1 4419   5.108   3.836   5.131
 1492TIP3    H2 4420   5.074   3.954   5.220
 1493TIP3   OH2 4421   0.225   7.141   4.727
 1493TIP3    H1 4422   0.133   7.117   4.731
 1493TIP3    H2 4423   0.251   7.151   4.818
 1494TIP3   OH2 4424   6.843   2.354   1.964
 1494TIP3    H1 4425   6.773   2.416   1.982
 1494TIP3    H2 4426   6.804   2.268   1.980
 1495TIP3   OH2 4427   8.079   3.616   3.866
 1495TIP3    H1 4428   8.165   3.609   3.907
 1495TIP3    H2 4429   8.025   3.661   3.931
 1496TIP3   OH2 4430   6.056   3.175   1.450
 1496TIP3    H1 4431   5.968   3.211   1.437
 1496TIP3    H2 4432   6.109   3.219   1.385
 1497TIP3   OH2 4433   4.408   7.233   3.363
 1497TIP3    H1 4434   4.496   7.257   3.334
 1497TIP3    H2 4435   4.412   7.138   3.376
 1498TIP3   OH2 4436   5.291   5.095   1.020
 1498TIP3    H1 4437   5.357   5.117   1.087
 1498TIP3    H2 4438   5.318   5.009   0.987
 1499TIP3   OH2 4439   4.109   4.037   4.955
 1499TIP3    H1 4440   4.055   4.094   5.010
 1499TIP3    H2 4441   4.055   4.020   4.878
 1500TIP3   OH2 4442   5.379   2.727   0.873
 1500TIP3    H1 4443   5.313   2.657   0.877
 1500TIP3    H2 4444   5.453   2.692   0.922
 1501TIP3   OH2 4445   7.072   7.574   5.408
 1501TIP3    H1 4446   7.112   7.611   5.330
 1501TIP3    H2 4447   7.114   7.489   5.418
 1502TIP3   OH2 4448   4.646   5.403   3.144
 1502TIP3    H1 4449   4.656   5.309   3.156
 1502TIP3    H2 4450   4.590   5.411   3.066
 1503TIP3   OH2 4451   1.290   6.747   0.665
 1503TIP3    H1 4452   1.211   6.696   0.651
 1503TIP3    H2 4453   1.284   6.777   0.756
 1504TIP3   OH2 4454   4.912   0.496   0.462
 1504TIP3    H1 4455   4.973   0.436   0.505
 1504TIP3    H2 4456   4.890   0.452   0.380
 1505TIP3   OH2 4457   5.463   4.355   6.674
 1505TIP3    H1 4458   5.430   4.438   6.706
 1505TIP3    H2 4459   5.388   4.315   6.629
 1506TIP3   OH2 4460   2.936   2.755   4.773
 1506TIP3    H1 4461   2.847   2.721   4.781
 1506TIP3    H2 4462   2.944   2.818   4.844
 1507TIP3   OH2 4463   1.461   3.933   0.083
 1507TIP3    H1 4464   1.398   3.950   0.153
 1507TIP3    H2 4465   1.434   3.848   0.047
 1508TIP3   OH2 4466   2.906   3.871   6.227
 1508TIP3    H1 4467   2.961   3.793   6.230
 1508TIP3    H2 4468   2.821   3.842   6.258
 1509TIP3   OH2 4469   1.798   5.465   0.920
 1509TIP3    H1 4470   1.871   5.521   0.947
 1509TIP3    H2 4471   1.795   5.396   0.985
 1510TIP3   OH2 4472   8.152   2.389   3.527
 1510TIP3    H1 4473   8.174   2.424   3.614
 1510TIP3    H2 4474   8.192   2.450   3.466
 1511TIP3   OH2 4475   6.268   7.129   4.693
 1511TIP3    H1 4476   6.341   7.107   4.750
 1511TIP3    H2 4477   6.235   7.212   4.727
 1512TIP3   OH2 4478   7.815   3.649   1.188
 1512TIP3    H1 4479   7.850   3.562   1.173
 1512TIP3    H2 4480   7.850   3.702   1.116
 1513TIP3   OH2 4481   7.938   5.306   2.859
 1513TIP3    H1 4482   7.986   5.332   2.780
 1513TIP3    H2 4483   8.007   5.284   2.922
 1514TIP3   OH2 4484   0.783   6.898   3.303
 1514TIP3    H1 4485   0.795   6.926   3.212
 1514TIP3    H2 4486   0.777   6.802   3.298
 1515TIP3   OH2 4487   3.478   3.740   5.518
 1515TIP3    H1 4488   3.493   3.646   5.518
 1515TIP3    H2 4489   3.473   3.764   5.426
 1516TIP3   OH2 4490   2.206   7.830   5.677
 1516TIP3    H1 4491   2.137   7.838   5.743
 1516TIP3    H2 4492   2.205   7.737   5.653
 1517TIP3   OH2 4493   7.338   4.684   3.765
 1517TIP3    H1 4494   7.387   4.684   3.683
 1517TIP3    H2 4495   7.403   4.709   3.831
 1518TIP3   OH2 4496   2.856   0.811   4.787
 1518TIP3    H1 4497   2.926   0.869   4.818
 1518TIP3    H2 4498   2.775   0.859   4.803
 1519TIP3   OH2 4499   0.965   4.116   6.058
 1519TIP3    H1 4500   1.007   4.094   6.141
 1519TIP3    H2 4501   0.926   4.202   6.072
 1520TIP3   OH2 4502   2.198   4.175   4.451
 1520TIP3    H1 4503   2.142   4.247   4.423
 1520TIP3    H2 4504   2.286   4.201   4.424
 1521TIP3   OH2 4505   2.826   2.892   5.237
 1521TIP3    H1 4506   2.876   2.857   5.163
 1521TIP3    H2 4507   2.876   2.969   5.266
 1522TIP3   OH2 4508   4.829   3.331   0.857
 1522TIP3    H1 4509   4.891   3.400   0.881
 1522TIP3    H2 4510   4.816   3.282   0.937
 1523TIP3   OH2 4511   4.426   5.116   3.790
 1523TIP3    H1 4512   4.394   5.203   3.765
 1523TIP3    H2 4513   4.473   5.085   3.713
 1524TIP3   OH2 4514   6.548   0.980   6.446
 1524TIP3    H1 4515   6.482   0.938   6.500
 1524TIP3    H2 4516   6.626   0.925   6.455
 1525TIP3   OH2 4517   1.927   7.120   1.126
 1525TIP3    H1 4518   1.899   7.036   1.164
 1525TIP3    H2 4519   1.911   7.184   1.195
 1526TIP3   OH2 4520   5.668   4.994   0.162
 1526TIP3    H1 4521   5.615   4.921   0.131
 1526TIP3    H2 4522   5.692   4.971   0.252
 1527TIP3   OH2 4523   0.243   0.316   6.483
 1527TIP3    H1 4524   0.158   0.313   6.529
 1527TIP3    H2 4525   0.294   0.381   6.532
 1528TIP3   OH2 4526   7.520   2.130   6.138
 1528TIP3    H1 4527   7.529   2.090   6.225
 1528TIP3    H2 4528   7.573   2.075   6.080
 1529TIP3   OH2 4529   3.989   7.181   1.582
 1529TIP3    H1 4530   4.015   7.112   1.521
 1529TIP3    H2 4531   4.072   7.222   1.608
 1530TIP3   OH2 4532   2.224   6.879   6.691
 1530TIP3    H1 4533   2.307   6.871   6.645
 1530TIP3    H2 4534   2.245   6.928   6.770
 1531TIP3   OH2 4535   5.136   6.451   6.723
 1531TIP3    H1 4536   5.210   6.485   6.774
 1531TIP3    H2 4537   5.107   6.373   6.771
 1532TIP3   OH2 4538   4.760   3.421   4.995
 1532TIP3    H1 4539   4.695   3.481   4.958
 1532TIP3    H2 4540   4.837   3.476   5.010
 1533TIP3   OH2 4541   2.682   2.537   3.540
 1533TIP3    H1 4542   2.698   2.630   3.552
 1533TIP3    H2 4543   2.611   2.516   3.601
 1534TIP3   OH2 4544   0.941   6.882   5.289
 1534TIP3    H1 4545   0.857   6.840   5.309
 1534TIP3    H2 4546   0.985   6.819   5.231
 1535TIP3   OH2 4547   2.085   2.771   1.183
 1535TIP3    H1 4548   2.123   2.757   1.097
 1535TIP3    H2 4549   2.046   2.687   1.207
 1536TIP3   OH2 4550   4.583   5.788   6.197
 1536TIP3    H1 4551   4.675   5.760   6.194
 1536TIP3    H2 4552   4.539   5.723   6.251
 1537TIP3   OH2 4553   5.541   4.282   5.005
 1537TIP3    H1 4554   5.576   4.340   5.072
 1537TIP3    H2 4555   5.609   4.216   4.992
 1538TIP3   OH2 4556   3.990   5.307   5.630
 1538TIP3    H1 4557   4.038   5.230   5.602
 1538TIP3    H2 4558   4.052   5.358   5.682
 1539TIP3   OH2 4559   3.258   5.173   5.035
 1539TIP3    H1 4560   3.271   5.114   5.109
 1539TIP3    H2 4561   3.336   5.162   4.981
 1540TIP3   OH2 4562   1.145   5.030   5.115
 1540TIP3    H1 4563   1.219   5.002   5.169
 1540TIP3    H2 4564   1.147   5.126   5.118
 1541TIP3   OH2 4565   6.184   3.682   2.202
 1541TIP3    H1 4566   6.110   3.695   2.142
 1541TIP3    H2 4567   6.231   3.765   2.199
 1542TIP3   OH2 4568   2.185   3.397   2.991
 1542TIP3    H1 4569   2.198   3.396   3.085
 1542TIP3    H2 4570   2.273   3.412   2.955
 1543TIP3   OH2 4571   1.372   5.056   0.054
 1543TIP3    H1 4572   1.343   5.142   0.023
 1543TIP3    H2 4573   1.362   4.998  -0.021
 1544TIP3   OH2 4574   0.244   6.296   1.836
 1544TIP3    H1 4575   0.179   6.333   1.895
 1544TIP3    H2 4576   0.324   6.346   1.853
 1545TIP3   OH2 4577   4.277   6.595   4.391
 1545TIP3    H1 4578   4.226   6.656   4.444
 1545TIP3    H2 4579   4.233   6.595   4.306
 1546TIP3   OH2 4580   5.821   6.841   3.298
 1546TIP3    H1 4581   5.835   6.753   3.263
 1546TIP3    H2 4582   5.835   6.899   3.222
 1547TIP3   OH2 4583   0.866   7.144   1.130
 1547TIP3    H1 4584   0.798   7.082   1.104
 1547TIP3    H2 4585   0.944   7.090   1.140
 1548TIP3   OH2 4586   0.354   4.187   4.529
 1548TIP3    H1 4587   0.449   4.189   4.528
 1548TIP3    H2 4588   0.331   4.191   4.622
 1549TIP3   OH2 4589   4.817   2.614   0.734
 1549TIP3    H1 4590   4.782   2.691   0.778
 1549TIP3    H2 4591   4.760   2.602   0.658
 1550TIP3   OH2 4592   6.364   1.153   3.198
 1550TIP3    H1 4593   6.338   1.189   3.283
 1550TIP3    H2 4594   6.299   1.086   3.178
 1551TIP3   OH2 4595   3.350   1.980   3.672
 1551TIP3    H1 4596   3.404   1.937   3.606
 1551TIP3    H2 4597   3.262   1.944   3.658
 1552TIP3   OH2 4598   5.138   5.738   0.292
 1552TIP3    H1 4599   5.167   5.772   0.207
 1552TIP3    H2 4600   5.219   5.723   0.340
 1553TIP3   OH2 4601   8.097   6.871   3.120
 1553TIP3    H1 4602   8.152   6.828   3.056
 1553TIP3    H2 4603   8.135   6.958   3.132
 1554TIP3   OH2 4604   1.546   6.251   4.281
 1554TIP3    H1 4605   1.580   6.162   4.291
 1554TIP3    H2 4606   1.623   6.304   4.261
 1555TIP3   OH2 4607   2.544   6.540   0.720
 1555TIP3    H1 4608   2.601   6.545   0.643
 1555TIP3    H2 4609   2.507   6.628   0.727
 1556TIP3   OH2 4610   5.384   6.765   0.379
 1556TIP3    H1 4611   5.391   6.797   0.289
 1556TIP3    H2 4612   5.327   6.829   0.423
 1557TIP3   OH2 4613   7.063   6.349   5.230
 1557TIP3    H1 4614   7.047   6.411   5.160
 1557TIP3    H2 4615   7.120   6.282   5.191
 1558TIP3   OH2 4616   3.119   7.481   4.799
 1558TIP3    H1 4617   3.036   7.487   4.752
 1558TIP3    H2 4618   3.123   7.562   4.850
 1559TIP3   OH2 4619   2.915   5.096   6.730
 1559TIP3    H1 4620   2.981   5.110   6.797
 1559TIP3    H2 4621   2.939   5.155   6.659
 1560TIP3   OH2 4622   5.707   6.545   5.789
 1560TIP3    H1 4623   5.749   6.560   5.705
 1560TIP3    H2 4624   5.758   6.597   5.851
 1561TIP3   OH2 4625   3.331   6.863   2.485
 1561TIP3    H1 4626   3.283   6.813   2.420
 1561TIP3    H2 4627   3.346   6.802   2.557
 1562TIP3   OH2 4628   4.655   0.656   2.647
 1562TIP3    H1 4629   4.688   0.682   2.733
 1562TIP3    H2 4630   4.667   0.561   2.645
 1563TIP3   OH2 4631   4.566   5.484   5.435
 1563TIP3    H1 4632   4.509   5.407   5.426
 1563TIP3    H2 4633   4.520   5.553   5.386
 1564TIP3   OH2 4634   4.487   2.807   3.375
 1564TIP3    H1 4635   4.448   2.852   3.451
 1564TIP3    H2 4636   4.556   2.753   3.413
 1565TIP3   OH2 4637   0.032   0.076   2.126
 1565TIP3    H1 4638  -0.011   0.129   2.059
 1565TIP3    H2 4639   0.125   0.096   2.115
 1566TIP3   OH2 4640   4.133   3.450   6.081
 1566TIP3    H1 4641   4.114   3.543   6.073
 1566TIP3    H2 4642   4.122   3.415   5.992
 1567TIP3   OH2 4643   2.554   2.965   6.631
 1567TIP3    H1 4644   2.609   3.043   6.628
 1567TIP3    H2 4645   2.466   2.997   6.610
 1568TIP3   OH2 4646   7.479   3.745   6.540
 1568TIP3    H1 4647   7.403   3.727   6.595
 1568TIP3    H2 4648   7.499   3.837   6.556
 1569TIP3   OH2 4649   4.777   4.554   5.906
 1569TIP3    H1 4650   4.695   4.549   5.857
 1569TIP3    H2 4651   4.751   4.580   5.994
 1570TIP3   OH2 4652   6.429   4.957   3.167
 1570TIP3    H1 4653   6.368   5.016   3.210
 1570TIP3    H2 4654   6.398   4.953   3.076
 1571TIP3   OH2 4655   5.754   6.232   2.614
 1571TIP3    H1 4656   5.831   6.176   2.620
 1571TIP3    H2 4657   5.698   6.190   2.548
 1572TIP3   OH2 4658   6.215   1.458   1.803
 1572TIP3    H1 4659   6.186   1.399   1.874
 1572TIP3    H2 4660   6.259   1.400   1.741
 1573TIP3   OH2 4661   6.707   6.696   3.048
 1573TIP3    H1 4662   6.709   6.651   2.964
 1573TIP3    H2 4663   6.798   6.718   3.066
 1574TIP3   OH2 4664   1.314   0.727   5.170
 1574TIP3    H1 4665   1.267   0.646   5.190
 1574TIP3    H2 4666   1.407   0.702   5.174
 1575TIP3   OH2 4667   1.527   5.249   5.183
 1575TIP3    H1 4668   1.526   5.163   5.225
 1575TIP3    H2 4669   1.531   5.311   5.255
 1576TIP3   OH2 4670   5.765   0.216   2.115
 1576TIP3    H1 4671   5.787   0.124   2.131
 1576TIP3    H2 4672   5.828   0.265   2.169
 1577TIP3   OH2 4673   3.239   5.294   6.370
 1577TIP3    H1 4674   3.334   5.293   6.358
 1577TIP3    H2 4675   3.206   5.342   6.294
 1578TIP3   OH2 4676   3.041   3.626   1.504
 1578TIP3    H1 4677   2.946   3.629   1.510
 1578TIP3    H2 4678   3.071   3.643   1.594
 1579TIP3   OH2 4679   4.617   2.518   5.090
 1579TIP3    H1 4680   4.680   2.583   5.060
 1579TIP3    H2 4681   4.657   2.434   5.069
 1580TIP3   OH2 4682   0.284   6.731   1.329
 1580TIP3    H1 4683   0.330   6.647   1.323
 1580TIP3    H2 4684   0.354   6.797   1.323
 1581TIP3   OH2 4685   5.832   5.346   5.575
 1581TIP3    H1 4686   5.765   5.279   5.558
 1581TIP3    H2 4687   5.784   5.418   5.617
 1582TIP3   OH2 4688   0.110   6.731   5.812
 1582TIP3    H1 4689   0.099   6.821   5.842
 1582TIP3    H2 4690   0.190   6.701   5.854
 1583TIP3   OH2 4691   7.113   4.452   0.118
 1583TIP3    H1 4692   7.191   4.410   0.154
 1583TIP3    H2 4693   7.047   4.382   0.117
 1584TIP3   OH2 4694   4.430   5.271   0.596
 1584TIP3    H1 4695   4.510   5.271   0.544
 1584TIP3    H2 4696   4.396   5.181   0.587
 1585TIP3   OH2 4697   5.585   1.374   3.514
 1585TIP3    H1 4698   5.528   1.380   3.590
 1585TIP3    H2 4699   5.571   1.286   3.479
 1586TIP3   OH2 4700   4.915   6.570   2.864
 1586TIP3    H1 4701   4.932   6.522   2.783
 1586TIP3    H2 4702   4.874   6.652   2.835
 1587TIP3   OH2 4703   1.608   7.750   2.758
 1587TIP3    H1 4704   1.643   7.752   2.668
 1587TIP3    H2 4705   1.520   7.712   2.748
 1588TIP3   OH2 4706   2.621   3.743   2.843
 1588TIP3    H1 4707   2.585   3.724   2.757
 1588TIP3    H2 4708   2.676   3.668   2.864
 1589TIP3   OH2 4709   0.974   3.877   3.027
 1589TIP3    H1 4710   1.014   3.911   3.107
 1589TIP3    H2 4711   1.003   3.938   2.958
 1590TIP3   OH2 4712   3.078   5.355   3.065
 1590TIP3    H1 4713   3.144   5.286   3.078
 1590TIP3    H2 4714   3.006   5.330   3.122
 1591TIP3   OH2 4715   0.426   4.298   1.431
 1591TIP3    H1 4716   0.494   4.237   1.460
 1591TIP3    H2 4717   0.474   4.366   1.383
 1592TIP3   OH2 4718   0.529   4.081   3.958
 1592TIP3    H1 4719   0.508   3.999   3.912
 1592TIP3    H2 4720   0.526   4.148   3.889
 1593TIP3   OH2 4721   0.855   7.193   4.797
 1593TIP3    H1 4722   0.926   7.186   4.861
 1593TIP3    H2 4723   0.837   7.287   4.791
 1594TIP3   OH2 4724   7.109   0.955   4.570
 1594TIP3    H1 4725   7.083   0.940   4.479
 1594TIP3    H2 4726   7.185   0.897   4.582
 1595TIP3   OH2 4727   7.194   4.740   4.816
 1595TIP3    H1 4728   7.119   4.700   4.773
 1595TIP3    H2 4729   7.244   4.781   4.746
 1596TIP3   OH2 4730   7.611   2.755   1.266
 1596TIP3    H1 4731   7.580   2.745   1.175
 1596TIP3    H2 4732   7.568   2.835   1.297
 1597TIP3   OH2 4733   7.536   4.584   2.555
 1597TIP3    H1 4734   7.449   4.558   2.587
 1597TIP3    H2 4735   7.517   4.635   2.476
 1598TIP3   OH2 4736   7.747   6.033   2.250
 1598TIP3    H1 4737   7.693   6.097   2.296
 1598TIP3    H2 4738   7.703   5.949   2.264
 1599TIP3   OH2 4739   1.464   7.822   1.667
 1599TIP3    H1 4740   1.386   7.839   1.718
 1599TIP3    H2 4741   1.432   7.780   1.587
 1600TIP3   OH2 4742   7.515   0.009   3.234
 1600TIP3    H1 4743   7.478   0.084   3.188
 1600TIP3    H2 4744   7.439  -0.044   3.258
 1601TIP3   OH2 4745   2.815   4.058   6.470
 1601TIP3    H1 4746   2.732   4.105   6.468
 1601TIP3    H2 4747   2.790   3.965   6.462
 1602TIP3   OH2 4748   4.740   4.049   5.834
 1602TIP3    H1 4749   4.661   4.076   5.880
 1602TIP3    H2 4750   4.716   3.966   5.794
 1603TIP3   OH2 4751   3.761   0.622   0.994
 1603TIP3    H1 4752   3.811   0.700   1.021
 1603TIP3    H2 4753   3.670   0.643   1.017
 1604TIP3   OH2 4754   8.213   5.865   3.290
 1604TIP3    H1 4755   8.204   5.892   3.381
 1604TIP3    H2 4756   8.244   5.774   3.295
 1605TIP3   OH2 4757   2.592   4.753   3.551
 1605TIP3    H1 4758   2.553   4.704   3.624
 1605TIP3    H2 4759   2.569   4.702   3.473
 1606TIP3   OH2 4760   2.402   5.689   2.397
 1606TIP3    H1 4761   2.360   5.613   2.437
 1606TIP3    H2 4762   2.373   5.763   2.450
 1607TIP3   OH2 4763   0.123   1.272   0.912
 1607TIP3    H1 4764   0.104   1.201   0.851
 1607TIP3    H2 4765   0.070   1.253   0.989
 1608TIP3   OH2 4766   7.047   0.997   0.769
 1608TIP3    H1 4767   7.011   0.911   0.753
 1608TIP3    H2 4768   6.990   1.035   0.836
 1609TIP3   OH2 4769   3.286   5.662   3.866
 1609TIP3    H1 4770   3.213   5.723   3.873
 1609TIP3    H2 4771   3.263   5.606   3.791
 1610TIP3   OH2 4772   4.733   3.399   4.597
 1610TIP3    H1 4773   4.725   3.431   4.507
 1610TIP3    H2 4774   4.827   3.389   4.612
 1611TIP3   OH2 4775   7.908   3.690   3.047
 1611TIP3    H1 4776   7.841   3.657   2.986
 1611TIP3    H2 4777   7.936   3.774   3.009
 1612TIP3   OH2 4778   8.182   5.920   4.799
 1612TIP3    H1 4779   8.184   5.831   4.834
 1612TIP3    H2 4780   8.129   5.913   4.720
 1613TIP3   OH2 4781   3.428   0.407   1.581
 1613TIP3    H1 4782   3.442   0.372   1.493
 1613TIP3    H2 4783   3.389   0.493   1.566
 1614TIP3   OH2 4784   0.138   3.713   1.086
 1614TIP3    H1 4785   0.109   3.764   1.011
 1614TIP3    H2 4786   0.210   3.764   1.124
 1615TIP3   OH2 4787   4.965   1.486   1.105
 1615TIP3    H1 4788   5.060   1.474   1.110
 1615TIP3    H2 4789   4.937   1.427   1.036
 1616TIP3   OH2 4790   2.118   6.876   2.715
 1616TIP3    H1 4791   2.122   6.932   2.638
 1616TIP3    H2 4792   2.210   6.863   2.740
 1617TIP3   OH2 4793   6.373   3.233   0.825
 1617TIP3    H1 4794   6.280   3.252   0.820
 1617TIP3    H2 4795   6.378   3.144   0.860
 1618TIP3   OH2 4796   7.247   3.029   0.266
 1618TIP3    H1 4797   7.224   2.937   0.279
 1618TIP3    H2 4798   7.170   3.068   0.224
 1619TIP3   OH2 4799   5.928   5.322   4.345
 1619TIP3    H1 4800   6.003   5.381   4.332
 1619TIP3    H2 4801   5.968   5.236   4.357
 1620TIP3   OH2 4802   2.141   5.187   0.424
 1620TIP3    H1 4803   2.079   5.178   0.496
 1620TIP3    H2 4804   2.111   5.125   0.357
 1621TIP3   OH2 4805   7.288   4.229   5.783
 1621TIP3    H1 4806   7.358   4.290   5.802
 1621TIP3    H2 4807   7.248   4.262   5.702
 1622TIP3   OH2 4808   0.190   1.385   2.711
 1622TIP3    H1 4809   0.153   1.426   2.633
 1622TIP3    H2 4810   0.115   1.341   2.752
 1623TIP3   OH2 4811   0.700   2.730   4.977
 1623TIP3    H1 4812   0.702   2.826   4.973
 1623TIP3    H2 4813   0.784   2.702   4.941
 1624TIP3   OH2 4814   7.633   2.610   4.316
 1624TIP3    H1 4815   7.656   2.641   4.404
 1624TIP3    H2 4816   7.610   2.690   4.268
 1625TIP3   OH2 4817   0.897   6.109   1.080
 1625TIP3    H1 4818   0.903   6.024   1.123
 1625TIP3    H2 4819   0.931   6.171   1.145
 1626TIP3   OH2 4820   1.941   5.166   4.470
 1626TIP3    H1 4821   1.993   5.216   4.532
 1626TIP3    H2 4822   2.005   5.122   4.414
 1627TIP3   OH2 4823   5.430   1.626   6.127
 1627TIP3    H1 4824   5.369   1.602   6.197
 1627TIP3    H2 4825   5.394   1.706   6.090
 1628TIP3   OH2 4826   2.507   2.473   3.760
 1628TIP3    H1 4827   2.451   2.397   3.746
 1628TIP3    H2 4828   2.540   2.461   3.849
 1629TIP3   OH2 4829   0.785   2.417   2.775
 1629TIP3    H1 4830   0.701   2.417   2.730
 1629TIP3    H2 4831   0.819   2.506   2.763
 1630TIP3   OH2 4832   3.965   2.597   0.232
 1630TIP3    H1 4833   3.951   2.677   0.282
 1630TIP3    H2 4834   4.044   2.615   0.180
 1631TIP3   OH2 4835   0.997   1.850   1.670
 1631TIP3    H1 4836   1.057   1.882   1.603
 1631TIP3    H2 4837   1.046   1.780   1.714
 1632TIP3   OH2 4838   2.702   6.063   6.075
 1632TIP3    H1 4839   2.721   6.082   5.983
 1632TIP3    H2 4840   2.619   6.016   6.073
 1633TIP3   OH2 4841   0.520   4.637   6.630
 1633TIP3    H1 4842   0.483   4.706   6.684
 1633TIP3    H2 4843   0.483   4.556   6.664
 1634TIP3   OH2 4844   0.149   7.073   3.074
 1634TIP3    H1 4845   0.234   7.066   3.030
 1634TIP3    H2 4846   0.141   6.992   3.125
 1635TIP3   OH2 4847   3.987   2.629   0.963
 1635TIP3    H1 4848   4.082   2.618   0.960
 1635TIP3    H2 4849   3.960   2.623   0.872
 1636TIP3   OH2 4850   3.791   2.933   3.738
 1636TIP3    H1 4851   3.849   2.883   3.680
 1636TIP3    H2 4852   3.845   3.007   3.767
 1637TIP3   OH2 4853   2.675   6.710   4.104
 1637TIP3    H1 4854   2.709   6.645   4.166
 1637TIP3    H2 4855   2.744   6.720   4.039
 1638TIP3   OH2 4856   2.401   3.159   1.995
 1638TIP3    H1 4857   2.332   3.148   2.061
 1638TIP3    H2 4858   2.473   3.105   2.028
 1639TIP3   OH2 4859   3.923   0.738   0.077
 1639TIP3    H1 4860   3.982   0.808   0.050
 1639TIP3    H2 4861   3.899   0.760   0.167
 1640TIP3   OH2 4862   0.609   1.599   4.607
 1640TIP3    H1 4863   0.606   1.634   4.696
 1640TIP3    H2 4864   0.518   1.605   4.575
 1641TIP3   OH2 4865   4.473   1.923   4.708
 1641TIP3    H1 4866   4.497   1.868   4.634
 1641TIP3    H2 4867   4.555   1.933   4.757
 1642TIP3   OH2 4868   4.888   7.363   4.946
 1642TIP3    H1 4869   4.848   7.350   4.860
 1642TIP3    H2 4870   4.817   7.347   5.008
 1643TIP3   OH2 4871   3.596   3.248   2.219
 1643TIP3    H1 4872   3.594   3.333   2.263
 1643TIP3    H2 4873   3.528   3.254   2.152
 1644TIP3   OH2 4874   4.932   6.207   4.635
 1644TIP3    H1 4875   4.925   6.151   4.712
 1644TIP3    H2 4876   5.009   6.261   4.651
 1645TIP3   OH2 4877   2.041   1.891   3.566
 1645TIP3    H1 4878   2.036   1.968   3.510
 1645TIP3    H2 4879   2.097   1.918   3.639
 1646TIP3   OH2 4880   7.057   1.675   3.928
 1646TIP3    H1 4881   7.070   1.724   4.009
 1646TIP3    H2 4882   7.144   1.643   3.905
 1647TIP3   OH2 4883   6.955   1.114   2.132
 1647TIP3    H1 4884   6.866   1.148   2.123
 1647TIP3    H2 4885   7.011   1.184   2.099
 1648TIP3   OH2 4886   7.809   7.154   3.754
 1648TIP3    H1 4887   7.747   7.080   3.748
 1648TIP3    H2 4888   7.870   7.128   3.823
 1649TIP3   OH2 4889   7.610   3.843   1.335
 1649TIP3    H1 4890   7.644   3.754   1.332
 1649TIP3    H2 4891   7.647   3.885   1.256
 1650TIP3   OH2 4892   4.454   1.683   0.931
 1650TIP3    H1 4893   4.455   1.778   0.934
 1650TIP3    H2 4894   4.455   1.656   1.023
 1651TIP3   OH2 4895   6.156   6.877   3.687
 1651TIP3    H1 4896   6.068   6.906   3.664
 1651TIP3    H2 4897   6.155   6.783   3.672
 1652TIP3   OH2 4898   0.235   4.606   6.067
 1652TIP3    H1 4899   0.247   4.561   6.150
 1652TIP3    H2 4900   0.288   4.556   6.005
 1653TIP3   OH2 4901   7.031   3.071   1.974
 1653TIP3    H1 4902   6.966   3.012   2.012
 1653TIP3    H2 4903   7.039   3.143   2.036
 1654TIP3   OH2 4904   3.830   6.517   5.227
 1654TIP3    H1 4905   3.741   6.511   5.263
 1654TIP3    H2 4906   3.827   6.591   5.167
 1655TIP3   OH2 4907   7.923   5.929   4.619
 1655TIP3    H1 4908   7.917   6.025   4.619
 1655TIP3    H2 4909   7.849   5.901   4.673
 1656TIP3   OH2 4910   6.766   5.175   0.712
 1656TIP3    H1 4911   6.683   5.128   0.718
 1656TIP3    H2 4912   6.786   5.176   0.618
 1657TIP3   OH2 4913   3.421   4.375   2.022
 1657TIP3    H1 4914   3.366   4.325   1.961
 1657TIP3    H2 4915   3.391   4.348   2.108
 1658TIP3   OH2 4916   7.704   6.493   5.812
 1658TIP3    H1 4917   7.609   6.478   5.816
 1658TIP3    H2 4918   7.739   6.447   5.888
 1659TIP3   OH2 4919   7.505   5.950   5.730
 1659TIP3    H1 4920   7.471   5.992   5.809
 1659TIP3    H2 4921   7.537   5.864   5.760
 1660TIP3   OH2 4922   7.366   4.549   3.273
 1660TIP3    H1 4923   7.335   4.639   3.268
 1660TIP3    H2 4924   7.369   4.530   3.367
 1661TIP3   OH2 4925   2.526   1.409   4.807
 1661TIP3    H1 4926   2.555   1.350   4.737
 1661TIP3    H2 4927   2.550   1.364   4.888
 1662TIP3   OH2 4928   6.771   6.203   2.185
 1662TIP3    H1 4929   6.864   6.218   2.199
 1662TIP3    H2 4930   6.746   6.272   2.122
 1663TIP3   OH2 4931   4.917   4.452   5.236
 1663TIP3    H1 4932   4.891   4.520   5.298
 1663TIP3    H2 4933   4.980   4.496   5.178
 1664TIP3   OH2 4934   1.943   3.850   6.270
 1664TIP3    H1 4935   1.892   3.782   6.313
 1664TIP3    H2 4936   1.878   3.913   6.239
 1665TIP3   OH2 4937   1.334   5.136   4.582
 1665TIP3    H1 4938   1.369   5.225   4.576
 1665TIP3    H2 4939   1.337   5.115   4.675
 1666TIP3   OH2 4940   2.429   4.912   1.555
 1666TIP3    H1 4941   2.368   4.983   1.534
 1666TIP3    H2 4942   2.451   4.927   1.647
 1667TIP3   OH2 4943   4.863   2.302   5.945
 1667TIP3    H1 4944   4.851   2.219   5.991
 1667TIP3    H2 4945   4.889   2.276   5.856
 1668TIP3   OH2 4946   6.608   0.369   3.242
 1668TIP3    H1 4947   6.660   0.290   3.254
 1668TIP3    H2 4948   6.525   0.338   3.205
 1669TIP3   OH2 4949   1.072   6.916   6.251
 1669TIP3    H1 4950   1.025   6.877   6.324
 1669TIP3    H2 4951   1.085   6.843   6.190
 1670TIP3   OH2 4952   6.708   7.375   2.422
 1670TIP3    H1 4953   6.735   7.401   2.334
 1670TIP3    H2 4954   6.657   7.449   2.455
 1671TIP3   OH2 4955   3.158   7.713   4.939
 1671TIP3    H1 4956   3.228   7.771   4.909
 1671TIP3    H2 4957   3.083   7.770   4.953
 1672TIP3   OH2 4958   5.635   2.257   5.537
 1672TIP3    H1 4959   5.588   2.176   5.558
 1672TIP3    H2 4960   5.571   2.326   5.554
 1673TIP3   OH2 4961   7.770   1.008   5.294
 1673TIP3    H1 4962   7.706   1.026   5.363
 1673TIP3    H2 4963   7.790   0.915   5.303
 1674TIP3   OH2 4964   4.558   3.307   5.130
 1674TIP3    H1 4965   4.500   3.287   5.056
 1674TIP3    H2 4966   4.637   3.341   5.089
 1675TIP3   OH2 4967   2.354   6.344   4.435
 1675TIP3    H1 4968   2.264   6.341   4.404
 1675TIP3    H2 4969   2.406   6.313   4.361
 1676TIP3   OH2 4970   7.799   4.236   0.555
 1676TIP3    H1 4971   7.795   4.252   0.649
 1676TIP3    H2 4972   7.728   4.175   0.537
 1677TIP3   OH2 4973   5.962   3.239   0.031
 1677TIP3    H1 4974   6.021   3.274  -0.036
 1677TIP3    H2 4975   5.962   3.145   0.015
 1678TIP3   OH2 4976   2.651   1.308   3.555
 1678TIP3    H1 4977   2.731   1.257   3.546
 1678TIP3    H2 4978   2.621   1.290   3.645
 1679TIP3   OH2 4979   2.556   6.015   4.708
 1679TIP3    H1 4980   2.505   6.065   4.771
 1679TIP3    H2 4981   2.609   5.956   4.761
 1680TIP3   OH2 4982   4.807   2.758   5.372
 1680TIP3    H1 4983   4.833   2.694   5.305
 1680TIP3    H2 4984   4.823   2.843   5.331
 1681TIP3   OH2 4985   8.188   7.095   0.835
 1681TIP3    H1 4986   8.141   7.120   0.756
 1681TIP3    H2 4987   8.279   7.120   0.818
 1682TIP3   OH2 4988   3.053   2.793   0.136
 1682TIP3    H1 4989   3.089   2.823   0.053
 1682TIP3    H2 4990   3.110   2.832   0.203
 1683TIP3   OH2 4991   0.434   1.267   6.603
 1683TIP3    H1 4992   0.473   1.180   6.609
 1683TIP3    H2 4993   0.343   1.251   6.579
 1684TIP3   OH2 4994   1.109   1.523   0.919
 1684TIP3    H1 4995   1.022   1.558   0.939
 1684TIP3    H2 4996   1.170   1.577   0.969
 1685TIP3   OH2 4997   6.554   6.781   0.219
 1685TIP3    H1 4998   6.571   6.716   0.150
 1685TIP3    H2 4999   6.547   6.864   0.173
 1686TIP3   OH2 5000   5.245  -0.019   5.896
 1686TIP3    H1 5001   5.294   0.041   5.952
 1686TIP3    H2 5002   5.154   0.010   5.905
 1687TIP3   OH2 5003   2.935   7.485   2.876
 1687TIP3    H1 5004   2.903   7.446   2.794
 1687TIP3    H2 5005   2.987   7.560   2.848
 1688TIP3   OH2 5006   6.892   5.928   1.508
 1688TIP3    H1 5007   6.816   5.971   1.549
 1688TIP3    H2 5008   6.854   5.864   1.449
 1689TIP3   OH2 5009   1.595   3.504   4.999
 1689TIP3    H1 5010   1.604   3.483   4.906
 1689TIP3    H2 5011   1.638   3.431   5.044
 1690TIP3   OH2 5012   6.680   2.005   1.685
 1690TIP3    H1 5013   6.615   1.961   1.739
 1690TIP3    H2 5014   6.666   1.970   1.597
 1691TIP3   OH2 5015   0.820   0.091   2.127
 1691TIP3    H1 5016   0.895   0.036   2.104
 1691TIP3    H2 5017   0.803   0.071   2.219
 1692TIP3   OH2 5018   1.155   2.208   4.710
 1692TIP3    H1 5019   1.198   2.274   4.766
 1692TIP3    H2 5020   1.121   2.258   4.636
 1693TIP3   OH2 5021   1.369   7.595   5.835
 1693TIP3    H1 5022   1.301   7.529   5.853
 1693TIP3    H2 5023   1.325   7.660   5.781
 1694TIP3   OH2 5024   2.837   3.239   4.363
 1694TIP3    H1 5025   2.876   3.275   4.284
 1694TIP3    H2 5026   2.854   3.145   4.358
 1695TIP3   OH2 5027   5.526   1.179   0.069
 1695TIP3    H1 5028   5.464   1.216   0.006
 1695TIP3    H2 5029   5.512   1.230   0.149
 1696TIP3   OH2 5030   4.956   4.343   3.793
 1696TIP3    H1 5031   5.042   4.368   3.828
 1696TIP3    H2 5032   4.937   4.259   3.835
 1697TIP3   OH2 5033   2.829   2.701   6.362
 1697TIP3    H1 5034   2.777   2.697   6.442
 1697TIP3    H2 5035   2.806   2.785   6.323
 1698TIP3   OH2 5036   8.184   2.187   2.473
 1698TIP3    H1 5037   8.149   2.181   2.561
 1698TIP3    H2 5038   8.269   2.141   2.478
 1699TIP3   OH2 5039   6.194   6.838   2.097
 1699TIP3    H1 5040   6.259   6.888   2.049
 1699TIP3    H2 5041   6.154   6.901   2.156
 1700TIP3   OH2 5042   7.621   4.674   3.242
 1700TIP3    H1 5043   7.640   4.767   3.248
 1700TIP3    H2 5044   7.529   4.666   3.267
 1701TIP3   OH2 5045   4.672   0.604   0.182
 1701TIP3    H1 5046   4.662   0.691   0.220
 1701TIP3    H2 5047   4.763   0.580   0.201
 1702TIP3   OH2 5048   6.718   1.652   3.536
 1702TIP3    H1 5049   6.711   1.655   3.632
 1702TIP3    H2 5050   6.721   1.558   3.516
 1703TIP3   OH2 5051   3.361   4.788   3.295
 1703TIP3    H1 5052   3.293   4.823   3.352
 1703TIP3    H2 5053   3.314   4.754   3.219
 1704TIP3   OH2 5054   7.581   5.247   6.164
 1704TIP3    H1 5055   7.608   5.301   6.090
 1704TIP3    H2 5056   7.562   5.162   6.125
 1705TIP3   OH2 5057   1.821   7.394   3.895
 1705TIP3    H1 5058   1.838   7.485   3.917
 1705TIP3    H2 5059   1.906   7.352   3.898
 1706TIP3   OH2 5060   7.455   7.461   0.693
 1706TIP3    H1 5061   7.514   7.504   0.631
 1706TIP3    H2 5062   7.384   7.427   0.639
 1707TIP3   OH2 5063   6.723   2.674   6.543
 1707TIP3    H1 5064   6.800   2.629   6.578
 1707TIP3    H2 5065   6.666   2.688   6.619
 1708TIP3   OH2 5066   6.584   3.071   3.359
 1708TIP3    H1 5067   6.628   3.150   3.328
 1708TIP3    H2 5068   6.491   3.089   3.345
 1709TIP3   OH2 5069   6.814   5.448   5.508
 1709TIP3    H1 5070   6.753   5.442   5.581
 1709TIP3    H2 5071   6.898   5.421   5.545
 1710TIP3   OH2 5072   2.844   5.390   3.584
 1710TIP3    H1 5073   2.839   5.466   3.527
 1710TIP3    H2 5074   2.864   5.425   3.670
 1711TIP3   OH2 5075   5.999   6.304   2.996
 1711TIP3    H1 5076   5.948   6.287   3.075
 1711TIP3    H2 5077   5.963   6.386   2.961
 1712TIP3   OH2 5078   0.554   5.635   0.946
 1712TIP3    H1 5079   0.531   5.639   1.039
 1712TIP3    H2 5080   0.610   5.558   0.938
 1713TIP3   OH2 5081   2.507   1.923   3.667
 1713TIP3    H1 5082   2.413   1.907   3.677
 1713TIP3    H2 5083   2.527   1.893   3.578
 1714TIP3   OH2 5084   6.275   1.210   2.777
 1714TIP3    H1 5085   6.264   1.256   2.860
 1714TIP3    H2 5086   6.356   1.244   2.740
 1715TIP3   OH2 5087   3.504   4.433   1.204
 1715TIP3    H1 5088   3.485   4.444   1.297
 1715TIP3    H2 5089   3.465   4.349   1.181
 1716TIP3   OH2 5090   2.623   6.793   6.139
 1716TIP3    H1 5091   2.677   6.724   6.100
 1716TIP3    H2 5092   2.588   6.754   6.219
 1717TIP3   OH2 5093   3.295   4.420   4.815
 1717TIP3    H1 5094   3.345   4.448   4.739
 1717TIP3    H2 5095   3.330   4.472   4.888
 1718TIP3   OH2 5096   4.802   1.669   2.972
 1718TIP3    H1 5097   4.819   1.753   3.014
 1718TIP3    H2 5098   4.812   1.687   2.878
 1719TIP3   OH2 5099   6.000   7.741   1.724
 1719TIP3    H1 5100   6.085   7.771   1.757
 1719TIP3    H2 5101   5.958   7.820   1.691
 1720TIP3   OH2 5102   0.045   6.092   2.533
 1720TIP3    H1 5103  -0.025   6.063   2.592
 1720TIP3    H2 5104   0.002   6.104   2.449
 1721TIP3   OH2 5105   2.329   3.216   6.734
 1721TIP3    H1 5106   2.261   3.151   6.756
 1721TIP3    H2 5107   2.280   3.292   6.704
 1722TIP3   OH2 5108   2.927   4.532   5.513
 1722TIP3    H1 5109   2.951   4.443   5.536
 1722TIP3    H2 5110   2.989   4.555   5.443
 1723TIP3   OH2 5111   5.596   5.303   3.167
 1723TIP3    H1 5112   5.680   5.331   3.131
 1723TIP3    H2 5113   5.567   5.378   3.220
 1724TIP3   OH2 5114   1.822   2.716   1.618
 1724TIP3    H1 5115   1.851   2.803   1.594
 1724TIP3    H2 5116   1.738   2.730   1.662
 1725TIP3   OH2 5117   3.655   7.077   2.433
 1725TIP3    H1 5118   3.656   6.981   2.434
 1725TIP3    H2 5119   3.629   7.101   2.522
 1726TIP3   OH2 5120   3.335   6.711   5.268
 1726TIP3    H1 5121   3.301   6.621   5.265
 1726TIP3    H2 5122   3.258   6.766   5.275
 1727TIP3   OH2 5123   2.118   4.078   1.632
 1727TIP3    H1 5124   2.185   4.010   1.641
 1727TIP3    H2 5125   2.167   4.157   1.608
 1728TIP3   OH2 5126   7.635   0.946   6.225
 1728TIP3    H1 5127   7.698   1.001   6.179
 1728TIP3    H2 5128   7.684   0.911   6.300
 1729TIP3   OH2 5129   6.919   2.085   1.745
 1729TIP3    H1 5130   6.992   2.031   1.715
 1729TIP3    H2 5131   6.841   2.040   1.712
 1730TIP3   OH2 5132   5.485   0.207   4.472
 1730TIP3    H1 5133   5.545   0.202   4.397
 1730TIP3    H2 5134   5.532   0.257   4.538
 1731TIP3   OH2 5135   2.712   2.394   4.191
 1731TIP3    H1 5136   2.759   2.338   4.130
 1731TIP3    H2 5137   2.737   2.361   4.278
 1732TIP3   OH2 5138   8.287   4.373   5.103
 1732TIP3    H1 5139   8.197   4.399   5.117
 1732TIP3    H2 5140   8.283   4.307   5.033
 1733TIP3   OH2 5141   1.509   3.206   0.722
 1733TIP3    H1 5142   1.512   3.193   0.627
 1733TIP3    H2 5143   1.571   3.141   0.756
 1734TIP3   OH2 5144   6.241   3.164   0.445
 1734TIP3    H1 5145   6.146   3.169   0.439
 1734TIP3    H2 5146   6.270   3.142   0.357
 1735TIP3   OH2 5147   5.824   5.873   2.583
 1735TIP3    H1 5148   5.813   5.797   2.641
 1735TIP3    H2 5149   5.892   5.846   2.522
 1736TIP3   OH2 5150   2.452   0.760   4.321
 1736TIP3    H1 5151   2.499   0.782   4.241
 1736TIP3    H2 5152   2.361   0.753   4.294
 1737TIP3   OH2 5153   6.483   4.840   2.303
 1737TIP3    H1 5154   6.468   4.889   2.385
 1737TIP3    H2 5155   6.406   4.859   2.250
 1738TIP3   OH2 5156   1.509   1.825   4.430
 1738TIP3    H1 5157   1.549   1.746   4.466
 1738TIP3    H2 5158   1.510   1.887   4.503
 1739TIP3   OH2 5159   3.541   5.975   1.764
 1739TIP3    H1 5160   3.557   6.061   1.804
 1739TIP3    H2 5161   3.587   5.914   1.820
 1740TIP3   OH2 5162   6.993   5.740   0.570
 1740TIP3    H1 5163   6.975   5.793   0.493
 1740TIP3    H2 5164   6.975   5.650   0.543
 1741TIP3   OH2 5165   6.866   7.792   2.764
 1741TIP3    H1 5166   6.950   7.835   2.751
 1741TIP3    H2 5167   6.865   7.723   2.697
 1742TIP3   OH2 5168   4.280   0.965   6.043
 1742TIP3    H1 5169   4.210   0.999   5.988
 1742TIP3    H2 5170   4.360   0.991   5.998
 1743TIP3   OH2 5171   0.563   4.121   6.427
 1743TIP3    H1 5172   0.630   4.187   6.447
 1743TIP3    H2 5173   0.540   4.084   6.512
 1744TIP3   OH2 5174   8.099   2.367   5.727
 1744TIP3    H1 5175   8.087   2.311   5.651
 1744TIP3    H2 5176   8.143   2.311   5.791
 1745TIP3   OH2 5177   6.144   0.083   5.409
 1745TIP3    H1 5178   6.067   0.078   5.466
 1745TIP3    H2 5179   6.127   0.019   5.340
 1746TIP3   OH2 5180   2.605   1.805   6.435
 1746TIP3    H1 5181   2.636   1.895   6.442
 1746TIP3    H2 5182   2.516   1.808   6.473
 1747TIP3   OH2 5183   2.017   0.093   1.132
 1747TIP3    H1 5184   1.994   0.117   1.042
 1747TIP3    H2 5185   2.090   0.150   1.154
 1748TIP3   OH2 5186   4.496   0.291   3.006
 1748TIP3    H1 5187   4.475   0.365   2.950
 1748TIP3    H2 5188   4.412   0.251   3.027
 1749TIP3   OH2 5189   4.695   5.646   3.999
 1749TIP3    H1 5190   4.734   5.608   4.078
 1749TIP3    H2 5191   4.628   5.582   3.973
 1750TIP3   OH2 5192   6.093   2.372   3.559
 1750TIP3    H1 5193   6.083   2.280   3.584
 1750TIP3    H2 5194   6.102   2.369   3.463
 1751TIP3   OH2 5195   4.307   2.794   3.988
 1751TIP3    H1 5196   4.389   2.813   3.943
 1751TIP3    H2 5197   4.260   2.877   3.990
 1752TIP3   OH2 5198   4.330   1.005   3.595
 1752TIP3    H1 5199   4.328   0.933   3.531
 1752TIP3    H2 5200   4.301   1.081   3.545
 1753TIP3   OH2 5201   8.077   5.071   1.883
 1753TIP3    H1 5202   8.045   5.124   1.957
 1753TIP3    H2 5203   8.052   5.121   1.805
 1754TIP3   OH2 5204   0.176   5.564   1.703
 1754TIP3    H1 5205   0.248   5.512   1.740
 1754TIP3    H2 5206   0.219   5.619   1.637
 1755TIP3   OH2 5207   1.288   1.757   6.069
 1755TIP3    H1 5208   1.320   1.832   6.119
 1755TIP3    H2 5209   1.216   1.793   6.017
 1756TIP3   OH2 5210   5.381   6.807   3.497
 1756TIP3    H1 5211   5.291   6.836   3.485
 1756TIP3    H2 5212   5.404   6.764   3.415
 1757TIP3   OH2 5213   0.525   3.869   1.731
 1757TIP3    H1 5214   0.445   3.896   1.776
 1757TIP3    H2 5215   0.578   3.948   1.728
 1758TIP3   OH2 5216   8.243   6.824   6.396
 1758TIP3    H1 5217   8.290   6.904   6.419
 1758TIP3    H2 5218   8.236   6.776   6.479
 1759TIP3   OH2 5219   3.421   5.189   0.630
 1759TIP3    H1 5220   3.396   5.257   0.692
 1759TIP3    H2 5221   3.341   5.174   0.578
 1760TIP3   OH2 5222   3.486   0.928   6.300
 1760TIP3    H1 5223   3.556   0.910   6.238
 1760TIP3    H2 5224   3.531   0.943   6.383
 1761TIP3   OH2 5225   0.577   3.807   0.207
 1761TIP3    H1 5226   0.575   3.724   0.255
 1761TIP3    H2 5227   0.487   3.821   0.178
 1762TIP3   OH2 5228   0.512   0.126   2.262
 1762TIP3    H1 5229   0.515   0.099   2.353
 1762TIP3    H2 5230   0.595   0.097   2.225
 1763TIP3   OH2 5231   4.166   2.055   6.330
 1763TIP3    H1 5232   4.164   2.127   6.394
 1763TIP3    H2 5233   4.090   2.002   6.352
 1764TIP3   OH2 5234   4.568   1.761   4.238
 1764TIP3    H1 5235   4.577   1.677   4.192
 1764TIP3    H2 5236   4.593   1.827   4.173
 1765TIP3   OH2 5237   6.904   4.576   2.427
 1765TIP3    H1 5238   6.933   4.486   2.414
 1765TIP3    H2 5239   6.812   4.576   2.402
 1766TIP3   OH2 5240   6.174   6.538   3.958
 1766TIP3    H1 5241   6.147   6.568   3.871
 1766TIP3    H2 5242   6.164   6.615   4.014
 1767TIP3   OH2 5243   5.307   4.043   0.686
 1767TIP3    H1 5244   5.244   4.038   0.614
 1767TIP3    H2 5245   5.298   4.132   0.719
 1768TIP3   OH2 5246   6.078   5.646   2.789
 1768TIP3    H1 5247   6.063   5.721   2.731
 1768TIP3    H2 5248   6.131   5.586   2.737
 1769TIP3   OH2 5249   0.763   3.468   6.462
 1769TIP3    H1 5250   0.724   3.470   6.374
 1769TIP3    H2 5251   0.689   3.468   6.522
 1770TIP3   OH2 5252   5.303   3.649   2.827
 1770TIP3    H1 5253   5.395   3.639   2.849
 1770TIP3    H2 5254   5.292   3.742   2.810
 1771TIP3   OH2 5255   3.756   3.951   2.699
 1771TIP3    H1 5256   3.723   3.872   2.655
 1771TIP3    H2 5257   3.826   3.919   2.755
 1772TIP3   OH2 5258   4.980   3.636   2.257
 1772TIP3    H1 5259   4.961   3.543   2.243
 1772TIP3    H2 5260   5.007   3.642   2.349
 1773TIP3   OH2 5261   8.084   6.297   2.837
 1773TIP3    H1 5262   8.113   6.206   2.830
 1773TIP3    H2 5263   8.045   6.304   2.924
 1774TIP3   OH2 5264   6.360   6.295   0.475
 1774TIP3    H1 5265   6.381   6.239   0.551
 1774TIP3    H2 5266   6.440   6.345   0.459
 1775TIP3   OH2 5267   7.719   3.379   5.059
 1775TIP3    H1 5268   7.719   3.295   5.013
 1775TIP3    H2 5269   7.695   3.442   4.991
 1776TIP3   OH2 5270   2.182   6.570   4.221
 1776TIP3    H1 5271   2.274   6.550   4.241
 1776TIP3    H2 5272   2.166   6.527   4.137
 1777TIP3   OH2 5273   2.290   1.041   5.741
 1777TIP3    H1 5274   2.348   1.104   5.699
 1777TIP3    H2 5275   2.203   1.064   5.709
 1778TIP3   OH2 5276   5.904   0.712   4.701
 1778TIP3    H1 5277   5.973   0.753   4.649
 1778TIP3    H2 5278   5.843   0.676   4.637
 1779TIP3   OH2 5279   2.770   2.057   0.337
 1779TIP3    H1 5280   2.818   2.106   0.270
 1779TIP3    H2 5281   2.740   2.124   0.398
 1780TIP3   OH2 5282   3.136   1.240   4.994
 1780TIP3    H1 5283   3.218   1.257   4.947
 1780TIP3    H2 5284   3.096   1.326   5.005
 1781TIP3   OH2 5285   7.922   1.010   4.446
 1781TIP3    H1 5286   7.951   0.920   4.454
 1781TIP3    H2 5287   7.947   1.051   4.529
 1782TIP3   OH2 5288   6.059   1.588   0.952
 1782TIP3    H1 5289   6.143   1.545   0.938
 1782TIP3    H2 5290   6.003   1.520   0.989
 1783TIP3   OH2 5291   1.213   0.036   5.365
 1783TIP3    H1 5292   1.268  -0.006   5.431
 1783TIP3    H2 5293   1.267   0.036   5.286
 1784TIP3   OH2 5294   0.916   3.219   2.230
 1784TIP3    H1 5295   0.972   3.157   2.276
 1784TIP3    H2 5296   0.872   3.268   2.300
 1785TIP3   OH2 5297   5.860   0.780   5.221
 1785TIP3    H1 5298   5.943   0.734   5.235
 1785TIP3    H2 5299   5.866   0.813   5.132
 1786TIP3   OH2 5300   6.160   4.824   1.292
 1786TIP3    H1 5301   6.206   4.895   1.338
 1786TIP3    H2 5302   6.214   4.807   1.215
 1787TIP3   OH2 5303   8.238   3.667   4.616
 1787TIP3    H1 5304   8.197   3.692   4.533
 1787TIP3    H2 5305   8.187   3.592   4.647
 1788TIP3   OH2 5306   7.226   2.083   5.088
 1788TIP3    H1 5307   7.279   2.134   5.027
 1788TIP3    H2 5308   7.162   2.145   5.122
 1789TIP3   OH2 5309   6.602   1.875   1.446
 1789TIP3    H1 5310   6.548   1.826   1.384
 1789TIP3    H2 5311   6.674   1.910   1.393
 1790TIP3   OH2 5312   0.694   1.385   0.454
 1790TIP3    H1 5313   0.632   1.424   0.516
 1790TIP3    H2 5314   0.773   1.370   0.506
 1791TIP3   OH2 5315   0.030   6.194   1.676
 1791TIP3    H1 5316   0.082   6.251   1.732
 1791TIP3    H2 5317   0.035   6.235   1.589
 1792TIP3   OH2 5318   6.079   2.431   2.165
 1792TIP3    H1 5319   6.110   2.475   2.245
 1792TIP3    H2 5320   6.015   2.492   2.129
 1793TIP3   OH2 5321   3.669   6.488   4.747
 1793TIP3    H1 5322   3.704   6.529   4.668
 1793TIP3    H2 5323   3.681   6.394   4.734
 1794TIP3   OH2 5324   7.687   1.908   3.509
 1794TIP3    H1 5325   7.670   1.963   3.585
 1794TIP3    H2 5326   7.781   1.914   3.494
 1795TIP3   OH2 5327   1.042   6.615   0.643
 1795TIP3    H1 5328   0.972   6.674   0.673
 1795TIP3    H2 5329   0.996   6.537   0.611
 1796TIP3   OH2 5330   2.857   2.530   6.003
 1796TIP3    H1 5331   2.902   2.597   5.951
 1796TIP3    H2 5332   2.764   2.547   5.989
 1797TIP3   OH2 5333   7.331   6.002   2.696
 1797TIP3    H1 5334   7.397   5.933   2.705
 1797TIP3    H2 5335   7.248   5.956   2.709
 1798TIP3   OH2 5336   0.214   6.071   1.427
 1798TIP3    H1 5337   0.254   6.158   1.426
 1798TIP3    H2 5338   0.275   6.017   1.377
 1799TIP3   OH2 5339   6.069   2.063   5.996
 1799TIP3    H1 5340   6.138   2.124   6.022
 1799TIP3    H2 5341   6.000   2.118   5.961
 1800TIP3   OH2 5342   7.697   6.875   3.786
 1800TIP3    H1 5343   7.613   6.831   3.769
 1800TIP3    H2 5344   7.763   6.806   3.779
 1801TIP3   OH2 5345   3.296   7.229   5.101
 1801TIP3    H1 5346   3.300   7.319   5.069
 1801TIP3    H2 5347   3.266   7.237   5.192
 1802TIP3   OH2 5348   4.022   5.033   0.070
 1802TIP3    H1 5349   4.041   5.099   0.137
 1802TIP3    H2 5350   4.106   5.019   0.026
 1803TIP3   OH2 5351   3.925   7.536   2.934
 1803TIP3    H1 5352   3.970   7.516   2.852
 1803TIP3    H2 5353   3.832   7.538   2.911
 1804TIP3   OH2 5354   1.500   1.780   4.748
 1804TIP3    H1 5355   1.588   1.798   4.780
 1804TIP3    H2 5356   1.508   1.697   4.700
 1805TIP3   OH2 5357   6.904   3.294   5.071
 1805TIP3    H1 5358   6.975   3.355   5.050
 1805TIP3    H2 5359   6.938   3.241   5.143
 1806TIP3   OH2 5360   5.399   0.819   1.118
 1806TIP3    H1 5361   5.444   0.889   1.070
 1806TIP3    H2 5362   5.336   0.783   1.054
 1807TIP3   OH2 5363   5.822   3.969   0.300
 1807TIP3    H1 5364   5.914   3.942   0.301
 1807TIP3    H2 5365   5.790   3.942   0.214
 1808TIP3   OH2 5366   1.057   0.642   6.259
 1808TIP3    H1 5367   0.999   0.668   6.187
 1808TIP3    H2 5368   1.010   0.667   6.338
 1809TIP3   OH2 5369   0.635   4.276   5.900
 1809TIP3    H1 5370   0.668   4.189   5.877
 1809TIP3    H2 5371   0.696   4.336   5.856
 1810TIP3   OH2 5372   6.486   0.993   5.241
 1810TIP3    H1 5373   6.471   1.082   5.273
 1810TIP3    H2 5374   6.545   0.954   5.306
 1811TIP3   OH2 5375   7.021   7.440   3.562
 1811TIP3    H1 5376   6.933   7.408   3.540
 1811TIP3    H2 5377   7.079   7.368   3.536
 1812TIP3   OH2 5378   3.441   1.347   2.171
 1812TIP3    H1 5379   3.356   1.305   2.186
 1812TIP3    H2 5380   3.498   1.277   2.140
 1813TIP3   OH2 5381   0.877   5.072   3.864
 1813TIP3    H1 5382   0.800   5.045   3.914
 1813TIP3    H2 5383   0.935   4.997   3.868
 1814TIP3   OH2 5384   5.015   5.248   3.182
 1814TIP3    H1 5385   5.001   5.296   3.264
 1814TIP3    H2 5386   4.999   5.157   3.205
 1815TIP3   OH2 5387   7.174   0.477   3.435
 1815TIP3    H1 5388   7.173   0.563   3.478
 1815TIP3    H2 5389   7.260   0.473   3.392
 1816TIP3   OH2 5390   2.466   1.609   3.776
 1816TIP3    H1 5391   2.535   1.616   3.709
 1816TIP3    H2 5392   2.386   1.594   3.726
 1817TIP3   OH2 5393   2.490   5.416   5.751
 1817TIP3    H1 5394   2.475   5.508   5.726
 1817TIP3    H2 5395   2.488   5.369   5.668
 1818TIP3   OH2 5396   6.900   7.186   2.301
 1818TIP3    H1 5397   6.982   7.219   2.337
 1818TIP3    H2 5398   6.861   7.135   2.372
 1819TIP3   OH2 5399   0.844   4.785   6.232
 1819TIP3    H1 5400   0.829   4.854   6.297
 1819TIP3    H2 5401   0.788   4.713   6.262
 1820TIP3   OH2 5402   0.349   3.232   2.686
 1820TIP3    H1 5403   0.257   3.257   2.693
 1820TIP3    H2 5404   0.397   3.304   2.727
 1821TIP3   OH2 5405   0.796   3.299   0.809
 1821TIP3    H1 5406   0.731   3.284   0.740
 1821TIP3    H2 5407   0.845   3.376   0.780
 1822TIP3   OH2 5408   7.486   6.611   4.057
 1822TIP3    H1 5409   7.474   6.642   3.967
 1822TIP3    H2 5410   7.435   6.671   4.110
 1823TIP3   OH2 5411   0.502   4.471   1.219
 1823TIP3    H1 5412   0.415   4.510   1.219
 1823TIP3    H2 5413   0.559   4.540   1.187
 1824TIP3   OH2 5414   3.374   6.469   1.899
 1824TIP3    H1 5415   3.288   6.506   1.877
 1824TIP3    H2 5416   3.378   6.475   1.995
 1825TIP3   OH2 5417   4.059   3.284   4.930
 1825TIP3    H1 5418   4.010   3.251   5.005
 1825TIP3    H2 5419   4.062   3.379   4.942
 1826TIP3   OH2 5420   2.718   7.332   4.260
 1826TIP3    H1 5421   2.698   7.351   4.352
 1826TIP3    H2 5422   2.650   7.377   4.211
 1827TIP3   OH2 5423   3.538   4.334   3.014
 1827TIP3    H1 5424   3.520   4.242   3.033
 1827TIP3    H2 5425   3.508   4.346   2.924
 1828TIP3   OH2 5426   1.590   5.082   1.378
 1828TIP3    H1 5427   1.503   5.043   1.373
 1828TIP3    H2 5428   1.602   5.125   1.293
 1829TIP3   OH2 5429   2.556   1.867   3.407
 1829TIP3    H1 5430   2.615   1.809   3.358
 1829TIP3    H2 5431   2.470   1.827   3.396
 1830TIP3   OH2 5432   1.332   5.913   4.503
 1830TIP3    H1 5433   1.246   5.911   4.544
 1830TIP3    H2 5434   1.320   5.969   4.426
 1831TIP3   OH2 5435   2.171   2.575   0.172
 1831TIP3    H1 5436   2.205   2.491   0.140
 1831TIP3    H2 5437   2.216   2.589   0.255
 1832TIP3   OH2 5438   2.197   1.958   3.775
 1832TIP3    H1 5439   2.246   1.908   3.840
 1832TIP3    H2 5440   2.156   2.029   3.825
 1833TIP3   OH2 5441   4.549   2.314   5.999
 1833TIP3    H1 5442   4.563   2.320   5.905
 1833TIP3    H2 5443   4.620   2.366   6.037
 1834TIP3   OH2 5444   3.760   1.954   3.056
 1834TIP3    H1 5445   3.671   1.973   3.026
 1834TIP3    H2 5446   3.777   1.866   3.022
 1835TIP3   OH2 5447   5.073   4.993   5.033
 1835TIP3    H1 5448   5.021   5.044   4.972
 1835TIP3    H2 5449   5.039   4.904   5.025
 1836TIP3   OH2 5450   2.250   6.962   3.601
 1836TIP3    H1 5451   2.174   7.019   3.611
 1836TIP3    H2 5452   2.302   7.004   3.532
 1837TIP3   OH2 5453   6.134   0.970   4.081
 1837TIP3    H1 5454   6.126   1.060   4.112
 1837TIP3    H2 5455   6.050   0.951   4.039
 1838TIP3   OH2 5456   1.248   5.296   5.076
 1838TIP3    H1 5457   1.250   5.385   5.041
 1838TIP3    H2 5458   1.334   5.283   5.114
 1839TIP3   OH2 5459   1.334   1.500   6.110
 1839TIP3    H1 5460   1.319   1.588   6.074
 1839TIP3    H2 5461   1.426   1.501   6.137
 1840TIP3   OH2 5462   1.487   7.230   0.658
 1840TIP3    H1 5463   1.432   7.212   0.582
 1840TIP3    H2 5464   1.429   7.214   0.733
 1841TIP3   OH2 5465   3.363   7.400   2.662
 1841TIP3    H1 5466   3.406   7.480   2.691
 1841TIP3    H2 5467   3.351   7.411   2.568
 1842TIP3   OH2 5468   0.644   5.621   5.398
 1842TIP3    H1 5469   0.634   5.533   5.362
 1842TIP3    H2 5470   0.736   5.644   5.380
 1843TIP3   OH2 5471   5.965   1.448   5.182
 1843TIP3    H1 5472   5.904   1.519   5.162
 1843TIP3    H2 5473   6.021   1.483   5.250
 1844TIP3   OH2 5474   0.088   4.701   3.999
 1844TIP3    H1 5475   0.120   4.615   4.026
 1844TIP3    H2 5476   0.071   4.747   4.082
 1845TIP3   OH2 5477   0.626   4.896   5.667
 1845TIP3    H1 5478   0.675   4.868   5.745
 1845TIP3    H2 5479   0.651   4.987   5.654
 1846TIP3   OH2 5480   6.005   2.150   3.715
 1846TIP3    H1 5481   5.958   2.115   3.640
 1846TIP3    H2 5482   5.987   2.089   3.786
 1847TIP3   OH2 5483   3.749   7.243   3.162
 1847TIP3    H1 5484   3.752   7.337   3.180
 1847TIP3    H2 5485   3.771   7.202   3.245
 1848TIP3   OH2 5486   7.923   7.275   1.947
 1848TIP3    H1 5487   7.884   7.345   1.895
 1848TIP3    H2 5488   7.898   7.195   1.901
 1849TIP3   OH2 5489   3.266   0.444   5.587
 1849TIP3    H1 5490   3.349   0.474   5.551
 1849TIP3    H2 5491   3.267   0.349   5.576
 1850TIP3   OH2 5492   5.541   6.564   5.447
 1850TIP3    H1 5493   5.496   6.486   5.417
 1850TIP3    H2 5494   5.633   6.548   5.427
 1851TIP3   OH2 5495   4.595   0.411   6.481
 1851TIP3    H1 5496   4.663   0.358   6.439
 1851TIP3    H2 5497   4.523   0.350   6.497
 1852TIP3   OH2 5498   4.525   0.962   3.011
 1852TIP3    H1 5499   4.434   0.970   3.039
 1852TIP3    H2 5500   4.553   1.051   2.993
 1853TIP3   OH2 5501   0.471   1.333   2.971
 1853TIP3    H1 5502   0.481   1.252   2.920
 1853TIP3    H2 5503   0.389   1.322   3.019
 1854TIP3   OH2 5504   4.836   6.578   3.689
 1854TIP3    H1 5505   4.749   6.543   3.706
 1854TIP3    H2 5506   4.868   6.607   3.775
 1855TIP3   OH2 5507   0.053   7.381   4.872
 1855TIP3    H1 5508   0.135   7.422   4.845
 1855TIP3    H2 5509   0.032   7.423   4.956
 1856TIP3   OH2 5510   7.584   3.049   2.031
 1856TIP3    H1 5511   7.670   3.052   1.989
 1856TIP3    H2 5512   7.602   3.068   2.123
 1857TIP3   OH2 5513   0.314   3.778   2.705
 1857TIP3    H1 5514   0.307   3.710   2.638
 1857TIP3    H2 5515   0.344   3.731   2.783
 1858TIP3   OH2 5516   8.116   5.234   0.564
 1858TIP3    H1 5517   8.072   5.162   0.518
 1858TIP3    H2 5518   8.202   5.199   0.586
 1859TIP3   OH2 5519   2.810   4.218   4.142
 1859TIP3    H1 5520   2.872   4.211   4.215
 1859TIP3    H2 5521   2.865   4.215   4.063
 1860TIP3   OH2 5522   3.559   6.879   5.185
 1860TIP3    H1 5523   3.494   6.890   5.254
 1860TIP3    H2 5524   3.547   6.956   5.128
 1861TIP3   OH2 5525   0.292   4.503   6.306
 1861TIP3    H1 5526   0.254   4.439   6.367
 1861TIP3    H2 5527   0.354   4.553   6.359
 1862TIP3   OH2 5528   7.445   2.964   0.756
 1862TIP3    H1 5529   7.474   3.053   0.739
 1862TIP3    H2 5530   7.355   2.974   0.789
 1863TIP3   OH2 5531   0.500   4.353   2.727
 1863TIP3    H1 5532   0.544   4.332   2.810
 1863TIP3    H2 5533   0.455   4.272   2.703
 1864TIP3   OH2 5534   0.655   3.194   4.548
 1864TIP3    H1 5535   0.669   3.124   4.612
 1864TIP3    H2 5536   0.600   3.258   4.594
 1865TIP3   OH2 5537   2.236   3.673   4.906
 1865TIP3    H1 5538   2.331   3.665   4.895
 1865TIP3    H2 5539   2.218   3.631   4.990
 1866TIP3   OH2 5540   6.858   1.763   2.707
 1866TIP3    H1 5541   6.868   1.764   2.802
 1866TIP3    H2 5542   6.793   1.832   2.690
 1867TIP3   OH2 5543   4.535   5.392   6.674
 1867TIP3    H1 5544   4.588   5.355   6.603
 1867TIP3    H2 5545   4.509   5.316   6.727
 1868TIP3   OH2 5546   7.008   5.447   4.242
 1868TIP3    H1 5547   6.946   5.502   4.291
 1868TIP3    H2 5548   6.976   5.450   4.152
 1869TIP3   OH2 5549   1.128   7.575   6.485
 1869TIP3    H1 5550   1.086   7.490   6.476
 1869TIP3    H2 5551   1.185   7.583   6.409
 1870TIP3   OH2 5552   3.739   5.802   1.909
 1870TIP3    H1 5553   3.747   5.843   1.995
 1870TIP3    H2 5554   3.829   5.781   1.884
 1871TIP3   OH2 5555   7.473   1.489   1.232
 1871TIP3    H1 5556   7.564   1.475   1.256
 1871TIP3    H2 5557   7.476   1.554   1.162
 1872TIP3   OH2 5558   2.204   3.312   3.243
 1872TIP3    H1 5559   2.281   3.257   3.253
 1872TIP3    H2 5560   2.182   3.339   3.332
 1873TIP3   OH2 5561   2.937   3.407   4.966
 1873TIP3    H1 5562   3.026   3.382   4.989
 1873TIP3    H2 5563   2.886   3.327   4.980
 1874TIP3   OH2 5564   4.730   5.531   0.019
 1874TIP3    H1 5565   4.755   5.472   0.091
 1874TIP3    H2 5566   4.813   5.570  -0.010
 1875TIP3   OH2 5567   1.321   4.962   5.288
 1875TIP3    H1 5568   1.271   4.967   5.370
 1875TIP3    H2 5569   1.412   4.978   5.314
 1876TIP3   OH2 5570   4.449   2.920   4.735
 1876TIP3    H1 5571   4.461   2.937   4.641
 1876TIP3    H2 5572   4.510   2.981   4.778
 1877TIP3   OH2 5573   3.643   7.343   2.689
 1877TIP3    H1 5574   3.563   7.292   2.676
 1877TIP3    H2 5575   3.712   7.277   2.697
 1878TIP3   OH2 5576   1.976   7.065   3.882
 1878TIP3    H1 5577   1.891   7.037   3.916
 1878TIP3    H2 5578   2.022   7.099   3.959
 1879TIP3   OH2 5579   6.126   2.381   6.035
 1879TIP3    H1 5580   6.181   2.381   5.956
 1879TIP3    H2 5581   6.037   2.381   6.001
 1880TIP3   OH2 5582   3.085   2.590   2.004
 1880TIP3    H1 5583   3.039   2.658   2.053
 1880TIP3    H2 5584   3.119   2.634   1.927
 1881TIP3   OH2 5585   6.811   2.774   5.195
 1881TIP3    H1 5586   6.893   2.786   5.243
 1881TIP3    H2 5587   6.835   2.784   5.103
 1882TIP3   OH2 5588   3.798   0.163   0.194
 1882TIP3    H1 5589   3.775   0.092   0.133
 1882TIP3    H2 5590   3.714   0.194   0.226
 1883TIP3   OH2 5591   7.528   1.725   2.362
 1883TIP3    H1 5592   7.486   1.642   2.341
 1883TIP3    H2 5593   7.484   1.789   2.305
 1884TIP3   OH2 5594   0.847   5.006   1.688
 1884TIP3    H1 5595   0.763   5.051   1.678
 1884TIP3    H2 5596   0.893   5.057   1.755
 1885TIP3   OH2 5597   3.604   3.310   5.509
 1885TIP3    H1 5598   3.664   3.318   5.435
 1885TIP3    H2 5599   3.654   3.341   5.585
 1886TIP3   OH2 5600   0.973   0.225   3.625
 1886TIP3    H1 5601   1.043   0.278   3.663
 1886TIP3    H2 5602   0.916   0.204   3.699
 1887TIP3   OH2 5603   1.967   3.110   1.323
 1887TIP3    H1 5604   1.933   3.198   1.337
 1887TIP3    H2 5605   2.054   3.111   1.361
 1888TIP3   OH2 5606   7.811   0.178   4.117
 1888TIP3    H1 5607   7.846   0.265   4.097
 1888TIP3    H2 5608   7.726   0.176   4.074
 1889TIP3   OH2 5609   6.940   0.861   5.368
 1889TIP3    H1 5610   6.986   0.844   5.450
 1889TIP3    H2 5611   6.992   0.929   5.325
 1890TIP3   OH2 5612   3.879   7.258   5.268
 1890TIP3    H1 5613   3.922   7.174   5.280
 1890TIP3    H2 5614   3.870   7.293   5.357
 1891TIP3   OH2 5615   3.086   6.815   1.532
 1891TIP3    H1 5616   3.157   6.869   1.496
 1891TIP3    H2 5617   3.124   6.776   1.611
 1892TIP3   OH2 5618   8.029   6.886   2.564
 1892TIP3    H1 5619   8.068   6.946   2.501
 1892TIP3    H2 5620   7.937   6.912   2.569
 1893TIP3   OH2 5621   1.883   1.675   0.087
 1893TIP3    H1 5622   1.799   1.659   0.131
 1893TIP3    H2 5623   1.896   1.600   0.030
 1894TIP3   OH2 5624   0.764   3.464   5.108
 1894TIP3    H1 5625   0.683   3.509   5.134
 1894TIP3    H2 5626   0.834   3.524   5.134
 1895TIP3   OH2 5627   3.555   2.450   4.790
 1895TIP3    H1 5628   3.519   2.532   4.756
 1895TIP3    H2 5629   3.644   2.472   4.817
 1896TIP3   OH2 5630   8.069   5.582   1.981
 1896TIP3    H1 5631   8.155   5.608   1.948
 1896TIP3    H2 5632   8.088   5.523   2.054
 1897TIP3   OH2 5633   7.382   4.147   1.013
 1897TIP3    H1 5634   7.436   4.218   0.979
 1897TIP3    H2 5635   7.401   4.145   1.107
 1898TIP3   OH2 5636   5.798   3.486   6.296
 1898TIP3    H1 5637   5.863   3.458   6.232
 1898TIP3    H2 5638   5.816   3.579   6.310
 1899TIP3   OH2 5639   3.703   1.506   0.122
 1899TIP3    H1 5640   3.768   1.462   0.068
 1899TIP3    H2 5641   3.621   1.461   0.104
 1900TIP3   OH2 5642   0.078   3.434   5.737
 1900TIP3    H1 5643   0.152   3.430   5.798
 1900TIP3    H2 5644   0.100   3.507   5.679
 1901TIP3   OH2 5645   4.272   4.641   0.874
 1901TIP3    H1 5646   4.202   4.605   0.819
 1901TIP3    H2 5647   4.230   4.713   0.922
 1902TIP3   OH2 5648   5.203   1.931   3.857
 1902TIP3    H1 5649   5.211   1.983   3.937
 1902TIP3    H2 5650   5.226   1.842   3.884
 1903TIP3   OH2 5651   7.797   7.455   3.143
 1903TIP3    H1 5652   7.767   7.375   3.099
 1903TIP3    H2 5653   7.886   7.468   3.111
 1904TIP3   OH2 5654   4.275   7.309   4.806
 1904TIP3    H1 5655   4.217   7.275   4.738
 1904TIP3    H2 5656   4.265   7.404   4.802
 1905TIP3   OH2 5657   5.371   7.532   0.742
 1905TIP3    H1 5658   5.369   7.449   0.790
 1905TIP3    H2 5659   5.419   7.511   0.661
 1906TIP3   OH2 5660   8.286   1.311   2.233
 1906TIP3    H1 5661   8.265   1.403   2.219
 1906TIP3    H2 5662   8.202   1.269   2.252
 1907TIP3   OH2 5663   8.005   7.110   2.871
 1907TIP3    H1 5664   8.075   7.045   2.866
 1907TIP3    H2 5665   8.037   7.185   2.821
 1908TIP3   OH2 5666   6.068   5.229   6.264
 1908TIP3    H1 5667   6.084   5.285   6.341
 1908TIP3    H2 5668   6.156   5.215   6.228
 1909TIP3   OH2 5669   1.015   4.832   5.273
 1909TIP3    H1 5670   1.062   4.884   5.208
 1909TIP3    H2 5671   1.079   4.820   5.344
 1910TIP3   OH2 5672   5.859   2.766   3.417
 1910TIP3    H1 5673   5.938   2.795   3.463
 1910TIP3    H2 5674   5.835   2.842   3.363
 1911TIP3   OH2 5675   2.071   5.854   0.599
 1911TIP3    H1 5676   2.044   5.862   0.690
 1911TIP3    H2 5677   2.149   5.908   0.592
 1912TIP3   OH2 5678   0.678   1.665   3.671
 1912TIP3    H1 5679   0.729   1.731   3.625
 1912TIP3    H2 5680   0.661   1.704   3.757
 1913TIP3   OH2 5681   4.414   5.430   1.540
 1913TIP3    H1 5682   4.388   5.417   1.449
 1913TIP3    H2 5683   4.332   5.439   1.588
 1914TIP3   OH2 5684   6.194   7.755   1.181
 1914TIP3    H1 5685   6.283   7.751   1.214
 1914TIP3    H2 5686   6.203   7.748   1.086
 1915TIP3   OH2 5687   4.862   7.392   2.473
 1915TIP3    H1 5688   4.872   7.483   2.444
 1915TIP3    H2 5689   4.895   7.340   2.400
 1916TIP3   OH2 5690   0.675   0.827   2.707
 1916TIP3    H1 5691   0.719   0.909   2.727
 1916TIP3    H2 5692   0.745   0.764   2.695
 1917TIP3   OH2 5693   2.570   2.808   1.749
 1917TIP3    H1 5694   2.627   2.736   1.720
 1917TIP3    H2 5695   2.622   2.856   1.812
 1918TIP3   OH2 5696   7.417   6.451   0.269
 1918TIP3    H1 5697   7.441   6.525   0.324
 1918TIP3    H2 5698   7.497   6.398   0.263
 1919TIP3   OH2 5699   7.253   1.972   4.695
 1919TIP3    H1 5700   7.334   1.986   4.744
 1919TIP3    H2 5701   7.197   2.046   4.718
 1920TIP3   OH2 5702   4.276   2.189   4.419
 1920TIP3    H1 5703   4.240   2.272   4.388
 1920TIP3    H2 5704   4.370   2.205   4.427
 1921TIP3   OH2 5705   7.550   4.809   6.724
 1921TIP3    H1 5706   7.636   4.772   6.743
 1921TIP3    H2 5707   7.508   4.819   6.810
 1922TIP3   OH2 5708   7.243   6.669   1.839
 1922TIP3    H1 5709   7.157   6.699   1.807
 1922TIP3    H2 5710   7.257   6.721   1.919
 1923TIP3   OH2 5711   1.864   6.789   0.371
 1923TIP3    H1 5712   1.875   6.838   0.290
 1923TIP3    H2 5713   1.894   6.701   0.350
 1924TIP3   OH2 5714   6.404   7.530   1.105
 1924TIP3    H1 5715   6.404   7.441   1.070
 1924TIP3    H2 5716   6.334   7.575   1.059
 1925TIP3   OH2 5717   8.243   3.910   3.796
 1925TIP3    H1 5718   8.154   3.876   3.803
 1925TIP3    H2 5719   8.297   3.846   3.841
 1926TIP3   OH2 5720   4.479   2.636   6.384
 1926TIP3    H1 5721   4.570   2.608   6.370
 1926TIP3    H2 5722   4.428   2.555   6.373
 1927TIP3   OH2 5723   3.709   1.114   6.230
 1927TIP3    H1 5724   3.740   1.147   6.145
 1927TIP3    H2 5725   3.748   1.026   6.235
 1928TIP3   OH2 5726   4.798   1.393   4.309
 1928TIP3    H1 5727   4.876   1.351   4.346
 1928TIP3    H2 5728   4.725   1.346   4.348
 1929TIP3   OH2 5729   3.890   0.502   0.528
 1929TIP3    H1 5730   3.971   0.552   0.538
 1929TIP3    H2 5731   3.836   0.530   0.602
 1930TIP3   OH2 5732   3.371   0.060   6.207
 1930TIP3    H1 5733   3.385   0.104   6.123
 1930TIP3    H2 5734   3.457   0.062   6.250
 1931TIP3   OH2 5735   7.211   6.907   3.780
 1931TIP3    H1 5736   7.153   6.832   3.770
 1931TIP3    H2 5737   7.201   6.933   3.871
 1932TIP3   OH2 5738   5.034   0.610   2.839
 1932TIP3    H1 5739   5.109   0.613   2.780
 1932TIP3    H2 5740   4.983   0.688   2.818
 1933TIP3   OH2 5741   1.788   4.558   5.838
 1933TIP3    H1 5742   1.751   4.605   5.763
 1933TIP3    H2 5743   1.722   4.492   5.859
 1934TIP3   OH2 5744   6.469   3.857   6.430
 1934TIP3    H1 5745   6.523   3.778   6.424
 1934TIP3    H2 5746   6.451   3.866   6.523
 1935TIP3   OH2 5747   3.620   5.019   2.426
 1935TIP3    H1 5748   3.548   5.051   2.371
 1935TIP3    H2 5749   3.637   4.931   2.393
 1936TIP3   OH2 5750   6.990   3.824   0.225
 1936TIP3    H1 5751   6.927   3.756   0.249
 1936TIP3    H2 5752   6.995   3.881   0.301
 1937TIP3   OH2 5753   6.710   0.913   1.946
 1937TIP3    H1 5754   6.709   0.952   2.034
 1937TIP3    H2 5755   6.772   0.967   1.897
 1938TIP3   OH2 5756   0.477   3.669   2.941
 1938TIP3    H1 5757   0.462   3.660   3.035
 1938TIP3    H2 5758   0.555   3.725   2.934
 1939TIP3   OH2 5759   5.357   0.635   0.696
 1939TIP3    H1 5760   5.304   0.617   0.774
 1939TIP3    H2 5761   5.295   0.631   0.623
 1940TIP3   OH2 5762   6.197   7.392   6.621
 1940TIP3    H1 5763   6.231   7.448   6.551
 1940TIP3    H2 5764   6.242   7.309   6.609
 1941TIP3   OH2 5765   5.917   5.364   4.710
 1941TIP3    H1 5766   5.994   5.405   4.671
 1941TIP3    H2 5767   5.949   5.321   4.789
 1942TIP3   OH2 5768   4.515   6.651   3.073
 1942TIP3    H1 5769   4.505   6.635   2.979
 1942TIP3    H2 5770   4.476   6.574   3.114
 1943TIP3   OH2 5771   3.414   5.362   0.041
 1943TIP3    H1 5772   3.396   5.400  -0.045
 1943TIP3    H2 5773   3.359   5.413   0.101
 1944TIP3   OH2 5774   3.285   2.517   1.291
 1944TIP3    H1 5775   3.325   2.467   1.220
 1944TIP3    H2 5776   3.193   2.525   1.267
 1945TIP3   OH2 5777   0.178   0.255   4.832
 1945TIP3    H1 5778   0.240   0.276   4.762
 1945TIP3    H2 5779   0.096   0.296   4.805
 1946TIP3   OH2 5780   6.125   0.003   3.131
 1946TIP3    H1 5781   6.093   0.082   3.174
 1946TIP3    H2 5782   6.187   0.035   3.065
 1947TIP3   OH2 5783   1.228   3.781   5.197
 1947TIP3    H1 5784   1.286   3.857   5.193
 1947TIP3    H2 5785   1.222   3.760   5.290
 1948TIP3   OH2 5786   4.234   5.561   3.859
 1948TIP3    H1 5787   4.156   5.565   3.803
 1948TIP3    H2 5788   4.204   5.516   3.938
 1949TIP3   OH2 5789   3.872   6.544   3.030
 1949TIP3    H1 5790   3.852   6.451   3.041
 1949TIP3    H2 5791   3.967   6.548   3.040
 1950TIP3   OH2 5792   0.124   0.715   3.420
 1950TIP3    H1 5793   0.100   0.761   3.340
 1950TIP3    H2 5794   0.086   0.767   3.491
 1951TIP3   OH2 5795   5.160   5.336   4.979
 1951TIP3    H1 5796   5.246   5.307   5.008
 1951TIP3    H2 5797   5.109   5.346   5.060
 1952TIP3   OH2 5798   4.220   7.557   4.736
 1952TIP3    H1 5799   4.281   7.623   4.704
 1952TIP3    H2 5800   4.151   7.553   4.669
 1953TIP3   OH2 5801   6.092   7.069   0.684
 1953TIP3    H1 5802   6.059   6.994   0.637
 1953TIP3    H2 5803   6.141   7.119   0.619
 1954TIP3   OH2 5804   0.373   2.739   2.841
 1954TIP3    H1 5805   0.336   2.761   2.755
 1954TIP3    H2 5806   0.430   2.813   2.862
 1955TIP3   OH2 5807   0.163   5.935   6.324
 1955TIP3    H1 5808   0.105   5.957   6.251
 1955TIP3    H2 5809   0.244   5.983   6.306
 1956TIP3   OH2 5810   8.117   1.121   4.635
 1956TIP3    H1 5811   8.166   1.143   4.556
 1956TIP3    H2 5812   8.086   1.206   4.668
 1957TIP3   OH2 5813   7.738   5.033   2.998
 1957TIP3    H1 5814   7.789   5.094   3.052
 1957TIP3    H2 5815   7.799   4.961   2.979
 1958TIP3   OH2 5816   7.808   6.633   5.145
 1958TIP3    H1 5817   7.835   6.554   5.098
 1958TIP3    H2 5818   7.768   6.601   5.226
 1959TIP3   OH2 5819   5.816   4.422   3.643
 1959TIP3    H1 5820   5.896   4.415   3.593
 1959TIP3    H2 5821   5.819   4.350   3.706
 1960TIP3   OH2 5822   6.982   1.244   5.112
 1960TIP3    H1 5823   6.917   1.239   5.042
 1960TIP3    H2 5824   7.030   1.325   5.093
 1961TIP3   OH2 5825   4.059   7.469   1.821
 1961TIP3    H1 5826   4.130   7.418   1.781
 1961TIP3    H2 5827   4.044   7.427   1.905
 1962TIP3   OH2 5828   6.728   2.819   3.377
 1962TIP3    H1 5829   6.684   2.903   3.388
 1962TIP3    H2 5830   6.803   2.838   3.321
 1963TIP3   OH2 5831   3.262   6.683   0.780
 1963TIP3    H1 5832   3.298   6.653   0.696
 1963TIP3    H2 5833   3.236   6.602   0.825
 1964TIP3   OH2 5834   7.139   4.877  -0.009
 1964TIP3    H1 5835   7.105   4.826   0.065
 1964TIP3    H2 5836   7.233   4.857  -0.010
 1965TIP3   OH2 5837   0.535   2.494   2.625
 1965TIP3    H1 5838   0.476   2.435   2.672
 1965TIP3    H2 5839   0.478   2.542   2.565
 1966TIP3   OH2 5840   1.728   6.611   1.173
 1966TIP3    H1 5841   1.744   6.527   1.132
 1966TIP3    H2 5842   1.694   6.667   1.103
 1967TIP3   OH2 5843   3.438   5.335   5.221
 1967TIP3    H1 5844   3.417   5.427   5.208
 1967TIP3    H2 5845   3.389   5.289   5.153
 1968TIP3   OH2 5846   2.077   7.333   3.895
 1968TIP3    H1 5847   2.127   7.276   3.954
 1968TIP3    H2 5848   2.135   7.348   3.821
 1969TIP3   OH2 5849   5.653   1.847   4.749
 1969TIP3    H1 5850   5.645   1.754   4.727
 1969TIP3    H2 5851   5.741   1.856   4.783
 1970TIP3   OH2 5852   0.308   1.218   1.742
 1970TIP3    H1 5853   0.274   1.308   1.738
 1970TIP3    H2 5854   0.371   1.219   1.814
 1971TIP3   OH2 5855   1.312   6.021   2.105
 1971TIP3    H1 5856   1.221   6.042   2.126
 1971TIP3    H2 5857   1.356   6.106   2.103
 1972TIP3   OH2 5858   6.931   1.574   0.685
 1972TIP3    H1 5859   6.985   1.574   0.764
 1972TIP3    H2 5860   6.857   1.631   0.707
 1973TIP3   OH2 5861   2.884   3.041   1.415
 1973TIP3    H1 5862   2.960   3.033   1.357
 1973TIP3    H2 5863   2.915   3.097   1.487
 1974TIP3   OH2 5864   1.500   1.927   1.459
 1974TIP3    H1 5865   1.451   1.885   1.388
 1974TIP3    H2 5866   1.525   2.012   1.424
 1975TIP3   OH2 5867   7.122   4.998   2.298
 1975TIP3    H1 5868   7.056   5.005   2.229
 1975TIP3    H2 5869   7.156   5.087   2.307
 1976TIP3   OH2 5870   3.832   2.546   0.758
 1976TIP3    H1 5871   3.840   2.558   0.663
 1976TIP3    H2 5872   3.749   2.588   0.781
 1977TIP3   OH2 5873   5.444   3.829   2.271
 1977TIP3    H1 5874   5.390   3.810   2.195
 1977TIP3    H2 5875   5.383   3.832   2.344
 1978TIP3   OH2 5876   0.983   6.969   2.308
 1978TIP3    H1 5877   0.891   6.943   2.312
 1978TIP3    H2 5878   0.998   7.020   2.388
 1979TIP3   OH2 5879   1.488   3.410   1.918
 1979TIP3    H1 5880   1.445   3.324   1.916
 1979TIP3    H2 5881   1.572   3.397   1.875
 1980TIP3   OH2 5882   1.454   2.310   1.822
 1980TIP3    H1 5883   1.374   2.287   1.775
 1980TIP3    H2 5884   1.520   2.250   1.787
 1981TIP3   OH2 5885   2.416   0.818   6.743
 1981TIP3    H1 5886   2.378   0.850   6.661
 1981TIP3    H2 5887   2.415   0.723   6.735
 1982TIP3   OH2 5888   0.738   1.202   2.330
 1982TIP3    H1 5889   0.664   1.234   2.382
 1982TIP3    H2 5890   0.697   1.155   2.257
 1983TIP3   OH2 5891   2.959   7.183   5.647
 1983TIP3    H1 5892   2.976   7.269   5.609
 1983TIP3    H2 5893   2.957   7.198   5.741
 1984TIP3   OH2 5894   6.729   2.097   1.958
 1984TIP3    H1 5895   6.677   2.034   1.908
 1984TIP3    H2 5896   6.820   2.073   1.938
 1985TIP3   OH2 5897   2.851   5.744   3.833
 1985TIP3    H1 5898   2.933   5.754   3.883
 1985TIP3    H2 5899   2.879   5.734   3.742
 1986TIP3   OH2 5900   4.347   1.613   6.450
 1986TIP3    H1 5901   4.270   1.596   6.396
 1986TIP3    H2 5902   4.369   1.704   6.432
 1987TIP3   OH2 5903   5.551   7.416   3.099
 1987TIP3    H1 5904   5.495   7.466   3.159
 1987TIP3    H2 5905   5.516   7.436   3.012
 1988TIP3   OH2 5906   2.539   7.701   1.745
 1988TIP3    H1 5907   2.484   7.748   1.681
 1988TIP3    H2 5908   2.585   7.636   1.692
 1989TIP3   OH2 5909   0.243   3.921   4.583
 1989TIP3    H1 5910   0.276   4.008   4.559
 1989TIP3    H2 5911   0.167   3.939   4.639
 1990TIP3   OH2 5912   3.199   0.716   2.040
 1990TIP3    H1 5913   3.173   0.712   2.132
 1990TIP3    H2 5914   3.219   0.809   2.026
 1991TIP3   OH2 5915   4.950   4.657   4.260
 1991TIP3    H1 5916   4.940   4.568   4.227
 1991TIP3    H2 5917   4.865   4.698   4.244
 1992TIP3   OH2 5918   2.075   2.746   4.059
 1992TIP3    H1 5919   2.108   2.809   4.122
 1992TIP3    H2 5920   2.007   2.794   4.011
 1993TIP3   OH2 5921   8.058   5.050   2.541
 1993TIP3    H1 5922   8.068   5.010   2.455
 1993TIP3    H2 5923   8.007   4.987   2.592
 1994TIP3   OH2 5924   3.991   6.645   5.663
 1994TIP3    H1 5925   4.008   6.661   5.570
 1994TIP3    H2 5926   3.948   6.724   5.694
 1995TIP3   OH2 5927   6.053   0.588   1.330
 1995TIP3    H1 5928   5.986   0.519   1.336
 1995TIP3    H2 5929   6.131   0.549   1.369
 1996TIP3   OH2 5930   5.680   1.056   4.910
 1996TIP3    H1 5931   5.688   1.113   4.987
 1996TIP3    H2 5932   5.746   1.088   4.849
 1997TIP3   OH2 5933   8.195   0.795   0.885
 1997TIP3    H1 5934   8.235   0.820   0.968
 1997TIP3    H2 5935   8.104   0.773   0.908
 1998TIP3   OH2 5936   4.056   6.687   5.109
 1998TIP3    H1 5937   3.962   6.702   5.121
 1998TIP3    H2 5938   4.063   6.603   5.064
 1999TIP3   OH2 5939   1.063   3.696   1.256
 1999TIP3    H1 5940   1.117   3.728   1.327
 1999TIP3    H2 5941   1.124   3.650   1.198
 2000TIP3   OH2 5942   7.643   5.805   0.457
 2000TIP3    H1 5943   7.651   5.895   0.487
 2000TIP3    H2 5944   7.698   5.754   0.516
 2001TIP3   OH2 5945   5.162   5.120   1.867
 2001TIP3    H1 5946   5.100   5.113   1.794
 2001TIP3    H2 5947   5.132   5.196   1.917
 2002TIP3   OH2 5948   7.815   7.167   1.008
 2002TIP3    H1 5949   7.898   7.151   1.053
 2002TIP3    H2 5950   7.778   7.080   0.996
 2003TIP3   OH2 5951   5.764   2.432   1.110
 2003TIP3    H1 5952   5.859   2.432   1.103
 2003TIP3    H2 5953   5.737   2.349   1.069
 2004TIP3   OH2 5954   8.175   3.699   4.221
 2004TIP3    H1 5955   8.239   3.769   4.211
 2004TIP3    H2 5956   8.092   3.745   4.236
 2005TIP3   OH2 5957   0.479   6.244   5.391
 2005TIP3    H1 5958   0.467   6.226   5.298
 2005TIP3    H2 5959   0.391   6.232   5.428
 2006TIP3   OH2 5960   6.912   7.008   0.676
 2006TIP3    H1 5961   6.817   7.012   0.679
 2006TIP3    H2 5962   6.935   6.932   0.730
 2007TIP3   OH2 5963   0.084   6.872   1.484
 2007TIP3    H1 5964   0.133   6.812   1.427
 2007TIP3    H2 5965   0.096   6.837   1.572
 2008TIP3   OH2 5966   2.645   0.804   1.990
 2008TIP3    H1 5967   2.740   0.796   1.990
 2008TIP3    H2 5968   2.614   0.722   1.950
 2009TIP3   OH2 5969   6.477   4.374   2.113
 2009TIP3    H1 5970   6.430   4.420   2.183
 2009TIP3    H2 5971   6.465   4.429   2.036
 2010TIP3   OH2 5972   0.399   7.161   6.144
 2010TIP3    H1 5973   0.394   7.164   6.049
 2010TIP3    H2 5974   0.398   7.253   6.171
 2011TIP3   OH2 5975   3.894   2.145   2.912
 2011TIP3    H1 5976   3.841   2.082   2.960
 2011TIP3    H2 5977   3.974   2.097   2.890
 2012TIP3   OH2 5978   3.815   5.494   5.861
 2012TIP3    H1 5979   3.883   5.558   5.884
 2012TIP3    H2 5980   3.776   5.529   5.781
 2013TIP3   OH2 5981   3.222   0.656   5.884
 2013TIP3    H1 5982   3.306   0.695   5.860
 2013TIP3    H2 5983   3.172   0.729   5.922
 2014TIP3   OH2 5984   5.768   6.962   2.338
 2014TIP3    H1 5985   5.730   6.876   2.316
 2014TIP3    H2 5986   5.692   7.017   2.357
 2015TIP3   OH2 5987   7.403   4.381   0.290
 2015TIP3    H1 5988   7.428   4.295   0.256
 2015TIP3    H2 5989   7.485   4.419   0.323
 2016TIP3   OH2 5990   7.986   5.154   4.338
 2016TIP3    H1 5991   7.895   5.127   4.355
 2016TIP3    H2 5992   7.977   5.236   4.288
 2017TIP3   OH2 5993   1.825   2.490   5.870
 2017TIP3    H1 5994   1.848   2.543   5.946
 2017TIP3    H2 5995   1.851   2.543   5.795
 2018TIP3   OH2 5996   1.249   5.616   3.054
 2018TIP3    H1 5997   1.203   5.542   3.013
 2018TIP3    H2 5998   1.198   5.636   3.132
 2019TIP3   OH2 5999   7.792   1.001   5.619
 2019TIP3    H1 6000   7.864   0.964   5.568
 2019TIP3    H2 6001   7.832   1.072   5.669
 2020TIP3   OH2 6002   0.252   1.542   0.492
 2020TIP3    H1 6003   0.174   1.572   0.444
 2020TIP3    H2 6004   0.227   1.547   0.584
 2021TIP3   OH2 6005   8.216   5.982   1.182
 2021TIP3    H1 6006   8.146   6.037   1.148
 2021TIP3    H2 6007   8.197   5.971   1.275
 2022TIP3   OH2 6008   2.376   4.354   2.138
 2022TIP3    H1 6009   2.459   4.390   2.109
 2022TIP3    H2 6010   2.399   4.274   2.185
 2023TIP3   OH2 6011   5.669   5.058   6.256
 2023TIP3    H1 6012   5.693   4.966   6.266
 2023TIP3    H2 6013   5.727   5.091   6.187
 2024TIP3   OH2 6014   5.673   4.160   0.415
 2024TIP3    H1 6015   5.711   4.101   0.350
 2024TIP3    H2 6016   5.738   4.229   0.426
 2025TIP3   OH2 6017   3.568   6.982   1.575
 2025TIP3    H1 6018   3.636   7.012   1.514
 2025TIP3    H2 6019   3.597   7.014   1.660
 2026TIP3   OH2 6020   8.149   4.672   4.740
 2026TIP3    H1 6021   8.172   4.579   4.738
 2026TIP3    H2 6022   8.073   4.679   4.683
 2027TIP3   OH2 6023   1.906   5.154   6.258
 2027TIP3    H1 6024   1.880   5.163   6.166
 2027TIP3    H2 6025   1.854   5.080   6.290
 2028TIP3   OH2 6026   3.647   4.111   5.970
 2028TIP3    H1 6027   3.553   4.102   5.982
 2028TIP3    H2 6028   3.686   4.048   6.031
 2029TIP3   OH2 6029   5.174   1.708   6.634
 2029TIP3    H1 6030   5.139   1.733   6.719
 2029TIP3    H2 6031   5.184   1.613   6.640
 2030TIP3   OH2 6032   3.252   7.409   0.689
 2030TIP3    H1 6033   3.183   7.349   0.662
 2030TIP3    H2 6034   3.259   7.471   0.616
 2031TIP3   OH2 6035   5.489   4.477   3.456
 2031TIP3    H1 6036   5.413   4.464   3.399
 2031TIP3    H2 6037   5.552   4.411   3.426
 2032TIP3   OH2 6038   4.119   4.687   6.668
 2032TIP3    H1 6039   4.116   4.594   6.691
 2032TIP3    H2 6040   4.211   4.711   6.675
 2033TIP3   OH2 6041   0.579   2.025   5.934
 2033TIP3    H1 6042   0.612   1.945   5.974
 2033TIP3    H2 6043   0.599   2.094   5.998
 2034TIP3   OH2 6044   5.381   5.902   0.459
 2034TIP3    H1 6045   5.452   5.952   0.418
 2034TIP3    H2 6046   5.395   5.813   0.429
 2035TIP3   OH2 6047   7.213   0.260   5.375
 2035TIP3    H1 6048   7.304   0.285   5.388
 2035TIP3    H2 6049   7.217   0.191   5.309
 2036TIP3   OH2 6050   0.088   0.997   0.510
 2036TIP3    H1 6051   0.175   0.958   0.508
 2036TIP3    H2 6052   0.036   0.943   0.449
 2037TIP3   OH2 6053   0.284   2.613   4.307
 2037TIP3    H1 6054   0.376   2.623   4.331
 2037TIP3    H2 6055   0.239   2.683   4.353
 2038TIP3   OH2 6056   2.672   6.127   5.587
 2038TIP3    H1 6057   2.689   6.054   5.528
 2038TIP3    H2 6058   2.589   6.164   5.556
 2039TIP3   OH2 6059   6.884   6.826   1.517
 2039TIP3    H1 6060   6.853   6.809   1.607
 2039TIP3    H2 6061   6.978   6.809   1.521
 2040TIP3   OH2 6062   3.519   3.997   1.186
 2040TIP3    H1 6063   3.540   3.920   1.133
 2040TIP3    H2 6064   3.534   3.968   1.276
 2041TIP3   OH2 6065   3.832   3.719   3.227
 2041TIP3    H1 6066   3.825   3.687   3.317
 2041TIP3    H2 6067   3.915   3.684   3.196
 2042TIP3   OH2 6068   6.939   0.682   1.902
 2042TIP3    H1 6069   6.984   0.598   1.915
 2042TIP3    H2 6070   6.969   0.736   1.975
 2043TIP3   OH2 6071   4.847   5.666   5.433
 2043TIP3    H1 6072   4.879   5.753   5.456
 2043TIP3    H2 6073   4.776   5.649   5.494
 2044TIP3   OH2 6074   6.243   0.449   3.999
 2044TIP3    H1 6075   6.250   0.392   4.075
 2044TIP3    H2 6076   6.333   0.466   3.973
 2045TIP3   OH2 6077   7.299   0.739   4.391
 2045TIP3    H1 6078   7.269   0.674   4.455
 2045TIP3    H2 6079   7.356   0.797   4.441
 2046TIP3   OH2 6080   3.484   1.896   4.423
 2046TIP3    H1 6081   3.575   1.925   4.430
 2046TIP3    H2 6082   3.481   1.812   4.469
 2047TIP3   OH2 6083   2.897   3.122   3.285
 2047TIP3    H1 6084   2.821   3.146   3.233
 2047TIP3    H2 6085   2.967   3.107   3.221
 2048TIP3   OH2 6086   3.683   2.164   2.547
 2048TIP3    H1 6087   3.722   2.176   2.460
 2048TIP3    H2 6088   3.589   2.159   2.532
 2049TIP3   OH2 6089   4.777   7.571   5.944
 2049TIP3    H1 6090   4.810   7.659   5.926
 2049TIP3    H2 6091   4.753   7.573   6.037
 2050TIP3   OH2 6092   6.337   2.776   5.959
 2050TIP3    H1 6093   6.327   2.870   5.978
 2050TIP3    H2 6094   6.425   2.769   5.923
 2051TIP3   OH2 6095   2.681   3.177   3.800
 2051TIP3    H1 6096   2.647   3.161   3.888
 2051TIP3    H2 6097   2.628   3.122   3.743
 2052TIP3   OH2 6098   6.683   5.172   4.390
 2052TIP3    H1 6099   6.737   5.138   4.319
 2052TIP3    H2 6100   6.744   5.190   4.461
 2053TIP3   OH2 6101   7.488   0.178   6.308
 2053TIP3    H1 6102   7.447   0.097   6.340
 2053TIP3    H2 6103   7.563   0.190   6.366
 2054TIP3   OH2 6104   4.881   4.878   2.550
 2054TIP3    H1 6105   4.880   4.784   2.566
 2054TIP3    H2 6106   4.974   4.900   2.539
 2055TIP3   OH2 6107   6.304   6.514   2.284
 2055TIP3    H1 6108   6.286   6.433   2.235
 2055TIP3    H2 6109   6.227   6.526   2.339
 2056TIP3   OH2 6110   6.718   2.250   6.127
 2056TIP3    H1 6111   6.665   2.172   6.145
 2056TIP3    H2 6112   6.777   2.257   6.203
 2057TIP3   OH2 6113   0.954   4.607   3.854
 2057TIP3    H1 6114   0.904   4.525   3.848
 2057TIP3    H2 6115   0.903   4.662   3.914
 2058TIP3   OH2 6116   6.174   4.750   3.822
 2058TIP3    H1 6117   6.261   4.789   3.833
 2058TIP3    H2 6118   6.113   4.818   3.852
 2059TIP3   OH2 6119   3.576   1.751   5.720
 2059TIP3    H1 6120   3.598   1.715   5.635
 2059TIP3    H2 6121   3.504   1.697   5.752
 2060TIP3   OH2 6122   5.389   4.262   1.372
 2060TIP3    H1 6123   5.338   4.198   1.322
 2060TIP3    H2 6124   5.446   4.209   1.428
 2061TIP3   OH2 6125   3.161   4.749   5.016
 2061TIP3    H1 6126   3.195   4.660   5.006
 2061TIP3    H2 6127   3.149   4.760   5.110
 2062TIP3   OH2 6128   3.075   2.083   5.031
 2062TIP3    H1 6129   3.103   2.100   4.942
 2062TIP3    H2 6130   3.021   2.004   5.024
 2063TIP3   OH2 6131   0.226   5.758   1.530
 2063TIP3    H1 6132   0.136   5.735   1.508
 2063TIP3    H2 6133   0.269   5.773   1.445
 2064TIP3   OH2 6134   3.524   3.645   0.365
 2064TIP3    H1 6135   3.475   3.624   0.444
 2064TIP3    H2 6136   3.472   3.609   0.293
 2065TIP3   OH2 6137   2.522   3.661   3.517
 2065TIP3    H1 6138   2.535   3.739   3.570
 2065TIP3    H2 6139   2.579   3.674   3.441
 2066TIP3   OH2 6140   0.371   4.421   5.409
 2066TIP3    H1 6141   0.372   4.339   5.459
 2066TIP3    H2 6142   0.454   4.464   5.432
 2067TIP3   OH2 6143   7.055   4.039   0.440
 2067TIP3    H1 6144   7.140   4.069   0.470
 2067TIP3    H2 6145   7.030   4.102   0.371
 2068TIP3   OH2 6146   6.698   2.968   0.473
 2068TIP3    H1 6147   6.666   2.964   0.563
 2068TIP3    H2 6148   6.667   3.052   0.440
 2069TIP3   OH2 6149   6.601   4.489   3.957
 2069TIP3    H1 6150   6.680   4.541   3.969
 2069TIP3    H2 6151   6.539   4.548   3.915
 2070TIP3   OH2 6152   8.193   4.460   6.403
 2070TIP3    H1 6153   8.106   4.451   6.364
 2070TIP3    H2 6154   8.200   4.553   6.424
 2071TIP3   OH2 6155   5.034   0.999   1.949
 2071TIP3    H1 6156   5.014   1.088   1.919
 2071TIP3    H2 6157   5.029   1.005   2.045
 2072TIP3   OH2 6158   0.876   3.817   2.425
 2072TIP3    H1 6159   0.886   3.854   2.338
 2072TIP3    H2 6160   0.965   3.809   2.459
 2073TIP3   OH2 6161   3.473   6.019   0.836
 2073TIP3    H1 6162   3.458   6.106   0.874
 2073TIP3    H2 6163   3.436   6.025   0.748
 2074TIP3   OH2 6164   2.086   2.850   2.945
 2074TIP3    H1 6165   2.016   2.816   3.002
 2074TIP3    H2 6166   2.076   2.945   2.951
 2075TIP3   OH2 6167   5.638   0.174   5.563
 2075TIP3    H1 6168   5.688   0.151   5.641
 2075TIP3    H2 6169   5.693   0.239   5.518
 2076TIP3   OH2 6170   1.112   1.844   0.312
 2076TIP3    H1 6171   1.142   1.913   0.371
 2076TIP3    H2 6172   1.172   1.847   0.238
 2077TIP3   OH2 6173   7.051   3.176   3.879
 2077TIP3    H1 6174   7.133   3.131   3.900
 2077TIP3    H2 6175   7.026   3.142   3.794
 2078TIP3   OH2 6176   7.412   7.804   0.072
 2078TIP3    H1 6177   7.418   7.709   0.063
 2078TIP3    H2 6178   7.362   7.818   0.152
 2079TIP3   OH2 6179   6.341   6.028   3.374
 2079TIP3    H1 6180   6.401   6.011   3.301
 2079TIP3    H2 6181   6.336   5.945   3.421
 2080TIP3   OH2 6182   5.259   1.956   2.979
 2080TIP3    H1 6183   5.287   2.038   2.938
 2080TIP3    H2 6184   5.329   1.936   3.042
 2081TIP3   OH2 6185   4.220   6.696   3.553
 2081TIP3    H1 6186   4.130   6.703   3.587
 2081TIP3    H2 6187   4.264   6.773   3.588
 2082TIP3   OH2 6188   7.458   6.222   0.484
 2082TIP3    H1 6189   7.516   6.227   0.409
 2082TIP3    H2 6190   7.485   6.294   0.540
 2083TIP3   OH2 6191   6.796   2.772   1.126
 2083TIP3    H1 6192   6.720   2.735   1.079
 2083TIP3    H2 6193   6.849   2.695   1.149
 2084TIP3   OH2 6194   7.163   6.765   0.448
 2084TIP3    H1 6195   7.071   6.742   0.438
 2084TIP3    H2 6196   7.209   6.705   0.389
 2085TIP3   OH2 6197   7.810   5.811   3.343
 2085TIP3    H1 6198   7.749   5.737   3.339
 2085TIP3    H2 6199   7.878   5.782   3.404
 2086TIP3   OH2 6200   4.643   5.990   0.894
 2086TIP3    H1 6201   4.611   5.983   0.984
 2086TIP3    H2 6202   4.682   6.077   0.888
 2087TIP3   OH2 6203   1.312   4.673   6.202
 2087TIP3    H1 6204   1.300   4.590   6.247
 2087TIP3    H2 6205   1.280   4.739   6.265
 2088TIP3   OH2 6206   2.276   5.258   1.431
 2088TIP3    H1 6207   2.210   5.192   1.451
 2088TIP3    H2 6208   2.327   5.222   1.359
 2089TIP3   OH2 6209   4.422   6.810   4.125
 2089TIP3    H1 6210   4.460   6.751   4.060
 2089TIP3    H2 6211   4.484   6.808   4.198
 2090TIP3   OH2 6212   1.475   2.048   6.444
 2090TIP3    H1 6213   1.501   2.140   6.436
 2090TIP3    H2 6214   1.466   2.034   6.538
 2091TIP3   OH2 6215   3.021   7.781   4.071
 2091TIP3    H1 6216   3.071   7.851   4.113
 2091TIP3    H2 6217   3.031   7.706   4.130
 2092TIP3   OH2 6218   6.436   3.082   0.244
 2092TIP3    H1 6219   6.453   3.174   0.224
 2092TIP3    H2 6220   6.505   3.057   0.306
 2093TIP3   OH2 6221   3.227   6.692   1.736
 2093TIP3    H1 6222   3.308   6.734   1.706
 2093TIP3    H2 6223   3.212   6.729   1.823
 2094TIP3   OH2 6224   3.396   1.889   0.458
 2094TIP3    H1 6225   3.342   1.889   0.537
 2094TIP3    H2 6226   3.448   1.809   0.464
 2095TIP3   OH2 6227   3.966   4.790   6.435
 2095TIP3    H1 6228   4.002   4.876   6.412
 2095TIP3    H2 6229   4.029   4.753   6.496
 2096TIP3   OH2 6230   3.521   1.772   6.058
 2096TIP3    H1 6231   3.557   1.860   6.049
 2096TIP3    H2 6232   3.432   1.779   6.022
 2097TIP3   OH2 6233   7.132   0.225   6.737
 2097TIP3    H1 6234   7.078   0.168   6.792
 2097TIP3    H2 6235   7.201   0.167   6.704
 2098TIP3   OH2 6236   1.787   7.120   4.639
 2098TIP3    H1 6237   1.858   7.144   4.580
 2098TIP3    H2 6238   1.783   7.025   4.634
 2099TIP3   OH2 6239   6.487   5.924   5.713
 2099TIP3    H1 6240   6.503   5.961   5.626
 2099TIP3    H2 6241   6.454   5.835   5.696
 2100TIP3   OH2 6242   0.206   5.972   1.709
 2100TIP3    H1 6243   0.216   5.924   1.627
 2100TIP3    H2 6244   0.158   6.052   1.685
 2101TIP3   OH2 6245   0.887   0.876   5.270
 2101TIP3    H1 6246   0.820   0.810   5.284
 2101TIP3    H2 6247   0.958   0.852   5.329
 2102TIP3   OH2 6248   7.900   4.406   4.493
 2102TIP3    H1 6249   7.909   4.501   4.502
 2102TIP3    H2 6250   7.828   4.394   4.432
 2103TIP3   OH2 6251   2.954   3.964   3.372
 2103TIP3    H1 6252   2.921   3.874   3.370
 2103TIP3    H2 6253   3.014   3.966   3.446
 2104TIP3   OH2 6254   0.588   7.700   5.279
 2104TIP3    H1 6255   0.505   7.714   5.325
 2104TIP3    H2 6256   0.646   7.660   5.344
 2105TIP3   OH2 6257   1.580   7.162   1.262
 2105TIP3    H1 6258   1.562   7.073   1.235
 2105TIP3    H2 6259   1.564   7.163   1.357
 2106TIP3   OH2 6260   6.462   7.037   3.671
 2106TIP3    H1 6261   6.432   6.950   3.701
 2106TIP3    H2 6262   6.397   7.063   3.606
 2107TIP3   OH2 6263   2.173   0.154   6.351
 2107TIP3    H1 6264   2.133   0.135   6.436
 2107TIP3    H2 6265   2.240   0.086   6.341
 2108TIP3   OH2 6266   3.894   4.234   0.803
 2108TIP3    H1 6267   3.946   4.251   0.882
 2108TIP3    H2 6268   3.803   4.242   0.832
 2109TIP3   OH2 6269   6.676   7.760   6.227
 2109TIP3    H1 6270   6.618   7.822   6.182
 2109TIP3    H2 6271   6.763   7.779   6.192
 2110TIP3   OH2 6272   4.589   6.900   3.913
 2110TIP3    H1 6273   4.567   6.808   3.897
 2110TIP3    H2 6274   4.655   6.898   3.982
 2111TIP3   OH2 6275   7.870   1.740   1.324
 2111TIP3    H1 6276   7.789   1.780   1.353
 2111TIP3    H2 6277   7.843   1.663   1.274
 2112TIP3   OH2 6278   2.429   3.817   6.006
 2112TIP3    H1 6279   2.472   3.864   6.077
 2112TIP3    H2 6280   2.367   3.880   5.969
 2113TIP3   OH2 6281   6.691   4.758   2.071
 2113TIP3    H1 6282   6.672   4.850   2.088
 2113TIP3    H2 6283   6.663   4.712   2.150
 2114TIP3   OH2 6284   3.645   0.287   5.588
 2114TIP3    H1 6285   3.642   0.317   5.497
 2114TIP3    H2 6286   3.736   0.260   5.601
 2115TIP3   OH2 6287   6.356   1.164   5.913
 2115TIP3    H1 6288   6.274   1.115   5.921
 2115TIP3    H2 6289   6.397   1.129   5.834
 2116TIP3   OH2 6290   7.012   2.984   1.271
 2116TIP3    H1 6291   7.063   3.046   1.220
 2116TIP3    H2 6292   6.976   2.923   1.206
 2117TIP3   OH2 6293   8.033   3.381   1.370
 2117TIP3    H1 6294   7.994   3.417   1.450
 2117TIP3    H2 6295   8.059   3.292   1.395
 2118TIP3   OH2 6296   1.049   6.278   0.131
 2118TIP3    H1 6297   1.039   6.365   0.170
 2118TIP3    H2 6298   1.054   6.294   0.037
 2119TIP3   OH2 6299   6.321   7.331   3.080
 2119TIP3    H1 6300   6.386   7.281   3.031
 2119TIP3    H2 6301   6.355   7.334   3.169
 2120TIP3   OH2 6302   6.549   1.413   0.852
 2120TIP3    H1 6303   6.594   1.342   0.806
 2120TIP3    H2 6304   6.617   1.452   0.907
 2121TIP3   OH2 6305   0.725   6.883   5.960
 2121TIP3    H1 6306   0.704   6.793   5.937
 2121TIP3    H2 6307   0.743   6.879   6.054
 2122TIP3   OH2 6308   1.986   3.995   4.478
 2122TIP3    H1 6309   1.922   4.060   4.505
 2122TIP3    H2 6310   2.070   4.041   4.480
 2123TIP3   OH2 6311   2.643   4.459   1.585
 2123TIP3    H1 6312   2.734   4.447   1.556
 2123TIP3    H2 6313   2.638   4.551   1.610
 2124TIP3   OH2 6314   1.643   0.114   3.938
 2124TIP3    H1 6315   1.694   0.139   3.860
 2124TIP3    H2 6316   1.602   0.195   3.967
 2125TIP3   OH2 6317   5.356   3.716   0.101
 2125TIP3    H1 6318   5.374   3.800   0.144
 2125TIP3    H2 6319   5.262   3.702   0.113
 2126TIP3   OH2 6320   2.773   2.080   5.231
 2126TIP3    H1 6321   2.792   2.008   5.171
 2126TIP3    H2 6322   2.745   2.151   5.173
 2127TIP3   OH2 6323   5.666   6.577   0.398
 2127TIP3    H1 6324   5.733   6.618   0.344
 2127TIP3    H2 6325   5.680   6.613   0.485
 2128TIP3   OH2 6326   4.953   7.120   4.518
 2128TIP3    H1 6327   4.945   7.186   4.449
 2128TIP3    H2 6328   4.935   7.037   4.474
 2129TIP3   OH2 6329   6.789   3.256   1.932
 2129TIP3    H1 6330   6.712   3.208   1.901
 2129TIP3    H2 6331   6.858   3.231   1.871
 2130TIP3   OH2 6332   7.678   7.531   0.216
 2130TIP3    H1 6333   7.634   7.447   0.230
 2130TIP3    H2 6334   7.771   7.510   0.216
 2131TIP3   OH2 6335   3.708   0.690   5.411
 2131TIP3    H1 6336   3.696   0.748   5.336
 2131TIP3    H2 6337   3.760   0.741   5.474
 2132TIP3   OH2 6338   7.202   3.033   2.941
 2132TIP3    H1 6339   7.225   2.946   2.907
 2132TIP3    H2 6340   7.243   3.094   2.880
 2133TIP3   OH2 6341   1.800   2.611   0.312
 2133TIP3    H1 6342   1.808   2.606   0.407
 2133TIP3    H2 6343   1.757   2.529   0.287
 2134TIP3   OH2 6344   6.201   6.041   2.133
 2134TIP3    H1 6345   6.128   5.981   2.117
 2134TIP3    H2 6346   6.243   6.006   2.212
 2135TIP3   OH2 6347   5.111   5.725   2.442
 2135TIP3    H1 6348   5.181   5.762   2.496
 2135TIP3    H2 6349   5.051   5.797   2.426
 2136TIP3   OH2 6350   0.349   2.464   4.677
 2136TIP3    H1 6351   0.391   2.440   4.759
 2136TIP3    H2 6352   0.421   2.492   4.620
 2137TIP3   OH2 6353   4.005   0.688   6.088
 2137TIP3    H1 6354   4.018   0.746   6.012
 2137TIP3    H2 6355   4.074   0.714   6.149
 2138TIP3   OH2 6356   2.969   6.128   4.742
 2138TIP3    H1 6357   3.061   6.151   4.750
 2138TIP3    H2 6358   2.966   6.033   4.755
 2139TIP3   OH2 6359   1.694   3.867   0.634
 2139TIP3    H1 6360   1.640   3.824   0.701
 2139TIP3    H2 6361   1.671   3.822   0.553
 2140TIP3   OH2 6362   6.157   3.688   0.675
 2140TIP3    H1 6363   6.107   3.639   0.610
 2140TIP3    H2 6364   6.224   3.627   0.706
 2141TIP3   OH2 6365   2.844   4.185   3.752
 2141TIP3    H1 6366   2.820   4.277   3.749
 2141TIP3    H2 6367   2.765   4.139   3.724
 2142TIP3   OH2 6368   3.791   7.580   0.601
 2142TIP3    H1 6369   3.816   7.495   0.565
 2142TIP3    H2 6370   3.854   7.642   0.563
 2143TIP3   OH2 6371   3.349   4.307   5.814
 2143TIP3    H1 6372   3.349   4.229   5.869
 2143TIP3    H2 6373   3.263   4.347   5.829
 2144TIP3   OH2 6374   3.848   7.806   3.036
 2144TIP3    H1 6375   3.759   7.825   3.005
 2144TIP3    H2 6376   3.859   7.713   3.016
 2145TIP3   OH2 6377   6.664   1.041   4.123
 2145TIP3    H1 6378   6.646   0.988   4.200
 2145TIP3    H2 6379   6.663   1.131   4.155
 2146TIP3   OH2 6380   3.741   3.466   1.583
 2146TIP3    H1 6381   3.799   3.416   1.641
 2146TIP3    H2 6382   3.755   3.558   1.608
 2147TIP3   OH2 6383   7.396   5.485   2.404
 2147TIP3    H1 6384   7.434   5.430   2.472
 2147TIP3    H2 6385   7.344   5.550   2.452
 2148TIP3   OH2 6386   5.373   2.972   6.432
 2148TIP3    H1 6387   5.302   3.021   6.474
 2148TIP3    H2 6388   5.337   2.884   6.418
 2149TIP3   OH2 6389   3.648   3.142   1.362
 2149TIP3    H1 6390   3.734   3.119   1.397
 2149TIP3    H2 6391   3.651   3.237   1.351
 2150TIP3   OH2 6392   1.346   0.866   2.774
 2150TIP3    H1 6393   1.344   0.888   2.681
 2150TIP3    H2 6394   1.255   0.844   2.795
 2151TIP3   OH2 6395   2.449   4.625   5.586
 2151TIP3    H1 6396   2.503   4.573   5.645
 2151TIP3    H2 6397   2.415   4.696   5.640
 2152TIP3   OH2 6398   1.868   4.186   6.670
 2152TIP3    H1 6399   1.865   4.107   6.616
 2152TIP3    H2 6400   1.788   4.233   6.647
 2153TIP3   OH2 6401   1.336   4.730   0.120
 2153TIP3    H1 6402   1.322   4.736   0.214
 2153TIP3    H2 6403   1.313   4.817   0.087
 2154TIP3   OH2 6404   3.756   5.237   6.716
 2154TIP3    H1 6405   3.667   5.245   6.751
 2154TIP3    H2 6406   3.759   5.299   6.643
 2155TIP3   OH2 6407   6.465   2.764   3.399
 2155TIP3    H1 6408   6.467   2.708   3.321
 2155TIP3    H2 6409   6.557   2.768   3.426
 2156TIP3   OH2 6410   2.508   0.091   3.565
 2156TIP3    H1 6411   2.601   0.076   3.547
 2156TIP3    H2 6412   2.466   0.007   3.548
 2157TIP3   OH2 6413   6.882   0.985   0.988
 2157TIP3    H1 6414   6.935   0.948   1.059
 2157TIP3    H2 6415   6.837   0.910   0.949
 2158TIP3   OH2 6416   6.246   3.828   3.779
 2158TIP3    H1 6417   6.300   3.753   3.755
 2158TIP3    H2 6418   6.299   3.878   3.841
 2159TIP3   OH2 6419   6.299   2.944   0.592
 2159TIP3    H1 6420   6.390   2.938   0.622
 2159TIP3    H2 6421   6.292   3.032   0.554
 2160TIP3   OH2 6422   7.116   1.120   2.918
 2160TIP3    H1 6423   7.099   1.212   2.899
 2160TIP3    H2 6424   7.211   1.111   2.908
 2161TIP3   OH2 6425   5.718   2.719   0.699
 2161TIP3    H1 6426   5.791   2.737   0.640
 2161TIP3    H2 6427   5.759   2.700   0.783
 2162TIP3   OH2 6428   4.919   4.261   1.585
 2162TIP3    H1 6429   4.912   4.169   1.609
 2162TIP3    H2 6430   4.881   4.308   1.660
 2163TIP3   OH2 6431   2.103   2.296   2.075
 2163TIP3    H1 6432   2.077   2.328   2.161
 2163TIP3    H2 6433   2.022   2.269   2.033
 2164TIP3   OH2 6434   7.204   1.339   3.999
 2164TIP3    H1 6435   7.274   1.300   4.051
 2164TIP3    H2 6436   7.247   1.412   3.953
 2165TIP3   OH2 6437   7.358   1.713   2.617
 2165TIP3    H1 6438   7.419   1.702   2.544
 2165TIP3    H2 6439   7.325   1.802   2.608
 2166TIP3   OH2 6440   1.003   3.049   6.558
 2166TIP3    H1 6441   0.973   3.128   6.513
 2166TIP3    H2 6442   1.098   3.059   6.563
 2167TIP3   OH2 6443   3.274   4.131   0.032
 2167TIP3    H1 6444   3.249   4.099   0.119
 2167TIP3    H2 6445   3.306   4.054  -0.014
 2168TIP3   OH2 6446   1.486   2.733   0.094
 2168TIP3    H1 6447   1.440   2.799   0.042
 2168TIP3    H2 6448   1.417   2.690   0.145
 2169TIP3   OH2 6449   0.961   3.522   5.369
 2169TIP3    H1 6450   0.933   3.574   5.294
 2169TIP3    H2 6451   0.879   3.503   5.416
 2170TIP3   OH2 6452   6.532   2.850   4.872
 2170TIP3    H1 6453   6.604   2.889   4.822
 2170TIP3    H2 6454   6.457   2.905   4.854
 2171TIP3   OH2 6455   1.201   6.451   2.865
 2171TIP3    H1 6456   1.221   6.528   2.812
 2171TIP3    H2 6457   1.150   6.395   2.806
 2172TIP3   OH2 6458   4.261   1.453   5.723
 2172TIP3    H1 6459   4.332   1.394   5.698
 2172TIP3    H2 6460   4.288   1.490   5.807
 2173TIP3   OH2 6461   4.674   5.781   3.753
 2173TIP3    H1 6462   4.745   5.844   3.740
 2173TIP3    H2 6463   4.692   5.741   3.839
 2174TIP3   OH2 6464   1.226   5.331   3.317
 2174TIP3    H1 6465   1.250   5.341   3.410
 2174TIP3    H2 6466   1.182   5.246   3.312
 2175TIP3   OH2 6467   6.058   7.762   2.814
 2175TIP3    H1 6468   6.037   7.669   2.804
 2175TIP3    H2 6469   5.973   7.805   2.825
 2176TIP3   OH2 6470   3.902   5.124   1.362
 2176TIP3    H1 6471   3.955   5.066   1.417
 2176TIP3    H2 6472   3.881   5.071   1.285
 2177TIP3   OH2 6473   5.688   5.236   1.153
 2177TIP3    H1 6474   5.637   5.309   1.118
 2177TIP3    H2 6475   5.635   5.158   1.135
 2178TIP3   OH2 6476   1.137   0.755   1.819
 2178TIP3    H1 6477   1.043   0.743   1.801
 2178TIP3    H2 6478   1.166   0.669   1.849
 2179TIP3   OH2 6479   3.426   4.633   6.531
 2179TIP3    H1 6480   3.463   4.721   6.528
 2179TIP3    H2 6481   3.341   4.640   6.487
 2180TIP3   OH2 6482   4.400   1.942   0.983
 2180TIP3    H1 6483   4.424   1.938   1.076
 2180TIP3    H2 6484   4.383   2.035   0.967
 2181TIP3   OH2 6485   7.567   5.511   3.979
 2181TIP3    H1 6486   7.531   5.475   4.061
 2181TIP3    H2 6487   7.654   5.542   4.003
 2182TIP3   OH2 6488   7.951   0.387   3.843
 2182TIP3    H1 6489   7.969   0.293   3.850
 2182TIP3    H2 6490   7.969   0.408   3.752
 2183TIP3   OH2 6491   3.467   6.597   3.658
 2183TIP3    H1 6492   3.497   6.591   3.567
 2183TIP3    H2 6493   3.406   6.671   3.658
 2184TIP3   OH2 6494   0.475   3.333   5.642
 2184TIP3    H1 6495   0.414   3.272   5.681
 2184TIP3    H2 6496   0.422   3.409   5.618
 2185TIP3   OH2 6497   7.505   0.805   5.177
 2185TIP3    H1 6498   7.489   0.715   5.152
 2185TIP3    H2 6499   7.419   0.847   5.174
 2186TIP3   OH2 6500   5.969   3.961   4.426
 2186TIP3    H1 6501   5.997   4.050   4.446
 2186TIP3    H2 6502   5.889   3.949   4.478
 2187TIP3   OH2 6503   7.124   2.255   4.512
 2187TIP3    H1 6504   7.219   2.248   4.502
 2187TIP3    H2 6505   7.107   2.349   4.505
 2188TIP3   OH2 6506   7.078   5.942   5.142
 2188TIP3    H1 6507   7.141   5.905   5.080
 2188TIP3    H2 6508   7.126   5.948   5.224
 2189TIP3   OH2 6509   0.780   3.769   4.937
 2189TIP3    H1 6510   0.721   3.706   4.979
 2189TIP3    H2 6511   0.726   3.846   4.921
 2190TIP3   OH2 6512   0.557   2.277   3.079
 2190TIP3    H1 6513   0.618   2.337   3.121
 2190TIP3    H2 6514   0.612   2.215   3.031
 2191TIP3   OH2 6515   5.470   6.407   0.600
 2191TIP3    H1 6516   5.522   6.378   0.676
 2191TIP3    H2 6517   5.517   6.372   0.524
 2192TIP3   OH2 6518   6.393   0.114   5.504
 2192TIP3    H1 6519   6.306   0.094   5.470
 2192TIP3    H2 6520   6.379   0.129   5.597
 2193TIP3   OH2 6521   3.022   3.719   6.794
 2193TIP3    H1 6522   3.081   3.795   6.797
 2193TIP3    H2 6523   2.990   3.718   6.704
 2194TIP3   OH2 6524   1.773   5.379   4.107
 2194TIP3    H1 6525   1.835   5.311   4.131
 2194TIP3    H2 6526   1.795   5.401   4.017
 2195TIP3   OH2 6527   3.966   1.565   3.425
 2195TIP3    H1 6528   4.044   1.514   3.444
 2195TIP3    H2 6529   3.997   1.637   3.370
 2196TIP3   OH2 6530   7.328   4.216   6.422
 2196TIP3    H1 6531   7.244   4.181   6.393
 2196TIP3    H2 6532   7.311   4.249   6.511
 2197TIP3   OH2 6533   3.164   2.592   5.326
 2197TIP3    H1 6534   3.211   2.576   5.244
 2197TIP3    H2 6535   3.147   2.687   5.325
 2198TIP3   OH2 6536   5.789   5.820   0.431
 2198TIP3    H1 6537   5.789   5.826   0.527
 2198TIP3    H2 6538   5.769   5.909   0.402
 2199TIP3   OH2 6539   5.509   0.910   6.040
 2199TIP3    H1 6540   5.514   0.950   5.953
 2199TIP3    H2 6541   5.595   0.868   6.052
 2200TIP3   OH2 6542   1.139   0.881   0.237
 2200TIP3    H1 6543   1.049   0.848   0.234
 2200TIP3    H2 6544   1.147   0.937   0.160
 2201TIP3   OH2 6545   3.196   3.134   6.463
 2201TIP3    H1 6546   3.202   3.105   6.554
 2201TIP3    H2 6547   3.168   3.056   6.415
 2202TIP3   OH2 6548   6.676   4.104   0.863
 2202TIP3    H1 6549   6.656   4.094   0.956
 2202TIP3    H2 6550   6.702   4.196   0.854
 2203TIP3   OH2 6551   5.212   5.327   5.800
 2203TIP3    H1 6552   5.238   5.275   5.876
 2203TIP3    H2 6553   5.179   5.263   5.737
 2204TIP3   OH2 6554   4.859   6.320   1.795
 2204TIP3    H1 6555   4.923   6.383   1.762
 2204TIP3    H2 6556   4.898   6.234   1.776
 2205TIP3   OH2 6557   4.979   6.146   6.068
 2205TIP3    H1 6558   5.021   6.098   5.997
 2205TIP3    H2 6559   4.888   6.118   6.064
 2206TIP3   OH2 6560   0.313   5.736   0.827
 2206TIP3    H1 6561   0.393   5.704   0.868
 2206TIP3    H2 6562   0.305   5.827   0.856
 2207TIP3   OH2 6563   0.296   4.863   5.946
 2207TIP3    H1 6564   0.370   4.916   5.974
 2207TIP3    H2 6565   0.254   4.835   6.027
 2208TIP3   OH2 6566   5.705   5.756   3.200
 2208TIP3    H1 6567   5.675   5.679   3.151
 2208TIP3    H2 6568   5.739   5.815   3.134
 2209TIP3   OH2 6569   3.153   7.189   4.677
 2209TIP3    H1 6570   3.092   7.117   4.692
 2209TIP3    H2 6571   3.104   7.268   4.700
 2210TIP3   OH2 6572   2.619   6.227   3.145
 2210TIP3    H1 6573   2.617   6.309   3.095
 2210TIP3    H2 6574   2.545   6.177   3.112
 2211TIP3   OH2 6575   3.968   1.600   0.242
 2211TIP3    H1 6576   3.889   1.546   0.247
 2211TIP3    H2 6577   3.941   1.685   0.276
 2212TIP3   OH2 6578   7.284   4.814   0.625
 2212TIP3    H1 6579   7.317   4.740   0.574
 2212TIP3    H2 6580   7.363   4.862   0.651
 2213TIP3   OH2 6581   2.842   1.051   2.400
 2213TIP3    H1 6582   2.889   1.132   2.415
 2213TIP3    H2 6583   2.894   1.005   2.334
 2214TIP3   OH2 6584   3.999   0.708   0.761
 2214TIP3    H1 6585   3.930   0.767   0.729
 2214TIP3    H2 6586   4.080   0.752   0.738
 2215TIP3   OH2 6587   6.080   1.038   1.653
 2215TIP3    H1 6588   6.025   0.966   1.623
 2215TIP3    H2 6589   6.041   1.066   1.736
 2216TIP3   OH2 6590   0.369   3.760   4.408
 2216TIP3    H1 6591   0.354   3.832   4.470
 2216TIP3    H2 6592   0.306   3.693   4.435
 2217TIP3   OH2 6593   1.165   4.118   6.240
 2217TIP3    H1 6594   1.171   4.179   6.313
 2217TIP3    H2 6595   1.211   4.162   6.168
 2218TIP3   OH2 6596   6.047   1.515   3.573
 2218TIP3    H1 6597   6.068   1.429   3.611
 2218TIP3    H2 6598   5.984   1.496   3.504
 2219TIP3   OH2 6599   5.299   7.680   2.064
 2219TIP3    H1 6600   5.294   7.772   2.091
 2219TIP3    H2 6601   5.232   7.637   2.117
 2220TIP3   OH2 6602   4.934   1.586   0.166
 2220TIP3    H1 6603   4.874   1.600   0.092
 2220TIP3    H2 6604   4.997   1.521   0.134
 2221TIP3   OH2 6605   1.363   3.107   4.571
 2221TIP3    H1 6606   1.304   3.090   4.499
 2221TIP3    H2 6607   1.338   3.195   4.602
 2222TIP3   OH2 6608   7.886   2.889   1.787
 2222TIP3    H1 6609   7.930   2.908   1.704
 2222TIP3    H2 6610   7.837   2.808   1.770
 2223TIP3   OH2 6611   7.218   4.826   1.457
 2223TIP3    H1 6612   7.129   4.824   1.420
 2223TIP3    H2 6613   7.225   4.745   1.508
 2224TIP3   OH2 6614   5.191   2.942   5.065
 2224TIP3    H1 6615   5.257   2.980   5.124
 2224TIP3    H2 6616   5.231   2.860   5.035
 2225TIP3   OH2 6617   7.234   1.787   0.230
 2225TIP3    H1 6618   7.182   1.712   0.203
 2225TIP3    H2 6619   7.319   1.773   0.189
 2226TIP3   OH2 6620   8.033   5.030   0.108
 2226TIP3    H1 6621   7.997   5.094   0.170
 2226TIP3    H2 6622   8.092   5.080   0.052
 2227TIP3   OH2 6623   5.874   2.301   3.322
 2227TIP3    H1 6624   5.861   2.253   3.241
 2227TIP3    H2 6625   5.869   2.393   3.296
 2228TIP3   OH2 6626   5.330   4.950   5.133
 2228TIP3    H1 6627   5.250   4.955   5.080
 2228TIP3    H2 6628   5.339   4.857   5.153
 2229TIP3   OH2 6629   5.491   1.490   5.887
 2229TIP3    H1 6630   5.507   1.413   5.942
 2229TIP3    H2 6631   5.483   1.562   5.948
 2230TIP3   OH2 6632   5.156   1.567   2.835
 2230TIP3    H1 6633   5.133   1.616   2.913
 2230TIP3    H2 6634   5.122   1.479   2.851
 2231TIP3   OH2 6635   8.099   6.104   4.097
 2231TIP3    H1 6636   8.185   6.062   4.096
 2231TIP3    H2 6637   8.098   6.159   4.019
 2232TIP3   OH2 6638   3.794   2.967   5.956
 2232TIP3    H1 6639   3.838   2.967   6.041
 2232TIP3    H2 6640   3.759   2.879   5.946
 2233TIP3   OH2 6641   3.876   4.575   2.353
 2233TIP3    H1 6642   3.820   4.615   2.419
 2233TIP3    H2 6643   3.823   4.573   2.273
 2234TIP3   OH2 6644   5.175   3.785   4.644
 2234TIP3    H1 6645   5.111   3.855   4.651
 2234TIP3    H2 6646   5.177   3.763   4.551
 2235TIP3   OH2 6647   7.517   1.773   0.284
 2235TIP3    H1 6648   7.608   1.793   0.307
 2235TIP3    H2 6649   7.480   1.733   0.363
 2236TIP3   OH2 6650   0.484   3.938   0.542
 2236TIP3    H1 6651   0.505   4.010   0.601
 2236TIP3    H2 6652   0.448   3.980   0.464
 2237TIP3   OH2 6653   7.941   5.689   2.926
 2237TIP3    H1 6654   7.957   5.626   2.995
 2237TIP3    H2 6655   8.027   5.700   2.883
 2238TIP3   OH2 6656   3.333   0.375   2.824
 2238TIP3    H1 6657   3.335   0.347   2.915
 2238TIP3    H2 6658   3.373   0.462   2.824
 2239TIP3   OH2 6659   0.939   5.778   2.202
 2239TIP3    H1 6660   0.937   5.736   2.289
 2239TIP3    H2 6661   0.992   5.857   2.215
 2240TIP3   OH2 6662   5.185   3.274   3.960
 2240TIP3    H1 6663   5.156   3.300   4.047
 2240TIP3    H2 6664   5.251   3.340   3.936
 2241TIP3   OH2 6665   8.144   1.099   6.701
 2241TIP3    H1 6666   8.122   1.076   6.610
 2241TIP3    H2 6667   8.238   1.081   6.708
 2242TIP3   OH2 6668   0.875   6.277   3.273
 2242TIP3    H1 6669   0.927   6.354   3.250
 2242TIP3    H2 6670   0.795   6.285   3.221
 2243TIP3   OH2 6671   5.544   0.625   2.608
 2243TIP3    H1 6672   5.570   0.717   2.613
 2243TIP3    H2 6673   5.453   0.627   2.580
 2244TIP3   OH2 6674   3.089   4.220   2.358
 2244TIP3    H1 6675   3.119   4.187   2.274
 2244TIP3    H2 6676   3.071   4.141   2.409
 2245TIP3   OH2 6677   1.712   7.817   6.187
 2245TIP3    H1 6678   1.742   7.747   6.245
 2245TIP3    H2 6679   1.655   7.774   6.124
 2246TIP3   OH2 6680   2.555   6.065   2.220
 2246TIP3    H1 6681   2.507   5.984   2.203
 2246TIP3    H2 6682   2.557   6.072   2.316
 2247TIP3   OH2 6683   4.990   5.724   0.626
 2247TIP3    H1 6684   5.000   5.635   0.660
 2247TIP3    H2 6685   4.960   5.712   0.536
 2248TIP3   OH2 6686   7.999   4.692   6.057
 2248TIP3    H1 6687   7.927   4.633   6.033
 2248TIP3    H2 6688   8.029   4.728   5.973
 2249TIP3   OH2 6689   1.976   7.596   5.108
 2249TIP3    H1 6690   1.916   7.531   5.145
 2249TIP3    H2 6691   2.040   7.612   5.178
 2250TIP3   OH2 6692   0.055   3.424   6.329
 2250TIP3    H1 6693   0.090   3.406   6.242
 2250TIP3    H2 6694   0.131   3.448   6.382
 2251TIP3   OH2 6695   3.985   4.622   5.166
 2251TIP3    H1 6696   4.069   4.668   5.162
 2251TIP3    H2 6697   4.007   4.530   5.157
 2252TIP3   OH2 6698   3.021   3.938   5.479
 2252TIP3    H1 6699   3.080   3.873   5.442
 2252TIP3    H2 6700   3.078   4.005   5.516
 2253TIP3   OH2 6701   3.871   1.814   5.637
 2253TIP3    H1 6702   3.962   1.813   5.609
 2253TIP3    H2 6703   3.826   1.871   5.575
 2254TIP3   OH2 6704   7.855   0.614   0.134
 2254TIP3    H1 6705   7.907   0.649   0.207
 2254TIP3    H2 6706   7.782   0.676   0.126
 2255TIP3   OH2 6707   5.484   3.789   5.576
 2255TIP3    H1 6708   5.389   3.783   5.590
 2255TIP3    H2 6709   5.500   3.881   5.556
 2256TIP3   OH2 6710   3.212   3.633   6.054
 2256TIP3    H1 6711   3.157   3.658   5.980
 2256TIP3    H2 6712   3.247   3.547   6.030
 2257TIP3   OH2 6713   5.728   1.002   2.910
 2257TIP3    H1 6714   5.819   0.981   2.930
 2257TIP3    H2 6715   5.679   0.981   2.990
 2258TIP3   OH2 6716   5.437   7.645   1.188
 2258TIP3    H1 6717   5.441   7.554   1.158
 2258TIP3    H2 6718   5.471   7.696   1.115
 2259TIP3   OH2 6719   8.200   2.598   5.469
 2259TIP3    H1 6720   8.230   2.526   5.525
 2259TIP3    H2 6721   8.105   2.591   5.470
 2260TIP3   OH2 6722   0.777   5.027   6.365
 2260TIP3    H1 6723   0.777   5.116   6.401
 2260TIP3    H2 6724   0.695   4.989   6.396
 2261TIP3   OH2 6725   4.810   3.522   6.602
 2261TIP3    H1 6726   4.896   3.508   6.642
 2261TIP3    H2 6727   4.764   3.440   6.617
 2262TIP3   OH2 6728   0.527   2.708   0.322
 2262TIP3    H1 6729   0.565   2.644   0.382
 2262TIP3    H2 6730   0.584   2.708   0.246
 2263TIP3   OH2 6731   7.797   0.885   6.462
 2263TIP3    H1 6732   7.791   0.917   6.552
 2263TIP3    H2 6733   7.886   0.909   6.434
 2264TIP3   OH2 6734   5.743   0.661   3.481
 2264TIP3    H1 6735   5.793   0.743   3.476
 2264TIP3    H2 6736   5.804   0.598   3.519
 2265TIP3   OH2 6737   3.909   5.357   0.280
 2265TIP3    H1 6738   3.889   5.401   0.197
 2265TIP3    H2 6739   3.824   5.334   0.316
 2266TIP3   OH2 6740   7.760   7.499   2.866
 2266TIP3    H1 6741   7.676   7.458   2.847
 2266TIP3    H2 6742   7.758   7.518   2.960
 2267TIP3   OH2 6743   1.818   0.964   5.501
 2267TIP3    H1 6744   1.899   0.921   5.528
 2267TIP3    H2 6745   1.845   1.023   5.431
 2268TIP3   OH2 6746   3.104   4.001   5.966
 2268TIP3    H1 6747   3.090   3.907   5.955
 2268TIP3    H2 6748   3.053   4.041   5.896
 2269TIP3   OH2 6749   5.480   2.151   1.095
 2269TIP3    H1 6750   5.411   2.157   1.029
 2269TIP3    H2 6751   5.439   2.106   1.169
 2270TIP3   OH2 6752   4.762   2.888   3.692
 2270TIP3    H1 6753   4.768   2.798   3.660
 2270TIP3    H2 6754   4.850   2.924   3.681
 2271TIP3   OH2 6755   6.864   3.179   4.402
 2271TIP3    H1 6756   6.871   3.194   4.307
 2271TIP3    H2 6757   6.877   3.266   4.440
 2272TIP3   OH2 6758   1.036   1.610   1.382
 2272TIP3    H1 6759   1.095   1.652   1.319
 2272TIP3    H2 6760   1.091   1.547   1.428
 2273TIP3   OH2 6761   6.405   0.315   1.649
 2273TIP3    H1 6762   6.465   0.263   1.597
 2273TIP3    H2 6763   6.461   0.374   1.699
 2274TIP3   OH2 6764   3.743   0.173   4.986
 2274TIP3    H1 6765   3.805   0.137   5.050
 2274TIP3    H2 6766   3.790   0.170   4.903
 2275TIP3   OH2 6767   1.614   4.831   3.433
 2275TIP3    H1 6768   1.537   4.774   3.436
 2275TIP3    H2 6769   1.631   4.854   3.524
 2276TIP3   OH2 6770   2.543   0.473   2.223
 2276TIP3    H1 6771   2.470   0.414   2.243
 2276TIP3    H2 6772   2.538   0.541   2.291
 2277TIP3   OH2 6773   1.229   4.332   0.718
 2277TIP3    H1 6774   1.201   4.334   0.626
 2277TIP3    H2 6775   1.161   4.382   0.764
 2278TIP3   OH2 6776   4.757   5.280   1.190
 2278TIP3    H1 6777   4.784   5.286   1.282
 2278TIP3    H2 6778   4.744   5.186   1.176
 2279TIP3   OH2 6779   6.289   3.386   2.391
 2279TIP3    H1 6780   6.330   3.300   2.382
 2279TIP3    H2 6781   6.294   3.405   2.485
 2280TIP3   OH2 6782   0.173   7.193   0.831
 2280TIP3    H1 6783   0.217   7.154   0.907
 2280TIP3    H2 6784   0.173   7.124   0.765
 2281TIP3   OH2 6785   5.781   7.226   3.041
 2281TIP3    H1 6786   5.701   7.279   3.043
 2281TIP3    H2 6787   5.849   7.286   3.014
 2282TIP3   OH2 6788   5.958   3.507   3.196
 2282TIP3    H1 6789   6.005   3.426   3.216
 2282TIP3    H2 6790   5.925   3.495   3.107
 2283TIP3   OH2 6791   3.608   2.473   1.243
 2283TIP3    H1 6792   3.572   2.489   1.156
 2283TIP3    H2 6793   3.696   2.439   1.226
 2284TIP3   OH2 6794   3.127   1.640   4.904
 2284TIP3    H1 6795   3.130   1.615   4.811
 2284TIP3    H2 6796   3.083   1.567   4.947
 2285TIP3   OH2 6797   0.453   6.680   0.355
 2285TIP3    H1 6798   0.393   6.740   0.309
 2285TIP3    H2 6799   0.396   6.629   0.412
 2286TIP3   OH2 6800   7.207   4.188   4.856
 2286TIP3    H1 6801   7.298   4.169   4.880
 2286TIP3    H2 6802   7.214   4.256   4.788
 2287TIP3   OH2 6803   6.728   0.144   0.276
 2287TIP3    H1 6804   6.689   0.186   0.199
 2287TIP3    H2 6805   6.760   0.060   0.243
 2288TIP3   OH2 6806   4.617   7.523   0.192
 2288TIP3    H1 6807   4.713   7.523   0.183
 2288TIP3    H2 6808   4.593   7.616   0.195
 2289TIP3   OH2 6809   6.905   7.814   0.063
 2289TIP3    H1 6810   6.948   7.749   0.119
 2289TIP3    H2 6811   6.938   7.796  -0.025
 2290TIP3   OH2 6812   1.089   2.821   6.198
 2290TIP3    H1 6813   1.124   2.895   6.149
 2290TIP3    H2 6814   1.135   2.745   6.162
 2291TIP3   OH2 6815   5.867   3.359   0.883
 2291TIP3    H1 6816   5.899   3.395   0.966
 2291TIP3    H2 6817   5.810   3.427   0.847
 2292TIP3   OH2 6818   2.550   4.771   2.870
 2292TIP3    H1 6819   2.582   4.685   2.896
 2292TIP3    H2 6820   2.599   4.791   2.790
 2293TIP3   OH2 6821   0.639   7.493   3.788
 2293TIP3    H1 6822   0.565   7.436   3.808
 2293TIP3    H2 6823   0.702   7.437   3.744
 2294TIP3   OH2 6824   1.943   1.674   2.202
 2294TIP3    H1 6825   1.953   1.595   2.255
 2294TIP3    H2 6826   2.020   1.727   2.224
 2295TIP3   OH2 6827   0.425   4.278   4.168
 2295TIP3    H1 6828   0.453   4.210   4.107
 2295TIP3    H2 6829   0.506   4.305   4.212
 2296TIP3   OH2 6830   3.806   1.721   5.907
 2296TIP3    H1 6831   3.889   1.708   5.862
 2296TIP3    H2 6832   3.753   1.771   5.844
 2297TIP3   OH2 6833   0.850   0.153   5.632
 2297TIP3    H1 6834   0.873   0.160   5.725
 2297TIP3    H2 6835   0.905   0.082   5.599
 2298TIP3   OH2 6836   6.674   2.691   0.429
 2298TIP3    H1 6837   6.729   2.641   0.368
 2298TIP3    H2 6838   6.696   2.782   0.412
 2299TIP3   OH2 6839   4.683   4.284   2.199
 2299TIP3    H1 6840   4.715   4.199   2.169
 2299TIP3    H2 6841   4.670   4.274   2.293
 2300TIP3   OH2 6842   4.926   2.312   2.549
 2300TIP3    H1 6843   4.860   2.377   2.574
 2300TIP3    H2 6844   4.982   2.303   2.626
 2301TIP3   OH2 6845   5.811   1.351   6.293
 2301TIP3    H1 6846   5.788   1.397   6.213
 2301TIP3    H2 6847   5.904   1.332   6.285
 2302TIP3   OH2 6848   2.851   3.099   0.843
 2302TIP3    H1 6849   2.811   3.186   0.835
 2302TIP3    H2 6850   2.815   3.050   0.769
 2303TIP3   OH2 6851   3.445   2.970   5.314
 2303TIP3    H1 6852   3.485   2.936   5.234
 2303TIP3    H2 6853   3.518   2.978   5.376
 2304TIP3   OH2 6854   2.624   1.125   2.170
 2304TIP3    H1 6855   2.702   1.125   2.115
 2304TIP3    H2 6856   2.553   1.095   2.112
 2305TIP3   OH2 6857   6.325   2.368   0.883
 2305TIP3    H1 6858   6.274   2.389   0.804
 2305TIP3    H2 6859   6.274   2.300   0.926
 2306TIP3   OH2 6860   7.713   2.467   0.048
 2306TIP3    H1 6861   7.771   2.523  -0.003
 2306TIP3    H2 6862   7.764   2.388   0.064
 2307TIP3   OH2 6863   6.879   6.085   5.043
 2307TIP3    H1 6864   6.801   6.039   5.074
 2307TIP3    H2 6865   6.952   6.039   5.084
 2308TIP3   OH2 6866   7.503   6.649   5.482
 2308TIP3    H1 6867   7.542   6.606   5.406
 2308TIP3    H2 6868   7.454   6.580   5.526
 2309TIP3   OH2 6869   0.078   2.813   2.631
 2309TIP3    H1 6870   0.112   2.873   2.698
 2309TIP3    H2 6871  -0.009   2.788   2.662
 2310TIP3   OH2 6872   0.377   6.771   1.830
 2310TIP3    H1 6873   0.459   6.780   1.780
 2310TIP3    H2 6874   0.342   6.860   1.833
 2311TIP3   OH2 6875   2.992   0.749   0.261
 2311TIP3    H1 6876   2.907   0.709   0.247
 2311TIP3    H2 6877   2.984   0.794   0.346
 2312TIP3   OH2 6878   4.347   1.291   6.119
 2312TIP3    H1 6879   4.290   1.273   6.194
 2312TIP3    H2 6880   4.319   1.376   6.087
 2313TIP3   OH2 6881   6.414   7.683   6.613
 2313TIP3    H1 6882   6.407   7.707   6.705
 2313TIP3    H2 6883   6.445   7.762   6.570
 2314TIP3   OH2 6884   4.047   7.226   4.625
 2314TIP3    H1 6885   3.954   7.215   4.646
 2314TIP3    H2 6886   4.070   7.145   4.579
 2315TIP3   OH2 6887   6.940   1.845   4.929
 2315TIP3    H1 6888   6.898   1.799   4.857
 2315TIP3    H2 6889   7.034   1.832   4.916
 2316TIP3   OH2 6890   4.101   4.043   1.128
 2316TIP3    H1 6891   4.126   3.989   1.053
 2316TIP3    H2 6892   4.062   4.122   1.090
 2317TIP3   OH2 6893   6.452   2.493   3.994
 2317TIP3    H1 6894   6.418   2.506   3.906
 2317TIP3    H2 6895   6.479   2.580   4.023
 2318TIP3   OH2 6896   3.359   1.664   3.388
 2318TIP3    H1 6897   3.291   1.729   3.405
 2318TIP3    H2 6898   3.382   1.677   3.296
 2319TIP3   OH2 6899   4.956   5.387   4.446
 2319TIP3    H1 6900   4.959   5.482   4.449
 2319TIP3    H2 6901   5.042   5.361   4.413
 2320TIP3   OH2 6902   1.783   7.357   0.962
 2320TIP3    H1 6903   1.805   7.449   0.950
 2320TIP3    H2 6904   1.702   7.358   1.012
 2321TIP3   OH2 6905   1.039   7.053   0.739
 2321TIP3    H1 6906   0.950   7.046   0.773
 2321TIP3    H2 6907   1.041   7.139   0.697
 2322TIP3   OH2 6908   1.206   3.791   3.833
 2322TIP3    H1 6909   1.149   3.715   3.847
 2322TIP3    H2 6910   1.294   3.753   3.822
 2323TIP3   OH2 6911   3.930   5.939   3.083
 2323TIP3    H1 6912   3.987   5.933   3.159
 2323TIP3    H2 6913   3.843   5.955   3.119
 2324TIP3   OH2 6914   4.916   0.399   6.655
 2324TIP3    H1 6915   4.870   0.468   6.704
 2324TIP3    H2 6916   4.847   0.337   6.630
 2325TIP3   OH2 6917   1.160   1.477   6.311
 2325TIP3    H1 6918   1.225   1.487   6.242
 2325TIP3    H2 6919   1.195   1.408   6.367
 2326TIP3   OH2 6920   2.058   7.486   5.389
 2326TIP3    H1 6921   2.107   7.563   5.361
 2326TIP3    H2 6922   2.119   7.413   5.380
 2327TIP3   OH2 6923   7.405   4.476   1.932
 2327TIP3    H1 6924   7.365   4.495   2.017
 2327TIP3    H2 6925   7.438   4.560   1.901
 2328TIP3   OH2 6926   0.755   6.884   6.250
 2328TIP3    H1 6927   0.843   6.865   6.283
 2328TIP3    H2 6928   0.699   6.877   6.328
 2329TIP3   OH2 6929   3.199   5.787   6.549
 2329TIP3    H1 6930   3.108   5.812   6.534
 2329TIP3    H2 6931   3.248   5.827   6.476
 2330TIP3   OH2 6932   7.899   4.181   4.661
 2330TIP3    H1 6933   7.906   4.208   4.753
 2330TIP3    H2 6934   7.922   4.260   4.611
 2331TIP3   OH2 6935   3.479   4.909   6.536
 2331TIP3    H1 6936   3.467   4.966   6.612
 2331TIP3    H2 6937   3.547   4.952   6.484
 2332TIP3   OH2 6938   3.445   2.630   5.452
 2332TIP3    H1 6939   3.385   2.616   5.378
 2332TIP3    H2 6940   3.401   2.696   5.505
 2333TIP3   OH2 6941   3.238   4.222   1.882
 2333TIP3    H1 6942   3.287   4.146   1.851
 2333TIP3    H2 6943   3.154   4.217   1.836
 2334TIP3   OH2 6944   1.659   4.861   0.620
 2334TIP3    H1 6945   1.624   4.937   0.574
 2334TIP3    H2 6946   1.582   4.811   0.647
 2335TIP3   OH2 6947   2.699   4.730   1.638
 2335TIP3    H1 6948   2.679   4.803   1.579
 2335TIP3    H2 6949   2.791   4.711   1.623
 2336TIP3   OH2 6950   0.267   2.701   1.935
 2336TIP3    H1 6951   0.299   2.611   1.924
 2336TIP3    H2 6952   0.317   2.736   2.008
 2337TIP3   OH2 6953   6.864   6.674   3.462
 2337TIP3    H1 6954   6.795   6.669   3.396
 2337TIP3    H2 6955   6.875   6.767   3.480
 2338TIP3   OH2 6956   2.092   6.906   5.900
 2338TIP3    H1 6957   2.037   6.891   5.977
 2338TIP3    H2 6958   2.076   6.831   5.843
 2339TIP3   OH2 6959   4.839   5.908   2.444
 2339TIP3    H1 6960   4.803   5.913   2.355
 2339TIP3    H2 6961   4.811   5.990   2.485
 2340TIP3   OH2 6962   0.104   1.671   5.369
 2340TIP3    H1 6963   0.104   1.715   5.284
 2340TIP3    H2 6964   0.036   1.716   5.419
 2341TIP3   OH2 6965   1.844   0.397   4.597
 2341TIP3    H1 6966   1.901   0.342   4.543
 2341TIP3    H2 6967   1.889   0.402   4.682
 2342TIP3   OH2 6968   3.523   0.183   4.425
 2342TIP3    H1 6969   3.476   0.103   4.446
 2342TIP3    H2 6970   3.499   0.244   4.495
 2343TIP3   OH2 6971   0.910   1.532   4.851
 2343TIP3    H1 6972   0.866   1.617   4.856
 2343TIP3    H2 6973   0.969   1.540   4.776
 2344TIP3   OH2 6974   0.638   5.363   1.495
 2344TIP3    H1 6975   0.590   5.296   1.447
 2344TIP3    H2 6976   0.721   5.321   1.519
 2345TIP3   OH2 6977   2.901   0.724   1.984
 2345TIP3    H1 6978   2.899   0.637   1.945
 2345TIP3    H2 6979   2.988   0.757   1.964
 2346TIP3   OH2 6980   7.022   2.763   2.805
 2346TIP3    H1 6981   7.111   2.745   2.776
 2346TIP3    H2 6982   6.983   2.814   2.733
 2347TIP3   OH2 6983   5.704   4.775   6.298
 2347TIP3    H1 6984   5.775   4.712   6.284
 2347TIP3    H2 6985   5.666   4.751   6.383
 2348TIP3   OH2 6986   4.768   5.625   3.179
 2348TIP3    H1 6987   4.798   5.617   3.088
 2348TIP3    H2 6988   4.752   5.534   3.207
 2349TIP3   OH2 6989   7.117   4.252   2.572
 2349TIP3    H1 6990   7.162   4.201   2.504
 2349TIP3    H2 6991   7.030   4.269   2.535
 2350TIP3   OH2 6992   5.830   1.000   5.384
 2350TIP3    H1 6993   5.833   0.913   5.344
 2350TIP3    H2 6994   5.737   1.022   5.386
 2351TIP3   OH2 6995   1.104   6.463   3.581
 2351TIP3    H1 6996   1.113   6.449   3.675
 2351TIP3    H2 6997   1.139   6.384   3.541
 2352TIP3   OH2 6998   0.707   4.338   0.991
 2352TIP3    H1 6999   0.721   4.348   1.085
 2352TIP3    H2 7000   0.794   4.326   0.954
 2353TIP3   OH2 7001   5.303   3.386   3.333
 2353TIP3    H1 7002   5.361   3.332   3.387
 2353TIP3    H2 7003   5.254   3.323   3.281
 2354TIP3   OH2 7004   2.488   1.482   4.466
 2354TIP3    H1 7005   2.507   1.391   4.486
 2354TIP3    H2 7006   2.499   1.489   4.372
 2355TIP3   OH2 7007   3.449   5.405   1.431
 2355TIP3    H1 7008   3.389   5.411   1.505
 2355TIP3    H2 7009   3.392   5.392   1.355
 2356TIP3   OH2 7010   4.506   4.364   0.549
 2356TIP3    H1 7011   4.543   4.421   0.617
 2356TIP3    H2 7012   4.411   4.371   0.561
 2357TIP3   OH2 7013   1.475   5.973   5.639
 2357TIP3    H1 7014   1.490   6.045   5.701
 2357TIP3    H2 7015   1.382   5.979   5.617
 2358TIP3   OH2 7016   1.505   5.455   4.019
 2358TIP3    H1 7017   1.566   5.415   4.081
 2358TIP3    H2 7018   1.419   5.425   4.046
 2359TIP3   OH2 7019   6.091   5.858   3.565
 2359TIP3    H1 7020   6.015   5.913   3.585
 2359TIP3    H2 7021   6.089   5.846   3.470
 2360TIP3   OH2 7022   8.253   4.181   0.178
 2360TIP3    H1 7023   8.211   4.256   0.221
 2360TIP3    H2 7024   8.233   4.193   0.085
 2361TIP3   OH2 7025   2.113   3.990   1.304
 2361TIP3    H1 7026   2.034   4.030   1.269
 2361TIP3    H2 7027   2.143   4.051   1.371
 2362TIP3   OH2 7028   8.212   3.777   0.653
 2362TIP3    H1 7029   8.177   3.762   0.565
 2362TIP3    H2 7030   8.303   3.802   0.639
 2363TIP3   OH2 7031   4.317   4.794   1.817
 2363TIP3    H1 7032   4.363   4.716   1.787
 2363TIP3    H2 7033   4.298   4.777   1.909
 2364TIP3   OH2 7034   2.277   1.179   2.116
 2364TIP3    H1 7035   2.338   1.122   2.069
 2364TIP3    H2 7036   2.283   1.263   2.070
 2365TIP3   OH2 7037   4.824   0.387   3.356
 2365TIP3    H1 7038   4.823   0.450   3.428
 2365TIP3    H2 7039   4.776   0.312   3.389
 2366TIP3   OH2 7040   1.553   3.748   6.075
 2366TIP3    H1 7041   1.492   3.740   6.001
 2366TIP3    H2 7042   1.632   3.702   6.047
 2367TIP3   OH2 7043   4.604   4.816   5.627
 2367TIP3    H1 7044   4.646   4.778   5.550
 2367TIP3    H2 7045   4.621   4.754   5.698
 2368TIP3   OH2 7046   1.155   0.479   1.968
 2368TIP3    H1 7047   1.150   0.547   2.035
 2368TIP3    H2 7048   1.230   0.426   1.994
 2369TIP3   OH2 7049   0.689   4.446   4.058
 2369TIP3    H1 7050   0.657   4.532   4.033
 2369TIP3    H2 7051   0.678   4.443   4.153
 2370TIP3   OH2 7052   5.583   6.977   6.235
 2370TIP3    H1 7053   5.596   6.936   6.150
 2370TIP3    H2 7054   5.605   6.909   6.299
 2371TIP3   OH2 7055   5.347   3.494   3.944
 2371TIP3    H1 7056   5.394   3.562   3.993
 2371TIP3    H2 7057   5.409   3.464   3.879
 2372TIP3   OH2 7058   3.712   6.617   6.126
 2372TIP3    H1 7059   3.661   6.559   6.184
 2372TIP3    H2 7060   3.775   6.659   6.184
 2373TIP3   OH2 7061   6.568   3.233   5.402
 2373TIP3    H1 7062   6.505   3.299   5.429
 2373TIP3    H2 7063   6.606   3.267   5.322
 2374TIP3   OH2 7064   8.258   0.561   4.145
 2374TIP3    H1 7065   8.323   0.526   4.206
 2374TIP3    H2 7066   8.174   0.547   4.189
 2375TIP3   OH2 7067   0.183   7.155   6.702
 2375TIP3    H1 7068   0.151   7.083   6.757
 2375TIP3    H2 7069   0.258   7.190   6.750
 2376TIP3   OH2 7070   0.471   6.030   1.745
 2376TIP3    H1 7071   0.505   6.084   1.817
 2376TIP3    H2 7072   0.377   6.047   1.744
 2377TIP3   OH2 7073   0.798   6.252   6.422
 2377TIP3    H1 7074   0.821   6.221   6.335
 2377TIP3    H2 7075   0.865   6.215   6.479
 2378TIP3   OH2 7076   6.390   3.161   4.996
 2378TIP3    H1 7077   6.387   3.113   4.914
 2378TIP3    H2 7078   6.368   3.251   4.972
 2379TIP3   OH2 7079   1.811   2.093   0.241
 2379TIP3    H1 7080   1.762   2.048   0.172
 2379TIP3    H2 7081   1.814   2.184   0.212
 2380TIP3   OH2 7082   7.567   1.358   5.297
 2380TIP3    H1 7083   7.526   1.291   5.351
 2380TIP3    H2 7084   7.521   1.353   5.213
 2381TIP3   OH2 7085   5.884   5.972   2.022
 2381TIP3    H1 7086   5.856   5.993   2.111
 2381TIP3    H2 7087   5.878   6.055   1.975
 2382TIP3   OH2 7088   5.055   5.239   3.601
 2382TIP3    H1 7089   5.013   5.319   3.633
 2382TIP3    H2 7090   5.149   5.258   3.604
 2383TIP3   OH2 7091   6.902   6.516   4.710
 2383TIP3    H1 7092   6.938   6.604   4.704
 2383TIP3    H2 7093   6.863   6.512   4.798
 2384TIP3   OH2 7094   7.936   4.058   0.181
 2384TIP3    H1 7095   7.948   4.072   0.088
 2384TIP3    H2 7096   8.022   4.029   0.213
 2385TIP3   OH2 7097   7.104   6.386   2.085
 2385TIP3    H1 7098   7.138   6.472   2.112
 2385TIP3    H2 7099   7.027   6.407   2.031
 2386TIP3   OH2 7100   5.299   5.137   6.022
 2386TIP3    H1 7101   5.322   5.155   6.113
 2386TIP3    H2 7102   5.228   5.073   6.027
 2387TIP3   OH2 7103   6.504   0.538   4.097
 2387TIP3    H1 7104   6.566   0.514   4.166
 2387TIP3    H2 7105   6.557   0.538   4.017
 2388TIP3   OH2 7106   0.980   1.739   3.463
 2388TIP3    H1 7107   0.980   1.739   3.367
 2388TIP3    H2 7108   1.072   1.748   3.487
 2389TIP3   OH2 7109   4.421   2.872   0.211
 2389TIP3    H1 7110   4.416   2.956   0.256
 2389TIP3    H2 7111   4.431   2.894   0.119
 2390TIP3   OH2 7112   6.826   2.891   1.948
 2390TIP3    H1 7113   6.798   2.847   1.868
 2390TIP3    H2 7114   6.772   2.852   2.017
 2391TIP3   OH2 7115   0.884   3.767   1.539
 2391TIP3    H1 7116   0.916   3.727   1.458
 2391TIP3    H2 7117   0.964   3.791   1.587
 2392TIP3   OH2 7118   3.205   5.843   5.060
 2392TIP3    H1 7119   3.218   5.750   5.039
 2392TIP3    H2 7120   3.215   5.848   5.155
 2393TIP3   OH2 7121   0.593   0.012   5.543
 2393TIP3    H1 7122   0.664   0.065   5.577
 2393TIP3    H2 7123   0.527   0.011   5.613
 2394TIP3   OH2 7124   5.104   1.069   4.344
 2394TIP3    H1 7125   5.017   1.035   4.323
 2394TIP3    H2 7126   5.091   1.162   4.358
 2395TIP3   OH2 7127   1.622   4.713   2.534
 2395TIP3    H1 7128   1.716   4.700   2.529
 2395TIP3    H2 7129   1.609   4.765   2.614
 2396TIP3   OH2 7130   0.614   3.358   6.261
 2396TIP3    H1 7131   0.604   3.263   6.269
 2396TIP3    H2 7132   0.531   3.394   6.293
 2397TIP3   OH2 7133   4.445   4.683   0.145
 2397TIP3    H1 7134   4.425   4.591   0.126
 2397TIP3    H2 7135   4.490   4.681   0.230
 2398TIP3   OH2 7136   2.848   6.742   0.381
 2398TIP3    H1 7137   2.822   6.752   0.472
 2398TIP3    H2 7138   2.824   6.651   0.359
 2399TIP3   OH2 7139   2.156   4.150   6.717
 2399TIP3    H1 7140   2.065   4.175   6.732
 2399TIP3    H2 7141   2.163   4.140   6.622
 2400TIP3   OH2 7142   6.636   0.785   5.675
 2400TIP3    H1 7143   6.628   0.707   5.620
 2400TIP3    H2 7144   6.677   0.753   5.755
 2401TIP3   OH2 7145   6.175   6.831   3.153
 2401TIP3    H1 7146   6.103   6.877   3.195
 2401TIP3    H2 7147   6.254   6.867   3.194
 2402TIP3   OH2 7148   7.820   0.235   2.561
 2402TIP3    H1 7149   7.886   0.304   2.566
 2402TIP3    H2 7150   7.740   0.276   2.592
 2403TIP3   OH2 7151   6.173   0.155   3.530
 2403TIP3    H1 7152   6.141   0.163   3.620
 2403TIP3    H2 7153   6.093   0.146   3.477
 2404TIP3   OH2 7154   5.204   4.541   2.429
 2404TIP3    H1 7155   5.261   4.474   2.391
 2404TIP3    H2 7156   5.228   4.544   2.522
 2405TIP3   OH2 7157   5.570   1.926   6.009
 2405TIP3    H1 7158   5.547   1.893   5.921
 2405TIP3    H2 7159   5.663   1.908   6.017
 2406TIP3   OH2 7160   5.542   7.777   1.401
 2406TIP3    H1 7161   5.507   7.857   1.362
 2406TIP3    H2 7162   5.521   7.708   1.337
 2407TIP3   OH2 7163   3.864   1.292  -0.005
 2407TIP3    H1 7164   3.815   1.230   0.049
 2407TIP3    H2 7165   3.955   1.282   0.023
 2408TIP3   OH2 7166   7.609   2.063   3.703
 2408TIP3    H1 7167   7.608   2.047   3.798
 2408TIP3    H2 7168   7.557   2.142   3.692
 2409TIP3   OH2 7169   7.232   1.418   6.015
 2409TIP3    H1 7170   7.312   1.380   6.050
 2409TIP3    H2 7171   7.202   1.478   6.084
 2410TIP3   OH2 7172   7.011   6.820   4.742
 2410TIP3    H1 7173   6.987   6.837   4.833
 2410TIP3    H2 7174   7.020   6.907   4.704
 2411TIP3   OH2 7175   0.723   3.365   4.237
 2411TIP3    H1 7176   0.654   3.387   4.300
 2411TIP3    H2 7177   0.792   3.325   4.290
 2412TIP3   OH2 7178   1.766   3.220   6.751
 2412TIP3    H1 7179   1.809   3.143   6.789
 2412TIP3    H2 7180   1.837   3.266   6.705
 2413TIP3   OH2 7181   0.848   2.852   3.597
 2413TIP3    H1 7182   0.837   2.850   3.502
 2413TIP3    H2 7183   0.907   2.779   3.615
 2414TIP3   OH2 7184   4.390   3.495   5.983
 2414TIP3    H1 7185   4.468   3.477   6.035
 2414TIP3    H2 7186   4.329   3.536   6.044
 2415TIP3   OH2 7187   5.752   0.313   6.514
 2415TIP3    H1 7188   5.757   0.256   6.591
 2415TIP3    H2 7189   5.817   0.381   6.530
 2416TIP3   OH2 7190   0.416   1.645   5.220
 2416TIP3    H1 7191   0.495   1.592   5.210
 2416TIP3    H2 7192   0.353   1.607   5.158
 2417TIP3   OH2 7193   7.676   6.047   5.955
 2417TIP3    H1 7194   7.746   6.045   5.890
 2417TIP3    H2 7195   7.696   5.974   6.014
 2418TIP3   OH2 7196   4.614   4.600   1.245
 2418TIP3    H1 7197   4.647   4.568   1.328
 2418TIP3    H2 7198   4.525   4.565   1.239
 2419TIP3   OH2 7199   0.632   4.982   2.978
 2419TIP3    H1 7200   0.693   4.960   2.908
 2419TIP3    H2 7201   0.556   4.926   2.962
 2420TIP3   OH2 7202   6.807   0.725   1.326
 2420TIP3    H1 7203   6.768   0.786   1.264
 2420TIP3    H2 7204   6.899   0.719   1.301
 2421TIP3   OH2 7205   2.260   7.392   0.720
 2421TIP3    H1 7206   2.230   7.472   0.762
 2421TIP3    H2 7207   2.285   7.419   0.631
 2422TIP3   OH2 7208   5.122   6.270   1.585
 2422TIP3    H1 7209   5.185   6.334   1.618
 2422TIP3    H2 7210   5.045   6.323   1.562
 2423TIP3   OH2 7211   2.401   4.127   0.397
 2423TIP3    H1 7212   2.412   4.216   0.363
 2423TIP3    H2 7213   2.484   4.084   0.380
 2424TIP3   OH2 7214   1.532   5.744   0.268
 2424TIP3    H1 7215   1.511   5.773   0.357
 2424TIP3    H2 7216   1.613   5.790   0.247
 2425TIP3   OH2 7217   6.679   6.970   3.474
 2425TIP3    H1 7218   6.605   6.986   3.532
 2425TIP3    H2 7219   6.671   7.035   3.405
 2426TIP3   OH2 7220   1.343   6.985   1.740
 2426TIP3    H1 7221   1.389   7.013   1.819
 2426TIP3    H2 7222   1.399   6.917   1.702
 2427TIP3   OH2 7223   1.240   7.074   4.584
 2427TIP3    H1 7224   1.330   7.104   4.586
 2427TIP3    H2 7225   1.245   6.982   4.557
 2428TIP3   OH2 7226   2.508   0.130   3.848
 2428TIP3    H1 7227   2.600   0.149   3.865
 2428TIP3    H2 7228   2.502   0.122   3.753
 2429TIP3   OH2 7229   0.750   2.982   0.612
 2429TIP3    H1 7230   0.701   3.062   0.629
 2429TIP3    H2 7231   0.690   2.927   0.562
 2430TIP3   OH2 7232   5.491   0.368   2.989
 2430TIP3    H1 7233   5.544   0.291   3.007
 2430TIP3    H2 7234   5.520   0.398   2.903
 2431TIP3   OH2 7235   1.617   3.080   3.841
 2431TIP3    H1 7236   1.529   3.090   3.878
 2431TIP3    H2 7237   1.675   3.076   3.917
 2432TIP3   OH2 7238   7.727   7.734   3.184
 2432TIP3    H1 7239   7.636   7.750   3.210
 2432TIP3    H2 7240   7.739   7.640   3.198
 2433TIP3   OH2 7241   5.304   6.944   4.830
 2433TIP3    H1 7242   5.238   7.003   4.793
 2433TIP3    H2 7243   5.269   6.856   4.815
 2434TIP3   OH2 7244   0.879   7.803   5.339
 2434TIP3    H1 7245   0.798   7.798   5.288
 2434TIP3    H2 7246   0.946   7.827   5.275
 2435TIP3   OH2 7247   1.538   4.600   1.200
 2435TIP3    H1 7248   1.613   4.577   1.254
 2435TIP3    H2 7249   1.573   4.657   1.132
 2436TIP3   OH2 7250   5.360   6.116   2.966
 2436TIP3    H1 7251   5.434   6.108   3.025
 2436TIP3    H2 7252   5.391   6.172   2.895
 2437TIP3   OH2 7253   7.808   4.582   5.000
 2437TIP3    H1 7254   7.764   4.659   5.038
 2437TIP3    H2 7255   7.865   4.619   4.932
 2438TIP3   OH2 7256   4.860   7.683   4.972
 2438TIP3    H1 7257   4.850   7.608   4.914
 2438TIP3    H2 7258   4.771   7.704   5.000
 2439TIP3   OH2 7259   2.854   0.053   0.693
 2439TIP3    H1 7260   2.915  -0.015   0.664
 2439TIP3    H2 7261   2.769   0.025   0.661
 2440TIP3   OH2 7262   4.734   1.289   6.156
 2440TIP3    H1 7263   4.640   1.290   6.174
 2440TIP3    H2 7264   4.772   1.248   6.234
 2441TIP3   OH2 7265   2.756   2.340   2.494
 2441TIP3    H1 7266   2.813   2.321   2.419
 2441TIP3    H2 7267   2.766   2.434   2.508
 2442TIP3   OH2 7268   4.664   3.884   2.704
 2442TIP3    H1 7269   4.701   3.915   2.786
 2442TIP3    H2 7270   4.575   3.858   2.726
 2443TIP3   OH2 7271   4.295   6.786   1.910
 2443TIP3    H1 7272   4.325   6.702   1.876
 2443TIP3    H2 7273   4.215   6.805   1.861
 2444TIP3   OH2 7274   3.469   6.034   6.487
 2444TIP3    H1 7275   3.540   5.990   6.534
 2444TIP3    H2 7276   3.410   6.064   6.556
 2445TIP3   OH2 7277   3.823   7.486   3.215
 2445TIP3    H1 7278   3.757   7.549   3.187
 2445TIP3    H2 7279   3.901   7.509   3.166
 2446TIP3   OH2 7280   2.228   5.664   1.561
 2446TIP3    H1 7281   2.276   5.584   1.582
 2446TIP3    H2 7282   2.159   5.635   1.502
 2447TIP3   OH2 7283   1.441   6.526   0.194
 2447TIP3    H1 7284   1.393   6.525   0.277
 2447TIP3    H2 7285   1.491   6.608   0.196
 2448TIP3   OH2 7286   5.950   5.807   1.815
 2448TIP3    H1 7287   5.904   5.834   1.736
 2448TIP3    H2 7288   5.920   5.867   1.883
 2449TIP3   OH2 7289   1.080   6.539   2.445
 2449TIP3    H1 7290   1.063   6.475   2.514
 2449TIP3    H2 7291   0.996   6.584   2.432
 2450TIP3   OH2 7292   4.456   5.506   5.078
 2450TIP3    H1 7293   4.543   5.464   5.077
 2450TIP3    H2 7294   4.466   5.581   5.137
 2451TIP3   OH2 7295   1.049   1.270   2.789
 2451TIP3    H1 7296   1.027   1.261   2.697
 2451TIP3    H2 7297   0.979   1.324   2.825
 2452TIP3   OH2 7298   1.594   5.918   1.967
 2452TIP3    H1 7299   1.641   5.956   2.041
 2452TIP3    H2 7300   1.501   5.923   1.993
 2453TIP3   OH2 7301   3.255   1.356   2.770
 2453TIP3    H1 7302   3.277   1.265   2.752
 2453TIP3    H2 7303   3.267   1.366   2.864
 2454TIP3   OH2 7304   0.799   2.344   5.885
 2454TIP3    H1 7305   0.751   2.426   5.897
 2454TIP3    H2 7306   0.746   2.279   5.930
 2455TIP3   OH2 7307   6.512   2.528   5.510
 2455TIP3    H1 7308   6.602   2.552   5.486
 2455TIP3    H2 7309   6.465   2.611   5.516
 2456TIP3   OH2 7310   7.283   6.413   6.178
 2456TIP3    H1 7311   7.314   6.323   6.189
 2456TIP3    H2 7312   7.237   6.432   6.260
 2457TIP3   OH2 7313   4.149   7.326   5.549
 2457TIP3    H1 7314   4.159   7.397   5.486
 2457TIP3    H2 7315   4.183   7.249   5.503
 2458TIP3   OH2 7316   1.183   7.634   3.208
 2458TIP3    H1 7317   1.142   7.709   3.250
 2458TIP3    H2 7318   1.153   7.637   3.117
 2459TIP3   OH2 7319   6.171   1.228   5.325
 2459TIP3    H1 7320   6.087   1.221   5.370
 2459TIP3    H2 7321   6.167   1.313   5.280
 2460TIP3   OH2 7322   1.249   7.118   2.975
 2460TIP3    H1 7323   1.305   7.078   2.909
 2460TIP3    H2 7324   1.295   7.101   3.058
 2461TIP3   OH2 7325   4.011   0.392   4.895
 2461TIP3    H1 7326   3.975   0.419   4.810
 2461TIP3    H2 7327   3.972   0.453   4.958
 2462TIP3   OH2 7328   1.563   3.006   4.713
 2462TIP3    H1 7329   1.489   3.028   4.656
 2462TIP3    H2 7330   1.590   2.919   4.683
 2463TIP3   OH2 7331   6.418   4.180   1.380
 2463TIP3    H1 7332   6.473   4.223   1.446
 2463TIP3    H2 7333   6.453   4.209   1.296
 2464TIP3   OH2 7334   2.177   4.265   1.976
 2464TIP3    H1 7335   2.257   4.278   2.026
 2464TIP3    H2 7336   2.175   4.171   1.958
 2465TIP3   OH2 7337   1.152   5.046   1.105
 2465TIP3    H1 7338   1.150   5.126   1.156
 2465TIP3    H2 7339   1.125   4.977   1.166
 2466TIP3   OH2 7340   2.218   2.472   4.372
 2466TIP3    H1 7341   2.194   2.428   4.290
 2466TIP3    H2 7342   2.202   2.565   4.355
 2467TIP3   OH2 7343   6.352   0.232   4.135
 2467TIP3    H1 7344   6.429   0.256   4.083
 2467TIP3    H2 7345   6.317   0.154   4.091
 2468TIP3   OH2 7346   8.052   5.935   3.093
 2468TIP3    H1 7347   8.104   5.950   3.172
 2468TIP3    H2 7348   8.000   5.857   3.113
 2469TIP3   OH2 7349   1.289   3.598   2.941
 2469TIP3    H1 7350   1.370   3.590   2.992
 2469TIP3    H2 7351   1.302   3.541   2.866
 2470TIP3   OH2 7352   4.310   2.005   6.694
 2470TIP3    H1 7353   4.366   1.992   6.770
 2470TIP3    H2 7354   4.337   2.091   6.659
 2471TIP3   OH2 7355   5.606   0.672   6.473
 2471TIP3    H1 7356   5.623   0.765   6.466
 2471TIP3    H2 7357   5.615   0.653   6.566
 2472TIP3   OH2 7358   0.548   3.918   2.207
 2472TIP3    H1 7359   0.578   3.976   2.137
 2472TIP3    H2 7360   0.609   3.845   2.205
 2473TIP3   OH2 7361   5.134   4.631   3.766
 2473TIP3    H1 7362   5.139   4.694   3.838
 2473TIP3    H2 7363   5.062   4.664   3.711
 2474TIP3   OH2 7364   1.787   4.600   0.269
 2474TIP3    H1 7365   1.836   4.663   0.321
 2474TIP3    H2 7366   1.799   4.630   0.179
 2475TIP3   OH2 7367   6.753   3.646   2.530
 2475TIP3    H1 7368   6.798   3.702   2.467
 2475TIP3    H2 7369   6.803   3.656   2.611
 2476TIP3   OH2 7370   5.783   0.621   6.269
 2476TIP3    H1 7371   5.708   0.622   6.329
 2476TIP3    H2 7372   5.804   0.528   6.259
 2477TIP3   OH2 7373   3.491   6.450   1.652
 2477TIP3    H1 7374   3.446   6.459   1.736
 2477TIP3    H2 7375   3.478   6.534   1.608
 2478TIP3   OH2 7376   6.987   0.681   6.101
 2478TIP3    H1 7377   6.926   0.742   6.142
 2478TIP3    H2 7378   7.068   0.732   6.090
 2479TIP3   OH2 7379   2.761   4.387   5.194
 2479TIP3    H1 7380   2.768   4.413   5.102
 2479TIP3    H2 7381   2.733   4.466   5.239
 2480TIP3   OH2 7382   7.797   0.734   1.062
 2480TIP3    H1 7383   7.852   0.760   0.988
 2480TIP3    H2 7384   7.708   0.742   1.028
 2481TIP3   OH2 7385   7.562   1.971   5.181
 2481TIP3    H1 7386   7.612   1.898   5.145
 2481TIP3    H2 7387   7.628   2.035   5.207
 2482TIP3   OH2 7388   5.877   3.611   5.208
 2482TIP3    H1 7389   5.841   3.646   5.126
 2482TIP3    H2 7390   5.868   3.682   5.271
 2483TIP3   OH2 7391   4.832   0.663   0.898
 2483TIP3    H1 7392   4.752   0.681   0.946
 2483TIP3    H2 7393   4.831   0.568   0.882
 2484TIP3   OH2 7394   0.167   6.198   0.701
 2484TIP3    H1 7395   0.093   6.145   0.670
 2484TIP3    H2 7396   0.127   6.282   0.724
 2485TIP3   OH2 7397   1.206   2.418   0.695
 2485TIP3    H1 7398   1.271   2.458   0.753
 2485TIP3    H2 7399   1.133   2.480   0.693
 2486TIP3   OH2 7400   3.157   3.764   3.780
 2486TIP3    H1 7401   3.130   3.732   3.866
 2486TIP3    H2 7402   3.117   3.703   3.718
 2487TIP3   OH2 7403   5.273   2.984   0.985
 2487TIP3    H1 7404   5.321   2.920   0.932
 2487TIP3    H2 7405   5.308   2.973   1.073
 2488TIP3   OH2 7406   1.160   3.958   6.479
 2488TIP3    H1 7407   1.150   4.031   6.540
 2488TIP3    H2 7408   1.163   3.999   6.392
 2489TIP3   OH2 7409   5.294   0.396   5.957
 2489TIP3    H1 7410   5.337   0.476   5.927
 2489TIP3    H2 7411   5.213   0.426   5.998
 2490TIP3   OH2 7412   2.355   1.005   0.747
 2490TIP3    H1 7413   2.340   1.090   0.788
 2490TIP3    H2 7414   2.270   0.982   0.708
 2491TIP3   OH2 7415   2.287   2.597   0.664
 2491TIP3    H1 7416   2.261   2.589   0.756
 2491TIP3    H2 7417   2.375   2.561   0.661
 2492TIP3   OH2 7418   7.658   1.251   2.423
 2492TIP3    H1 7419   7.613   1.308   2.360
 2492TIP3    H2 7420   7.712   1.193   2.368
 2493TIP3   OH2 7421   3.683   7.255   3.592
 2493TIP3    H1 7422   3.690   7.322   3.524
 2493TIP3    H2 7423   3.617   7.288   3.652
 2494TIP3   OH2 7424   7.620   6.465   5.289
 2494TIP3    H1 7425   7.552   6.459   5.223
 2494TIP3    H2 7426   7.667   6.382   5.283
 2495TIP3   OH2 7427   7.876   5.209   3.167
 2495TIP3    H1 7428   7.877   5.248   3.254
 2495TIP3    H2 7429   7.962   5.232   3.130
 2496TIP3   OH2 7430   5.155   6.579   3.499
 2496TIP3    H1 7431   5.074   6.541   3.464
 2496TIP3    H2 7432   5.165   6.538   3.584
 2497TIP3   OH2 7433   6.162   2.893   5.429
 2497TIP3    H1 7434   6.246   2.938   5.427
 2497TIP3    H2 7435   6.111   2.935   5.359
 2498TIP3   OH2 7436   0.692   1.842   1.262
 2498TIP3    H1 7437   0.714   1.849   1.355
 2498TIP3    H2 7438   0.776   1.856   1.217
 2499TIP3   OH2 7439   0.433   0.047   0.102
 2499TIP3    H1 7440   0.358   0.095   0.065
 2499TIP3    H2 7441   0.435   0.072   0.194
 2500TIP3   OH2 7442   5.046   7.558   0.292
 2500TIP3    H1 7443   5.045   7.648   0.326
 2500TIP3    H2 7444   5.130   7.522   0.322
 2501TIP3   OH2 7445   3.689   1.704   0.781
 2501TIP3    H1 7446   3.756   1.636   0.784
 2501TIP3    H2 7447   3.713   1.765   0.851
 2502TIP3   OH2 7448   5.883   5.615   3.956
 2502TIP3    H1 7449   5.867   5.548   4.023
 2502TIP3    H2 7450   5.809   5.607   3.896
 2503TIP3   OH2 7451   5.080   4.028   5.914
 2503TIP3    H1 7452   5.006   4.058   5.966
 2503TIP3    H2 7453   5.054   4.044   5.824
 2504TIP3   OH2 7454   6.730   4.010   6.568
 2504TIP3    H1 7455   6.701   4.097   6.596
 2504TIP3    H2 7456   6.784   4.026   6.491
 2505TIP3   OH2 7457   2.261   3.984   3.897
 2505TIP3    H1 7458   2.284   4.039   3.972
 2505TIP3    H2 7459   2.279   4.039   3.821
 2506TIP3   OH2 7460   3.141   3.639   3.403
 2506TIP3    H1 7461   3.180   3.567   3.352
 2506TIP3    H2 7462   3.216   3.681   3.446
 2507TIP3   OH2 7463   0.109   3.369   5.411
 2507TIP3    H1 7464   0.140   3.285   5.444
 2507TIP3    H2 7465   0.015   3.357   5.398
 2508TIP3   OH2 7466   5.657   3.261   6.199
 2508TIP3    H1 7467   5.672   3.356   6.191
 2508TIP3    H2 7468   5.562   3.254   6.208
 2509TIP3   OH2 7469   0.719   3.499   5.462
 2509TIP3    H1 7470   0.734   3.521   5.553
 2509TIP3    H2 7471   0.660   3.567   5.430
 2510TIP3   OH2 7472   0.902   0.429   0.941
 2510TIP3    H1 7473   0.948   0.355   0.982
 2510TIP3    H2 7474   0.867   0.392   0.860
 2511TIP3   OH2 7475   4.747   3.195   3.789
 2511TIP3    H1 7476   4.656   3.179   3.816
 2511TIP3    H2 7477   4.798   3.182   3.868
 2512TIP3   OH2 7478   6.647   5.930   3.520
 2512TIP3    H1 7479   6.686   5.883   3.447
 2512TIP3    H2 7480   6.560   5.892   3.531
 2513TIP3   OH2 7481   0.300   4.610   2.760
 2513TIP3    H1 7482   0.257   4.658   2.690
 2513TIP3    H2 7483   0.375   4.568   2.718
 2514TIP3   OH2 7484   5.756   3.413   3.844
 2514TIP3    H1 7485   5.832   3.391   3.790
 2514TIP3    H2 7486   5.683   3.418   3.782
 2515TIP3   OH2 7487   1.150   2.656   3.935
 2515TIP3    H1 7488   1.236   2.641   3.975
 2515TIP3    H2 7489   1.140   2.582   3.874
 2516TIP3   OH2 7490   2.059   0.979   0.364
 2516TIP3    H1 7491   2.019   0.892   0.368
 2516TIP3    H2 7492   1.984   1.039   0.362
 2517TIP3   OH2 7493   7.805   3.238   0.807
 2517TIP3    H1 7494   7.710   3.234   0.809
 2517TIP3    H2 7495   7.833   3.193   0.887
 2518TIP3   OH2 7496   6.874   7.407   0.372
 2518TIP3    H1 7497   6.786   7.379   0.350
 2518TIP3    H2 7498   6.926   7.327   0.371
 2519TIP3   OH2 7499   6.377   3.895   2.214
 2519TIP3    H1 7500   6.374   3.939   2.129
 2519TIP3    H2 7501   6.352   3.963   2.277
 2520TIP3   OH2 7502   7.412   3.765   3.175
 2520TIP3    H1 7503   7.319   3.751   3.194
 2520TIP3    H2 7504   7.413   3.834   3.109
 2521TIP3   OH2 7505   4.370   5.886   5.620
 2521TIP3    H1 7506   4.303   5.954   5.618
 2521TIP3    H2 7507   4.333   5.816   5.565
 2522TIP3   OH2 7508   2.023   6.016   5.402
 2522TIP3    H1 7509   2.078   6.074   5.350
 2522TIP3    H2 7510   2.047   5.928   5.372
 2523TIP3   OH2 7511   1.160   5.229   6.582
 2523TIP3    H1 7512   1.141   5.318   6.612
 2523TIP3    H2 7513   1.144   5.174   6.659
 2524TIP3   OH2 7514   5.814   0.075   0.175
 2524TIP3    H1 7515   5.719   0.081   0.179
 2524TIP3    H2 7516   5.845   0.133   0.245
 2525TIP3   OH2 7517   1.052   4.134   5.222
 2525TIP3    H1 7518   1.136   4.097   5.248
 2525TIP3    H2 7519   1.065   4.160   5.130
 2526TIP3   OH2 7520   2.791   2.505   3.033
 2526TIP3    H1 7521   2.775   2.457   3.114
 2526TIP3    H2 7522   2.753   2.591   3.048
 2527TIP3   OH2 7523   0.256   7.618   4.048
 2527TIP3    H1 7524   0.251   7.535   4.095
 2527TIP3    H2 7525   0.309   7.599   3.971
 2528TIP3   OH2 7526   8.242   5.281   5.526
 2528TIP3    H1 7527   8.284   5.196   5.508
 2528TIP3    H2 7528   8.209   5.273   5.615
 2529TIP3   OH2 7529   7.794   1.967   1.551
 2529TIP3    H1 7530   7.771   2.021   1.627
 2529TIP3    H2 7531   7.880   1.931   1.572
 2530TIP3   OH2 7532   1.870   7.607   3.295
 2530TIP3    H1 7533   1.775   7.593   3.289
 2530TIP3    H2 7534   1.908   7.522   3.275
 2531TIP3   OH2 7535   8.055   7.663   1.443
 2531TIP3    H1 7536   8.102   7.587   1.410
 2531TIP3    H2 7537   7.966   7.654   1.408
 2532TIP3   OH2 7538   1.148   2.638   2.534
 2532TIP3    H1 7539   1.214   2.575   2.503
 2532TIP3    H2 7540   1.183   2.724   2.510
 2533TIP3   OH2 7541   6.101   4.813   5.778
 2533TIP3    H1 7542   6.035   4.793   5.845
 2533TIP3    H2 7543   6.051   4.818   5.696
 2534TIP3   OH2 7544   4.966   3.693   1.305
 2534TIP3    H1 7545   4.980   3.602   1.280
 2534TIP3    H2 7546   5.053   3.725   1.330
 2535TIP3   OH2 7547   6.826   1.140   0.512
 2535TIP3    H1 7548   6.878   1.211   0.474
 2535TIP3    H2 7549   6.875   1.060   0.491
 2536TIP3   OH2 7550   4.017   2.100   4.373
 2536TIP3    H1 7551   4.111   2.082   4.381
 2536TIP3    H2 7552   3.997   2.156   4.448
 2537TIP3   OH2 7553   4.833   2.074   6.103
 2537TIP3    H1 7554   4.858   1.984   6.125
 2537TIP3    H2 7555   4.815   2.115   6.188
 2538TIP3   OH2 7556   2.792   4.023   5.997
 2538TIP3    H1 7557   2.852   3.986   6.061
 2538TIP3    H2 7558   2.840   4.023   5.915
 2539TIP3   OH2 7559   6.512   4.876   3.456
 2539TIP3    H1 7560   6.506   4.781   3.460
 2539TIP3    H2 7561   6.555   4.894   3.373
 2540TIP3   OH2 7562   3.525   2.738   6.465
 2540TIP3    H1 7563   3.439   2.711   6.497
 2540TIP3    H2 7564   3.507   2.782   6.382
 2541TIP3   OH2 7565   6.090   3.096   1.075
 2541TIP3    H1 7566   6.136   3.012   1.069
 2541TIP3    H2 7567   6.043   3.104   0.992
 2542TIP3   OH2 7568   1.031   0.445   2.398
 2542TIP3    H1 7569   1.036   0.439   2.493
 2542TIP3    H2 7570   1.031   0.539   2.379
 2543TIP3   OH2 7571   6.472   1.636   1.315
 2543TIP3    H1 7572   6.494   1.601   1.229
 2543TIP3    H2 7573   6.396   1.692   1.300
 2544TIP3   OH2 7574   5.823   2.414   0.795
 2544TIP3    H1 7575   5.757   2.483   0.785
 2544TIP3    H2 7576   5.855   2.424   0.884
 2545TIP3   OH2 7577   4.883   6.981   5.690
 2545TIP3    H1 7578   4.794   6.958   5.664
 2545TIP3    H2 7579   4.874   7.058   5.745
 2546TIP3   OH2 7580   5.659   5.566   3.801
 2546TIP3    H1 7581   5.625   5.503   3.864
 2546TIP3    H2 7582   5.672   5.515   3.721
 2547TIP3   OH2 7583   6.979   3.434   3.332
 2547TIP3    H1 7584   7.006   3.441   3.424
 2547TIP3    H2 7585   7.045   3.376   3.293
 2548TIP3   OH2 7586   7.034   4.346   5.019
 2548TIP3    H1 7587   6.964   4.321   4.959
 2548TIP3    H2 7588   7.106   4.288   4.996
 2549TIP3   OH2 7589   5.918   6.578   4.311
 2549TIP3    H1 7590   6.008   6.580   4.280
 2549TIP3    H2 7591   5.876   6.510   4.257
 2550TIP3   OH2 7592   0.263   4.299   3.277
 2550TIP3    H1 7593   0.214   4.273   3.199
 2550TIP3    H2 7594   0.222   4.249   3.348
 2551TIP3   OH2 7595   8.087   3.140   0.998
 2551TIP3    H1 7596   8.015   3.133   1.061
 2551TIP3    H2 7597   8.087   3.233   0.973
 2552TIP3   OH2 7598   6.214   2.361   2.607
 2552TIP3    H1 7599   6.195   2.382   2.516
 2552TIP3    H2 7600   6.307   2.383   2.618
 2553TIP3   OH2 7601   6.302   6.878   5.263
 2553TIP3    H1 7602   6.258   6.934   5.198
 2553TIP3    H2 7603   6.253   6.796   5.260
 2554TIP3   OH2 7604   1.845   2.784   3.090
 2554TIP3    H1 7605   1.821   2.692   3.081
 2554TIP3    H2 7606   1.771   2.824   3.135
 2555TIP3   OH2 7607   6.635   5.750   2.982
 2555TIP3    H1 7608   6.559   5.785   2.935
 2555TIP3    H2 7609   6.598   5.684   3.041
 2556TIP3   OH2 7610   0.765   6.024   3.850
 2556TIP3    H1 7611   0.744   5.955   3.913
 2556TIP3    H2 7612   0.782   5.977   3.768
 2557TIP3   OH2 7613   1.614   0.598   5.637
 2557TIP3    H1 7614   1.527   0.599   5.596
 2557TIP3    H2 7615   1.630   0.689   5.662
 2558TIP3   OH2 7616   1.130   2.767   1.850
 2558TIP3    H1 7617   1.140   2.713   1.928
 2558TIP3    H2 7618   1.071   2.716   1.794
 2559TIP3   OH2 7619   4.519   2.978   2.829
 2559TIP3    H1 7620   4.462   3.037   2.878
 2559TIP3    H2 7621   4.468   2.952   2.752
 2560TIP3   OH2 7622   3.784   1.659   4.352
 2560TIP3    H1 7623   3.856   1.644   4.290
 2560TIP3    H2 7624   3.708   1.619   4.310
 2561TIP3   OH2 7625   7.463   3.277   0.923
 2561TIP3    H1 7626   7.516   3.201   0.899
 2561TIP3    H2 7627   7.414   3.249   1.000
 2562TIP3   OH2 7628   7.031   4.814   1.712
 2562TIP3    H1 7629   7.034   4.728   1.669
 2562TIP3    H2 7630   6.987   4.871   1.648
 2563TIP3   OH2 7631   4.534   4.820   4.572
 2563TIP3    H1 7632   4.545   4.728   4.547
 2563TIP3    H2 7633   4.617   4.861   4.549
 2564TIP3   OH2 7634   7.504   5.120   3.449
 2564TIP3    H1 7635   7.416   5.112   3.485
 2564TIP3    H2 7636   7.512   5.212   3.424
 2565TIP3   OH2 7637   8.258   2.394   3.078
 2565TIP3    H1 7638   8.244   2.380   2.984
 2565TIP3    H2 7639   8.175   2.430   3.110
 2566TIP3   OH2 7640   6.601   1.228   6.614
 2566TIP3    H1 7641   6.514   1.188   6.608
 2566TIP3    H2 7642   6.662   1.155   6.610
 2567TIP3   OH2 7643   4.796   2.672   5.830
 2567TIP3    H1 7644   4.871   2.640   5.779
 2567TIP3    H2 7645   4.739   2.713   5.765
 2568TIP3   OH2 7646   3.561   5.245   3.358
 2568TIP3    H1 7647   3.586   5.337   3.362
 2568TIP3    H2 7648   3.639   5.200   3.326
 2569TIP3   OH2 7649   6.851   4.989   4.634
 2569TIP3    H1 7650   6.852   4.905   4.589
 2569TIP3    H2 7651   6.943   5.015   4.639
 2570TIP3   OH2 7652   4.621   5.822   2.032
 2570TIP3    H1 7653   4.586   5.851   1.948
 2570TIP3    H2 7654   4.570   5.744   2.054
 2571TIP3   OH2 7655   6.061   5.473   5.500
 2571TIP3    H1 7656   6.130   5.413   5.530
 2571TIP3    H2 7657   5.980   5.437   5.536
 2572TIP3   OH2 7658   0.750   1.756   4.860
 2572TIP3    H1 7659   0.662   1.793   4.858
 2572TIP3    H2 7660   0.807   1.831   4.877
 2573TIP3   OH2 7661   8.129   4.422   6.737
 2573TIP3    H1 7662   8.208   4.370   6.752
 2573TIP3    H2 7663   8.159   4.496   6.683
 2574TIP3   OH2 7664   4.801   1.015   0.585
 2574TIP3    H1 7665   4.754   0.954   0.641
 2574TIP3    H2 7666   4.760   1.100   0.602
 2575TIP3   OH2 7667   0.392   6.333   0.601
 2575TIP3    H1 7668   0.363   6.424   0.609
 2575TIP3    H2 7669   0.313   6.282   0.620
 2576TIP3   OH2 7670   2.346   6.613   1.492
 2576TIP3    H1 7671   2.429   6.655   1.515
 2576TIP3    H2 7672   2.345   6.532   1.544
 2577TIP3   OH2 7673   7.010   2.255   5.188
 2577TIP3    H1 7674   6.957   2.179   5.208
 2577TIP3    H2 7675   6.950   2.329   5.194
 2578TIP3   OH2 7676   2.441   7.394   2.777
 2578TIP3    H1 7677   2.365   7.412   2.722
 2578TIP3    H2 7678   2.500   7.469   2.762
 2579TIP3   OH2 7679   4.613   2.932   5.102
 2579TIP3    H1 7680   4.701   2.951   5.135
 2579TIP3    H2 7681   4.628   2.875   5.027
 2580TIP3   OH2 7682   7.287   0.244   0.728
 2580TIP3    H1 7683   7.335   0.198   0.659
 2580TIP3    H2 7684   7.350   0.306   0.764
 2581TIP3   OH2 7685   6.497   6.563   5.257
 2581TIP3    H1 7686   6.424   6.622   5.244
 2581TIP3    H2 7687   6.478   6.488   5.200
 2582TIP3   OH2 7688   8.168   3.131   3.953
 2582TIP3    H1 7689   8.106   3.074   3.906
 2582TIP3    H2 7690   8.114   3.177   4.017
 2583TIP3   OH2 7691   0.629   6.863   2.772
 2583TIP3    H1 7692   0.649   6.774   2.800
 2583TIP3    H2 7693   0.674   6.919   2.836
 2584TIP3   OH2 7694   6.959   2.081   0.666
 2584TIP3    H1 7695   6.943   2.157   0.721
 2584TIP3    H2 7696   6.875   2.061   0.626
 2585TIP3   OH2 7697   1.075   6.181   6.491
 2585TIP3    H1 7698   1.122   6.143   6.417
 2585TIP3    H2 7699   1.141   6.235   6.535
 2586TIP3   OH2 7700   3.706   6.815   4.218
 2586TIP3    H1 7701   3.694   6.879   4.148
 2586TIP3    H2 7702   3.786   6.768   4.194
 2587TIP3   OH2 7703   2.226   7.221   0.373
 2587TIP3    H1 7704   2.245   7.236   0.281
 2587TIP3    H2 7705   2.153   7.280   0.392
 2588TIP3   OH2 7706   4.737   7.026   4.901
 2588TIP3    H1 7707   4.712   7.108   4.858
 2588TIP3    H2 7708   4.659   7.001   4.951
 2589TIP3   OH2 7709   3.191   7.611   0.167
 2589TIP3    H1 7710   3.157   7.699   0.184
 2589TIP3    H2 7711   3.114   7.561   0.140
 2590TIP3   OH2 7712   4.286   0.936   1.123
 2590TIP3    H1 7713   4.270   0.905   1.212
 2590TIP3    H2 7714   4.234   0.877   1.067
 2591TIP3   OH2 7715   7.157   3.308   0.763
 2591TIP3    H1 7716   7.083   3.301   0.824
 2591TIP3    H2 7717   7.189   3.398   0.776
 2592TIP3   OH2 7718   6.328   7.517   5.705
 2592TIP3    H1 7719   6.265   7.458   5.662
 2592TIP3    H2 7720   6.331   7.487   5.795
 2593TIP3   OH2 7721   6.584   4.968   4.606
 2593TIP3    H1 7722   6.666   4.960   4.558
 2593TIP3    H2 7723   6.597   4.914   4.684
 2594TIP3   OH2 7724   7.694   3.201   6.500
 2594TIP3    H1 7725   7.773   3.229   6.545
 2594TIP3    H2 7726   7.717   3.200   6.408
 2595TIP3   OH2 7727   3.489   6.294   4.007
 2595TIP3    H1 7728   3.417   6.304   3.945
 2595TIP3    H2 7729   3.566   6.326   3.960
 2596TIP3   OH2 7730   3.475   2.243   4.418
 2596TIP3    H1 7731   3.443   2.162   4.377
 2596TIP3    H2 7732   3.568   2.246   4.395
 2597TIP3   OH2 7733   7.660   2.711   2.613
 2597TIP3    H1 7734   7.737   2.743   2.566
 2597TIP3    H2 7735   7.601   2.681   2.544
 2598TIP3   OH2 7736   6.424   6.007   0.112
 2598TIP3    H1 7737   6.411   5.913   0.124
 2598TIP3    H2 7738   6.509   6.025   0.150
 2599TIP3   OH2 7739   6.619   6.453   6.327
 2599TIP3    H1 7740   6.617   6.371   6.276
 2599TIP3    H2 7741   6.552   6.508   6.288
 2600TIP3   OH2 7742   2.911   1.270   3.201
 2600TIP3    H1 7743   2.881   1.360   3.194
 2600TIP3    H2 7744   2.983   1.272   3.265
 2601TIP3   OH2 7745   6.732   4.302   2.729
 2601TIP3    H1 7746   6.798   4.264   2.671
 2601TIP3    H2 7747   6.691   4.228   2.773
 2602TIP3   OH2 7748   6.212   1.816   0.854
 2602TIP3    H1 7749   6.303   1.787   0.858
 2602TIP3    H2 7750   6.162   1.735   0.864
 2603TIP3   OH2 7751   1.386   4.971   3.094
 2603TIP3    H1 7752   1.437   5.041   3.053
 2603TIP3    H2 7753   1.449   4.900   3.105
 2604TIP3   OH2 7754   6.489   3.770   4.119
 2604TIP3    H1 7755   6.574   3.733   4.099
 2604TIP3    H2 7756   6.427   3.698   4.106
 2605TIP3   OH2 7757   6.877   3.090   6.768
 2605TIP3    H1 7758   6.884   3.004   6.726
 2605TIP3    H2 7759   6.868   3.151   6.695
 2606TIP3   OH2 7760   4.273   1.153   0.763
 2606TIP3    H1 7761   4.335   1.197   0.704
 2606TIP3    H2 7762   4.329   1.100   0.820
 2607TIP3   OH2 7763   0.370   3.374   1.407
 2607TIP3    H1 7764   0.418   3.456   1.392
 2607TIP3    H2 7765   0.420   3.307   1.360
 2608TIP3   OH2 7766   5.712   5.726   4.794
 2608TIP3    H1 7767   5.689   5.753   4.883
 2608TIP3    H2 7768   5.630   5.692   4.758
 2609TIP3   OH2 7769   8.159   7.151   5.909
 2609TIP3    H1 7770   8.187   7.154   6.000
 2609TIP3    H2 7771   8.089   7.086   5.908
 2610TIP3   OH2 7772   8.055   4.069   5.181
 2610TIP3    H1 7773   8.123   4.082   5.246
 2610TIP3    H2 7774   7.988   4.133   5.203
 2611TIP3   OH2 7775   4.913   5.155   2.562
 2611TIP3    H1 7776   4.903   5.060   2.566
 2611TIP3    H2 7777   5.006   5.170   2.575
 2612TIP3   OH2 7778   6.127   5.990   5.610
 2612TIP3    H1 7779   6.036   6.010   5.628
 2612TIP3    H2 7780   6.129   5.895   5.599
 2613TIP3   OH2 7781   3.025   4.802   4.327
 2613TIP3    H1 7782   3.093   4.739   4.350
 2613TIP3    H2 7783   3.002   4.844   4.410
 2614TIP3   OH2 7784   5.636   0.541   5.402
 2614TIP3    H1 7785   5.619   0.626   5.443
 2614TIP3    H2 7786   5.633   0.559   5.308
 2615TIP3   OH2 7787   6.164   7.300   2.835
 2615TIP3    H1 7788   6.223   7.239   2.790
 2615TIP3    H2 7789   6.211   7.324   2.915
 2616TIP3   OH2 7790   7.352   5.463   3.625
 2616TIP3    H1 7791   7.351   5.502   3.712
 2616TIP3    H2 7792   7.317   5.532   3.568
 2617TIP3   OH2 7793   5.606   5.645   5.437
 2617TIP3    H1 7794   5.679   5.708   5.437
 2617TIP3    H2 7795   5.559   5.663   5.355
 2618TIP3   OH2 7796   3.413   2.532   3.240
 2618TIP3    H1 7797   3.507   2.536   3.258
 2618TIP3    H2 7798   3.401   2.447   3.197
 2619TIP3   OH2 7799   7.621   0.574   2.389
 2619TIP3    H1 7800   7.698   0.627   2.410
 2619TIP3    H2 7801   7.577   0.622   2.320
 2620TIP3   OH2 7802   7.116   7.543   5.136
 2620TIP3    H1 7803   7.137   7.451   5.119
 2620TIP3    H2 7804   7.174   7.593   5.078
 2621TIP3   OH2 7805   1.046   1.997   2.744
 2621TIP3    H1 7806   0.969   1.943   2.764
 2621TIP3    H2 7807   1.107   1.979   2.815
 2622TIP3   OH2 7808   2.045   2.070   0.626
 2622TIP3    H1 7809   2.113   2.065   0.694
 2622TIP3    H2 7810   2.053   1.988   0.578
 2623TIP3   OH2 7811   6.533   2.427   4.247
 2623TIP3    H1 7812   6.593   2.494   4.216
 2623TIP3    H2 7813   6.483   2.401   4.169
 2624TIP3   OH2 7814   2.914   7.026   3.817
 2624TIP3    H1 7815   2.975   7.067   3.756
 2624TIP3    H2 7816   2.828   7.054   3.787
 2625TIP3   OH2 7817   6.587   0.292   6.109
 2625TIP3    H1 7818   6.681   0.304   6.098
 2625TIP3    H2 7819   6.578   0.208   6.153
 2626TIP3   OH2 7820   1.037   5.927   1.340
 2626TIP3    H1 7821   0.970   5.917   1.272
 2626TIP3    H2 7822   1.066   5.838   1.358
 2627TIP3   OH2 7823   6.388   2.175   4.211
 2627TIP3    H1 7824   6.301   2.209   4.193
 2627TIP3    H2 7825   6.434   2.181   4.127
 2628TIP3   OH2 7826   3.792   0.390   1.283
 2628TIP3    H1 7827   3.700   0.371   1.262
 2628TIP3    H2 7828   3.793   0.484   1.300
 2629TIP3   OH2 7829   4.633   4.786   5.197
 2629TIP3    H1 7830   4.654   4.796   5.104
 2629TIP3    H2 7831   4.543   4.818   5.204
 2630TIP3   OH2 7832   6.104   6.439   0.821
 2630TIP3    H1 7833   6.041   6.502   0.855
 2630TIP3    H2 7834   6.069   6.353   0.845
 2631TIP3   OH2 7835   1.406   3.475   6.568
 2631TIP3    H1 7836   1.345   3.426   6.514
 2631TIP3    H2 7837   1.397   3.566   6.539
 2632TIP3   OH2 7838   7.045  -0.021   2.201
 2632TIP3    H1 7839   6.995   0.048   2.157
 2632TIP3    H2 7840   7.132   0.016   2.214
 2633TIP3   OH2 7841   2.719   5.252   5.219
 2633TIP3    H1 7842   2.665   5.326   5.248
 2633TIP3    H2 7843   2.809   5.285   5.223
 2634TIP3   OH2 7844   3.609   6.243   4.578
 2634TIP3    H1 7845   3.529   6.234   4.631
 2634TIP3    H2 7846   3.577   6.268   4.491
 2635TIP3   OH2 7847   7.737   3.545   5.812
 2635TIP3    H1 7848   7.698   3.622   5.852
 2635TIP3    H2 7849   7.831   3.562   5.812
 2636TIP3   OH2 7850   6.003   7.537   1.290
 2636TIP3    H1 7851   5.985   7.477   1.218
 2636TIP3    H2 7852   6.085   7.579   1.265
 2637TIP3   OH2 7853   2.870   5.801   4.230
 2637TIP3    H1 7854   2.796   5.748   4.201
 2637TIP3    H2 7855   2.913   5.748   4.297
 2638TIP3   OH2 7856   7.668   2.079   3.137
 2638TIP3    H1 7857   7.600   2.074   3.070
 2638TIP3    H2 7858   7.714   1.996   3.130
 2639TIP3   OH2 7859   6.655   7.846   6.514
 2639TIP3    H1 7860   6.684   7.761   6.547
 2639TIP3    H2 7861   6.663   7.838   6.419
 2640TIP3   OH2 7862   5.269   4.011   1.530
 2640TIP3    H1 7863   5.225   4.032   1.448
 2640TIP3    H2 7864   5.360   4.036   1.516
 2641TIP3   OH2 7865   2.296   5.042   5.116
 2641TIP3    H1 7866   2.228   4.976   5.125
 2641TIP3    H2 7867   2.266   5.116   5.169
 2642TIP3   OH2 7868   6.347   5.599   2.051
 2642TIP3    H1 7869   6.408   5.642   2.110
 2642TIP3    H2 7870   6.326   5.665   1.985
 2643TIP3   OH2 7871   3.221   5.109   3.106
 2643TIP3    H1 7872   3.273   5.049   3.052
 2643TIP3    H2 7873   3.256   5.098   3.194
 2644TIP3   OH2 7874   1.752   3.111   0.279
 2644TIP3    H1 7875   1.846   3.124   0.291
 2644TIP3    H2 7876   1.744   3.019   0.257
 2645TIP3   OH2 7877   4.669   4.356   6.408
 2645TIP3    H1 7878   4.729   4.291   6.446
 2645TIP3    H2 7879   4.673   4.430   6.468
 2646TIP3   OH2 7880   2.787   4.227   1.777
 2646TIP3    H1 7881   2.795   4.276   1.859
 2646TIP3    H2 7882   2.694   4.210   1.768
 2647TIP3   OH2 7883   7.010   1.624   6.130
 2647TIP3    H1 7884   7.030   1.714   6.154
 2647TIP3    H2 7885   6.924   1.629   6.088
 2648TIP3   OH2 7886   5.246   6.134   4.546
 2648TIP3    H1 7887   5.192   6.206   4.578
 2648TIP3    H2 7888   5.332   6.148   4.585
 2649TIP3   OH2 7889   4.351   1.320   4.452
 2649TIP3    H1 7890   4.340   1.408   4.416
 2649TIP3    H2 7891   4.446   1.305   4.450
 2650TIP3   OH2 7892   1.537   4.436   3.302
 2650TIP3    H1 7893   1.479   4.507   3.331
 2650TIP3    H2 7894   1.620   4.480   3.281
 2651TIP3   OH2 7895   5.564   5.480   0.197
 2651TIP3    H1 7896   5.643   5.505   0.245
 2651TIP3    H2 7897   5.536   5.560   0.153
 2652TIP3   OH2 7898   1.763   3.573   3.571
 2652TIP3    H1 7899   1.782   3.662   3.600
 2652TIP3    H2 7900   1.756   3.523   3.653
 2653TIP3   OH2 7901   2.696   4.204   0.281
 2653TIP3    H1 7902   2.688   4.257   0.360
 2653TIP3    H2 7903   2.711   4.115   0.313
 2654TIP3   OH2 7904   4.922   2.275   4.166
 2654TIP3    H1 7905   4.933   2.369   4.175
 2654TIP3    H2 7906   4.855   2.265   4.098
 2655TIP3   OH2 7907   1.200   2.869   3.354
 2655TIP3    H1 7908   1.215   2.844   3.262
 2655TIP3    H2 7909   1.118   2.917   3.352
 2656TIP3   OH2 7910   1.748   2.962   2.637
 2656TIP3    H1 7911   1.812   3.013   2.588
 2656TIP3    H2 7912   1.759   2.990   2.728
 2657TIP3   OH2 7913   0.607   7.381   1.654
 2657TIP3    H1 7914   0.600   7.474   1.672
 2657TIP3    H2 7915   0.632   7.377   1.561
 2658TIP3   OH2 7916   8.098   4.635   1.211
 2658TIP3    H1 7917   8.114   4.543   1.235
 2658TIP3    H2 7918   8.183   4.678   1.225
 2659TIP3   OH2 7919   1.147   6.089   6.243
 2659TIP3    H1 7920   1.238   6.070   6.220
 2659TIP3    H2 7921   1.096   6.023   6.196
 2660TIP3   OH2 7922   5.870   4.321   4.370
 2660TIP3    H1 7923   5.918   4.381   4.426
 2660TIP3    H2 7924   5.801   4.285   4.426
 2661TIP3   OH2 7925   0.202   4.205   2.324
 2661TIP3    H1 7926   0.237   4.211   2.235
 2661TIP3    H2 7927   0.119   4.158   2.314
 2662TIP3   OH2 7928   3.206   5.285   5.406
 2662TIP3    H1 7929   3.278   5.225   5.426
 2662TIP3    H2 7930   3.248   5.372   5.404
 2663TIP3   OH2 7931   5.324   5.603   5.476
 2663TIP3    H1 7932   5.418   5.620   5.471
 2663TIP3    H2 7933   5.318   5.510   5.497
 2664TIP3   OH2 7934   6.796   0.874   6.155
 2664TIP3    H1 7935   6.702   0.889   6.168
 2664TIP3    H2 7936   6.824   0.948   6.100
 2665TIP3   OH2 7937   2.047   2.072   5.400
 2665TIP3    H1 7938   2.047   1.990   5.350
 2665TIP3    H2 7939   2.029   2.139   5.334
 2666TIP3   OH2 7940   7.219   1.820   5.002
 2666TIP3    H1 7941   7.269   1.786   5.076
 2666TIP3    H2 7942   7.230   1.915   5.007
 2667TIP3   OH2 7943   1.325   1.579   5.812
 2667TIP3    H1 7944   1.285   1.629   5.741
 2667TIP3    H2 7945   1.395   1.635   5.844
 2668TIP3   OH2 7946   1.610   7.762   1.412
 2668TIP3    H1 7947   1.577   7.850   1.428
 2668TIP3    H2 7948   1.542   7.721   1.357
 2669TIP3   OH2 7949   4.032   7.405   5.057
 2669TIP3    H1 7950   4.000   7.346   5.126
 2669TIP3    H2 7951   3.953   7.447   5.023
 2670TIP3   OH2 7952   1.096   4.454   5.995
 2670TIP3    H1 7953   1.022   4.414   6.041
 2670TIP3    H2 7954   1.064   4.541   5.970
 2671TIP3   OH2 7955   1.684   6.466   6.160
 2671TIP3    H1 7956   1.616   6.532   6.174
 2671TIP3    H2 7957   1.737   6.471   6.240
 2672TIP3   OH2 7958   8.308   6.288   3.707
 2672TIP3    H1 7959   8.307   6.318   3.798
 2672TIP3    H2 7960   8.218   6.296   3.677
 2673TIP3   OH2 7961   5.245   7.715   6.464
 2673TIP3    H1 7962   5.217   7.781   6.401
 2673TIP3    H2 7963   5.333   7.690   6.435
 2674TIP3   OH2 7964   5.362   1.161   5.278
 2674TIP3    H1 7965   5.395   1.202   5.358
 2674TIP3    H2 7966   5.340   1.234   5.221
 2675TIP3   OH2 7967   0.628   4.965   6.596
 2675TIP3    H1 7968   0.614   4.895   6.660
 2675TIP3    H2 7969   0.544   4.974   6.551
 2676TIP3   OH2 7970   0.056   3.190   0.815
 2676TIP3    H1 7971   0.033   3.144   0.734
 2676TIP3    H2 7972  -0.017   3.251   0.829
 2677TIP3   OH2 7973   4.419   6.356   2.664
 2677TIP3    H1 7974   4.408   6.451   2.656
 2677TIP3    H2 7975   4.465   6.344   2.747
 2678TIP3   OH2 7976   7.075   1.594   6.577
 2678TIP3    H1 7977   7.099   1.551   6.659
 2678TIP3    H2 7978   7.076   1.688   6.598
 2679TIP3   OH2 7979   4.578   0.697   1.545
 2679TIP3    H1 7980   4.632   0.772   1.569
 2679TIP3    H2 7981   4.541   0.720   1.460
 2680TIP3   OH2 7982   2.791   0.422   2.737
 2680TIP3    H1 7983   2.832   0.352   2.786
 2680TIP3    H2 7984   2.847   0.434   2.660
 2681TIP3   OH2 7985   7.387   6.601   5.781
 2681TIP3    H1 7986   7.392   6.631   5.872
 2681TIP3    H2 7987   7.297   6.619   5.755
 2682TIP3   OH2 7988   4.892   2.884   6.308
 2682TIP3    H1 7989   4.829   2.945   6.270
 2682TIP3    H2 7990   4.972   2.897   6.258
 2683TIP3   OH2 7991   0.906   1.472   2.113
 2683TIP3    H1 7992   0.882   1.408   2.046
 2683TIP3    H2 7993   0.937   1.548   2.063
 2684TIP3   OH2 7994   4.391   7.635   0.627
 2684TIP3    H1 7995   4.340   7.694   0.571
 2684TIP3    H2 7996   4.342   7.552   0.624
 2685TIP3   OH2 7997   3.301   1.300   4.606
 2685TIP3    H1 7998   3.291   1.301   4.511
 2685TIP3    H2 7999   3.358   1.225   4.623
 2686TIP3   OH2 8000   2.177   4.733   4.369
 2686TIP3    H1 8001   2.206   4.808   4.317
 2686TIP3    H2 8002   2.082   4.744   4.376
 2687TIP3   OH2 8003   6.724   1.979   4.612
 2687TIP3    H1 8004   6.817   1.995   4.593
 2687TIP3    H2 8005   6.682   1.976   4.527
 2688TIP3   OH2 8006   7.066   7.022   2.717
 2688TIP3    H1 8007   6.984   7.056   2.755
 2688TIP3    H2 8008   7.061   6.928   2.730
 2689TIP3   OH2 8009   2.753   6.393   5.004
 2689TIP3    H1 8010   2.667   6.357   5.028
 2689TIP3    H2 8011   2.766   6.366   4.913
 2690TIP3   OH2 8012   1.731   3.302   3.224
 2690TIP3    H1 8013   1.670   3.359   3.272
 2690TIP3    H2 8014   1.811   3.302   3.277
 2691TIP3   OH2 8015   3.129   3.001   4.640
 2691TIP3    H1 8016   3.045   3.047   4.641
 2691TIP3    H2 8017   3.105   2.909   4.629
 2692TIP3   OH2 8018   0.633   1.041   6.303
 2692TIP3    H1 8019   0.558   0.984   6.317
 2692TIP3    H2 8020   0.664   1.019   6.215
 2693TIP3   OH2 8021   1.589   6.758   3.542
 2693TIP3    H1 8022   1.494   6.745   3.531
 2693TIP3    H2 8023   1.597   6.843   3.585
 2694TIP3   OH2 8024   0.200   4.583   1.818
 2694TIP3    H1 8025   0.195   4.487   1.814
 2694TIP3    H2 8026   0.238   4.601   1.904
 2695TIP3   OH2 8027   4.550   1.214   4.750
 2695TIP3    H1 8028   4.458   1.191   4.764
 2695TIP3    H2 8029   4.599   1.159   4.812
 2696TIP3   OH2 8030   2.174   4.872   1.177
 2696TIP3    H1 8031   2.100   4.903   1.125
 2696TIP3    H2 8032   2.134   4.834   1.255
 2697TIP3   OH2 8033   3.615   0.284   6.171
 2697TIP3    H1 8034   3.550   0.215   6.175
 2697TIP3    H2 8035   3.698   0.241   6.188
 2698TIP3   OH2 8036   4.584   6.605   2.179
 2698TIP3    H1 8037   4.510   6.564   2.134
 2698TIP3    H2 8038   4.545   6.678   2.227
 2699TIP3   OH2 8039   6.516   2.245   3.730
 2699TIP3    H1 8040   6.435   2.202   3.758
 2699TIP3    H2 8041   6.548   2.191   3.658
 2700TIP3   OH2 8042   0.454   1.551   1.994
 2700TIP3    H1 8043   0.364   1.581   2.006
 2700TIP3    H2 8044   0.445   1.459   1.967
 2701TIP3   OH2 8045   7.001   0.816   4.014
 2701TIP3    H1 8046   7.068   0.865   4.063
 2701TIP3    H2 8047   6.927   0.810   4.074
 2702TIP3   OH2 8048   6.630   6.354   0.408
 2702TIP3    H1 8049   6.688   6.349   0.333
 2702TIP3    H2 8050   6.673   6.415   0.468
 2703TIP3   OH2 8051   7.765   4.627   4.227
 2703TIP3    H1 8052   7.741   4.647   4.136
 2703TIP3    H2 8053   7.724   4.542   4.245
 2704TIP3   OH2 8054   2.854   5.005   5.698
 2704TIP3    H1 8055   2.870   5.056   5.619
 2704TIP3    H2 8056   2.889   4.919   5.679
 2705TIP3   OH2 8057   6.204   2.087   0.873
 2705TIP3    H1 8058   6.227   1.996   0.889
 2705TIP3    H2 8059   6.251   2.110   0.792
 2706TIP3   OH2 8060   4.205   2.410   4.305
 2706TIP3    H1 8061   4.171   2.425   4.217
 2706TIP3    H2 8062   4.151   2.466   4.361
 2707TIP3   OH2 8063   7.328   2.721   4.545
 2707TIP3    H1 8064   7.285   2.670   4.614
 2707TIP3    H2 8065   7.279   2.804   4.543
 2708TIP3   OH2 8066   2.751   0.677   2.838
 2708TIP3    H1 8067   2.736   0.697   2.930
 2708TIP3    H2 8068   2.754   0.581   2.834
 2709TIP3   OH2 8069   4.159   3.767   1.182
 2709TIP3    H1 8070   4.180   3.835   1.246
 2709TIP3    H2 8071   4.233   3.768   1.121
 2710TIP3   OH2 8072   3.937   5.980   3.924
 2710TIP3    H1 8073   3.873   5.909   3.919
 2710TIP3    H2 8074   4.021   5.936   3.918
 2711TIP3   OH2 8075   5.349   7.284   1.597
 2711TIP3    H1 8076   5.420   7.345   1.616
 2711TIP3    H2 8077   5.380   7.234   1.521
 2712TIP3   OH2 8078   4.818   2.061   3.778
 2712TIP3    H1 8079   4.782   2.053   3.866
 2712TIP3    H2 8080   4.743   2.054   3.719
 2713TIP3   OH2 8081   6.103   7.358   0.521
 2713TIP3    H1 8082   6.180   7.393   0.566
 2713TIP3    H2 8083   6.138   7.293   0.460
 2714TIP3   OH2 8084   1.518   5.555   4.290
 2714TIP3    H1 8085   1.517   5.598   4.376
 2714TIP3    H2 8086   1.446   5.595   4.242
 2715TIP3   OH2 8087   7.007   1.995   5.680
 2715TIP3    H1 8088   7.095   1.972   5.709
 2715TIP3    H2 8089   6.988   2.078   5.725
 2716TIP3   OH2 8090   2.867   6.946   6.610
 2716TIP3    H1 8091   2.838   6.883   6.677
 2716TIP3    H2 8092   2.826   7.029   6.637
 2717TIP3   OH2 8093   2.273   6.791   1.157
 2717TIP3    H1 8094   2.325   6.714   1.180
 2717TIP3    H2 8095   2.183   6.759   1.156
 2718TIP3   OH2 8096   5.607   3.075   6.515
 2718TIP3    H1 8097   5.666   3.053   6.444
 2718TIP3    H2 8098   5.528   3.025   6.497
 2719TIP3   OH2 8099   1.897   0.982   4.314
 2719TIP3    H1 8100   1.882   1.055   4.375
 2719TIP3    H2 8101   1.816   0.931   4.317
 2720TIP3   OH2 8102   5.978   6.482   4.789
 2720TIP3    H1 8103   5.994   6.446   4.702
 2720TIP3    H2 8104   6.052   6.540   4.805
 2721TIP3   OH2 8105   2.723   4.810   4.651
 2721TIP3    H1 8106   2.773   4.767   4.720
 2721TIP3    H2 8107   2.744   4.761   4.572
 2722TIP3   OH2 8108   4.655   5.691   0.776
 2722TIP3    H1 8109   4.677   5.601   0.753
 2722TIP3    H2 8110   4.654   5.693   0.871
 2723TIP3   OH2 8111   0.604   1.297   1.291
 2723TIP3    H1 8112   0.510   1.309   1.302
 2723TIP3    H2 8113   0.635   1.271   1.378
 2724TIP3   OH2 8114   7.948   5.753   1.285
 2724TIP3    H1 8115   8.019   5.755   1.220
 2724TIP3    H2 8116   7.879   5.702   1.243
 2725TIP3   OH2 8117   6.782   2.631   2.923
 2725TIP3    H1 8118   6.758   2.560   2.864
 2725TIP3    H2 8119   6.852   2.678   2.877
 2726TIP3   OH2 8120   5.235   7.557   3.027
 2726TIP3    H1 8121   5.181   7.613   2.971
 2726TIP3    H2 8122   5.217   7.468   2.997
 2727TIP3   OH2 8123   7.092   1.487   4.236
 2727TIP3    H1 8124   7.085   1.461   4.145
 2727TIP3    H2 8125   7.185   1.478   4.257
 2728TIP3   OH2 8126   7.284   3.461   4.644
 2728TIP3    H1 8127   7.274   3.417   4.728
 2728TIP3    H2 8128   7.374   3.494   4.644
 2729TIP3   OH2 8129   6.552   7.236   5.457
 2729TIP3    H1 8130   6.460   7.214   5.470
 2729TIP3    H2 8131   6.573   7.204   5.369
 2730TIP3   OH2 8132   0.138   2.321   5.800
 2730TIP3    H1 8133   0.081   2.262   5.850
 2730TIP3    H2 8134   0.226   2.291   5.819
 2731TIP3   OH2 8135   1.244   7.035   1.156
 2731TIP3    H1 8136   1.229   7.128   1.177
 2731TIP3    H2 8137   1.323   7.012   1.206
 2732TIP3   OH2 8138   0.237   5.805   3.482
 2732TIP3    H1 8139   0.168   5.777   3.542
 2732TIP3    H2 8140   0.213   5.894   3.458
 2733TIP3   OH2 8141   7.272   4.334   3.131
 2733TIP3    H1 8142   7.296   4.416   3.174
 2733TIP3    H2 8143   7.229   4.362   3.050
 2734TIP3   OH2 8144   6.913   4.963   0.242
 2734TIP3    H1 8145   6.900   4.894   0.177
 2734TIP3    H2 8146   7.002   4.948   0.276
 2735TIP3   OH2 8147   7.783   0.579   5.571
 2735TIP3    H1 8148   7.871   0.598   5.602
 2735TIP3    H2 8149   7.740   0.537   5.645
 2736TIP3   OH2 8150   2.321   2.143   1.090
 2736TIP3    H1 8151   2.403   2.152   1.040
 2736TIP3    H2 8152   2.289   2.056   1.066
 2737TIP3   OH2 8153   2.654   0.836   0.152
 2737TIP3    H1 8154   2.629   0.909   0.208
 2737TIP3    H2 8155   2.735   0.865   0.110
 2738TIP3   OH2 8156   5.203   2.023   4.176
 2738TIP3    H1 8157   5.112   1.998   4.161
 2738TIP3    H2 8158   5.203   2.119   4.171
 2739TIP3   OH2 8159  -0.010   6.955   5.459
 2739TIP3    H1 8160   0.026   7.021   5.400
 2739TIP3    H2 8161   0.057   6.945   5.526
 2740TIP3   OH2 8162   4.957   1.130   1.539
 2740TIP3    H1 8163   5.021   1.187   1.497
 2740TIP3    H2 8164   4.892   1.189   1.577
 2741TIP3   OH2 8165   6.549   7.013   0.035
 2741TIP3    H1 8166   6.483   6.947   0.016
 2741TIP3    H2 8167   6.573   7.049  -0.050
 2742TIP3   OH2 8168   7.488   0.923   3.629
 2742TIP3    H1 8169   7.512   0.898   3.539
 2742TIP3    H2 8170   7.500   0.843   3.680
 2743TIP3   OH2 8171   0.481   5.637   5.610
 2743TIP3    H1 8172   0.534   5.699   5.660
 2743TIP3    H2 8173   0.539   5.608   5.539
 2744TIP3   OH2 8174   7.678   0.270   3.638
 2744TIP3    H1 8175   7.682   0.237   3.548
 2744TIP3    H2 8176   7.765   0.307   3.653
 2745TIP3   OH2 8177   2.841   6.314   6.302
 2745TIP3    H1 8178   2.832   6.318   6.398
 2745TIP3    H2 8179   2.787   6.240   6.276
 2746TIP3   OH2 8180   5.862   7.434   0.846
 2746TIP3    H1 8181   5.929   7.437   0.914
 2746TIP3    H2 8182   5.878   7.351   0.800
 2747TIP3   OH2 8183   7.413   4.875   0.307
 2747TIP3    H1 8184   7.390   4.807   0.244
 2747TIP3    H2 8185   7.508   4.888   0.295
 2748TIP3   OH2 8186   0.587   7.025   1.035
 2748TIP3    H1 8187   0.536   7.026   0.954
 2748TIP3    H2 8188   0.580   6.934   1.066
 2749TIP3   OH2 8189   2.450   2.715   0.937
 2749TIP3    H1 8190   2.530   2.754   0.902
 2749TIP3    H2 8191   2.476   2.676   1.020
 2750TIP3   OH2 8192   3.475   7.841   4.344
 2750TIP3    H1 8193   3.531   7.807   4.414
 2750TIP3    H2 8194   3.454   7.765   4.291
 2751TIP3   OH2 8195   6.799   1.894   0.508
 2751TIP3    H1 8196   6.798   1.849   0.592
 2751TIP3    H2 8197   6.727   1.855   0.459
 2752TIP3   OH2 8198   7.276   4.753   4.090
 2752TIP3    H1 8199   7.319   4.671   4.115
 2752TIP3    H2 8200   7.336   4.794   4.028
 2753TIP3   OH2 8201   5.757   7.712   5.272
 2753TIP3    H1 8202   5.809   7.732   5.194
 2753TIP3    H2 8203   5.675   7.760   5.260
 2754TIP3   OH2 8204   6.268   7.570   1.928
 2754TIP3    H1 8205   6.231   7.649   1.888
 2754TIP3    H2 8206   6.329   7.536   1.862
 2755TIP3   OH2 8207   2.826   0.018   3.208
 2755TIP3    H1 8208   2.913   0.033   3.243
 2755TIP3    H2 8209   2.830   0.051   3.118
 2756TIP3   OH2 8210   5.560   3.546   2.013
 2756TIP3    H1 8211   5.558   3.640   2.032
 2756TIP3    H2 8212   5.631   3.536   1.950
 2757TIP3   OH2 8213   2.926   2.296   5.513
 2757TIP3    H1 8214   2.905   2.202   5.515
 2757TIP3    H2 8215   2.851   2.338   5.556
 2758TIP3   OH2 8216   4.095   0.946   0.043
 2758TIP3    H1 8217   4.156   0.910   0.106
 2758TIP3    H2 8218   4.114   1.040   0.042
 2759TIP3   OH2 8219   6.070   0.608   4.929
 2759TIP3    H1 8220   6.043   0.679   4.987
 2759TIP3    H2 8221   6.008   0.611   4.856
 2760TIP3   OH2 8222   5.138   7.661   3.400
 2760TIP3    H1 8223   5.088   7.710   3.335
 2760TIP3    H2 8224   5.073   7.610   3.448
 2761TIP3   OH2 8225   0.836   0.609   2.637
 2761TIP3    H1 8226   0.773   0.577   2.572
 2761TIP3    H2 8227   0.897   0.536   2.649
 2762TIP3   OH2 8228   5.176   2.669   3.743
 2762TIP3    H1 8229   5.147   2.645   3.831
 2762TIP3    H2 8230   5.100   2.712   3.703
 2763TIP3   OH2 8231   6.006   0.538   5.830
 2763TIP3    H1 8232   5.920   0.507   5.803
 2763TIP3    H2 8233   6.062   0.461   5.826
 2764TIP3   OH2 8234   1.898   0.985   1.510
 2764TIP3    H1 8235   1.992   0.972   1.493
 2764TIP3    H2 8236   1.864   0.898   1.527
 2765TIP3   OH2 8237   2.068   4.161   2.456
 2765TIP3    H1 8238   2.103   4.215   2.526
 2765TIP3    H2 8239   2.045   4.078   2.499
 2766TIP3   OH2 8240   1.328   7.053   6.766
 2766TIP3    H1 8241   1.315   6.973   6.817
 2766TIP3    H2 8242   1.412   7.040   6.721
 2767TIP3   OH2 8243   3.579   0.291   0.395
 2767TIP3    H1 8244   3.627   0.370   0.369
 2767TIP3    H2 8245   3.614   0.269   0.481
 2768TIP3   OH2 8246   7.821   3.546   4.140
 2768TIP3    H1 8247   7.728   3.550   4.118
 2768TIP3    H2 8248   7.858   3.627   4.107
 2769TIP3   OH2 8249   0.792   0.562   6.708
 2769TIP3    H1 8250   0.727   0.629   6.731
 2769TIP3    H2 8251   0.761   0.483   6.750
 2770TIP3   OH2 8252   7.207   5.276   4.229
 2770TIP3    H1 8253   7.135   5.328   4.264
 2770TIP3    H2 8254   7.203   5.288   4.135
 2771TIP3   OH2 8255   5.199   6.138   3.337
 2771TIP3    H1 8256   5.229   6.130   3.246
 2771TIP3    H2 8257   5.277   6.122   3.389
 2772TIP3   OH2 8258   8.105   3.522   3.625
 2772TIP3    H1 8259   8.091   3.575   3.703
 2772TIP3    H2 8260   8.147   3.442   3.657
 2773TIP3   OH2 8261   6.214   3.270   3.613
 2773TIP3    H1 8262   6.237   3.347   3.562
 2773TIP3    H2 8263   6.298   3.232   3.639
 2774TIP3   OH2 8264   0.274   6.104   5.870
 2774TIP3    H1 8265   0.210   6.033   5.874
 2774TIP3    H2 8266   0.358   6.060   5.858
 2775TIP3   OH2 8267   2.249   1.997   4.225
 2775TIP3    H1 8268   2.308   1.930   4.191
 2775TIP3    H2 8269   2.307   2.069   4.250
 2776TIP3   OH2 8270   3.680   2.425   6.023
 2776TIP3    H1 8271   3.746   2.472   5.973
 2776TIP3    H2 8272   3.668   2.343   5.976
 2777TIP3   OH2 8273   6.738   2.533   2.410
 2777TIP3    H1 8274   6.827   2.538   2.444
 2777TIP3    H2 8275   6.725   2.440   2.388
 2778TIP3   OH2 8276   1.863   1.614   3.643
 2778TIP3    H1 8277   1.910   1.553   3.585
 2778TIP3    H2 8278   1.820   1.558   3.707
 2779TIP3   OH2 8279   0.701   1.921   0.829
 2779TIP3    H1 8280   0.772   1.898   0.769
 2779TIP3    H2 8281   0.699   2.017   0.827
 2780TIP3   OH2 8282   7.724   2.945   2.782
 2780TIP3    H1 8283   7.703   2.961   2.874
 2780TIP3    H2 8284   7.737   2.850   2.777
 2781TIP3   OH2 8285   5.631   4.630   4.782
 2781TIP3    H1 8286   5.717   4.663   4.753
 2781TIP3    H2 8287   5.602   4.694   4.847
 2782TIP3   OH2 8288   6.611   5.854   6.167
 2782TIP3    H1 8289   6.595   5.779   6.110
 2782TIP3    H2 8290   6.542   5.849   6.233
 2783TIP3   OH2 8291   1.996   6.255   6.614
 2783TIP3    H1 8292   2.079   6.275   6.658
 2783TIP3    H2 8293   1.929   6.267   6.681
 2784TIP3   OH2 8294   4.063   6.664   3.931
 2784TIP3    H1 8295   3.977   6.648   3.969
 2784TIP3    H2 8296   4.046   6.706   3.847
 2785TIP3   OH2 8297   5.542   6.791   3.224
 2785TIP3    H1 8298   5.581   6.721   3.275
 2785TIP3    H2 8299   5.573   6.872   3.266
 2786TIP3   OH2 8300   5.145   3.034   4.632
 2786TIP3    H1 8301   5.108   2.990   4.556
 2786TIP3    H2 8302   5.146   2.967   4.700
 2787TIP3   OH2 8303   5.262   5.102   4.276
 2787TIP3    H1 8304   5.250   5.074   4.186
 2787TIP3    H2 8305   5.220   5.188   4.280
 2788TIP3   OH2 8306   5.836   6.658   1.461
 2788TIP3    H1 8307   5.876   6.655   1.374
 2788TIP3    H2 8308   5.847   6.748   1.490
 2789TIP3   OH2 8309   3.324   1.810   1.460
 2789TIP3    H1 8310   3.370   1.804   1.544
 2789TIP3    H2 8311   3.270   1.888   1.469
 2790TIP3   OH2 8312   1.566   6.752   2.971
 2790TIP3    H1 8313   1.639   6.791   3.019
 2790TIP3    H2 8314   1.571   6.659   2.990
 2791TIP3   OH2 8315   2.997   3.316   0.433
 2791TIP3    H1 8316   2.919   3.289   0.481
 2791TIP3    H2 8317   3.016   3.404   0.466
 2792TIP3   OH2 8318   7.312   7.544   1.935
 2792TIP3    H1 8319   7.350   7.461   1.907
 2792TIP3    H2 8320   7.321   7.542   2.031
 2793TIP3   OH2 8321   5.054   5.399   0.139
 2793TIP3    H1 8322   5.003   5.338   0.192
 2793TIP3    H2 8323   5.134   5.352   0.117
 2794TIP3   OH2 8324   6.257   3.503   4.220
 2794TIP3    H1 8325   6.252   3.540   4.308
 2794TIP3    H2 8326   6.170   3.465   4.205
 2795TIP3   OH2 8327   2.201   6.215   1.218
 2795TIP3    H1 8328   2.124   6.200   1.273
 2795TIP3    H2 8329   2.272   6.168   1.263
 2796TIP3   OH2 8330   7.620   2.584   5.087
 2796TIP3    H1 8331   7.646   2.510   5.142
 2796TIP3    H2 8332   7.525   2.580   5.084
 2797TIP3   OH2 8333   1.449   6.519   0.589
 2797TIP3    H1 8334   1.390   6.492   0.518
 2797TIP3    H2 8335   1.411   6.601   0.621
 2798TIP3   OH2 8336   1.864   6.415   3.152
 2798TIP3    H1 8337   1.901   6.334   3.186
 2798TIP3    H2 8338   1.791   6.435   3.211
 2799TIP3   OH2 8339   8.188   3.200   3.633
 2799TIP3    H1 8340   8.250   3.238   3.695
 2799TIP3    H2 8341   8.218   3.230   3.548
 2800TIP3   OH2 8342   3.309   3.388   5.989
 2800TIP3    H1 8343   3.399   3.400   5.958
 2800TIP3    H2 8344   3.309   3.301   6.028
 2801TIP3   OH2 8345   0.239   5.945   3.912
 2801TIP3    H1 8346   0.314   5.939   3.972
 2801TIP3    H2 8347   0.279   5.950   3.825
 2802TIP3   OH2 8348   2.472   5.172   3.281
 2802TIP3    H1 8349   2.532   5.099   3.296
 2802TIP3    H2 8350   2.385   5.137   3.301
 2803TIP3   OH2 8351   1.665   3.861   4.992
 2803TIP3    H1 8352   1.636   3.952   4.984
 2803TIP3    H2 8353   1.679   3.832   4.901
 2804TIP3   OH2 8354   4.083   3.004   0.713
 2804TIP3    H1 8355   4.168   2.996   0.756
 2804TIP3    H2 8356   4.036   3.071   0.763
 2805TIP3   OH2 8357   3.064   6.209   6.147
 2805TIP3    H1 8358   3.022   6.215   6.061
 2805TIP3    H2 8359   3.012   6.268   6.202
 2806TIP3   OH2 8360   7.963   1.455   5.824
 2806TIP3    H1 8361   7.974   1.526   5.888
 2806TIP3    H2 8362   8.009   1.381   5.863
 2807TIP3   OH2 8363   4.975   2.365   2.036
 2807TIP3    H1 8364   4.983   2.380   2.131
 2807TIP3    H2 8365   5.002   2.447   1.996
 2808TIP3   OH2 8366   1.155   6.768   0.238
 2808TIP3    H1 8367   1.223   6.830   0.213
 2808TIP3    H2 8368   1.084   6.823   0.272
 2809TIP3   OH2 8369   6.998   4.590   4.744
 2809TIP3    H1 8370   6.940   4.648   4.695
 2809TIP3    H2 8371   6.940   4.520   4.776
 2810TIP3   OH2 8372   5.132   6.926   3.982
 2810TIP3    H1 8373   5.146   7.011   4.024
 2810TIP3    H2 8374   5.171   6.936   3.895
 2811TIP3   OH2 8375   6.114   7.032   2.604
 2811TIP3    H1 8376   6.166   7.051   2.526
 2811TIP3    H2 8377   6.024   7.053   2.580
 2812TIP3   OH2 8378   2.689   3.577   5.658
 2812TIP3    H1 8379   2.618   3.583   5.722
 2812TIP3    H2 8380   2.748   3.648   5.681
 2813TIP3   OH2 8381   6.603   7.223   6.096
 2813TIP3    H1 8382   6.568   7.240   6.183
 2813TIP3    H2 8383   6.616   7.311   6.058
 2814TIP3   OH2 8384   4.680   6.261   2.004
 2814TIP3    H1 8385   4.733   6.263   2.084
 2814TIP3    H2 8386   4.740   6.288   1.935
 2815TIP3   OH2 8387   5.074   2.110   2.428
 2815TIP3    H1 8388   4.998   2.157   2.461
 2815TIP3    H2 8389   5.097   2.048   2.497
 2816TIP3   OH2 8390   3.970   3.658   0.050
 2816TIP3    H1 8391   3.922   3.575   0.056
 2816TIP3    H2 8392   3.995   3.665  -0.042
 2817TIP3   OH2 8393   0.501   5.876   6.728
 2817TIP3    H1 8394   0.437   5.816   6.691
 2817TIP3    H2 8395   0.581   5.824   6.736
 2818TIP3   OH2 8396   7.641   1.494   1.491
 2818TIP3    H1 8397   7.682   1.505   1.576
 2818TIP3    H2 8398   7.592   1.575   1.477
 2819TIP3   OH2 8399   7.918   7.822   6.346
 2819TIP3    H1 8400   8.010   7.839   6.327
 2819TIP3    H2 8401   7.917   7.736   6.387
 2820TIP3   OH2 8402   7.031   2.228   6.046
 2820TIP3    H1 8403   6.996   2.192   5.965
 2820TIP3    H2 8404   7.038   2.153   6.105
 2821TIP3   OH2 8405   5.364   3.250   4.944
 2821TIP3    H1 8406   5.277   3.231   4.980
 2821TIP3    H2 8407   5.377   3.185   4.876
 2822TIP3   OH2 8408   3.022   0.004   4.551
 2822TIP3    H1 8409   3.046   0.016   4.643
 2822TIP3    H2 8410   2.948   0.063   4.538
 2823TIP3   OH2 8411   3.176   2.341   6.486
 2823TIP3    H1 8412   3.145   2.431   6.475
 2823TIP3    H2 8413   3.213   2.339   6.574
 2824TIP3   OH2 8414   6.764   4.246   1.300
 2824TIP3    H1 8415   6.742   4.299   1.223
 2824TIP3    H2 8416   6.839   4.291   1.339
 2825TIP3   OH2 8417   4.851   0.417   2.982
 2825TIP3    H1 8418   4.918   0.474   2.946
 2825TIP3    H2 8419   4.769   0.465   2.969
 2826TIP3   OH2 8420   2.703   7.677   2.772
 2826TIP3    H1 8421   2.670   7.730   2.699
 2826TIP3    H2 8422   2.778   7.630   2.736
 2827TIP3   OH2 8423   2.882   2.029   5.495
 2827TIP3    H1 8424   2.853   2.012   5.406
 2827TIP3    H2 8425   2.805   2.014   5.549
 2828TIP3   OH2 8426   4.633   6.861   0.043
 2828TIP3    H1 8427   4.541   6.837   0.036
 2828TIP3    H2 8428   4.642   6.895   0.132
 2829TIP3   OH2 8429   3.185   7.596   6.265
 2829TIP3    H1 8430   3.263   7.651   6.273
 2829TIP3    H2 8431   3.111   7.657   6.269
 2830TIP3   OH2 8432   2.313   5.013   4.703
 2830TIP3    H1 8433   2.314   5.047   4.614
 2830TIP3    H2 8434   2.376   4.941   4.702
 2831TIP3   OH2 8435   0.299   3.504   2.429
 2831TIP3    H1 8436   0.386   3.480   2.397
 2831TIP3    H2 8437   0.292   3.598   2.411
 2832TIP3   OH2 8438   4.228   1.223   1.472
 2832TIP3    H1 8439   4.204   1.315   1.487
 2832TIP3    H2 8440   4.324   1.223   1.471
 2833TIP3   OH2 8441   4.918   0.084   1.699
 2833TIP3    H1 8442   4.869   0.141   1.757
 2833TIP3    H2 8443   4.868   0.084   1.617
 2834TIP3   OH2 8444   6.537   0.325   5.841
 2834TIP3    H1 8445   6.555   0.297   5.930
 2834TIP3    H2 8446   6.538   0.420   5.845
 2835TIP3   OH2 8447   6.465   4.384   2.465
 2835TIP3    H1 8448   6.372   4.361   2.460
 2835TIP3    H2 8449   6.510   4.305   2.435
 2836TIP3   OH2 8450   6.845   7.486   5.230
 2836TIP3    H1 8451   6.937   7.512   5.221
 2836TIP3    H2 8452   6.846   7.391   5.220
 2837TIP3   OH2 8453   7.511   2.054   5.639
 2837TIP3    H1 8454   7.477   2.097   5.560
 2837TIP3    H2 8455   7.496   1.961   5.624
 2838TIP3   OH2 8456   5.450   2.793   0.419
 2838TIP3    H1 8457   5.449   2.826   0.508
 2838TIP3    H2 8458   5.425   2.701   0.427
 2839TIP3   OH2 8459   1.752   0.039   5.449
 2839TIP3    H1 8460   1.745   0.012   5.358
 2839TIP3    H2 8461   1.835   0.002   5.479
 2840TIP3   OH2 8462   0.008   7.815   0.971
 2840TIP3    H1 8463  -0.006   7.721   0.968
 2840TIP3    H2 8464   0.016   7.841   0.879
 2841TIP3   OH2 8465   7.889   7.606   2.613
 2841TIP3    H1 8466   7.844   7.634   2.693
 2841TIP3    H2 8467   7.968   7.562   2.644
 2842TIP3   OH2 8468   7.950   6.591   6.341
 2842TIP3    H1 8469   7.862   6.565   6.312
 2842TIP3    H2 8470   8.004   6.514   6.325
 2843TIP3   OH2 8471   2.880   6.600   1.868
 2843TIP3    H1 8472   2.963   6.647   1.871
 2843TIP3    H2 8473   2.845   6.607   1.957
 2844TIP3   OH2 8474   3.448   1.411   3.460
 2844TIP3    H1 8475   3.521   1.400   3.399
 2844TIP3    H2 8476   3.416   1.500   3.443
 2845TIP3   OH2 8477   3.158   1.865   1.996
 2845TIP3    H1 8478   3.160   1.932   2.065
 2845TIP3    H2 8479   3.108   1.793   2.034
 2846TIP3   OH2 8480   2.888   7.325   3.140
 2846TIP3    H1 8481   2.793   7.326   3.140
 2846TIP3    H2 8482   2.912   7.279   3.060
 2847TIP3   OH2 8483   1.402   5.936   3.236
 2847TIP3    H1 8484   1.442   6.018   3.265
 2847TIP3    H2 8485   1.472   5.891   3.188
 2848TIP3   OH2 8486   2.751   6.493   6.062
 2848TIP3    H1 8487   2.679   6.439   6.030
 2848TIP3    H2 8488   2.786   6.444   6.137
 2849TIP3   OH2 8489   2.843   5.116   5.934
 2849TIP3    H1 8490   2.927   5.161   5.942
 2849TIP3    H2 8491   2.847   5.073   5.849
 2850TIP3   OH2 8492   3.327   7.369   6.404
 2850TIP3    H1 8493   3.283   7.452   6.385
 2850TIP3    H2 8494   3.329   7.363   6.499
 2851TIP3   OH2 8495   8.276   3.224   5.978
 2851TIP3    H1 8496   8.278   3.196   6.069
 2851TIP3    H2 8497   8.299   3.146   5.928
 2852TIP3   OH2 8498   5.289   6.935   1.174
 2852TIP3    H1 8499   5.253   6.957   1.088
 2852TIP3    H2 8500   5.342   6.857   1.159
 2853TIP3   OH2 8501   4.621   3.266   3.250
 2853TIP3    H1 8502   4.601   3.189   3.302
 2853TIP3    H2 8503   4.711   3.288   3.271
 2854TIP3   OH2 8504   5.437   3.199   1.610
 2854TIP3    H1 8505   5.404   3.112   1.591
 2854TIP3    H2 8506   5.493   3.221   1.536
 2855TIP3   OH2 8507   7.153   5.122   3.284
 2855TIP3    H1 8508   7.118   5.206   3.311
 2855TIP3    H2 8509   7.117   5.107   3.197
 2856TIP3   OH2 8510   6.236   2.610  -0.029
 2856TIP3    H1 8511   6.196   2.603   0.057
 2856TIP3    H2 8512   6.330   2.613  -0.012
 2857TIP3   OH2 8513   5.199   3.049   5.774
 2857TIP3    H1 8514   5.204   2.954   5.782
 2857TIP3    H2 8515   5.290   3.077   5.765
 2858TIP3   OH2 8516   2.238   1.678   2.060
 2858TIP3    H1 8517   2.158   1.720   2.090
 2858TIP3    H2 8518   2.281   1.743   2.005
 2859TIP3   OH2 8519   1.485   4.108   2.919
 2859TIP3    H1 8520   1.437   4.031   2.890
 2859TIP3    H2 8521   1.475   4.107   3.015
 2860TIP3   OH2 8522   3.546   6.669   1.933
 2860TIP3    H1 8523   3.590   6.622   2.004
 2860TIP3    H2 8524   3.488   6.604   1.894
 2861TIP3   OH2 8525   2.312   1.487   2.936
 2861TIP3    H1 8526   2.377   1.435   2.982
 2861TIP3    H2 8527   2.235   1.484   2.992
 2862TIP3   OH2 8528   6.637   6.151   4.850
 2862TIP3    H1 8529   6.724   6.173   4.817
 2862TIP3    H2 8530   6.590   6.118   4.774
 2863TIP3   OH2 8531   3.678   4.026   3.747
 2863TIP3    H1 8532   3.761   4.027   3.796
 2863TIP3    H2 8533   3.703   4.050   3.658
 2864TIP3   OH2 8534   7.362   0.826   4.644
 2864TIP3    H1 8535   7.343   0.775   4.723
 2864TIP3    H2 8536   7.436   0.882   4.669
 2865TIP3   OH2 8537   0.767   1.899   5.334
 2865TIP3    H1 8538   0.765   1.971   5.397
 2865TIP3    H2 8539   0.679   1.860   5.339
 2866TIP3   OH2 8540   2.130   4.230   5.168
 2866TIP3    H1 8541   2.169   4.221   5.255
 2866TIP3    H2 8542   2.039   4.202   5.179
 2867TIP3   OH2 8543   7.984   6.356   5.768
 2867TIP3    H1 8544   8.011   6.290   5.832
 2867TIP3    H2 8545   7.980   6.438   5.817
 2868TIP3   OH2 8546   0.776   5.488   0.907
 2868TIP3    H1 8547   0.829   5.451   0.837
 2868TIP3    H2 8548   0.772   5.418   0.973
 2869TIP3   OH2 8549   0.636   4.887   2.581
 2869TIP3    H1 8550   0.660   4.839   2.502
 2869TIP3    H2 8551   0.545   4.914   2.568
 2870TIP3   OH2 8552   7.320   6.317   6.710
 2870TIP3    H1 8553   7.289   6.407   6.710
 2870TIP3    H2 8554   7.278   6.277   6.786
 2871TIP3   OH2 8555   5.310   0.383   5.612
 2871TIP3    H1 8556   5.218   0.360   5.625
 2871TIP3    H2 8557   5.330   0.352   5.524
 2872TIP3   OH2 8558   5.855   7.387   1.824
 2872TIP3    H1 8559   5.895   7.461   1.870
 2872TIP3    H2 8560   5.902   7.383   1.740
 2873TIP3   OH2 8561   3.697   6.955   4.672
 2873TIP3    H1 8562   3.605   6.932   4.658
 2873TIP3    H2 8563   3.744   6.872   4.662
 2874TIP3   OH2 8564   4.537   0.343   1.329
 2874TIP3    H1 8565   4.590   0.318   1.254
 2874TIP3    H2 8566   4.528   0.438   1.322
 2875TIP3   OH2 8567   0.496   3.001   0.986
 2875TIP3    H1 8568   0.498   2.989   0.891
 2875TIP3    H2 8569   0.471   2.915   1.019
 2876TIP3   OH2 8570   7.178   3.930   0.047
 2876TIP3    H1 8571   7.105   3.916   0.107
 2876TIP3    H2 8572   7.171   3.858  -0.016
 2877TIP3   OH2 8573   4.901   6.417   1.510
 2877TIP3    H1 8574   4.822   6.413   1.456
 2877TIP3    H2 8575   4.874   6.466   1.588
 2878TIP3   OH2 8576   7.633   4.957   3.234
 2878TIP3    H1 8577   7.649   5.039   3.280
 2878TIP3    H2 8578   7.651   4.976   3.142
 2879TIP3   OH2 8579   4.311   4.701   3.941
 2879TIP3    H1 8580   4.246   4.668   3.878
 2879TIP3    H2 8581   4.317   4.794   3.922
 2880TIP3   OH2 8582   2.880   7.602   6.726
 2880TIP3    H1 8583   2.810   7.548   6.762
 2880TIP3    H2 8584   2.938   7.539   6.681
 2881TIP3   OH2 8585   2.858   3.747   2.442
 2881TIP3    H1 8586   2.884   3.672   2.388
 2881TIP3    H2 8587   2.914   3.741   2.520
 2882TIP3   OH2 8588   3.080   0.121   3.083
 2882TIP3    H1 8589   3.163   0.075   3.072
 2882TIP3    H2 8590   3.104   0.206   3.121
 2883TIP3   OH2 8591   2.436   3.172   4.885
 2883TIP3    H1 8592   2.361   3.216   4.845
 2883TIP3    H2 8593   2.466   3.232   4.953
 2884TIP3   OH2 8594   4.934   5.003   0.485
 2884TIP3    H1 8595   4.849   5.046   0.473
 2884TIP3    H2 8596   4.957   5.021   0.576
 2885TIP3   OH2 8597   1.246   7.117   6.296
 2885TIP3    H1 8598   1.224   7.138   6.387
 2885TIP3    H2 8599   1.183   7.050   6.271
 2886TIP3   OH2 8600   3.589   7.233   1.026
 2886TIP3    H1 8601   3.571   7.263   0.937
 2886TIP3    H2 8602   3.661   7.288   1.056
 2887TIP3   OH2 8603   1.538   0.348   6.408
 2887TIP3    H1 8604   1.556   0.341   6.502
 2887TIP3    H2 8605   1.618   0.385   6.372
 2888TIP3   OH2 8606   7.400   4.268   4.336
 2888TIP3    H1 8607   7.382   4.225   4.253
 2888TIP3    H2 8608   7.400   4.197   4.400
 2889TIP3   OH2 8609   4.900   1.490   0.543
 2889TIP3    H1 8610   4.907   1.525   0.632
 2889TIP3    H2 8611   4.978   1.523   0.498
 2890TIP3   OH2 8612   4.529   1.668   2.963
 2890TIP3    H1 8613   4.619   1.637   2.975
 2890TIP3    H2 8614   4.538   1.758   2.932
 2891TIP3   OH2 8615   5.785   1.686   3.571
 2891TIP3    H1 8616   5.807   1.656   3.483
 2891TIP3    H2 8617   5.754   1.776   3.559
 2892TIP3   OH2 8618   6.261   2.147   2.799
 2892TIP3    H1 8619   6.248   2.223   2.742
 2892TIP3    H2 8620   6.201   2.081   2.765
 2893TIP3   OH2 8621   7.611   0.409   1.125
 2893TIP3    H1 8622   7.543   0.475   1.139
 2893TIP3    H2 8623   7.667   0.416   1.202
 2894TIP3   OH2 8624   3.428   6.827   3.312
 2894TIP3    H1 8625   3.489   6.787   3.250
 2894TIP3    H2 8626   3.368   6.755   3.335
 2895TIP3   OH2 8627   5.993   3.746   0.077
 2895TIP3    H1 8628   5.921   3.713   0.023
 2895TIP3    H2 8629   6.026   3.669   0.123
 2896TIP3   OH2 8630   3.905   5.993   6.270
 2896TIP3    H1 8631   3.844   6.047   6.219
 2896TIP3    H2 8632   3.975   6.054   6.295
 2897TIP3   OH2 8633   4.615   6.618   4.006
 2897TIP3    H1 8634   4.673   6.544   4.025
 2897TIP3    H2 8635   4.552   6.583   3.942
 2898TIP3   OH2 8636   6.843   2.891   4.366
 2898TIP3    H1 8637   6.905   2.959   4.394
 2898TIP3    H2 8638   6.892   2.839   4.302
 2899TIP3   OH2 8639   2.280   5.529   5.262
 2899TIP3    H1 8640   2.216   5.577   5.210
 2899TIP3    H2 8641   2.236   5.513   5.345
 2900TIP3   OH2 8642   6.648   0.625   4.503
 2900TIP3    H1 8643   6.559   0.628   4.539
 2900TIP3    H2 8644   6.642   0.565   4.429
 2901TIP3   OH2 8645   2.015   3.136   0.339
 2901TIP3    H1 8646   2.050   3.191   0.409
 2901TIP3    H2 8647   2.092   3.097   0.298
 2902TIP3   OH2 8648   4.307   3.059   2.073
 2902TIP3    H1 8649   4.227   3.039   2.122
 2902TIP3    H2 8650   4.281   3.048   1.981
 2903TIP3   OH2 8651   0.791   4.062   0.476
 2903TIP3    H1 8652   0.713   4.008   0.485
 2903TIP3    H2 8653   0.758   4.148   0.449
 2904TIP3   OH2 8654   0.681   7.755   1.475
 2904TIP3    H1 8655   0.674   7.780   1.567
 2904TIP3    H2 8656   0.688   7.839   1.428
 2905TIP3   OH2 8657   1.924   2.702   4.531
 2905TIP3    H1 8658   2.007   2.740   4.560
 2905TIP3    H2 8659   1.948   2.642   4.461
 2906TIP3   OH2 8660   0.102   2.649   2.946
 2906TIP3    H1 8661   0.070   2.592   2.876
 2906TIP3    H2 8662   0.195   2.662   2.926
 2907TIP3   OH2 8663   2.810   6.692   5.002
 2907TIP3    H1 8664   2.754   6.739   5.062
 2907TIP3    H2 8665   2.797   6.599   5.024
 2908TIP3   OH2 8666   5.549   1.298   3.068
 2908TIP3    H1 8667   5.525   1.354   3.142
 2908TIP3    H2 8668   5.472   1.300   3.011
 2909TIP3   OH2 8669   1.629   2.917   1.054
 2909TIP3    H1 8670   1.613   2.877   1.139
 2909TIP3    H2 8671   1.722   2.902   1.036
 2910TIP3   OH2 8672   0.756   3.545   0.331
 2910TIP3    H1 8673   0.794   3.628   0.361
 2910TIP3    H2 8674   0.781   3.481   0.398
 2911TIP3   OH2 8675   6.428   2.491   1.765
 2911TIP3    H1 8676   6.426   2.497   1.861
 2911TIP3    H2 8677   6.478   2.412   1.747
 2912TIP3   OH2 8678   1.004   5.383   5.102
 2912TIP3    H1 8679   1.080   5.324   5.096
 2912TIP3    H2 8680   0.933   5.334   5.060
 2913TIP3   OH2 8681   2.531   4.089   6.487
 2913TIP3    H1 8682   2.467   4.115   6.421
 2913TIP3    H2 8683   2.531   4.161   6.551
 2914TIP3   OH2 8684   1.230   3.031   5.039
 2914TIP3    H1 8685   1.199   3.115   5.071
 2914TIP3    H2 8686   1.322   3.047   5.015
 2915TIP3   OH2 8687   7.658   1.873   1.090
 2915TIP3    H1 8688   7.585   1.933   1.101
 2915TIP3    H2 8689   7.708   1.879   1.171
 2916TIP3   OH2 8690   8.091   3.593   4.980
 2916TIP3    H1 8691   8.055   3.671   5.022
 2916TIP3    H2 8692   8.166   3.569   5.035
 2917TIP3   OH2 8693   3.627   0.683   3.265
 2917TIP3    H1 8694   3.626   0.778   3.251
 2917TIP3    H2 8695   3.720   0.662   3.275
 2918TIP3   OH2 8696   1.317   0.727   6.399
 2918TIP3    H1 8697   1.346   0.676   6.474
 2918TIP3    H2 8698   1.237   0.684   6.370
 2919TIP3   OH2 8699   2.661   0.560   4.702
 2919TIP3    H1 8700   2.591   0.595   4.757
 2919TIP3    H2 8701   2.705   0.638   4.668
 2920TIP3   OH2 8702   7.315   1.028   2.354
 2920TIP3    H1 8703   7.313   1.064   2.443
 2920TIP3    H2 8704   7.271   0.943   2.361
 2921TIP3   OH2 8705   2.460   3.406   1.219
 2921TIP3    H1 8706   2.427   3.333   1.270
 2921TIP3    H2 8707   2.392   3.423   1.154
 2922TIP3   OH2 8708   7.737   2.908   4.588
 2922TIP3    H1 8709   7.699   2.820   4.593
 2922TIP3    H2 8710   7.678   2.956   4.530
 2923TIP3   OH2 8711   2.452   6.597   4.235
 2923TIP3    H1 8712   2.491   6.646   4.163
 2923TIP3    H2 8713   2.511   6.523   4.249
 2924TIP3   OH2 8714   1.710   2.227   0.824
 2924TIP3    H1 8715   1.742   2.282   0.895
 2924TIP3    H2 8716   1.692   2.288   0.752
 2925TIP3   OH2 8717   6.103   0.154   3.814
 2925TIP3    H1 8718   6.153   0.107   3.881
 2925TIP3    H2 8719   6.027   0.098   3.797
 2926TIP3   OH2 8720   3.177   0.411   0.338
 2926TIP3    H1 8721   3.098   0.370   0.303
 2926TIP3    H2 8722   3.146   0.489   0.384
 2927TIP3   OH2 8723   2.455   2.559   6.486
 2927TIP3    H1 8724   2.363   2.551   6.511
 2927TIP3    H2 8725   2.454   2.572   6.392
 2928TIP3   OH2 8726   2.984   0.385   2.535
 2928TIP3    H1 8727   2.970   0.308   2.481
 2928TIP3    H2 8728   3.047   0.358   2.601
 2929TIP3   OH2 8729   4.721   5.318   3.694
 2929TIP3    H1 8730   4.678   5.402   3.679
 2929TIP3    H2 8731   4.743   5.319   3.787
 2930TIP3   OH2 8732   3.632   4.681   6.234
 2930TIP3    H1 8733   3.721   4.685   6.269
 2930TIP3    H2 8734   3.604   4.591   6.250
 2931TIP3   OH2 8735   8.134   3.387   5.341
 2931TIP3    H1 8736   8.082   3.448   5.289
 2931TIP3    H2 8737   8.101   3.398   5.430
 2932TIP3   OH2 8738   2.306   0.202   4.592
 2932TIP3    H1 8739   2.396   0.189   4.560
 2932TIP3    H2 8740   2.296   0.136   4.661
 2933TIP3   OH2 8741   1.492   3.715   4.804
 2933TIP3    H1 8742   1.411   3.745   4.762
 2933TIP3    H2 8743   1.467   3.700   4.895
 2934TIP3   OH2 8744   6.185   7.015   4.262
 2934TIP3    H1 8745   6.219   7.099   4.292
 2934TIP3    H2 8746   6.148   7.034   4.175
 2935TIP3   OH2 8747   1.703   2.491   4.890
 2935TIP3    H1 8748   1.698   2.467   4.983
 2935TIP3    H2 8749   1.681   2.411   4.843
 2936TIP3   OH2 8750   3.073   0.899   5.557
 2936TIP3    H1 8751   3.126   0.979   5.561
 2936TIP3    H2 8752   3.012   0.914   5.485
 2937TIP3   OH2 8753   0.740   7.037   4.081
 2937TIP3    H1 8754   0.816   7.092   4.063
 2937TIP3    H2 8755   0.777   6.956   4.116
 2938TIP3   OH2 8756   6.454   3.037   1.041
 2938TIP3    H1 8757   6.452   3.059   1.134
 2938TIP3    H2 8758   6.383   2.973   1.030
 2939TIP3   OH2 8759   7.426   5.266   1.546
 2939TIP3    H1 8760   7.404   5.174   1.556
 2939TIP3    H2 8761   7.391   5.308   1.624
 2940TIP3   OH2 8762   0.596   3.483   5.885
 2940TIP3    H1 8763   0.608   3.389   5.899
 2940TIP3    H2 8764   0.662   3.505   5.819
 2941TIP3   OH2 8765   6.304   2.771   2.131
 2941TIP3    H1 8766   6.276   2.799   2.218
 2941TIP3    H2 8767   6.222   2.759   2.083
 2942TIP3   OH2 8768   0.110   2.532   4.107
 2942TIP3    H1 8769   0.074   2.449   4.137
 2942TIP3    H2 8770   0.195   2.538   4.151
 2943TIP3   OH2 8771   2.078   0.219   5.699
 2943TIP3    H1 8772   2.055   0.207   5.607
 2943TIP3    H2 8773   2.099   0.312   5.707
 2944TIP3   OH2 8774   7.273   6.297   2.752
 2944TIP3    H1 8775   7.285   6.203   2.744
 2944TIP3    H2 8776   7.216   6.308   2.828
 2945TIP3   OH2 8777   5.968   7.168   3.431
 2945TIP3    H1 8778   5.977   7.116   3.350
 2945TIP3    H2 8779   5.888   7.136   3.471
 2946TIP3   OH2 8780   0.125   6.824   4.603
 2946TIP3    H1 8781   0.105   6.830   4.696
 2946TIP3    H2 8782   0.176   6.902   4.584
 2947TIP3   OH2 8783   1.576   3.166   0.052
 2947TIP3    H1 8784   1.653   3.138   0.101
 2947TIP3    H2 8785   1.509   3.180   0.118
 2948TIP3   OH2 8786   5.938   6.718   2.069
 2948TIP3    H1 8787   6.026   6.754   2.080
 2948TIP3    H2 8788   5.924   6.715   1.975
 2949TIP3   OH2 8789   5.989   4.778   1.638
 2949TIP3    H1 8790   5.943   4.729   1.706
 2949TIP3    H2 8791   5.920   4.817   1.585
 2950TIP3   OH2 8792   7.927   6.037   6.375
 2950TIP3    H1 8793   7.966   6.051   6.289
 2950TIP3    H2 8794   7.928   5.942   6.387
 2951TIP3   OH2 8795   4.212   0.870   1.420
 2951TIP3    H1 8796   4.163   0.803   1.467
 2951TIP3    H2 8797   4.210   0.947   1.478
 2952TIP3   OH2 8798   1.196   6.273   5.674
 2952TIP3    H1 8799   1.214   6.200   5.614
 2952TIP3    H2 8800   1.264   6.337   5.654
 2953TIP3   OH2 8801   2.807   5.639   5.446
 2953TIP3    H1 8802   2.794   5.545   5.457
 2953TIP3    H2 8803   2.893   5.657   5.484
 2954TIP3   OH2 8804   4.255   4.548   5.300
 2954TIP3    H1 8805   4.193   4.607   5.344
 2954TIP3    H2 8806   4.200   4.481   5.261
 2955TIP3   OH2 8807   1.880   3.583   4.180
 2955TIP3    H1 8808   1.929   3.506   4.151
 2955TIP3    H2 8809   1.878   3.574   4.276
 2956TIP3   OH2 8810   3.507   1.996   2.961
 2956TIP3    H1 8811   3.526   2.018   2.870
 2956TIP3    H2 8812   3.416   2.022   2.974
 2957TIP3   OH2 8813   8.190   4.096   2.739
 2957TIP3    H1 8814   8.162   4.017   2.692
 2957TIP3    H2 8815   8.121   4.160   2.722
 2958TIP3   OH2 8816   8.082   5.773   1.698
 2958TIP3    H1 8817   7.998   5.729   1.692
 2958TIP3    H2 8818   8.060   5.863   1.723
 2959TIP3   OH2 8819   1.622   0.899   4.714
 2959TIP3    H1 8820   1.653   0.809   4.702
 2959TIP3    H2 8821   1.643   0.919   4.806
 2960TIP3   OH2 8822   1.626   7.646   4.987
 2960TIP3    H1 8823   1.647   7.556   5.013
 2960TIP3    H2 8824   1.685   7.664   4.913
 2961TIP3   OH2 8825   2.738   6.563   2.112
 2961TIP3    H1 8826   2.685   6.632   2.153
 2961TIP3    H2 8827   2.717   6.484   2.162
 2962TIP3   OH2 8828   3.677   4.387   6.047
 2962TIP3    H1 8829   3.761   4.384   6.093
 2962TIP3    H2 8830   3.662   4.297   6.018
 2963TIP3   OH2 8831   1.171   4.294   5.456
 2963TIP3    H1 8832   1.110   4.277   5.385
 2963TIP3    H2 8833   1.124   4.266   5.535
 2964TIP3   OH2 8834   2.235   1.039   4.516
 2964TIP3    H1 8835   2.168   1.038   4.584
 2964TIP3    H2 8836   2.229   1.126   4.477
 2965TIP3   OH2 8837   8.045   0.949   5.410
 2965TIP3    H1 8838   8.069   1.023   5.355
 2965TIP3    H2 8839   8.090   0.874   5.371
 2966TIP3   OH2 8840   1.585   5.895   5.389
 2966TIP3    H1 8841   1.559   5.949   5.464
 2966TIP3    H2 8842   1.532   5.927   5.317
 2967TIP3   OH2 8843   4.063   7.702   6.309
 2967TIP3    H1 8844   4.077   7.772   6.373
 2967TIP3    H2 8845   4.125   7.633   6.334
 2968TIP3   OH2 8846   2.646   1.217   0.671
 2968TIP3    H1 8847   2.604   1.247   0.752
 2968TIP3    H2 8848   2.574   1.207   0.609
 2969TIP3   OH2 8849   1.791   4.559   3.239
 2969TIP3    H1 8850   1.776   4.592   3.151
 2969TIP3    H2 8851   1.836   4.631   3.284
 2970TIP3   OH2 8852   4.118   7.531   3.155
 2970TIP3    H1 8853   4.213   7.537   3.149
 2970TIP3    H2 8854   4.092   7.482   3.077
 2971TIP3   OH2 8855   6.368   1.890   3.630
 2971TIP3    H1 8856   6.422   1.852   3.700
 2971TIP3    H2 8857   6.340   1.975   3.665
 2972TIP3   OH2 8858   6.030   1.246   3.888
 2972TIP3    H1 8859   6.100   1.255   3.824
 2972TIP3    H2 8860   5.952   1.277   3.843
 2973TIP3   OH2 8861   2.045   4.556   2.706
 2973TIP3    H1 8862   2.063   4.596   2.792
 2973TIP3    H2 8863   2.121   4.579   2.653
 2974TIP3   OH2 8864   7.715   5.450   2.528
 2974TIP3    H1 8865   7.731   5.486   2.615
 2974TIP3    H2 8866   7.632   5.403   2.536
 2975TIP3   OH2 8867   1.025   6.508   0.908
 2975TIP3    H1 8868   1.058   6.571   0.972
 2975TIP3    H2 8869   1.042   6.550   0.823
 2976TIP3   OH2 8870   8.166   1.195   0.617
 2976TIP3    H1 8871   8.111   1.192   0.539
 2976TIP3    H2 8872   8.236   1.132   0.599
 2977TIP3   OH2 8873   0.791   5.947   5.926
 2977TIP3    H1 8874   0.748   6.024   5.889
 2977TIP3    H2 8875   0.884   5.958   5.903
 2978TIP3   OH2 8876   6.291   5.061   1.393
 2978TIP3    H1 8877   6.347   5.132   1.362
 2978TIP3    H2 8878   6.209   5.073   1.345
 2979TIP3   OH2 8879   5.618   0.373   1.720
 2979TIP3    H1 8880   5.686   0.404   1.780
 2979TIP3    H2 8881   5.564   0.449   1.703
 2980TIP3   OH2 8882   4.211   7.277   1.674
 2980TIP3    H1 8883   4.251   7.337   1.610
 2980TIP3    H2 8884   4.285   7.246   1.727
 2981TIP3   OH2 8885   1.465   3.930   5.824
 2981TIP3    H1 8886   1.379   3.928   5.782
 2981TIP3    H2 8887   1.494   3.839   5.826
 2982TIP3   OH2 8888   5.113   6.555   1.348
 2982TIP3    H1 8889   5.116   6.646   1.375
 2982TIP3    H2 8890   5.049   6.514   1.406
 2983TIP3   OH2 8891   1.903   2.454   6.363
 2983TIP3    H1 8892   1.887   2.360   6.358
 2983TIP3    H2 8893   1.904   2.474   6.457
 2984TIP3   OH2 8894   1.205   7.493   1.629
 2984TIP3    H1 8895   1.115   7.461   1.615
 2984TIP3    H2 8896   1.258   7.442   1.568
 2985TIP3   OH2 8897   6.983   4.275   6.086
 2985TIP3    H1 8898   6.889   4.261   6.093
 2985TIP3    H2 8899   6.994   4.327   6.007
 2986TIP3   OH2 8900   2.718   1.066   5.588
 2986TIP3    H1 8901   2.774   1.055   5.666
 2986TIP3    H2 8902   2.778   1.054   5.514
 2987TIP3   OH2 8903   7.901   4.851   2.627
 2987TIP3    H1 8904   7.835   4.843   2.696
 2987TIP3    H2 8905   7.858   4.820   2.548
 2988TIP3   OH2 8906   5.019   7.458   1.178
 2988TIP3    H1 8907   4.974   7.420   1.102
 2988TIP3    H2 8908   4.952   7.464   1.245
 2989TIP3   OH2 8909   1.068   4.360   0.055
 2989TIP3    H1 8910   1.072   4.299   0.129
 2989TIP3    H2 8911   1.015   4.433   0.087
 2990TIP3   OH2 8912   1.353   3.954   1.801
 2990TIP3    H1 8913   1.321   3.880   1.750
 2990TIP3    H2 8914   1.280   3.976   1.859
 2991TIP3   OH2 8915   3.752   0.966   1.942
 2991TIP3    H1 8916   3.804   0.919   1.876
 2991TIP3    H2 8917   3.714   0.896   1.995
 2992TIP3   OH2 8918   7.932   5.566   6.542
 2992TIP3    H1 8919   7.932   5.484   6.591
 2992TIP3    H2 8920   7.981   5.627   6.599
 2993TIP3   OH2 8921   7.948   1.408   3.897
 2993TIP3    H1 8922   8.043   1.418   3.893
 2993TIP3    H2 8923   7.921   1.471   3.964
 2994TIP3   OH2 8924   3.154   5.725   6.233
 2994TIP3    H1 8925   3.087   5.793   6.227
 2994TIP3    H2 8926   3.224   5.766   6.285
 2995TIP3   OH2 8927   8.226   4.745   5.429
 2995TIP3    H1 8928   8.283   4.689   5.376
 2995TIP3    H2 8929   8.275   4.827   5.438
 2996TIP3   OH2 8930   8.097   6.580   3.619
 2996TIP3    H1 8931   8.145   6.587   3.701
 2996TIP3    H2 8932   8.138   6.646   3.562
 2997TIP3   OH2 8933   2.676   7.210   0.920
 2997TIP3    H1 8934   2.583   7.227   0.939
 2997TIP3    H2 8935   2.676   7.152   0.845
 2998TIP3   OH2 8936   4.083   4.720   5.501
 2998TIP3    H1 8937   4.081   4.815   5.516
 2998TIP3    H2 8938   4.150   4.688   5.561
 2999TIP3   OH2 8939   3.900   3.393   1.798
 2999TIP3    H1 8940   3.980   3.446   1.807
 2999TIP3    H2 8941   3.863   3.390   1.886
 3000TIP3   OH2 8942   4.622   0.704   5.658
 3000TIP3    H1 8943   4.584   0.788   5.634
 3000TIP3    H2 8944   4.548   0.652   5.691
 3001TIP3   OH2 8945   1.599   1.419   3.580
 3001TIP3    H1 8946   1.509   1.442   3.556
 3001TIP3    H2 8947   1.648   1.422   3.498
 3002TIP3   OH2 8948   1.210   2.051   2.511
 3002TIP3    H1 8949   1.288   2.033   2.563
 3002TIP3    H2 8950   1.137   2.030   2.569
 3003TIP3   OH2 8951   7.830   6.927   5.416
 3003TIP3    H1 8952   7.779   6.861   5.463
 3003TIP3    H2 8953   7.913   6.884   5.396
 3004TIP3   OH2 8954   7.206   6.230   4.841
 3004TIP3    H1 8955   7.225   6.229   4.935
 3004TIP3    H2 8956   7.267   6.166   4.804
 3005TIP3   OH2 8957   2.079   2.728   6.640
 3005TIP3    H1 8958   2.003   2.749   6.586
 3005TIP3    H2 8959   2.094   2.807   6.692
 3006TIP3   OH2 8960   5.283   0.836   6.407
 3006TIP3    H1 8961   5.284   0.801   6.496
 3006TIP3    H2 8962   5.219   0.781   6.360
 3007TIP3   OH2 8963   1.075   0.287   3.209
 3007TIP3    H1 8964   1.143   0.314   3.147
 3007TIP3    H2 8965   1.123   0.258   3.286
 3008TIP3   OH2 8966   3.092   5.008   1.806
 3008TIP3    H1 8967   3.121   4.920   1.780
 3008TIP3    H2 8968   3.085   5.056   1.723
 3009TIP3   OH2 8969   7.406   2.944   1.081
 3009TIP3    H1 8970   7.377   2.911   1.166
 3009TIP3    H2 8971   7.329   2.937   1.025
 3010TIP3   OH2 8972   0.763   7.549   5.410
 3010TIP3    H1 8973   0.728   7.461   5.423
 3010TIP3    H2 8974   0.858   7.536   5.404
 3011TIP3   OH2 8975   3.278   7.085   0.496
 3011TIP3    H1 8976   3.199   7.102   0.445
 3011TIP3    H2 8977   3.251   7.020   0.561
 3012TIP3   OH2 8978   0.100   0.981   5.658
 3012TIP3    H1 8979   0.099   1.025   5.573
 3012TIP3    H2 8980   0.133   1.046   5.719
 3013TIP3   OH2 8981   5.953   0.835   4.423
 3013TIP3    H1 8982   6.012   0.884   4.481
 3013TIP3    H2 8983   5.866   0.872   4.442
 3014TIP3   OH2 8984   6.894   2.572   0.294
 3014TIP3    H1 8985   6.968   2.532   0.340
 3014TIP3    H2 8986   6.921   2.575   0.202
 3015TIP3   OH2 8987   6.229   3.717   6.608
 3015TIP3    H1 8988   6.208   3.799   6.563
 3015TIP3    H2 8989   6.154   3.701   6.664
 3016TIP3   OH2 8990   1.091   3.416   3.076
 3016TIP3    H1 8991   1.005   3.444   3.046
 3016TIP3    H2 8992   1.121   3.353   3.011
 3017TIP3   OH2 8993   6.829   1.945   6.580
 3017TIP3    H1 8994   6.734   1.942   6.583
 3017TIP3    H2 8995   6.849   2.025   6.532
 3018TIP3   OH2 8996   0.815   5.291   3.144
 3018TIP3    H1 8997   0.904   5.324   3.157
 3018TIP3    H2 8998   0.822   5.197   3.159
 3019TIP3   OH2 8999   6.153   3.061   3.410
 3019TIP3    H1 9000   6.149   3.114   3.490
 3019TIP3    H2 9001   6.167   3.125   3.340
 3020TIP3   OH2 9002   7.465   0.732   6.437
 3020TIP3    H1 9003   7.502   0.659   6.388
 3020TIP3    H2 9004   7.435   0.793   6.370
 3021TIP3   OH2 9005   4.027   1.871   5.117
 3021TIP3    H1 9006   4.103   1.926   5.099
 3021TIP3    H2 9007   4.062   1.783   5.124
 3022TIP3   OH2 9008   4.152   5.360   4.591
 3022TIP3    H1 9009   4.181   5.411   4.515
 3022TIP3    H2 9010   4.058   5.350   4.579
 3023TIP3   OH2 9011   4.443   5.783   2.310
 3023TIP3    H1 9012   4.392   5.715   2.354
 3023TIP3    H2 9013   4.533   5.749   2.310
 3024TIP3   OH2 9014   3.650   3.474   6.590
 3024TIP3    H1 9015   3.613   3.538   6.528
 3024TIP3    H2 9016   3.602   3.393   6.571
 3025TIP3   OH2 9017   3.005   6.966   4.722
 3025TIP3    H1 9018   2.913   6.948   4.740
 3025TIP3    H2 9019   3.048   6.958   4.807
 3026TIP3   OH2 9020   1.800   2.904   3.524
 3026TIP3    H1 9021   1.884   2.917   3.479
 3026TIP3    H2 9022   1.762   2.992   3.528
 3027TIP3   OH2 9023   5.869   3.709   2.300
 3027TIP3    H1 9024   5.939   3.669   2.351
 3027TIP3    H2 9025   5.913   3.749   2.225
 3028TIP3   OH2 9026   3.130   0.630   5.304
 3028TIP3    H1 9027   3.115   0.621   5.398
 3028TIP3    H2 9028   3.201   0.694   5.296
 3029TIP3   OH2 9029   2.797   4.006   3.079
 3029TIP3    H1 9030   2.874   3.950   3.086
 3029TIP3    H2 9031   2.813   4.077   3.141
 3030TIP3   OH2 9032   6.182   1.005   1.342
 3030TIP3    H1 9033   6.153   1.050   1.421
 3030TIP3    H2 9034   6.256   0.951   1.371
 3031TIP3   OH2 9035   3.164   4.572   6.428
 3031TIP3    H1 9036   3.198   4.621   6.353
 3031TIP3    H2 9037   3.068   4.576   6.418
 3032TIP3   OH2 9038   1.302   4.305   6.087
 3032TIP3    H1 9039   1.219   4.352   6.077
 3032TIP3    H2 9040   1.361   4.347   6.024
 3033TIP3   OH2 9041   6.305   3.419   2.703
 3033TIP3    H1 9042   6.294   3.326   2.725
 3033TIP3    H2 9043   6.399   3.433   2.704
 3034TIP3   OH2 9044   3.030   3.489   0.802
 3034TIP3    H1 9045   2.992   3.521   0.884
 3034TIP3    H2 9046   2.999   3.550   0.736
 3035TIP3   OH2 9047   0.458   7.021   0.793
 3035TIP3    H1 9048   0.448   6.950   0.731
 3035TIP3    H2 9049   0.450   7.101   0.740
 3036TIP3   OH2 9050   0.207   0.594   4.622
 3036TIP3    H1 9051   0.223   0.542   4.543
 3036TIP3    H2 9052   0.117   0.625   4.613
 3037TIP3   OH2 9053   7.973   2.551   1.331
 3037TIP3    H1 9054   7.902   2.576   1.390
 3037TIP3    H2 9055   8.049   2.602   1.362
 3038TIP3   OH2 9056   1.360   0.589   5.501
 3038TIP3    H1 9057   1.388   0.507   5.460
 3038TIP3    H2 9058   1.291   0.563   5.562
 3039TIP3   OH2 9059   4.815   5.231   1.884
 3039TIP3    H1 9060   4.748   5.295   1.906
 3039TIP3    H2 9061   4.833   5.245   1.791
 3040TIP3   OH2 9062   8.243   6.564   3.206
 3040TIP3    H1 9063   8.150   6.547   3.194
 3040TIP3    H2 9064   8.273   6.597   3.121
 3041TIP3   OH2 9065   1.395   0.066   2.160
 3041TIP3    H1 9066   1.421   0.045   2.250
 3041TIP3    H2 9067   1.335   0.141   2.169
 3042TIP3   OH2 9068   6.331   4.947   0.883
 3042TIP3    H1 9069   6.287   4.863   0.891
 3042TIP3    H2 9070   6.266   5.005   0.843
 3043TIP3   OH2 9071   4.104   6.210   1.114
 3043TIP3    H1 9072   4.131   6.160   1.190
 3043TIP3    H2 9073   4.021   6.172   1.088
 3044TIP3   OH2 9074   8.099   5.675   5.676
 3044TIP3    H1 9075   8.068   5.747   5.620
 3044TIP3    H2 9076   8.171   5.636   5.626
 3045TIP3   OH2 9077   1.300   6.690   3.480
 3045TIP3    H1 9078   1.231   6.635   3.516
 3045TIP3    H2 9079   1.317   6.655   3.393
 3046TIP3   OH2 9080   7.610   6.374   2.858
 3046TIP3    H1 9081   7.647   6.410   2.777
 3046TIP3    H2 9082   7.529   6.422   2.871
 3047TIP3   OH2 9083   8.249   0.808   1.169
 3047TIP3    H1 9084   8.203   0.744   1.223
 3047TIP3    H2 9085   8.320   0.840   1.224
 3048TIP3   OH2 9086   5.862   4.563   1.758
 3048TIP3    H1 9087   5.889   4.479   1.721
 3048TIP3    H2 9088   5.767   4.565   1.744
 3049TIP3   OH2 9089   2.428   5.754   5.991
 3049TIP3    H1 9090   2.450   5.839   5.954
 3049TIP3    H2 9091   2.335   5.742   5.970
 3050TIP3   OH2 9092   0.599   5.271   2.933
 3050TIP3    H1 9093   0.550   5.209   2.877
 3050TIP3    H2 9094   0.656   5.215   2.985
 3051TIP3   OH2 9095   8.135   5.631   4.305
 3051TIP3    H1 9096   8.215   5.580   4.308
 3051TIP3    H2 9097   8.149   5.702   4.368
 3052TIP3   OH2 9098   4.823   3.098   4.464
 3052TIP3    H1 9099   4.872   3.027   4.423
 3052TIP3    H2 9100   4.887   3.143   4.519
 3053TIP3   OH2 9101   4.063   4.949   4.311
 3053TIP3    H1 9102   3.977   4.930   4.275
 3053TIP3    H2 9103   4.120   4.959   4.235
 3054TIP3   OH2 9104   0.263   4.177   3.038
 3054TIP3    H1 9105   0.325   4.247   3.018
 3054TIP3    H2 9106   0.201   4.178   2.966
 3055TIP3   OH2 9107   0.243   4.940   1.515
 3055TIP3    H1 9108   0.317   4.904   1.466
 3055TIP3    H2 9109   0.190   4.864   1.539
 3056TIP3   OH2 9110   4.528   2.097   5.562
 3056TIP3    H1 9111   4.449   2.044   5.551
 3056TIP3    H2 9112   4.599   2.033   5.569
 3057TIP3   OH2 9113   7.697   6.481   2.617
 3057TIP3    H1 9114   7.678   6.557   2.672
 3057TIP3    H2 9115   7.763   6.513   2.556
 3058TIP3   OH2 9116   1.370   0.591   5.874
 3058TIP3    H1 9117   1.329   0.648   5.940
 3058TIP3    H2 9118   1.443   0.551   5.920
 3059TIP3   OH2 9119   5.574   3.543   5.576
 3059TIP3    H1 9120   5.544   3.634   5.572
 3059TIP3    H2 9121   5.656   3.547   5.625
 3060TIP3   OH2 9122   2.708   1.542   6.406
 3060TIP3    H1 9123   2.682   1.632   6.386
 3060TIP3    H2 9124   2.710   1.498   6.321
 3061TIP3   OH2 9125   7.105   5.438   5.945
 3061TIP3    H1 9126   7.149   5.507   5.894
 3061TIP3    H2 9127   7.173   5.403   6.002
 3062TIP3   OH2 9128   4.912   3.933   1.176
 3062TIP3    H1 9129   4.921   3.885   1.094
 3062TIP3    H2 9130   4.933   3.869   1.244
 3063TIP3   OH2 9131   1.634   0.424   0.449
 3063TIP3    H1 9132   1.574   0.478   0.398
 3063TIP3    H2 9133   1.662   0.356   0.387
 3064TIP3   OH2 9134   2.226   0.323   5.099
 3064TIP3    H1 9135   2.182   0.328   5.184
 3064TIP3    H2 9136   2.175   0.257   5.050
 3065TIP3   OH2 9137   5.211   5.194   2.996
 3065TIP3    H1 9138   5.135   5.203   3.054
 3065TIP3    H2 9139   5.185   5.128   2.932
 3066TIP3   OH2 9140   2.059   5.699   6.460
 3066TIP3    H1 9141   2.124   5.720   6.393
 3066TIP3    H2 9142   2.039   5.784   6.501
 3067TIP3   OH2 9143   2.918   4.514   1.532
 3067TIP3    H1 9144   2.988   4.575   1.557
 3067TIP3    H2 9145   2.956   4.427   1.547
 3068TIP3   OH2 9146   5.520   4.121   5.984
 3068TIP3    H1 9147   5.438   4.133   6.033
 3068TIP3    H2 9148   5.496   4.066   5.910
 3069TIP3   OH2 9149   7.490   5.352   4.203
 3069TIP3    H1 9150   7.511   5.281   4.264
 3069TIP3    H2 9151   7.395   5.364   4.213
 3070TIP3   OH2 9152   6.954   5.499   2.393
 3070TIP3    H1 9153   6.899   5.472   2.320
 3070TIP3    H2 9154   6.962   5.594   2.383
 3071TIP3   OH2 9155   2.116   6.537   0.585
 3071TIP3    H1 9156   2.132   6.450   0.548
 3071TIP3    H2 9157   2.170   6.541   0.664
 3072TIP3   OH2 9158   0.050   3.131   1.660
 3072TIP3    H1 9159   0.010   3.062   1.713
 3072TIP3    H2 9160   0.107   3.084   1.598
 3073TIP3   OH2 9161   7.295   1.676   0.504
 3073TIP3    H1 9162   7.273   1.584   0.513
 3073TIP3    H2 9163   7.250   1.705   0.425
 3074TIP3   OH2 9164   4.433   5.177   3.387
 3074TIP3    H1 9165   4.390   5.196   3.304
 3074TIP3    H2 9166   4.495   5.249   3.398
 3075TIP3   OH2 9167   1.506   1.095   5.736
 3075TIP3    H1 9168   1.469   1.177   5.771
 3075TIP3    H2 9169   1.493   1.032   5.806
 3076TIP3   OH2 9170   5.711   1.532   4.819
 3076TIP3    H1 9171   5.792   1.503   4.777
 3076TIP3    H2 9172   5.641   1.490   4.769
 3077TIP3   OH2 9173   1.805   6.955   6.012
 3077TIP3    H1 9174   1.865   7.028   6.026
 3077TIP3    H2 9175   1.722   6.996   5.989
 3078TIP3   OH2 9176   6.520   0.226   0.097
 3078TIP3    H1 9177   6.469   0.182   0.029
 3078TIP3    H2 9178   6.459   0.236   0.171
 3079TIP3   OH2 9179   3.258   1.016   6.651
 3079TIP3    H1 9180   3.167   0.987   6.642
 3079TIP3    H2 9181   3.258   1.071   6.730
 3080TIP3   OH2 9182   6.363   5.519   3.631
 3080TIP3    H1 9183   6.272   5.548   3.628
 3080TIP3    H2 9184   6.364   5.448   3.695
 3081TIP3   OH2 9185   3.960   6.274   5.228
 3081TIP3    H1 9186   3.913   6.239   5.304
 3081TIP3    H2 9187   3.916   6.357   5.210
 3082TIP3   OH2 9188   2.722   6.781   3.373
 3082TIP3    H1 9189   2.687   6.861   3.333
 3082TIP3    H2 9190   2.677   6.774   3.457
 3083TIP3   OH2 9191   6.525   5.307   1.679
 3083TIP3    H1 9192   6.435   5.308   1.712
 3083TIP3    H2 9193   6.540   5.397   1.650
 3084TIP3   OH2 9194   1.457   5.317   0.417
 3084TIP3    H1 9195   1.412   5.312   0.332
 3084TIP3    H2 9196   1.392   5.355   0.476
 3085TIP3   OH2 9197   5.922   2.245   5.872
 3085TIP3    H1 9198   5.913   2.208   5.784
 3085TIP3    H2 9199   5.844   2.300   5.883
 3086TIP3   OH2 9200   7.802   1.249   1.173
 3086TIP3    H1 9201   7.756   1.168   1.152
 3086TIP3    H2 9202   7.876   1.252   1.113
 3087TIP3   OH2 9203   6.202   1.379   4.708
 3087TIP3    H1 9204   6.195   1.371   4.613
 3087TIP3    H2 9205   6.286   1.338   4.730
 3088TIP3   OH2 9206   4.624   4.307   1.720
 3088TIP3    H1 9207   4.625   4.286   1.627
 3088TIP3    H2 9208   4.694   4.254   1.757
 3089TIP3   OH2 9209   7.868   5.977   0.170
 3089TIP3    H1 9210   7.905   5.951   0.086
 3089TIP3    H2 9211   7.780   5.940   0.170
 3090TIP3   OH2 9212   5.830   1.484   1.319
 3090TIP3    H1 9213   5.783   1.401   1.326
 3090TIP3    H2 9214   5.918   1.459   1.290
 3091TIP3   OH2 9215   1.326   4.167   0.319
 3091TIP3    H1 9216   1.406   4.217   0.339
 3091TIP3    H2 9217   1.339   4.083   0.363
 3092TIP3   OH2 9218   1.836   6.390   5.862
 3092TIP3    H1 9219   1.796   6.305   5.876
 3092TIP3    H2 9220   1.883   6.408   5.943
 3093TIP3   OH2 9221   7.052   7.468   2.695
 3093TIP3    H1 9222   6.984   7.505   2.638
 3093TIP3    H2 9223   7.129   7.521   2.679
 3094TIP3   OH2 9224   1.443   1.174   3.451
 3094TIP3    H1 9225   1.385   1.198   3.523
 3094TIP3    H2 9226   1.450   1.253   3.398
 3095TIP3   OH2 9227   0.915   7.794   3.643
 3095TIP3    H1 9228   0.883   7.745   3.719
 3095TIP3    H2 9229   0.855   7.770   3.572
 3096TIP3   OH2 9230   5.582   7.389   6.120
 3096TIP3    H1 9231   5.654   7.337   6.156
 3096TIP3    H2 9232   5.532   7.327   6.067
 3097TIP3   OH2 9233   6.076   4.189   5.586
 3097TIP3    H1 9234   6.106   4.179   5.677
 3097TIP3    H2 9235   6.148   4.156   5.533
 3098TIP3   OH2 9236   3.181   5.837   2.273
 3098TIP3    H1 9237   3.262   5.788   2.257
 3098TIP3    H2 9238   3.190   5.867   2.363
 3099TIP3   OH2 9239   7.336   3.255   2.784
 3099TIP3    H1 9240   7.266   3.316   2.807
 3099TIP3    H2 9241   7.409   3.279   2.842
 3100TIP3   OH2 9242   8.169   6.497   4.210
 3100TIP3    H1 9243   8.094   6.471   4.265
 3100TIP3    H2 9244   8.246   6.477   4.263
 3101TIP3   OH2 9245   7.783   1.637   5.668
 3101TIP3    H1 9246   7.807   1.556   5.713
 3101TIP3    H2 9247   7.864   1.667   5.627
 3102TIP3   OH2 9248   4.815   3.436   6.313
 3102TIP3    H1 9249   4.898   3.459   6.269
 3102TIP3    H2 9250   4.822   3.475   6.400
 3103TIP3   OH2 9251   0.827   5.064   2.163
 3103TIP3    H1 9252   0.916   5.067   2.198
 3103TIP3    H2 9253   0.776   5.117   2.224
 3104TIP3   OH2 9254   3.379   3.509   5.142
 3104TIP3    H1 9255   3.392   3.442   5.208
 3104TIP3    H2 9256   3.382   3.592   5.190
 3105TIP3   OH2 9257   0.442   2.437   3.657
 3105TIP3    H1 9258   0.347   2.441   3.651
 3105TIP3    H2 9259   0.461   2.445   3.750
 3106TIP3   OH2 9260   5.735   4.843   0.606
 3106TIP3    H1 9261   5.679   4.901   0.659
 3106TIP3    H2 9262   5.788   4.796   0.670
 3107TIP3   OH2 9263   2.931   2.357   0.344
 3107TIP3    H1 9264   2.886   2.388   0.423
 3107TIP3    H2 9265   3.021   2.341   0.373
 3108TIP3   OH2 9266   2.117   7.668   4.866
 3108TIP3    H1 9267   2.051   7.652   4.934
 3108TIP3    H2 9268   2.173   7.590   4.869
 3109TIP3   OH2 9269   2.796   3.607   4.879
 3109TIP3    H1 9270   2.824   3.519   4.902
 3109TIP3    H2 9271   2.854   3.665   4.929
 3110TIP3   OH2 9272   4.368   5.309   5.476
 3110TIP3    H1 9273   4.320   5.328   5.395
 3110TIP3    H2 9274   4.321   5.236   5.515
 3111TIP3   OH2 9275   6.335   0.703   5.606
 3111TIP3    H1 9276   6.331   0.704   5.511
 3111TIP3    H2 9277   6.424   0.676   5.626
 3112TIP3   OH2 9278   6.512   4.102   2.898
 3112TIP3    H1 9279   6.592   4.074   2.942
 3112TIP3    H2 9280   6.441   4.068   2.953
 3113TIP3   OH2 9281   7.760   2.522   4.069
 3113TIP3    H1 9282   7.698   2.473   4.015
 3113TIP3    H2 9283   7.711   2.543   4.149
 3114TIP3   OH2 9284   2.377   4.213   6.019
 3114TIP3    H1 9285   2.458   4.218   5.969
 3114TIP3    H2 9286   2.341   4.126   6.000
 3115TIP3   OH2 9287   1.015   5.534   4.706
 3115TIP3    H1 9288   0.939   5.580   4.742
 3115TIP3    H2 9289   1.023   5.567   4.616
 3116TIP3   OH2 9290   4.025   1.054   1.702
 3116TIP3    H1 9291   4.093   1.101   1.653
 3116TIP3    H2 9292   3.944   1.101   1.683
 3117TIP3   OH2 9293   4.233   0.278   6.717
 3117TIP3    H1 9294   4.203   0.263   6.807
 3117TIP3    H2 9295   4.329   0.283   6.725
 3118TIP3   OH2 9296   2.630   2.648   5.150
 3118TIP3    H1 9297   2.704   2.701   5.180
 3118TIP3    H2 9298   2.563   2.711   5.126
 3119TIP3   OH2 9299   5.139   3.023   3.932
 3119TIP3    H1 9300   5.222   2.982   3.956
 3119TIP3    H2 9301   5.156   3.117   3.936
 3120TIP3   OH2 9302   3.177   5.474   4.406
 3120TIP3    H1 9303   3.148   5.418   4.479
 3120TIP3    H2 9304   3.272   5.475   4.412
 3121TIP3   OH2 9305   4.202   7.794   3.258
 3121TIP3    H1 9306   4.265   7.802   3.187
 3121TIP3    H2 9307   4.172   7.703   3.253
 3122TIP3   OH2 9308   6.860   7.248   4.609
 3122TIP3    H1 9309   6.783   7.205   4.647
 3122TIP3    H2 9310   6.934   7.209   4.655
 3123TIP3   OH2 9311   2.990   0.313   6.126
 3123TIP3    H1 9312   2.933   0.306   6.202
 3123TIP3    H2 9313   3.027   0.401   6.132
 3124TIP3   OH2 9314   3.373   2.496   0.338
 3124TIP3    H1 9315   3.307   2.435   0.371
 3124TIP3    H2 9316   3.338   2.524   0.253
 3125TIP3   OH2 9317   6.194   7.294   5.626
 3125TIP3    H1 9318   6.108   7.256   5.608
 3125TIP3    H2 9319   6.250   7.262   5.555
 3126TIP3   OH2 9320   2.814   7.047   3.235
 3126TIP3    H1 9321   2.729   7.083   3.261
 3126TIP3    H2 9322   2.877   7.096   3.287
 3127TIP3   OH2 9323   1.625   7.469   5.341
 3127TIP3    H1 9324   1.584   7.548   5.305
 3127TIP3    H2 9325   1.690   7.502   5.403
 3128TIP3   OH2 9326   2.394   3.691   3.912
 3128TIP3    H1 9327   2.474   3.730   3.949
 3128TIP3    H2 9328   2.425   3.614   3.864
 3129TIP3   OH2 9329   6.572   2.003   6.579
 3129TIP3    H1 9330   6.488   2.028   6.618
 3129TIP3    H2 9331   6.597   2.079   6.526
 3130TIP3   OH2 9332   5.405   7.338   3.910
 3130TIP3    H1 9333   5.376   7.404   3.973
 3130TIP3    H2 9334   5.446   7.389   3.840
 3131TIP3   OH2 9335   6.103   2.645   2.827
 3131TIP3    H1 9336   6.024   2.698   2.819
 3131TIP3    H2 9337   6.103   2.589   2.749
 3132TIP3   OH2 9338   2.103   1.797   3.312
 3132TIP3    H1 9339   2.060   1.809   3.396
 3132TIP3    H2 9340   2.190   1.763   3.334
 3133TIP3   OH2 9341   6.745   1.168   3.251
 3133TIP3    H1 9342   6.698   1.144   3.331
 3133TIP3    H2 9343   6.764   1.084   3.209
 3134TIP3   OH2 9344   0.071   7.119   5.106
 3134TIP3    H1 9345   0.133   7.122   5.033
 3134TIP3    H2 9346   0.125   7.105   5.183
 3135TIP3   OH2 9347   1.159   1.089   2.401
 3135TIP3    H1 9348   1.126   1.096   2.311
 3135TIP3    H2 9349   1.103   1.148   2.452
 3136TIP3   OH2 9350   2.555   5.701   1.633
 3136TIP3    H1 9351   2.496   5.776   1.632
 3136TIP3    H2 9352   2.615   5.718   1.706
 3137TIP3   OH2 9353   1.658   1.881   0.401
 3137TIP3    H1 9354   1.704   1.890   0.484
 3137TIP3    H2 9355   1.692   1.953   0.347
 3138TIP3   OH2 9356   2.703   1.675   0.675
 3138TIP3    H1 9357   2.617   1.655   0.712
 3138TIP3    H2 9358   2.762   1.675   0.750
 3139TIP3   OH2 9359   2.626   4.419   2.060
 3139TIP3    H1 9360   2.711   4.381   2.038
 3139TIP3    H2 9361   2.621   4.499   2.007
 3140TIP3   OH2 9362   0.848   5.641   3.128
 3140TIP3    H1 9363   0.895   5.576   3.075
 3140TIP3    H2 9364   0.759   5.606   3.137
 3141TIP3   OH2 9365   7.861   0.707   2.380
 3141TIP3    H1 9366   7.950   0.685   2.409
 3141TIP3    H2 9367   7.874   0.775   2.314
 3142TIP3   OH2 9368   1.669   1.840   6.423
 3142TIP3    H1 9369   1.628   1.909   6.475
 3142TIP3    H2 9370   1.652   1.865   6.332
 3143TIP3   OH2 9371   7.288   4.143   0.544
 3143TIP3    H1 9372   7.312   4.087   0.618
 3143TIP3    H2 9373   7.290   4.232   0.580
 3144TIP3   OH2 9374   7.265   6.137   4.108
 3144TIP3    H1 9375   7.324   6.098   4.172
 3144TIP3    H2 9376   7.242   6.222   4.145
 3145TIP3   OH2 9377   5.608   6.897   3.656
 3145TIP3    H1 9378   5.580   6.870   3.744
 3145TIP3    H2 9379   5.564   6.836   3.597
 3146TIP3   OH2 9380   3.391   4.556   5.032
 3146TIP3    H1 9381   3.485   4.574   5.037
 3146TIP3    H2 9382   3.360   4.565   5.122
 3147TIP3   OH2 9383   4.740   1.750   4.955
 3147TIP3    H1 9384   4.826   1.756   4.997
 3147TIP3    H2 9385   4.747   1.807   4.878
 3148TIP3   OH2 9386   5.260   5.858   5.001
 3148TIP3    H1 9387   5.300   5.812   5.075
 3148TIP3    H2 9388   5.204   5.793   4.960
 3149TIP3   OH2 9389   0.465   0.462   3.790
 3149TIP3    H1 9390   0.376   0.481   3.764
 3149TIP3    H2 9391   0.464   0.369   3.814
 3150TIP3   OH2 9392   0.749   3.852   5.569
 3150TIP3    H1 9393   0.683   3.800   5.523
 3150TIP3    H2 9394   0.831   3.833   5.523
 3151TIP3   OH2 9395   8.297   1.975   1.009
 3151TIP3    H1 9396   8.306   1.994   0.916
 3151TIP3    H2 9397   8.256   2.054   1.046
 3152TIP3   OH2 9398   1.677   3.503   6.430
 3152TIP3    H1 9399   1.733   3.554   6.489
 3152TIP3    H2 9400   1.616   3.459   6.489
 3153TIP3   OH2 9401   1.081   5.594   4.427
 3153TIP3    H1 9402   1.025   5.545   4.367
 3153TIP3    H2 9403   1.159   5.616   4.375
 3154TIP3   OH2 9404   4.890   2.272   5.664
 3154TIP3    H1 9405   4.979   2.238   5.659
 3154TIP3    H2 9406   4.865   2.287   5.573
 3155TIP3   OH2 9407   6.835   1.389   6.698
 3155TIP3    H1 9408   6.885   1.399   6.617
 3155TIP3    H2 9409   6.757   1.340   6.673
 3156TIP3   OH2 9410   6.106   6.189   3.411
 3156TIP3    H1 9411   6.170   6.125   3.380
 3156TIP3    H2 9412   6.070   6.151   3.491
 3157TIP3   OH2 9413   4.051   6.817   0.682
 3157TIP3    H1 9414   3.979   6.793   0.740
 3157TIP3    H2 9415   4.130   6.801   0.733
 3158TIP3   OH2 9416   4.880   6.488   6.624
 3158TIP3    H1 9417   4.857   6.407   6.670
 3158TIP3    H2 9418   4.964   6.514   6.663
 3159TIP3   OH2 9419   3.768   7.779   5.054
 3159TIP3    H1 9420   3.772   7.698   5.004
 3159TIP3    H2 9421   3.681   7.814   5.038
 3160TIP3   OH2 9422   5.908   4.748   1.306
 3160TIP3    H1 9423   5.999   4.776   1.313
 3160TIP3    H2 9424   5.861   4.801   1.371
 3161TIP3   OH2 9425   0.262   1.234   2.024
 3161TIP3    H1 9426   0.255   1.139   2.022
 3161TIP3    H2 9427   0.356   1.252   2.018
 3162TIP3   OH2 9428   7.617   7.515   6.031
 3162TIP3    H1 9429   7.539   7.567   6.013
 3162TIP3    H2 9430   7.605   7.436   5.978
 3163TIP3   OH2 9431   6.548   5.010   2.010
 3163TIP3    H1 9432   6.455   5.011   1.985
 3163TIP3    H2 9433   6.551   5.065   2.089
 3164TIP3   OH2 9434   4.812   5.410   6.603
 3164TIP3    H1 9435   4.804   5.356   6.682
 3164TIP3    H2 9436   4.884   5.470   6.622
 3165TIP3   OH2 9437   4.468   1.050   1.303
 3165TIP3    H1 9438   4.415   1.015   1.232
 3165TIP3    H2 9439   4.460   1.145   1.295
 3166TIP3   OH2 9440   4.283   3.380   6.292
 3166TIP3    H1 9441   4.291   3.475   6.296
 3166TIP3    H2 9442   4.243   3.363   6.206
 3167TIP3   OH2 9443   3.822   3.874   5.982
 3167TIP3    H1 9444   3.871   3.813   6.037
 3167TIP3    H2 9445   3.876   3.954   5.981
 3168TIP3   OH2 9446   6.376   0.806   3.348
 3168TIP3    H1 9447   6.319   0.873   3.386
 3168TIP3    H2 9448   6.414   0.761   3.424
 3169TIP3   OH2 9449   0.276   4.121   4.799
 3169TIP3    H1 9450   0.313   4.038   4.829
 3169TIP3    H2 9451   0.278   4.177   4.877
 3170TIP3   OH2 9452   5.919   4.151   6.273
 3170TIP3    H1 9453   6.005   4.138   6.232
 3170TIP3    H2 9454   5.870   4.071   6.252
 3171TIP3   OH2 9455   2.364   0.588   0.771
 3171TIP3    H1 9456   2.422   0.594   0.695
 3171TIP3    H2 9457   2.280   0.562   0.734
 3172TIP3   OH2 9458   8.066   3.983   6.024
 3172TIP3    H1 9459   7.989   3.955   6.072
 3172TIP3    H2 9460   8.032   4.015   5.940
 3173TIP3   OH2 9461   0.358   4.988   2.522
 3173TIP3    H1 9462   0.348   5.030   2.607
 3173TIP3    H2 9463   0.285   5.023   2.470
 3174TIP3   OH2 9464   6.489   7.729   5.634
 3174TIP3    H1 9465   6.580   7.722   5.664
 3174TIP3    H2 9466   6.452   7.642   5.648
 3175TIP3   OH2 9467   7.577   2.057   0.596
 3175TIP3    H1 9468   7.657   2.048   0.649
 3175TIP3    H2 9469   7.528   2.127   0.638
 3176TIP3   OH2 9470   0.034   1.627   1.631
 3176TIP3    H1 9471  -0.029   1.680   1.679
 3176TIP3    H2 9472   0.000   1.623   1.542
 3177TIP3   OH2 9473   4.640   2.444   3.051
 3177TIP3    H1 9474   4.718   2.499   3.061
 3177TIP3    H2 9475   4.572   2.491   3.099
 3178TIP3   OH2 9476   2.328   7.482   4.935
 3178TIP3    H1 9477   2.397   7.547   4.917
 3178TIP3    H2 9478   2.331   7.423   4.860
 3179TIP3   OH2 9479   8.277   7.057   3.496
 3179TIP3    H1 9480   8.184   7.034   3.501
 3179TIP3    H2 9481   8.321   6.974   3.476
 3180TIP3   OH2 9482   4.056   7.075   4.978
 3180TIP3    H1 9483   4.082   7.155   4.934
 3180TIP3    H2 9484   3.961   7.072   4.971
 3181TIP3   OH2 9485   5.255   1.832   5.954
 3181TIP3    H1 9486   5.298   1.843   5.869
 3181TIP3    H2 9487   5.278   1.911   6.003
 3182TIP3   OH2 9488   5.064   0.745   5.745
 3182TIP3    H1 9489   5.022   0.819   5.701
 3182TIP3    H2 9490   5.013   0.669   5.718
 3183TIP3   OH2 9491   2.852   6.249   0.998
 3183TIP3    H1 9492   2.855   6.224   0.906
 3183TIP3    H2 9493   2.781   6.196   1.035
 3184TIP3   OH2 9494   2.372   6.338   2.271
 3184TIP3    H1 9495   2.362   6.263   2.329
 3184TIP3    H2 9496   2.341   6.307   2.186
 3185TIP3   OH2 9497   6.908   4.285   2.398
 3185TIP3    H1 9498   6.847   4.324   2.336
 3185TIP3    H2 9499   6.947   4.211   2.350
 3186TIP3   OH2 9500   4.260   4.867   6.381
 3186TIP3    H1 9501   4.346   4.829   6.365
 3186TIP3    H2 9502   4.207   4.839   6.305
 3187TIP3   OH2 9503   4.891   7.348   1.960
 3187TIP3    H1 9504   4.871   7.434   1.996
 3187TIP3    H2 9505   4.810   7.298   1.970
 3188TIP3   OH2 9506   4.936   2.308   3.685
 3188TIP3    H1 9507   4.995   2.307   3.760
 3188TIP3    H2 9508   4.871   2.240   3.704
 3189TIP3   OH2 9509   5.670  -0.007   0.900
 3189TIP3    H1 9510   5.592   0.048   0.910
 3189TIP3    H2 9511   5.711   0.025   0.819
 3190TIP3   OH2 9512   6.988   7.275   4.912
 3190TIP3    H1 9513   6.933   7.346   4.878
 3190TIP3    H2 9514   6.991   7.290   5.007
 3191TIP3   OH2 9515   2.273   5.367   5.905
 3191TIP3    H1 9516   2.346   5.396   5.850
 3191TIP3    H2 9517   2.247   5.283   5.869
 3192TIP3   OH2 9518   7.658   3.385   3.291
 3192TIP3    H1 9519   7.748   3.409   3.311
 3192TIP3    H2 9520   7.629   3.451   3.228
 3193TIP3   OH2 9521   1.669   2.112   3.454
 3193TIP3    H1 9522   1.639   2.187   3.505
 3193TIP3    H2 9523   1.684   2.147   3.366
 3194TIP3   OH2 9524   4.081   4.367   5.121
 3194TIP3    H1 9525   4.000   4.321   5.099
 3194TIP3    H2 9526   4.143   4.297   5.142
 3195TIP3   OH2 9527   6.079   7.397   1.037
 3195TIP3    H1 9528   6.145   7.407   0.967
 3195TIP3    H2 9529   6.126   7.351   1.107
 3196TIP3   OH2 9530   8.099   4.066   1.748
 3196TIP3    H1 9531   8.110   3.972   1.762
 3196TIP3    H2 9532   8.108   4.104   1.835
 3197TIP3   OH2 9533   6.221   5.080   3.320
 3197TIP3    H1 9534   6.174   5.024   3.383
 3197TIP3    H2 9535   6.254   5.152   3.373
 3198TIP3   OH2 9536   2.468   6.482   3.847
 3198TIP3    H1 9537   2.418   6.507   3.769
 3198TIP3    H2 9538   2.547   6.536   3.843
 3199TIP3   OH2 9539   6.295   2.688   4.343
 3199TIP3    H1 9540   6.323   2.778   4.363
 3199TIP3    H2 9541   6.344   2.634   4.405
 3200TIP3   OH2 9542   1.072   3.368   1.071
 3200TIP3    H1 9543   0.998   3.327   1.117
 3200TIP3    H2 9544   1.126   3.294   1.043
 3201TIP3   OH2 9545   3.973   2.954   6.365
 3201TIP3    H1 9546   4.056   3.001   6.356
 3201TIP3    H2 9547   3.967   2.900   6.286
 3202TIP3   OH2 9548   3.008   1.508   6.273
 3202TIP3    H1 9549   3.102   1.521   6.268
 3202TIP3    H2 9550   2.987   1.517   6.366
 3203TIP3   OH2 9551   3.135   1.475   0.295
 3203TIP3    H1 9552   3.197   1.523   0.240
 3203TIP3    H2 9553   3.190   1.431   0.360
 3204TIP3   OH2 9554   6.596   3.580   0.069
 3204TIP3    H1 9555   6.527   3.621   0.017
 3204TIP3    H2 9556   6.657   3.650   0.089
 3205TIP3   OH2 9557   7.435   1.648   4.339
 3205TIP3    H1 9558   7.348   1.653   4.380
 3205TIP3    H2 9559   7.429   1.574   4.278
 3206TIP3   OH2 9560   7.638   1.671   0.617
 3206TIP3    H1 9561   7.562   1.727   0.603
 3206TIP3    H2 9562   7.671   1.696   0.703
 3207TIP3   OH2 9563   0.630   7.065   1.680
 3207TIP3    H1 9564   0.696   7.066   1.750
 3207TIP3    H2 9565   0.580   7.145   1.693
 3208TIP3   OH2 9566   3.211   2.962   1.491
 3208TIP3    H1 9567   3.202   2.990   1.400
 3208TIP3    H2 9568   3.189   2.869   1.489
 3209TIP3   OH2 9569   8.062   1.669   0.361
 3209TIP3    H1 9570   8.021   1.649   0.445
 3209TIP3    H2 9571   8.004   1.628   0.296
 3210TIP3   OH2 9572   7.461   7.360   1.524
 3210TIP3    H1 9573   7.520   7.341   1.451
 3210TIP3    H2 9574   7.375   7.331   1.494
 3211TIP3   OH2 9575   2.828   4.468   6.448
 3211TIP3    H1 9576   2.818   4.562   6.459
 3211TIP3    H2 9577   2.785   4.430   6.525
 3212TIP3   OH2 9578   3.101   5.450   6.193
 3212TIP3    H1 9579   3.037   5.474   6.125
 3212TIP3    H2 9580   3.106   5.527   6.250
 3213TIP3   OH2 9581   7.632   2.584   5.477
 3213TIP3    H1 9582   7.545   2.604   5.442
 3213TIP3    H2 9583   7.631   2.490   5.491
 3214TIP3   OH2 9584   3.181   0.825   0.497
 3214TIP3    H1 9585   3.237   0.753   0.525
 3214TIP3    H2 9586   3.223   0.904   0.533
 3215TIP3   OH2 9587   6.653   6.907   6.075
 3215TIP3    H1 9588   6.583   6.938   6.132
 3215TIP3    H2 9589   6.636   6.947   5.990
 3216TIP3   OH2 9590   2.317   4.723   6.044
 3216TIP3    H1 9591   2.302   4.688   6.132
 3216TIP3    H2 9592   2.230   4.739   6.009
 3217TIP3   OH2 9593   5.353   1.611   0.109
 3217TIP3    H1 9594   5.317   1.681   0.164
 3217TIP3    H2 9595   5.374   1.654   0.026
 3218TIP3   OH2 9596   5.974   0.864   6.532
 3218TIP3    H1 9597   5.907   0.884   6.467
 3218TIP3    H2 9598   5.926   0.849   6.613
 3219TIP3   OH2 9599   2.612   6.275   0.793
 3219TIP3    H1 9600   2.597   6.369   0.783
 3219TIP3    H2 9601   2.647   6.247   0.708
 3220TIP3   OH2 9602   3.878   2.225   0.088
 3220TIP3    H1 9603   3.877   2.233  -0.007
 3220TIP3    H2 9604   3.846   2.309   0.120
 3221TIP3   OH2 9605   3.011   4.827   2.692
 3221TIP3    H1 9606   3.077   4.878   2.740
 3221TIP3    H2 9607   2.954   4.892   2.652
 3222TIP3   OH2 9608   2.707   0.545   1.855
 3222TIP3    H1 9609   2.735   0.620   1.803
 3222TIP3    H2 9610   2.744   0.469   1.809
 3223TIP3   OH2 9611   0.389   2.626   6.783
 3223TIP3    H1 9612   0.339   2.667   6.712
 3223TIP3    H2 9613   0.480   2.638   6.758
 3224TIP3   OH2 9614   8.281   0.231   6.594
 3224TIP3    H1 9615   8.242   0.299   6.539
 3224TIP3    H2 9616   8.207   0.175   6.619
 3225TIP3   OH2 9617   0.223   2.603   2.305
 3225TIP3    H1 9618   0.169   2.599   2.384
 3225TIP3    H2 9619   0.206   2.690   2.269
 3226TIP3   OH2 9620   4.008   0.680   1.488
 3226TIP3    H1 9621   3.930   0.681   1.432
 3226TIP3    H2 9622   3.983   0.623   1.561
 3227TIP3   OH2 9623   0.844   6.863   1.613
 3227TIP3    H1 9624   0.861   6.882   1.706
 3227TIP3    H2 9625   0.929   6.835   1.579
 3228TIP3   OH2 9626   0.719   1.542   2.629
 3228TIP3    H1 9627   0.641   1.596   2.641
 3228TIP3    H2 9628   0.745   1.557   2.538
 3229TIP3   OH2 9629   3.090   5.225   1.965
 3229TIP3    H1 9630   3.096   5.137   1.928
 3229TIP3    H2 9631   3.124   5.282   1.895
 3230TIP3   OH2 9632   1.600   0.243   1.683
 3230TIP3    H1 9633   1.664   0.172   1.689
 3230TIP3    H2 9634   1.592   0.275   1.773
 3231TIP3   OH2 9635   4.944   7.790   1.347
 3231TIP3    H1 9636   4.849   7.776   1.343
 3231TIP3    H2 9637   4.973   7.783   1.256
 3232TIP3   OH2 9638   2.344   4.387   3.659
 3232TIP3    H1 9639   2.358   4.453   3.590
 3232TIP3    H2 9640   2.431   4.375   3.698
 3233TIP3   OH2 9641   6.881   4.564   5.082
 3233TIP3    H1 9642   6.953   4.506   5.058
 3233TIP3    H2 9643   6.805   4.505   5.092
 3234TIP3   OH2 9644   2.398  -0.005   1.089
 3234TIP3    H1 9645   2.429   0.077   1.052
 3234TIP3    H2 9646   2.463  -0.028   1.156
 3235TIP3   OH2 9647   2.498   2.822   3.379
 3235TIP3    H1 9648   2.591   2.840   3.368
 3235TIP3    H2 9649   2.488   2.802   3.472
 3236TIP3   OH2 9650   3.900   4.196   4.110
 3236TIP3    H1 9651   3.976   4.143   4.134
 3236TIP3    H2 9652   3.857   4.215   4.193
 3237TIP3   OH2 9653   7.127   7.289   2.428
 3237TIP3    H1 9654   7.090   7.378   2.423
 3237TIP3    H2 9655   7.222   7.303   2.422
 3238TIP3   OH2 9656   3.485   0.334   2.593
 3238TIP3    H1 9657   3.404   0.352   2.641
 3238TIP3    H2 9658   3.549   0.311   2.660
 3239TIP3   OH2 9659   2.134   0.511   3.444
 3239TIP3    H1 9660   2.153   0.604   3.434
 3239TIP3    H2 9661   2.133   0.477   3.354
 3240TIP3   OH2 9662   4.871   4.804   6.471
 3240TIP3    H1 9663   4.846   4.742   6.539
 3240TIP3    H2 9664   4.794   4.808   6.414
 3241TIP3   OH2 9665   2.212   5.787   3.101
 3241TIP3    H1 9666   2.179   5.750   3.019
 3241TIP3    H2 9667   2.162   5.868   3.113
 3242TIP3   OH2 9668   4.106   3.631   4.088
 3242TIP3    H1 9669   4.124   3.577   4.012
 3242TIP3    H2 9670   4.044   3.697   4.057
 3243TIP3   OH2 9671   2.930   1.277   4.108
 3243TIP3    H1 9672   3.021   1.279   4.079
 3243TIP3    H2 9673   2.882   1.235   4.036
 3244TIP3   OH2 9674   6.672   2.978   2.818
 3244TIP3    H1 9675   6.758   2.989   2.859
 3244TIP3    H2 9676   6.691   2.930   2.737
 3245TIP3   OH2 9677   4.350   5.408   2.283
 3245TIP3    H1 9678   4.279   5.349   2.256
 3245TIP3    H2 9679   4.425   5.350   2.297
 3246TIP3   OH2 9680   1.404   7.091   5.288
 3246TIP3    H1 9681   1.473   7.147   5.324
 3246TIP3    H2 9682   1.331   7.102   5.348
 3247TIP3   OH2 9683   5.882   0.217   6.287
 3247TIP3    H1 9684   5.907   0.132   6.322
 3247TIP3    H2 9685   5.838   0.261   6.359
 3248TIP3   OH2 9686   7.943   5.339   6.205
 3248TIP3    H1 9687   7.860   5.310   6.243
 3248TIP3    H2 9688   7.919   5.374   6.119
 3249TIP3   OH2 9689   5.405   5.750   4.719
 3249TIP3    H1 9690   5.349   5.798   4.658
 3249TIP3    H2 9691   5.360   5.756   4.804
 3250TIP3   OH2 9692   3.457   6.038   4.762
 3250TIP3    H1 9693   3.372   5.997   4.781
 3250TIP3    H2 9694   3.453   6.123   4.806
 3251TIP3   OH2 9695   4.927   5.236   0.936
 3251TIP3    H1 9696   5.014   5.274   0.922
 3251TIP3    H2 9697   4.897   5.273   1.019
 3252TIP3   OH2 9698   1.822   2.192   5.601
 3252TIP3    H1 9699   1.876   2.266   5.629
 3252TIP3    H2 9700   1.870   2.155   5.526
 3253TIP3   OH2 9701   2.799   4.486   3.306
 3253TIP3    H1 9702   2.708   4.508   3.330
 3253TIP3    H2 9703   2.851   4.520   3.379
 3254TIP3   OH2 9704   2.974   4.364   2.770
 3254TIP3    H1 9705   2.994   4.416   2.692
 3254TIP3    H2 9706   3.008   4.277   2.750
 3255TIP3   OH2 9707   7.225   7.234   1.424
 3255TIP3    H1 9708   7.202   7.302   1.361
 3255TIP3    H2 9709   7.187   7.263   1.507
 3256TIP3   OH2 9710   5.559   5.834   3.656
 3256TIP3    H1 9711   5.542   5.744   3.685
 3256TIP3    H2 9712   5.628   5.825   3.590
 3257TIP3   OH2 9713   0.833   5.828   1.979
 3257TIP3    H1 9714   0.844   5.809   2.072
 3257TIP3    H2 9715   0.738   5.837   1.968
 3258TIP3   OH2 9716   2.146   5.297   3.012
 3258TIP3    H1 9717   2.165   5.321   3.102
 3258TIP3    H2 9718   2.232   5.289   2.970
 3259TIP3   OH2 9719   1.483   4.192   3.194
 3259TIP3    H1 9720   1.524   4.267   3.236
 3259TIP3    H2 9721   1.480   4.125   3.263
 3260TIP3   OH2 9722   4.056   6.165   4.345
 3260TIP3    H1 9723   4.118   6.133   4.280
 3260TIP3    H2 9724   3.997   6.090   4.360
 3261TIP3   OH2 9725   4.033   3.161   5.317
 3261TIP3    H1 9726   4.053   3.068   5.315
 3261TIP3    H2 9727   4.108   3.203   5.275
 3262TIP3   OH2 9728   0.296   3.613   6.165
 3262TIP3    H1 9729   0.353   3.582   6.235
 3262TIP3    H2 9730   0.283   3.537   6.109
 3263TIP3   OH2 9731   7.030   5.403   3.214
 3263TIP3    H1 9732   6.964   5.451   3.164
 3263TIP3    H2 9733   7.106   5.399   3.156
 3264TIP3   OH2 9734   6.960   6.919   3.546
 3264TIP3    H1 9735   6.875   6.963   3.556
 3264TIP3    H2 9736   7.017   6.986   3.508
 3265TIP3   OH2 9737   3.084   5.675   5.540
 3265TIP3    H1 9738   3.101   5.595   5.491
 3265TIP3    H2 9739   3.093   5.650   5.631
 3266TIP3   OH2 9740   4.152   3.334   5.538
 3266TIP3    H1 9741   4.243   3.323   5.511
 3266TIP3    H2 9742   4.101   3.299   5.465
 3267TIP3   OH2 9743   6.692   2.170   6.404
 3267TIP3    H1 9744   6.628   2.240   6.393
 3267TIP3    H2 9745   6.777   2.216   6.405
 3268TIP3   OH2 9746   3.797   4.653   3.758
 3268TIP3    H1 9747   3.868   4.622   3.702
 3268TIP3    H2 9748   3.724   4.594   3.739
 3269TIP3   OH2 9749   6.853   0.279   3.952
 3269TIP3    H1 9750   6.881   0.347   3.891
 3269TIP3    H2 9751   6.902   0.298   4.032
 3270TIP3   OH2 9752   0.117   1.052   5.248
 3270TIP3    H1 9753   0.031   1.077   5.216
 3270TIP3    H2 9754   0.119   0.957   5.241
 3271TIP3   OH2 9755   6.463   4.287   0.931
 3271TIP3    H1 9756   6.433   4.353   0.869
 3271TIP3    H2 9757   6.462   4.205   0.882
 3272TIP3   OH2 9758   1.788   0.194   3.685
 3272TIP3    H1 9759   1.724   0.220   3.619
 3272TIP3    H2 9760   1.869   0.238   3.658
 3273TIP3   OH2 9761   6.142   3.964   6.427
 3273TIP3    H1 9762   6.087   3.898   6.386
 3273TIP3    H2 9763   6.219   3.970   6.371
 3274TIP3   OH2 9764   7.634   6.723   2.786
 3274TIP3    H1 9765   7.689   6.801   2.796
 3274TIP3    H2 9766   7.604   6.726   2.695
 3275TIP3   OH2 9767   7.511   0.848   5.911
 3275TIP3    H1 9768   7.543   0.934   5.941
 3275TIP3    H2 9769   7.465   0.812   5.987
 3276TIP3   OH2 9770   6.108   7.175   3.691
 3276TIP3    H1 9771   6.079   7.211   3.607
 3276TIP3    H2 9772   6.164   7.101   3.666
 3277TIP3   OH2 9773   2.854   2.586   2.560
 3277TIP3    H1 9774   2.922   2.653   2.555
 3277TIP3    H2 9775   2.874   2.538   2.640
 3278TIP3   OH2 9776   3.570   1.132   2.082
 3278TIP3    H1 9777   3.561   1.064   2.016
 3278TIP3    H2 9778   3.658   1.167   2.068
 3279TIP3   OH2 9779   7.702   1.277   4.951
 3279TIP3    H1 9780   7.719   1.184   4.969
 3279TIP3    H2 9781   7.607   1.285   4.956
 3280TIP3   OH2 9782   6.614   3.990   2.668
 3280TIP3    H1 9783   6.558   3.913   2.674
 3280TIP3    H2 9784   6.575   4.053   2.728
 3281TIP3   OH2 9785   4.820   6.254   6.743
 3281TIP3    H1 9786   4.776   6.212   6.817
 3281TIP3    H2 9787   4.829   6.184   6.678
 3282TIP3   OH2 9788   2.686   4.101   4.439
 3282TIP3    H1 9789   2.608   4.116   4.492
 3282TIP3    H2 9790   2.651   4.069   4.355
 3283TIP3   OH2 9791   4.394   0.254   3.687
 3283TIP3    H1 9792   4.326   0.217   3.630
 3283TIP3    H2 9793   4.413   0.185   3.750
 3284TIP3   OH2 9794   2.137   3.006   6.767
 3284TIP3    H1 9795   2.048   2.984   6.797
 3284TIP3    H2 9796   2.123   3.068   6.695
 3285TIP3   OH2 9797   1.663   7.199   6.295
 3285TIP3    H1 9798   1.736   7.151   6.332
 3285TIP3    H2 9799   1.703   7.270   6.245
 3286TIP3   OH2 9800   6.603   0.031   6.199
 3286TIP3    H1 9801   6.567   0.060   6.282
 3286TIP3    H2 9802   6.682  -0.018   6.222
 3287TIP3   OH2 9803   1.382   3.145   4.000
 3287TIP3    H1 9804   1.289   3.122   4.001
 3287TIP3    H2 9805   1.385   3.235   4.031
 3288TIP3   OH2 9806   1.206   5.397   0.830
 3288TIP3    H1 9807   1.298   5.400   0.857
 3288TIP3    H2 9808   1.161   5.453   0.893
 3289TIP3   OH2 9809   5.138   0.334   4.202
 3289TIP3    H1 9810   5.139   0.414   4.255
 3289TIP3    H2 9811   5.187   0.357   4.123
 3290TIP3   OH2 9812   3.446   1.674   4.587
 3290TIP3    H1 9813   3.354   1.649   4.598
 3290TIP3    H2 9814   3.480   1.677   4.676
 3291TIP3   OH2 9815   8.087   2.642   4.725
 3291TIP3    H1 9816   8.126   2.721   4.689
 3291TIP3    H2 9817   8.155   2.605   4.781
 3292TIP3   OH2 9818   6.099   2.138   4.330
 3292TIP3    H1 9819   6.104   2.187   4.248
 3292TIP3    H2 9820   6.005   2.121   4.342
 3293TIP3   OH2 9821   4.515   4.559   1.730
 3293TIP3    H1 9822   4.586   4.592   1.675
 3293TIP3    H2 9823   4.533   4.466   1.740
 3294TIP3   OH2 9824   6.997   4.400   5.556
 3294TIP3    H1 9825   7.088   4.372   5.562
 3294TIP3    H2 9826   6.954   4.332   5.504
 3295TIP3   OH2 9827   3.359   5.070   3.725
 3295TIP3    H1 9828   3.353   5.083   3.630
 3295TIP3    H2 9829   3.304   4.994   3.742
 3296TIP3   OH2 9830   5.911   3.495   4.290
 3296TIP3    H1 9831   5.915   3.402   4.312
 3296TIP3    H2 9832   5.971   3.505   4.216
 3297TIP3   OH2 9833   5.316   3.729   5.300
 3297TIP3    H1 9834   5.293   3.695   5.213
 3297TIP3    H2 9835   5.298   3.656   5.359
 3298TIP3   OH2 9836   3.812   6.159   5.468
 3298TIP3    H1 9837   3.871   6.227   5.500
 3298TIP3    H2 9838   3.725   6.196   5.479
 3299TIP3   OH2 9839   8.107   1.722   3.389
 3299TIP3    H1 9840   8.064   1.761   3.313
 3299TIP3    H2 9841   8.089   1.783   3.460
 3300TIP3   OH2 9842   5.230   3.824   5.664
 3300TIP3    H1 9843   5.206   3.837   5.755
 3300TIP3    H2 9844   5.173   3.753   5.634
 3301TIP3   OH2 9845   2.223   7.502   2.619
 3301TIP3    H1 9846   2.282   7.572   2.648
 3301TIP3    H2 9847   2.253   7.480   2.531
 3302TIP3   OH2 9848   0.392   5.189   1.657
 3302TIP3    H1 9849   0.355   5.121   1.601
 3302TIP3    H2 9850   0.429   5.142   1.732
 3303TIP3   OH2 9851   1.804   4.270   0.679
 3303TIP3    H1 9852   1.734   4.205   0.670
 3303TIP3    H2 9853   1.770   4.348   0.636
 3304TIP3   OH2 9854   7.860   7.102   2.188
 3304TIP3    H1 9855   7.898   7.018   2.161
 3304TIP3    H2 9856   7.875   7.106   2.282
 3305TIP3   OH2 9857   5.318   7.011   3.279
 3305TIP3    H1 9858   5.274   6.929   3.299
 3305TIP3    H2 9859   5.250   7.067   3.241
 3306TIP3   OH2 9860   8.082   2.122   3.065
 3306TIP3    H1 9861   8.081   2.086   2.976
 3306TIP3    H2 9862   8.138   2.200   3.059
 3307TIP3   OH2 9863   4.856   1.287   2.499
 3307TIP3    H1 9864   4.856   1.345   2.423
 3307TIP3    H2 9865   4.931   1.315   2.551
 3308TIP3   OH2 9866   5.713   7.743   5.548
 3308TIP3    H1 9867   5.700   7.757   5.454
 3308TIP3    H2 9868   5.662   7.664   5.568
 3309TIP3   OH2 9869   6.962   2.983   0.981
 3309TIP3    H1 9870   6.934   3.034   0.904
 3309TIP3    H2 9871   6.885   2.934   1.007
 3310TIP3   OH2 9872   6.025   3.966   5.021
 3310TIP3    H1 9873   6.038   3.964   4.926
 3310TIP3    H2 9874   6.058   3.882   5.052
 3311TIP3   OH2 9875   4.871   2.577   3.047
 3311TIP3    H1 9876   4.952   2.571   3.099
 3311TIP3    H2 9877   4.900   2.612   2.962
 3312TIP3   OH2 9878   5.431   5.025   5.365
 3312TIP3    H1 9879   5.525   5.015   5.347
 3312TIP3    H2 9880   5.388   4.987   5.289
 3313TIP3   OH2 9881   5.677   1.942   2.977
 3313TIP3    H1 9882   5.756   1.891   2.962
 3313TIP3    H2 9883   5.608   1.893   2.933
 3314TIP3   OH2 9884   3.019   3.358   2.945
 3314TIP3    H1 9885   2.990   3.372   2.855
 3314TIP3    H2 9886   3.056   3.270   2.944
 3315TIP3   OH2 9887   1.606   1.348   2.183
 3315TIP3    H1 9888   1.579   1.405   2.255
 3315TIP3    H2 9889   1.533   1.288   2.171
 3316TIP3   OH2 9890   6.690   7.136   3.256
 3316TIP3    H1 9891   6.758   7.078   3.221
 3316TIP3    H2 9892   6.643   7.167   3.179
 3317TIP3   OH2 9893   0.080   7.708   1.500
 3317TIP3    H1 9894   0.107   7.642   1.564
 3317TIP3    H2 9895   0.015   7.663   1.446
 3318TIP3   OH2 9896   4.476   3.329   2.262
 3318TIP3    H1 9897   4.513   3.266   2.323
 3318TIP3    H2 9898   4.401   3.366   2.307
 3319TIP3   OH2 9899   6.773   6.804   0.815
 3319TIP3    H1 9900   6.765   6.770   0.904
 3319TIP3    H2 9901   6.683   6.820   0.787
 3320TIP3   OH2 9902   6.785   0.186   1.721
 3320TIP3    H1 9903   6.812   0.108   1.770
 3320TIP3    H2 9904   6.699   0.163   1.685
 3321TIP3   OH2 9905   3.926   6.392   1.498
 3321TIP3    H1 9906   3.955   6.314   1.545
 3321TIP3    H2 9907   3.867   6.359   1.430
 3322TIP3   OH2 9908   4.396   2.314   0.141
 3322TIP3    H1 9909   4.338   2.358   0.204
 3322TIP3    H2 9910   4.337   2.281   0.074
 3323TIP3   OH2 9911   2.647   2.739   4.772
 3323TIP3    H1 9912   2.562   2.703   4.746
 3323TIP3    H2 9913   2.628   2.793   4.848
 3324TIP3   OH2 9914   7.247   7.595   2.220
 3324TIP3    H1 9915   7.270   7.686   2.236
 3324TIP3    H2 9916   7.288   7.547   2.292
 3325TIP3   OH2 9917   0.320   2.554   0.556
 3325TIP3    H1 9918   0.257   2.502   0.605
 3325TIP3    H2 9919   0.270   2.587   0.481
 3326TIP3   OH2 9920   1.140   6.447   5.336
 3326TIP3    H1 9921   1.198   6.491   5.398
 3326TIP3    H2 9922   1.196   6.384   5.291
 3327TIP3   OH2 9923   3.184   7.513   5.819
 3327TIP3    H1 9924   3.201   7.582   5.755
 3327TIP3    H2 9925   3.260   7.515   5.877
 3328TIP3   OH2 9926   1.855   1.594   5.667
 3328TIP3    H1 9927   1.869   1.539   5.589
 3328TIP3    H2 9928   1.764   1.580   5.691
 3329TIP3   OH2 9929   2.037   3.086   2.552
 3329TIP3    H1 9930   2.074   3.161   2.506
 3329TIP3    H2 9931   2.061   3.010   2.499
 3330TIP3   OH2 9932   5.045   4.387   2.138
 3330TIP3    H1 9933   5.062   4.324   2.209
 3330TIP3    H2 9934   4.973   4.441   2.171
 3331TIP3   OH2 9935   1.823   4.728   6.098
 3331TIP3    H1 9936   1.891   4.669   6.065
 3331TIP3    H2 9937   1.741   4.684   6.077
 3332TIP3   OH2 9938   6.668   4.211   3.731
 3332TIP3    H1 9939   6.691   4.268   3.657
 3332TIP3    H2 9940   6.710   4.252   3.807
 3333TIP3   OH2 9941   7.384   0.585   6.667
 3333TIP3    H1 9942   7.434   0.514   6.627
 3333TIP3    H2 9943   7.415   0.664   6.624
 3334TIP3   OH2 9944   7.573   2.503   3.410
 3334TIP3    H1 9945   7.667   2.518   3.407
 3334TIP3    H2 9946   7.561   2.414   3.377
 3335TIP3   OH2 9947   0.699   0.343   3.993
 3335TIP3    H1 9948   0.670   0.405   4.060
 3335TIP3    H2 9949   0.670   0.382   3.911
 3336TIP3   OH2 9950   7.158   6.765   1.534
 3336TIP3    H1 9951   7.201   6.691   1.577
 3336TIP3    H2 9952   7.215   6.787   1.461
 3337TIP3   OH2 9953   5.226   4.570   2.167
 3337TIP3    H1 9954   5.165   4.497   2.158
 3337TIP3    H2 9955   5.248   4.572   2.260
 3338TIP3   OH2 9956   1.381   6.114   3.769
 3338TIP3    H1 9957   1.356   6.109   3.677
 3338TIP3    H2 9958   1.472   6.084   3.771
 3339TIP3   OH2 9959   2.666   0.273   6.029
 3339TIP3    H1 9960   2.731   0.324   5.982
 3339TIP3    H2 9961   2.680   0.296   6.121
 3340TIP3   OH2 9962   7.381   6.829   3.511
 3340TIP3    H1 9963   7.311   6.794   3.456
 3340TIP3    H2 9964   7.452   6.766   3.504
 3341TIP3   OH2 9965   3.496   4.137   4.253
 3341TIP3    H1 9966   3.486   4.049   4.291
 3341TIP3    H2 9967   3.521   4.121   4.162
 3342TIP3   OH2 9968   6.627   2.078   5.392
 3342TIP3    H1 9969   6.585   1.999   5.356
 3342TIP3    H2 9970   6.567   2.149   5.369
 3343TIP3   OH2 9971   3.458   3.625   2.985
 3343TIP3    H1 9972   3.471   3.565   2.911
 3343TIP3    H2 9973   3.520   3.696   2.970
 3344TIP3   OH2 9974   2.496   2.174   5.385
 3344TIP3    H1 9975   2.456   2.241   5.329
 3344TIP3    H2 9976   2.575   2.148   5.338
 3345TIP3   OH2 9977   3.880   6.139   1.963
 3345TIP3    H1 9978   3.933   6.172   1.891
 3345TIP3    H2 9979   3.931   6.065   1.998
 3346TIP3   OH2 9980   4.700   6.456   2.472
 3346TIP3    H1 9981   4.659   6.537   2.503
 3346TIP3    H2 9982   4.630   6.410   2.426
 3347TIP3   OH2 9983   3.482   5.579   0.370
 3347TIP3    H1 9984   3.535   5.658   0.360
 3347TIP3    H2 9985   3.420   5.583   0.297
 3348TIP3   OH2 9986   0.126   4.874   6.494
 3348TIP3    H1 9987   0.094   4.954   6.535
 3348TIP3    H2 9988   0.215   4.895   6.466
 3349TIP3   OH2 9989   5.931   5.173   5.363
 3349TIP3    H1 9990   6.019   5.138   5.346
 3349TIP3    H2 9991   5.942   5.268   5.365
 3350TIP3   OH2 9992   2.532   6.326   5.969
 3350TIP3    H1 9993   2.484   6.382   5.907
 3350TIP3    H2 9994   2.464   6.272   6.009
 3351TIP3   OH2 9995   0.291   1.247   0.604
 3351TIP3    H1 9996   0.301   1.197   0.523
 3351TIP3    H2 9997   0.274   1.337   0.575
 3352TIP3   OH2 9998   3.026   7.389   3.905
 3352TIP3    H1 9999   3.060   7.308   3.867
 3352TIP3    H210000   3.103   7.430   3.946
 3353TIP3   OH210001   3.082   0.633   5.555
 3353TIP3    H110002   3.090   0.722   5.587
 3353TIP3    H210003   3.168   0.594   5.568
 3354TIP3   OH210004   0.918   2.827   2.289
 3354TIP3    H110005   0.961   2.748   2.257
 3354TIP3    H210006   0.989   2.891   2.298
 3355TIP3   OH210007   1.610   5.398   4.956
 3355TIP3    H110008   1.685   5.452   4.979
 3355TIP3    H210009   1.581   5.361   5.039
 3356TIP3   OH210010   6.854   7.170   0.995
 3356TIP3    H110011   6.850   7.109   1.069
 3356TIP3    H210012   6.772   7.157   0.948
 3357TIP3   OH210013   8.221   2.657   0.900
 3357TIP3    H110014   8.187   2.622   0.817
 3357TIP3    H210015   8.289   2.718   0.873
 3358TIP3   OH210016   8.206   2.728   3.119
 3358TIP3    H110017   8.141   2.667   3.153
 3358TIP3    H210018   8.277   2.673   3.087
 3359TIP3   OH210019   0.714   3.182   1.059
 3359TIP3    H110020   0.738   3.225   0.976
 3359TIP3    H210021   0.646   3.119   1.035
 3360TIP3   OH210022   5.218   0.884   4.840
 3360TIP3    H110023   5.277   0.950   4.876
 3360TIP3    H210024   5.177   0.845   4.917
 3361TIP3   OH210025   5.722   0.181   5.821
 3361TIP3    H110026   5.631   0.196   5.844
 3361TIP3    H210027   5.755   0.123   5.889
 3362TIP3   OH210028   5.507   4.531   5.800
 3362TIP3    H110029   5.487   4.518   5.708
 3362TIP3    H210030   5.424   4.517   5.846
 3363TIP3   OH210031   3.245   5.088   4.635
 3363TIP3    H110032   3.322   5.037   4.611
 3363TIP3    H210033   3.276   5.178   4.639
 3364TIP3   OH210034   3.203   1.689   1.752
 3364TIP3    H110035   3.172   1.696   1.842
 3364TIP3    H210036   3.274   1.753   1.746
 3365TIP3   OH210037   5.281   4.298   3.148
 3365TIP3    H110038   5.231   4.224   3.182
 3365TIP3    H210039   5.219   4.371   3.150
 3366TIP3   OH210040   5.422   5.147   6.270
 3366TIP3    H110041   5.508   5.105   6.274
 3366TIP3    H210042   5.360   5.076   6.287
 3367TIP3   OH210043   0.562   0.042   5.248
 3367TIP3    H110044   0.583   0.026   5.340
 3367TIP3    H210045   0.647   0.058   5.207
 3368TIP3   OH210046   5.343   5.500   4.091
 3368TIP3    H110047   5.254   5.534   4.099
 3368TIP3    H210048   5.358   5.455   4.174
 3369TIP3   OH210049   4.928   3.847   1.796
 3369TIP3    H110050   5.021   3.825   1.784
 3369TIP3    H210051   4.913   3.836   1.890
 3370TIP3   OH210052   3.552   4.400   3.508
 3370TIP3    H110053   3.619   4.331   3.509
 3370TIP3    H210054   3.502   4.383   3.428
 3371TIP3   OH210055   5.580   4.545   1.743
 3371TIP3    H110056   5.558   4.510   1.656
 3371TIP3    H210057   5.557   4.638   1.737
 3372TIP3   OH210058   7.360   2.379   1.374
 3372TIP3    H110059   7.297   2.385   1.446
 3372TIP3    H210060   7.319   2.319   1.311
 3373TIP3   OH210061   7.588   0.809   5.647
 3373TIP3    H110062   7.656   0.871   5.621
 3373TIP3    H210063   7.552   0.845   5.728
 3374TIP3   OH210064   3.930   2.626   3.920
 3374TIP3    H110065   3.838   2.600   3.917
 3374TIP3    H210066   3.937   2.697   3.855
 3375TIP3   OH210067   0.975   0.869   2.174
 3375TIP3    H110068   1.044   0.892   2.111
 3375TIP3    H210069   0.931   0.953   2.192
 3376TIP3   OH210070   6.175   7.688   0.370
 3376TIP3    H110071   6.187   7.676   0.275
 3376TIP3    H210072   6.250   7.740   0.397
 3377TIP3   OH210073   2.868   1.935   6.250
 3377TIP3    H110074   2.954   1.924   6.290
 3377TIP3    H210075   2.807   1.933   6.324
 3378TIP3   OH210076   8.203   1.661   0.663
 3378TIP3    H110077   8.244   1.725   0.606
 3378TIP3    H210078   8.109   1.680   0.657
 3379TIP3   OH210079   5.027   3.486   1.742
 3379TIP3    H110080   5.067   3.531   1.668
 3379TIP3    H210081   4.979   3.555   1.788
 3380TIP3   OH210082   6.891   3.780   2.360
 3380TIP3    H110083   6.930   3.865   2.338
 3380TIP3    H210084   6.834   3.760   2.286
 3381TIP3   OH210085   6.030   2.796   1.627
 3381TIP3    H110086   6.042   2.795   1.722
 3381TIP3    H210087   6.093   2.733   1.594
 3382TIP3   OH210088   3.236   3.498   0.369
 3382TIP3    H110089   3.276   3.521   0.285
 3382TIP3    H210090   3.244   3.403   0.374
 3383TIP3   OH210091   5.599   0.318   4.697
 3383TIP3    H110092   5.556   0.391   4.742
 3383TIP3    H210093   5.691   0.325   4.721
 3384TIP3   OH210094   1.641   2.379   0.593
 3384TIP3    H110095   1.568   2.399   0.535
 3384TIP3    H210096   1.705   2.447   0.576
 3385TIP3   OH210097   4.221   0.747   5.024
 3385TIP3    H110098   4.278   0.762   5.099
 3385TIP3    H210099   4.175   0.665   5.045
 3386TIP3   OH210100   3.724   1.487   2.780
 3386TIP3    H110101   3.748   1.465   2.870
 3386TIP3    H210102   3.803   1.528   2.744
 3387TIP3   OH210103   6.122   4.573   5.083
 3387TIP3    H110104   6.108   4.646   5.022
 3387TIP3    H210105   6.125   4.496   5.027
 3388TIP3   OH210106   1.544   1.513   1.638
 3388TIP3    H110107   1.498   1.468   1.709
 3388TIP3    H210108   1.601   1.447   1.599
 3389TIP3   OH210109   2.244   7.742   3.532
 3389TIP3    H110110   2.338   7.754   3.519
 3389TIP3    H210111   2.204   7.786   3.457
 3390TIP3   OH210112   0.829   1.889   4.146
 3390TIP3    H110113   0.885   1.812   4.137
 3390TIP3    H210114   0.827   1.908   4.239
 3391TIP3   OH210115   4.639   0.356   5.833
 3391TIP3    H110116   4.575   0.414   5.792
 3391TIP3    H210117   4.618   0.269   5.799
 3392TIP3   OH210118   4.921   7.456   0.636
 3392TIP3    H110119   4.850   7.392   0.638
 3392TIP3    H210120   4.998   7.406   0.608
 3393TIP3   OH210121   3.451   0.736   5.761
 3393TIP3    H110122   3.423   0.729   5.670
 3393TIP3    H210123   3.537   0.693   5.764
 3394TIP3   OH210124   7.887   0.351   2.876
 3394TIP3    H110125   7.917   0.441   2.862
 3394TIP3    H210126   7.819   0.338   2.810
 3395TIP3   OH210127   5.358   5.127   3.201
 3395TIP3    H110128   5.328   5.153   3.114
 3395TIP3    H210129   5.453   5.118   3.191
 3396TIP3   OH210130   4.921   7.445   1.453
 3396TIP3    H110131   4.899   7.386   1.525
 3396TIP3    H210132   5.007   7.479   1.475
 3397TIP3   OH210133   6.865   3.664   1.549
 3397TIP3    H110134   6.959   3.645   1.549
 3397TIP3    H210135   6.826   3.596   1.495
 3398TIP3   OH210136   3.684   6.595   4.494
 3398TIP3    H110137   3.599   6.639   4.488
 3398TIP3    H210138   3.745   6.663   4.521
 3399TIP3   OH210139   2.114   7.146   4.109
 3399TIP3    H110140   2.173   7.092   4.163
 3399TIP3    H210141   2.111   7.230   4.155
 3400TIP3   OH210142  -0.012   4.409   5.702
 3400TIP3    H110143   0.066   4.450   5.665
 3400TIP3    H210144   0.019   4.367   5.783
 3401TIP3   OH210145   5.591   3.398   5.028
 3401TIP3    H110146   5.521   3.343   4.993
 3401TIP3    H210147   5.558   3.429   5.112
 3402TIP3   OH210148   5.523   1.870   2.451
 3402TIP3    H110149   5.560   1.830   2.372
 3402TIP3    H210150   5.515   1.963   2.429
 3403TIP3   OH210151   0.167   0.442   4.352
 3403TIP3    H110152   0.145   0.401   4.268
 3403TIP3    H210153   0.174   0.369   4.413
 3404TIP3   OH210154   6.972   4.442   1.333
 3404TIP3    H110155   6.914   4.496   1.386
 3404TIP3    H210156   7.057   4.446   1.378
 3405TIP3   OH210157   4.725   6.190   5.710
 3405TIP3    H110158   4.759   6.269   5.753
 3405TIP3    H210159   4.633   6.188   5.734
 3406TIP3   OH210160   6.126   5.218   5.750
 3406TIP3    H110161   6.122   5.142   5.692
 3406TIP3    H210162   6.211   5.258   5.731
 3407TIP3   OH210163   3.346   5.025   5.262
 3407TIP3    H110164   3.388   5.062   5.340
 3407TIP3    H210165   3.417   4.982   5.214
 3408TIP3   OH210166   0.623   3.709   2.393
 3408TIP3    H110167   0.549   3.755   2.434
 3408TIP3    H210168   0.695   3.772   2.397
 3409TIP3   OH210169   4.133   0.302   0.871
 3409TIP3    H110170   4.161   0.237   0.934
 3409TIP3    H210171   4.072   0.358   0.920
 3410TIP3   OH210172   3.367   7.107   6.492
 3410TIP3    H110173   3.294   7.054   6.460
 3410TIP3    H210174   3.355   7.192   6.449
 3411TIP3   OH210175   7.179   1.938   6.100
 3411TIP3    H110176   7.195   1.903   6.188
 3411TIP3    H210177   7.085   1.926   6.086
 3412TIP3   OH210178   3.325   0.070   0.042
 3412TIP3    H110179   3.263   0.133   0.077
 3412TIP3    H210180   3.402   0.122   0.019
 3413TIP3   OH210181   3.964   0.815   1.841
 3413TIP3    H110182   3.950   0.742   1.781
 3413TIP3    H210183   4.000   0.885   1.786
 3414TIP3   OH210184   2.713   4.402   5.634
 3414TIP3    H110185   2.699   4.312   5.603
 3414TIP3    H210186   2.793   4.430   5.590
 3415TIP3   OH210187   4.804   7.081   0.836
 3415TIP3    H110188   4.803   7.116   0.747
 3415TIP3    H210189   4.878   7.020   0.837
 3416TIP3   OH210190   4.939   4.622   1.830
 3416TIP3    H110191   4.923   4.623   1.736
 3416TIP3    H210192   5.016   4.567   1.841
 3417TIP3   OH210193   4.431   2.611   3.161
 3417TIP3    H110194   4.369   2.646   3.097
 3417TIP3    H210195   4.451   2.685   3.218
 3418TIP3   OH210196   7.436   4.164   3.819
 3418TIP3    H110197   7.384   4.171   3.739
 3418TIP3    H210198   7.501   4.234   3.812
 3419TIP3   OH210199   4.772   1.952   5.682
 3419TIP3    H110200   4.853   1.935   5.730
 3419TIP3    H210201   4.800   1.975   5.594
 3420TIP3   OH210202   5.484   6.329   2.408
 3420TIP3    H110203   5.409   6.309   2.351
 3420TIP3    H210204   5.560   6.329   2.350
 3421TIP3   OH210205   2.986   3.395   0.174
 3421TIP3    H110206   2.976   3.365   0.264
 3421TIP3    H210207   2.934   3.476   0.170
 3422TIP3   OH210208   1.144   7.179   1.739
 3422TIP3    H110209   1.213   7.112   1.735
 3422TIP3    H210210   1.120   7.193   1.647
 3423TIP3   OH210211   0.637   0.768   3.898
 3423TIP3    H110212   0.542   0.759   3.900
 3423TIP3    H210213   0.652   0.862   3.889
 3424TIP3   OH210214   2.827   7.030   2.926
 3424TIP3    H110215   2.743   7.073   2.913
 3424TIP3    H210216   2.805   6.950   2.974
 3425TIP3   OH210217   1.891   2.490   1.490
 3425TIP3    H110218   1.857   2.495   1.401
 3425TIP3    H210219   1.879   2.578   1.526
 3426TIP3   OH210220   5.205   3.794   4.990
 3426TIP3    H110221   5.217   3.709   4.948
 3426TIP3    H210222   5.244   3.856   4.929
 3427TIP3   OH210223   4.122   6.322   2.865
 3427TIP3    H110224   4.113   6.410   2.902
 3427TIP3    H210225   4.211   6.295   2.889
 3428TIP3   OH210226   0.391   1.526   2.793
 3428TIP3    H110227   0.428   1.468   2.860
 3428TIP3    H210228   0.324   1.473   2.751
 3429TIP3   OH210229   8.144   4.526   4.323
 3429TIP3    H110230   8.064   4.487   4.359
 3429TIP3    H210231   8.116   4.565   4.240
 3430TIP3   OH210232   5.692   1.217   5.660
 3430TIP3    H110233   5.664   1.134   5.700
 3430TIP3    H210234   5.774   1.238   5.704
 3431TIP3   OH210235   5.339   1.219   6.546
 3431TIP3    H110236   5.391   1.230   6.625
 3431TIP3    H210237   5.266   1.163   6.572
 3432TIP3   OH210238   4.928   6.401   6.128
 3432TIP3    H110239   4.962   6.323   6.084
 3432TIP3    H210240   4.950   6.389   6.220
 3433TIP3   OH210241   7.368   5.655   5.560
 3433TIP3    H110242   7.462   5.666   5.541
 3433TIP3    H210243   7.366   5.612   5.645
 3434TIP3   OH210244   2.312   5.552   0.402
 3434TIP3    H110245   2.360   5.472   0.425
 3434TIP3    H210246   2.371   5.601   0.346
 3435TIP3   OH210247   1.550   2.757   2.639
 3435TIP3    H110248   1.634   2.784   2.674
 3435TIP3    H210249   1.513   2.699   2.705
 3436TIP3   OH210250   4.299   5.593   2.495
 3436TIP3    H110251   4.204   5.603   2.501
 3436TIP3    H210252   4.312   5.520   2.434
 3437TIP3   OH210253   1.016   0.684   0.974
 3437TIP3    H110254   0.968   0.602   0.961
 3437TIP3    H210255   1.045   0.708   0.886
 3438TIP3   OH210256   2.399   3.654   1.913
 3438TIP3    H110257   2.367   3.584   1.856
 3438TIP3    H210258   2.465   3.699   1.860
 3439TIP3   OH210259   0.577   6.436   5.218
 3439TIP3    H110260   0.549   6.390   5.297
 3439TIP3    H210261   0.624   6.370   5.168
 3440TIP3   OH210262   6.403   6.847   2.301
 3440TIP3    H110263   6.311   6.846   2.273
 3440TIP3    H210264   6.420   6.758   2.330
 3441TIP3   OH210265   7.370   5.753   3.203
 3441TIP3    H110266   7.289   5.707   3.225
 3441TIP3    H210267   7.348   5.846   3.213
 3442TIP3   OH210268   1.139   0.948   6.675
 3442TIP3    H110269   1.045   0.929   6.676
 3442TIP3    H210270   1.150   1.017   6.741
 3443TIP3   OH210271   1.598   5.739   2.636
 3443TIP3    H110272   1.552   5.786   2.706
 3443TIP3    H210273   1.654   5.804   2.596
 3444TIP3   OH210274   1.485   4.040   1.138
 3444TIP3    H110275   1.493   4.117   1.081
 3444TIP3    H210276   1.513   4.071   1.224
 3445TIP3   OH210277   3.223   2.180   2.858
 3445TIP3    H110278   3.134   2.205   2.834
 3445TIP3    H210279   3.273   2.188   2.777
 3446TIP3   OH210280   7.373   7.675   6.019
 3446TIP3    H110281   7.358   7.718   5.935
 3446TIP3    H210282   7.407   7.744   6.076
 3447TIP3   OH210283   1.960   7.097   1.503
 3447TIP3    H110284   2.030   7.041   1.471
 3447TIP3    H210285   1.957   7.170   1.441
 3448TIP3   OH210286   7.182   2.422   2.652
 3448TIP3    H110287   7.257   2.447   2.599
 3448TIP3    H210288   7.218   2.408   2.740
 3449TIP3   OH210289   6.940   0.045   5.377
 3449TIP3    H110290   6.848   0.048   5.350
 3449TIP3    H210291   6.988   0.077   5.301
 3450TIP3   OH210292   4.033   1.889   2.462
 3450TIP3    H110293   4.051   1.918   2.551
 3450TIP3    H210294   4.020   1.970   2.413
 3451TIP3   OH210295   1.797   7.631   1.228
 3451TIP3    H110296   1.790   7.574   1.304
 3451TIP3    H210297   1.723   7.691   1.235
 3452TIP3   OH210298   3.131   3.061   3.124
 3452TIP3    H110299   3.197   3.101   3.180
 3452TIP3    H210300   3.181   3.009   3.060
 3453TIP3   OH210301   2.946   4.826   0.666
 3453TIP3    H110302   2.927   4.780   0.584
 3453TIP3    H210303   3.041   4.840   0.663
 3454TIP3   OH210304   3.648   5.497   3.334
 3454TIP3    H110305   3.670   5.512   3.242
 3454TIP3    H210306   3.733   5.501   3.379
 3455TIP3   OH210307   0.870   0.015   0.489
 3455TIP3    H110308   0.883   0.095   0.439
 3455TIP3    H210309   0.935   0.019   0.559
 3456TIP3   OH210310   3.666   2.224   5.423
 3456TIP3    H110311   3.615   2.268   5.492
 3456TIP3    H210312   3.745   2.276   5.415
 3457TIP3   OH210313   4.093   6.759   2.166
 3457TIP3    H110314   4.136   6.756   2.081
 3457TIP3    H210315   4.120   6.843   2.204
 3458TIP3   OH210316   1.912   0.539   6.589
 3458TIP3    H110317   1.851   0.475   6.625
 3458TIP3    H210318   1.992   0.489   6.571
 3459TIP3   OH210319   6.336   0.821   3.990
 3459TIP3    H110320   6.273   0.884   4.023
 3459TIP3    H210321   6.352   0.762   4.063
 3460TIP3   OH210322   4.591   0.806   4.689
 3460TIP3    H110323   4.639   0.828   4.769
 3460TIP3    H210324   4.513   0.761   4.720
 3461TIP3   OH210325   4.583   3.079   1.779
 3461TIP3    H110326   4.614   3.165   1.805
 3461TIP3    H210327   4.611   3.069   1.688
 3462TIP3   OH210328   0.596   4.271   4.794
 3462TIP3    H110329   0.687   4.302   4.793
 3462TIP3    H210330   0.544   4.350   4.806
 3463TIP3   OH210331   2.486   0.896   3.080
 3463TIP3    H110332   2.442   0.956   3.020
 3463TIP3    H210333   2.578   0.902   3.056
 3464TIP3   OH210334   7.448   0.106   0.562
 3464TIP3    H110335   7.538   0.117   0.592
 3464TIP3    H210336   7.450   0.026   0.509
 3465TIP3   OH210337   2.786   2.230   4.720
 3465TIP3    H110338   2.744   2.181   4.791
 3465TIP3    H210339   2.781   2.321   4.748
 3466TIP3   OH210340   1.943   7.563   1.904
 3466TIP3    H110341   2.035   7.557   1.932
 3466TIP3    H210342   1.909   7.474   1.914
 3467TIP3   OH210343   7.492   3.954   5.241
 3467TIP3    H110344   7.531   3.888   5.184
 3467TIP3    H210345   7.566   4.006   5.273
 3468TIP3   OH210346   5.009   0.103   6.514
 3468TIP3    H110347   5.038   0.061   6.433
 3468TIP3    H210348   5.015   0.035   6.580
 3469TIP3   OH210349   5.471   2.251   3.777
 3469TIP3    H110350   5.502   2.208   3.857
 3469TIP3    H210351   5.529   2.218   3.708
 3470TIP3   OH210352   6.589   0.936   4.373
 3470TIP3    H110353   6.625   0.892   4.450
 3470TIP3    H210354   6.518   0.879   4.343
 3471TIP3   OH210355   5.395   6.611   2.850
 3471TIP3    H110356   5.338   6.536   2.868
 3471TIP3    H210357   5.406   6.610   2.755
 3472TIP3   OH210358   6.671   7.523   6.067
 3472TIP3    H110359   6.751   7.481   6.100
 3472TIP3    H210360   6.658   7.599   6.123
 3473TIP3   OH210361   0.783   0.481   1.289
 3473TIP3    H110362   0.862   0.492   1.342
 3473TIP3    H210363   0.736   0.564   1.299
 3474TIP3   OH210364   1.357   1.530   3.520
 3474TIP3    H110365   1.273   1.485   3.533
 3474TIP3    H210366   1.336   1.623   3.526
 3475TIP3   OH210367   5.464   6.603   3.863
 3475TIP3    H110368   5.430   6.553   3.938
 3475TIP3    H210369   5.447   6.547   3.787
 3476TIP3   OH210370   0.562   2.960   3.696
 3476TIP3    H110371   0.621   2.896   3.656
 3476TIP3    H210372   0.540   3.020   3.625
 3477TIP3   OH210373   5.306   0.717   6.098
 3477TIP3    H110374   5.365   0.661   6.148
 3477TIP3    H210375   5.360   0.792   6.074
 3478TIP3   OH210376   2.449   3.984   4.539
 3478TIP3    H110377   2.474   3.905   4.588
 3478TIP3    H210378   2.383   3.953   4.477
 3479TIP3   OH210379   6.220   4.560   5.707
 3479TIP3    H110380   6.300   4.610   5.690
 3479TIP3    H210381   6.157   4.626   5.738
 3480TIP3   OH210382   1.232   4.519   3.368
 3480TIP3    H110383   1.156   4.469   3.339
 3480TIP3    H210384   1.202   4.610   3.369
 3481TIP3   OH210385   2.367   0.533   3.262
 3481TIP3    H110386   2.442   0.475   3.277
 3481TIP3    H210387   2.296   0.473   3.236
 3482TIP3   OH210388   2.648   5.593   3.967
 3482TIP3    H110389   2.673   5.610   4.058
 3482TIP3    H210390   2.719   5.633   3.915
 3483TIP3   OH210391   6.130   4.834   3.464
 3483TIP3    H110392   6.035   4.828   3.473
 3483TIP3    H210393   6.149   4.792   3.380
 3484TIP3   OH210394   0.837   0.624   2.228
 3484TIP3    H110395   0.882   0.698   2.189
 3484TIP3    H210396   0.873   0.547   2.183
 3485TIP3   OH210397   7.484   4.630   0.564
 3485TIP3    H110398   7.548   4.601   0.499
 3485TIP3    H210399   7.532   4.692   0.619
 3486TIP3   OH210400   5.840   2.091   0.142
 3486TIP3    H110401   5.773   2.055   0.085
 3486TIP3    H210402   5.922   2.080   0.093
 3487TIP3   OH210403   7.413   1.465   1.951
 3487TIP3    H110404   7.448   1.537   1.899
 3487TIP3    H210405   7.319   1.466   1.934
 3488TIP3   OH210406   7.834   5.578   5.672
 3488TIP3    H110407   7.927   5.602   5.678
 3488TIP3    H210408   7.803   5.619   5.592
 3489TIP3   OH210409   3.408   7.710   6.359
 3489TIP3    H110410   3.403   7.670   6.446
 3489TIP3    H210411   3.417   7.804   6.375
 3490TIP3   OH210412   4.990   6.885   0.813
 3490TIP3    H110413   4.969   6.827   0.886
 3490TIP3    H210414   4.973   6.832   0.734
 3491TIP3   OH210415   3.378   4.434   0.209
 3491TIP3    H110416   3.412   4.488   0.280
 3491TIP3    H210417   3.416   4.348   0.225
 3492TIP3   OH210418   4.820   1.955   5.199
 3492TIP3    H110419   4.752   2.002   5.150
 3492TIP3    H210420   4.866   1.904   5.133
 3493TIP3   OH210421   4.862   5.384   2.262
 3493TIP3    H110422   4.830   5.377   2.352
 3493TIP3    H210423   4.914   5.465   2.262
 3494TIP3   OH210424   0.137   7.574   5.756
 3494TIP3    H110425   0.207   7.547   5.816
 3494TIP3    H210426   0.057   7.571   5.809
 3495TIP3   OH210427   7.215   7.269   2.722
 3495TIP3    H110428   7.156   7.196   2.706
 3495TIP3    H210429   7.163   7.347   2.706
 3496TIP3   OH210430   1.701   6.510   5.636
 3496TIP3    H110431   1.714   6.538   5.546
 3496TIP3    H210432   1.766   6.440   5.650
 3497TIP3   OH210433   0.718   7.378   2.428
 3497TIP3    H110434   0.665   7.398   2.351
 3497TIP3    H210435   0.808   7.393   2.400
 3498TIP3   OH210436   4.340   3.636   6.309
 3498TIP3    H110437   4.415   3.650   6.365
 3498TIP3    H210438   4.280   3.708   6.329
 3499TIP3   OH210439   4.070   0.657   3.498
 3499TIP3    H110440   4.002   0.707   3.545
 3499TIP3    H210441   4.020   0.598   3.441
 3500TIP3   OH210442   7.521   3.465   6.601
 3500TIP3    H110443   7.554   3.400   6.539
 3500TIP3    H210444   7.511   3.545   6.549
 3501TIP3   OH210445   4.342   5.594   6.658
 3501TIP3    H110446   4.383   5.676   6.632
 3501TIP3    H210447   4.410   5.528   6.647
 3502TIP3   OH210448   4.273   7.400   1.291
 3502TIP3    H110449   4.325   7.418   1.212
 3502TIP3    H210450   4.188   7.439   1.273
 3503TIP3   OH210451   0.762   1.864   6.062
 3503TIP3    H110452   0.776   1.770   6.052
 3503TIP3    H210453   0.782   1.882   6.154
 3504TIP3   OH210454   0.778   6.222   0.180
 3504TIP3    H110455   0.872   6.241   0.182
 3504TIP3    H210456   0.737   6.302   0.215
 3505TIP3   OH210457   2.680   4.940   2.285
 3505TIP3    H110458   2.722   4.867   2.240
 3505TIP3    H210459   2.588   4.914   2.291
 3506TIP3   OH210460   6.521   7.095   0.565
 3506TIP3    H110461   6.486   7.011   0.533
 3506TIP3    H210462   6.521   7.151   0.487
 3507TIP3   OH210463   3.888   7.528   3.480
 3507TIP3    H110464   3.891   7.523   3.385
 3507TIP3    H210465   3.795   7.529   3.501
 3508TIP3   OH210466   5.217   2.055   5.132
 3508TIP3    H110467   5.137   2.030   5.087
 3508TIP3    H210468   5.279   2.076   5.062
 3509TIP3   OH210469   2.326   6.103   4.864
 3509TIP3    H110470   2.256   6.099   4.799
 3509TIP3    H210471   2.282   6.127   4.946
 3510TIP3   OH210472   0.068   0.296   3.850
 3510TIP3    H110473   0.032   0.374   3.808
 3510TIP3    H210474   0.008   0.225   3.826
 3511TIP3   OH210475   2.835   1.052   1.431
 3511TIP3    H110476   2.845   1.066   1.526
 3511TIP3    H210477   2.857   0.960   1.419
 3512TIP3   OH210478   3.477   6.660   5.614
 3512TIP3    H110479   3.433   6.585   5.574
 3512TIP3    H210480   3.409   6.703   5.666
 3513TIP3   OH210481   7.901   2.397   3.397
 3513TIP3    H110482   7.986   2.357   3.417
 3513TIP3    H210483   7.850   2.326   3.358
 3514TIP3   OH210484   2.695   0.376   4.491
 3514TIP3    H110485   2.689   0.443   4.422
 3514TIP3    H210486   2.655   0.417   4.568
 3515TIP3   OH210487   0.256   6.940   6.215
 3515TIP3    H110488   0.320   7.010   6.206
 3515TIP3    H210489   0.242   6.933   6.310
 3516TIP3   OH210490   5.310   5.581   5.181
 3516TIP3    H110491   5.397   5.571   5.142
 3516TIP3    H210492   5.307   5.514   5.250
 3517TIP3   OH210493   7.720   7.037   1.452
 3517TIP3    H110494   7.650   6.996   1.503
 3517TIP3    H210495   7.676   7.073   1.375
 3518TIP3   OH210496   6.900   5.685   4.966
 3518TIP3    H110497   6.953   5.609   4.991
 3518TIP3    H210498   6.882   5.729   5.049
 3519TIP3   OH210499   1.956   0.857  -0.007
 3519TIP3    H110500   1.865   0.868   0.018
 3519TIP3    H210501   1.996   0.811   0.067
 3520TIP3   OH210502   0.056   3.301   0.021
 3520TIP3    H110503   0.122   3.335   0.082
 3520TIP3    H210504  -0.014   3.269   0.078
 3521TIP3   OH210505   0.093   1.023   2.743
 3521TIP3    H110506   0.103   0.987   2.831
 3521TIP3    H210507   0.182   1.030   2.710
 3522TIP3   OH210508   6.498   2.759   1.739
 3522TIP3    H110509   6.489   2.668   1.766
 3522TIP3    H210510   6.585   2.764   1.698
 3523TIP3   OH210511   3.088   2.641   2.956
 3523TIP3    H110512   3.180   2.667   2.952
 3523TIP3    H210513   3.082   2.586   3.034
 3524TIP3   OH210514   5.250   2.260   5.934
 3524TIP3    H110515   5.226   2.211   5.855
 3524TIP3    H210516   5.244   2.196   6.005
 3525TIP3   OH210517   3.895   7.462   5.858
 3525TIP3    H110518   3.823   7.401   5.871
 3525TIP3    H210519   3.860   7.547   5.885
 3526TIP3   OH210520   2.452   3.868   1.165
 3526TIP3    H110521   2.379   3.885   1.105
 3526TIP3    H210522   2.499   3.795   1.124
 3527TIP3   OH210523   0.695   5.652   0.590
 3527TIP3    H110524   0.773   5.665   0.536
 3527TIP3    H210525   0.670   5.740   0.618
 3528TIP3   OH210526   7.593   5.056   5.445
 3528TIP3    H110527   7.553   5.087   5.526
 3528TIP3    H210528   7.563   5.117   5.378
 3529TIP3   OH210529   7.409   1.560   5.478
 3529TIP3    H110530   7.331   1.544   5.531
 3529TIP3    H210531   7.448   1.474   5.465
 3530TIP3   OH210532   3.819   1.852   2.102
 3530TIP3    H110533   3.822   1.796   2.179
 3530TIP3    H210534   3.748   1.913   2.119
 3531TIP3   OH210535   6.150   0.929   4.662
 3531TIP3    H110536   6.187   0.961   4.580
 3531TIP3    H210537   6.225   0.925   4.722
 3532TIP3   OH210538   5.358   6.383   4.836
 3532TIP3    H110539   5.421   6.311   4.833
 3532TIP3    H210540   5.411   6.461   4.851
 3533TIP3   OH210541   3.232   5.249   2.549
 3533TIP3    H110542   3.203   5.317   2.488
 3533TIP3    H210543   3.327   5.250   2.543
 3534TIP3   OH210544   3.406   5.643   2.178
 3534TIP3    H110545   3.494   5.664   2.148
 3534TIP3    H210546   3.348   5.694   2.122
 3535TIP3   OH210547   0.778   6.164   0.629
 3535TIP3    H110548   0.760   6.224   0.702
 3535TIP3    H210549   0.701   6.172   0.572
 3536TIP3   OH210550   3.658   1.413   2.348
 3536TIP3    H110551   3.646   1.499   2.389
 3536TIP3    H210552   3.570   1.386   2.321
 3537TIP3   OH210553   3.530   2.454   0.097
 3537TIP3    H110554   3.549   2.505   0.176
 3537TIP3    H210555   3.510   2.367   0.129
 3538TIP3   OH210556   1.475   7.714   5.241
 3538TIP3    H110557   1.498   7.704   5.149
 3538TIP3    H210558   1.547   7.765   5.279
 3539TIP3   OH210559   0.632   0.703   1.305
 3539TIP3    H110560   0.537   0.706   1.304
 3539TIP3    H210561   0.658   0.795   1.300
 3540TIP3   OH210562   6.088   4.130   3.948
 3540TIP3    H110563   6.054   4.053   3.903
 3540TIP3    H210564   6.017   4.160   4.004
 3541TIP3   OH210565   0.951   4.511   3.203
 3541TIP3    H110566   0.932   4.430   3.155
 3541TIP3    H210567   0.909   4.499   3.288
 3542TIP3   OH210568   0.190   2.011   1.261
 3542TIP3    H110569   0.255   1.941   1.264
 3542TIP3    H210570   0.122   1.979   1.202
 3543TIP3   OH210571   7.530   0.097   4.405
 3543TIP3    H110572   7.626   0.099   4.405
 3543TIP3    H210573   7.508   0.054   4.323
 3544TIP3   OH210574   0.723   6.712   5.294
 3544TIP3    H110575   0.763   6.625   5.297
 3544TIP3    H210576   0.640   6.698   5.248
 3545TIP3   OH210577   3.459   0.147   5.961
 3545TIP3    H110578   3.498   0.081   5.904
 3545TIP3    H210579   3.495   0.230   5.930
 3546TIP3   OH210580   2.198   3.171   2.181
 3546TIP3    H110581   2.148   3.246   2.149
 3546TIP3    H210582   2.250   3.206   2.253
 3547TIP3   OH210583   4.074   5.766   4.392
 3547TIP3    H110584   4.022   5.726   4.462
 3547TIP3    H210585   4.155   5.793   4.435
 3548TIP3   OH210586   2.389   5.539   1.854
 3548TIP3    H110587   2.477   5.544   1.891
 3548TIP3    H210588   2.401   5.495   1.769
 3549TIP3   OH210589   2.801   4.710   2.185
 3549TIP3    H110590   2.789   4.665   2.269
 3549TIP3    H210591   2.785   4.642   2.119
 3550TIP3   OH210592   1.836   1.981   6.156
 3550TIP3    H110593   1.870   2.054   6.104
 3550TIP3    H210594   1.913   1.927   6.175
 3551TIP3   OH210595   0.718   5.078   4.532
 3551TIP3    H110596   0.793   5.065   4.474
 3551TIP3    H210597   0.688   5.167   4.512
 3552TIP3   OH210598   3.303   7.248   0.081
 3552TIP3    H110599   3.302   7.270   0.174
 3552TIP3    H210600   3.264   7.161   0.077
 3553TIP3   OH210601   5.753   7.328   3.698
 3553TIP3    H110602   5.667   7.369   3.713
 3553TIP3    H210603   5.734   7.254   3.641
 3554TIP3   OH210604   6.038   7.720   0.750
 3554TIP3    H110605   6.033   7.632   0.714
 3554TIP3    H210606   5.951   7.757   0.736
 3555TIP3   OH210607   5.264   2.110   6.408
 3555TIP3    H110608   5.307   2.093   6.492
 3555TIP3    H210609   5.180   2.150   6.432
 3556TIP3   OH210610   0.200   5.174   4.162
 3556TIP3    H110611   0.153   5.234   4.221
 3556TIP3    H210612   0.252   5.231   4.106
 3557TIP3   OH210613   3.744   5.068   0.131
 3557TIP3    H110614   3.723   5.036   0.219
 3557TIP3    H210615   3.837   5.051   0.120
 3558TIP3   OH210616   3.501   6.915   5.460
 3558TIP3    H110617   3.484   6.827   5.492
 3558TIP3    H210618   3.597   6.923   5.461
 3559TIP3   OH210619   0.823   6.123   2.567
 3559TIP3    H110620   0.758   6.117   2.497
 3559TIP3    H210621   0.840   6.032   2.591
 3560TIP3   OH210622   7.883   5.256   3.425
 3560TIP3    H110623   7.823   5.248   3.499
 3560TIP3    H210624   7.920   5.344   3.433
 3561TIP3   OH210625   0.250   7.682   6.616
 3561TIP3    H110626   0.331   7.727   6.591
 3561TIP3    H210627   0.245   7.608   6.557
 3562TIP3   OH210628   6.894   3.475   2.090
 3562TIP3    H110629   6.978   3.521   2.082
 3562TIP3    H210630   6.898   3.407   2.023
 3563TIP3   OH210631   0.912   1.308   5.725
 3563TIP3    H110632   0.820   1.327   5.708
 3563TIP3    H210633   0.935   1.364   5.800
 3564TIP3   OH210634   3.438   5.683   4.662
 3564TIP3    H110635   3.356   5.716   4.699
 3564TIP3    H210636   3.413   5.601   4.619
 3565TIP3   OH210637   7.714   2.968   1.552
 3565TIP3    H110638   7.636   2.951   1.499
 3565TIP3    H210639   7.776   2.901   1.524
 3566TIP3   OH210640   3.176   5.147   0.126
 3566TIP3    H110641   3.212   5.206   0.060
 3566TIP3    H210642   3.089   5.125   0.093
 3567TIP3   OH210643   2.888   5.947   0.385
 3567TIP3    H110644   2.800   5.943   0.347
 3567TIP3    H210645   2.939   5.998   0.322
 3568TIP3   OH210646   2.297   3.926   4.266
 3568TIP3    H110647   2.217   3.894   4.223
 3568TIP3    H210648   2.304   4.017   4.238
 3569TIP3   OH210649   7.333   5.628   5.250
 3569TIP3    H110650   7.397   5.587   5.308
 3569TIP3    H210651   7.346   5.722   5.263
 3570TIP3   OH210652   7.502   5.512   0.554
 3570TIP3    H110653   7.483   5.589   0.607
 3570TIP3    H210654   7.448   5.524   0.475
 3571TIP3   OH210655   2.223   7.281   5.631
 3571TIP3    H110656   2.249   7.226   5.557
 3571TIP3    H210657   2.238   7.226   5.708
 3572TIP3   OH210658   4.285   4.787   2.410
 3572TIP3    H110659   4.353   4.742   2.359
 3572TIP3    H210660   4.291   4.749   2.497
 3573TIP3   OH210661   0.735   7.209   5.986
 3573TIP3    H110662   0.692   7.143   6.040
 3573TIP3    H210663   0.664   7.244   5.932
 3574TIP3   OH210664   5.429   5.070   2.029
 3574TIP3    H110665   5.459   4.989   1.988
 3574TIP3    H210666   5.337   5.076   2.005
 3575TIP3   OH210667   5.415   3.672   6.317
 3575TIP3    H110668   5.349   3.741   6.310
 3575TIP3    H210669   5.442   3.655   6.227
 3576TIP3   OH210670   0.134   3.086   0.382
 3576TIP3    H110671   0.086   3.026   0.439
 3576TIP3    H210672   0.161   3.032   0.308
 3577TIP3   OH210673   4.961   2.060   3.325
 3577TIP3    H110674   4.883   2.101   3.361
 3577TIP3    H210675   5.033   2.114   3.358
 3578TIP3   OH210676   0.790   7.767   4.990
 3578TIP3    H110677   0.856   7.825   5.027
 3578TIP3    H210678   0.743   7.822   4.927
 3579TIP3   OH210679   2.283   3.934   5.104
 3579TIP3    H110680   2.242   3.854   5.071
 3579TIP3    H210681   2.264   4.000   5.038
 3580TIP3   OH210682   7.067   4.074   0.741
 3580TIP3    H110683   7.071   4.077   0.645
 3580TIP3    H210684   7.080   4.165   0.768
 3581TIP3   OH210685   6.776   0.665   1.647
 3581TIP3    H110686   6.837   0.689   1.716
 3581TIP3    H210687   6.799   0.722   1.573
 3582TIP3   OH210688   6.094   0.696   2.285
 3582TIP3    H110689   6.176   0.686   2.334
 3582TIP3    H210690   6.108   0.773   2.230
 3583TIP3   OH210691   8.156   4.027   1.064
 3583TIP3    H110692   8.110   4.082   1.127
 3583TIP3    H210693   8.124   3.939   1.081
 3584TIP3   OH210694   0.483   7.775   3.714
 3584TIP3    H110695   0.520   7.807   3.797
 3584TIP3    H210696   0.423   7.705   3.740
 3585TIP3   OH210697   3.493   1.001   4.840
 3585TIP3    H110698   3.523   1.042   4.921
 3585TIP3    H210699   3.561   0.937   4.820
 3586TIP3   OH210700   5.915   3.069   3.746
 3586TIP3    H110701   5.837   3.035   3.789
 3586TIP3    H210702   5.986   3.013   3.777
 3587TIP3   OH210703   0.829   4.470   5.821
 3587TIP3    H110704   0.876   4.499   5.744
 3587TIP3    H210705   0.851   4.534   5.889
 3588TIP3   OH210706   4.221   4.226   3.031
 3588TIP3    H110707   4.168   4.150   3.007
 3588TIP3    H210708   4.285   4.192   3.094
 3589TIP3   OH210709   4.081   7.767   4.249
 3589TIP3    H110710   4.057   7.859   4.255
 3589TIP3    H210711   4.008   7.726   4.202
 3590TIP3   OH210712   6.185   6.647   1.481
 3590TIP3    H110713   6.248   6.584   1.447
 3590TIP3    H210714   6.115   6.594   1.518
 3591TIP3   OH210715   1.474   6.276   0.743
 3591TIP3    H110716   1.502   6.361   0.708
 3591TIP3    H210717   1.401   6.296   0.801
 3592TIP3   OH210718   7.109   0.253   4.993
 3592TIP3    H110719   7.031   0.306   5.006
 3592TIP3    H210720   7.181   0.307   5.027
 3593TIP3   OH210721   0.188   5.714   2.262
 3593TIP3    H110722   0.190   5.620   2.247
 3593TIP3    H210723   0.223   5.751   2.181
 3594TIP3   OH210724   4.856   7.208   5.260
 3594TIP3    H110725   4.825   7.139   5.319
 3594TIP3    H210726   4.806   7.196   5.180
 3595TIP3   OH210727   3.551   0.714   4.608
 3595TIP3    H110728   3.622   0.690   4.549
 3595TIP3    H210729   3.593   0.764   4.677
 3596TIP3   OH210730   6.236   7.549   0.672
 3596TIP3    H110731   6.331   7.533   0.675
 3596TIP3    H210732   6.228   7.630   0.622
 3597TIP3   OH210733   6.961   0.476   4.938
 3597TIP3    H110734   6.907   0.514   4.869
 3597TIP3    H210735   7.013   0.549   4.971
 3598TIP3   OH210736   0.456   4.489   5.955
 3598TIP3    H110737   0.494   4.403   5.939
 3598TIP3    H210738   0.491   4.545   5.886
 3599TIP3   OH210739   6.007   2.823   4.315
 3599TIP3    H110740   6.045   2.909   4.334
 3599TIP3    H210741   6.044   2.765   4.381
 3600TIP3   OH210742   1.296   4.103   2.380
 3600TIP3    H110743   1.351   4.098   2.458
 3600TIP3    H210744   1.253   4.188   2.386
 3601TIP3   OH210745   1.966   1.720   1.370
 3601TIP3    H110746   1.983   1.664   1.446
 3601TIP3    H210747   1.874   1.705   1.349
 3602TIP3   OH210748   7.984   4.525   3.679
 3602TIP3    H110749   8.034   4.540   3.759
 3602TIP3    H210750   8.031   4.454   3.635
 3603TIP3   OH210751   0.168   2.691   3.830
 3603TIP3    H110752   0.196   2.633   3.759
 3603TIP3    H210753   0.229   2.672   3.902
 3604TIP3   OH210754   2.498   4.815   0.409
 3604TIP3    H110755   2.546   4.842   0.330
 3604TIP3    H210756   2.407   4.842   0.392
 3605TIP3   OH210757   0.798   3.583   0.062
 3605TIP3    H110758   0.829   3.509   0.010
 3605TIP3    H210759   0.800   3.550   0.153
 3606TIP3   OH210760   3.467   5.753   5.459
 3606TIP3    H110761   3.559   5.751   5.431
 3606TIP3    H210762   3.461   5.831   5.514
 3607TIP3   OH210763   2.794   5.730   0.559
 3607TIP3    H110764   2.717   5.744   0.614
 3607TIP3    H210765   2.825   5.818   0.538
 3608TIP3   OH210766   7.553   6.429   4.856
 3608TIP3    H110767   7.505   6.454   4.935
 3608TIP3    H210768   7.574   6.337   4.868
 3609TIP3   OH210769   4.863   1.108   4.699
 3609TIP3    H110770   4.952   1.143   4.705
 3609TIP3    H210771   4.808   1.186   4.693
 3610TIP3   OH210772   2.551   4.921   4.433
 3610TIP3    H110773   2.569   4.892   4.522
 3610TIP3    H210774   2.506   4.846   4.392
 3611TIP3   OH210775   1.080   4.597   1.075
 3611TIP3    H110776   1.098   4.506   1.052
 3611TIP3    H210777   1.163   4.642   1.060
 3612TIP3   OH210778   4.323   6.614   1.012
 3612TIP3    H110779   4.405   6.638   1.055
 3612TIP3    H210780   4.348   6.551   0.945
 3613TIP3   OH210781   0.782   1.884   3.021
 3613TIP3    H110782   0.733   1.965   3.011
 3613TIP3    H210783   0.730   1.831   3.081
 3614TIP3   OH210784   6.756   4.716   5.314
 3614TIP3    H110785   6.805   4.675   5.243
 3614TIP3    H210786   6.820   4.771   5.359
 3615TIP3   OH210787   6.520   2.299   5.292
 3615TIP3    H110788   6.537   2.245   5.215
 3615TIP3    H210789   6.480   2.379   5.257
 3616TIP3   OH210790   3.785   6.859   5.468
 3616TIP3    H110791   3.822   6.793   5.410
 3616TIP3    H210792   3.857   6.884   5.526
 3617TIP3   OH210793   4.365   0.281   4.374
 3617TIP3    H110794   4.431   0.241   4.316
 3617TIP3    H210795   4.285   0.282   4.322
 3618TIP3   OH210796   1.534   5.491   0.088
 3618TIP3    H110797   1.453   5.454   0.123
 3618TIP3    H210798   1.539   5.578   0.128
 3619TIP3   OH210799   7.034   0.728   1.015
 3619TIP3    H110800   7.028   0.692   1.103
 3619TIP3    H210801   6.995   0.661   0.959
 3620TIP3   OH210802   0.564   6.007   2.433
 3620TIP3    H110803   0.482   5.984   2.478
 3620TIP3    H210804   0.546   5.990   2.340
 3621TIP3   OH210805   3.624   2.976   5.532
 3621TIP3    H110806   3.691   2.927   5.580
 3621TIP3    H210807   3.624   3.062   5.573
 3622TIP3   OH210808   0.145   3.046   2.521
 3622TIP3    H110809   0.187   3.049   2.607
 3622TIP3    H210810   0.103   2.960   2.518
 3623TIP3   OH210811   0.631   4.244   2.362
 3623TIP3    H110812   0.710   4.202   2.396
 3623TIP3    H210813   0.637   4.335   2.391
 3624TIP3   OH210814   2.993   6.439   5.115
 3624TIP3    H110815   3.004   6.349   5.146
 3624TIP3    H210816   2.906   6.441   5.077
 3625TIP3   OH210817   6.523   6.020   3.168
 3625TIP3    H110818   6.576   6.098   3.188
 3625TIP3    H210819   6.506   6.026   3.074
 3626TIP3   OH210820   7.203   5.691   1.406
 3626TIP3    H110821   7.237   5.756   1.345
 3626TIP3    H210822   7.170   5.742   1.480
 3627TIP3   OH210823   8.086   1.184   2.402
 3627TIP3    H110824   8.007   1.135   2.376
 3627TIP3    H210825   8.127   1.129   2.468
 3628TIP3   OH210826   2.651   2.241   2.123
 3628TIP3    H110827   2.585   2.306   2.144
 3628TIP3    H210828   2.663   2.192   2.205
 3629TIP3   OH210829   5.875   1.775   1.446
 3629TIP3    H110830   5.850   1.685   1.422
 3629TIP3    H210831   5.815   1.830   1.396
 3630TIP3   OH210832   2.082   6.467   4.948
 3630TIP3    H110833   2.177   6.467   4.934
 3630TIP3    H210834   2.045   6.448   4.862
 3631TIP3   OH210835   2.135   5.654   5.072
 3631TIP3    H110836   2.176   5.576   5.034
 3631TIP3    H210837   2.097   5.700   4.998
 3632TIP3   OH210838   1.135   3.453   2.388
 3632TIP3    H110839   1.082   3.457   2.467
 3632TIP3    H210840   1.136   3.360   2.365
 3633TIP3   OH210841   5.837   3.845   2.628
 3633TIP3    H110842   5.844   3.934   2.593
 3633TIP3    H210843   5.780   3.800   2.565
 3634TIP3   OH210844   0.076   2.549   2.535
 3634TIP3    H110845   0.063   2.494   2.612
 3634TIP3    H210846   0.088   2.637   2.570
 3635TIP3   OH210847   0.990   5.453   1.183
 3635TIP3    H110848   1.030   5.510   1.118
 3635TIP3    H210849   1.062   5.400   1.217
 3636TIP3   OH210850   5.953   3.203   0.438
 3636TIP3    H110851   5.950   3.126   0.494
 3636TIP3    H210852   5.895   3.182   0.365
 3637TIP3   OH210853   5.527   2.287   1.365
 3637TIP3    H110854   5.516   2.371   1.321
 3637TIP3    H210855   5.476   2.225   1.312
 3638TIP3   OH210856   6.309   4.744   5.226
 3638TIP3    H110857   6.269   4.671   5.179
 3638TIP3    H210858   6.238   4.778   5.282
 3639TIP3   OH210859   5.778   3.114   1.897
 3639TIP3    H110860   5.702   3.162   1.864
 3639TIP3    H210861   5.815   3.173   1.963
 3640TIP3   OH210862   6.781   2.371   0.474
 3640TIP3    H110863   6.856   2.430   0.478
 3640TIP3    H210864   6.764   2.360   0.380
 3641TIP3   OH210865  -0.003   3.314   3.416
 3641TIP3    H110866   0.080   3.283   3.380
 3641TIP3    H210867  -0.037   3.374   3.350
 3642TIP3   OH210868   7.203   0.432   4.756
 3642TIP3    H110869   7.140   0.399   4.819
 3642TIP3    H210870   7.245   0.354   4.721
 3643TIP3   OH210871   2.961   7.460   4.540
 3643TIP3    H110872   2.884   7.493   4.494
 3643TIP3    H210873   2.992   7.388   4.486
 3644TIP3   OH210874   6.704   4.130   3.251
 3644TIP3    H110875   6.736   4.203   3.302
 3644TIP3    H210876   6.743   4.142   3.164
 3645TIP3   OH210877   0.879   7.683   4.246
 3645TIP3    H110878   0.940   7.742   4.291
 3645TIP3    H210879   0.919   7.667   4.161
 3646TIP3   OH210880   7.692   3.457   4.383
 3646TIP3    H110881   7.724   3.500   4.304
 3646TIP3    H210882   7.624   3.397   4.352
 3647TIP3   OH210883   0.682   6.993   0.493
 3647TIP3    H110884   0.707   6.901   0.490
 3647TIP3    H210885   0.760   7.041   0.464
 3648TIP3   OH210886   0.232   1.497   5.099
 3648TIP3    H110887   0.173   1.422   5.101
 3648TIP3    H210888   0.174   1.573   5.103
 3649TIP3   OH210889   6.382   3.700   1.566
 3649TIP3    H110890   6.472   3.684   1.595
 3649TIP3    H210891   6.371   3.645   1.489
 3650TIP3   OH210892   6.765   0.616   4.011
 3650TIP3    H110893   6.791   0.614   3.919
 3650TIP3    H210894   6.837   0.573   4.057
 3651TIP3   OH210895   6.918   1.893   6.078
 3651TIP3    H110896   6.846   1.874   6.139
 3651TIP3    H210897   6.876   1.897   5.992
 3652TIP3   OH210898   6.460   6.679   6.548
 3652TIP3    H110899   6.390   6.669   6.612
 3652TIP3    H210900   6.471   6.592   6.510
 3653TIP3   OH210901   6.065   4.890   0.412
 3653TIP3    H110902   6.006   4.966   0.408
 3653TIP3    H210903   6.009   4.815   0.393
 3654TIP3   OH210904   7.322   0.308   4.460
 3654TIP3    H110905   7.385   0.235   4.468
 3654TIP3    H210906   7.239   0.272   4.492
 3655TIP3   OH210907   1.125   3.051   2.330
 3655TIP3    H110908   1.195   3.105   2.366
 3655TIP3    H210909   1.164   3.008   2.255
 3656TIP3   OH210910   5.218   3.276   1.241
 3656TIP3    H110911   5.252   3.325   1.166
 3656TIP3    H210912   5.277   3.300   1.313
 3657TIP3   OH210913   1.974   0.132   6.601
 3657TIP3    H110914   1.995   0.055   6.654
 3657TIP3    H210915   1.899   0.172   6.644
 3658TIP3   OH210916   4.970   2.530   1.099
 3658TIP3    H110917   5.020   2.478   1.162
 3658TIP3    H210918   4.893   2.477   1.080
 3659TIP3   OH210919   6.996   5.044   3.965
 3659TIP3    H110920   7.091   5.051   3.959
 3659TIP3    H210921   6.964   5.078   3.882
 3660TIP3   OH210922   1.817   1.219   2.484
 3660TIP3    H110923   1.877   1.148   2.508
 3660TIP3    H210924   1.790   1.198   2.395
 3661TIP3   OH210925   2.714   0.693   0.823
 3661TIP3    H110926   2.802   0.693   0.786
 3661TIP3    H210927   2.726   0.679   0.917
 3662TIP3   OH210928   0.148   6.863   2.724
 3662TIP3    H110929   0.186   6.817   2.650
 3662TIP3    H210930   0.209   6.848   2.796
 3663TIP3   OH210931   5.975   3.735   4.813
 3663TIP3    H110932   5.975   3.651   4.860
 3663TIP3    H210933   5.888   3.771   4.828
 3664TIP3   OH210934   0.578   5.427   0.212
 3664TIP3    H110935   0.620   5.430   0.298
 3664TIP3    H210936   0.570   5.519   0.186
 3665TIP3   OH210937   0.994   5.483   3.510
 3665TIP3    H110938   0.919   5.433   3.478
 3665TIP3    H210939   0.977   5.573   3.483
 3666TIP3   OH210940   7.704   4.929   6.230
 3666TIP3    H110941   7.759   4.979   6.290
 3666TIP3    H210942   7.721   4.968   6.144
 3667TIP3   OH210943   8.231   3.571   0.167
 3667TIP3    H110944   8.264   3.627   0.237
 3667TIP3    H210945   8.223   3.484   0.207
 3668TIP3   OH210946   5.791   2.965   0.476
 3668TIP3    H110947   5.856   2.949   0.544
 3668TIP3    H210948   5.732   3.031   0.514
 3669TIP3   OH210949   0.421   3.988   5.860
 3669TIP3    H110950   0.373   3.912   5.892
 3669TIP3    H210951   0.373   4.063   5.895
 3670TIP3   OH210952   0.583   4.809   1.749
 3670TIP3    H110953   0.633   4.873   1.799
 3670TIP3    H210954   0.518   4.775   1.812
 3671TIP3   OH210955   1.255   7.676   1.206
 3671TIP3    H110956   1.220   7.747   1.152
 3671TIP3    H210957   1.211   7.598   1.173
 3672TIP3   OH210958   4.005   0.385   3.786
 3672TIP3    H110959   4.095   0.414   3.803
 3672TIP3    H210960   3.958   0.465   3.764
 3673TIP3   OH210961   3.560   3.364   4.715
 3673TIP3    H110962   3.651   3.338   4.727
 3673TIP3    H210963   3.519   3.288   4.674
 3674TIP3   OH210964   5.474   5.387   6.381
 3674TIP3    H110965   5.469   5.298   6.346
 3674TIP3    H210966   5.497   5.375   6.473
 3675TIP3   OH210967   5.496   4.415   4.509
 3675TIP3    H110968   5.438   4.396   4.436
 3675TIP3    H210969   5.477   4.507   4.532
 3676TIP3   OH210970   6.132   1.908   2.773
 3676TIP3    H110971   6.041   1.881   2.763
 3676TIP3    H210972   6.150   1.896   2.867
 3677TIP3   OH210973   6.575   4.693   1.038
 3677TIP3    H110974   6.613   4.769   0.993
 3677TIP3    H210975   6.651   4.644   1.069
 3678TIP3   OH210976   3.338   1.203   1.145
 3678TIP3    H110977   3.428   1.171   1.147
 3678TIP3    H210978   3.336   1.266   1.072
 3679TIP3   OH210979   7.677   6.532   6.260
 3679TIP3    H110980   7.613   6.525   6.331
 3679TIP3    H210981   7.668   6.450   6.212
 3680TIP3   OH210982   2.146   6.006   2.628
 3680TIP3    H110983   2.199   5.934   2.594
 3680TIP3    H210984   2.202   6.083   2.622
 3681TIP3   OH210985   7.175   1.298   0.981
 3681TIP3    H110986   7.267   1.276   0.996
 3681TIP3    H210987   7.175   1.393   0.969
 3682TIP3   OH210988   8.210   1.365   6.569
 3682TIP3    H110989   8.166   1.294   6.615
 3682TIP3    H210990   8.224   1.432   6.636
 3683TIP3   OH210991   6.208   1.510   5.322
 3683TIP3    H110992   6.289   1.511   5.271
 3683TIP3    H210993   6.234   1.537   5.410
 3684TIP3   OH210994   1.105   6.715   5.135
 3684TIP3    H110995   1.143   6.733   5.049
 3684TIP3    H210996   1.122   6.622   5.149
 3685TIP3   OH210997   4.370   3.366   1.251
 3685TIP3    H110998   4.295   3.313   1.224
 3685TIP3    H210999   4.352   3.388   1.342
 3686TIP3   OH211000   5.938   3.742   2.878
 3686TIP3    H111001   5.894   3.793   2.811
 3686TIP3    H211002   5.997   3.684   2.830
 3687TIP3   OH211003   6.761   2.939   6.425
 3687TIP3    H111004   6.761   2.844   6.416
 3687TIP3    H211005   6.710   2.970   6.351
 3688TIP3   OH211006   5.446   2.824   4.801
 3688TIP3    H111007   5.466   2.914   4.776
 3688TIP3    H211008   5.495   2.771   4.739
 3689TIP3   OH211009   7.004   6.343   3.535
 3689TIP3    H111010   7.011   6.431   3.571
 3689TIP3    H211011   6.910   6.325   3.532
 3690TIP3   OH211012   8.099   5.010   2.244
 3690TIP3    H111013   8.023   5.066   2.227
 3690TIP3    H211014   8.174   5.062   2.215
 3691TIP3   OH211015   4.035   1.016   0.845
 3691TIP3    H111016   4.103   1.013   0.778
 3691TIP3    H211017   3.961   0.969   0.806
 3692TIP3   OH211018   1.732   0.794   3.558
 3692TIP3    H111019   1.723   0.723   3.620
 3692TIP3    H211020   1.663   0.856   3.582
 3693TIP3   OH211021   2.776   2.821   3.380
 3693TIP3    H111022   2.821   2.830   3.296
 3693TIP3    H211023   2.825   2.753   3.426
 3694TIP3   OH211024   0.213   0.650   6.425
 3694TIP3    H111025   0.144   0.714   6.439
 3694TIP3    H211026   0.224   0.607   6.509
 3695TIP3   OH211027   1.695   5.408   2.453
 3695TIP3    H111028   1.740   5.355   2.519
 3695TIP3    H211029   1.699   5.498   2.487
 3696TIP3   OH211030   0.853   4.676   1.245
 3696TIP3    H111031   0.773   4.696   1.196
 3696TIP3    H211032   0.912   4.638   1.180
 3697TIP3   OH211033   7.906   3.406   6.384
 3697TIP3    H111034   7.848   3.483   6.389
 3697TIP3    H211035   7.962   3.423   6.309
 3698TIP3   OH211036   4.514   4.607   0.709
 3698TIP3    H111037   4.497   4.677   0.647
 3698TIP3    H211038   4.460   4.628   0.785
 3699TIP3   OH211039   0.141   0.288   5.883
 3699TIP3    H111040   0.211   0.305   5.945
 3699TIP3    H211041   0.095   0.371   5.873
 3700TIP3   OH211042   1.558   1.511   4.633
 3700TIP3    H111043   1.495   1.496   4.703
 3700TIP3    H211044   1.626   1.446   4.648
 3701TIP3   OH211045   7.376   3.973   0.783
 3701TIP3    H111046   7.355   4.034   0.853
 3701TIP3    H211047   7.469   3.987   0.765
 3702TIP3   OH211048   7.312   4.825   2.046
 3702TIP3    H111049   7.375   4.888   2.081
 3702TIP3    H211050   7.234   4.835   2.100
 3703TIP3   OH211051   5.842   2.018   1.634
 3703TIP3    H111052   5.848   1.930   1.598
 3703TIP3    H211053   5.933   2.047   1.643
 3704TIP3   OH211054   0.408   7.553   5.527
 3704TIP3    H111055   0.370   7.622   5.474
 3704TIP3    H211056   0.381   7.471   5.485
 3705TIP3   OH211057   5.539   5.823   2.780
 3705TIP3    H111058   5.538   5.754   2.712
 3705TIP3    H211059   5.456   5.869   2.769
 3706TIP3   OH211060   8.213   4.051   6.384
 3706TIP3    H111061   8.205   3.956   6.394
 3706TIP3    H211062   8.139   4.087   6.431
 3707TIP3   OH211063   0.196   3.270   6.626
 3707TIP3    H111064   0.200   3.366   6.626
 3707TIP3    H211065   0.256   3.244   6.697
 3708TIP3   OH211066   3.807   4.000   0.707
 3708TIP3    H111067   3.867   4.065   0.743
 3708TIP3    H211068   3.805   4.019   0.613
 3709TIP3   OH211069   5.992   1.426   4.363
 3709TIP3    H111070   5.909   1.408   4.318
 3709TIP3    H211071   6.015   1.515   4.337
 3710TIP3   OH211072   7.664   4.503   3.951
 3710TIP3    H111073   7.585   4.464   3.988
 3710TIP3    H211074   7.728   4.432   3.950
 3711TIP3   OH211075   2.017   1.938   6.526
 3711TIP3    H111076   1.927   1.928   6.557
 3711TIP3    H211077   2.028   1.870   6.460
 3712TIP3   OH211078   5.256   2.367   2.452
 3712TIP3    H111079   5.195   2.376   2.380
 3712TIP3    H211080   5.257   2.274   2.472
 3713TIP3   OH211081   6.395   2.033   2.247
 3713TIP3    H111082   6.480   2.066   2.220
 3713TIP3    H211083   6.393   2.048   2.342
 3714TIP3   OH211084   0.241   5.969   5.020
 3714TIP3    H111085   0.164   5.934   5.063
 3714TIP3    H211086   0.217   5.974   4.927
 3715TIP3   OH211087   4.740   4.164   4.825
 3715TIP3    H111088   4.724   4.103   4.897
 3715TIP3    H211089   4.833   4.186   4.834
 3716TIP3   OH211090   5.824   7.032   2.605
 3716TIP3    H111091   5.748   7.007   2.657
 3716TIP3    H211092   5.811   6.986   2.522
 3717TIP3   OH211093   1.692   3.090   5.546
 3717TIP3    H111094   1.686   2.997   5.522
 3717TIP3    H211095   1.646   3.095   5.630
 3718TIP3   OH211096   5.824   6.913   1.156
 3718TIP3    H111097   5.864   6.887   1.072
 3718TIP3    H211098   5.879   6.871   1.222
 3719TIP3   OH211099   6.340   0.525   4.891
 3719TIP3    H111100   6.374   0.507   4.979
 3719TIP3    H211101   6.254   0.564   4.905
 3720TIP3   OH211102   0.816   2.377   1.416
 3720TIP3    H111103   0.784   2.340   1.498
 3720TIP3    H211104   0.787   2.468   1.417
 3721TIP3   OH211105   1.468   0.888   1.403
 3721TIP3    H111106   1.407   0.853   1.338
 3721TIP3    H211107   1.553   0.886   1.360
 3722TIP3   OH211108   7.411   3.637   2.495
 3722TIP3    H111109   7.376   3.553   2.465
 3722TIP3    H211110   7.443   3.679   2.415
 3723TIP3   OH211111   1.816   0.195   4.970
 3723TIP3    H111112   1.829   0.143   4.891
 3723TIP3    H211113   1.785   0.132   5.036
 3724TIP3   OH211114   6.063   5.374   2.551
 3724TIP3    H111115   6.095   5.390   2.462
 3724TIP3    H211116   6.027   5.458   2.580
 3725TIP3   OH211117   1.982   2.754   0.182
 3725TIP3    H111118   1.923   2.692   0.225
 3725TIP3    H211119   2.063   2.705   0.168
 3726TIP3   OH211120   2.414   0.505   1.833
 3726TIP3    H111121   2.449   0.459   1.757
 3726TIP3    H211122   2.486   0.508   1.896
 3727TIP3   OH211123   6.725   5.988   3.771
 3727TIP3    H111124   6.717   5.950   3.683
 3727TIP3    H211125   6.800   6.048   3.764
 3728TIP3   OH211126   8.179   7.300   2.780
 3728TIP3    H111127   8.212   7.213   2.758
 3728TIP3    H211128   8.228   7.326   2.858
 3729TIP3   OH211129   8.069   1.455   4.378
 3729TIP3    H111130   7.975   1.438   4.381
 3729TIP3    H211131   8.102   1.417   4.459
 3730TIP3   OH211132   4.730   2.719   4.927
 3730TIP3    H111133   4.755   2.736   4.837
 3730TIP3    H211134   4.791   2.771   4.980
 3731TIP3   OH211135   0.482   3.693   5.774
 3731TIP3    H111136   0.486   3.603   5.805
 3731TIP3    H211137   0.502   3.746   5.851
 3732TIP3   OH211138   3.478   5.979   0.519
 3732TIP3    H111139   3.529   5.906   0.553
 3732TIP3    H211140   3.486   5.971   0.424
 3733TIP3   OH211141   1.971   3.767   4.799
 3733TIP3    H111142   1.974   3.863   4.796
 3733TIP3    H211143   2.060   3.742   4.825
 3734TIP3   OH211144   2.025   1.313   1.190
 3734TIP3    H111145   1.939   1.273   1.187
 3734TIP3    H211146   2.040   1.333   1.282
 3735TIP3   OH211147   6.544   5.433   0.854
 3735TIP3    H111148   6.552   5.338   0.867
 3735TIP3    H211149   6.536   5.444   0.759
 3736TIP3   OH211150   3.652   4.227   2.290
 3736TIP3    H111151   3.713   4.222   2.364
 3736TIP3    H211152   3.709   4.226   2.212
 3737TIP3   OH211153   5.070   6.240   3.036
 3737TIP3    H111154   5.134   6.180   2.998
 3737TIP3    H211155   5.009   6.184   3.083
 3738TIP3   OH211156   7.280   5.343   6.121
 3738TIP3    H111157   7.288   5.381   6.208
 3738TIP3    H211158   7.350   5.277   6.117
 3739TIP3   OH211159   1.860   1.684   5.101
 3739TIP3    H111160   1.877   1.726   5.186
 3739TIP3    H211161   1.939   1.633   5.083
 3740TIP3   OH211162   0.054   7.169   1.950
 3740TIP3    H111163   0.011   7.124   1.877
 3740TIP3    H211164   0.037   7.262   1.934
 3741TIP3   OH211165   6.109   2.212   2.013
 3741TIP3    H111166   6.103   2.293   2.063
 3741TIP3    H211167   6.052   2.151   2.060
 3742TIP3   OH211168   3.361   5.469   3.102
 3742TIP3    H111169   3.416   5.541   3.130
 3742TIP3    H211170   3.318   5.501   3.023
 3743TIP3   OH211171   4.911   1.089   3.482
 3743TIP3    H111172   4.952   1.046   3.558
 3743TIP3    H211173   4.917   1.182   3.502
 3744TIP3   OH211174   7.489   3.772   0.946
 3744TIP3    H111175   7.453   3.791   1.033
 3744TIP3    H211176   7.445   3.833   0.888
 3745TIP3   OH211177   3.723   0.564   0.723
 3745TIP3    H111178   3.641   0.527   0.755
 3745TIP3    H211179   3.769   0.592   0.802
 3746TIP3   OH211180   7.737   3.891   0.253
 3746TIP3    H111181   7.692   3.895   0.169
 3746TIP3    H211182   7.807   3.955   0.246
 3747TIP3   OH211183   5.909   3.855   6.097
 3747TIP3    H111184   5.893   3.822   6.009
 3747TIP3    H211185   5.997   3.892   6.094
 3748TIP3   OH211186   5.486   4.206   0.196
 3748TIP3    H111187   5.573   4.237   0.170
 3748TIP3    H211188   5.496   4.181   0.288
 3749TIP3   OH211189   8.003   2.932   0.360
 3749TIP3    H111190   7.979   2.968   0.275
 3749TIP3    H211191   8.048   3.004   0.405
 3750TIP3   OH211192   1.617   0.829   1.027
 3750TIP3    H111193   1.639   0.829   1.120
 3750TIP3    H211194   1.665   0.904   0.991
 3751TIP3   OH211195   6.205   3.898   2.739
 3751TIP3    H111196   6.293   3.877   2.706
 3751TIP3    H211197   6.212   3.888   2.834
 3752TIP3   OH211198   1.224   3.118   4.322
 3752TIP3    H111199   1.255   3.209   4.327
 3752TIP3    H211200   1.136   3.121   4.358
 3753TIP3   OH211201   3.768   5.051   1.738
 3753TIP3    H111202   3.714   4.975   1.758
 3753TIP3    H211203   3.840   5.016   1.685
 3754TIP3   OH211204   4.398   5.313   4.712
 3754TIP3    H111205   4.319   5.307   4.658
 3754TIP3    H211206   4.464   5.348   4.653
 3755TIP3   OH211207   0.683   1.472   4.199
 3755TIP3    H111208   0.667   1.401   4.137
 3755TIP3    H211209   0.615   1.537   4.179
 3756TIP3   OH211210   0.144   5.933   4.634
 3756TIP3    H111211   0.127   5.949   4.541
 3756TIP3    H211212   0.064   5.962   4.678
 3757TIP3   OH211213   1.296   7.183   0.833
 3757TIP3    H111214   1.269   7.153   0.920
 3757TIP3    H211215   1.214   7.204   0.789
 3758TIP3   OH211216   3.789   4.844   5.159
 3758TIP3    H111217   3.852   4.786   5.203
 3758TIP3    H211218   3.803   4.929   5.200
 3759TIP3   OH211219   6.377   5.616   3.057
 3759TIP3    H111220   6.353   5.615   3.150
 3759TIP3    H211221   6.373   5.524   3.030
 3760TIP3   OH211222   6.226   2.601   1.623
 3760TIP3    H111223   6.199   2.514   1.595
 3760TIP3    H211224   6.285   2.587   1.696
 3761TIP3   OH211225   2.305   5.121   5.788
 3761TIP3    H111226   2.390   5.104   5.829
 3761TIP3    H211227   2.319   5.105   5.695
 3762TIP3   OH211228   7.472   2.777   0.254
 3762TIP3    H111229   7.387   2.740   0.229
 3762TIP3    H211230   7.460   2.806   0.344
 3763TIP3   OH211231   5.288   7.003   1.591
 3763TIP3    H111232   5.372   6.993   1.634
 3763TIP3    H211233   5.307   7.054   1.512
 3764TIP3   OH211234   0.530   7.635   1.834
 3764TIP3    H111235   0.490   7.719   1.857
 3764TIP3    H211236   0.459   7.572   1.840
 3765TIP3   OH211237   1.909   4.095   3.633
 3765TIP3    H111238   1.937   4.177   3.592
 3765TIP3    H211239   1.817   4.087   3.608
 3766TIP3   OH211240   1.560   7.046   6.641
 3766TIP3    H111241   1.577   7.136   6.614
 3766TIP3    H211242   1.590   6.992   6.568
 3767TIP3   OH211243   0.339   3.163   0.541
 3767TIP3    H111244   0.263   3.145   0.485
 3767TIP3    H211245   0.402   3.094   0.518
 3768TIP3   OH211246   6.489   0.500   5.132
 3768TIP3    H111247   6.573   0.545   5.137
 3768TIP3    H211248   6.502   0.419   5.182
 3769TIP3   OH211249   0.641   7.424   1.399
 3769TIP3    H111250   0.728   7.410   1.363
 3769TIP3    H211251   0.591   7.464   1.328
 3770TIP3   OH211252   0.862   6.744   0.829
 3770TIP3    H111253   0.853   6.829   0.785
 3770TIP3    H211254   0.783   6.737   0.883
 3771TIP3   OH211255   0.647   5.136   2.413
 3771TIP3    H111256   0.599   5.219   2.402
 3771TIP3    H211257   0.582   5.076   2.449
 3772TIP3   OH211258   2.366   3.263   5.678
 3772TIP3    H111259   2.462   3.268   5.680
 3772TIP3    H211260   2.346   3.182   5.725
 3773TIP3   OH211261   0.916   5.690   5.378
 3773TIP3    H111262   1.009   5.674   5.394
 3773TIP3    H211263   0.909   5.706   5.284
 3774TIP3   OH211264   1.544   1.555   2.350
 3774TIP3    H111265   1.572   1.646   2.342
 3774TIP3    H211266   1.448   1.559   2.343
 3775TIP3   OH211267   7.985   1.237   3.406
 3775TIP3    H111268   7.933   1.300   3.356
 3775TIP3    H211269   8.053   1.289   3.448
 3776TIP3   OH211270   2.380   0.753   0.321
 3776TIP3    H111271   2.294   0.734   0.360
 3776TIP3    H211272   2.426   0.804   0.388
 3777TIP3   OH211273   3.846   3.822   0.908
 3777TIP3    H111274   3.932   3.864   0.910
 3777TIP3    H211275   3.813   3.839   0.820
 3778TIP3   OH211276   3.686   6.193   0.515
 3778TIP3    H111277   3.666   6.104   0.485
 3778TIP3    H211278   3.603   6.228   0.544
 3779TIP3   OH211279   1.960   7.222   5.665
 3779TIP3    H111280   1.944   7.247   5.756
 3779TIP3    H211281   2.055   7.230   5.654
 3780TIP3   OH211282   5.472   1.915   6.564
 3780TIP3    H111283   5.548   1.911   6.622
 3780TIP3    H211284   5.510   1.915   6.476
 3781TIP3   OH211285   1.304   0.711   6.095
 3781TIP3    H111286   1.211   0.734   6.102
 3781TIP3    H211287   1.314   0.633   6.149
 3782TIP3   OH211288   4.784   0.647   3.785
 3782TIP3    H111289   4.760   0.697   3.707
 3782TIP3    H211290   4.860   0.596   3.757
 3783TIP3   OH211291   1.398   2.952   4.204
 3783TIP3    H111292   1.392   3.000   4.122
 3783TIP3    H211293   1.316   2.971   4.250
 3784TIP3   OH211294   6.173   4.104   6.171
 3784TIP3    H111295   6.247   4.162   6.185
 3784TIP3    H211296   6.201   4.045   6.101
 3785TIP3   OH211297   3.211   2.353   2.205
 3785TIP3    H111298   3.172   2.386   2.286
 3785TIP3    H211299   3.263   2.426   2.173
 3786TIP3   OH211300   1.845   1.836   4.456
 3786TIP3    H111301   1.793   1.913   4.479
 3786TIP3    H211302   1.936   1.864   4.469
 3787TIP3   OH211303   7.910   0.329   6.560
 3787TIP3    H111304   7.948   0.335   6.648
 3787TIP3    H211305   7.971   0.378   6.505
 3788TIP3   OH211306   6.703   1.617   6.381
 3788TIP3    H111307   6.645   1.576   6.445
 3788TIP3    H211308   6.723   1.546   6.320
 3789TIP3   OH211309   2.307   4.735   2.969
 3789TIP3    H111310   2.362   4.725   3.046
 3789TIP3    H211311   2.366   4.766   2.900
 3790TIP3   OH211312   2.313   7.621   6.521
 3790TIP3    H111313   2.231   7.591   6.482
 3790TIP3    H211314   2.379   7.559   6.489
 3791TIP3   OH211315   3.073   2.741   1.020
 3791TIP3    H111316   3.079   2.652   1.052
 3791TIP3    H211317   3.164   2.773   1.019
 3792TIP3   OH211318   3.310   4.438   3.772
 3792TIP3    H111319   3.281   4.445   3.681
 3792TIP3    H211320   3.401   4.468   3.770
 3793TIP3   OH211321   0.584   2.572   1.689
 3793TIP3    H111322   0.597   2.478   1.678
 3793TIP3    H211323   0.637   2.595   1.765
 3794TIP3   OH211324   0.829   0.672   6.433
 3794TIP3    H111325   0.840   0.609   6.505
 3794TIP3    H211326   0.759   0.730   6.463
 3795TIP3   OH211327   5.352   2.733   2.364
 3795TIP3    H111328   5.307   2.687   2.435
 3795TIP3    H211329   5.430   2.769   2.406
 3796TIP3   OH211330   6.064   5.023   1.812
 3796TIP3    H111331   6.030   4.944   1.770
 3796TIP3    H211332   6.051   5.092   1.747
 3797TIP3   OH211333   0.184   1.558   6.695
 3797TIP3    H111334   0.265   1.568   6.746
 3797TIP3    H211335   0.114   1.563   6.760
 3798TIP3   OH211336   4.333   5.230   2.668
 3798TIP3    H111337   4.243   5.242   2.641
 3798TIP3    H211338   4.374   5.183   2.595
 3799TIP3   OH211339   5.107   2.916   2.220
 3799TIP3    H111340   5.188   2.948   2.181
 3799TIP3    H211341   5.044   2.988   2.206
 3800TIP3   OH211342   4.916   5.667   2.255
 3800TIP3    H111343   4.996   5.643   2.301
 3800TIP3    H211344   4.940   5.741   2.199
 3801TIP3   OH211345   0.219   2.360   1.712
 3801TIP3    H111346   0.268   2.396   1.786
 3801TIP3    H211347   0.206   2.268   1.735
 3802TIP3   OH211348   1.052   5.597   0.041
 3802TIP3    H111349   0.995   5.558   0.107
 3802TIP3    H211350   1.133   5.619   0.087
 3803TIP3   OH211351   3.645   5.261   1.599
 3803TIP3    H111352   3.659   5.180   1.649
 3803TIP3    H211353   3.623   5.327   1.665
 3804TIP3   OH211354   3.825   7.274   0.581
 3804TIP3    H111355   3.863   7.193   0.615
 3804TIP3    H211356   3.850   7.275   0.489
 3805TIP3   OH211357   5.540   2.790   5.067
 3805TIP3    H111358   5.501   2.866   5.111
 3805TIP3    H211359   5.489   2.781   4.987
 3806TIP3   OH211360   5.154   2.249   0.348
 3806TIP3    H111361   5.209   2.295   0.285
 3806TIP3    H211362   5.194   2.162   0.355
 3807TIP3   OH211363   7.479   7.029   5.309
 3807TIP3    H111364   7.432   6.963   5.360
 3807TIP3    H211365   7.494   7.101   5.371
 3808TIP3   OH211366   3.670   6.038   3.207
 3808TIP3    H111367   3.576   6.025   3.195
 3808TIP3    H211368   3.683   6.132   3.192
 3809TIP3   OH211369   3.556   3.301   1.801
 3809TIP3    H111370   3.627   3.363   1.815
 3809TIP3    H211371   3.534   3.309   1.708
 3810TIP3   OH211372   3.145   2.592   3.650
 3810TIP3    H111373   3.158   2.498   3.659
 3810TIP3    H211374   3.230   2.630   3.673
 3811TIP3   OH211375   0.941   3.025   3.930
 3811TIP3    H111376   0.889   3.096   3.968
 3811TIP3    H211377   0.877   2.958   3.905
 3812TIP3   OH211378   6.356   5.122   0.554
 3812TIP3    H111379   6.319   5.176   0.484
 3812TIP3    H211380   6.280   5.091   0.603
 3813TIP3   OH211381   2.037   7.152   0.646
 3813TIP3    H111382   2.058   7.205   0.570
 3813TIP3    H211383   1.941   7.141   0.642
 3814TIP3   OH211384   0.444   1.751   4.770
 3814TIP3    H111385   0.398   1.772   4.689
 3814TIP3    H211386   0.375   1.725   4.831
 3815TIP3   OH211387   0.103   6.654   5.392
 3815TIP3    H111388   0.077   6.574   5.345
 3815TIP3    H211389   0.033   6.717   5.373
 3816TIP3   OH211390   3.203   0.853   1.333
 3816TIP3    H111391   3.264   0.835   1.262
 3816TIP3    H211392   3.117   0.852   1.291
 3817TIP3   OH211393   2.951   4.955   4.095
 3817TIP3    H111394   2.984   4.898   4.165
 3817TIP3    H211395   3.006   5.034   4.101
 3818TIP3   OH211396   6.687   7.728   1.254
 3818TIP3    H111397   6.625   7.712   1.326
 3818TIP3    H211398   6.637   7.781   1.191
 3819TIP3   OH211399   6.931   5.912   4.194
 3819TIP3    H111400   7.008   5.856   4.209
 3819TIP3    H211401   6.879   5.902   4.274
 3820TIP3   OH211402   6.914   2.952   5.449
 3820TIP3    H111403   6.836   2.963   5.505
 3820TIP3    H211404   6.987   2.978   5.505
 3821TIP3   OH211405   2.541   7.498   6.460
 3821TIP3    H111406   2.534   7.439   6.385
 3821TIP3    H211407   2.576   7.580   6.424
 3822TIP3   OH211408   4.719   2.327   3.986
 3822TIP3    H111409   4.681   2.414   3.976
 3822TIP3    H211410   4.697   2.282   3.904
 3823TIP3   OH211411   5.432   0.475   4.870
 3823TIP3    H111412   5.358   0.491   4.928
 3823TIP3    H211413   5.417   0.532   4.794
 3824TIP3   OH211414   8.014   2.876   2.918
 3824TIP3    H111415   8.084   2.821   2.882
 3824TIP3    H211416   8.044   2.965   2.904
 3825TIP3   OH211417   3.458   0.621   0.974
 3825TIP3    H111418   3.440   0.594   1.064
 3825TIP3    H211419   3.460   0.540   0.924
 3826TIP3   OH211420   0.168   1.439   3.614
 3826TIP3    H111421   0.176   1.534   3.610
 3826TIP3    H211422   0.232   1.412   3.680
 3827TIP3   OH211423   3.147   6.957   3.384
 3827TIP3    H111424   3.138   6.908   3.302
 3827TIP3    H211425   3.119   7.046   3.362
 3828TIP3   OH211426   1.111   5.994   6.683
 3828TIP3    H111427   1.101   6.046   6.603
 3828TIP3    H211428   1.206   5.993   6.699
 3829TIP3   OH211429   4.522   0.694   3.876
 3829TIP3    H111430   4.610   0.656   3.871
 3829TIP3    H211431   4.489   0.690   3.787
 3830TIP3   OH211432   2.739   0.757   5.832
 3830TIP3    H111433   2.713   0.829   5.890
 3830TIP3    H211434   2.805   0.796   5.774
 3831TIP3   OH211435   8.179   5.380   6.029
 3831TIP3    H111436   8.132   5.340   6.102
 3831TIP3    H211437   8.270   5.386   6.060
 3832TIP3   OH211438   6.049   1.266   0.956
 3832TIP3    H111439   6.045   1.187   1.009
 3832TIP3    H211440   6.143   1.281   0.942
 3833TIP3   OH211441   5.865   1.296   2.219
 3833TIP3    H111442   5.927   1.304   2.147
 3833TIP3    H211443   5.873   1.205   2.247
 3834TIP3   OH211444   7.618   5.063   0.063
 3834TIP3    H111445   7.645   5.128  -0.001
 3834TIP3    H211446   7.562   5.002   0.015
 3835TIP3   OH211447   3.100   1.727   3.094
 3835TIP3    H111448   3.189   1.761   3.085
 3835TIP3    H211449   3.093   1.660   3.025
 3836TIP3   OH211450   4.432   4.490   3.379
 3836TIP3    H111451   4.487   4.455   3.448
 3836TIP3    H211452   4.370   4.419   3.360
 3837TIP3   OH211453   0.782   2.814   3.899
 3837TIP3    H111454   0.798   2.720   3.913
 3837TIP3    H211455   0.794   2.827   3.805
 3838TIP3   OH211456   4.972   4.275   4.130
 3838TIP3    H111457   5.032   4.333   4.085
 3838TIP3    H211458   4.977   4.301   4.222
 3839TIP3   OH211459   6.740   7.446   4.443
 3839TIP3    H111460   6.711   7.515   4.503
 3839TIP3    H211461   6.802   7.395   4.495
 3840TIP3   OH211462   5.215   1.997   6.674
 3840TIP3    H111463   5.310   1.992   6.666
 3840TIP3    H211464   5.185   1.908   6.658
 3841TIP3   OH211465   0.488   2.798   5.434
 3841TIP3    H111466   0.570   2.782   5.481
 3841TIP3    H211467   0.435   2.721   5.451
 3842TIP3   OH211468   6.501   3.517   2.292
 3842TIP3    H111469   6.558   3.446   2.263
 3842TIP3    H211470   6.539   3.546   2.375
 3843TIP3   OH211471   4.992   1.781   1.145
 3843TIP3    H111472   5.007   1.819   1.059
 3843TIP3    H211473   5.019   1.689   1.135
 3844TIP3   OH211474   1.896   0.329   3.234
 3844TIP3    H111475   1.880   0.329   3.328
 3844TIP3    H211476   1.814   0.300   3.196
 3845TIP3   OH211477   7.241   5.930   1.246
 3845TIP3    H111478   7.193   5.998   1.293
 3845TIP3    H211479   7.238   5.958   1.154
 3846TIP3   OH211480   6.954   5.360   2.641
 3846TIP3    H111481   6.947   5.393   2.551
 3846TIP3    H211482   6.922   5.270   2.635
 3847TIP3   OH211483   8.060   3.948   0.818
 3847TIP3    H111484   7.990   3.913   0.871
 3847TIP3    H211485   8.070   3.885   0.746
 3848TIP3   OH211486   1.549   1.270   1.227
 3848TIP3    H111487   1.575   1.299   1.315
 3848TIP3    H211488   1.514   1.349   1.186
 3849TIP3   OH211489   6.834   0.918   3.196
 3849TIP3    H111490   6.745   0.882   3.192
 3849TIP3    H211491   6.864   0.896   3.285
 3850TIP3   OH211492   7.500   3.766   5.012
 3850TIP3    H111493   7.455   3.799   4.934
 3850TIP3    H211494   7.565   3.705   4.978
 3851TIP3   OH211495   4.873   1.626   3.704
 3851TIP3    H111496   4.870   1.718   3.675
 3851TIP3    H211497   4.825   1.626   3.787
 3852TIP3   OH211498   3.237   1.114   4.218
 3852TIP3    H111499   3.183   1.085   4.144
 3852TIP3    H211500   3.327   1.103   4.188
 3853TIP3   OH211501   2.424   0.511   5.271
 3853TIP3    H111502   2.372   0.537   5.196
 3853TIP3    H211503   2.422   0.415   5.270
 3854TIP3   OH211504   1.793   6.055   5.890
 3854TIP3    H111505   1.850   6.023   5.820
 3854TIP3    H211506   1.712   6.005   5.880
 3855TIP3   OH211507   0.277   0.647   1.119
 3855TIP3    H111508   0.256   0.726   1.068
 3855TIP3    H211509   0.367   0.626   1.095
 3856TIP3   OH211510   1.784   1.809   4.784
 3856TIP3    H111511   1.856   1.866   4.757
 3856TIP3    H211512   1.801   1.790   4.876
 3857TIP3   OH211513   3.860   0.446   4.669
 3857TIP3    H111514   3.825   0.527   4.633
 3857TIP3    H211515   3.785   0.387   4.674
 3858TIP3   OH211516   7.039   6.051   3.950
 3858TIP3    H111517   7.095   6.099   4.011
 3858TIP3    H211518   7.008   5.975   4.000
 3859TIP3   OH211519   1.729   3.392   2.953
 3859TIP3    H111520   1.732   3.354   3.041
 3859TIP3    H211521   1.651   3.355   2.913
 3860TIP3   OH211522   6.734   1.165   4.459
 3860TIP3    H111523   6.662   1.213   4.500
 3860TIP3    H211524   6.695   1.082   4.431
 3861TIP3   OH211525   6.764   4.427   1.897
 3861TIP3    H111526   6.697   4.495   1.892
 3861TIP3    H211527   6.722   4.350   1.859
 3862TIP3   OH211528   0.431   5.553   0.529
 3862TIP3    H111529   0.521   5.581   0.517
 3862TIP3    H211530   0.432   5.501   0.610
 3863TIP3   OH211531   2.432   6.430   6.405
 3863TIP3    H111532   2.413   6.372   6.331
 3863TIP3    H211533   2.482   6.375   6.465
 3864TIP3   OH211534   2.377   0.639   3.794
 3864TIP3    H111535   2.342   0.558   3.757
 3864TIP3    H211536   2.451   0.612   3.848
 3865TIP3   OH211537   2.240   3.792   3.427
 3865TIP3    H111538   2.294   3.734   3.373
 3865TIP3    H211539   2.195   3.848   3.365
 3866TIP3   OH211540   6.740   7.577   0.555
 3866TIP3    H111541   6.793   7.528   0.493
 3866TIP3    H211542   6.797   7.648   0.585
 3867TIP3   OH211543   3.359   1.303   1.852
 3867TIP3    H111544   3.399   1.389   1.838
 3867TIP3    H211545   3.271   1.323   1.885
 3868TIP3   OH211546   2.808   5.588   0.315
 3868TIP3    H111547   2.823   5.647   0.389
 3868TIP3    H211548   2.735   5.532   0.343
 3869TIP3   OH211549   7.324   3.880   6.271
 3869TIP3    H111550   7.296   3.936   6.344
 3869TIP3    H211551   7.251   3.883   6.209
 3870TIP3   OH211552   8.003   7.749   5.849
 3870TIP3    H111553   8.034   7.827   5.803
 3870TIP3    H211554   7.922   7.776   5.892
 3871TIP3   OH211555   3.023   0.285   4.992
 3871TIP3    H111556   2.930   0.263   4.991
 3871TIP3    H211557   3.040   0.324   4.905
 3872TIP3   OH211558   7.012   4.106   6.726
 3872TIP3    H111559   6.918   4.101   6.710
 3872TIP3    H211560   7.024   4.062   6.810
 3873TIP3   OH211561   7.393   2.140   6.585
 3873TIP3    H111562   7.315   2.111   6.633
 3873TIP3    H211563   7.397   2.234   6.602
 3874TIP3   OH211564   2.050   0.881   1.147
 3874TIP3    H111565   1.999   0.890   1.067
 3874TIP3    H211566   2.139   0.907   1.121
 3875TIP3   OH211567   3.497   1.432   2.604
 3875TIP3    H111568   3.549   1.428   2.684
 3875TIP3    H211569   3.558   1.461   2.536
 3876TIP3   OH211570   3.624   3.128   1.087
 3876TIP3    H111571   3.715   3.106   1.069
 3876TIP3    H211572   3.618   3.135   1.182
 3877TIP3   OH211573   4.820   3.052   2.561
 3877TIP3    H111574   4.909   3.035   2.531
 3877TIP3    H211575   4.782   2.966   2.576
 3878TIP3   OH211576   2.395   2.212   6.048
 3878TIP3    H111577   2.390   2.148   6.119
 3878TIP3    H211578   2.357   2.292   6.084
 3879TIP3   OH211579   3.504   5.196   2.611
 3879TIP3    H111580   3.492   5.147   2.692
 3879TIP3    H211581   3.542   5.132   2.550
 3880TIP3   OH211582   3.246   7.720   1.675
 3880TIP3    H111583   3.295   7.640   1.655
 3880TIP3    H211584   3.187   7.695   1.746
 3881TIP3   OH211585   7.683   3.243   1.491
 3881TIP3    H111586   7.591   3.261   1.510
 3881TIP3    H211587   7.690   3.148   1.493
 3882TIP3   OH211588   1.324   2.522   1.972
 3882TIP3    H111589   1.376   2.450   1.935
 3882TIP3    H211590   1.272   2.481   2.041
 3883TIP3   OH211591   1.043   1.964   4.651
 3883TIP3    H111592   1.046   1.952   4.556
 3883TIP3    H211593   1.063   2.057   4.665
 3884TIP3   OH211594   6.640   5.586   3.676
 3884TIP3    H111595   6.655   5.518   3.742
 3884TIP3    H211596   6.546   5.606   3.683
 3885TIP3   OH211597   3.573   1.158   4.519
 3885TIP3    H111598   3.640   1.102   4.481
 3885TIP3    H211599   3.614   1.245   4.523
 3886TIP3   OH211600   0.777   3.992   1.745
 3886TIP3    H111601   0.821   4.074   1.722
 3886TIP3    H211602   0.821   3.925   1.693
 3887TIP3   OH211603   3.553   0.036   3.387
 3887TIP3    H111604   3.460   0.025   3.407
 3887TIP3    H211605   3.556   0.044   3.292
 3888TIP3   OH211606   7.769   6.099   5.431
 3888TIP3    H111607   7.717   6.140   5.500
 3888TIP3    H211608   7.704   6.068   5.368
 3889TIP3   OH211609   2.461   5.023   6.279
 3889TIP3    H111610   2.515   5.103   6.276
 3889TIP3    H211611   2.521   4.953   6.253
 3890TIP3   OH211612   4.982   0.871   6.005
 3890TIP3    H111613   4.887   0.873   5.993
 3890TIP3    H211614   5.015   0.829   5.925
 3891TIP3   OH211615   6.643   2.350   0.939
 3891TIP3    H111616   6.698   2.332   0.863
 3891TIP3    H211617   6.560   2.380   0.903
 3892TIP3   OH211618   2.088   3.747   3.988
 3892TIP3    H111619   2.074   3.783   4.075
 3892TIP3    H211620   2.021   3.679   3.979
 3893TIP3   OH211621   4.910   2.088   0.305
 3893TIP3    H111622   4.937   1.997   0.289
 3893TIP3    H211623   4.984   2.140   0.275
 3894TIP3   OH211624   7.329   6.101   5.871
 3894TIP3    H111625   7.374   6.165   5.927
 3894TIP3    H211626   7.305   6.151   5.793
 3895TIP3   OH211627   2.929   2.234   1.084
 3895TIP3    H111628   2.912   2.151   1.040
 3895TIP3    H211629   2.989   2.212   1.155
 3896TIP3   OH211630   3.658   7.707   5.799
 3896TIP3    H111631   3.733   7.735   5.852
 3896TIP3    H211632   3.626   7.787   5.758
 3897TIP3   OH211633   4.436   4.592   4.813
 3897TIP3    H111634   4.524   4.610   4.779
 3897TIP3    H211635   4.429   4.496   4.808
 3898TIP3   OH211636   6.768   1.530   0.971
 3898TIP3    H111637   6.763   1.620   0.940
 3898TIP3    H211638   6.824   1.534   1.049
 3899TIP3   OH211639   5.055   6.060   3.882
 3899TIP3    H111640   4.986   6.021   3.829
 3899TIP3    H211641   5.135   6.017   3.851
 3900TIP3   OH211642   0.606   6.271   0.453
 3900TIP3    H111643   0.520   6.279   0.493
 3900TIP3    H211644   0.608   6.339   0.386
 3901TIP3   OH211645   7.450   3.288   4.433
 3901TIP3    H111646   7.383   3.335   4.483
 3901TIP3    H211647   7.501   3.242   4.499
 3902TIP3   OH211648   2.237   5.514   2.103
 3902TIP3    H111649   2.305   5.519   2.036
 3902TIP3    H211650   2.253   5.430   2.147
 3903TIP3   OH211651   0.266   3.802   5.972
 3903TIP3    H111652   0.171   3.810   5.966
 3903TIP3    H211653   0.280   3.728   6.031
 3904TIP3   OH211654   7.997   6.679   6.611
 3904TIP3    H111655   7.908   6.678   6.645
 3904TIP3    H211656   7.986   6.673   6.516
 3905TIP3   OH211657   3.787   4.170   2.908
 3905TIP3    H111658   3.753   4.088   2.871
 3905TIP3    H211659   3.759   4.167   3.000
 3906TIP3   OH211660   0.537   5.047   0.031
 3906TIP3    H111661   0.584   4.967   0.053
 3906TIP3    H211662   0.461   5.046   0.089
 3907TIP3   OH211663   4.737   0.771   3.552
 3907TIP3    H111664   4.666   0.732   3.501
 3907TIP3    H211665   4.705   0.858   3.576
 3908TIP3   OH211666   3.529   7.554   4.084
 3908TIP3    H111667   3.588   7.491   4.042
 3908TIP3    H211668   3.520   7.521   4.174
 3909TIP3   OH211669   2.360   6.047   4.522
 3909TIP3    H111670   2.372   6.137   4.492
 3909TIP3    H211671   2.436   6.030   4.577
 3910TIP3   OH211672   5.136   5.809   2.776
 3910TIP3    H111673   5.051   5.852   2.782
 3910TIP3    H211674   5.181   5.856   2.705
 3911TIP3   OH211675   3.833   2.514   1.561
 3911TIP3    H111676   3.817   2.562   1.480
 3911TIP3    H211677   3.746   2.489   1.592
 3912TIP3   OH211678   3.979   5.164   3.817
 3912TIP3    H111679   3.955   5.186   3.726
 3912TIP3    H211680   3.987   5.249   3.860
 3913TIP3   OH211681   7.772   0.835   2.146
 3913TIP3    H111682   7.811   0.748   2.154
 3913TIP3    H211683   7.803   0.867   2.061
 3914TIP3   OH211684   0.982   7.480   3.311
 3914TIP3    H111685   1.001   7.390   3.286
 3914TIP3    H211686   1.054   7.531   3.274
 3915TIP3   OH211687   1.826   2.467   6.646
 3915TIP3    H111688   1.873   2.403   6.699
 3915TIP3    H211689   1.848   2.551   6.686
 3916TIP3   OH211690   3.335   2.602   2.138
 3916TIP3    H111691   3.394   2.670   2.105
 3916TIP3    H211692   3.276   2.584   2.065
 3917TIP3   OH211693   1.414   2.564   1.431
 3917TIP3    H111694   1.388   2.641   1.482
 3917TIP3    H211695   1.479   2.520   1.486
 3918TIP3   OH211696   5.737   5.272   0.088
 3918TIP3    H111697   5.671   5.340   0.101
 3918TIP3    H211698   5.698   5.193   0.125
 3919TIP3   OH211699   3.661   4.320   3.997
 3919TIP3    H111700   3.750   4.287   4.011
 3919TIP3    H211701   3.610   4.243   3.974
 3920TIP3   OH211702   5.426   1.379   0.239
 3920TIP3    H111703   5.408   1.434   0.163
 3920TIP3    H211704   5.448   1.440   0.309
 3921TIP3   OH211705   2.594   4.377   4.096
 3921TIP3    H111706   2.679   4.344   4.127
 3921TIP3    H211707   2.603   4.472   4.102
 3922TIP3   OH211708   5.511   3.057   0.309
 3922TIP3    H111709   5.456   3.035   0.234
 3922TIP3    H211710   5.525   2.973   0.353
 3923TIP3   OH211711   7.546   7.685   0.895
 3923TIP3    H111712   7.507   7.607   0.855
 3923TIP3    H211713   7.566   7.659   0.984
 3924TIP3   OH211714   4.938   6.112   3.437
 3924TIP3    H111715   4.887   6.105   3.356
 3924TIP3    H211716   5.029   6.121   3.408
 3925TIP3   OH211717   2.692   7.408   5.809
 3925TIP3    H111718   2.757   7.478   5.811
 3925TIP3    H211719   2.702   7.369   5.722
 3926TIP3   OH211720   2.542   7.047   3.279
 3926TIP3    H111721   2.493   7.078   3.355
 3926TIP3    H211722   2.477   7.005   3.223
 3927TIP3   OH211723   6.653   3.859   3.115
 3927TIP3    H111724   6.706   3.899   3.184
 3927TIP3    H211725   6.569   3.840   3.158
 3928TIP3   OH211726   0.308   7.035   1.925
 3928TIP3    H111727   0.346   7.068   1.843
 3928TIP3    H211728   0.233   7.093   1.941
 3929TIP3   OH211729   2.860   0.213   4.636
 3929TIP3    H111730   2.798   0.146   4.665
 3929TIP3    H211731   2.809   0.269   4.577
 3930TIP3   OH211732   1.958   3.177   5.584
 3930TIP3    H111733   2.010   3.098   5.597
 3930TIP3    H211734   1.870   3.145   5.564
 3931TIP3   OH211735   4.690   3.878   6.254
 3931TIP3    H111736   4.661   3.956   6.302
 3931TIP3    H211737   4.635   3.876   6.176
 3932TIP3   OH211738   7.853   7.195   6.096
 3932TIP3    H111739   7.809   7.204   6.011
 3932TIP3    H211740   7.826   7.273   6.145
 3933TIP3   OH211741   4.749   4.638   5.394
 3933TIP3    H111742   4.718   4.672   5.310
 3933TIP3    H211743   4.692   4.564   5.413
 3934TIP3   OH211744   2.251   3.455   0.528
 3934TIP3    H111745   2.239   3.432   0.436
 3934TIP3    H211746   2.218   3.379   0.576
 3935TIP3   OH211747   1.955   6.212   1.307
 3935TIP3    H111748   1.902   6.155   1.250
 3935TIP3    H211749   1.891   6.270   1.348
 3936TIP3   OH211750   1.517   5.861   0.527
 3936TIP3    H111751   1.436   5.911   0.538
 3936TIP3    H211752   1.521   5.805   0.604
 3937TIP3   OH211753   4.481   5.177   4.992
 3937TIP3    H111754   4.511   5.249   5.046
 3937TIP3    H211755   4.469   5.104   5.054
 3938TIP3   OH211756   3.579   3.007   4.426
 3938TIP3    H111757   3.626   3.066   4.367
 3938TIP3    H211758   3.503   2.978   4.375
 3939TIP3   OH211759   0.804   6.573   0.055
 3939TIP3    H111760   0.800   6.666   0.076
 3939TIP3    H211761   0.786   6.568  -0.039
 3940TIP3   OH211762   2.746   4.469   3.749
 3940TIP3    H111763   2.808   4.474   3.676
 3940TIP3    H211764   2.702   4.554   3.749
 3941TIP3   OH211765   5.805   6.227   5.877
 3941TIP3    H111766   5.742   6.220   5.949
 3941TIP3    H211767   5.791   6.315   5.842
 3942TIP3   OH211768   7.809   2.816   3.985
 3942TIP3    H111769   7.812   2.834   4.079
 3942TIP3    H211770   7.776   2.726   3.979
 3943TIP3   OH211771   0.081   6.852   4.868
 3943TIP3    H111772   0.009   6.913   4.852
 3943TIP3    H211773   0.052   6.800   4.942
 3944TIP3   OH211774   3.586   6.298   2.229
 3944TIP3    H111775   3.576   6.365   2.161
 3944TIP3    H211776   3.667   6.253   2.207
 3945TIP3   OH211777   2.698   2.116   3.700
 3945TIP3    H111778   2.655   2.031   3.697
 3945TIP3    H211779   2.742   2.117   3.785
 3946TIP3   OH211780   8.076   6.607   0.110
 3946TIP3    H111781   8.100   6.554   0.187
 3946TIP3    H211782   8.049   6.542   0.044
 3947TIP3   OH211783   3.909   5.697   6.508
 3947TIP3    H111784   3.944   5.780   6.541
 3947TIP3    H211785   3.870   5.720   6.423
 3948TIP3   OH211786   7.071   2.551   4.489
 3948TIP3    H111787   7.136   2.618   4.470
 3948TIP3    H211788   6.996   2.599   4.524
 3949TIP3   OH211789   0.321   7.130   2.878
 3949TIP3    H111790   0.414   7.138   2.858
 3949TIP3    H211791   0.278   7.140   2.793
 3950TIP3   OH211792   1.349   7.375   3.933
 3950TIP3    H111793   1.314   7.286   3.930
 3950TIP3    H211794   1.365   7.391   4.026
 3951TIP3   OH211795   0.995   3.460   2.613
 3951TIP3    H111796   1.001   3.545   2.657
 3951TIP3    H211797   0.917   3.419   2.651
 3952TIP3   OH211798   1.195   6.205   3.521
 3952TIP3    H111799   1.191   6.155   3.440
 3952TIP3    H211800   1.120   6.174   3.572
 3953TIP3   OH211801   4.790   2.550   1.551
 3953TIP3    H111802   4.701   2.515   1.559
 3953TIP3    H211803   4.834   2.524   1.632
 3954TIP3   OH211804   3.081   1.977   1.177
 3954TIP3    H111805   3.141   1.910   1.210
 3954TIP3    H211806   3.126   2.060   1.194
 3955TIP3   OH211807   8.052   5.269   5.145
 3955TIP3    H111808   8.142   5.242   5.159
 3955TIP3    H211809   8.004   5.236   5.221
 3956TIP3   OH211810   2.347   3.051   6.466
 3956TIP3    H111811   2.267   3.077   6.420
 3956TIP3    H211812   2.386   3.133   6.495
 3957TIP3   OH211813   4.933   4.026   2.251
 3957TIP3    H111814   4.984   4.099   2.286
 3957TIP3    H211815   4.865   4.010   2.317
 3958TIP3   OH211816   4.105   2.136   4.863
 3958TIP3    H111817   4.159   2.155   4.787
 3958TIP3    H211818   4.161   2.081   4.919
 3959TIP3   OH211819   3.479   5.925   5.054
 3959TIP3    H111820   3.496   5.833   5.072
 3959TIP3    H211821   3.493   5.935   4.960
 3960TIP3   OH211822   7.299   3.559   6.338
 3960TIP3    H111823   7.248   3.557   6.257
 3960TIP3    H211824   7.301   3.651   6.362
 3961TIP3   OH211825   4.309   2.893   6.760
 3961TIP3    H111826   4.244   2.964   6.765
 3961TIP3    H211827   4.257   2.814   6.743
 3962TIP3   OH211828   2.518   1.232   2.419
 3962TIP3    H111829   2.425   1.244   2.398
 3962TIP3    H211830   2.559   1.212   2.334
 3963TIP3   OH211831   7.780   2.304   5.523
 3963TIP3    H111832   7.794   2.300   5.617
 3963TIP3    H211833   7.778   2.212   5.495
 3964TIP3   OH211834   6.365   7.192   6.641
 3964TIP3    H111835   6.414   7.138   6.579
 3964TIP3    H211836   6.392   7.161   6.727
 3965TIP3   OH211837   2.233   4.089   2.253
 3965TIP3    H111838   2.322   4.066   2.280
 3965TIP3    H211839   2.186   4.105   2.336
 3966TIP3   OH211840   3.835   6.860   1.066
 3966TIP3    H111841   3.803   6.773   1.042
 3966TIP3    H211842   3.840   6.858   1.162
 3967TIP3   OH211843   7.552   5.871   2.381
 3967TIP3    H111844   7.566   5.876   2.476
 3967TIP3    H211845   7.461   5.895   2.369
 3968TIP3   OH211846   3.724   0.694   6.033
 3968TIP3    H111847   3.806   0.673   6.077
 3968TIP3    H211848   3.678   0.753   6.093
 3969TIP3   OH211849   2.292   3.306   4.500
 3969TIP3    H111850   2.321   3.318   4.409
 3969TIP3    H211851   2.226   3.374   4.513
 3970TIP3   OH211852   4.404   2.694   5.160
 3970TIP3    H111853   4.487   2.651   5.182
 3970TIP3    H211854   4.401   2.691   5.064
 3971TIP3   OH211855   5.611   6.199   1.987
 3971TIP3    H111856   5.522   6.227   1.970
 3971TIP3    H211857   5.608   6.103   1.978
 3972TIP3   OH211858   7.870   1.682   2.937
 3972TIP3    H111859   7.934   1.742   2.898
 3972TIP3    H211860   7.787   1.706   2.896
 3973TIP3   OH211861   0.199   2.972   1.455
 3973TIP3    H111862   0.290   2.968   1.486
 3973TIP3    H211863   0.205   3.015   1.370
 3974TIP3   OH211864   3.105   7.484   2.062
 3974TIP3    H111865   3.194   7.511   2.084
 3974TIP3    H211866   3.116   7.414   1.998
 3975TIP3   OH211867   4.844   2.408   4.597
 3975TIP3    H111868   4.762   2.421   4.549
 3975TIP3    H211869   4.862   2.494   4.635
 3976TIP3   OH211870   3.651   1.462   6.595
 3976TIP3    H111871   3.735   1.499   6.568
 3976TIP3    H211872   3.632   1.395   6.529
 3977TIP3   OH211873   7.744   5.251   0.897
 3977TIP3    H111874   7.649   5.251   0.883
 3977TIP3    H211875   7.756   5.212   0.983
 3978TIP3   OH211876   8.021   5.465   5.416
 3978TIP3    H111877   7.960   5.391   5.422
 3978TIP3    H211878   8.095   5.439   5.471
 3979TIP3   OH211879   5.870   5.853   0.709
 3979TIP3    H111880   5.909   5.833   0.794
 3979TIP3    H211881   5.799   5.914   0.729
 3980TIP3   OH211882   3.316   0.169   5.080
 3980TIP3    H111883   3.256   0.179   5.154
 3980TIP3    H211884   3.394   0.219   5.105
 3981TIP3   OH211885   2.946   7.674   3.459
 3981TIP3    H111886   2.863   7.692   3.414
 3981TIP3    H211887   3.013   7.684   3.391
 3982TIP3   OH211888   1.316   0.077   3.737
 3982TIP3    H111889   1.260   0.046   3.666
 3982TIP3    H211890   1.371   0.002   3.758
 3983TIP3   OH211891   1.714   3.597   2.373
 3983TIP3    H111892   1.678   3.674   2.329
 3983TIP3    H211893   1.702   3.525   2.311
 3984TIP3   OH211894   8.286   1.306   5.103
 3984TIP3    H111895   8.191   1.296   5.109
 3984TIP3    H211896   8.316   1.304   5.194
 3985TIP3   OH211897   2.753   4.688   5.897
 3985TIP3    H111898   2.753   4.594   5.879
 3985TIP3    H211899   2.814   4.725   5.833
 3986TIP3   OH211900   3.133   2.414   0.709
 3986TIP3    H111901   3.149   2.505   0.733
 3986TIP3    H211902   3.183   2.363   0.772
 3987TIP3   OH211903   1.960   2.513   4.785
 3987TIP3    H111904   1.961   2.554   4.698
 3987TIP3    H211905   1.871   2.529   4.817
 3988TIP3   OH211906   3.752   4.692   2.582
 3988TIP3    H111907   3.707   4.751   2.642
 3988TIP3    H211908   3.843   4.720   2.585
 3989TIP3   OH211909   1.606   4.127   4.673
 3989TIP3    H111910   1.570   4.062   4.612
 3989TIP3    H211911   1.689   4.153   4.634
 3990TIP3   OH211912   0.607   1.554   6.555
 3990TIP3    H111913   0.631   1.487   6.491
 3990TIP3    H211914   0.518   1.579   6.531
 3991TIP3   OH211915   0.994   6.685   2.007
 3991TIP3    H111916   1.087   6.704   2.012
 3991TIP3    H211917   0.951   6.770   2.001
 3992TIP3   OH211918   2.486   0.247   5.336
 3992TIP3    H111919   2.580   0.251   5.353
 3992TIP3    H211920   2.478   0.186   5.263
 3993TIP3   OH211921   2.742   6.767   2.724
 3993TIP3    H111922   2.807   6.823   2.683
 3993TIP3    H211923   2.688   6.735   2.652
 3994TIP3   OH211924   7.777   2.871   5.998
 3994TIP3    H111925   7.768   2.872   6.094
 3994TIP3    H211926   7.729   2.793   5.971
 3995TIP3   OH211927   6.576   3.899   0.192
 3995TIP3    H111928   6.489   3.887   0.154
 3995TIP3    H211929   6.636   3.858   0.129
 3996TIP3   OH211930   5.769   3.604   0.670
 3996TIP3    H111931   5.804   3.693   0.677
 3996TIP3    H211932   5.835   3.556   0.620
 3997TIP3   OH211933   4.946   5.089   5.871
 3997TIP3    H111934   4.950   5.116   5.779
 3997TIP3    H211935   4.905   5.163   5.916
 3998TIP3   OH211936   4.628   5.146   6.410
 3998TIP3    H111937   4.630   5.058   6.373
 3998TIP3    H211938   4.716   5.180   6.396
 3999TIP3   OH211939   3.089   3.335   2.225
 3999TIP3    H111940   3.091   3.339   2.129
 3999TIP3    H211941   3.166   3.283   2.248
 4000TIP3   OH211942   7.241   0.219   2.654
 4000TIP3    H111943   7.300   0.276   2.605
 4000TIP3    H211944   7.201   0.276   2.719
 4001TIP3   OH211945   6.375   0.467   6.151
 4001TIP3    H111946   6.443   0.400   6.152
 4001TIP3    H211947   6.389   0.515   6.069
 4002TIP3   OH211948   7.416   4.397   4.013
 4002TIP3    H111949   7.336   4.352   3.987
 4002TIP3    H211950   7.387   4.460   4.079
 4003TIP3   OH211951   7.426   0.215   5.834
 4003TIP3    H111952   7.371   0.175   5.768
 4003TIP3    H211953   7.386   0.191   5.918
 4004TIP3   OH211954   1.047   4.513   4.477
 4004TIP3    H111955   1.022   4.580   4.540
 4004TIP3    H211956   1.131   4.479   4.509
 4005TIP3   OH211957   6.452   1.000   1.472
 4005TIP3    H111958   6.400   0.922   1.490
 4005TIP3    H211959   6.509   1.009   1.548
 4006TIP3   OH211960   0.531   2.966   0.437
 4006TIP3    H111961   0.573   3.025   0.373
 4006TIP3    H211962   0.506   2.889   0.386
 4007TIP3   OH211963   5.295   2.999   1.484
 4007TIP3    H111964   5.294   2.915   1.530
 4007TIP3    H211965   5.307   2.976   1.392
 4008TIP3   OH211966   1.330   3.517   2.178
 4008TIP3    H111967   1.307   3.534   2.087
 4008TIP3    H211968   1.247   3.501   2.222
 4009TIP3   OH211969   4.366   7.223   2.169
 4009TIP3    H111970   4.346   7.292   2.232
 4009TIP3    H211971   4.293   7.225   2.108
 4010TIP3   OH211972   7.097   3.635   2.623
 4010TIP3    H111973   7.191   3.618   2.618
 4010TIP3    H211974   7.089   3.729   2.606
 4011TIP3   OH211975   5.812   2.188   2.947
 4011TIP3    H111976   5.764   2.106   2.943
 4011TIP3    H211977   5.888   2.169   3.002
 4012TIP3   OH211978   0.332   0.384   6.080
 4012TIP3    H111979   0.416   0.354   6.115
 4012TIP3    H211980   0.266   0.341   6.134
 4013TIP3   OH211981   0.553   7.621   1.244
 4013TIP3    H111982   0.596   7.659   1.320
 4013TIP3    H211983   0.560   7.687   1.176
 4014TIP3   OH211984   0.993   2.590   4.640
 4014TIP3    H111985   1.072   2.646   4.637
 4014TIP3    H211986   1.019   2.510   4.596
 4015TIP3   OH211987   0.093   2.913   5.321
 4015TIP3    H111988   0.100   2.906   5.416
 4015TIP3    H211989   0.008   2.872   5.300
 4016TIP3   OH211990   5.113   1.262   3.737
 4016TIP3    H111991   5.114   1.167   3.751
 4016TIP3    H211992   5.063   1.274   3.657
 4017TIP3   OH211993   4.303   2.869   5.620
 4017TIP3    H111994   4.279   2.827   5.537
 4017TIP3    H211995   4.388   2.909   5.603
 4018TIP3   OH211996   0.813   1.672   4.416
 4018TIP3    H111997   0.735   1.672   4.361
 4018TIP3    H211998   0.782   1.644   4.502
 4019TIP3   OH211999   1.519   4.256   0.986
 4019TIP3    H112000   1.610   4.284   0.972
 4019TIP3    H212001   1.467   4.320   0.937
 4020TIP3   OH212002   7.869   7.687   3.527
 4020TIP3    H112003   7.813   7.632   3.581
 4020TIP3    H212004   7.884   7.636   3.448
 4021TIP3   OH212005   6.341   4.513   4.416
 4021TIP3    H112006   6.274   4.499   4.349
 4021TIP3    H212007   6.365   4.605   4.408
 4022TIP3   OH212008   0.898   4.913   5.834
 4022TIP3    H112009   0.938   4.991   5.872
 4022TIP3    H212010   0.826   4.891   5.894
 4023TIP3   OH212011   5.529   7.556   5.566
 4023TIP3    H112012   5.437   7.531   5.562
 4023TIP3    H212013   5.572   7.483   5.611
 4024TIP3   OH212014   8.175   6.329   0.126
 4024TIP3    H112015   8.126   6.311   0.046
 4024TIP3    H212016   8.133   6.276   0.193
 4025TIP3   OH212017   5.504   3.345   4.328
 4025TIP3    H112018   5.429   3.377   4.278
 4025TIP3    H212019   5.568   3.416   4.323
 4026TIP3   OH212020   7.724   5.214   1.702
 4026TIP3    H112021   7.819   5.220   1.707
 4026TIP3    H212022   7.697   5.295   1.659
 4027TIP3   OH212023   4.586   2.422   2.584
 4027TIP3    H112024   4.666   2.470   2.607
 4027TIP3    H212025   4.617   2.342   2.542
 4028TIP3   OH212026   4.676   6.452   4.879
 4028TIP3    H112027   4.717   6.490   4.801
 4028TIP3    H212028   4.659   6.526   4.936
 4029TIP3   OH212029   1.523   0.375   4.027
 4029TIP3    H112030   1.434   0.398   4.001
 4029TIP3    H212031   1.576   0.450   4.001
 4030TIP3   OH212032   2.768   5.177   2.775
 4030TIP3    H112033   2.729   5.242   2.716
 4030TIP3    H212034   2.807   5.230   2.845
 4031TIP3   OH212035   5.531   2.828   1.562
 4031TIP3    H112036   5.444   2.789   1.560
 4031TIP3    H212037   5.584   2.768   1.613
 4032TIP3   OH212038   3.954   2.444   2.290
 4032TIP3    H112039   3.914   2.530   2.303
 4032TIP3    H212040   4.001   2.427   2.372
 4033TIP3   OH212041   6.844   0.590   2.223
 4033TIP3    H112042   6.773   0.591   2.159
 4033TIP3    H212043   6.828   0.512   2.276
 4034TIP3   OH212044   0.930   0.132   2.772
 4034TIP3    H112045   0.875   0.057   2.795
 4034TIP3    H212046   0.869   0.202   2.754
 4035TIP3   OH212047   3.230   4.498   3.519
 4035TIP3    H112048   3.234   4.593   3.510
 4035TIP3    H212049   3.258   4.464   3.434
 4036TIP3   OH212050   7.787   1.727   2.501
 4036TIP3    H112051   7.772   1.739   2.595
 4036TIP3    H212052   7.699   1.730   2.463
 4037TIP3   OH212053   0.160   1.873   1.955
 4037TIP3    H112054   0.208   1.819   1.893
 4037TIP3    H212055   0.069   1.868   1.927
 4038TIP3   OH212056   3.826   4.697   1.751
 4038TIP3    H112057   3.757   4.696   1.818
 4038TIP3    H212058   3.904   4.662   1.796
 4039TIP3   OH212059   4.847   6.844   1.432
 4039TIP3    H112060   4.892   6.817   1.352
 4039TIP3    H212061   4.903   6.912   1.469
 4040TIP3   OH212062   4.604   6.811   4.329
 4040TIP3    H112063   4.633   6.726   4.363
 4040TIP3    H212064   4.596   6.866   4.407
 4041TIP3   OH212065   3.274   5.311   1.262
 4041TIP3    H112066   3.265   5.274   1.174
 4041TIP3    H212067   3.297   5.236   1.317
 4042TIP3   OH212068   0.891   3.547   0.765
 4042TIP3    H112069   0.949   3.598   0.708
 4042TIP3    H212070   0.864   3.608   0.834
 4043TIP3   OH212071   1.113   6.134   4.843
 4043TIP3    H112072   1.160   6.163   4.922
 4043TIP3    H212073   1.153   6.183   4.772
 4044TIP3   OH212074   6.576   6.897   4.635
 4044TIP3    H112075   6.640   6.900   4.564
 4044TIP3    H212076   6.611   6.834   4.697
 4045TIP3   OH212077   7.856   2.508   4.735
 4045TIP3    H112078   7.932   2.559   4.762
 4045TIP3    H212079   7.886   2.457   4.659
 4046TIP3   OH212080   2.399   5.785   0.594
 4046TIP3    H112081   2.481   5.790   0.644
 4046TIP3    H212082   2.415   5.842   0.518
 4047TIP3   OH212083   3.075   0.504   4.492
 4047TIP3    H112084   3.007   0.571   4.485
 4047TIP3    H212085   3.157   0.553   4.498
 4048TIP3   OH212086   6.202   6.883   0.319
 4048TIP3    H112087   6.159   6.919   0.241
 4048TIP3    H212088   6.222   6.792   0.296
 4049TIP3   OH212089   0.196   6.438   3.926
 4049TIP3    H112090   0.272   6.402   3.881
 4049TIP3    H212091   0.184   6.381   4.002
 4050TIP3   OH212092   6.569   0.101   1.595
 4050TIP3    H112093   6.520   0.019   1.595
 4050TIP3    H212094   6.626   0.095   1.518
 4051TIP3   OH212095   4.073   1.337   0.741
 4051TIP3    H112096   4.129   1.263   0.762
 4051TIP3    H212097   3.991   1.319   0.788
 4052TIP3   OH212098   7.481   7.565   1.304
 4052TIP3    H112099   7.512   7.482   1.270
 4052TIP3    H212100   7.545   7.629   1.274
 4053TIP3   OH212101   5.668   7.780   6.244
 4053TIP3    H112102   5.592   7.724   6.261
 4053TIP3    H212103   5.742   7.734   6.283
 4054TIP3   OH212104   6.117   7.287   4.077
 4054TIP3    H112105   6.052   7.328   4.020
 4054TIP3    H212106   6.189   7.264   4.018
 4055TIP3   OH212107   7.837   2.898   2.498
 4055TIP3    H112108   7.827   2.964   2.429
 4055TIP3    H212109   7.886   2.942   2.567
 4056TIP3   OH212110   5.368   0.202   1.387
 4056TIP3    H112111   5.442   0.216   1.327
 4056TIP3    H212112   5.319   0.284   1.383
 4057TIP3   OH212113   6.268   5.053   2.389
 4057TIP3    H112114   6.232   5.003   2.317
 4057TIP3    H212115   6.326   5.117   2.347
 4058TIP3   OH212116   6.696   6.820   5.545
 4058TIP3    H112117   6.722   6.893   5.489
 4058TIP3    H212118   6.722   6.847   5.633
 4059TIP3   OH212119   7.925   3.499   5.238
 4059TIP3    H112120   7.915   3.591   5.213
 4059TIP3    H212121   7.860   3.453   5.185
 4060TIP3   OH212122   1.598   3.275   5.167
 4060TIP3    H112123   1.548   3.213   5.221
 4060TIP3    H212124   1.641   3.221   5.102
 4061TIP3   OH212125   1.312   2.998   3.646
 4061TIP3    H112126   1.302   2.995   3.741
 4061TIP3    H212127   1.397   3.038   3.632
 4062TIP3   OH212128   4.281   0.991   3.139
 4062TIP3    H112129   4.215   1.061   3.148
 4062TIP3    H212130   4.258   0.929   3.208
 4063TIP3   OH212131   7.720   2.282   6.627
 4063TIP3    H112132   7.672   2.288   6.710
 4063TIP3    H212133   7.801   2.332   6.643
 4064TIP3   OH212134   4.975   0.610   3.548
 4064TIP3    H112135   5.036   0.662   3.600
 4064TIP3    H212136   4.905   0.671   3.525
 4065TIP3   OH212137   2.172   0.072   5.218
 4065TIP3    H112138   2.247   0.083   5.160
 4065TIP3    H212139   2.128  -0.007   5.186
 4066TIP3   OH212140   1.063   0.730   3.584
 4066TIP3    H112141   1.146   0.716   3.540
 4066TIP3    H212142   1.085   0.786   3.658
 4067TIP3   OH212143   3.913   0.133   4.766
 4067TIP3    H112144   3.933   0.226   4.755
 4067TIP3    H212145   3.996   0.088   4.750
 4068TIP3   OH212146   1.169   5.817   0.773
 4068TIP3    H112147   1.155   5.817   0.679
 4068TIP3    H212148   1.104   5.878   0.808
 4069TIP3   OH212149   1.433   3.433   4.639
 4069TIP3    H112150   1.497   3.368   4.669
 4069TIP3    H212151   1.483   3.495   4.587
 4070TIP3   OH212152   0.472   1.847   0.635
 4070TIP3    H112153   0.538   1.886   0.577
 4070TIP3    H212154   0.470   1.905   0.711
 4071TIP3   OH212155   6.069   0.244   3.241
 4071TIP3    H112156   6.023   0.253   3.324
 4071TIP3    H212157   6.062   0.330   3.200
 4072TIP3   OH212158   4.684   7.212   3.289
 4072TIP3    H112159   4.684   7.274   3.217
 4072TIP3    H212160   4.726   7.258   3.361
 4073TIP3   OH212161   0.266   6.615   2.585
 4073TIP3    H112162   0.361   6.611   2.590
 4073TIP3    H212163   0.248   6.662   2.504
 4074TIP3   OH212164   5.276   5.486   2.406
 4074TIP3    H112165   5.364   5.515   2.428
 4074TIP3    H212166   5.219   5.559   2.431
 4075TIP3   OH212167   1.772   4.648   2.969
 4075TIP3    H112168   1.845   4.707   2.951
 4075TIP3    H212169   1.767   4.591   2.892
 4076TIP3   OH212170   6.948   4.614   6.100
 4076TIP3    H112171   6.858   4.587   6.083
 4076TIP3    H212172   7.001   4.542   6.067
 4077TIP3   OH212173   7.079   2.263   2.460
 4077TIP3    H112174   7.167   2.297   2.471
 4077TIP3    H212175   7.022   2.340   2.465
 4078TIP3   OH212176   7.490   4.015   6.592
 4078TIP3    H112177   7.514   4.102   6.625
 4078TIP3    H212178   7.394   4.019   6.582
 4079TIP3   OH212179   2.315   2.734   1.703
 4079TIP3    H112180   2.406   2.746   1.731
 4079TIP3    H212181   2.276   2.681   1.772
 4080TIP3   OH212182   7.899   2.554   2.077
 4080TIP3    H112183   7.910   2.467   2.038
 4080TIP3    H212184   7.973   2.562   2.137
 4081TIP3   OH212185   3.021   4.457   3.148
 4081TIP3    H112186   2.946   4.424   3.098
 4081TIP3    H212187   2.983   4.493   3.228
 4082TIP3   OH212188   5.107   5.632   6.437
 4082TIP3    H112189   5.049   5.685   6.381
 4082TIP3    H212190   5.183   5.688   6.453
 4083TIP3   OH212191   0.642   5.375   5.200
 4083TIP3    H112192   0.686   5.340   5.277
 4083TIP3    H212193   0.652   5.307   5.133
 4084TIP3   OH212194   5.002   4.538   0.303
 4084TIP3    H112195   5.022   4.531   0.209
 4084TIP3    H212196   5.051   4.615   0.333
 4085TIP3   OH212197   4.141   6.104   4.920
 4085TIP3    H112198   4.231   6.132   4.906
 4085TIP3    H212199   4.137   6.015   4.884
 4086TIP3   OH212200   3.469   3.902   2.460
 4086TIP3    H112201   3.464   3.972   2.524
 4086TIP3    H212202   3.378   3.885   2.436
 4087TIP3   OH212203   8.014   7.084   5.562
 4087TIP3    H112204   7.934   7.036   5.541
 4087TIP3    H212205   8.083   7.036   5.517
 4088TIP3   OH212206   4.962   5.054   4.411
 4088TIP3    H112207   4.926   5.047   4.323
 4088TIP3    H212208   5.032   5.118   4.403
 4089TIP3   OH212209   4.973   2.867   4.448
 4089TIP3    H112210   4.901   2.810   4.418
 4089TIP3    H212211   5.029   2.877   4.371
 4090TIP3   OH212212   6.434   0.529   6.582
 4090TIP3    H112213   6.362   0.465   6.584
 4090TIP3    H212214   6.489   0.505   6.656
 4091TIP3   OH212215   5.667   6.988   5.388
 4091TIP3    H112216   5.757   7.021   5.387
 4091TIP3    H212217   5.621   7.043   5.324
 4092TIP3   OH212218   0.631   4.449   3.270
 4092TIP3    H112219   0.655   4.414   3.356
 4092TIP3    H212220   0.627   4.371   3.214
 4093TIP3   OH212221   4.454   7.645   1.795
 4093TIP3    H112222   4.429   7.599   1.716
 4093TIP3    H212223   4.494   7.579   1.851
 4094TIP3   OH212224   2.677   1.678   5.757
 4094TIP3    H112225   2.758   1.644   5.718
 4094TIP3    H212226   2.702   1.764   5.792
 4095TIP3   OH212227   6.432   6.865   6.231
 4095TIP3    H112228   6.412   6.785   6.183
 4095TIP3    H212229   6.359   6.876   6.292
 4096TIP3   OH212230   6.105   0.121   2.480
 4096TIP3    H112231   6.023   0.150   2.439
 4096TIP3    H212232   6.174   0.160   2.426
 4097TIP3   OH212233   7.733   0.492   3.988
 4097TIP3    H112234   7.818   0.494   3.943
 4097TIP3    H212235   7.670   0.474   3.918
 4098TIP3   OH212236   5.713   1.340   4.330
 4098TIP3    H112237   5.734   1.246   4.322
 4098TIP3    H212238   5.618   1.343   4.334
 4099TIP3   OH212239   5.070   7.654   1.866
 4099TIP3    H112240   5.076   7.655   1.962
 4099TIP3    H212241   5.136   7.591   1.839
 4100TIP3   OH212242   5.939   7.626   0.498
 4100TIP3    H112243   6.017   7.660   0.453
 4100TIP3    H212244   5.963   7.537   0.524
 4101TIP3   OH212245   4.361   4.097   0.501
 4101TIP3    H112246   4.353   4.002   0.508
 4101TIP3    H212247   4.449   4.111   0.467
 4102TIP3   OH212248   1.479   6.669   4.320
 4102TIP3    H112249   1.466   6.601   4.255
 4102TIP3    H212250   1.571   6.695   4.310
 4103TIP3   OH212251   1.539   0.947   5.418
 4103TIP3    H112252   1.624   0.957   5.460
 4103TIP3    H212253   1.554   0.886   5.346
 4104TIP3   OH212254   3.880   3.737   4.969
 4104TIP3    H112255   3.803   3.735   4.912
 4104TIP3    H212256   3.928   3.816   4.943
 4105TIP3   OH212257   7.840   6.495   1.423
 4105TIP3    H112258   7.784   6.477   1.498
 4105TIP3    H212259   7.792   6.561   1.373
 4106TIP3   OH212260   6.841   4.721   4.548
 4106TIP3    H112261   6.854   4.750   4.458
 4106TIP3    H212262   6.753   4.683   4.549
 4107TIP3   OH212263   3.013   0.800   5.973
 4107TIP3    H112264   3.014   0.869   6.040
 4107TIP3    H212265   2.970   0.726   6.016
 4108TIP3   OH212266   7.359   2.601   5.434
 4108TIP3    H112267   7.304   2.554   5.372
 4108TIP3    H212268   7.306   2.609   5.513
 4109TIP3   OH212269   7.672   4.390   4.333
 4109TIP3    H112270   7.666   4.333   4.256
 4109TIP3    H212271   7.589   4.378   4.378
 4110TIP3   OH212272   6.285   4.088   3.049
 4110TIP3    H112273   6.343   4.116   3.120
 4110TIP3    H212274   6.218   4.036   3.092
 4111TIP3   OH212275   4.145   6.827   1.231
 4111TIP3    H112276   4.162   6.733   1.232
 4111TIP3    H212277   4.200   6.860   1.160
 4112TIP3   OH212278   4.723   4.447   4.112
 4112TIP3    H112279   4.768   4.476   4.033
 4112TIP3    H212280   4.630   4.453   4.091
 4113TIP3   OH212281   3.956   5.530   0.688
 4113TIP3    H112282   3.871   5.498   0.657
 4113TIP3    H212283   4.019   5.495   0.626
 4114TIP3   OH212284   1.884   5.574   2.663
 4114TIP3    H112285   1.955   5.612   2.610
 4114TIP3    H212286   1.833   5.649   2.692
 4115TIP3   OH212287   4.631   6.118   6.043
 4115TIP3    H112288   4.670   6.031   6.032
 4115TIP3    H212289   4.609   6.146   5.954
 4116TIP3   OH212290   4.666   4.047   3.329
 4116TIP3    H112291   4.666   4.018   3.238
 4116TIP3    H212292   4.758   4.052   3.353
 4117TIP3   OH212293   5.028   4.460   0.024
 4117TIP3    H112294   5.117   4.427   0.031
 4117TIP3    H212295   4.976   4.385  -0.004
 4118TIP3   OH212296   6.935   2.819   4.955
 4118TIP3    H112297   7.004   2.756   4.935
 4118TIP3    H212298   6.914   2.860   4.871
 4119TIP3   OH212299   1.551   7.648   6.635
 4119TIP3    H112300   1.506   7.681   6.557
 4119TIP3    H212301   1.505   7.566   6.656
 4120TIP3   OH212302   1.734   4.920   3.662
 4120TIP3    H112303   1.794   4.993   3.670
 4120TIP3    H212304   1.780   4.846   3.701
 4121TIP3   OH212305   5.352   5.631   1.818
 4121TIP3    H112306   5.391   5.554   1.777
 4121TIP3    H212307   5.387   5.705   1.768
 4122TIP3   OH212308   0.099   5.929   4.356
 4122TIP3    H112309   0.185   5.888   4.356
 4122TIP3    H212310   0.097   5.980   4.275
 4123TIP3   OH212311   5.800   7.241   4.099
 4123TIP3    H112312   5.793   7.330   4.065
 4123TIP3    H212313   5.851   7.251   4.180
 4124TIP3   OH212314   0.162   5.239   3.777
 4124TIP3    H112315   0.144   5.222   3.685
 4124TIP3    H212316   0.120   5.165   3.823
 4125TIP3   OH212317   6.701   7.480   1.523
 4125TIP3    H112318   6.739   7.410   1.469
 4125TIP3    H212319   6.614   7.493   1.487
 4126TIP3   OH212320   7.615   3.797   1.972
 4126TIP3    H112321   7.660   3.810   1.888
 4126TIP3    H212322   7.542   3.859   1.970
 4127TIP3   OH212323   0.637   6.711   0.567
 4127TIP3    H112324   0.601   6.675   0.647
 4127TIP3    H212325   0.577   6.683   0.498
 4128TIP3   OH212326   3.231   1.081   1.970
 4128TIP3    H112327   3.212   1.122   2.055
 4128TIP3    H212328   3.308   1.129   1.937
 4129TIP3   OH212329   5.050   5.050   6.534
 4129TIP3    H112330   5.030   5.142   6.515
 4129TIP3    H212331   4.973   5.018   6.581
 4130TIP3   OH212332   3.325   1.612   5.444
 4130TIP3    H112333   3.287   1.556   5.376
 4130TIP3    H212334   3.373   1.551   5.501
 4131TIP3   OH212335   4.151   2.568   0.634
 4131TIP3    H112336   4.074   2.623   0.645
 4131TIP3    H212337   4.198   2.606   0.560
 4132TIP3   OH212338   7.192   0.725   3.542
 4132TIP3    H112339   7.196   0.817   3.568
 4132TIP3    H212340   7.242   0.679   3.609
 4133TIP3   OH212341   5.607   6.653   1.226
 4133TIP3    H112342   5.617   6.724   1.289
 4133TIP3    H212343   5.660   6.680   1.151
 4134TIP3   OH212344   2.026   4.819   4.865
 4134TIP3    H112345   1.973   4.850   4.939
 4134TIP3    H212346   1.968   4.825   4.789
 4135TIP3   OH212347   2.263   1.269   0.804
 4135TIP3    H112348   2.266   1.345   0.747
 4135TIP3    H212349   2.236   1.303   0.889
 4136TIP3   OH212350   2.772   7.715   4.473
 4136TIP3    H112351   2.722   7.791   4.443
 4136TIP3    H212352   2.807   7.741   4.558
 4137TIP3   OH212353   3.956   2.013   3.304
 4137TIP3    H112354   3.987   1.929   3.270
 4137TIP3    H212355   3.880   2.034   3.250
 4138TIP3   OH212356   7.009   7.401   4.003
 4138TIP3    H112357   6.937   7.366   4.056
 4138TIP3    H212358   7.044   7.325   3.957
 4139TIP3   OH212359   3.625   0.454   3.087
 4139TIP3    H112360   3.684   0.474   3.015
 4139TIP3    H212361   3.616   0.537   3.135
 4140TIP3   OH212362   1.383   4.771   1.940
 4140TIP3    H112363   1.350   4.722   2.015
 4140TIP3    H212364   1.475   4.787   1.960
 4141TIP3   OH212365   6.054   5.710   5.612
 4141TIP3    H112366   6.052   5.631   5.557
 4141TIP3    H212367   6.002   5.687   5.688
 4142TIP3   OH212368   6.032   6.552   0.465
 4142TIP3    H112369   6.031   6.463   0.427
 4142TIP3    H212370   5.960   6.597   0.421
 4143TIP3   OH212371   4.071   2.279   2.518
 4143TIP3    H112372   4.148   2.233   2.551
 4143TIP3    H212373   4.022   2.303   2.597
 4144TIP3   OH212374   0.837   4.508   4.311
 4144TIP3    H112375   0.775   4.573   4.343
 4144TIP3    H212376   0.904   4.503   4.378
 4145TIP3   OH212377   8.120   1.912   0.233
 4145TIP3    H112378   8.081   1.859   0.303
 4145TIP3    H212379   8.184   1.853   0.192
 4146TIP3   OH212380   2.256   3.914   0.980
 4146TIP3    H112381   2.319   3.967   0.931
 4146TIP3    H212382   2.173   3.961   0.969
 4147TIP3   OH212383   5.865   4.241   1.915
 4147TIP3    H112384   5.812   4.322   1.910
 4147TIP3    H212385   5.917   4.242   1.834
 4148TIP3   OH212386   4.366   3.536   6.699
 4148TIP3    H112387   4.388   3.444   6.684
 4148TIP3    H212388   4.424   3.585   6.640
 4149TIP3   OH212389   7.087   3.232   1.148
 4149TIP3    H112390   7.140   3.311   1.159
 4149TIP3    H212391   7.010   3.260   1.100
 4150TIP3   OH212392   7.983   7.314   6.568
 4150TIP3    H112393   8.005   7.281   6.481
 4150TIP3    H212394   7.914   7.256   6.599
 4151TIP3   OH212395   6.701   6.091   6.055
 4151TIP3    H112396   6.663   6.019   6.105
 4151TIP3    H212397   6.629   6.120   5.999
 4152TIP3   OH212398   3.864   1.064   5.114
 4152TIP3    H112399   3.805   1.128   5.075
 4152TIP3    H212400   3.934   1.117   5.153
 4153TIP3   OH212401   5.349   4.628   3.056
 4153TIP3    H112402   5.278   4.577   3.016
 4153TIP3    H212403   5.405   4.562   3.098
 4154TIP3   OH212404   3.786   4.335   1.208
 4154TIP3    H112405   3.815   4.396   1.276
 4154TIP3    H212406   3.705   4.374   1.174
 4155TIP3   OH212407   8.116   2.021  -0.009
 4155TIP3    H112408   8.179   2.092   0.004
 4155TIP3    H212409   8.102   1.985   0.079
 4156TIP3   OH212410   6.590   1.091   4.998
 4156TIP3    H112411   6.504   1.128   5.020
 4156TIP3    H212412   6.605   1.025   5.066
 4157TIP3   OH212413   2.871   1.109   0.388
 4157TIP3    H112414   2.873   1.019   0.420
 4157TIP3    H212415   2.910   1.161   0.458
 4158TIP3   OH212416   3.458   0.531   6.085
 4158TIP3    H112417   3.488   0.537   5.995
 4158TIP3    H212418   3.497   0.450   6.118
 4159TIP3   OH212419   4.035   1.762   3.225
 4159TIP3    H112420   4.005   1.743   3.136
 4159TIP3    H212421   4.123   1.724   3.229
 4160TIP3   OH212422   0.297   5.246   5.407
 4160TIP3    H112423   0.371   5.190   5.387
 4160TIP3    H212424   0.310   5.324   5.354
 4161TIP3   OH212425   3.619   4.281   0.882
 4161TIP3    H112426   3.617   4.375   0.899
 4161TIP3    H212427   3.540   4.247   0.924
 4162TIP3   OH212428   7.599   2.528   4.808
 4162TIP3    H112429   7.691   2.521   4.785
 4162TIP3    H212430   7.599   2.544   4.903
 4163TIP3   OH212431   1.662   6.319   4.945
 4163TIP3    H112432   1.569   6.311   4.962
 4163TIP3    H212433   1.703   6.250   4.998
 4164TIP3   OH212434   6.319   5.273   3.487
 4164TIP3    H112435   6.353   5.323   3.561
 4164TIP3    H212436   6.395   5.256   3.432
 4165TIP3   OH212437   4.782   6.742   6.534
 4165TIP3    H112438   4.744   6.738   6.446
 4165TIP3    H212439   4.821   6.656   6.548
 4166TIP3   OH212440   4.655   2.197   2.420
 4166TIP3    H112441   4.604   2.116   2.417
 4166TIP3    H212442   4.701   2.200   2.337
 4167TIP3   OH212443   7.011   0.052   1.560
 4167TIP3    H112444   6.994  -0.040   1.580
 4167TIP3    H212445   6.932   0.098   1.590
 4168TIP3   OH212446   2.734   3.434   3.720
 4168TIP3    H112447   2.694   3.419   3.635
 4168TIP3    H212448   2.731   3.348   3.763
 4169TIP3   OH212449   3.935   1.211   6.051
 4169TIP3    H112450   3.965   1.220   6.142
 4169TIP3    H212451   3.907   1.300   6.027
 4170TIP3   OH212452   2.247   0.589   5.020
 4170TIP3    H112453   2.223   0.497   5.028
 4170TIP3    H212454   2.201   0.619   4.942
 4171TIP3   OH212455   6.519   3.421   1.459
 4171TIP3    H112456   6.614   3.412   1.451
 4171TIP3    H212457   6.503   3.420   1.553
 4172TIP3   OH212458   0.924   6.741   3.905
 4172TIP3    H112459   1.018   6.738   3.923
 4172TIP3    H212460   0.918   6.762   3.812
 4173TIP3   OH212461   6.160   7.003   0.067
 4173TIP3    H112462   6.218   6.946   0.017
 4173TIP3    H212463   6.199   7.090   0.059
 4174TIP3   OH212464   3.246   1.846   3.906
 4174TIP3    H112465   3.203   1.925   3.937
 4174TIP3    H212466   3.339   1.861   3.925
 4175TIP3   OH212467   2.205   2.957   5.233
 4175TIP3    H112468   2.114   2.944   5.205
 4175TIP3    H212469   2.212   3.051   5.248
 4176TIP3   OH212470   3.553   0.741   2.562
 4176TIP3    H112471   3.572   0.834   2.574
 4176TIP3    H212472   3.613   0.714   2.492
 4177TIP3   OH212473   5.992   5.207   4.918
 4177TIP3    H112474   5.938   5.232   4.993
 4177TIP3    H212475   6.058   5.148   4.954
 4178TIP3   OH212476   7.023   7.381   0.699
 4178TIP3    H112477   7.095   7.322   0.676
 4178TIP3    H212478   6.962   7.375   0.625
 4179TIP3   OH212479   5.242   2.504   5.406
 4179TIP3    H112480   5.214   2.582   5.454
 4179TIP3    H212481   5.308   2.536   5.346
 4180TIP3   OH212482   2.601   3.825   0.634
 4180TIP3    H112483   2.642   3.852   0.551
 4180TIP3    H212484   2.511   3.858   0.628
 4181TIP3   OH212485   4.387   4.086   2.090
 4181TIP3    H112486   4.392   4.119   2.000
 4181TIP3    H212487   4.438   4.005   2.088
 4182TIP3   OH212488   6.478   3.119   2.966
 4182TIP3    H112489   6.431   3.049   3.011
 4182TIP3    H212490   6.564   3.083   2.948
 4183TIP3   OH212491   3.705   0.396   5.339
 4183TIP3    H112492   3.729   0.485   5.364
 4183TIP3    H212493   3.779   0.364   5.288
 4184TIP3   OH212494   3.567   6.305   6.448
 4184TIP3    H112495   3.545   6.370   6.381
 4184TIP3    H212496   3.497   6.240   6.442
 4185TIP3   OH212497   7.548   0.870   1.818
 4185TIP3    H112498   7.555   0.962   1.792
 4185TIP3    H212499   7.467   0.840   1.777
 4186TIP3   OH212500   2.257   6.378   4.017
 4186TIP3    H112501   2.198   6.366   3.943
 4186TIP3    H212502   2.338   6.410   3.978
 4187TIP3   OH212503   7.110   5.834   1.628
 4187TIP3    H112504   7.164   5.894   1.679
 4187TIP3    H212505   7.038   5.887   1.595
 4188TIP3   OH212506   2.002   6.420   2.798
 4188TIP3    H112507   2.046   6.477   2.735
 4188TIP3    H212508   1.942   6.367   2.745
 4189TIP3   OH212509   4.215   4.120   6.414
 4189TIP3    H112510   4.220   4.215   6.425
 4189TIP3    H212511   4.130   4.105   6.374
 4190TIP3   OH212512   0.479   7.810   0.781
 4190TIP3    H112513   0.484   7.737   0.720
 4190TIP3    H212514   0.426   7.876   0.736
 4191TIP3   OH212515   1.058   0.612   4.665
 4191TIP3    H112516   1.066   0.519   4.641
 4191TIP3    H212517   0.966   0.622   4.689
 4192TIP3   OH212518   7.115   3.934   2.624
 4192TIP3    H112519   7.123   3.968   2.535
 4192TIP3    H212520   7.023   3.949   2.647
 4193TIP3   OH212521   4.481   0.053   5.238
 4193TIP3    H112522   4.543   0.104   5.290
 4193TIP3    H212523   4.525   0.039   5.154
 4194TIP3   OH212524   5.735   7.064   1.876
 4194TIP3    H112525   5.765   6.976   1.898
 4194TIP3    H212526   5.813   7.110   1.848
 4195TIP3   OH212527   1.569   3.393   5.648
 4195TIP3    H112528   1.613   3.321   5.603
 4195TIP3    H212529   1.627   3.468   5.635
 4196TIP3   OH212530   7.429   1.111   4.956
 4196TIP3    H112531   7.351   1.063   4.982
 4196TIP3    H212532   7.502   1.055   4.983
 4197TIP3   OH212533   4.828   4.722   2.065
 4197TIP3    H112534   4.873   4.674   1.995
 4197TIP3    H212535   4.778   4.789   2.019
 4198TIP3   OH212536   4.574   5.398   6.116
 4198TIP3    H112537   4.607   5.402   6.206
 4198TIP3    H212538   4.565   5.305   6.097
 4199TIP3   OH212539   0.298   1.490   6.446
 4199TIP3    H112540   0.341   1.420   6.496
 4199TIP3    H212541   0.229   1.522   6.505
 4200TIP3   OH212542   5.880   0.251   4.709
 4200TIP3    H112543   5.933   0.194   4.764
 4200TIP3    H212544   5.933   0.330   4.696
 4201TIP3   OH212545   1.656   4.130   5.905
 4201TIP3    H112546   1.719   4.146   5.835
 4201TIP3    H212547   1.597   4.063   5.871
 4202TIP3   OH212548   3.156   0.046   1.918
 4202TIP3    H112549   3.170   0.057   2.012
 4202TIP3    H212550   3.077   0.096   1.899
 4203TIP3   OH212551   5.738   2.507   4.237
 4203TIP3    H112552   5.687   2.426   4.234
 4203TIP3    H212553   5.797   2.501   4.162
 4204TIP3   OH212554   0.980   4.139   2.482
 4204TIP3    H112555   0.927   4.075   2.529
 4204TIP3    H212556   0.984   4.107   2.392
 4205TIP3   OH212557   3.415   6.800   6.379
 4205TIP3    H112558   3.442   6.862   6.311
 4205TIP3    H212559   3.320   6.809   6.384
 4206TIP3   OH212560   4.390   4.970   4.011
 4206TIP3    H112561   4.416   5.019   3.933
 4206TIP3    H212562   4.316   5.019   4.046
 4207TIP3   OH212563   5.796   3.114   5.593
 4207TIP3    H112564   5.853   3.052   5.638
 4207TIP3    H212565   5.852   3.190   5.576
 4208TIP3   OH212566   6.415   2.461   5.060
 4208TIP3    H112567   6.499   2.492   5.026
 4208TIP3    H212568   6.350   2.518   5.019
 4209TIP3   OH212569   5.388   7.549   6.745
 4209TIP3    H112570   5.409   7.515   6.658
 4209TIP3    H212571   5.299   7.519   6.762
 4210TIP3   OH212572   1.155   5.899   5.059
 4210TIP3    H112573   1.073   5.942   5.082
 4210TIP3    H212574   1.176   5.932   4.972
 4211TIP3   OH212575   7.748   4.414   1.895
 4211TIP3    H112576   7.689   4.459   1.835
 4211TIP3    H212577   7.747   4.467   1.974
 4212TIP3   OH212578   2.614   7.237   2.627
 4212TIP3    H112579   2.677   7.252   2.697
 4212TIP3    H212580   2.530   7.266   2.664
 4213TIP3   OH212581   6.591   4.679   3.006
 4213TIP3    H112582   6.497   4.689   2.992
 4213TIP3    H212583   6.632   4.726   2.933
 4214TIP3   OH212584   6.320   3.138   4.523
 4214TIP3    H112585   6.372   3.182   4.589
 4214TIP3    H212586   6.229   3.152   4.549
 4215TIP3   OH212587   3.465   3.108   3.673
 4215TIP3    H112588   3.498   3.025   3.708
 4215TIP3    H212589   3.372   3.109   3.696
 4216TIP3   OH212590   1.045   0.264   4.674
 4216TIP3    H112591   1.104   0.194   4.646
 4216TIP3    H212592   1.101   0.323   4.724
 4217TIP3   OH212593   3.047   0.291   4.316
 4217TIP3    H112594   3.063   0.365   4.374
 4217TIP3    H212595   2.959   0.261   4.338
 4218TIP3   OH212596   7.848   1.946   6.617
 4218TIP3    H112597   7.812   1.909   6.537
 4218TIP3    H212598   7.943   1.945   6.603
 4219TIP3   OH212599   2.731   0.270   4.176
 4219TIP3    H112600   2.714   0.188   4.222
 4219TIP3    H212601   2.671   0.333   4.216
 4220TIP3   OH212602   0.176   3.604   4.173
 4220TIP3    H112603   0.137   3.518   4.181
 4220TIP3    H212604   0.196   3.630   4.263
 4221TIP3   OH212605   3.911   2.596   6.637
 4221TIP3    H112606   3.827   2.572   6.598
 4221TIP3    H212607   3.909   2.691   6.643
 4222TIP3   OH212608   0.843   2.889   6.713
 4222TIP3    H112609   0.792   2.939   6.777
 4222TIP3    H212610   0.922   2.941   6.699
 4223TIP3   OH212611   6.103   2.451   5.092
 4223TIP3    H112612   6.092   2.546   5.099
 4223TIP3    H212613   6.169   2.429   5.158
 4224TIP3   OH212614   5.648   5.891   6.290
 4224TIP3    H112615   5.604   5.806   6.289
 4224TIP3    H212616   5.630   5.927   6.376
 4225TIP3   OH212617   6.325   3.795   0.106
 4225TIP3    H112618   6.251   3.821   0.161
 4225TIP3    H212619   6.286   3.758   0.027
 4226TIP3   OH212620   6.056   1.894   3.297
 4226TIP3    H112621   6.140   1.906   3.252
 4226TIP3    H212622   6.079   1.847   3.377
 4227TIP3   OH212623   5.870   3.235   4.405
 4227TIP3    H112624   5.802   3.175   4.434
 4227TIP3    H212625   5.911   3.191   4.331
 4228TIP3   OH212626   5.558   3.326   1.260
 4228TIP3    H112627   5.492   3.352   1.323
 4228TIP3    H212628   5.568   3.231   1.272
 4229TIP3   OH212629   2.425   5.908   1.957
 4229TIP3    H112630   2.362   5.873   1.893
 4229TIP3    H212631   2.505   5.859   1.941
 4230TIP3   OH212632   3.185   6.613   0.315
 4230TIP3    H112633   3.099   6.644   0.342
 4230TIP3    H212634   3.183   6.615   0.219
 4231TIP3   OH212635   2.093   3.665   2.920
 4231TIP3    H112636   2.115   3.574   2.938
 4231TIP3    H212637   2.003   3.674   2.951
 4232TIP3   OH212638   4.276   5.768   2.967
 4232TIP3    H112639   4.246   5.858   2.972
 4232TIP3    H212640   4.312   5.759   2.879
 4233TIP3   OH212641   4.966   1.794   3.439
 4233TIP3    H112642   4.981   1.877   3.395
 4233TIP3    H212643   4.994   1.810   3.530
 4234TIP3   OH212644   0.615   4.348   4.340
 4234TIP3    H112645   0.626   4.261   4.379
 4234TIP3    H212646   0.700   4.391   4.354
 4235TIP3   OH212647   5.209   7.414   1.802
 4235TIP3    H112648   5.272   7.389   1.734
 4235TIP3    H212649   5.260   7.414   1.883
 4236TIP3   OH212650   3.237   2.560   0.109
 4236TIP3    H112651   3.222   2.651   0.133
 4236TIP3    H212652   3.150   2.525   0.090
 4237TIP3   OH212653   7.228   6.566   3.668
 4237TIP3    H112654   7.297   6.502   3.653
 4237TIP3    H212655   7.218   6.611   3.584
 4238TIP3   OH212656   3.591   0.489   2.237
 4238TIP3    H112657   3.533   0.550   2.282
 4238TIP3    H212658   3.537   0.411   2.222
 4239TIP3   OH212659   4.247   4.141   0.745
 4239TIP3    H112660   4.320   4.147   0.807
 4239TIP3    H212661   4.290   4.133   0.659
 4240TIP3   OH212662   1.160   7.423   5.830
 4240TIP3    H112663   1.108   7.400   5.908
 4240TIP3    H212664   1.124   7.368   5.761
 4241TIP3   OH212665   5.260   4.178   6.624
 4241TIP3    H112666   5.326   4.109   6.634
 4241TIP3    H212667   5.201   4.165   6.698
 4242TIP3   OH212668   5.584   1.622   2.286
 4242TIP3    H112669   5.666   1.576   2.270
 4242TIP3    H212670   5.554   1.590   2.371
 4243TIP3   OH212671   1.826   7.406   2.865
 4243TIP3    H112672   1.905   7.370   2.824
 4243TIP3    H212673   1.858   7.455   2.940
 4244TIP3   OH212674   6.363   6.325   5.069
 4244TIP3    H112675   6.286   6.360   5.114
 4244TIP3    H212676   6.375   6.383   4.994
 4245TIP3   OH212677   1.954   0.444   4.254
 4245TIP3    H112678   2.007   0.411   4.326
 4245TIP3    H212679   1.955   0.373   4.189
 4246TIP3   OH212680   8.264   1.771   6.204
 4246TIP3    H112681   8.237   1.840   6.143
 4246TIP3    H212682   8.258   1.690   6.153
 4247TIP3   OH212683   1.684   7.607   0.169
 4247TIP3    H112684   1.637   7.555   0.103
 4247TIP3    H212685   1.669   7.559   0.251
 4248TIP3   OH212686   6.221   4.209   5.045
 4248TIP3    H112687   6.191   4.235   5.132
 4248TIP3    H212688   6.288   4.144   5.061
 4249TIP3   OH212689   3.932   6.431   4.548
 4249TIP3    H112690   3.964   6.409   4.461
 4249TIP3    H212691   3.935   6.527   4.552
 4250TIP3   OH212692   4.974   3.386   0.120
 4250TIP3    H112693   4.936   3.328   0.054
 4250TIP3    H212694   5.060   3.349   0.138
 4251TIP3   OH212695   3.108   3.319   4.712
 4251TIP3    H112696   3.146   3.278   4.790
 4251TIP3    H212697   3.042   3.379   4.746
 4252TIP3   OH212698   6.419   5.697   5.014
 4252TIP3    H112699   6.362   5.674   4.941
 4252TIP3    H212700   6.495   5.639   5.004
 4253TIP3   OH212701   7.965   0.412   3.563
 4253TIP3    H112702   8.028   0.420   3.492
 4253TIP3    H212703   7.895   0.474   3.541
 4254TIP3   OH212704   2.085   5.583   0.531
 4254TIP3    H112705   2.171   5.566   0.492
 4254TIP3    H212706   2.086   5.677   0.550
 4255TIP3   OH212707   5.730   3.008   1.644
 4255TIP3    H112708   5.656   2.947   1.640
 4255TIP3    H212709   5.758   3.006   1.736
 4256TIP3   OH212710   1.958   3.467   0.651
 4256TIP3    H112711   1.867   3.445   0.630
 4256TIP3    H212712   2.004   3.383   0.646
 4257TIP3   OH212713   2.720   3.497   2.935
 4257TIP3    H112714   2.713   3.516   3.028
 4257TIP3    H212715   2.796   3.439   2.927
 4258TIP3   OH212716   7.803   4.105   2.824
 4258TIP3    H112717   7.722   4.096   2.775
 4258TIP3    H212718   7.775   4.134   2.911
 4259TIP3   OH212719   7.160   7.815   2.952
 4259TIP3    H112720   7.153   7.732   3.000
 4259TIP3    H212721   7.208   7.793   2.872
 4260TIP3   OH212722   4.285   5.727   5.848
 4260TIP3    H112723   4.367   5.680   5.861
 4260TIP3    H212724   4.309   5.804   5.796
 4261TIP3   OH212725   6.331   2.656   4.876
 4261TIP3    H112726   6.243   2.678   4.848
 4261TIP3    H212727   6.359   2.732   4.928
 4262TIP3   OH212728   2.183   7.436   3.416
 4262TIP3    H112729   2.216   7.504   3.358
 4262TIP3    H212730   2.088   7.435   3.401
 4263TIP3   OH212731   7.067   0.059   1.077
 4263TIP3    H112732   7.139   0.022   1.027
 4263TIP3    H212733   7.070   0.153   1.057
 4264TIP3   OH212734   2.995   1.154   1.232
 4264TIP3    H112735   3.078   1.163   1.278
 4264TIP3    H212736   2.940   1.103   1.292
 4265TIP3   OH212737   5.133   3.863   0.346
 4265TIP3    H112738   5.077   3.918   0.402
 4265TIP3    H212739   5.073   3.799   0.309
 4266TIP3   OH212740   4.560   1.708   4.515
 4266TIP3    H112741   4.542   1.761   4.437
 4266TIP3    H212742   4.647   1.671   4.499
 4267TIP3   OH212743   3.104   0.615   1.183
 4267TIP3    H112744   3.093   0.521   1.169
 4267TIP3    H212745   3.028   0.655   1.139
 4268TIP3   OH212746   3.315   0.093   2.458
 4268TIP3    H112747   3.395   0.061   2.499
 4268TIP3    H212748   3.324   0.189   2.459
 4269TIP3   OH212749   4.013   2.734   2.071
 4269TIP3    H112750   4.073   2.673   2.112
 4269TIP3    H212751   3.965   2.682   2.006
 4270TIP3   OH212752   6.079   5.136   1.211
 4270TIP3    H112753   6.030   5.072   1.158
 4270TIP3    H212754   6.127   5.187   1.147
 4271TIP3   OH212755   5.206   4.052   6.388
 4271TIP3    H112756   5.133   3.991   6.403
 4271TIP3    H212757   5.217   4.096   6.473
 4272TIP3   OH212758   3.318   3.787   3.178
 4272TIP3    H112759   3.374   3.766   3.253
 4272TIP3    H212760   3.354   3.733   3.107
 4273TIP3   OH212761   6.402   0.692   5.321
 4273TIP3    H112762   6.470   0.745   5.361
 4273TIP3    H212763   6.438   0.603   5.318
 4274TIP3   OH212764   3.955   3.686   1.599
 4274TIP3    H112765   3.993   3.654   1.517
 4274TIP3    H212766   3.982   3.622   1.665
 4275TIP3   OH212767   3.194   7.283   1.626
 4275TIP3    H112768   3.264   7.281   1.691
 4275TIP3    H212769   3.181   7.192   1.602
 4276TIP3   OH212770   0.023   3.071   6.557
 4276TIP3    H112771  -0.043   3.112   6.501
 4276TIP3    H212772   0.090   3.138   6.568
 4277TIP3   OH212773   6.712   0.112   3.266
 4277TIP3    H112774   6.801   0.078   3.274
 4277TIP3    H212775   6.681   0.080   3.181
 4278TIP3   OH212776   5.103   0.801   0.290
 4278TIP3    H112777   5.137   0.849   0.366
 4278TIP3    H212778   5.085   0.869   0.225
 4279TIP3   OH212779   8.150   5.822   4.498
 4279TIP3    H112780   8.213   5.871   4.445
 4279TIP3    H212781   8.071   5.875   4.497
 4280TIP3   OH212782   0.755   3.611   3.822
 4280TIP3    H112783   0.705   3.588   3.900
 4280TIP3    H212784   0.689   3.627   3.755
 4281TIP3   OH212785   6.375   3.560   3.992
 4281TIP3    H112786   6.434   3.485   3.994
 4281TIP3    H212787   6.309   3.540   4.058
 4282TIP3   OH212788   7.514   7.680   2.418
 4282TIP3    H112789   7.588   7.638   2.374
 4282TIP3    H212790   7.551   7.756   2.462
 4283TIP3   OH212791   4.974   6.825   5.276
 4283TIP3    H112792   4.977   6.777   5.193
 4283TIP3    H212793   4.885   6.860   5.280
 4284TIP3   OH212794   3.252   0.599   2.594
 4284TIP3    H112795   3.325   0.585   2.654
 4284TIP3    H212796   3.175   0.602   2.651
 4285TIP3   OH212797   5.206   4.616   4.840
 4285TIP3    H112798   5.235   4.697   4.796
 4285TIP3    H212799   5.273   4.552   4.817
 4286TIP3   OH212800   6.233   6.172   0.184
 4286TIP3    H112801   6.201   6.097   0.236
 4286TIP3    H212802   6.311   6.139   0.140
 4287TIP3   OH212803   8.026   6.786   5.240
 4287TIP3    H112804   8.056   6.717   5.300
 4287TIP3    H212805   7.944   6.752   5.205
 4288TIP3   OH212806   7.045   6.016   0.456
 4288TIP3    H112807   7.074   6.030   0.366
 4288TIP3    H212808   7.118   6.045   0.510
 4289TIP3   OH212809   1.656   4.280   4.296
 4289TIP3    H112810   1.585   4.234   4.339
 4289TIP3    H212811   1.632   4.282   4.204
 4290TIP3   OH212812   1.646   3.492   1.179
 4290TIP3    H112813   1.723   3.448   1.215
 4290TIP3    H212814   1.682   3.565   1.128
 4291TIP3   OH212815   4.077   2.974   1.808
 4291TIP3    H112816   4.051   2.970   1.716
 4291TIP3    H212817   4.090   2.883   1.834
 4292TIP3   OH212818   4.748   1.503   6.685
 4292TIP3    H112819   4.716   1.459   6.607
 4292TIP3    H212820   4.842   1.487   6.685
 4293TIP3   OH212821   5.383   2.387   5.623
 4293TIP3    H112822   5.408   2.467   5.669
 4293TIP3    H212823   5.340   2.418   5.543
 4294TIP3   OH212824   8.049   3.237   2.180
 4294TIP3    H112825   8.112   3.244   2.108
 4294TIP3    H212826   7.983   3.176   2.148
 4295TIP3   OH212827   2.836   2.347   5.778
 4295TIP3    H112828   2.815   2.382   5.865
 4295TIP3    H212829   2.760   2.293   5.756
 4296TIP3   OH212830   3.173   4.293   0.461
 4296TIP3    H112831   3.163   4.385   0.484
 4296TIP3    H212832   3.087   4.255   0.477
 4297TIP3   OH212833   4.384   0.300   2.204
 4297TIP3    H112834   4.449   0.364   2.177
 4297TIP3    H212835   4.329   0.347   2.268
 4298TIP3   OH212836   5.195   0.872   1.330
 4298TIP3    H112837   5.251   0.872   1.253
 4298TIP3    H212838   5.256   0.865   1.404
 4299TIP3   OH212839   1.022   5.164   5.901
 4299TIP3    H112840   1.001   5.251   5.934
 4299TIP3    H212841   1.072   5.122   5.971
 4300TIP3   OH212842   0.523   3.927   5.131
 4300TIP3    H112843   0.464   3.987   5.177
 4300TIP3    H212844   0.593   3.983   5.099
 4301TIP3   OH212845   7.066   7.001   5.453
 4301TIP3    H112846   6.994   6.949   5.488
 4301TIP3    H212847   7.145   6.955   5.483
 4302TIP3   OH212848   7.201   2.453   5.720
 4302TIP3    H112849   7.148   2.408   5.653
 4302TIP3    H212850   7.286   2.409   5.717
 4303TIP3   OH212851   5.794   5.546   0.321
 4303TIP3    H112852   5.807   5.637   0.346
 4303TIP3    H212853   5.866   5.528   0.260
 4304TIP3   OH212854   2.829   5.417   4.388
 4304TIP3    H112855   2.745   5.376   4.366
 4304TIP3    H212856   2.887   5.343   4.409
 4305TIP3   OH212857   6.851   6.239   0.225
 4305TIP3    H112858   6.793   6.180   0.176
 4305TIP3    H212859   6.935   6.193   0.226
 4306TIP3   OH212860   5.258   1.067   3.967
 4306TIP3    H112861   5.312   1.073   4.046
 4306TIP3    H212862   5.168   1.067   3.999
 4307TIP3   OH212863   7.756   3.350   3.855
 4307TIP3    H112864   7.686   3.361   3.921
 4307TIP3    H212865   7.712   3.310   3.780
 4308TIP3   OH212866   7.062   5.085   3.035
 4308TIP3    H112867   7.025   5.002   3.004
 4308TIP3    H212868   7.002   5.151   3.001
 4309TIP3   OH212869   6.112   2.283   4.748
 4309TIP3    H112870   6.155   2.296   4.833
 4309TIP3    H212871   6.184   2.262   4.689
 4310TIP3   OH212872   8.306   6.580   1.256
 4310TIP3    H112873   8.314   6.542   1.169
 4310TIP3    H212874   8.220   6.622   1.256
 4311TIP3   OH212875   0.272   6.363   1.389
 4311TIP3    H112876   0.188   6.407   1.374
 4311TIP3    H212877   0.308   6.406   1.466
 4312TIP3   OH212878   7.100   1.701   3.455
 4312TIP3    H112879   7.171   1.727   3.397
 4312TIP3    H212880   7.109   1.606   3.463
 4313TIP3   OH212881   3.846   1.800   0.454
 4313TIP3    H112882   3.851   1.820   0.547
 4313TIP3    H212883   3.905   1.863   0.412
 4314TIP3   OH212884   2.082   0.821   2.020
 4314TIP3    H112885   2.073   0.868   2.103
 4314TIP3    H212886   2.142   0.749   2.040
 4315TIP3   OH212887   5.473   7.003   0.848
 4315TIP3    H112888   5.409   7.010   0.919
 4315TIP3    H212889   5.543   7.062   0.873
 4316TIP3   OH212890   5.895   1.001   3.909
 4316TIP3    H112891   5.936   1.086   3.920
 4316TIP3    H212892   5.805   1.020   3.883
 4317TIP3   OH212893   5.881   6.959   4.030
 4317TIP3    H112894   5.857   6.879   3.983
 4317TIP3    H212895   5.972   6.946   4.054
 4318TIP3   OH212896   2.250   1.373   4.688
 4318TIP3    H112897   2.343   1.397   4.686
 4318TIP3    H212898   2.207   1.439   4.634
 4319TIP3   OH212899   7.814   5.229   4.649
 4319TIP3    H112900   7.844   5.239   4.739
 4319TIP3    H212901   7.756   5.153   4.652
 4320TIP3   OH212902   2.842   2.685   4.266
 4320TIP3    H112903   2.852   2.605   4.318
 4320TIP3    H212904   2.809   2.654   4.182
 4321TIP3   OH212905   5.166   0.492   3.417
 4321TIP3    H112906   5.092   0.524   3.467
 4321TIP3    H212907   5.129   0.469   3.332
 4322TIP3   OH212908   5.913   1.469   6.769
 4322TIP3    H112909   6.004   1.483   6.793
 4322TIP3    H212910   5.893   1.540   6.707
 4323TIP3   OH212911   7.396   3.861   0.215
 4323TIP3    H112912   7.439   3.781   0.188
 4323TIP3    H212913   7.312   3.860   0.169
 4324TIP3   OH212914   5.875   5.653   4.540
 4324TIP3    H112915   5.809   5.584   4.556
 4324TIP3    H212916   5.959   5.608   4.550
 4325TIP3   OH212917   5.553   6.130   1.396
 4325TIP3    H112918   5.458   6.123   1.397
 4325TIP3    H212919   5.570   6.213   1.351
 4326TIP3   OH212920   2.945   5.205   0.404
 4326TIP3    H112921   2.901   5.122   0.385
 4326TIP3    H212922   2.909   5.233   0.488
 4327TIP3   OH212923   0.369   6.600   4.443
 4327TIP3    H112924   0.373   6.541   4.518
 4327TIP3    H212925   0.422   6.676   4.469
 4328TIP3   OH212926   1.579   6.219   6.254
 4328TIP3    H112927   1.523   6.260   6.189
 4328TIP3    H212928   1.624   6.292   6.296
 4329TIP3   OH212929   2.872   2.425   1.370
 4329TIP3    H112930   2.910   2.469   1.446
 4329TIP3    H212931   2.782   2.404   1.397
 4330TIP3   OH212932   7.939   7.434   4.185
 4330TIP3    H112933   7.995   7.363   4.153
 4330TIP3    H212934   7.855   7.420   4.142
 4331TIP3   OH212935   3.158   1.205   5.516
 4331TIP3    H112936   3.109   1.262   5.575
 4331TIP3    H212937   3.247   1.238   5.518
 4332TIP3   OH212938   0.561   0.398   5.319
 4332TIP3    H112939   0.521   0.327   5.269
 4332TIP3    H212940   0.620   0.355   5.380
 4333TIP3   OH212941   7.471   0.085   3.534
 4333TIP3    H112942   7.477  -0.010   3.545
 4333TIP3    H212943   7.544   0.107   3.476
 4334TIP3   OH212944   7.755   7.078   4.331
 4334TIP3    H112945   7.726   7.149   4.273
 4334TIP3    H212946   7.806   7.020   4.274
 4335TIP3   OH212947   3.898   0.381   0.993
 4335TIP3    H112948   3.891   0.369   1.088
 4335TIP3    H212949   3.860   0.467   0.977
 4336TIP3   OH212950   4.999   5.822   0.921
 4336TIP3    H112951   5.003   5.809   0.827
 4336TIP3    H212952   4.956   5.907   0.933
 4337TIP3   OH212953   4.585   5.851   1.195
 4337TIP3    H112954   4.594   5.814   1.283
 4337TIP3    H212955   4.623   5.785   1.137
 4338TIP3   OH212956   5.910   3.349   5.296
 4338TIP3    H112957   5.887   3.437   5.267
 4338TIP3    H212958   6.004   3.341   5.280
 4339TIP3   OH212959   4.186   1.621   2.643
 4339TIP3    H112960   4.248   1.569   2.695
 4339TIP3    H212961   4.241   1.674   2.586
 4340TIP3   OH212962   1.787   5.813   1.608
 4340TIP3    H112963   1.734   5.892   1.613
 4340TIP3    H212964   1.829   5.817   1.523
 4341TIP3   OH212965   5.605   0.926   4.124
 4341TIP3    H112966   5.585   0.933   4.030
 4341TIP3    H212967   5.624   0.833   4.137
 4342TIP3   OH212968   0.824   2.249   0.898
 4342TIP3    H112969   0.738   2.239   0.939
 4342TIP3    H212970   0.813   2.321   0.836
 4343TIP3   OH212971   6.943   2.875   3.549
 4343TIP3    H112972   6.853   2.874   3.516
 4343TIP3    H212973   6.964   2.782   3.564
 4344TIP3   OH212974   7.659   1.711   2.778
 4344TIP3    H112975   7.644   1.633   2.724
 4344TIP3    H212976   7.590   1.772   2.752
 4345TIP3   OH212977   6.257   3.403   2.067
 4345TIP3    H112978   6.241   3.309   2.056
 4345TIP3    H212979   6.257   3.438   1.978
 4346TIP3   OH212980   0.744   5.589   4.305
 4346TIP3    H112981   0.695   5.584   4.223
 4346TIP3    H212982   0.834   5.564   4.281
 4347TIP3   OH212983   6.027   3.445   6.114
 4347TIP3    H112984   6.087   3.400   6.173
 4347TIP3    H212985   6.078   3.461   6.035
 4348TIP3   OH212986   7.652   3.807   4.054
 4348TIP3    H112987   7.681   3.898   4.050
 4348TIP3    H212988   7.677   3.770   3.969
 4349TIP3   OH212989   2.864   6.863   0.681
 4349TIP3    H112990   2.956   6.887   0.692
 4349TIP3    H212991   2.820   6.945   0.662
 4350TIP3   OH212992   2.520   5.116   0.320
 4350TIP3    H112993   2.473   5.091   0.240
 4350TIP3    H212994   2.457   5.169   0.369
 4351TIP3   OH212995   3.310   7.630   3.740
 4351TIP3    H112996   3.278   7.563   3.800
 4351TIP3    H212997   3.272   7.606   3.655
 4352TIP3   OH212998   7.447   6.840   0.864
 4352TIP3    H112999   7.448   6.935   0.876
 4352TIP3    H213000   7.439   6.828   0.769
 4353TIP3   OH213001   7.568   3.296   2.206
 4353TIP3    H113002   7.586   3.348   2.284
 4353TIP3    H213003   7.481   3.323   2.178
 4354TIP3   OH213004   4.924   5.969   2.759
 4354TIP3    H113005   4.887   5.949   2.673
 4354TIP3    H213006   4.954   6.059   2.752
 4355TIP3   OH213007   3.445   5.957   2.935
 4355TIP3    H113008   3.442   5.873   2.979
 4355TIP3    H213009   3.355   5.990   2.939
 4356TIP3   OH213010   5.426   6.001   2.228
 4356TIP3    H113011   5.438   5.993   2.134
 4356TIP3    H213012   5.409   6.094   2.243
 4357TIP3   OH213013   6.357   2.852   2.664
 4357TIP3    H113014   6.428   2.855   2.600
 4357TIP3    H213015   6.388   2.795   2.733
 4358TIP3   OH213016   0.856   6.129   6.179
 4358TIP3    H113017   0.850   6.065   6.108
 4358TIP3    H213018   0.941   6.171   6.166
 4359TIP3   OH213019   4.423   5.264   4.318
 4359TIP3    H113020   4.334   5.297   4.305
 4359TIP3    H213021   4.411   5.183   4.369
 4360TIP3   OH213022   6.989   7.755   4.080
 4360TIP3    H113023   7.026   7.795   4.001
 4360TIP3    H213024   7.010   7.817   4.150
 4361TIP3   OH213025   4.994   5.057   1.592
 4361TIP3    H113026   5.071   5.012   1.556
 4361TIP3    H213027   4.926   4.990   1.594
 4362TIP3   OH213028   0.605   1.369   1.757
 4362TIP3    H113029   0.580   1.458   1.730
 4362TIP3    H213030   0.640   1.329   1.677
 4363TIP3   OH213031   7.700   7.235   6.406
 4363TIP3    H113032   7.625   7.211   6.352
 4363TIP3    H213033   7.761   7.277   6.345
 4364TIP3   OH213034   6.750   5.644   1.940
 4364TIP3    H113035   6.692   5.568   1.949
 4364TIP3    H213036   6.837   5.611   1.958
 4365TIP3   OH213037   1.936   3.161   1.971
 4365TIP3    H113038   1.924   3.091   2.036
 4365TIP3    H213039   2.024   3.194   1.987
 4366TIP3   OH213040   2.905   2.541   6.753
 4366TIP3    H113041   2.866   2.562   6.837
 4366TIP3    H213042   2.835   2.557   6.689
 4367TIP3   OH213043   5.451   6.052   4.149
 4367TIP3    H113044   5.413   5.980   4.199
 4367TIP3    H213045   5.508   6.009   4.085
 4368TIP3   OH213046   1.605   7.450   5.800
 4368TIP3    H113047   1.518   7.483   5.823
 4368TIP3    H213048   1.665   7.517   5.832
 4369TIP3   OH213049   0.326   4.505   2.308
 4369TIP3    H113050   0.299   4.446   2.378
 4369TIP3    H213051   0.287   4.468   2.229
 4370TIP3   OH213052   5.665   3.829   6.407
 4370TIP3    H113053   5.683   3.900   6.345
 4370TIP3    H213054   5.581   3.793   6.378
 4371TIP3   OH213055   6.036   1.107   2.911
 4371TIP3    H113056   6.122   1.136   2.879
 4371TIP3    H213057   6.052   1.081   3.002
 4372TIP3   OH213058   0.632   2.405   6.584
 4372TIP3    H113059   0.564   2.340   6.603
 4372TIP3    H213060   0.713   2.355   6.581
 4373TIP3   OH213061   7.438   6.766   3.796
 4373TIP3    H113062   7.387   6.737   3.720
 4373TIP3    H213063   7.385   6.836   3.834
 4374TIP3   OH213064   7.207   3.922   5.025
 4374TIP3    H113065   7.287   3.974   5.013
 4374TIP3    H213066   7.171   3.912   4.937
 4375TIP3   OH213067   7.363   4.493   6.307
 4375TIP3    H113068   7.358   4.398   6.319
 4375TIP3    H213069   7.429   4.522   6.370
 4376TIP3   OH213070   3.477   7.191   3.999
 4376TIP3    H113071   3.532   7.113   3.997
 4376TIP3    H213072   3.438   7.190   4.087
 4377TIP3   OH213073   8.079   3.252   0.228
 4377TIP3    H113074   8.089   3.212   0.315
 4377TIP3    H213075   8.127   3.193   0.169
 4378TIP3   OH213076   2.157   7.744   6.726
 4378TIP3    H113077   2.077   7.709   6.687
 4378TIP3    H213078   2.222   7.674   6.716
 4379TIP3   OH213079   0.401   1.038   4.481
 4379TIP3    H113080   0.349   0.974   4.432
 4379TIP3    H213081   0.407   1.113   4.423
 4380TIP3   OH213082   8.289   2.532   0.401
 4380TIP3    H113083   8.344   2.461   0.368
 4380TIP3    H213084   8.212   2.488   0.438
 4381TIP3   OH213085   3.112   6.822   3.728
 4381TIP3    H113086   3.035   6.867   3.694
 4381TIP3    H213087   3.163   6.890   3.771
 4382TIP3   OH213088   1.000   4.732   4.657
 4382TIP3    H113089   1.017   4.696   4.744
 4382TIP3    H213090   1.026   4.823   4.662
 4383TIP3   OH213091   3.436   5.107   1.388
 4383TIP3    H113092   3.461   5.032   1.335
 4383TIP3    H213093   3.420   5.071   1.475
 4384TIP3   OH213094   1.498   6.888   0.556
 4384TIP3    H113095   1.417   6.838   0.567
 4384TIP3    H213096   1.469   6.970   0.516
 4385TIP3   OH213097   1.587   1.791   2.986
 4385TIP3    H113098   1.495   1.792   2.958
 4385TIP3    H213099   1.629   1.725   2.930
 4386TIP3   OH213100   4.894   1.522   3.313
 4386TIP3    H113101   4.886   1.596   3.374
 4386TIP3    H213102   4.805   1.504   3.284
 4387TIP3   OH213103   7.784   4.676   6.549
 4387TIP3    H113104   7.795   4.588   6.585
 4387TIP3    H213105   7.873   4.710   6.542
 4388TIP3   OH213106   0.419   1.233   0.859
 4388TIP3    H113107   0.339   1.271   0.897
 4388TIP3    H213108   0.408   1.242   0.765
 4389TIP3   OH213109   4.752   1.915   3.120
 4389TIP3    H113110   4.729   2.007   3.131
 4389TIP3    H213111   4.825   1.902   3.180
 4390TIP3   OH213112   0.265   0.531   5.244
 4390TIP3    H113113   0.268   0.437   5.226
 4390TIP3    H213114   0.182   0.560   5.207
 4391TIP3   OH213115   3.621   1.229   1.195
 4391TIP3    H113116   3.704   1.211   1.150
 4391TIP3    H213117   3.636   1.311   1.241
 4392TIP3   OH213118   2.986   5.989   1.922
 4392TIP3    H113119   2.945   6.050   1.861
 4392TIP3    H213120   2.923   5.981   1.994
 4393TIP3   OH213121   2.929   7.526   5.278
 4393TIP3    H113122   2.957   7.481   5.199
 4393TIP3    H213123   2.840   7.494   5.294
 4394TIP3   OH213124   5.356   7.122   1.355
 4394TIP3    H113125   5.392   7.074   1.280
 4394TIP3    H213126   5.286   7.175   1.318
 4395TIP3   OH213127   5.434   4.870   5.823
 4395TIP3    H113128   5.457   4.817   5.899
 4395TIP3    H213129   5.351   4.912   5.847
 4396TIP3   OH213130   1.752   6.386   4.173
 4396TIP3    H113131   1.743   6.318   4.106
 4396TIP3    H213132   1.820   6.444   4.141
 4397TIP3   OH213133   4.843   1.769   1.408
 4397TIP3    H113134   4.895   1.789   1.330
 4397TIP3    H213135   4.811   1.854   1.438
 4398TIP3   OH213136   8.169   1.717   3.903
 4398TIP3    H113137   8.141   1.734   3.813
 4398TIP3    H213138   8.215   1.633   3.899
 4399TIP3   OH213139   3.629   2.909   6.715
 4399TIP3    H113140   3.632   2.872   6.627
 4399TIP3    H213141   3.569   2.852   6.763
 4400TIP3   OH213142   2.241   0.086   5.912
 4400TIP3    H113143   2.188   0.073   5.990
 4400TIP3    H213144   2.191   0.147   5.858
 4401TIP3   OH213145   1.011   2.545   0.260
 4401TIP3    H113146   1.086   2.570   0.314
 4401TIP3    H213147   0.973   2.470   0.306
 4402TIP3   OH213148   4.997   6.986   0.267
 4402TIP3    H113149   4.985   6.969   0.174
 4402TIP3    H213150   4.911   7.012   0.299
 4403TIP3   OH213151   8.116   0.899   5.672
 4403TIP3    H113152   8.207   0.928   5.665
 4403TIP3    H213153   8.074   0.932   5.593
 4404TIP3   OH213154   2.689   0.362   2.453
 4404TIP3    H113155   2.652   0.302   2.517
 4404TIP3    H213156   2.631   0.438   2.456
 4405TIP3   OH213157   0.099   5.192   1.838
 4405TIP3    H113158   0.052   5.118   1.798
 4405TIP3    H213159   0.191   5.168   1.831
 4406TIP3   OH213160   0.332   4.095   5.234
 4406TIP3    H113161   0.364   4.141   5.312
 4406TIP3    H213162   0.304   4.010   5.267
 4407TIP3   OH213163   0.677   1.780   3.921
 4407TIP3    H113164   0.643   1.865   3.894
 4407TIP3    H213165   0.747   1.800   3.983
 4408TIP3   OH213166   7.320   1.935   2.296
 4408TIP3    H113167   7.296   1.921   2.388
 4408TIP3    H213168   7.261   2.004   2.266
 4409TIP3   OH213169   1.099   3.324   3.755
 4409TIP3    H113170   1.123   3.291   3.842
 4409TIP3    H213171   1.073   3.247   3.706
 4410TIP3   OH213172   7.915   1.152   1.928
 4410TIP3    H113173   7.882   1.242   1.932
 4410TIP3    H213174   7.847   1.104   1.882
 4411TIP3   OH213175   7.436   4.305   2.728
 4411TIP3    H113176   7.366   4.329   2.789
 4411TIP3    H213177   7.431   4.371   2.659
 4412TIP3   OH213178   6.275   6.062   6.223
 4412TIP3    H113179   6.192   6.017   6.245
 4412TIP3    H213180   6.308   6.014   6.147
 4413TIP3   OH213181   5.990   7.747   4.980
 4413TIP3    H113182   5.901   7.783   4.977
 4413TIP3    H213183   6.033   7.796   5.051
 4414TIP3   OH213184   3.114   7.201   3.688
 4414TIP3    H113185   3.077   7.278   3.645
 4414TIP3    H213186   3.202   7.192   3.651
 4415TIP3   OH213187   1.828   0.635   4.423
 4415TIP3    H113188   1.808   0.594   4.507
 4415TIP3    H213189   1.868   0.565   4.371
 4416TIP3   OH213190   4.621   0.854   3.240
 4416TIP3    H113191   4.572   0.875   3.160
 4416TIP3    H213192   4.602   0.761   3.256
 4417TIP3   OH213193   2.435   7.508   3.044
 4417TIP3    H113194   2.425   7.473   2.955
 4417TIP3    H213195   2.520   7.554   3.041
 4418TIP3   OH213196   1.448   4.169   2.590
 4418TIP3    H113197   1.485   4.256   2.577
 4418TIP3    H213198   1.402   4.175   2.674
 4419TIP3   OH213199   1.156   1.545   0.102
 4419TIP3    H113200   1.134   1.458   0.136
 4419TIP3    H213201   1.243   1.563   0.137
 4420TIP3   OH213202   2.460   3.035   6.014
 4420TIP3    H113203   2.478   2.942   6.028
 4420TIP3    H213204   2.405   3.038   5.936
 4421TIP3   OH213205   2.689   2.072   6.431
 4421TIP3    H113206   2.768   2.122   6.410
 4421TIP3    H213207   2.621   2.138   6.445
 4422TIP3   OH213208   4.461   6.817   2.288
 4422TIP3    H113209   4.472   6.872   2.211
 4422TIP3    H213210   4.375   6.841   2.323
 4423TIP3   OH213211   6.221   5.320   4.130
 4423TIP3    H113212   6.218   5.242   4.185
 4423TIP3    H213213   6.228   5.287   4.040
 4424TIP3   OH213214   0.844   5.007   3.543
 4424TIP3    H113215   0.832   5.071   3.614
 4424TIP3    H213216   0.810   4.925   3.579
 4425TIP3   OH213217   5.655   3.687   2.475
 4425TIP3    H113218   5.719   3.704   2.406
 4425TIP3    H213219   5.570   3.708   2.435
 4426TIP3   OH213220   5.760   7.668   0.756
 4426TIP3    H113221   5.759   7.572   0.756
 4426TIP3    H213222   5.744   7.693   0.665
 4427TIP3   OH213223   1.738   0.217   4.302
 4427TIP3    H113224   1.740   0.308   4.272
 4427TIP3    H213225   1.825   0.183   4.280
 4428TIP3   OH213226   1.795   5.726   1.920
 4428TIP3    H113227   1.858   5.752   1.988
 4428TIP3    H213228   1.718   5.781   1.936
 4429TIP3   OH213229   5.127   6.370   5.077
 4429TIP3    H113230   5.217   6.362   5.111
 4429TIP3    H213231   5.139   6.398   4.987
 4430TIP3   OH213232   4.956   5.872   4.510
 4430TIP3    H113233   4.958   5.942   4.445
 4430TIP3    H213234   5.048   5.862   4.537
 4431TIP3   OH213235   3.815   3.364   4.371
 4431TIP3    H113236   3.835   3.273   4.349
 4431TIP3    H213237   3.754   3.393   4.303
 4432TIP3   OH213238   0.625   1.053   3.948
 4432TIP3    H113239   0.575   1.127   3.980
 4432TIP3    H213240   0.610   1.053   3.853
 4433TIP3   OH213241   5.557   3.245   2.502
 4433TIP3    H113242   5.494   3.286   2.562
 4433TIP3    H213243   5.586   3.316   2.445
 4434TIP3   OH213244   0.046   2.809   5.592
 4434TIP3    H113245  -0.013   2.749   5.546
 4434TIP3    H213246   0.113   2.753   5.630
 4435TIP3   OH213247   5.217   0.687   4.640
 4435TIP3    H113248   5.307   0.654   4.634
 4435TIP3    H213249   5.225   0.770   4.688
 4436TIP3   OH213250   0.330   2.454   1.371
 4436TIP3    H113251   0.270   2.431   1.300
 4436TIP3    H213252   0.273   2.460   1.448
 4437TIP3   OH213253   7.208   4.966   5.302
 4437TIP3    H113254   7.160   4.936   5.225
 4437TIP3    H213255   7.154   4.941   5.376
 4438TIP3   OH213256   5.120   7.647   5.580
 4438TIP3    H113257   5.132   7.741   5.593
 4438TIP3    H213258   5.185   7.623   5.514
 4439TIP3   OH213259   3.422   1.892   6.652
 4439TIP3    H113260   3.344   1.946   6.665
 4439TIP3    H213261   3.420   1.829   6.723
 4440TIP3   OH213262   7.072   7.074   6.514
 4440TIP3    H113263   7.155   7.029   6.494
 4440TIP3    H213264   7.005   7.016   6.476
 4441TIP3   OH213265   4.208   3.848   5.124
 4441TIP3    H113266   4.129   3.842   5.177
 4441TIP3    H213267   4.185   3.905   5.051
 4442TIP3   OH213268   0.575   4.241   2.980
 4442TIP3    H113269   0.660   4.207   2.952
 4442TIP3    H213270   0.537   4.170   3.032
 4443TIP3   OH213271   5.654   3.990   2.827
 4443TIP3    H113272   5.644   4.085   2.818
 4443TIP3    H213273   5.731   3.969   2.775
 4444TIP3   OH213274   2.093   1.192   2.999
 4444TIP3    H113275   2.002   1.192   3.029
 4444TIP3    H213276   2.121   1.283   3.006
 4445TIP3   OH213277   2.290   5.673   0.821
 4445TIP3    H113278   2.324   5.698   0.735
 4445TIP3    H213279   2.334   5.591   0.841
 4446TIP3   OH213280   6.290   1.859   4.983
 4446TIP3    H113281   6.273   1.838   4.891
 4446TIP3    H213282   6.344   1.787   5.014
 4447TIP3   OH213283   5.710   5.551   1.306
 4447TIP3    H113284   5.626   5.595   1.315
 4447TIP3    H213285   5.695   5.463   1.340
 4448TIP3   OH213286   4.198   5.465   5.770
 4448TIP3    H113287   4.184   5.425   5.856
 4448TIP3    H213288   4.219   5.556   5.789
 4449TIP3   OH213289   1.543   0.520   5.211
 4449TIP3    H113290   1.526   0.464   5.287
 4449TIP3    H213291   1.527   0.464   5.135
 4450TIP3   OH213292   0.018   0.109   5.704
 4450TIP3    H113293   0.080   0.041   5.679
 4450TIP3    H213294   0.067   0.166   5.763
 4451TIP3   OH213295   6.194   2.576   2.404
 4451TIP3    H113296   6.168   2.648   2.461
 4451TIP3    H213297   6.290   2.574   2.411
 4452TIP3   OH213298   3.689   7.611   1.030
 4452TIP3    H113299   3.731   7.661   0.959
 4452TIP3    H213300   3.747   7.537   1.046
 4453TIP3   OH213301   1.244   5.084   6.347
 4453TIP3    H113302   1.195   5.115   6.423
 4453TIP3    H213303   1.275   4.997   6.372
 4454TIP3   OH213304   7.427   3.150   6.687
 4454TIP3    H113305   7.502   3.149   6.628
 4454TIP3    H213306   7.358   3.194   6.638
 4455TIP3   OH213307   7.414   2.652   5.807
 4455TIP3    H113308   7.387   2.568   5.769
 4455TIP3    H213309   7.492   2.631   5.858
 4456TIP3   OH213310   3.870   5.360   3.590
 4456TIP3    H113311   3.886   5.343   3.683
 4456TIP3    H213312   3.838   5.451   3.587
 4457TIP3   OH213313   0.999   1.062   4.582
 4457TIP3    H113314   1.044   1.096   4.505
 4457TIP3    H213315   1.067   1.055   4.649
 4458TIP3   OH213316   3.442   0.606   4.099
 4458TIP3    H113317   3.510   0.607   4.031
 4458TIP3    H213318   3.476   0.547   4.166
 4459TIP3   OH213319   6.750   5.284   6.271
 4459TIP3    H113320   6.673   5.322   6.313
 4459TIP3    H213321   6.743   5.190   6.289
 4460TIP3   OH213322   1.210   0.903   0.913
 4460TIP3    H113323   1.290   0.902   0.966
 4460TIP3    H213324   1.164   0.983   0.939
 4461TIP3   OH213325   4.853   2.526   0.108
 4461TIP3    H113326   4.857   2.460   0.038
 4461TIP3    H213327   4.848   2.475   0.189
 4462TIP3   OH213328   3.170   3.235   2.653
 4462TIP3    H113329   3.233   3.289   2.604
 4462TIP3    H213330   3.209   3.226   2.739
 4463TIP3   OH213331   4.053   7.728   0.137
 4463TIP3    H113332   4.123   7.664   0.123
 4463TIP3    H213333   3.976   7.687   0.097
 4464TIP3   OH213334   7.866   4.556   3.183
 4464TIP3    H113335   7.779   4.590   3.202
 4464TIP3    H213336   7.883   4.494   3.254
 4465TIP3   OH213337   1.430   5.262   2.519
 4465TIP3    H113338   1.509   5.310   2.494
 4465TIP3    H213339   1.431   5.260   2.614
 4466TIP3   OH213340   6.562   5.137   6.039
 4466TIP3    H113341   6.574   5.074   6.111
 4466TIP3    H213342   6.540   5.084   5.963
 4467TIP3   OH213343   6.613   7.173   4.373
 4467TIP3    H113344   6.684   7.116   4.345
 4467TIP3    H213345   6.647   7.262   4.358
 4468TIP3   OH213346   3.344   6.792   4.991
 4468TIP3    H113347   3.423   6.755   4.953
 4468TIP3    H213348   3.364   6.798   5.085
 4469TIP3   OH213349   1.502   3.102   2.616
 4469TIP3    H113350   1.532   3.151   2.692
 4469TIP3    H213351   1.542   3.016   2.626
 4470TIP3   OH213352   2.088   6.601   1.345
 4470TIP3    H113353   2.181   6.609   1.363
 4470TIP3    H213354   2.082   6.571   1.254
 4471TIP3   OH213355   7.068   7.099   4.733
 4471TIP3    H113356   7.031   7.133   4.814
 4471TIP3    H213357   7.162   7.121   4.738
 4472TIP3   OH213358   7.856   1.978   1.871
 4472TIP3    H113359   7.925   2.000   1.809
 4472TIP3    H213360   7.900   1.926   1.939
 4473TIP3   OH213361   3.107   7.838   6.484
 4473TIP3    H113362   3.142   7.752   6.508
 4473TIP3    H213363   3.027   7.846   6.536
 4474TIP3   OH213364   4.649   1.245   4.461
 4474TIP3    H113365   4.613   1.157   4.476
 4474TIP3    H213366   4.665   1.279   4.548
 4475TIP3   OH213367   7.378   3.873   2.692
 4475TIP3    H113368   7.285   3.898   2.693
 4475TIP3    H213369   7.384   3.810   2.620
 4476TIP3   OH213370   1.163   1.238   1.981
 4476TIP3    H113371   1.076   1.233   2.020
 4476TIP3    H213372   1.163   1.168   1.915
 4477TIP3   OH213373   1.612   2.064   2.823
 4477TIP3    H113374   1.666   2.018   2.887
 4477TIP3    H213375   1.582   2.142   2.868
 4478TIP3   OH213376   0.006   7.129   1.444
 4478TIP3    H113377  -0.014   7.187   1.517
 4478TIP3    H213378   0.011   7.042   1.483
 4479TIP3   OH213379   5.816   0.179   5.264
 4479TIP3    H113380   5.825   0.245   5.334
 4479TIP3    H213381   5.864   0.216   5.191
 4480TIP3   OH213382   7.293   3.589   0.082
 4480TIP3    H113383   7.355   3.549   0.142
 4480TIP3    H213384   7.207   3.571   0.119
 4481TIP3   OH213385   5.790   4.392   0.830
 4481TIP3    H113386   5.748   4.416   0.747
 4481TIP3    H213387   5.753   4.453   0.893
 4482TIP3   OH213388   1.700   5.037   3.232
 4482TIP3    H113389   1.709   4.977   3.306
 4482TIP3    H213390   1.627   5.094   3.256
 4483TIP3   OH213391   2.459   4.038   0.864
 4483TIP3    H113392   2.443   4.100   0.793
 4483TIP3    H213393   2.539   4.070   0.907
 4484TIP3   OH213394   1.553   0.488   2.745
 4484TIP3    H113395   1.611   0.479   2.820
 4484TIP3    H213396   1.588   0.561   2.695
 4485TIP3   OH213397   5.144   1.133   1.163
 4485TIP3    H113398   5.177   1.152   1.075
 4485TIP3    H213399   5.210   1.169   1.222
 4486TIP3   OH213400   6.763   1.670   5.059
 4486TIP3    H113401   6.736   1.671   5.151
 4486TIP3    H213402   6.844   1.722   5.058
 4487TIP3   OH213403   4.229   6.193   0.299
 4487TIP3    H113404   4.299   6.208   0.236
 4487TIP3    H213405   4.154   6.240   0.262
 4488TIP3   OH213406   4.596   7.517   0.513
 4488TIP3    H113407   4.664   7.583   0.509
 4488TIP3    H213408   4.544   7.540   0.590
 4489TIP3   OH213409   0.608   5.572   1.675
 4489TIP3    H113410   0.583   5.504   1.613
 4489TIP3    H213411   0.686   5.612   1.636
 4490TIP3   OH213412   0.994   5.164   4.170
 4490TIP3    H113413   1.022   5.241   4.121
 4490TIP3    H213414   1.010   5.090   4.112
 4491TIP3   OH213415   6.581   1.863   4.783
 4491TIP3    H113416   6.564   1.776   4.748
 4491TIP3    H213417   6.635   1.906   4.718
 4492TIP3   OH213418   0.227   1.558   5.591
 4492TIP3    H113419   0.269   1.490   5.539
 4492TIP3    H213420   0.218   1.632   5.530
 4493TIP3   OH213421   7.791   1.654   6.715
 4493TIP3    H113422   7.730   1.580   6.711
 4493TIP3    H213423   7.771   1.706   6.637
 4494TIP3   OH213424   3.744   5.894   3.419
 4494TIP3    H113425   3.715   5.945   3.343
 4494TIP3    H213426   3.670   5.897   3.479
 4495TIP3   OH213427   2.821   5.772   3.100
 4495TIP3    H113428   2.749   5.709   3.105
 4495TIP3    H213429   2.800   5.827   3.025
 4496TIP3   OH213430   7.974   6.849   4.438
 4496TIP3    H113431   7.990   6.935   4.478
 4496TIP3    H213432   8.006   6.859   4.348
 4497TIP3   OH213433   8.263   3.057   6.215
 4497TIP3    H113434   8.216   3.003   6.152
 4497TIP3    H213435   8.213   3.049   6.296
 4498TIP3   OH213436   1.278   2.094   3.479
 4498TIP3    H113437   1.287   2.180   3.520
 4498TIP3    H213438   1.215   2.048   3.535
 4499TIP3   OH213439   1.308   2.324   6.419
 4499TIP3    H113440   1.225   2.315   6.465
 4499TIP3    H213441   1.283   2.337   6.327
 4500TIP3   OH213442   7.199   5.569   0.103
 4500TIP3    H113443   7.276   5.612   0.065
 4500TIP3    H213444   7.191   5.487   0.053
 4501TIP3   OH213445   1.694   5.070   6.568
 4501TIP3    H113446   1.651   5.134   6.511
 4501TIP3    H213447   1.649   4.988   6.550
 4502TIP3   OH213448   2.399   1.861   0.068
 4502TIP3    H113449   2.338   1.931   0.044
 4502TIP3    H213450   2.456   1.900   0.134
 4503TIP3   OH213451   3.534   5.631   3.732
 4503TIP3    H113452   3.491   5.660   3.813
 4503TIP3    H213453   3.537   5.536   3.739
 4504TIP3   OH213454   7.007   2.795   3.923
 4504TIP3    H113455   7.063   2.786   3.845
 4504TIP3    H213456   6.922   2.822   3.889
 4505TIP3   OH213457   8.071  -0.010   4.517
 4505TIP3    H113458   8.147   0.013   4.571
 4505TIP3    H213459   8.075   0.050   4.443
 4506TIP3   OH213460   0.570   5.110   5.054
 4506TIP3    H113461   0.626   5.034   5.069
 4506TIP3    H213462   0.518   5.117   5.134
 4507TIP3   OH213463   0.291   2.994   6.481
 4507TIP3    H113464   0.327   2.967   6.566
 4507TIP3    H213465   0.196   2.984   6.491
 4508TIP3   OH213466   6.149   5.603   5.269
 4508TIP3    H113467   6.204   5.532   5.237
 4508TIP3    H213468   6.101   5.565   5.343
 4509TIP3   OH213469   6.884   3.834   4.947
 4509TIP3    H113470   6.865   3.911   5.001
 4509TIP3    H213471   6.935   3.869   4.873
 4510TIP3   OH213472   6.570   2.187   4.005
 4510TIP3    H113473   6.544   2.234   3.926
 4510TIP3    H213474   6.609   2.254   4.061
 4511TIP3   OH213475   1.285   1.524   2.511
 4511TIP3    H113476   1.311   1.444   2.556
 4511TIP3    H213477   1.226   1.568   2.571
 4512TIP3   OH213478   2.140   3.966   2.804
 4512TIP3    H113479   2.157   3.881   2.846
 4512TIP3    H213480   2.087   4.014   2.868
 4513TIP3   OH213481   6.140   3.776   3.054
 4513TIP3    H113482   6.215   3.723   3.025
 4513TIP3    H213483   6.066   3.743   3.003
 4514TIP3   OH213484   1.504   2.761   3.465
 4514TIP3    H113485   1.417   2.723   3.476
 4514TIP3    H213486   1.514   2.819   3.541
 4515TIP3   OH213487   5.204   6.708   0.993
 4515TIP3    H113488   5.294   6.676   0.987
 4515TIP3    H213489   5.150   6.631   0.976
 4516TIP3   OH213490   4.816   0.255   5.022
 4516TIP3    H113491   4.857   0.198   4.957
 4516TIP3    H213492   4.858   0.340   5.008
 4517TIP3   OH213493   0.830   0.299   4.473
 4517TIP3    H113494   0.772   0.368   4.506
 4517TIP3    H213495   0.894   0.286   4.543
 4518TIP3   OH213496   1.613   3.902   1.496
 4518TIP3    H113497   1.611   3.972   1.562
 4518TIP3    H213498   1.706   3.893   1.474
 4519TIP3   OH213499   1.258   4.887   4.410
 4519TIP3    H113500   1.176   4.896   4.361
 4519TIP3    H213501   1.266   4.969   4.459
 4520TIP3   OH213502   5.709   1.734   3.826
 4520TIP3    H113503   5.753   1.697   3.749
 4520TIP3    H213504   5.780   1.763   3.882
 4521TIP3   OH213505   0.658   0.050   6.630
 4521TIP3    H113506   0.734   0.090   6.588
 4521TIP3    H213507   0.687  -0.038   6.654
 4522TIP3   OH213508   2.278   0.309   3.919
 4522TIP3    H113509   2.203   0.250   3.914
 4522TIP3    H213510   2.353   0.255   3.894
 4523TIP3   OH213511   6.449   3.070   1.302
 4523TIP3    H113512   6.461   2.977   1.323
 4523TIP3    H213513   6.454   3.114   1.387
 4524TIP3   OH213514   0.177   6.529   2.309
 4524TIP3    H113515   0.229   6.579   2.246
 4524TIP3    H213516   0.228   6.448   2.323
 4525TIP3   OH213517   5.072   1.049   6.376
 4525TIP3    H113518   5.129   0.977   6.348
 4525TIP3    H213519   5.092   1.061   6.469
 4526TIP3   OH213520   2.534   6.949   2.587
 4526TIP3    H113521   2.493   6.953   2.501
 4526TIP3    H213522   2.600   7.018   2.585
 4527TIP3   OH213523   1.617   7.676   0.509
 4527TIP3    H113524   1.630   7.595   0.558
 4527TIP3    H213525   1.665   7.742   0.559
 4528TIP3   OH213526   6.083   0.118   2.757
 4528TIP3    H113527   6.019   0.172   2.802
 4528TIP3    H213528   6.068   0.135   2.664
 4529TIP3   OH213529   1.816   5.680   2.912
 4529TIP3    H113530   1.733   5.728   2.914
 4529TIP3    H213531   1.879   5.741   2.873
 4530TIP3   OH213532   6.673   4.985   2.602
 4530TIP3    H113533   6.682   5.048   2.531
 4530TIP3    H213534   6.580   4.962   2.602
 4531TIP3   OH213535   4.362   6.414   3.162
 4531TIP3    H113536   4.329   6.432   3.250
 4531TIP3    H213537   4.350   6.320   3.151
 4532TIP3   OH213538   7.804   5.573   1.902
 4532TIP3    H113539   7.798   5.592   1.809
 4532TIP3    H213540   7.897   5.564   1.920
 4533TIP3   OH213541   7.811   0.087   4.380
 4533TIP3    H113542   7.856   0.127   4.455
 4533TIP3    H213543   7.820   0.150   4.310
 4534TIP3   OH213544   7.972   7.496   0.167
 4534TIP3    H113545   8.022   7.417   0.147
 4534TIP3    H213546   8.020   7.566   0.121
 4535TIP3   OH213547   3.621   6.581   2.508
 4535TIP3    H113548   3.678   6.508   2.482
 4535TIP3    H213549   3.551   6.540   2.558
 4536TIP3   OH213550   1.298   1.923   4.296
 4536TIP3    H113551   1.315   1.971   4.216
 4536TIP3    H213552   1.384   1.896   4.327
 4537TIP3   OH213553   0.526   7.112   3.548
 4537TIP3    H113554   0.581   7.079   3.619
 4537TIP3    H213555   0.531   7.045   3.480
 4538TIP3   OH213556   5.055   6.708   0.238
 4538TIP3    H113557   5.037   6.801   0.226
 4538TIP3    H213558   5.072   6.699   0.332
 4539TIP3   OH213559   5.150   4.205   4.642
 4539TIP3    H113560   5.111   4.122   4.670
 4539TIP3    H213561   5.228   4.180   4.593
 4540TIP3   OH213562   4.316   4.682   2.657
 4540TIP3    H113563   4.232   4.639   2.675
 4540TIP3    H213564   4.326   4.746   2.728
 4541TIP3   OH213565   5.176   2.615   0.481
 4541TIP3    H113566   5.111   2.562   0.525
 4541TIP3    H213567   5.134   2.701   0.470
 4542TIP3   OH213568   2.624   0.615   3.138
 4542TIP3    H113569   2.623   0.531   3.092
 4542TIP3    H213570   2.533   0.629   3.163
 4543TIP3   OH213571   2.572   0.163   4.721
 4543TIP3    H113572   2.549   0.237   4.778
 4543TIP3    H213573   2.558   0.086   4.775
 4544TIP3   OH213574   5.948   1.943   6.212
 4544TIP3    H113575   6.031   1.900   6.235
 4544TIP3    H213576   5.954   1.958   6.118
 4545TIP3   OH213577   1.776   3.961   4.172
 4545TIP3    H113578   1.869   3.942   4.183
 4545TIP3    H213579   1.773   4.028   4.103
 4546TIP3   OH213580   7.624   7.562   3.527
 4546TIP3    H113581   7.586   7.492   3.475
 4546TIP3    H213582   7.555   7.629   3.532
 4547TIP3   OH213583   4.459   5.596   1.763
 4547TIP3    H113584   4.525   5.548   1.813
 4547TIP3    H213585   4.451   5.547   1.681
 4548TIP3   OH213586   3.633   3.470   3.855
 4548TIP3    H113587   3.624   3.557   3.816
 4548TIP3    H213588   3.626   3.409   3.781
 4549TIP3   OH213589   4.033   4.752   2.171
 4549TIP3    H113590   4.013   4.837   2.210
 4549TIP3    H213591   3.984   4.689   2.224
 4550TIP3   OH213592   3.533   4.747   1.419
 4550TIP3    H113593   3.478   4.669   1.426
 4550TIP3    H213594   3.621   4.714   1.404
 4551TIP3   OH213595   3.761   3.253   0.396
 4551TIP3    H113596   3.836   3.247   0.337
 4551TIP3    H213597   3.797   3.238   0.483
 4552TIP3   OH213598   5.905   4.077   6.567
 4552TIP3    H113599   5.999   4.067   6.582
 4552TIP3    H213600   5.899   4.138   6.493
 4553TIP3   OH213601   6.882   5.391   1.435
 4553TIP3    H113602   6.902   5.358   1.523
 4553TIP3    H213603   6.827   5.468   1.451
 4554TIP3   OH213604   2.962   4.818   6.376
 4554TIP3    H113605   3.048   4.829   6.415
 4554TIP3    H213606   2.970   4.856   6.288
 4555TIP3   OH213607   8.035   2.531   3.188
 4555TIP3    H113608   7.957   2.547   3.135
 4555TIP3    H213609   8.001   2.506   3.274
 4556TIP3   OH213610   6.146   4.159   1.881
 4556TIP3    H113611   6.094   4.187   1.956
 4556TIP3    H213612   6.153   4.237   1.826
 4557TIP3   OH213613   2.416   3.077   2.994
 4557TIP3    H113614   2.374   3.037   3.071
 4557TIP3    H213615   2.344   3.092   2.933
 4558TIP3   OH213616   3.813   4.823   4.581
 4558TIP3    H113617   3.752   4.831   4.654
 4558TIP3    H213618   3.883   4.885   4.601
 4559TIP3   OH213619   0.727   2.859   1.651
 4559TIP3    H113620   0.673   2.856   1.731
 4559TIP3    H213621   0.797   2.921   1.672
 4560TIP3   OH213622   0.353   0.871   4.936
 4560TIP3    H113623   0.315   0.945   4.890
 4560TIP3    H213624   0.436   0.855   4.891
 4561TIP3   OH213625   3.685   0.547   3.937
 4561TIP3    H113626   3.732   0.548   4.020
 4561TIP3    H213627   3.753   0.543   3.871
 4562TIP3   OH213628   6.938   6.812   5.740
 4562TIP3    H113629   6.885   6.741   5.778
 4562TIP3    H213630   6.917   6.888   5.793
 4563TIP3   OH213631   7.284   3.854   5.461
 4563TIP3    H113632   7.329   3.770   5.448
 4563TIP3    H213633   7.335   3.917   5.411
 4564TIP3   OH213634   1.958   1.219   6.243
 4564TIP3    H113635   1.865   1.197   6.250
 4564TIP3    H213636   1.997   1.190   6.325
 4565TIP3   OH213637   5.895   3.628   3.416
 4565TIP3    H113638   5.983   3.664   3.424
 4565TIP3    H213639   5.902   3.561   3.348
 4566TIP3   OH213640   5.033   3.648   2.541
 4566TIP3    H113641   5.102   3.588   2.569
 4566TIP3    H213642   4.963   3.635   2.605
 4567TIP3   OH213643   1.339   2.491   3.187
 4567TIP3    H113644   1.254   2.529   3.207
 4567TIP3    H213645   1.365   2.447   3.268
 4568TIP3   OH213646   3.986   4.217   0.233
 4568TIP3    H113647   3.987   4.136   0.181
 4568TIP3    H213648   4.079   4.241   0.240
 4569TIP3   OH213649   3.809   0.636   2.128
 4569TIP3    H113650   3.735   0.575   2.135
 4569TIP3    H213651   3.878   0.585   2.085
 4570TIP3   OH213652   4.089   1.963   3.551
 4570TIP3    H113653   4.061   1.982   3.462
 4570TIP3    H213654   4.042   2.026   3.605
 4571TIP3   OH213655   3.371   2.406   3.838
 4571TIP3    H113656   3.351   2.495   3.868
 4571TIP3    H213657   3.288   2.371   3.809
 4572TIP3   OH213658   2.120   6.340   3.761
 4572TIP3    H113659   2.161   6.267   3.715
 4572TIP3    H213660   2.151   6.418   3.714
 4573TIP3   OH213661   5.559   3.423   5.332
 4573TIP3    H113662   5.581   3.465   5.415
 4573TIP3    H213663   5.467   3.398   5.341
 4574TIP3   OH213664   5.354   6.356   0.309
 4574TIP3    H113665   5.362   6.425   0.243
 4574TIP3    H213666   5.271   6.374   0.353
 4575TIP3   OH213667   0.976   5.754   3.444
 4575TIP3    H113668   1.053   5.799   3.478
 4575TIP3    H213669   0.934   5.818   3.387
 4576TIP3   OH213670   4.744   0.361   3.981
 4576TIP3    H113671   4.764   0.454   3.990
 4576TIP3    H213672   4.749   0.345   3.886
 4577TIP3   OH213673   1.234   3.547   5.753
 4577TIP3    H113674   1.153   3.593   5.774
 4577TIP3    H213675   1.205   3.460   5.724
 4578TIP3   OH213676   1.657   2.226   4.764
 4578TIP3    H113677   1.575   2.177   4.767
 4578TIP3    H213678   1.680   2.229   4.671
 4579TIP3   OH213679   5.620   3.638   1.076
 4579TIP3    H113680   5.631   3.591   0.993
 4579TIP3    H213681   5.688   3.601   1.133
 4580TIP3   OH213682   6.362   6.468   0.781
 4580TIP3    H113683   6.270   6.456   0.804
 4580TIP3    H213684   6.402   6.382   0.796
 4581TIP3   OH213685   1.069   7.012   2.566
 4581TIP3    H113686   0.999   7.070   2.597
 4581TIP3    H213687   1.036   6.924   2.584
 4582TIP3   OH213688   7.100   5.696   4.717
 4582TIP3    H113689   7.175   5.644   4.691
 4582TIP3    H213690   7.104   5.774   4.661
 4583TIP3   OH213691   5.552   1.544   0.402
 4583TIP3    H113692   5.541   1.599   0.479
 4583TIP3    H213693   5.631   1.577   0.360
 4584TIP3   OH213694   0.116   0.676   2.147
 4584TIP3    H113695   0.198   0.680   2.197
 4584TIP3    H213696   0.132   0.610   2.080
 4585TIP3   OH213697   2.144   5.010   1.536
 4585TIP3    H113698   2.115   5.029   1.626
 4585TIP3    H213699   2.107   4.923   1.517
 4586TIP3   OH213700   5.277   3.068   0.575
 4586TIP3    H113701   5.247   3.138   0.633
 4586TIP3    H213702   5.360   3.039   0.613
 4587TIP3   OH213703   6.318   4.800   6.243
 4587TIP3    H113704   6.233   4.834   6.270
 4587TIP3    H213705   6.353   4.757   6.322
 4588TIP3   OH213706   3.772   0.469   0.283
 4588TIP3    H113707   3.837   0.438   0.220
 4588TIP3    H213708   3.818   0.469   0.367
 4589TIP3   OH213709   6.315   7.171   3.887
 4589TIP3    H113710   6.408   7.164   3.866
 4589TIP3    H213711   6.271   7.178   3.802
 4590TIP3   OH213712   7.230   1.397   2.620
 4590TIP3    H113713   7.153   1.436   2.663
 4590TIP3    H213714   7.304   1.425   2.674
 4591TIP3   OH213715   5.948   1.626   5.447
 4591TIP3    H113716   6.033   1.584   5.435
 4591TIP3    H213717   5.896   1.562   5.495
 4592TIP3   OH213718   6.930   1.241   6.436
 4592TIP3    H113719   7.001   1.228   6.499
 4592TIP3    H213720   6.955   1.318   6.386
 4593TIP3   OH213721   1.709   6.568   2.516
 4593TIP3    H113722   1.696   6.596   2.607
 4593TIP3    H213723   1.803   6.573   2.502
 4594TIP3   OH213724   3.701   6.913   0.594
 4594TIP3    H113725   3.789   6.906   0.558
 4594TIP3    H213726   3.711   6.966   0.673
 4595TIP3   OH213727   4.625   2.104   1.945
 4595TIP3    H113728   4.594   2.013   1.949
 4595TIP3    H213729   4.685   2.112   2.019
 4596TIP3   OH213730   5.086   1.196   5.572
 4596TIP3    H113731   5.120   1.224   5.657
 4596TIP3    H213732   5.046   1.275   5.534
 4597TIP3   OH213733   0.458   3.061   5.409
 4597TIP3    H113734   0.498   2.975   5.426
 4597TIP3    H213735   0.532   3.118   5.388
 4598TIP3   OH213736   0.706   5.742   1.382
 4598TIP3    H113737   0.681   5.829   1.414
 4598TIP3    H213738   0.783   5.718   1.433
 4599TIP3   OH213739   2.539   4.506   3.424
 4599TIP3    H113740   2.445   4.521   3.412
 4599TIP3    H213741   2.548   4.411   3.422
 4600TIP3   OH213742   2.024   4.624   5.308
 4600TIP3    H113743   1.936   4.618   5.344
 4600TIP3    H213744   2.077   4.567   5.365
 4601TIP3   OH213745   4.550   5.399   1.069
 4601TIP3    H113746   4.632   5.359   1.098
 4601TIP3    H213747   4.502   5.328   1.026
 4602TIP3   OH213748   3.287   6.569   3.305
 4602TIP3    H113749   3.197   6.561   3.337
 4602TIP3    H213750   3.288   6.519   3.223
 4603TIP3   OH213751   7.691   1.415   0.529
 4603TIP3    H113752   7.704   1.374   0.615
 4603TIP3    H213753   7.628   1.484   0.544
 4604TIP3   OH213754   0.163   5.799  -0.018
 4604TIP3    H113755   0.211   5.882  -0.028
 4604TIP3    H213756   0.137   5.798   0.074
 4605TIP3   OH213757   7.779   0.593   4.546
 4605TIP3    H113758   7.827   0.661   4.593
 4605TIP3    H213759   7.742   0.638   4.470
 4606TIP3   OH213760   6.661   3.752   2.201
 4606TIP3    H113761   6.615   3.669   2.191
 4606TIP3    H213762   6.591   3.817   2.207
 4607TIP3   OH213763   1.267   7.178   5.528
 4607TIP3    H113764   1.312   7.235   5.466
 4607TIP3    H213765   1.181   7.217   5.540
 4608TIP3   OH213766   5.580   2.702   4.559
 4608TIP3    H113767   5.608   2.712   4.468
 4608TIP3    H213768   5.508   2.639   4.555
 4609TIP3   OH213769   3.491   2.077   3.396
 4609TIP3    H113770   3.515   1.998   3.444
 4609TIP3    H213771   3.501   2.053   3.304
 4610TIP3   OH213772   7.589   4.090   6.291
 4610TIP3    H113773   7.521   4.050   6.346
 4610TIP3    H213774   7.542   4.118   6.212
 4611TIP3   OH213775   4.627   6.394   3.811
 4611TIP3    H113776   4.578   6.333   3.867
 4611TIP3    H213777   4.662   6.339   3.741
 4612TIP3   OH213778   7.293   4.779   6.336
 4612TIP3    H113779   7.322   4.691   6.312
 4612TIP3    H213780   7.352   4.806   6.405
 4613TIP3   OH213781   4.448   2.759   2.118
 4613TIP3    H113782   4.385   2.690   2.139
 4613TIP3    H213783   4.423   2.788   2.031
 4614TIP3   OH213784   7.241   3.240   5.763
 4614TIP3    H113785   7.238   3.285   5.847
 4614TIP3    H213786   7.304   3.290   5.711
 4615TIP3   OH213787   0.863   0.587   4.898
 4615TIP3    H113788   0.870   0.534   4.819
 4615TIP3    H213789   0.900   0.532   4.967
 4616TIP3   OH213790   3.106   3.975   2.996
 4616TIP3    H113791   3.169   3.963   2.925
 4616TIP3    H213792   3.143   3.925   3.069
 4617TIP3   OH213793   0.708   0.561   3.691
 4617TIP3    H113794   0.619   0.537   3.714
 4617TIP3    H213795   0.733   0.628   3.755
 4618TIP3   OH213796   7.367   6.163   6.437
 4618TIP3    H113797   7.298   6.156   6.503
 4618TIP3    H213798   7.367   6.078   6.394
 4619TIP3   OH213799   0.628   4.106   4.456
 4619TIP3    H113800   0.596   4.064   4.376
 4619TIP3    H213801   0.702   4.051   4.483
 4620TIP3   OH213802   4.850   3.039   5.344
 4620TIP3    H113803   4.785   3.099   5.380
 4620TIP3    H213804   4.921   3.039   5.410
 4621TIP3   OH213805   7.150   3.994   3.232
 4621TIP3    H113806   7.166   3.972   3.141
 4621TIP3    H213807   7.155   4.090   3.235
 4622TIP3   OH213808   7.755   3.947   5.036
 4622TIP3    H113809   7.779   4.039   5.021
 4622TIP3    H213810   7.684   3.931   4.974
 4623TIP3   OH213811   2.579   5.630   3.061
 4623TIP3    H113812   2.540   5.690   3.124
 4623TIP3    H213813   2.526   5.551   3.067
 4624TIP3   OH213814   7.676   0.569   2.987
 4624TIP3    H113815   7.760   0.587   2.945
 4624TIP3    H213816   7.611   0.610   2.930
 4625TIP3   OH213817   4.832   5.750   3.401
 4625TIP3    H113818   4.924   5.777   3.409
 4625TIP3    H213819   4.824   5.721   3.310
 4626TIP3   OH213820   8.115   7.261   6.331
 4626TIP3    H113821   8.143   7.185   6.282
 4626TIP3    H213822   8.083   7.322   6.265
 4627TIP3   OH213823   8.237   7.153   3.866
 4627TIP3    H113824   8.313   7.194   3.908
 4627TIP3    H213825   8.266   7.064   3.846
 4628TIP3   OH213826   2.493   5.465   1.304
 4628TIP3    H113827   2.522   5.556   1.302
 4628TIP3    H213828   2.572   5.414   1.285
 4629TIP3   OH213829   3.005   0.258   5.835
 4629TIP3    H113830   2.992   0.257   5.930
 4629TIP3    H213831   3.072   0.325   5.821
 4630TIP3   OH213832   8.079   4.742   6.317
 4630TIP3    H113833   8.038   4.705   6.239
 4630TIP3    H213834   8.169   4.759   6.291
 4631TIP3   OH213835   7.626   3.487   0.947
 4631TIP3    H113836   7.571   3.410   0.962
 4631TIP3    H213837   7.709   3.466   0.990
 4632TIP3   OH213838   3.963   7.489   4.630
 4632TIP3    H113839   3.994   7.398   4.633
 4632TIP3    H213840   3.868   7.483   4.640
 4633TIP3   OH213841   5.808   6.162   2.872
 4633TIP3    H113842   5.879   6.224   2.890
 4633TIP3    H213843   5.778   6.184   2.784
 4634TIP3   OH213844   3.463   1.437   5.557
 4634TIP3    H113845   3.550   1.426   5.595
 4634TIP3    H213846   3.459   1.374   5.486
 4635TIP3   OH213847   2.337   2.990   3.251
 4635TIP3    H113848   2.267   2.925   3.249
 4635TIP3    H213849   2.412   2.944   3.290
 4636TIP3   OH213850   7.467   1.098   2.145
 4636TIP3    H113851   7.433   1.052   2.221
 4636TIP3    H213852   7.395   1.097   2.082
 4637TIP3   OH213853   2.407   7.752   5.493
 4637TIP3    H113854   2.358   7.813   5.549
 4637TIP3    H213855   2.496   7.787   5.491
 4638TIP3   OH213856   6.329   4.453   3.215
 4638TIP3    H113857   6.403   4.393   3.204
 4638TIP3    H213858   6.270   4.407   3.275
 4639TIP3   OH213859   2.216   7.408   1.711
 4639TIP3    H113860   2.136   7.357   1.695
 4639TIP3    H213861   2.199   7.452   1.795
 4640TIP3   OH213862   5.446   1.155   3.776
 4640TIP3    H113863   5.438   1.114   3.690
 4640TIP3    H213864   5.366   1.132   3.822
 4641TIP3   OH213865   5.019   0.107   2.785
 4641TIP3    H113866   5.023   0.197   2.755
 4641TIP3    H213867   4.928   0.094   2.812
 4642TIP3   OH213868   4.618   0.597   4.937
 4642TIP3    H113869   4.552   0.573   4.872
 4642TIP3    H213870   4.567   0.628   5.013
 4643TIP3   OH213871   4.676   5.042   3.905
 4643TIP3    H113872   4.592   5.050   3.860
 4643TIP3    H213873   4.682   4.949   3.927
 4644TIP3   OH213874   7.983   7.703   4.908
 4644TIP3    H113875   7.976   7.736   4.998
 4644TIP3    H213876   7.979   7.608   4.917
 4645TIP3   OH213877   0.673   2.082   5.047
 4645TIP3    H113878   0.750   2.025   5.055
 4645TIP3    H213879   0.614   2.035   4.988
 4646TIP3   OH213880   1.786   4.227   4.517
 4646TIP3    H113881   1.758   4.242   4.427
 4646TIP3    H213882   1.803   4.314   4.553
 4647TIP3   OH213883   2.778   4.110   1.443
 4647TIP3    H113884   2.718   4.054   1.493
 4647TIP3    H213885   2.723   4.180   1.409
 4648TIP3   OH213886   6.307   5.152   1.971
 4648TIP3    H113887   6.319   5.204   2.050
 4648TIP3    H213888   6.299   5.216   1.901
 4649TIP3   OH213889   4.702   6.584   5.746
 4649TIP3    H113890   4.722   6.506   5.797
 4649TIP3    H213891   4.767   6.586   5.677
 4650TIP3   OH213892   4.557   0.557   1.784
 4650TIP3    H113893   4.625   0.491   1.792
 4650TIP3    H213894   4.562   0.586   1.692
 4651TIP3   OH213895   7.279   7.212   0.079
 4651TIP3    H113896   7.304   7.141   0.138
 4651TIP3    H213897   7.339   7.204   0.004
 4652TIP3   OH213898   5.426   6.145   5.981
 4652TIP3    H113899   5.457   6.227   5.944
 4652TIP3    H213900   5.502   6.108   6.027
 4653TIP3   OH213901   6.261   7.697   0.900
 4653TIP3    H113902   6.168   7.706   0.880
 4653TIP3    H213903   6.296   7.646   0.828
 4654TIP3   OH213904   3.444   4.925   0.916
 4654TIP3    H113905   3.456   4.915   1.011
 4654TIP3    H213906   3.350   4.932   0.904
 4655TIP3   OH213907   6.225   5.848   2.995
 4655TIP3    H113908   6.141   5.805   2.980
 4655TIP3    H213909   6.288   5.777   3.006
 4656TIP3   OH213910   8.245   0.529   1.680
 4656TIP3    H113911   8.198   0.526   1.764
 4656TIP3    H213912   8.263   0.437   1.660
 4657TIP3   OH213913   0.219   4.226   3.920
 4657TIP3    H113914   0.223   4.151   3.861
 4657TIP3    H213915   0.218   4.187   4.008
 4658TIP3   OH213916   7.410   0.369   0.429
 4658TIP3    H113917   7.458   0.402   0.505
 4658TIP3    H213918   7.405   0.274   0.443
 4659TIP3   OH213919   7.441   0.069   3.796
 4659TIP3    H113920   7.442   0.082   3.701
 4659TIP3    H213921   7.352   0.039   3.815
 4660TIP3   OH213922   2.155   7.510   4.443
 4660TIP3    H113923   2.061   7.522   4.427
 4660TIP3    H213924   2.191   7.599   4.439
 4661TIP3   OH213925   4.318   1.351   5.358
 4661TIP3    H113926   4.263   1.413   5.406
 4661TIP3    H213927   4.369   1.406   5.298
 4662TIP3   OH213928   6.355   4.386   3.801
 4662TIP3    H113929   6.440   4.362   3.763
 4662TIP3    H213930   6.331   4.467   3.756
 4663TIP3   OH213931   7.709   4.872   5.625
 4663TIP3    H113932   7.692   4.942   5.562
 4663TIP3    H213933   7.660   4.898   5.703
 4664TIP3   OH213934   8.219   6.691   5.050
 4664TIP3    H113935   8.210   6.602   5.017
 4664TIP3    H213936   8.134   6.731   5.034
 4665TIP3   OH213937   6.005   2.586   6.549
 4665TIP3    H113938   5.934   2.524   6.529
 4665TIP3    H213939   5.964   2.651   6.606
 4666TIP3   OH213940   3.553   2.584   1.482
 4666TIP3    H113941   3.629   2.642   1.486
 4666TIP3    H213942   3.572   2.523   1.411
 4667TIP3   OH213943   3.839   4.889   6.069
 4667TIP3    H113944   3.812   4.978   6.095
 4667TIP3    H213945   3.829   4.887   5.974
 4668TIP3   OH213946   6.381   3.674   2.916
 4668TIP3    H113947   6.439   3.615   2.964
 4668TIP3    H213948   6.421   3.683   2.830
 4669TIP3   OH213949   7.816   7.095   1.764
 4669TIP3    H113950   7.855   7.081   1.678
 4669TIP3    H213951   7.738   7.148   1.747
 4670TIP3   OH213952   2.603   7.372   3.439
 4670TIP3    H113953   2.596   7.462   3.409
 4670TIP3    H213954   2.676   7.373   3.501
 4671TIP3   OH213955   1.035   5.734   6.758
 4671TIP3    H113956   1.044   5.710   6.666
 4671TIP3    H213957   1.044   5.829   6.759
 4672TIP3   OH213958   0.705   5.253   4.265
 4672TIP3    H113959   0.676   5.286   4.180
 4672TIP3    H213960   0.800   5.252   4.260
 4673TIP3   OH213961  -0.014   2.641   4.962
 4673TIP3    H113962   0.075   2.648   4.928
 4673TIP3    H213963  -0.010   2.568   5.025
 4674TIP3   OH213964   4.052   4.945   5.833
 4674TIP3    H113965   3.990   5.016   5.819
 4674TIP3    H213966   4.118   4.958   5.764
 4675TIP3   OH213967   8.231   6.650   6.723
 4675TIP3    H113968   8.275   6.582   6.672
 4675TIP3    H213969   8.147   6.664   6.679
 4676TIP3   OH213970   6.702   7.101   6.624
 4676TIP3    H113971   6.678   7.116   6.533
 4676TIP3    H213972   6.638   7.037   6.656
 4677TIP3   OH213973   2.663   3.923   0.368
 4677TIP3    H113974   2.620   3.866   0.304
 4677TIP3    H213975   2.751   3.887   0.377
 4678TIP3   OH213976   7.611   5.590   1.278
 4678TIP3    H113977   7.553   5.658   1.311
 4678TIP3    H213978   7.582   5.510   1.322
 4679TIP3   OH213979  -0.025   1.243   1.955
 4679TIP3    H113980   0.057   1.243   2.004
 4679TIP3    H213981  -0.025   1.159   1.909
 4680TIP3   OH213982   2.622   6.667   2.492
 4680TIP3    H113983   2.620   6.593   2.432
 4680TIP3    H213984   2.530   6.692   2.502
 4681TIP3   OH213985   1.932   4.852   1.046
 4681TIP3    H113986   1.867   4.874   0.979
 4681TIP3    H213987   1.886   4.793   1.105
 4682TIP3   OH213988   5.076   3.213   2.723
 4682TIP3    H113989   4.985   3.191   2.704
 4682TIP3    H213990   5.105   3.146   2.785
 4683TIP3   OH213991   1.325   5.992   5.290
 4683TIP3    H113992   1.321   6.085   5.268
 4683TIP3    H213993   1.295   5.947   5.211
 4684TIP3   OH213994   2.531   4.271   5.057
 4684TIP3    H113995   2.622   4.301   5.063
 4684TIP3    H213996   2.492   4.297   5.141
 4685TIP3   OH213997   6.072   0.101   6.638
 4685TIP3    H113998   6.006   0.072   6.576
 4685TIP3    H213999   6.145   0.041   6.627
 4686TIP3   OH214000   4.423   2.085   5.864
 4686TIP3    H114001   4.473   2.137   5.926
 4686TIP3    H214002   4.467   2.001   5.862
 4687TIP3   OH214003   1.689   0.638   4.725
 4687TIP3    H114004   1.714   0.653   4.816
 4687TIP3    H214005   1.718   0.548   4.707
 4688TIP3   OH214006   6.248   3.485   1.813
 4688TIP3    H114007   6.206   3.421   1.754
 4688TIP3    H214008   6.227   3.570   1.774
 4689TIP3   OH214009   6.739   3.973   4.542
 4689TIP3    H114010   6.825   4.013   4.532
 4689TIP3    H214011   6.706   3.964   4.453
 4690TIP3   OH214012   1.617   0.036   0.970
 4690TIP3    H114013   1.555   0.043   1.043
 4690TIP3    H214014   1.641  -0.057   0.967
 4691TIP3   OH214015   5.361   4.276   5.366
 4691TIP3    H114016   5.323   4.208   5.422
 4691TIP3    H214017   5.448   4.243   5.343
 4692TIP3   OH214018   1.493   2.710   3.098
 4692TIP3    H114019   1.572   2.709   3.151
 4692TIP3    H214020   1.430   2.658   3.147
 4693TIP3   OH214021   2.169   3.217   1.531
 4693TIP3    H114022   2.213   3.181   1.608
 4693TIP3    H214023   2.230   3.203   1.459
 4694TIP3   OH214024   5.684   2.298   5.247
 4694TIP3    H114025   5.673   2.275   5.339
 4694TIP3    H214026   5.709   2.390   5.248
 4695TIP3   OH214027   1.397   7.347   6.405
 4695TIP3    H114028   1.409   7.350   6.310
 4695TIP3    H214029   1.462   7.285   6.436
 4696TIP3   OH214030   4.174   0.929   2.860
 4696TIP3    H114031   4.180   0.910   2.767
 4696TIP3    H214032   4.159   0.844   2.901
 4697TIP3   OH214033   4.589   5.007   4.222
 4697TIP3    H114034   4.519   5.033   4.162
 4697TIP3    H214035   4.648   5.083   4.225
 4698TIP3   OH214036   2.151   6.943   2.248
 4698TIP3    H114037   2.231   6.912   2.206
 4698TIP3    H214038   2.152   7.038   2.235
 4699TIP3   OH214039   7.261   5.793   4.509
 4699TIP3    H114040   7.192   5.858   4.525
 4699TIP3    H214041   7.343   5.842   4.518
 4700TIP3   OH214042   3.003   5.543   2.108
 4700TIP3    H114043   3.041   5.547   2.020
 4700TIP3    H214044   2.957   5.459   2.110
 4701TIP3   OH214045   3.509   2.314   5.168
 4701TIP3    H114046   3.560   2.318   5.248
 4701TIP3    H214047   3.488   2.221   5.158
 4702TIP3   OH214048   3.481   7.105   5.711
 4702TIP3    H114049   3.476   7.057   5.628
 4702TIP3    H214050   3.464   7.196   5.687
 4703TIP3   OH214051   5.321   2.050   1.845
 4703TIP3    H114052   5.355   2.010   1.925
 4703TIP3    H214053   5.360   2.137   1.844
 4704TIP3   OH214054   7.011   5.876   3.236
 4704TIP3    H114055   7.058   5.888   3.319
 4704TIP3    H214056   7.057   5.803   3.194
 4705TIP3   OH214057   5.394   2.933   4.012
 4705TIP3    H114058   5.450   2.856   4.009
 4705TIP3    H214059   5.434   2.989   4.078
 4706TIP3   OH214060   7.362   2.438   4.688
 4706TIP3    H114061   7.439   2.460   4.741
 4706TIP3    H214062   7.394   2.378   4.621
 4707TIP3   OH214063   0.625   4.967   3.954
 4707TIP3    H114064   0.538   4.958   3.915
 4707TIP3    H214065   0.608   4.981   4.047
 4708TIP3   OH214066   0.946   7.125   5.401
 4708TIP3    H114067   0.968   7.042   5.358
 4708TIP3    H214068   0.973   7.192   5.339
 4709TIP3   OH214069   2.657   2.672   2.086
 4709TIP3    H114070   2.624   2.724   2.013
 4709TIP3    H214071   2.579   2.653   2.138
 4710TIP3   OH214072   3.277   1.271   3.965
 4710TIP3    H114073   3.308   1.280   3.875
 4710TIP3    H214074   3.240   1.183   3.970
 4711TIP3   OH214075   0.185   5.618   6.701
 4711TIP3    H114076   0.181   5.561   6.778
 4711TIP3    H214077   0.275   5.607   6.669
 4712TIP3   OH214078   3.682   6.725   3.202
 4712TIP3    H114079   3.758   6.677   3.169
 4712TIP3    H214080   3.659   6.784   3.130
 4713TIP3   OH214081   2.099   6.287   4.319
 4713TIP3    H114082   2.081   6.319   4.231
 4713TIP3    H214083   2.028   6.321   4.373
 4714TIP3   OH214084   2.873   5.991   3.271
 4714TIP3    H114085   2.938   6.047   3.229
 4714TIP3    H214086   2.883   5.906   3.227
 4715TIP3   OH214087   7.937   6.734   1.700
 4715TIP3    H114088   8.015   6.679   1.690
 4715TIP3    H214089   7.951   6.806   1.638
 4716TIP3   OH214090   0.953   2.245   5.362
 4716TIP3    H114091   1.048   2.242   5.354
 4716TIP3    H214092   0.935   2.202   5.446
 4717TIP3   OH214093   7.955   6.979   5.864
 4717TIP3    H114094   7.942   6.940   5.951
 4717TIP3    H214095   8.035   6.937   5.832
 4718TIP3   OH214096   1.011   0.924   4.280
 4718TIP3    H114097   0.933   0.870   4.268
 4718TIP3    H214098   1.059   0.881   4.351
 4719TIP3   OH214099   7.359   1.967   4.120
 4719TIP3    H114100   7.272   1.932   4.135
 4719TIP3    H214101   7.401   1.967   4.206
 4720TIP3   OH214102   8.245   5.743   2.412
 4720TIP3    H114103   8.211   5.807   2.350
 4720TIP3    H214104   8.335   5.726   2.383
 4721TIP3   OH214105   2.651   2.036   4.257
 4721TIP3    H114106   2.633   2.104   4.321
 4721TIP3    H214107   2.706   1.973   4.303
 4722TIP3   OH214108   2.358   4.601   1.833
 4722TIP3    H114109   2.329   4.657   1.905
 4722TIP3    H214110   2.448   4.627   1.816
 4723TIP3   OH214111   5.818   3.505   5.731
 4723TIP3    H114112   5.879   3.566   5.773
 4723TIP3    H214113   5.873   3.451   5.675
 4724TIP3   OH214114   5.768   4.175   3.241
 4724TIP3    H114115   5.727   4.099   3.282
 4724TIP3    H214116   5.696   4.236   3.226
 4725TIP3   OH214117   3.277   6.372   0.412
 4725TIP3    H114118   3.351   6.346   0.357
 4725TIP3    H214119   3.238   6.446   0.365
 4726TIP3   OH214120   0.987   1.675   2.375
 4726TIP3    H114121   0.924   1.603   2.380
 4726TIP3    H214122   0.942   1.749   2.416
 4727TIP3   OH214123   4.545   4.135   6.283
 4727TIP3    H114124   4.486   4.122   6.358
 4727TIP3    H214125   4.590   4.217   6.303
 4728TIP3   OH214126   2.285   2.806   4.385
 4728TIP3    H114127   2.213   2.844   4.434
 4728TIP3    H214128   2.338   2.880   4.357
 4729TIP3   OH214129   4.225   5.129   2.327
 4729TIP3    H114130   4.187   5.048   2.292
 4729TIP3    H214131   4.300   5.099   2.379
 4730TIP3   OH214132   6.882   3.167   6.514
 4730TIP3    H114133   6.975   3.142   6.512
 4730TIP3    H214134   6.837   3.096   6.469
 4731TIP3   OH214135   4.694   6.035   1.639
 4731TIP3    H114136   4.651   5.999   1.717
 4731TIP3    H214137   4.787   6.032   1.660
 4732TIP3   OH214138   6.508   1.030   2.996
 4732TIP3    H114139   6.475   1.091   3.062
 4732TIP3    H214140   6.511   0.945   3.041
 4733TIP3   OH214141   2.590   1.936   2.576
 4733TIP3    H114142   2.627   1.945   2.489
 4733TIP3    H214143   2.663   1.907   2.631
 4734TIP3   OH214144   7.239   4.103   5.259
 4734TIP3    H114145   7.173   4.034   5.250
 4734TIP3    H214146   7.322   4.057   5.252
 4735TIP3   OH214147   2.404   2.757   2.191
 4735TIP3    H114148   2.381   2.664   2.187
 4735TIP3    H214149   2.429   2.772   2.282
 4736TIP3   OH214150   5.999   6.394   1.576
 4736TIP3    H114151   5.985   6.300   1.586
 4736TIP3    H214152   5.917   6.427   1.541
 4737TIP3   OH214153   1.653   5.032   1.754
 4737TIP3    H114154   1.675   4.964   1.818
 4737TIP3    H214155   1.563   5.013   1.729
 4738TIP3   OH214156   3.117   4.279   6.519
 4738TIP3    H114157   3.205   4.257   6.488
 4738TIP3    H214158   3.070   4.305   6.439
 4739TIP3   OH214159   4.872   4.695   5.664
 4739TIP3    H114160   4.895   4.667   5.753
 4739TIP3    H214161   4.871   4.614   5.614
 4740TIP3   OH214162   7.650   0.059   2.186
 4740TIP3    H114163   7.612   0.131   2.236
 4740TIP3    H214164   7.735   0.092   2.157
 4741TIP3   OH214165   1.881   2.775   6.480
 4741TIP3    H114166   1.855   2.844   6.420
 4741TIP3    H214167   1.813   2.774   6.547
 4742TIP3   OH214168   4.322   4.641   4.377
 4742TIP3    H114169   4.242   4.659   4.426
 4742TIP3    H214170   4.353   4.557   4.412
 4743TIP3   OH214171   5.931   4.211   5.326
 4743TIP3    H114172   5.982   4.155   5.384
 4743TIP3    H214173   5.996   4.258   5.274
 4744TIP3   OH214174   7.749   3.376   0.561
 4744TIP3    H114175   7.794   3.355   0.643
 4744TIP3    H214176   7.745   3.472   0.559
 4745TIP3   OH214177   5.757   0.626   4.024
 4745TIP3    H114178   5.772   0.665   3.937
 4745TIP3    H214179   5.828   0.562   4.033
 4746TIP3   OH214180   8.124   0.178   6.067
 4746TIP3    H114181   8.167   0.263   6.076
 4746TIP3    H214182   8.065   0.172   6.142
 4747TIP3   OH214183   1.758   6.583   5.331
 4747TIP3    H114184   1.742   6.670   5.366
 4747TIP3    H214185   1.776   6.597   5.238
 4748TIP3   OH214186   7.717   5.664   4.138
 4748TIP3    H114187   7.687   5.751   4.111
 4748TIP3    H214188   7.689   5.657   4.229
 4749TIP3   OH214189   8.294   6.248   1.415
 4749TIP3    H114190   8.200   6.259   1.396
 4749TIP3    H214191   8.320   6.173   1.362
 4750TIP3   OH214192   7.689   7.472   6.523
 4750TIP3    H114193   7.603   7.494   6.489
 4750TIP3    H214194   7.718   7.398   6.469
 4751TIP3   OH214195   4.743   3.030   6.597
 4751TIP3    H114196   4.708   2.958   6.648
 4751TIP3    H214197   4.777   2.988   6.517
 4752TIP3   OH214198   1.410   3.070   3.046
 4752TIP3    H114199   1.340   3.005   3.055
 4752TIP3    H214200   1.436   3.090   3.136
 4753TIP3   OH214201   6.822   1.269   2.604
 4753TIP3    H114202   6.896   1.230   2.558
 4753TIP3    H214203   6.826   1.232   2.692
 4754TIP3   OH214204   1.920   4.026   0.953
 4754TIP3    H114205   1.848   4.089   0.960
 4754TIP3    H214206   1.933   4.016   0.859
 4755TIP3   OH214207   3.875   5.259   2.768
 4755TIP3    H114208   3.838   5.174   2.745
 4755TIP3    H214209   3.833   5.321   2.708
 4756TIP3   OH214210   2.890   5.526   6.487
 4756TIP3    H114211   2.932   5.543   6.571
 4756TIP3    H214212   2.822   5.592   6.480
 4757TIP3   OH214213   5.963   6.447   2.069
 4757TIP3    H114214   5.970   6.377   2.134
 4757TIP3    H214215   5.953   6.527   2.122
 4758TIP3   OH214216   1.703   0.491   2.426
 4758TIP3    H114217   1.621   0.486   2.376
 4758TIP3    H214218   1.689   0.564   2.486
 4759TIP3   OH214219   6.487   3.387   1.736
 4759TIP3    H114220   6.420   3.445   1.772
 4759TIP3    H214221   6.506   3.325   1.807
 4760TIP3   OH214222   5.522   3.222   3.868
 4760TIP3    H114223   5.548   3.305   3.827
 4760TIP3    H214224   5.593   3.203   3.930
 4761TIP3   OH214225   1.518   4.886   4.213
 4761TIP3    H114226   1.573   4.962   4.233
 4761TIP3    H214227   1.508   4.841   4.297
 4762TIP3   OH214228   0.075   1.909   3.274
 4762TIP3    H114229   0.168   1.899   3.290
 4762TIP3    H214230   0.058   1.859   3.194
 4763TIP3   OH214231   3.128   6.101   0.278
 4763TIP3    H114232   3.101   6.174   0.222
 4763TIP3    H214233   3.223   6.108   0.281
 4764TIP3   OH214234   4.059   5.544   5.329
 4764TIP3    H114235   4.030   5.631   5.303
 4764TIP3    H214236   3.979   5.499   5.354
 4765TIP3   OH214237   0.139   5.014   2.381
 4765TIP3    H114238   0.153   4.939   2.324
 4765TIP3    H214239   0.090   5.077   2.327
 4766TIP3   OH214240   1.941   6.961   4.283
 4766TIP3    H114241   2.012   6.933   4.224
 4766TIP3    H214242   1.970   6.933   4.370
 4767TIP3   OH214243   4.364   4.582   6.523
 4767TIP3    H114244   4.366   4.508   6.585
 4767TIP3    H214245   4.456   4.607   6.513
 4768TIP3   OH214246   5.823   5.686  -0.025
 4768TIP3    H114247   5.762   5.711   0.044
 4768TIP3    H214248   5.895   5.642   0.020
 4769TIP3   OH214249   5.658   4.496   0.600
 4769TIP3    H114250   5.574   4.494   0.553
 4769TIP3    H214251   5.683   4.589   0.598
 4770TIP3   OH214252   4.824   5.325   5.358
 4770TIP3    H114253   4.766   5.258   5.393
 4770TIP3    H214254   4.774   5.406   5.365
 4771TIP3   OH214255   6.001   5.533   0.137
 4771TIP3    H114256   6.026   5.442   0.124
 4771TIP3    H214257   6.082   5.583   0.129
 4772TIP3   OH214258   4.019   2.631   3.452
 4772TIP3    H114259   3.982   2.671   3.373
 4772TIP3    H214260   4.066   2.554   3.420
 4773TIP3   OH214261   6.543   3.537   5.305
 4773TIP3    H114262   6.567   3.459   5.255
 4773TIP3    H214263   6.620   3.594   5.299
 4774TIP3   OH214264   2.226   6.687   6.245
 4774TIP3    H114265   2.276   6.737   6.180
 4774TIP3    H214266   2.279   6.690   6.324
 4775TIP3   OH214267   3.723   6.996   0.865
 4775TIP3    H114268   3.767   6.960   0.943
 4775TIP3    H214269   3.673   7.071   0.898
 4776TIP3   OH214270   7.246   6.806   2.092
 4776TIP3    H114271   7.201   6.857   2.159
 4776TIP3    H214272   7.336   6.838   2.093
 4777TIP3   OH214273   2.621   3.623   1.232
 4777TIP3    H114274   2.645   3.639   1.141
 4777TIP3    H214275   2.560   3.550   1.229
 4778TIP3   OH214276   5.602   2.701   3.529
 4778TIP3    H114277   5.634   2.628   3.475
 4778TIP3    H214278   5.675   2.763   3.531
 4779TIP3   OH214279   1.214   3.848   6.184
 4779TIP3    H114280   1.305   3.862   6.211
 4779TIP3    H214281   1.167   3.926   6.215
 4780TIP3   OH214282   0.234   4.259   0.094
 4780TIP3    H114283   0.153   4.228   0.134
 4780TIP3    H214284   0.274   4.314   0.161
 4781TIP3   OH214285   6.308   5.334   5.516
 4781TIP3    H114286   6.337   5.382   5.438
 4781TIP3    H214287   6.388   5.299   5.554
 4782TIP3   OH214288   0.906   4.577   5.374
 4782TIP3    H114289   0.988   4.569   5.326
 4782TIP3    H214290   0.930   4.609   5.460
 4783TIP3   OH214291   5.140   0.696   3.146
 4783TIP3    H114292   5.231   0.664   3.142
 4783TIP3    H214293   5.093   0.626   3.191
 4784TIP3   OH214294   3.979   7.278   3.605
 4784TIP3    H114295   4.002   7.248   3.517
 4784TIP3    H214296   3.918   7.350   3.591
 4785TIP3   OH214297   4.006   3.721   2.637
 4785TIP3    H114298   4.065   3.797   2.639
 4785TIP3    H214299   4.006   3.693   2.545
 4786TIP3   OH214300   2.198   4.711   1.607
 4786TIP3    H114301   2.253   4.657   1.663
 4786TIP3    H214302   2.257   4.777   1.572
 4787TIP3   OH214303   2.904   5.710   1.439
 4787TIP3    H114304   2.956   5.631   1.448
 4787TIP3    H214305   2.906   5.750   1.526
 4788TIP3   OH214306   0.794   0.597   2.975
 4788TIP3    H114307   0.778   0.513   2.933
 4788TIP3    H214308   0.827   0.575   3.062
 4789TIP3   OH214309   2.702   5.183   2.154
 4789TIP3    H114310   2.678   5.102   2.198
 4789TIP3    H214311   2.779   5.215   2.202
 4790TIP3   OH214312   5.362   0.872   0.407
 4790TIP3    H114313   5.378   0.820   0.328
 4790TIP3    H214314   5.312   0.948   0.376
 4791TIP3   OH214315   4.178   2.546   6.354
 4791TIP3    H114316   4.219   2.516   6.435
 4791TIP3    H214317   4.148   2.465   6.311
 4792TIP3   OH214318   1.566   2.766   0.723
 4792TIP3    H114319   1.594   2.777   0.632
 4792TIP3    H214320   1.617   2.830   0.772
 4793TIP3   OH214321   0.207   3.136   5.469
 4793TIP3    H114322   0.167   3.080   5.403
 4793TIP3    H214323   0.299   3.108   5.472
 4794TIP3   OH214324   5.572   5.501   5.099
 4794TIP3    H114325   5.619   5.447   5.162
 4794TIP3    H214326   5.589   5.460   5.015
 4795TIP3   OH214327   2.173   6.251   1.974
 4795TIP3    H114328   2.148   6.195   2.047
 4795TIP3    H214329   2.090   6.284   1.939
 4796TIP3   OH214330   1.393   5.714   3.424
 4796TIP3    H114331   1.487   5.702   3.417
 4796TIP3    H214332   1.371   5.778   3.356
 4797TIP3   OH214333   7.813   4.729   1.622
 4797TIP3    H114334   7.806   4.804   1.563
 4797TIP3    H214335   7.861   4.762   1.698
 4798TIP3   OH214336   3.800   4.333   4.339
 4798TIP3    H114337   3.827   4.421   4.366
 4798TIP3    H214338   3.856   4.275   4.390
 4799TIP3   OH214339   2.773   1.458   2.936
 4799TIP3    H114340   2.745   1.488   2.849
 4799TIP3    H214341   2.699   1.407   2.969
 4800TIP3   OH214342   6.935   4.140   3.492
 4800TIP3    H114343   6.926   4.066   3.431
 4800TIP3    H214344   7.028   4.163   3.488
 4801TIP3   OH214345   6.736   2.376   5.442
 4801TIP3    H114346   6.654   2.353   5.398
 4801TIP3    H214347   6.779   2.291   5.456
 4802TIP3   OH214348   3.399   4.581   1.719
 4802TIP3    H114349   3.422   4.594   1.811
 4802TIP3    H214350   3.312   4.621   1.710
 4803TIP3   OH214351   6.833   6.753   0.342
 4803TIP3    H114352   6.790   6.695   0.279
 4803TIP3    H214353   6.796   6.839   0.325
 4804TIP3   OH214354   5.363   6.819   3.037
 4804TIP3    H114355   5.343   6.741   2.986
 4804TIP3    H214356   5.423   6.789   3.105
 4805TIP3   OH214357   5.070   3.068   2.488
 4805TIP3    H114358   5.112   3.122   2.555
 4805TIP3    H214359   5.143   3.023   2.445
 4806TIP3   OH214360   3.341   3.097   0.793
 4806TIP3    H114361   3.436   3.102   0.804
 4806TIP3    H214362   3.315   3.185   0.765
 4807TIP3   OH214363   2.459   6.881   4.059
 4807TIP3    H114364   2.532   6.824   4.082
 4807TIP3    H214365   2.500   6.967   4.042
 4808TIP3   OH214366   2.651   1.401   5.717
 4808TIP3    H114367   2.728   1.371   5.766
 4808TIP3    H214368   2.643   1.493   5.740
 4809TIP3   OH214369   1.624   2.946   1.573
 4809TIP3    H114370   1.570   3.006   1.521
 4809TIP3    H214371   1.592   2.957   1.663
 4810TIP3   OH214372   0.146   0.401   2.761
 4810TIP3    H114373   0.218   0.439   2.712
 4810TIP3    H214374   0.186   0.369   2.842
 4811TIP3   OH214375   3.646   3.811   3.021
 4811TIP3    H114376   3.687   3.780   3.102
 4811TIP3    H214377   3.706   3.783   2.952
 4812TIP3   OH214378   6.827   5.494   6.460
 4812TIP3    H114379   6.739   5.475   6.493
 4812TIP3    H214380   6.835   5.439   6.382
 4813TIP3   OH214381   6.426   3.729   5.700
 4813TIP3    H114382   6.484   3.654   5.689
 4813TIP3    H214383   6.474   3.788   5.758
 4814TIP3   OH214384   5.158   6.978   2.253
 4814TIP3    H114385   5.074   6.931   2.248
 4814TIP3    H214386   5.139   7.065   2.218
 4815TIP3   OH214387   2.706   2.409   3.277
 4815TIP3    H114388   2.634   2.347   3.265
 4815TIP3    H214389   2.695   2.442   3.366
 4816TIP3   OH214390   6.500   0.633   1.657
 4816TIP3    H114391   6.471   0.672   1.739
 4816TIP3    H214392   6.595   0.629   1.664
 4817TIP3   OH214393   1.220   6.405   0.466
 4817TIP3    H114394   1.184   6.324   0.430
 4817TIP3    H214395   1.143   6.461   0.480
 4818TIP3   OH214396   5.397   3.422   6.412
 4818TIP3    H114397   5.437   3.506   6.391
 4818TIP3    H214398   5.308   3.444   6.440
 4819TIP3   OH214399   3.429   6.303   4.856
 4819TIP3    H114400   3.486   6.349   4.919
 4819TIP3    H214401   3.345   6.295   4.901
 4820TIP3   OH214402   6.356   1.140   6.618
 4820TIP3    H114403   6.265   1.134   6.589
 4820TIP3    H214404   6.375   1.054   6.655
 4821TIP3   OH214405   6.392   4.802   4.524
 4821TIP3    H114406   6.437   4.885   4.509
 4821TIP3    H214407   6.462   4.737   4.530
 4822TIP3   OH214408   0.261   5.836   2.002
 4822TIP3    H114409   0.174   5.809   1.972
 4822TIP3    H214410   0.317   5.826   1.926
 4823TIP3   OH214411   6.502   3.330   0.068
 4823TIP3    H114412   6.552   3.411   0.075
 4823TIP3    H214413   6.522   3.297  -0.019
 4824TIP3   OH214414   3.431   0.911   1.593
 4824TIP3    H114415   3.421   0.941   1.502
 4824TIP3    H214416   3.451   0.991   1.642
 4825TIP3   OH214417   5.664   3.890   5.828
 4825TIP3    H114418   5.742   3.933   5.792
 4825TIP3    H214419   5.629   3.839   5.755
 4826TIP3   OH214420   8.235   5.159   6.277
 4826TIP3    H114421   8.270   5.140   6.364
 4826TIP3    H214422   8.275   5.243   6.253
 4827TIP3   OH214423   4.043   3.646   5.782
 4827TIP3    H114424   3.954   3.639   5.746
 4827TIP3    H214425   4.075   3.556   5.787
 4828TIP3   OH214426   0.857   2.100   2.027
 4828TIP3    H114427   0.901   2.037   2.085
 4828TIP3    H214428   0.929   2.148   1.986
 4829TIP3   OH214429   5.964   6.569   1.793
 4829TIP3    H114430   5.995   6.499   1.736
 4829TIP3    H214431   5.964   6.529   1.881
 4830TIP3   OH214432   4.381   5.749   3.681
 4830TIP3    H114433   4.444   5.738   3.609
 4830TIP3    H214434   4.345   5.661   3.695
 4831TIP3   OH214435   5.362   6.914   2.412
 4831TIP3    H114436   5.306   6.944   2.341
 4831TIP3    H214437   5.424   6.985   2.427
 4832TIP3   OH214438   7.456   0.538   5.228
 4832TIP3    H114439   7.476   0.464   5.286
 4832TIP3    H214440   7.407   0.599   5.284
 4833TIP3   OH214441   3.546   6.568   5.308
 4833TIP3    H114442   3.506   6.643   5.263
 4833TIP3    H214443   3.475   6.530   5.360
 4834TIP3   OH214444   6.113   2.802   2.561
 4834TIP3    H114445   6.088   2.895   2.565
 4834TIP3    H214446   6.202   2.799   2.596
 4835TIP3   OH214447   7.476   5.340   0.791
 4835TIP3    H114448   7.476   5.396   0.868
 4835TIP3    H214449   7.396   5.363   0.744
 4836TIP3   OH214450   3.766   1.815   1.037
 4836TIP3    H114451   3.841   1.805   1.096
 4836TIP3    H214452   3.691   1.784   1.088
 4837TIP3   OH214453   4.597   3.240   1.455
 4837TIP3    H114454   4.672   3.261   1.400
 4837TIP3    H214455   4.580   3.320   1.505
 4838TIP3   OH214456   1.569   2.457   6.633
 4838TIP3    H114457   1.559   2.509   6.713
 4838TIP3    H214458   1.663   2.442   6.626
 4839TIP3   OH214459   7.295   6.910   0.629
 4839TIP3    H114460   7.250   6.849   0.571
 4839TIP3    H214461   7.253   6.995   0.613
 4840TIP3   OH214462   7.858   3.896   0.597
 4840TIP3    H114463   7.767   3.875   0.577
 4840TIP3    H214464   7.862   3.898   0.693
 4841TIP3   OH214465   0.355   1.609   4.517
 4841TIP3    H114466   0.283   1.546   4.518
 4841TIP3    H214467   0.331   1.672   4.449
 4842TIP3   OH214468   3.665   7.694   1.603
 4842TIP3    H114469   3.585   7.645   1.581
 4842TIP3    H214470   3.721   7.629   1.646
 4843TIP3   OH214471   4.266   4.431   2.858
 4843TIP3    H114472   4.260   4.376   2.936
 4843TIP3    H214473   4.230   4.378   2.788
 4844TIP3   OH214474   6.989   3.364   2.926
 4844TIP3    H114475   6.909   3.407   2.895
 4844TIP3    H214476   7.051   3.435   2.939
 4845TIP3   OH214477   6.370   6.514   1.773
 4845TIP3    H114478   6.365   6.607   1.750
 4845TIP3    H214479   6.342   6.510   1.864
 4846TIP3   OH214480   4.609   0.272   6.109
 4846TIP3    H114481   4.521   0.250   6.140
 4846TIP3    H214482   4.594   0.309   6.022
 4847TIP3   OH214483   1.431   6.436   5.603
 4847TIP3    H114484   1.375   6.507   5.573
 4847TIP3    H214485   1.514   6.478   5.624
 4848TIP3   OH214486   0.251   5.544   1.131
 4848TIP3    H114487   0.229   5.499   1.049
 4848TIP3    H214488   0.207   5.629   1.124
 4849TIP3   OH214489   3.145   4.770   3.469
 4849TIP3    H114490   3.134   4.819   3.550
 4849TIP3    H214491   3.097   4.821   3.404
 4850TIP3   OH214492   4.801   6.835   4.079
 4850TIP3    H114493   4.770   6.794   4.160
 4850TIP3    H214494   4.845   6.765   4.032
 4851TIP3   OH214495   7.576   6.203   3.497
 4851TIP3    H114496   7.543   6.128   3.446
 4851TIP3    H214497   7.644   6.242   3.442
 4852TIP3   OH214498   7.386   4.397   0.668
 4852TIP3    H114499   7.393   4.490   0.647
 4852TIP3    H214500   7.469   4.376   0.710
 4853TIP3   OH214501   7.696   5.316   0.577
 4853TIP3    H114502   7.624   5.367   0.612
 4853TIP3    H214503   7.660   5.273   0.499
 4854TIP3   OH214504   6.896   0.218   2.110
 4854TIP3    H114505   6.969   0.244   2.055
 4854TIP3    H214506   6.910   0.263   2.193
 4855TIP3   OH214507   1.272   2.801   4.879
 4855TIP3    H114508   1.257   2.779   4.787
 4855TIP3    H214509   1.194   2.850   4.904
 4856TIP3   OH214510   3.456   0.708   1.933
 4856TIP3    H114511   3.369   0.710   1.973
 4856TIP3    H214512   3.516   0.729   2.005
 4857TIP3   OH214513   5.511   5.424   1.038
 4857TIP3    H114514   5.444   5.460   1.097
 4857TIP3    H214515   5.558   5.500   1.006
 4858TIP3   OH214516   2.080   4.127   0.659
 4858TIP3    H114517   2.008   4.179   0.623
 4858TIP3    H214518   2.044   4.038   0.666
 4859TIP3   OH214519   6.209   6.410   2.697
 4859TIP3    H114520   6.195   6.361   2.779
 4859TIP3    H214521   6.144   6.481   2.701
 4860TIP3   OH214522   4.762   1.765   2.693
 4860TIP3    H114523   4.678   1.748   2.651
 4860TIP3    H214524   4.789   1.850   2.659
 4861TIP3   OH214525   7.916   6.044   2.027
 4861TIP3    H114526   7.882   6.106   1.962
 4861TIP3    H214527   7.859   6.056   2.103
 4862TIP3   OH214528   4.188   6.058   5.957
 4862TIP3    H114529   4.204   6.145   5.994
 4862TIP3    H214530   4.259   6.004   5.990
 4863TIP3   OH214531   2.254   7.625   3.221
 4863TIP3    H114532   2.262   7.720   3.215
 4863TIP3    H214533   2.310   7.592   3.151
 4864TIP3   OH214534   5.574   3.743   2.931
 4864TIP3    H114535   5.521   3.747   3.010
 4864TIP3    H214536   5.593   3.835   2.911
 4865TIP3   OH214537   1.610   0.205   0.770
 4865TIP3    H114538   1.582   0.120   0.804
 4865TIP3    H214539   1.644   0.252   0.846
 4866TIP3   OH214540   4.798   5.273   3.982
 4866TIP3    H114541   4.751   5.193   3.961
 4866TIP3    H214542   4.779   5.289   4.074
 4867TIP3   OH214543   4.499   6.663   0.549
 4867TIP3    H114544   4.528   6.714   0.625
 4867TIP3    H214545   4.428   6.608   0.582
 4868TIP3   OH214546   4.613   0.304   5.306
 4868TIP3    H114547   4.646   0.346   5.385
 4868TIP3    H214548   4.691   0.269   5.263
 4869TIP3   OH214549   4.272   0.796   3.370
 4869TIP3    H114550   4.197   0.744   3.400
 4869TIP3    H214551   4.327   0.733   3.323
 4870TIP3   OH214552   8.213   1.462   3.312
 4870TIP3    H114553   8.192   1.439   3.402
 4870TIP3    H214554   8.192   1.555   3.306
 4871TIP3   OH214555   4.725   4.444   1.433
 4871TIP3    H114556   4.783   4.506   1.476
 4871TIP3    H214557   4.761   4.358   1.455
 4872TIP3   OH214558   3.156   0.899   1.607
 4872TIP3    H114559   3.251   0.886   1.602
 4872TIP3    H214560   3.132   0.936   1.522
 4873TIP3   OH214561   6.007   3.435   4.035
 4873TIP3    H114562   5.979   3.431   3.943
 4873TIP3    H214563   6.082   3.376   4.040
 4874TIP3   OH214564   5.063   1.578   2.533
 4874TIP3    H114565   5.142   1.611   2.492
 4874TIP3    H214566   5.094   1.513   2.597
 4875TIP3   OH214567   2.754   4.851   1.197
 4875TIP3    H114568   2.761   4.758   1.177
 4875TIP3    H214569   2.679   4.857   1.257
 4876TIP3   OH214570   7.968   0.686   4.102
 4876TIP3    H114571   8.031   0.629   4.058
 4876TIP3    H214572   7.891   0.685   4.046
 4877TIP3   OH214573   4.944   6.477   5.285
 4877TIP3    H114574   4.951   6.557   5.234
 4877TIP3    H214575   4.968   6.407   5.224
 4878TIP3   OH214576   3.994   0.554   5.702
 4878TIP3    H114577   4.047   0.561   5.781
 4878TIP3    H214578   4.016   0.631   5.651
 4879TIP3   OH214579   6.312   6.136   6.588
 4879TIP3    H114580   6.349   6.084   6.515
 4879TIP3    H214581   6.323   6.080   6.664
 4880TIP3   OH214582   1.514   4.185   2.057
 4880TIP3    H114583   1.425   4.152   2.042
 4880TIP3    H214584   1.503   4.279   2.070
 4881TIP3   OH214585   6.312   2.701   5.602
 4881TIP3    H114586   6.282   2.772   5.546
 4881TIP3    H214587   6.233   2.648   5.618
 4882TIP3   OH214588   3.448   4.422   6.705
 4882TIP3    H114589   3.417   4.361   6.638
 4882TIP3    H214590   3.442   4.508   6.664
 4883TIP3   OH214591   3.708   2.971   6.298
 4883TIP3    H114592   3.776   2.922   6.345
 4883TIP3    H214593   3.750   3.052   6.271
 4884TIP3   OH214594   7.772   7.831   4.234
 4884TIP3    H114595   7.754   7.755   4.289
 4884TIP3    H214596   7.821   7.796   4.160
 4885TIP3   OH214597   6.404   4.092   3.643
 4885TIP3    H114598   6.481   4.121   3.692
 4885TIP3    H214599   6.338   4.074   3.711
 4886TIP3   OH214600   0.276   5.190   3.352
 4886TIP3    H114601   0.337   5.222   3.286
 4886TIP3    H214602   0.262   5.098   3.329
 4887TIP3   OH214603   4.632   6.842   6.768
 4887TIP3    H114604   4.667   6.780   6.832
 4887TIP3    H214605   4.694   6.837   6.695
 4888TIP3   OH214606   7.208   6.610   0.177
 4888TIP3    H114607   7.288   6.561   0.193
 4888TIP3    H214608   7.196   6.607   0.082
 4889TIP3   OH214609   2.233   0.164   3.528
 4889TIP3    H114610   2.277   0.079   3.534
 4889TIP3    H214611   2.295   0.226   3.565
 4890TIP3   OH214612   6.439   1.909   0.554
 4890TIP3    H114613   6.452   1.991   0.506
 4890TIP3    H214614   6.495   1.917   0.631
 4891TIP3   OH214615   0.724   4.725   4.742
 4891TIP3    H114616   0.703   4.794   4.805
 4891TIP3    H214617   0.817   4.739   4.722
 4892TIP3   OH214618   2.947   3.168   3.687
 4892TIP3    H114619   2.854   3.151   3.703
 4892TIP3    H214620   2.972   3.103   3.621
 4893TIP3   OH214621   3.181   5.065   6.233
 4893TIP3    H114622   3.205   5.148   6.276
 4893TIP3    H214623   3.145   5.092   6.149
 4894TIP3   OH214624   0.093   4.908   0.000
 4894TIP3    H114625   0.131   4.995   0.016
 4894TIP3    H214626   0.167   4.848   0.013
 4895TIP3   OH214627   5.631   3.174   0.845
 4895TIP3    H114628   5.654   3.267   0.846
 4895TIP3    H214629   5.625   3.151   0.753
 4896TIP3   OH214630   8.166   3.812   2.196
 4896TIP3    H114631   8.083   3.849   2.165
 4896TIP3    H214632   8.233   3.867   2.156
 4897TIP3   OH214633   2.959   2.503   4.435
 4897TIP3    H114634   2.998   2.496   4.522
 4897TIP3    H214635   2.899   2.429   4.430
 4898TIP3   OH214636   4.356   1.849   4.110
 4898TIP3    H114637   4.404   1.798   4.175
 4898TIP3    H214638   4.423   1.887   4.054
 4899TIP3   OH214639   7.213   5.671   3.450
 4899TIP3    H114640   7.221   5.763   3.473
 4899TIP3    H214641   7.135   5.641   3.496
 4900TIP3   OH214642   8.286   1.604   0.957
 4900TIP3    H114643   8.261   1.517   0.926
 4900TIP3    H214644   8.214   1.660   0.929
 4901TIP3   OH214645   7.698   5.505   6.075
 4901TIP3    H114646   7.626   5.514   6.137
 4901TIP3    H214647   7.749   5.585   6.085
 4902TIP3   OH214648   2.570   4.307   1.367
 4902TIP3    H114649   2.563   4.369   1.440
 4902TIP3    H214650   2.553   4.360   1.289
 4903TIP3   OH214651   1.987   5.763   2.131
 4903TIP3    H114652   2.071   5.808   2.135
 4903TIP3    H214653   1.999   5.683   2.184
 4904TIP3   OH214654   1.257   0.170   1.410
 4904TIP3    H114655   1.332   0.228   1.425
 4904TIP3    H214656   1.197   0.223   1.357
 4905TIP3   OH214657   1.996   1.916   4.081
 4905TIP3    H114658   2.044   1.833   4.091
 4905TIP3    H214659   2.063   1.984   4.093
 4906TIP3   OH214660   2.623   0.961   0.898
 4906TIP3    H114661   2.696   0.993   0.846
 4906TIP3    H214662   2.622   0.866   0.882
 4907TIP3   OH214663   7.774   4.437   6.662
 4907TIP3    H114664   7.786   4.451   6.756
 4907TIP3    H214665   7.720   4.358   6.656
 4908TIP3   OH214666   4.855   2.178   4.790
 4908TIP3    H114667   4.868   2.237   4.716
 4908TIP3    H214668   4.885   2.228   4.867
 4909TIP3   OH214669   3.856   6.853   3.011
 4909TIP3    H114670   3.895   6.884   2.929
 4909TIP3    H214671   3.928   6.856   3.074
 4910TIP3   OH214672   6.140   3.757   2.508
 4910TIP3    H114673   6.114   3.813   2.435
 4910TIP3    H214674   6.135   3.814   2.584
 4911TIP3   OH214675   7.053   1.463   2.352
 4911TIP3    H114676   7.056   1.501   2.439
 4911TIP3    H214677   7.129   1.405   2.348
 4912TIP3   OH214678   1.382   1.777   1.854
 4912TIP3    H114679   1.406   1.779   1.947
 4912TIP3    H214680   1.376   1.869   1.829
 4913TIP3   OH214681   4.032   2.310   6.215
 4913TIP3    H114682   4.079   2.227   6.213
 4913TIP3    H214683   3.994   2.319   6.127
 4914TIP3   OH214684   3.748   5.511   6.272
 4914TIP3    H114685   3.721   5.602   6.261
 4914TIP3    H214686   3.667   5.464   6.289
 4915TIP3   OH214687   2.127   2.341   5.005
 4915TIP3    H114688   2.103   2.261   5.052
 4915TIP3    H214689   2.050   2.363   4.953
 4916TIP3   OH214690   6.193   1.117   5.650
 4916TIP3    H114691   6.144   1.121   5.568
 4916TIP3    H214692   6.175   1.201   5.693
 4917TIP3   OH214693   6.724   6.987   2.480
 4917TIP3    H114694   6.745   6.961   2.570
 4917TIP3    H214695   6.740   6.908   2.428
 4918TIP3   OH214696   7.219   7.206   3.010
 4918TIP3    H114697   7.265   7.230   2.929
 4918TIP3    H214698   7.128   7.229   2.995
 4919TIP3   OH214699   0.477   2.234   5.774
 4919TIP3    H114700   0.506   2.163   5.832
 4919TIP3    H214701   0.459   2.191   5.690
 4920TIP3   OH214702   7.546   2.810  -0.021
 4920TIP3    H114703   7.511   2.811   0.069
 4920TIP3    H214704   7.603   2.887  -0.025
 4921TIP3   OH214705   0.164   4.752   2.573
 4921TIP3    H114706   0.077   4.789   2.586
 4921TIP3    H214707   0.202   4.806   2.504
 4922TIP3   OH214708   1.280   1.128   0.485
 4922TIP3    H114709   1.248   1.214   0.459
 4922TIP3    H214710   1.341   1.145   0.556
 4923TIP3   OH214711   4.309   5.116   6.111
 4923TIP3    H114712   4.402   5.111   6.134
 4923TIP3    H214713   4.305   5.086   6.020
 4924TIP3   OH214714   7.081   2.591   6.412
 4924TIP3    H114715   7.019   2.616   6.481
 4924TIP3    H214716   7.043   2.513   6.372
 4925TIP3   OH214717   3.166   0.915   4.403
 4925TIP3    H114718   3.224   0.945   4.473
 4925TIP3    H214719   3.172   0.984   4.337
 4926TIP3   OH214720   2.714   3.115   1.210
 4926TIP3    H114721   2.743   3.110   1.302
 4926TIP3    H214722   2.749   3.037   1.169
 4927TIP3   OH214723   1.715   4.668   1.573
 4927TIP3    H114724   1.717   4.711   1.487
 4927TIP3    H214725   1.769   4.725   1.629
 4928TIP3   OH214726   4.658   1.757   6.776
 4928TIP3    H114727   4.683   1.812   6.703
 4928TIP3    H214728   4.695   1.671   6.755
 4929TIP3   OH214729   5.931   6.848   6.700
 4929TIP3    H114730   6.026   6.853   6.710
 4929TIP3    H214731   5.906   6.932   6.661
 4930TIP3   OH214732   6.462   0.380   1.985
 4930TIP3    H114733   6.556   0.369   1.970
 4930TIP3    H214734   6.455   0.460   2.037
 4931TIP3   OH214735   5.766   4.363   4.800
 4931TIP3    H114736   5.685   4.366   4.851
 4931TIP3    H214737   5.780   4.453   4.771
 4932TIP3   OH214738   0.755   6.990   0.748
 4932TIP3    H114739   0.693   7.015   0.817
 4932TIP3    H214740   0.712   7.015   0.667
 4933TIP3   OH214741   5.886   4.000   5.669
 4933TIP3    H114742   5.937   4.071   5.631
 4933TIP3    H214743   5.951   3.944   5.712
 4934TIP3   OH214744   4.071   3.981   3.045
 4934TIP3    H114745   4.045   3.946   2.960
 4934TIP3    H214746   4.143   3.924   3.073
 4935TIP3   OH214747   3.158   1.486   4.131
 4935TIP3    H114748   3.227   1.438   4.086
 4935TIP3    H214749   3.119   1.541   4.064
 4936TIP3   OH214750   7.014   3.334   4.575
 4936TIP3    H114751   7.106   3.361   4.572
 4936TIP3    H214752   6.965   3.411   4.548
 4937TIP3   OH214753   5.424   1.540   2.936
 4937TIP3    H114754   5.466   1.468   2.889
 4937TIP3    H214755   5.342   1.554   2.890
 4938TIP3   OH214756   4.444   5.086   2.471
 4938TIP3    H114757   4.460   4.992   2.483
 4938TIP3    H214758   4.495   5.109   2.393
 4939TIP3   OH214759   6.109   4.783   4.855
 4939TIP3    H114760   6.197   4.809   4.882
 4939TIP3    H214761   6.116   4.771   4.761
 4940TIP3   OH214762   3.901   0.413   6.389
 4940TIP3    H114763   3.939   0.501   6.386
 4940TIP3    H214764   3.807   0.428   6.387
 4941TIP3   OH214765   7.380   1.167   5.241
 4941TIP3    H114766   7.307   1.210   5.284
 4941TIP3    H214767   7.353   1.076   5.233
 4942TIP3   OH214768   2.697   2.801   0.898
 4942TIP3    H114769   2.668   2.863   0.831
 4942TIP3    H214770   2.729   2.857   0.969
 4943TIP3   OH214771   2.141   3.460   3.480
 4943TIP3    H114772   2.107   3.456   3.570
 4943TIP3    H214773   2.211   3.525   3.484
 4944TIP3   OH214774   3.047   4.495   5.256
 4944TIP3    H114775   3.111   4.565   5.253
 4944TIP3    H214776   3.005   4.497   5.170
 4945TIP3   OH214777   4.255   4.037   1.355
 4945TIP3    H114778   4.258   4.128   1.384
 4945TIP3    H214779   4.205   4.040   1.273
 4946TIP3   OH214780   1.257   4.201   4.506
 4946TIP3    H114781   1.286   4.203   4.415
 4946TIP3    H214782   1.297   4.279   4.546
 4947TIP3   OH214783   6.290   7.258   0.060
 4947TIP3    H114784   6.243   7.335   0.027
 4947TIP3    H214785   6.371   7.256   0.010
 4948TIP3   OH214786   3.636   7.334   5.132
 4948TIP3    H114787   3.700   7.297   5.193
 4948TIP3    H214788   3.591   7.258   5.096
 4949TIP3   OH214789   4.271   4.197   5.215
 4949TIP3    H114790   4.321   4.119   5.191
 4949TIP3    H214791   4.334   4.252   5.262
 4950TIP3   OH214792   5.319   5.160   0.284
 4950TIP3    H114793   5.334   5.096   0.215
 4950TIP3    H214794   5.368   5.127   0.359
 4951TIP3   OH214795   3.167   7.761   0.594
 4951TIP3    H114796   3.198   7.836   0.646
 4951TIP3    H214797   3.084   7.791   0.556
 4952TIP3   OH214798   1.699   7.334   4.136
 4952TIP3    H114799   1.736   7.339   4.048
 4952TIP3    H214800   1.748   7.400   4.186
 4953TIP3   OH214801   3.063   3.027   6.123
 4953TIP3    H114802   3.146   3.070   6.141
 4953TIP3    H214803   3.055   3.030   6.027
 4954TIP3   OH214804   5.219   2.575   2.627
 4954TIP3    H114805   5.291   2.565   2.690
 4954TIP3    H214806   5.241   2.514   2.556
 4955TIP3   OH214807   2.522   5.668   3.566
 4955TIP3    H114808   2.557   5.717   3.640
 4955TIP3    H214809   2.576   5.695   3.492
 4956TIP3   OH214810   3.039   7.198   3.345
 4956TIP3    H114811   3.042   7.258   3.270
 4956TIP3    H214812   3.003   7.250   3.416
 4957TIP3   OH214813   4.725   3.346   1.889
 4957TIP3    H114814   4.654   3.348   1.953
 4957TIP3    H214815   4.755   3.437   1.883
 4958TIP3   OH214816   1.954   6.637   4.391
 4958TIP3    H114817   2.022   6.604   4.333
 4958TIP3    H214818   1.987   6.721   4.421
 4959TIP3   OH214819   6.199   3.658   1.031
 4959TIP3    H114820   6.276   3.711   1.050
 4959TIP3    H214821   6.215   3.624   0.943
 4960TIP3   OH214822   1.290   0.257   3.366
 4960TIP3    H114823   1.325   0.272   3.453
 4960TIP3    H214824   1.325   0.172   3.340
 4961TIP3   OH214825   2.104   3.471   0.260
 4961TIP3    H114826   2.109   3.539   0.193
 4961TIP3    H214827   2.014   3.476   0.292
 4962TIP3   OH214828   7.736   4.446   2.938
 4962TIP3    H114829   7.678   4.383   2.980
 4962TIP3    H214830   7.805   4.462   3.002
 4963TIP3   OH214831   5.731   5.073   1.760
 4963TIP3    H114832   5.729   5.122   1.842
 4963TIP3    H214833   5.818   5.090   1.724
 4964TIP3   OH214834   8.067   0.720   3.789
 4964TIP3    H114835   7.977   0.751   3.783
 4964TIP3    H214836   8.093   0.701   3.699
 4965TIP3   OH214837   6.390   6.921   5.741
 4965TIP3    H114838   6.368   6.982   5.812
 4965TIP3    H214839   6.322   6.935   5.675
 4966TIP3   OH214840   3.076   2.221   1.348
 4966TIP3    H114841   2.992   2.226   1.394
 4966TIP3    H214842   3.101   2.312   1.334
 4967TIP3   OH214843   6.824   4.052   5.119
 4967TIP3    H114844   6.750   4.091   5.165
 4967TIP3    H214845   6.890   4.039   5.187
 4968TIP3   OH214846   7.516   2.788   2.095
 4968TIP3    H114847   7.524   2.879   2.065
 4968TIP3    H214848   7.466   2.794   2.177
 4969TIP3   OH214849   8.134   5.263   3.932
 4969TIP3    H114850   8.059   5.213   3.900
 4969TIP3    H214851   8.197   5.196   3.960
 4970TIP3   OH214852   7.628   5.964   2.998
 4970TIP3    H114853   7.639   6.009   2.914
 4970TIP3    H214854   7.563   6.015   3.045
 4971TIP3   OH214855   1.362   7.748   6.483
 4971TIP3    H114856   1.331   7.678   6.426
 4971TIP3    H214857   1.344   7.829   6.435
 4972TIP3   OH214858   6.621   6.785   1.234
 4972TIP3    H114859   6.584   6.784   1.322
 4972TIP3    H214860   6.575   6.856   1.190
 4973TIP3   OH214861   3.662   5.996   2.552
 4973TIP3    H114862   3.703   5.915   2.520
 4973TIP3    H214863   3.712   6.066   2.508
 4974TIP3   OH214864   0.790   6.359   5.999
 4974TIP3    H114865   0.834   6.443   6.012
 4974TIP3    H214866   0.860   6.294   5.998
 4975TIP3   OH214867   6.752   6.210   3.513
 4975TIP3    H114868   6.745   6.115   3.503
 4975TIP3    H214869   6.668   6.236   3.553
 4976TIP3   OH214870   4.725   2.438   0.326
 4976TIP3    H114871   4.667   2.367   0.357
 4976TIP3    H214872   4.667   2.513   0.315
 4977TIP3   OH214873   2.188   1.866   5.190
 4977TIP3    H114874   2.226   1.826   5.268
 4977TIP3    H214875   2.263   1.907   5.146
 4978TIP3   OH214876   4.691   7.732   2.627
 4978TIP3    H114877   4.749   7.703   2.556
 4978TIP3    H214878   4.607   7.749   2.584
 4979TIP3   OH214879   1.232   0.281   0.217
 4979TIP3    H114880   1.214   0.375   0.227
 4979TIP3    H214881   1.234   0.267   0.123
 4980TIP3   OH214882   2.938   0.708   2.619
 4980TIP3    H114883   2.947   0.619   2.587
 4980TIP3    H214884   2.867   0.704   2.684
 4981TIP3   OH214885   0.261   3.682   2.041
 4981TIP3    H114886   0.296   3.674   1.952
 4981TIP3    H214887   0.325   3.637   2.096
 4982TIP3   OH214888   8.043   1.878   3.162
 4982TIP3    H114889   8.131   1.843   3.144
 4982TIP3    H214890   8.046   1.968   3.130
 4983TIP3   OH214891   4.529   6.746   1.145
 4983TIP3    H114892   4.553   6.836   1.122
 4983TIP3    H214893   4.479   6.753   1.226
 4984TIP3   OH214894   6.773   0.671   5.907
 4984TIP3    H114895   6.793   0.625   5.988
 4984TIP3    H214896   6.813   0.758   5.918
 4985TIP3   OH214897   4.700   1.829   3.580
 4985TIP3    H114898   4.734   1.791   3.499
 4985TIP3    H214899   4.681   1.920   3.558
 4986TIP3   OH214900   3.301   3.173   2.294
 4986TIP3    H114901   3.366   3.163   2.363
 4986TIP3    H214902   3.343   3.137   2.216
 4987TIP3   OH214903   7.641   7.258   0.211
 4987TIP3    H114904   7.579   7.239   0.281
 4987TIP3    H214905   7.656   7.173   0.169
 4988TIP3   OH214906   2.854   2.161   0.059
 4988TIP3    H114907   2.941   2.122   0.058
 4988TIP3    H214908   2.853   2.223  -0.013
 4989TIP3   OH214909   1.088   3.875   2.099
 4989TIP3    H114910   1.036   3.909   2.172
 4989TIP3    H214911   1.095   3.781   2.117
 4990TIP3   OH214912   1.811   5.471   5.413
 4990TIP3    H114913   1.813   5.560   5.378
 4990TIP3    H214914   1.849   5.479   5.500
 4991TIP3   OH214915   4.435   3.171   4.075
 4991TIP3    H114916   4.417   3.090   4.123
 4991TIP3    H214917   4.463   3.233   4.142
 4992TIP3   OH214918   5.299   3.349   5.334
 4992TIP3    H114919   5.255   3.307   5.261
 4992TIP3    H214920   5.235   3.411   5.369
 4993TIP3   OH214921   6.475   0.682   2.205
 4993TIP3    H114922   6.555   0.669   2.153
 4993TIP3    H214923   6.473   0.777   2.222
 4994TIP3   OH214924   5.979   6.263   1.233
 4994TIP3    H114925   6.061   6.227   1.199
 4994TIP3    H214926   5.973   6.227   1.322
 4995TIP3   OH214927   0.961   1.659   1.939
 4995TIP3    H114928   1.015   1.618   1.872
 4995TIP3    H214929   0.871   1.645   1.910
 4996TIP3   OH214930   3.122   0.632   3.618
 4996TIP3    H114931   3.187   0.683   3.569
 4996TIP3    H214932   3.151   0.637   3.709
 4997TIP3   OH214933   6.956   6.102   3.115
 4997TIP3    H114934   7.010   6.038   3.161
 4997TIP3    H214935   6.921   6.054   3.040
 4998TIP3   OH214936   4.185   5.477   4.324
 4998TIP3    H114937   4.155   5.459   4.235
 4998TIP3    H214938   4.250   5.546   4.313
 4999TIP3   OH214939   0.463   7.156   4.580
 4999TIP3    H114940   0.465   7.251   4.565
 4999TIP3    H214941   0.399   7.144   4.650
 5000TIP3   OH214942   6.782   7.724   5.089
 5000TIP3    H114943   6.747   7.743   5.002
 5000TIP3    H214944   6.748   7.637   5.110
 5001TIP3   OH214945   4.670   3.281   6.630
 5001TIP3    H114946   4.719   3.199   6.621
 5001TIP3    H214947   4.594   3.270   6.574
 5002TIP3   OH214948   6.398   0.258   4.455
 5002TIP3    H114949   6.450   0.177   4.458
 5002TIP3    H214950   6.395   0.288   4.546
 5003TIP3   OH214951   2.509   3.231   0.163
 5003TIP3    H114952   2.530   3.310   0.213
 5003TIP3    H214953   2.418   3.245   0.134
 5004TIP3   OH214954   3.551   0.301   5.128
 5004TIP3    H114955   3.632   0.264   5.092
 5004TIP3    H214956   3.573   0.323   5.219
 5005TIP3   OH214957   5.570   1.727   2.808
 5005TIP3    H114958   5.641   1.681   2.764
 5005TIP3    H214959   5.533   1.662   2.867
 5006TIP3   OH214960   1.051   1.199   3.670
 5006TIP3    H114961   1.012   1.129   3.723
 5006TIP3    H214962   1.002   1.197   3.588
 5007TIP3   OH214963   6.699   1.185   2.081
 5007TIP3    H114964   6.709   1.264   2.027
 5007TIP3    H214965   6.604   1.178   2.094
 5008TIP3   OH214966   1.712   1.658   1.311
 5008TIP3    H114967   1.646   1.707   1.360
 5008TIP3    H214968   1.696   1.680   1.219
 5009TIP3   OH214969   6.346   7.430   2.245
 5009TIP3    H114970   6.411   7.483   2.289
 5009TIP3    H214971   6.300   7.491   2.187
 5010TIP3   OH214972   4.460   7.460   5.515
 5010TIP3    H114973   4.426   7.516   5.584
 5010TIP3    H214974   4.553   7.450   5.535
 5011TIP3   OH214975   0.912   4.400   6.711
 5011TIP3    H114976   0.939   4.487   6.684
 5011TIP3    H214977   0.981   4.342   6.678
 5012TIP3   OH214978   4.370   2.045   2.336
 5012TIP3    H114979   4.368   2.095   2.255
 5012TIP3    H214980   4.372   2.111   2.405
 5013TIP3   OH214981   8.068   2.152   3.339
 5013TIP3    H114982   8.162   2.166   3.350
 5013TIP3    H214983   8.052   2.173   3.247
 5014TIP3   OH214984   7.534   1.531   6.617
 5014TIP3    H114985   7.579   1.449   6.596
 5014TIP3    H214986   7.444   1.505   6.636
 5015TIP3   OH214987   2.548   3.091   0.865
 5015TIP3    H114988   2.607   3.158   0.831
 5015TIP3    H214989   2.486   3.075   0.793
 5016TIP3   OH214990   2.733   2.476   6.271
 5016TIP3    H114991   2.803   2.410   6.273
 5016TIP3    H214992   2.774   2.556   6.303
 5017TIP3   OH214993   7.778   5.728   2.486
 5017TIP3    H114994   7.762   5.634   2.494
 5017TIP3    H214995   7.722   5.755   2.414
 5018TIP3   OH214996   4.562   5.677   1.425
 5018TIP3    H114997   4.517   5.595   1.447
 5018TIP3    H214998   4.537   5.738   1.495
 5019TIP3   OH214999   4.864   1.008   3.214
 5019TIP3    H115000   4.879   1.029   3.306
 5019TIP3    H215001   4.784   0.956   3.213
 5020TIP3   OH215002   1.589   5.493   2.829
 5020TIP3    H115003   1.571   5.581   2.795
 5020TIP3    H215004   1.662   5.504   2.889
 5021TIP3   OH215005   6.098   4.648   0.630
 5021TIP3    H115006   6.179   4.698   0.616
 5021TIP3    H215007   6.042   4.673   0.556
 5022TIP3   OH215008   7.107   6.602   5.629
 5022TIP3    H115009   7.045   6.661   5.671
 5022TIP3    H215010   7.080   6.600   5.537
 5023TIP3   OH215011   0.901   5.099   1.368
 5023TIP3    H115012   0.825   5.053   1.402
 5023TIP3    H215013   0.933   5.152   1.441
 5024TIP3   OH215014   3.021   6.618   6.171
 5024TIP3    H115015   3.015   6.552   6.101
 5024TIP3    H215016   2.979   6.695   6.134
 5025TIP3   OH215017   7.852   6.345   3.424
 5025TIP3    H115018   7.889   6.262   3.395
 5025TIP3    H215019   7.886   6.410   3.363
 5026TIP3   OH215020   2.225   6.659   5.237
 5026TIP3    H115021   2.254   6.739   5.280
 5026TIP3    H215022   2.143   6.683   5.193
 5027TIP3   OH215023   2.572   3.008   2.132
 5027TIP3    H115024   2.608   2.979   2.216
 5027TIP3    H215025   2.502   2.947   2.113
 5028TIP3   OH215026   0.837   5.055   3.259
 5028TIP3    H115027   0.791   4.973   3.240
 5028TIP3    H215028   0.824   5.068   3.353
 5029TIP3   OH215029   5.229   0.375   5.302
 5029TIP3    H115030   5.238   0.448   5.241
 5029TIP3    H215031   5.180   0.309   5.253
 5030TIP3   OH215032   1.645   1.771   1.659
 5030TIP3    H115033   1.595   1.833   1.607
 5030TIP3    H215034   1.588   1.695   1.668
 5031TIP3   OH215035   7.670   0.485   1.382
 5031TIP3    H115036   7.684   0.556   1.445
 5031TIP3    H215037   7.664   0.406   1.435
 5032TIP3   OH215038   2.643   2.968   4.611
 5032TIP3    H115039   2.611   2.930   4.529
 5032TIP3    H215040   2.667   2.892   4.665
 5033TIP3   OH215041   2.597   3.828   4.063
 5033TIP3    H115042   2.553   3.873   4.136
 5033TIP3    H215043   2.566   3.873   3.985
 5034TIP3   OH215044   6.589   4.375   3.051
 5034TIP3    H115045   6.554   4.462   3.035
 5034TIP3    H215046   6.584   4.331   2.965
 5035TIP3   OH215047   3.271   2.130   5.563
 5035TIP3    H115048   3.338   2.119   5.631
 5035TIP3    H215049   3.200   2.178   5.606
 5036TIP3   OH215050   1.591   7.798   0.939
 5036TIP3    H115051   1.514   7.741   0.933
 5036TIP3    H215052   1.568   7.863   1.005
 5037TIP3   OH215053   5.696   5.268   5.218
 5037TIP3    H115054   5.649   5.243   5.298
 5037TIP3    H215055   5.761   5.199   5.205
 5038TIP3   OH215056   0.028   7.226   0.342
 5038TIP3    H115057   0.008   7.255   0.253
 5038TIP3    H215058   0.123   7.215   0.343
 5039TIP3   OH215059   0.238   4.478   0.920
 5039TIP3    H115060   0.223   4.431   1.002
 5039TIP3    H215061   0.209   4.417   0.852
 5040TIP3   OH215062   4.992   1.824   0.279
 5040TIP3    H115063   5.029   1.803   0.365
 5040TIP3    H215064   4.984   1.739   0.235
 5041TIP3   OH215065   7.664   1.198   0.799
 5041TIP3    H115066   7.691   1.289   0.810
 5041TIP3    H215067   7.744   1.147   0.812
 5042TIP3   OH215068   1.577   1.670   0.571
 5042TIP3    H115069   1.496   1.702   0.611
 5042TIP3    H215070   1.583   1.719   0.489
 5043TIP3   OH215071   0.940   4.655   4.932
 5043TIP3    H115072   1.027   4.649   4.972
 5043TIP3    H215073   0.898   4.727   4.980
 5044TIP3   OH215074   8.196   0.984   4.308
 5044TIP3    H115075   8.133   1.049   4.277
 5044TIP3    H215076   8.226   0.941   4.228
 5045TIP3   OH215077   0.370   4.800   2.948
 5045TIP3    H115078   0.326   4.749   2.880
 5045TIP3    H215079   0.406   4.734   3.008
 5046TIP3   OH215080   0.268   5.475   3.597
 5046TIP3    H115081   0.333   5.545   3.593
 5046TIP3    H215082   0.238   5.475   3.687
 5047TIP3   OH215083   0.081   1.029   0.787
 5047TIP3    H115084   0.111   1.031   0.697
 5047TIP3    H215085   0.023   0.953   0.792
 5048TIP3   OH215086   6.297   1.925   4.643
 5048TIP3    H115087   6.295   2.019   4.627
 5048TIP3    H215088   6.390   1.901   4.635
 5049TIP3   OH215089   2.355   6.723   2.483
 5049TIP3    H115090   2.350   6.811   2.447
 5049TIP3    H215091   2.308   6.668   2.421
 5050TIP3   OH215092   7.317   6.151   4.518
 5050TIP3    H115093   7.245   6.157   4.456
 5050TIP3    H215094   7.335   6.241   4.544
 5051TIP3   OH215095   5.339   0.768   6.662
 5051TIP3    H115096   5.290   0.693   6.694
 5051TIP3    H215097   5.362   0.818   6.740
 5052TIP3   OH215098   0.557   2.631   4.512
 5052TIP3    H115099   0.627   2.616   4.576
 5052TIP3    H215100   0.594   2.603   4.428
 5053TIP3   OH215101   4.735   2.423   6.515
 5053TIP3    H115102   4.765   2.346   6.467
 5053TIP3    H215103   4.716   2.488   6.447
 5054TIP3   OH215104   5.160   2.713   1.303
 5054TIP3    H115105   5.092   2.660   1.261
 5054TIP3    H215106   5.201   2.653   1.365
 5055TIP3   OH215107   6.944   3.618   1.007
 5055TIP3    H115108   6.937   3.615   1.102
 5055TIP3    H215109   7.007   3.687   0.989
 5056TIP3   OH215110   6.978   4.418   5.846
 5056TIP3    H115111   7.034   4.492   5.826
 5056TIP3    H215112   6.934   4.398   5.763
 5057TIP3   OH215113   3.325   7.023   5.921
 5057TIP3    H115114   3.311   6.932   5.896
 5057TIP3    H215115   3.369   7.062   5.845
 5058TIP3   OH215116   2.099   6.969   0.355
 5058TIP3    H115117   2.140   7.039   0.406
 5058TIP3    H215118   2.122   6.888   0.402
 5059TIP3   OH215119   0.267   7.087   2.583
 5059TIP3    H115120   0.227   7.115   2.501
 5059TIP3    H215121   0.208   7.019   2.617
 5060TIP3   OH215122   4.249   3.722   2.206
 5060TIP3    H115123   4.221   3.761   2.124
 5060TIP3    H215124   4.295   3.792   2.252
 5061TIP3   OH215125   5.070   1.693   5.615
 5061TIP3    H115126   5.148   1.645   5.640
 5061TIP3    H215127   5.051   1.749   5.691
 5062TIP3   OH215128   5.759   6.709   6.238
 5062TIP3    H115129   5.720   6.709   6.325
 5062TIP3    H215130   5.696   6.662   6.183
 5063TIP3   OH215131   2.000   1.534   6.457
 5063TIP3    H115132   2.052   1.477   6.513
 5063TIP3    H215133   1.918   1.546   6.504
 5064TIP3   OH215134   1.129   1.782   5.015
 5064TIP3    H115135   1.147   1.876   5.019
 5064TIP3    H215136   1.169   1.753   4.933
 5065TIP3   OH215137   3.016   0.947   2.197
 5065TIP3    H115138   2.974   1.014   2.144
 5065TIP3    H215139   2.995   0.865   2.153
 5066TIP3   OH215140   1.989   5.195   3.384
 5066TIP3    H115141   1.904   5.152   3.369
 5066TIP3    H215142   1.970   5.288   3.373
 5067TIP3   OH215143   6.424   6.557   2.977
 5067TIP3    H115144   6.458   6.513   3.055
 5067TIP3    H215145   6.334   6.581   3.001
 5068TIP3   OH215146   2.629   2.309   5.044
 5068TIP3    H115147   2.648   2.377   4.979
 5068TIP3    H215148   2.541   2.279   5.024
 5069TIP3   OH215149   3.613   0.470   6.382
 5069TIP3    H115150   3.536   0.526   6.374
 5069TIP3    H215151   3.601   0.403   6.315
 5070TIP3   OH215152   6.548   2.022   1.060
 5070TIP3    H115153   6.592   1.954   1.112
 5070TIP3    H215154   6.458   2.023   1.093
 5071TIP3   OH215155   1.736   6.397   2.908
 5071TIP3    H115156   1.768   6.404   2.998
 5071TIP3    H215157   1.779   6.470   2.862
 5072TIP3   OH215158   4.131   1.552   3.813
 5072TIP3    H115159   4.157   1.605   3.737
 5072TIP3    H215160   4.146   1.609   3.888
 5073TIP3   OH215161   7.023   5.087   5.864
 5073TIP3    H115162   7.070   5.024   5.919
 5073TIP3    H215163   6.993   5.154   5.925
 5074TIP3   OH215164   2.609   6.726   6.731
 5074TIP3    H115165   2.661   6.706   6.653
 5074TIP3    H215166   2.591   6.641   6.771
 5075TIP3   OH215167   1.844   4.634   1.220
 5075TIP3    H115168   1.890   4.551   1.234
 5075TIP3    H215169   1.879   4.692   1.288
 5076TIP3   OH215170   5.386   4.506   1.165
 5076TIP3    H115171   5.420   4.435   1.110
 5076TIP3    H215172   5.360   4.462   1.246
 5077TIP3   OH215173   2.359   0.667   1.258
 5077TIP3    H115174   2.413   0.744   1.243
 5077TIP3    H215175   2.353   0.660   1.353
 5078TIP3   OH215176   5.052   4.961   5.559
 5078TIP3    H115177   5.129   4.978   5.613
 5078TIP3    H215178   5.067   5.014   5.480
 5079TIP3   OH215179   6.219   4.421   1.739
 5079TIP3    H115180   6.247   4.510   1.764
 5079TIP3    H215181   6.173   4.434   1.656
 5080TIP3   OH215182   6.802   4.369   3.525
 5080TIP3    H115183   6.863   4.424   3.477
 5080TIP3    H215184   6.844   4.283   3.528
 5081TIP3   OH215185   7.968   3.282   3.407
 5081TIP3    H115186   7.901   3.251   3.467
 5081TIP3    H215187   8.042   3.304   3.463
 5082TIP3   OH215188   5.338   5.397   0.452
 5082TIP3    H115189   5.301   5.354   0.529
 5082TIP3    H215190   5.344   5.327   0.387
 5083TIP3   OH215191   8.288   4.912   1.857
 5083TIP3    H115192   8.203   4.956   1.858
 5083TIP3    H215193   8.267   4.819   1.855
 5084TIP3   OH215194   3.234   4.863   6.421
 5084TIP3    H115195   3.237   4.933   6.355
 5084TIP3    H215196   3.310   4.879   6.477
 5085TIP3   OH215197   6.604   1.519   1.588
 5085TIP3    H115198   6.554   1.591   1.549
 5085TIP3    H215199   6.574   1.441   1.541
 5086TIP3   OH215200   5.539   4.135   4.106
 5086TIP3    H115201   5.594   4.113   4.031
 5086TIP3    H215202   5.574   4.082   4.177
 5087TIP3   OH215203   1.259   2.520   2.795
 5087TIP3    H115204   1.203   2.565   2.730
 5087TIP3    H215205   1.223   2.432   2.800
 5088TIP3   OH215206   3.109   2.123   2.469
 5088TIP3    H115207   3.066   2.147   2.552
 5088TIP3    H215208   3.202   2.122   2.490
 5089TIP3   OH215209   3.394   7.009   4.770
 5089TIP3    H115210   3.306   7.047   4.776
 5089TIP3    H215211   3.383   6.929   4.719
 5090TIP3   OH215212   7.813   7.042   0.420
 5090TIP3    H115213   7.861   7.003   0.347
 5090TIP3    H215214   7.808   7.135   0.398
 5091TIP3   OH215215   3.385   0.547   1.217
 5091TIP3    H115216   3.389   0.469   1.272
 5091TIP3    H215217   3.296   0.579   1.227
 5092TIP3   OH215218   4.654   6.380   5.374
 5092TIP3    H115219   4.743   6.416   5.375
 5092TIP3    H215220   4.666   6.286   5.385
 5093TIP3   OH215221   2.827   5.116   3.281
 5093TIP3    H115222   2.796   5.085   3.196
 5093TIP3    H215223   2.775   5.068   3.345
 5094TIP3   OH215224   7.151   4.673   0.931
 5094TIP3    H115225   7.193   4.692   1.015
 5094TIP3    H215226   7.223   4.653   0.872
 5095TIP3   OH215227   5.554   3.261   1.862
 5095TIP3    H115228   5.532   3.256   1.769
 5095TIP3    H215229   5.473   3.289   1.904
 5096TIP3   OH215230   1.360   5.299   2.067
 5096TIP3    H115231   1.335   5.211   2.096
 5096TIP3    H215232   1.395   5.341   2.145
 5097TIP3   OH215233   0.803   1.390   3.866
 5097TIP3    H115234   0.872   1.325   3.879
 5097TIP3    H215235   0.805   1.409   3.773
 5098TIP3   OH215236   6.172   0.317   4.975
 5098TIP3    H115237   6.087   0.331   5.017
 5098TIP3    H215238   6.179   0.386   4.910
 5099TIP3   OH215239   7.136   0.581   0.557
 5099TIP3    H115240   7.169   0.497   0.587
 5099TIP3    H215241   7.151   0.580   0.462
 5100TIP3   OH215242   1.974   5.998   1.904
 5100TIP3    H115243   1.980   5.916   1.953
 5100TIP3    H215244   1.943   5.973   1.817
 5101TIP3   OH215245   6.424   6.045   1.984
 5101TIP3    H115246   6.460   6.133   1.978
 5101TIP3    H215247   6.344   6.055   2.035
 5102TIP3   OH215248   7.115   6.405   4.066
 5102TIP3    H115249   7.150   6.417   3.977
 5102TIP3    H215250   7.025   6.438   4.060
 5103TIP3   OH215251   0.783   2.183   6.547
 5103TIP3    H115252   0.710   2.155   6.491
 5103TIP3    H215253   0.816   2.102   6.586
 5104TIP3   OH215254   3.850   2.267   6.469
 5104TIP3    H115255   3.937   2.291   6.437
 5104TIP3    H215256   3.791   2.330   6.427
 5105TIP3   OH215257   1.354   1.161   5.429
 5105TIP3    H115258   1.430   1.104   5.427
 5105TIP3    H215259   1.308   1.137   5.510
 5106TIP3   OH215260   6.655   1.329   4.212
 5106TIP3    H115261   6.704   1.402   4.175
 5106TIP3    H215262   6.604   1.367   4.283
 5107TIP3   OH215263   2.157   0.317   0.358
 5107TIP3    H115264   2.158   0.226   0.327
 5107TIP3    H215265   2.065   0.343   0.353
 5108TIP3   OH215266   5.521   7.791   3.382
 5108TIP3    H115267   5.473   7.708   3.387
 5108TIP3    H215268   5.609   7.767   3.354
 5109TIP3   OH215269   3.501   3.808   0.990
 5109TIP3    H115270   3.595   3.790   0.985
 5109TIP3    H215271   3.475   3.832   0.901
 5110TIP3   OH215272   4.860   3.268   4.075
 5110TIP3    H115273   4.897   3.336   4.018
 5110TIP3    H215274   4.931   3.248   4.137
 5111TIP3   OH215275   0.765   6.549   4.908
 5111TIP3    H115276   0.786   6.556   4.815
 5111TIP3    H215277   0.782   6.637   4.943
 5112TIP3   OH215278   1.013   7.318   6.548
 5112TIP3    H115279   0.950   7.388   6.538
 5112TIP3    H215280   0.966   7.239   6.519
 5113TIP3   OH215281   5.141   3.218   5.156
 5113TIP3    H115282   5.076   3.273   5.200
 5113TIP3    H215283   5.101   3.131   5.153
 5114TIP3   OH215284   3.973   2.340   5.642
 5114TIP3    H115285   3.964   2.317   5.549
 5114TIP3    H215286   3.988   2.256   5.686
 5115TIP3   OH215287   4.495   0.299   0.174
 5115TIP3    H115288   4.580   0.293   0.216
 5115TIP3    H215289   4.449   0.219   0.202
 5116TIP3   OH215290   7.882   3.894   4.621
 5116TIP3    H115291   7.890   3.989   4.612
 5116TIP3    H215292   7.933   3.860   4.548
 5117TIP3   OH215293   0.633   0.405   2.108
 5117TIP3    H115294   0.630   0.479   2.048
 5117TIP3    H215295   0.726   0.393   2.126
 5118TIP3   OH215296   5.385   3.252   6.205
 5118TIP3    H115297   5.392   3.324   6.267
 5118TIP3    H215298   5.293   3.253   6.177
 5119TIP3   OH215299   0.131   2.299   0.250
 5119TIP3    H115300   0.125   2.271   0.342
 5119TIP3    H215301   0.225   2.299   0.232
 5120TIP3   OH215302   2.930   1.222   2.828
 5120TIP3    H115303   2.999   1.282   2.798
 5120TIP3    H215304   2.865   1.279   2.869
 5121TIP3   OH215305   5.086   5.641   4.124
 5121TIP3    H115306   5.026   5.664   4.195
 5121TIP3    H215307   5.056   5.694   4.049
 5122TIP3   OH215308   6.847   2.012   5.166
 5122TIP3    H115309   6.908   1.993   5.095
 5122TIP3    H215310   6.760   2.002   5.127
 5123TIP3   OH215311   2.219   2.926   0.952
 5123TIP3    H115312   2.301   2.941   1.000
 5123TIP3    H215313   2.247   2.881   0.872
 5124TIP3   OH215314   5.285   1.488   5.670
 5124TIP3    H115315   5.352   1.524   5.729
 5124TIP3    H215316   5.241   1.421   5.722
 5125TIP3   OH215317   2.000   0.730   6.355
 5125TIP3    H115318   2.028   0.686   6.436
 5125TIP3    H215319   1.911   0.697   6.339
 5126TIP3   OH215320   1.589   0.382   4.974
 5126TIP3    H115321   1.645   0.314   4.936
 5126TIP3    H215322   1.636   0.464   4.960
 5127TIP3   OH215323   1.886   0.520   5.635
 5127TIP3    H115324   1.894   0.593   5.573
 5127TIP3    H215325   1.968   0.522   5.685
 5128TIP3   OH215326   5.727   7.485   3.964
 5128TIP3    H115327   5.729   7.552   3.895
 5128TIP3    H215328   5.636   7.483   3.993
 5129TIP3   OH215329   3.294   0.001   1.048
 5129TIP3    H115330   3.354   0.076   1.047
 5129TIP3    H215331   3.272  -0.014   0.956
 5130TIP3   OH215332   7.079   2.695   6.139
 5130TIP3    H115333   7.100   2.620   6.084
 5130TIP3    H215334   7.089   2.663   6.229
 5131TIP3   OH215335   6.508   3.389   4.319
 5131TIP3    H115336   6.460   3.420   4.395
 5131TIP3    H215337   6.441   3.363   4.256
 5132TIP3   OH215338   2.062   4.792   0.069
 5132TIP3    H115339   2.062   4.826   0.159
 5132TIP3    H215340   2.032   4.702   0.078
 5133TIP3   OH215341   5.342   6.281   5.302
 5133TIP3    H115342   5.349   6.206   5.243
 5133TIP3    H215343   5.360   6.246   5.389
 5134TIP3   OH215344   2.953   2.815   2.780
 5134TIP3    H115345   2.971   2.751   2.849
 5134TIP3    H215346   3.015   2.795   2.711
 5135TIP3   OH215347   3.548   3.908   0.720
 5135TIP3    H115348   3.488   3.968   0.764
 5135TIP3    H215349   3.635   3.946   0.734
 5136TIP3   OH215350   2.189   7.643   4.076
 5136TIP3    H115351   2.171   7.680   4.163
 5136TIP3    H215352   2.219   7.718   4.024
 5137TIP3   OH215353   8.040   3.562   5.888
 5137TIP3    H115354   8.071   3.560   5.797
 5137TIP3    H215355   8.042   3.470   5.916
 5138TIP3   OH215356   1.606   4.125   0.574
 5138TIP3    H115357   1.521   4.112   0.616
 5138TIP3    H215358   1.645   4.038   0.571
 5139TIP3   OH215359   5.787   7.449   3.346
 5139TIP3    H115360   5.866   7.399   3.324
 5139TIP3    H215361   5.716   7.385   3.337
 5140TIP3   OH215362   3.477   0.197   1.751
 5140TIP3    H115363   3.534   0.133   1.710
 5140TIP3    H215364   3.493   0.278   1.702
 5141TIP3   OH215365   1.849   0.799   0.356
 5141TIP3    H115366   1.777   0.757   0.403
 5141TIP3    H215367   1.816   0.808   0.266
 5142TIP3   OH215368   0.563   2.210   0.727
 5142TIP3    H115369   0.572   2.284   0.788
 5142TIP3    H215370   0.613   2.237   0.650
 5143TIP3   OH215371   3.160   6.145   3.244
 5143TIP3    H115372   3.187   6.079   3.309
 5143TIP3    H215373   3.098   6.201   3.291
 5144TIP3   OH215374   3.269   1.818   5.050
 5144TIP3    H115375   3.214   1.773   4.985
 5144TIP3    H215376   3.222   1.809   5.132
 5145TIP3   OH215377   2.237   7.414   2.004
 5145TIP3    H115378   2.331   7.399   2.015
 5145TIP3    H215379   2.215   7.483   2.065
 5146TIP3   OH215380   4.538   3.669   6.520
 5146TIP3    H115381   4.574   3.756   6.502
 5146TIP3    H215382   4.616   3.614   6.531
 5147TIP3   OH215383   7.541   5.824   2.651
 5147TIP3    H115384   7.632   5.806   2.673
 5147TIP3    H215385   7.498   5.739   2.654
 5148TIP3   OH215386   2.203   5.819   5.311
 5148TIP3    H115387   2.249   5.892   5.271
 5148TIP3    H215388   2.182   5.761   5.238
 5149TIP3   OH215389   3.901   2.048   4.102
 5149TIP3    H115390   3.936   2.026   4.189
 5149TIP3    H215391   3.979   2.068   4.050
 5150TIP3   OH215392   2.282   4.171   4.927
 5150TIP3    H115393   2.237   4.216   4.998
 5150TIP3    H215394   2.375   4.188   4.943
 5151TIP3   OH215395   0.551   7.194   0.379
 5151TIP3    H115396   0.613   7.242   0.324
 5151TIP3    H215397   0.598   7.114   0.404
 5152TIP3   OH215398   4.747   0.429   5.515
 5152TIP3    H115399   4.839   0.405   5.524
 5152TIP3    H215400   4.726   0.475   5.596
 5153TIP3   OH215401   2.946   6.256   3.575
 5153TIP3    H115402   2.886   6.192   3.615
 5153TIP3    H215403   3.033   6.218   3.587
 5154TIP3   OH215404   1.222   7.347   0.370
 5154TIP3    H115405   1.309   7.308   0.361
 5154TIP3    H215406   1.228   7.430   0.323
 5155TIP3   OH215407   3.401   6.027   2.028
 5155TIP3    H115408   3.460   6.091   1.989
 5155TIP3    H215409   3.447   5.996   2.106
 5156TIP3   OH215410   8.093   7.633   0.415
 5156TIP3    H115411   8.002   7.617   0.388
 5156TIP3    H215412   8.089   7.716   0.462
 5157TIP3   OH215413   5.926   5.386   5.164
 5157TIP3    H115414   5.940   5.478   5.189
 5157TIP3    H215415   5.838   5.366   5.196
 5158TIP3   OH215416   7.709   3.195   2.649
 5158TIP3    H115417   7.803   3.190   2.630
 5158TIP3    H215418   7.690   3.115   2.697
 5159TIP3   OH215419   5.221   7.578   4.589
 5159TIP3    H115420   5.260   7.649   4.538
 5159TIP3    H215421   5.152   7.544   4.533
 5160TIP3   OH215422   8.201   0.738   5.334
 5160TIP3    H115423   8.270   0.748   5.399
 5160TIP3    H215424   8.169   0.649   5.347
 5161TIP3   OH215425   4.968   3.968   0.072
 5161TIP3    H115426   4.951   4.015  -0.009
 5161TIP3    H215427   5.056   3.996   0.098
 5162TIP3   OH215428   6.690   3.817   0.893
 5162TIP3    H115429   6.675   3.911   0.881
 5162TIP3    H215430   6.779   3.803   0.858
 5163TIP3   OH215431   3.276   1.477   5.989
 5163TIP3    H115432   3.220   1.446   5.918
 5163TIP3    H215433   3.250   1.569   6.000
 5164TIP3   OH215434   6.922   3.356   0.954
 5164TIP3    H115435   6.888   3.445   0.963
 5164TIP3    H215436   6.845   3.302   0.937
 5165TIP3   OH215437   2.981   4.259   5.549
 5165TIP3    H115438   2.938   4.220   5.473
 5165TIP3    H215439   3.073   4.262   5.525
 5166TIP3   OH215440   5.901   4.413   2.570
 5166TIP3    H115441   5.898   4.422   2.665
 5166TIP3    H215442   5.865   4.495   2.537
 5167TIP3   OH215443   8.021   3.784   5.634
 5167TIP3    H115444   8.071   3.791   5.553
 5167TIP3    H215445   7.962   3.710   5.619
 5168TIP3   OH215446   5.367   2.909   1.856
 5168TIP3    H115447   5.303   2.970   1.894
 5168TIP3    H215448   5.318   2.863   1.787
 5169TIP3   OH215449   5.146   4.724   6.528
 5169TIP3    H115450   5.084   4.797   6.525
 5169TIP3    H215451   5.109   4.659   6.468
 5170TIP3   OH215452   1.593   1.857   6.107
 5170TIP3    H115453   1.541   1.937   6.105
 5170TIP3    H215454   1.682   1.887   6.126
 5171TIP3   OH215455   1.484   5.275   1.804
 5171TIP3    H115456   1.499   5.189   1.846
 5171TIP3    H215457   1.404   5.307   1.845
 5172TIP3   OH215458   4.392   4.702   6.065
 5172TIP3    H115459   4.397   4.767   5.994
 5172TIP3    H215460   4.422   4.749   6.143
 5173TIP3   OH215461   8.045   2.564   4.075
 5173TIP3    H115462   8.065   2.657   4.065
 5173TIP3    H215463   7.955   2.561   4.107
 5174TIP3   OH215464   2.821   5.396   5.540
 5174TIP3    H115465   2.878   5.422   5.612
 5174TIP3    H215466   2.823   5.300   5.540
 5175TIP3   OH215467   3.403   0.636   6.319
 5175TIP3    H115468   3.388   0.731   6.320
 5175TIP3    H215469   3.412   0.614   6.226
 5176TIP3   OH215470   7.652   2.954   6.540
 5176TIP3    H115471   7.688   3.042   6.533
 5176TIP3    H215472   7.702   2.912   6.610
 5177TIP3   OH215473   0.431   2.187   1.544
 5177TIP3    H115474   0.432   2.095   1.518
 5177TIP3    H215475   0.356   2.224   1.497
 5178TIP3   OH215476   7.426   2.267   3.691
 5178TIP3    H115477   7.374   2.333   3.644
 5178TIP3    H215478   7.361   2.215   3.737
 5179TIP3   OH215479   4.806   7.818   4.128
 5179TIP3    H115480   4.740   7.752   4.150
 5179TIP3    H215481   4.796   7.832   4.034
 5180TIP3   OH215482   1.027   1.445   5.119
 5180TIP3    H115483   1.012   1.525   5.169
 5180TIP3    H215484   1.060   1.382   5.184
 5181TIP3   OH215485   4.125   3.171   6.357
 5181TIP3    H115486   4.170   3.256   6.354
 5181TIP3    H215487   4.032   3.193   6.365
 5182TIP3   OH215488   5.937   7.631   4.072
 5182TIP3    H115489   6.026   7.627   4.038
 5182TIP3    H215490   5.890   7.563   4.025
 5183TIP3   OH215491   0.147   4.578   4.448
 5183TIP3    H115492   0.233   4.558   4.412
 5183TIP3    H215493   0.089   4.582   4.373
 5184TIP3   OH215494   4.870   7.100   4.073
 5184TIP3    H115495   4.916   7.107   3.990
 5184TIP3    H215496   4.855   7.006   4.084
 5185TIP3   OH215497   1.514   2.835   5.070
 5185TIP3    H115498   1.583   2.832   5.005
 5185TIP3    H215499   1.433   2.829   5.019
 5186TIP3   OH215500   1.879   1.667   1.723
 5186TIP3    H115501   1.897   1.732   1.791
 5186TIP3    H215502   1.794   1.693   1.687
 5187TIP3   OH215503   2.628   5.392   0.333
 5187TIP3    H115504   2.596   5.308   0.301
 5187TIP3    H215505   2.589   5.401   0.420
 5188TIP3   OH215506   1.159   6.045   5.511
 5188TIP3    H115507   1.217   6.043   5.435
 5188TIP3    H215508   1.071   6.053   5.473
 5189TIP3   OH215509   0.798   7.365   4.410
 5189TIP3    H115510   0.864   7.302   4.439
 5189TIP3    H215511   0.802   7.361   4.314
 5190TIP3   OH215512   5.817   2.757   4.674
 5190TIP3    H115513   5.742   2.727   4.623
 5190TIP3    H215514   5.886   2.693   4.654
 5191TIP3   OH215515   7.937   1.065   0.771
 5191TIP3    H115516   7.950   1.041   0.862
 5191TIP3    H215517   8.017   1.112   0.747
 5192TIP3   OH215518   5.990   7.093   4.487
 5192TIP3    H115519   5.973   7.157   4.418
 5192TIP3    H215520   6.083   7.103   4.507
 5193TIP3   OH215521   6.481   4.223   6.473
 5193TIP3    H115522   6.469   4.248   6.565
 5193TIP3    H215523   6.482   4.127   6.475
 5194TIP3   OH215524   5.429   2.497   0.447
 5194TIP3    H115525   5.401   2.440   0.375
 5194TIP3    H215526   5.351   2.548   0.469
 5195TIP3   OH215527   4.217   4.956   2.076
 5195TIP3    H115528   4.191   4.867   2.097
 5195TIP3    H215529   4.141   4.994   2.033
 5196TIP3   OH215530   0.900   2.070   3.934
 5196TIP3    H115531   0.880   1.998   3.994
 5196TIP3    H215532   0.969   2.119   3.978
 5197TIP3   OH215533   4.029   4.060   6.003
 5197TIP3    H115534   4.042   4.083   5.911
 5197TIP3    H215535   4.118   4.056   6.039
 5198TIP3   OH215536   7.511   4.978   2.209
 5198TIP3    H115537   7.565   5.031   2.268
 5198TIP3    H215538   7.544   4.999   2.122
 5199TIP3   OH215539   6.622   4.117   2.105
 5199TIP3    H115540   6.636   4.091   2.014
 5199TIP3    H215541   6.576   4.201   2.099
 5200TIP3   OH215542   0.774   2.490   0.715
 5200TIP3    H115543   0.769   2.528   0.803
 5200TIP3    H215544   0.714   2.543   0.663
 5201TIP3   OH215545   5.093   0.970   0.071
 5201TIP3    H115546   5.172   0.943   0.024
 5201TIP3    H215547   5.066   1.052   0.028
 5202TIP3   OH215548   2.091   4.461   2.192
 5202TIP3    H115549   2.008   4.417   2.171
 5202TIP3    H215550   2.152   4.390   2.210
 5203TIP3   OH215551   5.384   2.329   1.866
 5203TIP3    H115552   5.440   2.407   1.861
 5203TIP3    H215553   5.354   2.327   1.956
 5204TIP3   OH215554   7.128   7.114   0.537
 5204TIP3    H115555   7.111   7.053   0.465
 5204TIP3    H215556   7.058   7.097   0.600
 5205TIP3   OH215557   2.689   2.871   3.892
 5205TIP3    H115558   2.675   2.964   3.912
 5205TIP3    H215559   2.601   2.836   3.877
 5206TIP3   OH215560   6.900   1.977   3.209
 5206TIP3    H115561   6.905   1.938   3.296
 5206TIP3    H215562   6.806   1.989   3.193
 5207TIP3   OH215563   6.965   4.425   3.874
 5207TIP3    H115564   6.995   4.489   3.810
 5207TIP3    H215565   6.979   4.468   3.959
 5208TIP3   OH215566   7.125   6.509   4.366
 5208TIP3    H115567   7.091   6.488   4.279
 5208TIP3    H215568   7.078   6.450   4.425
 5209TIP3   OH215569   2.985   6.569   1.359
 5209TIP3    H115570   2.967   6.607   1.445
 5209TIP3    H215571   2.985   6.475   1.373
 5210TIP3   OH215572   6.974   7.208   0.148
 5210TIP3    H115573   6.973   7.128   0.201
 5210TIP3    H215574   7.062   7.211   0.111
 5211TIP3   OH215575   3.626   2.829   4.625
 5211TIP3    H115576   3.590   2.885   4.556
 5211TIP3    H215577   3.632   2.887   4.701
 5212TIP3   OH215578   8.263   0.378   4.654
 5212TIP3    H115579   8.169   0.384   4.671
 5212TIP3    H215580   8.286   0.463   4.617
 5213TIP3   OH215581   7.938   6.443   3.158
 5213TIP3    H115582   7.877   6.496   3.107
 5213TIP3    H215583   7.947   6.362   3.109
 5214TIP3   OH215584   1.494   5.705   4.506
 5214TIP3    H115585   1.444   5.787   4.510
 5214TIP3    H215586   1.535   5.699   4.593
 5215TIP3   OH215587   7.174   7.824   0.266
 5215TIP3    H115588   7.172   7.837   0.361
 5215TIP3    H215589   7.125   7.743   0.252
 5216TIP3   OH215590   5.471   0.671   0.257
 5216TIP3    H115591   5.486   0.748   0.202
 5216TIP3    H215592   5.456   0.600   0.194
 5217TIP3   OH215593   1.855   5.257   1.784
 5217TIP3    H115594   1.857   5.267   1.879
 5217TIP3    H215595   1.766   5.226   1.766
 5218TIP3   OH215596   1.501   0.592   2.237
 5218TIP3    H115597   1.422   0.633   2.274
 5218TIP3    H215598   1.555   0.666   2.210
 5219TIP3   OH215599   0.955   4.059   0.696
 5219TIP3    H115600   0.915   3.975   0.716
 5219TIP3    H215601   0.921   4.082   0.610
 5220TIP3   OH215602   0.966   3.072   5.633
 5220TIP3    H115603   0.876   3.093   5.659
 5220TIP3    H215604   1.009   3.157   5.627
 5221TIP3   OH215605   7.037   3.643   5.506
 5221TIP3    H115606   7.103   3.702   5.541
 5221TIP3    H215607   7.072   3.555   5.523
 5222TIP3   OH215608   4.941   4.010   4.189
 5222TIP3    H115609   4.942   4.092   4.140
 5222TIP3    H215610   4.893   3.949   4.132
 5223TIP3   OH215611   3.781   6.112   0.176
 5223TIP3    H115612   3.794   6.206   0.188
 5223TIP3    H215613   3.800   6.096   0.084
 5224TIP3   OH215614   0.728   4.769   3.260
 5224TIP3    H115615   0.757   4.683   3.227
 5224TIP3    H215616   0.641   4.780   3.223
 5225TIP3   OH215617   1.936   4.975   2.044
 5225TIP3    H115618   1.884   4.964   2.124
 5225TIP3    H215619   2.008   5.032   2.070
 5226TIP3   OH215620   2.854   3.175   5.646
 5226TIP3    H115621   2.912   3.151   5.574
 5226TIP3    H215622   2.834   3.092   5.690
 5227TIP3   OH215623   5.684   0.659   2.875
 5227TIP3    H115624   5.761   0.611   2.843
 5227TIP3    H215625   5.625   0.662   2.800
 5228TIP3   OH215626   0.640   7.022   3.828
 5228TIP3    H115627   0.597   6.937   3.818
 5228TIP3    H215628   0.631   7.042   3.921
 5229TIP3   OH215629   0.193   6.151   5.259
 5229TIP3    H115630   0.142   6.082   5.217
 5229TIP3    H215631   0.270   6.161   5.202
 5230TIP3   OH215632   7.287   1.575   3.798
 5230TIP3    H115633   7.327   1.546   3.716
 5230TIP3    H215634   7.350   1.637   3.835
 5231TIP3   OH215635   6.905   1.804   5.342
 5231TIP3    H115636   6.996   1.832   5.334
 5231TIP3    H215637   6.854   1.879   5.311
 5232TIP3   OH215638   1.257   6.169   2.610
 5232TIP3    H115639   1.191   6.239   2.617
 5232TIP3    H215640   1.334   6.213   2.574
 5233TIP3   OH215641   2.755   1.713   6.129
 5233TIP3    H115642   2.799   1.634   6.160
 5233TIP3    H215643   2.800   1.784   6.175
 5234TIP3   OH215644   2.898   0.423   5.633
 5234TIP3    H115645   2.966   0.363   5.663
 5234TIP3    H215646   2.946   0.500   5.602
 5235TIP3   OH215647   3.701   7.211   1.707
 5235TIP3    H115648   3.790   7.185   1.730
 5235TIP3    H215649   3.707   7.242   1.617
 5236TIP3   OH215650   5.214   2.146   3.357
 5236TIP3    H115651   5.248   2.059   3.335
 5236TIP3    H215652   5.230   2.154   3.451
 5237TIP3   OH215653   6.286   3.860   1.223
 5237TIP3    H115654   6.325   3.885   1.139
 5237TIP3    H215655   6.326   3.776   1.244
 5238TIP3   OH215656   3.529   1.146   0.702
 5238TIP3    H115657   3.611   1.190   0.681
 5238TIP3    H215658   3.556   1.058   0.730
 5239TIP3   OH215659   0.453   4.471   1.718
 5239TIP3    H115660   0.516   4.513   1.660
 5239TIP3    H215661   0.374   4.524   1.710
 5240TIP3   OH215662   5.076   7.759   2.813
 5240TIP3    H115663   5.108   7.720   2.732
 5240TIP3    H215664   5.135   7.833   2.829
 5241TIP3   OH215665   1.388   1.365   4.094
 5241TIP3    H115666   1.352   1.453   4.078
 5241TIP3    H215667   1.472   1.382   4.136
 5242TIP3   OH215668   0.829   7.062   3.636
 5242TIP3    H115669   0.858   6.971   3.644
 5242TIP3    H215670   0.760   7.071   3.701
 5243TIP3   OH215671   4.450   6.223   0.112
 5243TIP3    H115672   4.407   6.226   0.027
 5243TIP3    H215673   4.540   6.250   0.094
 5244TIP3   OH215674   6.882   3.357   0.558
 5244TIP3    H115675   6.794   3.381   0.530
 5244TIP3    H215676   6.908   3.428   0.617
 5245TIP3   OH215677   1.222   6.804   4.885
 5245TIP3    H115678   1.130   6.814   4.860
 5245TIP3    H215679   1.247   6.890   4.918
 5246TIP3   OH215680   4.516   2.219   4.870
 5246TIP3    H115681   4.449   2.202   4.804
 5246TIP3    H215682   4.595   2.239   4.820
 5247TIP3   OH215683   6.316   2.978   4.796
 5247TIP3    H115684   6.245   2.928   4.837
 5247TIP3    H215685   6.297   2.975   4.702
 5248TIP3   OH215686   6.972   6.471   2.783
 5248TIP3    H115687   7.027   6.429   2.849
 5248TIP3    H215688   6.883   6.442   2.804
 5249TIP3   OH215689   7.393   1.963   4.426
 5249TIP3    H115690   7.481   1.929   4.440
 5249TIP3    H215691   7.339   1.916   4.490
 5250TIP3   OH215692   1.926   1.318   3.686
 5250TIP3    H115693   1.900   1.309   3.778
 5250TIP3    H215694   1.950   1.229   3.660
 5251TIP3   OH215695   0.242   5.721   0.253
 5251TIP3    H115696   0.305   5.756   0.191
 5251TIP3    H215697   0.279   5.741   0.339
 5252TIP3   OH215698   4.403   7.758   6.278
 5252TIP3    H115699   4.377   7.673   6.242
 5252TIP3    H215700   4.332   7.780   6.339
 5253TIP3   OH215701   1.501   0.096   5.567
 5253TIP3    H115702   1.439   0.023   5.554
 5253TIP3    H215703   1.583   0.064   5.531
 5254TIP3   OH215704   1.873   2.843   5.924
 5254TIP3    H115705   1.908   2.819   6.010
 5254TIP3    H215706   1.780   2.860   5.939
 5255TIP3   OH215707   2.992   3.756   2.673
 5255TIP3    H115708   2.977   3.832   2.728
 5255TIP3    H215709   2.984   3.681   2.732
 5256TIP3   OH215710   2.854   4.329   0.004
 5256TIP3    H115711   2.906   4.298   0.078
 5256TIP3    H215712   2.823   4.250  -0.038
 5257TIP3   OH215713   3.770   6.161   6.081
 5257TIP3    H115714   3.767   6.244   6.129
 5257TIP3    H215715   3.690   6.160   6.029
 5258TIP3   OH215716   1.876   7.100   6.422
 5258TIP3    H115717   1.888   7.157   6.497
 5258TIP3    H215718   1.958   7.050   6.417
 5259TIP3   OH215719   6.242   7.217   0.330
 5259TIP3    H115720   6.286   7.133   0.343
 5259TIP3    H215721   6.262   7.242   0.240
 5260TIP3   OH215722   3.909   4.721   3.151
 5260TIP3    H115723   3.880   4.800   3.196
 5260TIP3    H215724   3.926   4.749   3.061
 5261TIP3   OH215725   3.229   1.183   0.274
 5261TIP3    H115726   3.146   1.171   0.322
 5261TIP3    H215727   3.213   1.258   0.217
 5262TIP3   OH215728   0.551   1.569   2.252
 5262TIP3    H115729   0.500   1.574   2.171
 5262TIP3    H215730   0.519   1.642   2.305
 5263TIP3   OH215731   0.863   1.452   2.838
 5263TIP3    H115732   0.833   1.486   2.753
 5263TIP3    H215733   0.794   1.476   2.899
 5264TIP3   OH215734   0.543   7.218   6.568
 5264TIP3    H115735   0.602   7.278   6.523
 5264TIP3    H215736   0.517   7.155   6.501
 5265TIP3   OH215737   5.907   4.205   4.125
 5265TIP3    H115738   5.902   4.282   4.182
 5265TIP3    H215739   5.830   4.153   4.149
 5266TIP3   OH215740   7.888   6.556   2.445
 5266TIP3    H115741   7.872   6.648   2.422
 5266TIP3    H215742   7.896   6.512   2.361
 5267TIP3   OH215743   5.137   4.272   1.039
 5267TIP3    H115744   5.078   4.311   1.104
 5267TIP3    H215745   5.219   4.258   1.086
 5268TIP3   OH215746   2.173   1.707   4.648
 5268TIP3    H115747   2.163   1.779   4.585
 5268TIP3    H215748   2.145   1.744   4.731
 5269TIP3   OH215749   1.253   5.506   3.568
 5269TIP3    H115750   1.165   5.497   3.532
 5269TIP3    H215751   1.294   5.572   3.513
 5270TIP3   OH215752   2.457   2.475   1.680
 5270TIP3    H115753   2.432   2.489   1.771
 5270TIP3    H215754   2.548   2.504   1.675
 5271TIP3   OH215755   3.665   4.724   4.014
 5271TIP3    H115756   3.610   4.652   4.045
 5271TIP3    H215757   3.740   4.724   4.073
 5272TIP3   OH215758   7.201   5.810   4.238
 5272TIP3    H115759   7.250   5.886   4.209
 5272TIP3    H215760   7.240   5.787   4.322
 5273TIP3   OH215761   6.640   5.400   0.525
 5273TIP3    H115762   6.721   5.372   0.484
 5273TIP3    H215763   6.580   5.416   0.453
 5274TIP3   OH215764   4.999   5.587   1.972
 5274TIP3    H115765   5.076   5.584   2.029
 5274TIP3    H215766   4.986   5.681   1.956
 5275TIP3   OH215767   3.240   0.085   0.376
 5275TIP3    H115768   3.174   0.045   0.318
 5275TIP3    H215769   3.193   0.156   0.419
 5276TIP3   OH215770   4.147   7.023   1.428
 5276TIP3    H115771   4.236   7.057   1.429
 5276TIP3    H215772   4.144   6.964   1.353
 5277TIP3   OH215773   7.022   5.906   6.384
 5277TIP3    H115774   7.100   5.950   6.417
 5277TIP3    H215775   7.007   5.835   6.446
 5278TIP3   OH215776   0.546   3.655   5.103
 5278TIP3    H115777   0.525   3.748   5.109
 5278TIP3    H215778   0.462   3.611   5.087
 5279TIP3   OH215779   7.170   2.145   2.190
 5279TIP3    H115780   7.157   2.231   2.231
 5279TIP3    H215781   7.207   2.164   2.104
 5280TIP3   OH215782   6.914   6.520   6.775
 5280TIP3    H115783   6.855   6.593   6.760
 5280TIP3    H215784   6.864   6.443   6.750
 5281TIP3   OH215785   0.388   7.608   1.591
 5281TIP3    H115786   0.342   7.689   1.614
 5281TIP3    H215787   0.464   7.637   1.541
 5282TIP3   OH215788   0.097   3.628   1.372
 5282TIP3    H115789   0.168   3.688   1.396
 5282TIP3    H215790   0.088   3.637   1.277
 5283TIP3   OH215791   6.668   0.162   4.573
 5283TIP3    H115792   6.603   0.198   4.634
 5283TIP3    H215793   6.701   0.083   4.617
 5284TIP3   OH215794   6.210   2.326   1.521
 5284TIP3    H115795   6.266   2.248   1.517
 5284TIP3    H215796   6.140   2.302   1.582
 5285TIP3   OH215797   0.605   7.386   5.801
 5285TIP3    H115798   0.545   7.348   5.738
 5285TIP3    H215799   0.595   7.481   5.789
 5286TIP3   OH215800   1.601   5.192   3.778
 5286TIP3    H115801   1.551   5.249   3.837
 5286TIP3    H215802   1.535   5.155   3.719
 5287TIP3   OH215803   0.727   1.951   4.629
 5287TIP3    H115804   0.734   1.867   4.674
 5287TIP3    H215805   0.817   1.979   4.616
 5288TIP3   OH215806   4.149   6.043   5.682
 5288TIP3    H115807   4.137   6.133   5.651
 5288TIP3    H215808   4.147   6.050   5.777
 5289TIP3   OH215809   7.656   5.438   1.545
 5289TIP3    H115810   7.563   5.421   1.559
 5289TIP3    H215811   7.661   5.533   1.532
 5290TIP3   OH215812   0.878   1.269   1.221
 5290TIP3    H115813   0.946   1.297   1.282
 5290TIP3    H215814   0.895   1.175   1.208
 5291TIP3   OH215815   5.973   4.991   5.588
 5291TIP3    H115816   5.970   5.051   5.514
 5291TIP3    H215817   5.907   5.024   5.649
 5292TIP3   OH215818   4.254   4.002   6.106
 5292TIP3    H115819   4.282   4.080   6.153
 5292TIP3    H215820   4.330   3.944   6.108
 5293TIP3   OH215821   1.699   5.883   6.311
 5293TIP3    H115822   1.763   5.892   6.382
 5293TIP3    H215823   1.750   5.852   6.236
 5294TIP3   OH215824   0.846   1.284   1.919
 5294TIP3    H115825   0.834   1.190   1.912
 5294TIP3    H215826   0.786   1.321   1.855
 5295TIP3   OH215827   1.340   2.486   2.417
 5295TIP3    H115828   1.426   2.447   2.436
 5295TIP3    H215829   1.282   2.411   2.408
 5296TIP3   OH215830   2.464   0.227   0.948
 5296TIP3    H115831   2.528   0.239   0.878
 5296TIP3    H215832   2.444   0.316   0.978
 5297TIP3   OH215833   3.666   7.559   2.498
 5297TIP3    H115834   3.697   7.503   2.569
 5297TIP3    H215835   3.746   7.596   2.459
 5298TIP3   OH215836   5.653   4.450   5.198
 5298TIP3    H115837   5.619   4.529   5.240
 5298TIP3    H215838   5.724   4.482   5.141
 5299TIP3   OH215839   6.048   4.928   6.301
 5299TIP3    H115840   6.021   4.857   6.359
 5299TIP3    H215841   6.013   5.007   6.342
 5300TIP3   OH215842   0.871   3.741   0.973
 5300TIP3    H115843   0.830   3.784   1.048
 5300TIP3    H215844   0.947   3.696   1.010
 5301TIP3   OH215845   0.908   7.379   1.254
 5301TIP3    H115846   0.978   7.419   1.202
 5301TIP3    H215847   0.899   7.291   1.218
 5302TIP3   OH215848   1.895   5.518   4.739
 5302TIP3    H115849   1.923   5.436   4.698
 5302TIP3    H215850   1.812   5.539   4.698
 5303TIP3   OH215851   6.557   1.814   3.816
 5303TIP3    H115852   6.544   1.844   3.906
 5303TIP3    H215853   6.572   1.720   3.823
 5304TIP3   OH215854   0.678   5.576   2.096
 5304TIP3    H115855   0.735   5.587   2.172
 5304TIP3    H215856   0.737   5.548   2.026
 5305TIP3   OH215857   3.937   1.665   2.747
 5305TIP3    H115858   4.022   1.646   2.707
 5305TIP3    H215859   3.924   1.759   2.732
 5306TIP3   OH215860   5.301   3.873   3.500
 5306TIP3    H115861   5.291   3.786   3.463
 5306TIP3    H215862   5.369   3.863   3.567
 5307TIP3   OH215863   2.428   4.336   5.310
 5307TIP3    H115864   2.352   4.390   5.332
 5307TIP3    H215865   2.398   4.246   5.320
 5308TIP3   OH215866   7.657   3.208   0.350
 5308TIP3    H115867   7.691   3.275   0.410
 5308TIP3    H215868   7.562   3.218   0.354
 5309TIP3   OH215869   7.105   4.095   1.071
 5309TIP3    H115870   7.056   4.167   1.032
 5309TIP3    H215871   7.196   4.111   1.047
 5310TIP3   OH215872   8.113   3.172   2.870
 5310TIP3    H115873   8.144   3.161   2.960
 5310TIP3    H215874   8.104   3.267   2.859
 5311TIP3   OH215875   1.292   7.009   5.043
 5311TIP3    H115876   1.315   7.036   5.132
 5311TIP3    H215877   1.302   7.088   4.991
 5312TIP3   OH215878   5.819   4.156   5.037
 5312TIP3    H115879   5.888   4.090   5.036
 5312TIP3    H215880   5.840   4.210   5.114
 5313TIP3   OH215881   1.270   2.036   0.459
 5313TIP3    H115882   1.363   2.049   0.480
 5313TIP3    H215883   1.224   2.066   0.538
 5314TIP3   OH215884   5.469   0.918   1.886
 5314TIP3    H115885   5.524   0.892   1.960
 5314TIP3    H215886   5.515   0.992   1.846
 5315TIP3   OH215887   2.439   2.474   2.571
 5315TIP3    H115888   2.479   2.390   2.595
 5315TIP3    H215889   2.348   2.466   2.602
 5316TIP3   OH215890   6.679   6.741   4.823
 5316TIP3    H115891   6.659   6.648   4.811
 5316TIP3    H215892   6.755   6.742   4.882
 5317TIP3   OH215893   3.445   1.061   3.192
 5317TIP3    H115894   3.511   0.991   3.189
 5317TIP3    H215895   3.429   1.075   3.285
 5318TIP3   OH215896   0.794   3.262   1.822
 5318TIP3    H115897   0.775   3.198   1.754
 5318TIP3    H215898   0.787   3.214   1.904
 5319TIP3   OH215899   7.509   1.794   3.319
 5319TIP3    H115900   7.539   1.853   3.388
 5319TIP3    H215901   7.588   1.773   3.269
 5320TIP3   OH215902   7.208   3.061   0.857
 5320TIP3    H115903   7.209   3.153   0.829
 5320TIP3    H215904   7.120   3.048   0.894
 5321TIP3   OH215905   8.291   0.530   5.850
 5321TIP3    H115906   8.351   0.598   5.879
 5321TIP3    H215907   8.204   0.570   5.856
 5322TIP3   OH215908   1.776   6.074   0.535
 5322TIP3    H115909   1.685   6.044   0.538
 5322TIP3    H215910   1.800   6.086   0.627
 5323TIP3   OH215911   4.305   0.525   2.590
 5323TIP3    H115912   4.365   0.551   2.520
 5323TIP3    H215913   4.232   0.484   2.544
 5324TIP3   OH215914   2.465   0.359   4.949
 5324TIP3    H115915   2.401   0.348   5.019
 5324TIP3    H215916   2.418   0.407   4.881
 5325TIP3   OH215917   0.724   2.986   4.928
 5325TIP3    H115918   0.634   3.018   4.942
 5325TIP3    H215919   0.779   3.058   4.959
 5326TIP3   OH215920   7.146   7.757   1.963
 5326TIP3    H115921   7.215   7.785   2.023
 5326TIP3    H215922   7.180   7.677   1.922
 5327TIP3   OH215923   1.599   6.542   5.899
 5327TIP3    H115924   1.633   6.518   5.985
 5327TIP3    H215925   1.659   6.501   5.837
 5328TIP3   OH215926   2.250   2.321   5.477
 5328TIP3    H115927   2.326   2.315   5.534
 5328TIP3    H215928   2.277   2.277   5.397
 5329TIP3   OH215929   5.854   0.732   3.810
 5329TIP3    H115930   5.915   0.732   3.737
 5329TIP3    H215931   5.868   0.817   3.853
 5330TIP3   OH215932   3.413   0.287   2.213
 5330TIP3    H115933   3.371   0.337   2.143
 5330TIP3    H215934   3.365   0.312   2.292
 5331TIP3   OH215935   5.882   6.101   0.227
 5331TIP3    H115936   5.918   6.178   0.270
 5331TIP3    H215937   5.951   6.035   0.232
 5332TIP3   OH215938   7.283   6.012   3.169
 5332TIP3    H115939   7.315   6.074   3.104
 5332TIP3    H215940   7.268   6.065   3.247
 5333TIP3   OH215941   0.963   1.879   1.151
 5333TIP3    H115942   0.965   1.974   1.166
 5333TIP3    H215943   1.047   1.848   1.187
 5334TIP3   OH215944   3.931   3.195   4.131
 5334TIP3    H115945   3.892   3.111   4.109
 5334TIP3    H215946   3.876   3.259   4.087
 5335TIP3   OH215947   2.651   2.084   3.251
 5335TIP3    H115948   2.683   2.010   3.199
 5335TIP3    H215949   2.643   2.050   3.340
 5336TIP3   OH215950   8.126   3.825   0.140
 5336TIP3    H115951   8.126   3.841   0.235
 5336TIP3    H215952   8.171   3.741   0.131
 5337TIP3   OH215953   7.220   2.204   1.202
 5337TIP3    H115954   7.185   2.170   1.284
 5337TIP3    H215955   7.216   2.129   1.142
 5338TIP3   OH215956   2.652   6.403   1.582
 5338TIP3    H115957   2.605   6.420   1.663
 5338TIP3    H215958   2.585   6.371   1.521
 5339TIP3   OH215959   6.159   1.288   3.387
 5339TIP3    H115960   6.066   1.277   3.367
 5339TIP3    H215961   6.186   1.365   3.337
 5340TIP3   OH215962   4.135   1.912   2.730
 5340TIP3    H115963   4.150   1.843   2.794
 5340TIP3    H215964   4.198   1.980   2.753
 5341TIP3   OH215965   3.306   3.930   5.107
 5341TIP3    H115966   3.251   3.891   5.039
 5341TIP3    H215967   3.299   4.024   5.093
 5342TIP3   OH215968   1.579   2.231   5.313
 5342TIP3    H115969   1.583   2.251   5.220
 5342TIP3    H215970   1.558   2.314   5.355
 5343TIP3   OH215971   8.056   4.516   1.558
 5343TIP3    H115972   7.997   4.463   1.611
 5343TIP3    H215973   8.109   4.453   1.510
 5344TIP3   OH215974   1.615   2.398   2.499
 5344TIP3    H115975   1.659   2.451   2.433
 5344TIP3    H215976   1.628   2.446   2.581
 5345TIP3   OH215977   8.131   0.190   4.342
 5345TIP3    H115978   8.104   0.141   4.265
 5345TIP3    H215979   8.098   0.278   4.328
 5346TIP3   OH215980   0.512   4.967   6.075
 5346TIP3    H115981   0.581   5.026   6.046
 5346TIP3    H215982   0.512   4.976   6.171
 5347TIP3   OH215983   0.046   7.329   3.583
 5347TIP3    H115984   0.021   7.325   3.675
 5347TIP3    H215985   0.032   7.240   3.550
 5348TIP3   OH215986   6.357   3.482   6.692
 5348TIP3    H115987   6.299   3.443   6.758
 5348TIP3    H215988   6.298   3.530   6.635
 5349TIP3   OH215989   4.961   2.892   1.215
 5349TIP3    H115990   4.900   2.841   1.268
 5349TIP3    H215991   5.047   2.855   1.235
 5350TIP3   OH215992   5.486   6.714   1.633
 5350TIP3    H115993   5.501   6.778   1.564
 5350TIP3    H215994   5.457   6.635   1.588
 5351TIP3   OH215995   7.643   3.579   4.891
 5351TIP3    H115996   7.575   3.570   4.824
 5351TIP3    H215997   7.722   3.603   4.841
 5352TIP3   OH215998   3.664   3.006   1.784
 5352TIP3    H115999   3.698   3.078   1.731
 5352TIP3    H216000   3.585   2.977   1.739
 5353TIP3   OH216001   1.343   7.332   6.123
 5353TIP3    H116002   1.327   7.325   6.029
 5353TIP3    H216003   1.317   7.247   6.158
 5354TIP3   OH216004   3.398   5.327   4.202
 5354TIP3    H116005   3.489   5.320   4.175
 5354TIP3    H216006   3.402   5.351   4.295
 5355TIP3   OH216007   6.545   4.425   1.317
 5355TIP3    H116008   6.478   4.476   1.270
 5355TIP3    H216009   6.576   4.485   1.385
 5356TIP3   OH216010   7.347   2.829   1.595
 5356TIP3    H116011   7.258   2.835   1.630
 5356TIP3    H216012   7.403   2.823   1.672
 5357TIP3   OH216013   7.386   0.997   6.315
 5357TIP3    H116014   7.449   0.962   6.252
 5357TIP3    H216015   7.369   1.086   6.285
 5358TIP3   OH216016   5.797   4.097   2.522
 5358TIP3    H116017   5.723   4.136   2.476
 5358TIP3    H216018   5.870   4.155   2.502
 5359TIP3   OH216019   1.170   4.632   3.102
 5359TIP3    H116020   1.251   4.601   3.143
 5359TIP3    H216021   1.103   4.573   3.136
 5360TIP3   OH216022   0.812   6.313   3.887
 5360TIP3    H116023   0.769   6.235   3.853
 5360TIP3    H216024   0.754   6.385   3.860
 5361TIP3   OH216025   5.502   5.997   5.751
 5361TIP3    H116026   5.582   5.945   5.764
 5361TIP3    H216027   5.481   6.031   5.838
 5362TIP3   OH216028   1.299   6.284   3.039
 5362TIP3    H116029   1.262   6.340   2.971
 5362TIP3    H216030   1.239   6.210   3.044
 5363TIP3   OH216031   6.861   1.948   1.357
 5363TIP3    H116032   6.908   1.910   1.430
 5363TIP3    H216033   6.916   1.930   1.281
 5364TIP3   OH216034   2.783   6.217   3.809
 5364TIP3    H116035   2.799   6.310   3.795
 5364TIP3    H216036   2.768   6.209   3.903
 5365TIP3   OH216037   6.350   7.103   5.953
 5365TIP3    H116038   6.346   7.034   6.020
 5365TIP3    H216039   6.400   7.173   5.994
 5366TIP3   OH216040   7.679   5.511   3.719
 5366TIP3    H116041   7.627   5.523   3.799
 5366TIP3    H216042   7.758   5.562   3.734
 5367TIP3   OH216043   4.098   7.421   6.778
 5367TIP3    H116044   4.155   7.371   6.719
 5367TIP3    H216045   4.011   7.386   6.760
 5368TIP3   OH216046   0.863   3.274   0.490
 5368TIP3    H116047   0.869   3.217   0.413
 5368TIP3    H216048   0.903   3.225   0.561
 5369TIP3   OH216049   6.642   1.157   1.054
 5369TIP3    H116050   6.709   1.195   1.112
 5369TIP3    H216051   6.691   1.100   0.995
 5370TIP3   OH216052   3.658   5.480   1.010
 5370TIP3    H116053   3.621   5.540   1.074
 5370TIP3    H216054   3.709   5.537   0.951
 5371TIP3   OH216055   2.875   3.121   4.697
 5371TIP3    H116056   2.861   3.212   4.669
 5371TIP3    H216057   2.798   3.074   4.664
 5372TIP3   OH216058   5.421   4.797   0.419
 5372TIP3    H116059   5.429   4.875   0.473
 5372TIP3    H216060   5.356   4.820   0.353
 5373TIP3   OH216061   5.892   1.815   4.480
 5373TIP3    H116062   5.824   1.749   4.463
 5373TIP3    H216063   5.911   1.807   4.573
 5374TIP3   OH216064   6.299   0.994   1.799
 5374TIP3    H116065   6.237   1.018   1.730
 5374TIP3    H216066   6.381   1.038   1.774
 5375TIP3   OH216067   6.469   1.893   5.269
 5375TIP3    H116068   6.474   1.921   5.178
 5375TIP3    H216069   6.492   1.800   5.267
 5376TIP3   OH216070   1.914   5.121   4.178
 5376TIP3    H116071   2.009   5.127   4.171
 5376TIP3    H216072   1.883   5.123   4.088
 5377TIP3   OH216073   1.926   4.253   1.787
 5377TIP3    H116074   1.909   4.171   1.742
 5377TIP3    H216075   2.011   4.240   1.829
 5378TIP3   OH216076   2.432   3.477   2.922
 5378TIP3    H116077   2.429   3.571   2.939
 5378TIP3    H216078   2.524   3.459   2.903
 5379TIP3   OH216079   2.511   5.648   4.715
 5379TIP3    H116080   2.510   5.569   4.769
 5379TIP3    H216081   2.432   5.696   4.741
 5380TIP3   OH216082   4.890   4.884   1.051
 5380TIP3    H116083   4.953   4.951   1.078
 5380TIP3    H216084   4.927   4.802   1.082
 5381TIP3   OH216085   5.902   1.146   3.353
 5381TIP3    H116086   5.807   1.158   3.351
 5381TIP3    H216087   5.916   1.054   3.333
 5382TIP3   OH216088   1.466   7.180   3.729
 5382TIP3    H116089   1.388   7.158   3.780
 5382TIP3    H216090   1.433   7.238   3.660
 5383TIP3   OH216091   5.905   1.989   3.917
 5383TIP3    H116092   5.877   1.923   3.981
 5383TIP3    H216093   5.994   2.012   3.946
 5384TIP3   OH216094   7.750   1.769   4.648
 5384TIP3    H116095   7.719   1.728   4.567
 5384TIP3    H216096   7.679   1.758   4.710
 5385TIP3   OH216097   6.294   1.999   1.972
 5385TIP3    H116098   6.239   2.072   1.946
 5385TIP3    H216099   6.310   2.013   2.066
 5386TIP3   OH216100   0.988   7.243   5.646
 5386TIP3    H116101   0.976   7.200   5.562
 5386TIP3    H216102   0.957   7.179   5.711
 5387TIP3   OH216103   4.282   2.547   2.170
 5387TIP3    H116104   4.229   2.576   2.244
 5387TIP3    H216105   4.306   2.457   2.191
 5388TIP3   OH216106   8.012   3.143   5.659
 5388TIP3    H116107   7.959   3.107   5.588
 5388TIP3    H216108   8.058   3.067   5.695
 5389TIP3   OH216109   0.369   0.693   3.112
 5389TIP3    H116110   0.437   0.750   3.075
 5389TIP3    H216111   0.417   0.620   3.150
 5390TIP3   OH216112   3.088   4.814   0.985
 5390TIP3    H116113   3.058   4.843   0.899
 5390TIP3    H216114   3.010   4.775   1.026
 5391TIP3   OH216115   5.477   4.711   0.943
 5391TIP3    H116116   5.396   4.682   0.987
 5391TIP3    H216117   5.497   4.641   0.881
 5392TIP3   OH216118   5.999   3.725   6.765
 5392TIP3    H116119   5.904   3.724   6.756
 5392TIP3    H216120   6.021   3.817   6.782
 5393TIP3   OH216121   4.018   3.136   3.336
 5393TIP3    H116122   4.049   3.051   3.305
 5393TIP3    H216123   4.090   3.169   3.391
 5394TIP3   OH216124   5.792   1.068   4.256
 5394TIP3    H116125   5.864   1.104   4.205
 5394TIP3    H216126   5.743   1.014   4.194
 5395TIP3   OH216127   2.466   3.406   3.479
 5395TIP3    H116128   2.480   3.500   3.493
 5395TIP3    H216129   2.481   3.392   3.386
 5396TIP3   OH216130   1.446   3.859   3.160
 5396TIP3    H116131   1.428   3.825   3.072
 5396TIP3    H216132   1.440   3.782   3.217
 5397TIP3   OH216133   3.179   4.686   3.099
 5397TIP3    H116134   3.132   4.610   3.065
 5397TIP3    H216135   3.111   4.742   3.136
 5398TIP3   OH216136   4.767   5.951   0.635
 5398TIP3    H116137   4.794   6.042   0.621
 5398TIP3    H216138   4.843   5.900   0.610
 5399TIP3   OH216139   0.727   0.260   0.242
 5399TIP3    H116140   0.665   0.333   0.246
 5399TIP3    H216141   0.803   0.290   0.292
 5400TIP3   OH216142   3.709   5.456   0.607
 5400TIP3    H116143   3.690   5.435   0.515
 5400TIP3    H216144   3.628   5.437   0.653
 5401TIP3   OH216145   2.797   2.628   3.982
 5401TIP3    H116146   2.762   2.714   3.957
 5401TIP3    H216147   2.771   2.569   3.911
 5402TIP3   OH216148   7.694   5.385   3.043
 5402TIP3    H116149   7.730   5.416   2.960
 5402TIP3    H216150   7.746   5.308   3.065
 5403TIP3   OH216151   0.422   2.256   3.473
 5403TIP3    H116152   0.337   2.226   3.503
 5403TIP3    H216153   0.444   2.328   3.532
 5404TIP3   OH216154   3.865   2.425   4.369
 5404TIP3    H116155   3.908   2.398   4.450
 5404TIP3    H216156   3.836   2.343   4.329
 5405TIP3   OH216157   1.951   3.517   1.140
 5405TIP3    H116158   1.976   3.455   1.209
 5405TIP3    H216159   1.985   3.601   1.170
 5406TIP3   OH216160   3.923   0.666   3.806
 5406TIP3    H116161   3.926   0.640   3.898
 5406TIP3    H216162   3.953   0.757   3.806
 5407TIP3   OH216163   3.721   5.905   0.940
 5407TIP3    H116164   3.657   5.925   0.872
 5407TIP3    H216165   3.672   5.852   1.003
 5408TIP3   OH216166   1.093   5.872   4.641
 5408TIP3    H116167   1.047   5.943   4.595
 5408TIP3    H216168   1.024   5.828   4.691
 5409TIP3   OH216169   2.780   7.726   6.504
 5409TIP3    H116170   2.691   7.758   6.517
 5409TIP3    H216171   2.805   7.687   6.588
 5410TIP3   OH216172   5.809   3.798   3.161
 5410TIP3    H116173   5.853   3.721   3.197
 5410TIP3    H216174   5.814   3.786   3.066
 5411TIP3   OH216175   7.617   6.966   2.337
 5411TIP3    H116176   7.599   7.057   2.361
 5411TIP3    H216177   7.601   6.917   2.417
 5412TIP3   OH216178   7.602   4.971   1.722
 5412TIP3    H116179   7.525   4.973   1.665
 5412TIP3    H216180   7.661   5.037   1.684
 5413TIP3   OH216181   7.843   3.692   3.546
 5413TIP3    H116182   7.904   3.631   3.504
 5413TIP3    H216183   7.763   3.686   3.495
 5414TIP3   OH216184   0.926   5.379   6.014
 5414TIP3    H116185   0.938   5.460   6.062
 5414TIP3    H216186   0.891   5.406   5.929
 5415TIP3   OH216187   6.544   2.963   0.704
 5415TIP3    H116188   6.547   3.052   0.741
 5415TIP3    H216189   6.576   2.907   0.775
 5416TIP3   OH216190   0.551   4.404   5.114
 5416TIP3    H116191   0.458   4.400   5.138
 5416TIP3    H216192   0.551   4.447   5.028
 5417TIP3   OH216193   1.470   0.949   3.651
 5417TIP3    H116194   1.532   1.012   3.688
 5417TIP3    H216195   1.472   0.966   3.557
 5418TIP3   OH216196   5.075   0.271   2.579
 5418TIP3    H116197   5.077   0.196   2.519
 5418TIP3    H216198   5.061   0.347   2.523
 5419TIP3   OH216199   0.552   4.945   3.646
 5419TIP3    H116200   0.503   4.889   3.705
 5419TIP3    H216201   0.624   4.889   3.615
 5420TIP3   OH216202   2.057   1.084   2.251
 5420TIP3    H116203   2.102   1.052   2.328
 5420TIP3    H216204   2.126   1.116   2.194
 5421TIP3   OH216205   0.477   4.165   5.475
 5421TIP3    H116206   0.573   4.164   5.474
 5421TIP3    H216207   0.453   4.078   5.508
 5422TIP3   OH216208   3.144   0.410   1.937
 5422TIP3    H116209   3.124   0.501   1.914
 5422TIP3    H216210   3.239   0.406   1.940
 5423TIP3   OH216211   7.981   6.961   3.915
 5423TIP3    H116212   8.008   6.870   3.925
 5423TIP3    H216213   8.062   7.012   3.927
 5424TIP3   OH216214   6.015   0.466   6.448
 5424TIP3    H116215   6.051   0.435   6.365
 5424TIP3    H216216   6.016   0.561   6.440
 5425TIP3   OH216217   3.666   4.618   5.051
 5425TIP3    H116218   3.751   4.582   5.074
 5425TIP3    H216219   3.683   4.709   5.027
 5426TIP3   OH216220   0.499   6.135   4.860
 5426TIP3    H116221   0.508   6.049   4.900
 5426TIP3    H216222   0.411   6.136   4.823
 5427TIP3   OH216223   0.222   2.143   0.490
 5427TIP3    H116224   0.220   2.068   0.549
 5427TIP3    H216225   0.220   2.219   0.547
 5428TIP3   OH216226   4.226   4.305   1.467
 5428TIP3    H116227   4.216   4.330   1.376
 5428TIP3    H216228   4.182   4.375   1.516
 5429TIP3   OH216229   4.423   5.901   3.933
 5429TIP3    H116230   4.436   5.845   3.856
 5429TIP3    H216231   4.329   5.896   3.951
 5430TIP3   OH216232   2.310   4.981   6.715
 5430TIP3    H116233   2.242   4.944   6.657
 5430TIP3    H216234   2.369   5.026   6.656
 5431TIP3   OH216235   4.325   6.198   3.609
 5431TIP3    H116236   4.275   6.117   3.602
 5431TIP3    H216237   4.416   6.170   3.621
 5432TIP3   OH216238   4.604   1.234   1.106
 5432TIP3    H116239   4.588   1.276   1.191
 5432TIP3    H216240   4.565   1.294   1.042
 5433TIP3   OH216241   0.936   2.074   2.343
 5433TIP3    H116242   0.956   2.049   2.433
 5433TIP3    H216243   1.001   2.029   2.290
 5434TIP3   OH216244   1.102   7.587   2.506
 5434TIP3    H116245   1.095   7.679   2.534
 5434TIP3    H216246   1.194   7.566   2.516
 5435TIP3   OH216247   1.680   4.558   3.875
 5435TIP3    H116248   1.661   4.641   3.918
 5435TIP3    H216249   1.599   4.537   3.826
 5436TIP3   OH216250   2.083   6.510   0.106
 5436TIP3    H116251   2.061   6.497   0.198
 5436TIP3    H216252   2.077   6.422   0.067
 5437TIP3   OH216253   7.227   4.153   6.050
 5437TIP3    H116254   7.175   4.229   6.075
 5437TIP3    H216255   7.227   4.154   5.954
 5438TIP3   OH216256   3.724   3.850   1.677
 5438TIP3    H116257   3.731   3.942   1.651
 5438TIP3    H216258   3.781   3.804   1.615
 5439TIP3   OH216259   6.995   4.284   4.595
 5439TIP3    H116260   7.024   4.216   4.534
 5439TIP3    H216261   7.021   4.366   4.553
 5440TIP3   OH216262   6.026   5.551   0.847
 5440TIP3    H116263   6.096   5.604   0.809
 5440TIP3    H216264   5.992   5.603   0.919
 5441TIP3   OH216265   2.010   3.702   1.392
 5441TIP3    H116266   2.104   3.718   1.382
 5441TIP3    H216267   1.980   3.771   1.451
 5442TIP3   OH216268   5.502   1.440   5.000
 5442TIP3    H116269   5.569   1.397   4.947
 5442TIP3    H216270   5.435   1.374   5.012
 5443TIP3   OH216271   2.588   5.422   2.024
 5443TIP3    H116272   2.667   5.442   1.975
 5443TIP3    H216273   2.604   5.337   2.063
 5444TIP3   OH216274   2.264   5.097   3.735
 5444TIP3    H116275   2.230   5.168   3.789
 5444TIP3    H216276   2.352   5.080   3.770
 5445TIP3   OH216277   1.534   4.381   4.746
 5445TIP3    H116278   1.554   4.293   4.713
 5445TIP3    H216279   1.591   4.392   4.821
 5446TIP3   OH216280   0.541   5.212   3.508
 5446TIP3    H116281   0.449   5.235   3.498
 5446TIP3    H216282   0.540   5.120   3.536
 5447TIP3   OH216283   3.757   4.934   2.098
 5447TIP3    H116284   3.698   4.887   2.157
 5447TIP3    H216285   3.737   4.898   2.011
 5448TIP3   OH216286   4.123   0.693   2.994
 5448TIP3    H116287   4.186   0.675   3.063
 5448TIP3    H216288   4.108   0.608   2.952
 5449TIP3   OH216289   0.564   5.897   5.422
 5449TIP3    H116290   0.582   5.805   5.442
 5449TIP3    H216291   0.472   5.908   5.445
 5450TIP3   OH216292   0.357   7.005   1.571
 5450TIP3    H116293   0.283   6.963   1.528
 5450TIP3    H216294   0.332   7.097   1.577
 5451TIP3   OH216295   6.983   0.311   3.280
 5451TIP3    H116296   6.921   0.382   3.263
 5451TIP3    H216297   7.002   0.275   3.193
 5452TIP3   OH216298   7.767   1.437   0.824
 5452TIP3    H116299   7.835   1.393   0.875
 5452TIP3    H216300   7.779   1.530   0.845
 5453TIP3   OH216301   0.532   0.334   4.781
 5453TIP3    H116302   0.467   0.352   4.849
 5453TIP3    H216303   0.597   0.278   4.824
 5454TIP3   OH216304   6.718   0.116   1.346
 5454TIP3    H116305   6.757   0.068   1.273
 5454TIP3    H216306   6.681   0.195   1.307
 5455TIP3   OH216307   4.097   3.014   3.864
 5455TIP3    H116308   4.054   3.092   3.830
 5455TIP3    H216309   4.130   2.969   3.786
 5456TIP3   OH216310   2.925   0.953   5.779
 5456TIP3    H116311   2.950   0.902   5.857
 5456TIP3    H216312   2.968   0.908   5.706
 5457TIP3   OH216313   6.923   5.372   0.251
 5457TIP3    H116314   6.922   5.317   0.173
 5457TIP3    H216315   6.870   5.324   0.314
 5458TIP3   OH216316   4.162   7.681   2.410
 5458TIP3    H116317   4.073   7.674   2.374
 5458TIP3    H216318   4.213   7.719   2.339
 5459TIP3   OH216319   7.954   0.302   0.402
 5459TIP3    H116320   7.884   0.335   0.346
 5459TIP3    H216321   7.981   0.379   0.453
 5460TIP3   OH216322   3.966   2.713   4.635
 5460TIP3    H116323   3.974   2.781   4.568
 5460TIP3    H216324   4.037   2.732   4.696
 5461TIP3   OH216325   2.531   3.226   4.627
 5461TIP3    H116326   2.439   3.250   4.615
 5461TIP3    H216327   2.534   3.185   4.713
 5462TIP3   OH216328   0.166   2.851   0.840
 5462TIP3    H116329   0.259   2.830   0.850
 5462TIP3    H216330   0.140   2.886   0.925
 5463TIP3   OH216331   3.115   0.305   3.303
 5463TIP3    H116332   3.126   0.269   3.391
 5463TIP3    H216333   3.199   0.348   3.285
 5464TIP3   OH216334   7.500   0.298   4.685
 5464TIP3    H116335   7.484   0.227   4.747
 5464TIP3    H216336   7.413   0.319   4.650
 5465TIP3   OH216337   6.291   6.072   4.457
 5465TIP3    H116338   6.218   6.074   4.519
 5465TIP3    H216339   6.250   6.075   4.371
 5466TIP3   OH216340   2.515   0.104   5.629
 5466TIP3    H116341   2.601   0.140   5.653
 5466TIP3    H216342   2.498   0.139   5.542
 5467TIP3   OH216343   1.952   0.122   1.978
 5467TIP3    H116344   1.974   0.212   1.952
 5467TIP3    H216345   2.020   0.068   1.938
 5468TIP3   OH216346   6.868   7.287   1.429
 5468TIP3    H116347   6.942   7.276   1.488
 5468TIP3    H216348   6.869   7.209   1.373
 5469TIP3   OH216349   3.099   7.492   3.093
 5469TIP3    H116350   3.023   7.466   3.042
 5469TIP3    H216351   3.090   7.444   3.176
 5470TIP3   OH216352   7.961   6.854   3.366
 5470TIP3    H116353   8.013   6.886   3.292
 5470TIP3    H216354   7.998   6.897   3.443
 5471TIP3   OH216355   1.328   6.850   6.559
 5471TIP3    H116356   1.391   6.880   6.495
 5471TIP3    H216357   1.268   6.924   6.571
 5472TIP3   OH216358   6.866   4.679   0.852
 5472TIP3    H116359   6.961   4.684   0.868
 5472TIP3    H216360   6.841   4.767   0.827
 5473TIP3   OH216361   4.585   0.993   2.368
 5473TIP3    H116362   4.552   1.066   2.420
 5473TIP3    H216363   4.660   0.960   2.417
 5474TIP3   OH216364   4.738   0.160   6.599
 5474TIP3    H116365   4.762   0.149   6.507
 5474TIP3    H216366   4.781   0.088   6.644
 5475TIP3   OH216367   6.856   2.179   4.360
 5475TIP3    H116368   6.860   2.272   4.336
 5475TIP3    H216369   6.911   2.172   4.438
 5476TIP3   OH216370   6.297   6.874   1.277
 5476TIP3    H116371   6.283   6.782   1.255
 5476TIP3    H216372   6.344   6.872   1.360
 5477TIP3   OH216373   4.973   7.346   3.832
 5477TIP3    H116374   4.886   7.371   3.862
 5477TIP3    H216375   5.020   7.429   3.822
 5478TIP3   OH216376   7.549   5.534   6.693
 5478TIP3    H116377   7.498   5.459   6.662
 5478TIP3    H216378   7.600   5.562   6.618
 5479TIP3   OH216379   1.678   1.458   3.074
 5479TIP3    H116380   1.636   1.462   3.161
 5479TIP3    H216381   1.608   1.430   3.015
 5480TIP3   OH216382   5.385   5.648   0.367
 5480TIP3    H116383   5.369   5.568   0.417
 5480TIP3    H216384   5.407   5.618   0.279
 5481TIP3   OH216385   8.269   2.875   3.363
 5481TIP3    H116386   8.216   2.868   3.284
 5481TIP3    H216387   8.206   2.894   3.433
 5482TIP3   OH216388   4.662   0.864   0.775
 5482TIP3    H116389   4.687   0.773   0.787
 5482TIP3    H216390   4.628   0.892   0.860
 5483TIP3   OH216391   1.690   1.951   0.042
 5483TIP3    H116392   1.682   1.858   0.060
 5483TIP3    H216393   1.683   1.958  -0.053
 5484TIP3   OH216394   6.866   6.826   5.038
 5484TIP3    H116395   6.860   6.747   5.091
 5484TIP3    H216396   6.958   6.852   5.043
 5485TIP3   OH216397   7.213   7.620   1.362
 5485TIP3    H116398   7.203   7.593   1.453
 5485TIP3    H216399   7.307   7.609   1.344
 5486TIP3   OH216400   5.333   6.952   2.707
 5486TIP3    H116401   5.309   6.924   2.795
 5486TIP3    H216402   5.259   6.925   2.653
 5487TIP3   OH216403   7.048   2.327   6.626
 5487TIP3    H116404   7.128   2.380   6.628
 5487TIP3    H216405   7.075   2.243   6.662
 5488TIP3   OH216406   4.284   0.148   1.985
 5488TIP3    H116407   4.304   0.220   2.045
 5488TIP3    H216408   4.328   0.172   1.903
 5489TIP3   OH216409   1.828   7.633   2.189
 5489TIP3    H116410   1.770   7.570   2.146
 5489TIP3    H216411   1.797   7.638   2.279
 5490TIP3   OH216412   1.352   7.629   3.825
 5490TIP3    H116413   1.364   7.537   3.849
 5490TIP3    H216414   1.338   7.628   3.731
 5491TIP3   OH216415   3.469   4.651   1.965
 5491TIP3    H116416   3.480   4.566   2.007
 5491TIP3    H216417   3.424   4.705   2.030
 5492TIP3   OH216418   2.211   7.029   1.021
 5492TIP3    H116419   2.126   7.057   1.055
 5492TIP3    H216420   2.238   6.957   1.078
 5493TIP3   OH216421   3.826   3.135   0.626
 5493TIP3    H116422   3.795   3.191   0.697
 5493TIP3    H216423   3.874   3.065   0.670
 5494TIP3   OH216424   7.398   2.089   0.075
 5494TIP3    H116425   7.355   2.004   0.067
 5494TIP3    H216426   7.392   2.110   0.168
 5495TIP3   OH216427   3.773   0.091   4.389
 5495TIP3    H116428   3.804   0.049   4.469
 5495TIP3    H216429   3.683   0.115   4.407
 5496TIP3   OH216430   0.307   7.394   6.489
 5496TIP3    H116431   0.332   7.321   6.545
 5496TIP3    H216432   0.219   7.372   6.457
 5497TIP3   OH216433   6.232   6.136   5.413
 5497TIP3    H116434   6.176   6.214   5.415
 5497TIP3    H216435   6.216   6.093   5.497
 5498TIP3   OH216436   8.030   4.040   4.084
 5498TIP3    H116437   8.071   4.093   4.153
 5498TIP3    H216438   8.027   4.099   4.008
 5499TIP3   OH216439   7.328   6.853   5.504
 5499TIP3    H116440   7.319   6.875   5.597
 5499TIP3    H216441   7.384   6.776   5.503
 5500TIP3   OH216442   2.577   2.195   0.088
 5500TIP3    H116443   2.671   2.212   0.081
 5500TIP3    H216444   2.571   2.122   0.150
 5501TIP3   OH216445   3.514   1.797   4.901
 5501TIP3    H116446   3.433   1.794   4.952
 5501TIP3    H216447   3.525   1.890   4.880
 5502TIP3   OH216448   4.952   2.382   0.785
 5502TIP3    H116449   4.907   2.466   0.796
 5502TIP3    H216450   4.950   2.365   0.691
 5503TIP3   OH216451   5.757   1.052   0.130
 5503TIP3    H116452   5.820   1.120   0.156
 5503TIP3    H216453   5.684   1.101   0.092
 5504TIP3   OH216454   0.518   6.507   2.240
 5504TIP3    H116455   0.541   6.454   2.316
 5504TIP3    H216456   0.601   6.518   2.193
 5505TIP3   OH216457   6.715   6.847   2.706
 5505TIP3    H116458   6.639   6.792   2.723
 5505TIP3    H216459   6.788   6.785   2.696
 5506TIP3   OH216460   5.234   6.207   6.160
 5506TIP3    H116461   5.294   6.164   6.099
 5506TIP3    H216462   5.147   6.176   6.135
 5507TIP3   OH216463   4.420   0.057   3.895
 5507TIP3    H116464   4.507   0.020   3.881
 5507TIP3    H216465   4.428   0.107   3.976
 5508TIP3   OH216466   3.035   2.497   1.160
 5508TIP3    H116467   3.035   2.414   1.114
 5508TIP3    H216468   2.956   2.495   1.215
 5509TIP3   OH216469   6.228   6.125   1.152
 5509TIP3    H116470   6.322   6.115   1.168
 5509TIP3    H216471   6.189   6.044   1.187
 5510TIP3   OH216472   0.765   5.174   0.740
 5510TIP3    H116473   0.835   5.170   0.805
 5510TIP3    H216474   0.779   5.098   0.685
 5511TIP3   OH216475   5.526   7.498   4.140
 5511TIP3    H116476   5.531   7.472   4.232
 5511TIP3    H216477   5.440   7.539   4.131
 5512TIP3   OH216478   6.203   1.017   3.437
 5512TIP3    H116479   6.161   1.102   3.422
 5512TIP3    H216480   6.149   0.975   3.504
 5513TIP3   OH216481   1.933   2.824   4.989
 5513TIP3    H116482   1.845   2.838   4.955
 5513TIP3    H216483   1.940   2.885   5.063
 5514TIP3   OH216484   2.211   4.666   6.278
 5514TIP3    H116485   2.296   4.653   6.318
 5514TIP3    H216486   2.150   4.616   6.332
 5515TIP3   OH216487   4.770   2.836   4.215
 5515TIP3    H116488   4.705   2.785   4.165
 5515TIP3    H216489   4.807   2.896   4.151
 5516TIP3   OH216490   0.016   2.796   0.304
 5516TIP3    H116491   0.007   2.701   0.308
 5516TIP3    H216492   0.030   2.822   0.395
 5517TIP3   OH216493   7.590   7.172   5.526
 5517TIP3    H116494   7.546   7.250   5.561
 5517TIP3    H216495   7.605   7.117   5.603
 5518TIP3   OH216496   2.813   7.258   0.185
 5518TIP3    H116497   2.766   7.237   0.265
 5518TIP3    H216498   2.788   7.189   0.123
 5519TIP3   OH216499   7.324   5.291   5.156
 5519TIP3    H116500   7.343   5.238   5.078
 5519TIP3    H216501   7.242   5.254   5.190
 5520TIP3   OH216502   1.455   5.171   5.583
 5520TIP3    H116503   1.359   5.181   5.582
 5520TIP3    H216504   1.487   5.252   5.544
 5521TIP3   OH216505   1.693   4.801   1.927
 5521TIP3    H116506   1.765   4.766   1.874
 5521TIP3    H216507   1.731   4.814   2.013
 5522TIP3   OH216508   1.530   3.982   6.778
 5522TIP3    H116509   1.455   3.945   6.823
 5522TIP3    H216510   1.497   4.008   6.692
 5523TIP3   OH216511   0.951   6.752   6.427
 5523TIP3    H116512   0.927   6.774   6.517
 5523TIP3    H216513   0.975   6.660   6.430
 5524TIP3   OH216514   0.964   4.694   5.999
 5524TIP3    H116515   0.918   4.733   6.073
 5524TIP3    H216516   1.026   4.761   5.971
 5525TIP3   OH216517   5.540   1.766   0.605
 5525TIP3    H116518   5.562   1.800   0.518
 5525TIP3    H216519   5.574   1.831   0.666
 5526TIP3   OH216520   5.122   4.372   1.878
 5526TIP3    H116521   5.122   4.287   1.834
 5526TIP3    H216522   5.094   4.353   1.967
 5527TIP3   OH216523   1.111   7.634   2.937
 5527TIP3    H116524   1.136   7.542   2.932
 5527TIP3    H216525   1.015   7.633   2.934
 5528TIP3   OH216526   7.778   0.841   0.351
 5528TIP3    H116527   7.700   0.807   0.307
 5528TIP3    H216528   7.840   0.857   0.280
 5529TIP3   OH216529   4.425   7.215   4.218
 5529TIP3    H116530   4.383   7.243   4.300
 5529TIP3    H216531   4.502   7.166   4.246
 5530TIP3   OH216532   1.258   2.243   2.335
 5530TIP3    H116533   1.227   2.170   2.389
 5530TIP3    H216534   1.350   2.222   2.317
 5531TIP3   OH216535   5.174   5.752   5.860
 5531TIP3    H116536   5.188   5.834   5.813
 5531TIP3    H216537   5.233   5.756   5.935
 5532TIP3   OH216538   1.066   6.995   3.295
 5532TIP3    H116539   1.120   6.975   3.372
 5532TIP3    H216540   0.976   6.973   3.322
 5533TIP3   OH216541   2.842   4.203   3.268
 5533TIP3    H116542   2.880   4.137   3.326
 5533TIP3    H216543   2.863   4.287   3.310
 5534TIP3   OH216544   3.976   5.981   1.216
 5534TIP3    H116545   3.964   5.934   1.133
 5534TIP3    H216546   3.887   5.997   1.248
 5535TIP3   OH216547   6.705   0.087   0.852
 5535TIP3    H116548   6.764   0.055   0.783
 5535TIP3    H216549   6.630   0.028   0.847
 5536TIP3   OH216550   0.057   1.717   0.390
 5536TIP3    H116551  -0.036   1.707   0.371
 5536TIP3    H216552   0.088   1.783   0.328
 5537TIP3   OH216553   7.382   7.583   3.022
 5537TIP3    H116554   7.414   7.668   2.992
 5537TIP3    H216555   7.300   7.602   3.068
 5538TIP3   OH216556   1.399   1.481   3.799
 5538TIP3    H116557   1.443   1.496   3.716
 5538TIP3    H216558   1.367   1.391   3.793
 5539TIP3   OH216559   4.013   1.243   4.376
 5539TIP3    H116560   4.070   1.241   4.300
 5539TIP3    H216561   4.072   1.237   4.451
 5540TIP3   OH216562   1.915   2.015   2.457
 5540TIP3    H116563   1.859   1.941   2.433
 5540TIP3    H216564   1.854   2.081   2.492
 5541TIP3   OH216565   8.008   7.586   0.937
 5541TIP3    H116566   7.942   7.538   0.888
 5541TIP3    H216567   7.965   7.668   0.963
 5542TIP3   OH216568   6.502   1.563   5.878
 5542TIP3    H116569   6.487   1.490   5.938
 5542TIP3    H216570   6.417   1.606   5.870
 5543TIP3   OH216571   3.532   1.771   6.428
 5543TIP3    H116572   3.472   1.808   6.493
 5543TIP3    H216573   3.573   1.848   6.387
 5544TIP3   OH216574   7.971   4.102   1.228
 5544TIP3    H116575   7.975   4.068   1.318
 5544TIP3    H216576   7.945   4.193   1.239
 5545TIP3   OH216577   1.701   3.573   2.650
 5545TIP3    H116578   1.737   3.490   2.680
 5545TIP3    H216579   1.711   3.571   2.555
 5546TIP3   OH216580   2.801   3.355   1.483
 5546TIP3    H116581   2.753   3.272   1.487
 5546TIP3    H216582   2.842   3.354   1.397
 5547TIP3   OH216583   4.576   7.006   0.534
 5547TIP3    H116584   4.509   7.065   0.569
 5547TIP3    H216585   4.538   6.971   0.453
 5548TIP3   OH216586   1.904   5.642   0.076
 5548TIP3    H116587   1.950   5.695   0.012
 5548TIP3    H216588   1.952   5.558   0.076
 5549TIP3   OH216589   6.337   5.689   2.414
 5549TIP3    H116590   6.384   5.768   2.441
 5549TIP3    H216591   6.291   5.714   2.334
 5550TIP3   OH216592   3.814   1.102   3.329
 5550TIP3    H116593   3.887   1.101   3.266
 5550TIP3    H216594   3.799   1.195   3.345
 5551TIP3   OH216595   3.991   7.117   5.686
 5551TIP3    H116596   3.928   7.157   5.627
 5551TIP3    H216597   4.076   7.136   5.647
 5552TIP3   OH216598   5.696   0.693   6.025
 5552TIP3    H116599   5.723   0.651   6.107
 5552TIP3    H216600   5.668   0.621   5.969
 5553TIP3   OH216601   6.712   1.872   4.345
 5553TIP3    H116602   6.663   1.917   4.277
 5553TIP3    H216603   6.802   1.905   4.336
 5554TIP3   OH216604   7.363   1.088   6.012
 5554TIP3    H116605   7.413   1.166   6.036
 5554TIP3    H216606   7.322   1.110   5.929
 5555TIP3   OH216607   1.051   5.137   0.559
 5555TIP3    H116608   1.001   5.056   0.560
 5555TIP3    H216609   1.068   5.153   0.466
 5556TIP3   OH216610   7.231   2.665   0.216
 5556TIP3    H116611   7.161   2.630   0.161
 5556TIP3    H216612   7.282   2.587   0.241
 5557TIP3   OH216613   5.762   7.339   4.532
 5557TIP3    H116614   5.761   7.384   4.617
 5557TIP3    H216615   5.732   7.250   4.552
 5558TIP3   OH216616   6.614   6.538   1.936
 5558TIP3    H116617   6.550   6.502   1.874
 5558TIP3    H216618   6.562   6.592   1.995
 5559TIP3   OH216619   6.383   3.989   1.957
 5559TIP3    H116620   6.447   4.029   1.897
 5559TIP3    H216621   6.299   4.000   1.912
 5560TIP3   OH216622   2.771   6.241   2.725
 5560TIP3    H116623   2.783   6.333   2.749
 5560TIP3    H216624   2.741   6.199   2.805
 5561TIP3   OH216625   5.985   4.951   5.153
 5561TIP3    H116626   5.902   4.978   5.114
 5561TIP3    H216627   5.967   4.866   5.194
 5562TIP3   OH216628   3.827   7.495   6.510
 5562TIP3    H116629   3.771   7.437   6.562
 5562TIP3    H216630   3.868   7.437   6.446
 5563TIP3   OH216631   0.173   3.582   4.453
 5563TIP3    H116632   0.116   3.516   4.414
 5563TIP3    H216633   0.116   3.631   4.512
 5564TIP3   OH216634   0.103   0.169   4.240
 5564TIP3    H116635   0.100   0.081   4.203
 5564TIP3    H216636   0.031   0.171   4.303
 5565TIP3   OH216637   6.937   5.248   6.071
 5565TIP3    H116638   6.843   5.255   6.087
 5565TIP3    H216639   6.965   5.337   6.050
 5566TIP3   OH216640   0.562   5.785   1.992
 5566TIP3    H116641   0.584   5.699   2.028
 5566TIP3    H216642   0.511   5.766   1.914
 5567TIP3   OH216643   3.301   5.993   2.536
 5567TIP3    H116644   3.334   6.069   2.487
 5567TIP3    H216645   3.379   5.938   2.549
 5568TIP3   OH216646   6.761   3.205   5.749
 5568TIP3    H116647   6.826   3.244   5.690
 5568TIP3    H216648   6.786   3.235   5.836
 5569TIP3   OH216649   1.411   6.549   6.147
 5569TIP3    H116650   1.462   6.619   6.106
 5569TIP3    H216651   1.397   6.580   6.237
 5570TIP3   OH216652   7.330   3.745   4.779
 5570TIP3    H116653   7.246   3.720   4.816
 5570TIP3    H216654   7.330   3.706   4.692
 5571TIP3   OH216655   2.047   0.708   2.757
 5571TIP3    H116656   2.114   0.748   2.813
 5571TIP3    H216657   2.002   0.782   2.717
 5572TIP3   OH216658   4.176   1.242   2.191
 5572TIP3    H116659   4.127   1.273   2.267
 5572TIP3    H216660   4.110   1.211   2.130
 5573TIP3   OH216661   4.525   1.412   0.892
 5573TIP3    H116662   4.562   1.495   0.861
 5573TIP3    H216663   4.448   1.437   0.943
 5574TIP3   OH216664   7.199   3.449   6.728
 5574TIP3    H116665   7.254   3.411   6.660
 5574TIP3    H216666   7.110   3.442   6.695
 5575TIP3   OH216667   4.414   2.344   2.324
 5575TIP3    H116668   4.432   2.295   2.243
 5575TIP3    H216669   4.476   2.309   2.387
 5576TIP3   OH216670   6.498   4.641   4.186
 5576TIP3    H116671   6.499   4.545   4.187
 5576TIP3    H216672   6.540   4.664   4.103
 5577TIP3   OH216673   7.629   3.641   0.670
 5577TIP3    H116674   7.638   3.684   0.585
 5577TIP3    H216675   7.596   3.554   0.650
 5578TIP3   OH216676   3.267   6.464   4.425
 5578TIP3    H116677   3.323   6.492   4.352
 5578TIP3    H216678   3.312   6.494   4.503
 5579TIP3   OH216679   2.981   5.154   4.404
 5579TIP3    H116680   3.023   5.156   4.318
 5579TIP3    H216681   3.006   5.070   4.441
 5580TIP3   OH216682   0.396   0.335   3.510
 5580TIP3    H116683   0.367   0.415   3.553
 5580TIP3    H216684   0.483   0.318   3.547
 5581TIP3   OH216685   5.321   0.192   2.370
 5581TIP3    H116686   5.307   0.283   2.345
 5581TIP3    H216687   5.274   0.142   2.304
 5582TIP3   OH216688   8.160   7.061   1.099
 5582TIP3    H116689   8.253   7.054   1.120
 5582TIP3    H216690   8.159   7.076   1.004
 5583TIP3   OH216691   2.653   1.015   4.792
 5583TIP3    H116692   2.683   1.105   4.775
 5583TIP3    H216693   2.579   1.004   4.733
 5584TIP3   OH216694   0.850   3.849   3.970
 5584TIP3    H116695   0.873   3.815   4.056
 5584TIP3    H216696   0.804   3.777   3.926
 5585TIP3   OH216697   3.051   6.266   2.618
 5585TIP3    H116698   3.066   6.172   2.609
 5585TIP3    H216699   2.956   6.274   2.625
 5586TIP3   OH216700   5.505   6.725   5.067
 5586TIP3    H116701   5.500   6.768   5.153
 5586TIP3    H216702   5.520   6.633   5.088
 5587TIP3   OH216703   6.206   5.597   3.957
 5587TIP3    H116704   6.150   5.657   4.006
 5587TIP3    H216705   6.235   5.533   4.021
 5588TIP3   OH216706   6.490   6.988   6.508
 5588TIP3    H116707   6.423   6.971   6.441
 5588TIP3    H216708   6.515   6.901   6.539
 5589TIP3   OH216709   5.732   2.582   5.243
 5589TIP3    H116710   5.757   2.609   5.154
 5589TIP3    H216711   5.803   2.614   5.298
 5590TIP3   OH216712   3.368   4.222   2.236
 5590TIP3    H116713   3.355   4.131   2.209
 5590TIP3    H216714   3.463   4.232   2.245
 5591TIP3   OH216715   5.909   2.384   1.352
 5591TIP3    H116716   5.874   2.412   1.437
 5591TIP3    H216717   5.865   2.441   1.289
 5592TIP3   OH216718   0.506   6.311   2.465
 5592TIP3    H116719   0.415   6.331   2.489
 5592TIP3    H216720   0.507   6.216   2.455
 5593TIP3   OH216721   7.124   0.713   6.726
 5593TIP3    H116722   7.171   0.654   6.668
 5593TIP3    H216723   7.188   0.780   6.750
 5594TIP3   OH216724   6.428   1.645   2.771
 5594TIP3    H116725   6.368   1.594   2.717
 5594TIP3    H216726   6.514   1.606   2.755
 5595TIP3   OH216727   7.954   1.645   6.035
 5595TIP3    H116728   7.977   1.656   6.127
 5595TIP3    H216729   7.890   1.714   6.018
 5596TIP3   OH216730   4.865   7.693   2.402
 5596TIP3    H116731   4.946   7.728   2.438
 5596TIP3    H216732   4.806   7.768   2.397
 5597TIP3   OH216733   4.175   2.635   6.069
 5597TIP3    H116734   4.269   2.654   6.067
 5597TIP3    H216735   4.160   2.600   6.157
 5598TIP3   OH216736   2.667   4.592   5.377
 5598TIP3    H116737   2.741   4.566   5.432
 5598TIP3    H216738   2.590   4.571   5.430
 5599TIP3   OH216739   4.511   5.431   3.935
 5599TIP3    H116740   4.435   5.479   3.969
 5599TIP3    H216741   4.473   5.361   3.882
 5600TIP3   OH216742   4.946   4.086   5.681
 5600TIP3    H116743   4.913   4.081   5.591
 5600TIP3    H216744   4.869   4.103   5.735
 5601TIP3   OH216745   2.806   1.041   5.109
 5601TIP3    H116746   2.719   1.004   5.125
 5601TIP3    H216747   2.834   1.001   5.026
 5602TIP3   OH216748   1.098   2.285   2.744
 5602TIP3    H116749   1.033   2.314   2.681
 5602TIP3    H216750   1.101   2.190   2.734
 5603TIP3   OH216751   0.381   6.452   4.699
 5603TIP3    H116752   0.323   6.384   4.731
 5603TIP3    H216753   0.341   6.534   4.728
 5604TIP3   OH216754   4.067   1.410   2.512
 5604TIP3    H116755   4.096   1.492   2.553
 5604TIP3    H216756   4.126   1.344   2.548
 5605TIP3   OH216757   5.902   1.774   3.111
 5605TIP3    H116758   5.971   1.814   3.163
 5605TIP3    H216759   5.823   1.822   3.135
 5606TIP3   OH216760   7.046   3.170   2.224
 5606TIP3    H116761   6.985   3.200   2.291
 5606TIP3    H216762   7.091   3.096   2.264
 5607TIP3   OH216763   1.212   2.233   1.671
 5607TIP3    H116764   1.143   2.245   1.737
 5607TIP3    H216765   1.186   2.290   1.599
 5608TIP3   OH216766   3.134   1.426   0.664
 5608TIP3    H116767   3.128   1.521   0.676
 5608TIP3    H216768   3.048   1.393   0.692
 5609TIP3   OH216769   4.918   6.871   4.413
 5609TIP3    H116770   4.991   6.833   4.365
 5609TIP3    H216771   4.841   6.822   4.383
 5610TIP3   OH216772   1.085   2.812   0.902
 5610TIP3    H116773   1.045   2.882   0.852
 5610TIP3    H216774   1.156   2.855   0.951
 5611TIP3   OH216775   0.081   0.579   3.109
 5611TIP3    H116776  -0.009   0.589   3.140
 5611TIP3    H216777   0.115   0.504   3.158
 5612TIP3   OH216778   5.617   7.590   2.041
 5612TIP3    H116779   5.549   7.627   2.097
 5612TIP3    H216780   5.595   7.622   1.953
 5613TIP3   OH216781   5.002   3.131   1.100
 5613TIP3    H116782   4.986   3.046   1.139
 5613TIP3    H216783   5.096   3.130   1.078
 5614TIP3   OH216784   4.424   4.461   1.002
 5614TIP3    H116785   4.375   4.538   0.972
 5614TIP3    H216786   4.442   4.412   0.922
 5615TIP3   OH216787   7.402   0.954   1.160
 5615TIP3    H116788   7.339   0.968   1.090
 5615TIP3    H216789   7.377   1.016   1.229
 5616TIP3   OH216790   8.018   1.714   1.079
 5616TIP3    H116791   7.986   1.804   1.091
 5616TIP3    H216792   7.982   1.666   1.153
 5617TIP3   OH216793   0.456   0.531   4.110
 5617TIP3    H116794   0.402   0.472   4.057
 5617TIP3    H216795   0.474   0.605   4.053
 5618TIP3   OH216796   7.793   7.569   1.382
 5618TIP3    H116797   7.790   7.484   1.338
 5618TIP3    H216798   7.771   7.633   1.314
 5619TIP3   OH216799   0.795   0.932   4.927
 5619TIP3    H116800   0.846   0.859   4.892
 5619TIP3    H216801   0.847   0.964   5.001
 5620TIP3   OH216802   4.596   5.492   4.573
 5620TIP3    H116803   4.608   5.522   4.483
 5620TIP3    H216804   4.577   5.572   4.623
 5621TIP3   OH216805   7.707   1.437   3.720
 5621TIP3    H116806   7.785   1.425   3.774
 5621TIP3    H216807   7.669   1.349   3.714
 5622TIP3   OH216808   4.815   7.677   1.715
 5622TIP3    H116809   4.895   7.672   1.768
 5622TIP3    H216810   4.845   7.661   1.625
 5623TIP3   OH216811   7.507   3.102   6.070
 5623TIP3    H116812   7.544   3.024   6.112
 5623TIP3    H216813   7.525   3.090   5.977
 5624TIP3   OH216814   6.886   5.103   2.713
 5624TIP3    H116815   6.818   5.054   2.668
 5624TIP3    H216816   6.963   5.046   2.710
 5625TIP3   OH216817   2.819   1.342   1.290
 5625TIP3    H116818   2.900   1.299   1.261
 5625TIP3    H216819   2.843   1.388   1.370
 5626TIP3   OH216820   1.715   0.847   6.616
 5626TIP3    H116821   1.793   0.846   6.672
 5626TIP3    H216822   1.643   0.824   6.675
 5627TIP3   OH216823   4.134   3.041   0.069
 5627TIP3    H116824   4.110   2.953   0.039
 5627TIP3    H216825   4.222   3.055   0.034
 5628TIP3   OH216826   7.335   0.876   1.670
 5628TIP3    H116827   7.291   0.832   1.597
 5628TIP3    H216828   7.332   0.969   1.647
 5629TIP3   OH216829   1.450   6.563   2.550
 5629TIP3    H116830   1.431   6.474   2.520
 5629TIP3    H216831   1.542   6.561   2.574
 5630TIP3   OH216832   0.630   3.566   4.440
 5630TIP3    H116833   0.577   3.627   4.492
 5630TIP3    H216834   0.720   3.587   4.464
 5631TIP3   OH216835   8.175   4.172   4.286
 5631TIP3    H116836   8.239   4.241   4.304
 5631TIP3    H216837   8.155   4.136   4.373
 5632TIP3   OH216838   1.535   3.800   0.999
 5632TIP3    H116839   1.629   3.797   0.979
 5632TIP3    H216840   1.524   3.880   1.050
 5633TIP3   OH216841   7.093   2.602   4.825
 5633TIP3    H116842   7.121   2.516   4.858
 5633TIP3    H216843   7.168   2.659   4.839
 5634TIP3   OH216844   8.163   3.526   1.161
 5634TIP3    H116845   8.253   3.499   1.179
 5634TIP3    H216846   8.112   3.490   1.233
 5635TIP3   OH216847   6.994   1.718   2.953
 5635TIP3    H116848   7.083   1.685   2.970
 5635TIP3    H216849   6.944   1.689   3.029
 5636TIP3   OH216850   2.663   1.810   3.858
 5636TIP3    H116851   2.609   1.731   3.862
 5636TIP3    H216852   2.612   1.871   3.805
 5637TIP3   OH216853   4.614   5.658   3.537
 5637TIP3    H116854   4.624   5.700   3.622
 5637TIP3    H216855   4.690   5.688   3.487
 5638TIP3   OH216856   1.567   6.850   0.197
 5638TIP3    H116857   1.617   6.859   0.278
 5638TIP3    H216858   1.575   6.935   0.154
 5639TIP3   OH216859   7.673   4.506   0.347
 5639TIP3    H116860   7.703   4.562   0.275
 5639TIP3    H216861   7.729   4.429   0.343
 5640TIP3   OH216862   0.695   4.052   2.013
 5640TIP3    H116863   0.736   4.038   1.928
 5640TIP3    H216864   0.707   4.146   2.030
 5641TIP3   OH216865   7.798   3.608   6.705
 5641TIP3    H116866   7.705   3.620   6.685
 5641TIP3    H216867   7.841   3.683   6.663
 5642TIP3   OH216868   4.390   5.640   0.967
 5642TIP3    H116869   4.448   5.586   1.022
 5642TIP3    H216870   4.387   5.594   0.883
 5643TIP3   OH216871   3.257   7.212   3.084
 5643TIP3    H116872   3.184   7.220   3.023
 5643TIP3    H216873   3.237   7.134   3.136
 5644TIP3   OH216874   3.874   4.129   6.726
 5644TIP3    H116875   3.783   4.139   6.754
 5644TIP3    H216876   3.886   4.034   6.719
 5645TIP3   OH216877   6.341   7.592   2.592
 5645TIP3    H116878   6.329   7.599   2.686
 5645TIP3    H216879   6.253   7.587   2.556
 5646TIP3   OH216880   3.451   4.913   4.566
 5646TIP3    H116881   3.438   4.893   4.473
 5646TIP3    H216882   3.483   4.831   4.603
 5647TIP3   OH216883   0.327   7.260   3.640
 5647TIP3    H116884   0.264   7.289   3.574
 5647TIP3    H216885   0.384   7.200   3.594
 5648TIP3   OH216886   7.500   4.226   6.054
 5648TIP3    H116887   7.514   4.308   6.007
 5648TIP3    H216888   7.410   4.203   6.035
 5649TIP3   OH216889   5.582   6.786   2.126
 5649TIP3    H116890   5.629   6.783   2.043
 5649TIP3    H216891   5.520   6.859   2.116
 5650TIP3   OH216892   3.008   1.698   2.727
 5650TIP3    H116893   3.060   1.755   2.784
 5650TIP3    H216894   3.069   1.631   2.697
 5651TIP3   OH216895   5.340   0.151   6.122
 5651TIP3    H116896   5.307   0.224   6.070
 5651TIP3    H216897   5.428   0.179   6.150
 5652TIP3   OH216898   5.326   1.014   4.488
 5652TIP3    H116899   5.234   1.026   4.465
 5652TIP3    H216900   5.340   0.919   4.481
 5653TIP3   OH216901   6.155   3.890   5.971
 5653TIP3    H116902   6.231   3.842   6.006
 5653TIP3    H216903   6.113   3.828   5.913
 5654TIP3   OH216904   2.513   4.641   2.564
 5654TIP3    H116905   2.594   4.664   2.518
 5654TIP3    H216906   2.542   4.612   2.651
 5655TIP3   OH216907   8.209   1.788   2.332
 5655TIP3    H116908   8.165   1.871   2.311
 5655TIP3    H216909   8.296   1.814   2.363
 5656TIP3   OH216910   7.351   2.365   2.883
 5656TIP3    H116911   7.443   2.390   2.890
 5656TIP3    H216912   7.330   2.324   2.967
 5657TIP3   OH216913   2.019   6.330   4.710
 5657TIP3    H116914   2.056   6.243   4.692
 5657TIP3    H216915   1.944   6.337   4.651
 5658TIP3   OH216916   0.040   3.334   0.337
 5658TIP3    H116917  -0.023   3.354   0.406
 5658TIP3    H216918   0.072   3.246   0.358
 5659TIP3   OH216919   4.211   2.719   1.740
 5659TIP3    H116920   4.290   2.768   1.761
 5659TIP3    H216921   4.235   2.627   1.754
 5660TIP3   OH216922   7.962   5.493   5.012
 5660TIP3    H116923   7.893   5.506   5.076
 5660TIP3    H216924   8.003   5.410   5.037
 5661TIP3   OH216925   7.849   3.464   2.842
 5661TIP3    H116926   7.942   3.459   2.866
 5661TIP3    H216927   7.850   3.497   2.753
 5662TIP3   OH216928   5.723   0.113   6.737
 5662TIP3    H116929   5.765   0.192   6.772
 5662TIP3    H216930   5.645   0.101   6.792
 5663TIP3   OH216931   5.553   0.038   4.184
 5663TIP3    H116932   5.648   0.037   4.173
 5663TIP3    H216933   5.519  -0.005   4.106
 5664TIP3   OH216934   2.712   5.945   5.337
 5664TIP3    H116935   2.722   5.853   5.358
 5664TIP3    H216936   2.794   5.985   5.367
 5665TIP3   OH216937   6.686   4.067   4.895
 5665TIP3    H116938   6.732   4.060   4.978
 5665TIP3    H216939   6.750   4.037   4.829
 5666TIP3   OH216940   4.360   0.845   2.234
 5666TIP3    H116941   4.362   0.750   2.226
 5666TIP3    H216942   4.315   0.862   2.317
 5667TIP3   OH216943   0.449   3.559   6.384
 5667TIP3    H116944   0.475   3.531   6.472
 5667TIP3    H216945   0.477   3.650   6.378
 5668TIP3   OH216946   8.293   4.264   1.000
 5668TIP3    H116947   8.233   4.294   0.931
 5668TIP3    H216948   8.258   4.179   1.027
 5669TIP3   OH216949   2.293   5.759   5.539
 5669TIP3    H116950   2.234   5.685   5.554
 5669TIP3    H216951   2.275   5.785   5.449
 5670TIP3   OH216952   7.593   1.815   1.365
 5670TIP3    H116953   7.502   1.836   1.346
 5670TIP3    H216954   7.623   1.884   1.424
 5671TIP3   OH216955   2.645   5.624   4.257
 5671TIP3    H116956   2.667   5.633   4.350
 5671TIP3    H216957   2.624   5.531   4.246
 5672TIP3   OH216958   5.522   6.372   5.879
 5672TIP3    H116959   5.445   6.392   5.827
 5672TIP3    H216960   5.583   6.444   5.860
 5673TIP3   OH216961   1.935   0.969   2.601
 5673TIP3    H116962   2.022   0.968   2.561
 5673TIP3    H216963   1.951   0.960   2.695
 5674TIP3   OH216964   3.323   4.370   2.461
 5674TIP3    H116965   3.365   4.311   2.398
 5674TIP3    H216966   3.241   4.326   2.485
 5675TIP3   OH216967   4.320   7.034   1.128
 5675TIP3    H116968   4.313   7.129   1.141
 5675TIP3    H216969   4.414   7.019   1.115
 5676TIP3   OH216970   0.181   3.944   2.448
 5676TIP3    H116971   0.188   3.926   2.542
 5676TIP3    H216972   0.199   4.037   2.440
 5677TIP3   OH216973   3.487   1.899   2.021
 5677TIP3    H116974   3.496   1.898   1.926
 5677TIP3    H216975   3.433   1.823   2.042
 5678TIP3   OH216976   4.379   2.614   2.643
 5678TIP3    H116977   4.337   2.559   2.710
 5678TIP3    H216978   4.470   2.585   2.643
 5679TIP3   OH216979   4.525   6.583   5.991
 5679TIP3    H116980   4.580   6.568   6.069
 5679TIP3    H216981   4.553   6.515   5.929
 5680TIP3   OH216982   3.146   2.104   3.958
 5680TIP3    H116983   3.147   2.165   3.884
 5680TIP3    H216984   3.233   2.113   3.997
 5681TIP3   OH216985   0.270   4.356   2.538
 5681TIP3    H116986   0.320   4.305   2.602
 5681TIP3    H216987   0.248   4.293   2.470
 5682TIP3   OH216988   6.883   0.501   0.246
 5682TIP3    H116989   6.947   0.572   0.240
 5682TIP3    H216990   6.932   0.427   0.280
 5683TIP3   OH216991   0.131   6.450   4.409
 5683TIP3    H116992   0.207   6.507   4.425
 5683TIP3    H216993   0.065   6.480   4.471
 5684TIP3   OH216994   2.401   2.642   5.384
 5684TIP3    H116995   2.399   2.651   5.289
 5684TIP3    H216996   2.416   2.549   5.400
 5685TIP3   OH216997   1.677   6.439   3.626
 5685TIP3    H116998   1.679   6.450   3.531
 5685TIP3    H216999   1.594   6.478   3.654
 5686TIP3   OH217000   0.959   4.950   4.939
 5686TIP3    H117001   0.976   4.934   4.847
 5686TIP3    H217002   1.046   4.959   4.978
 5687TIP3   OH217003   5.213   7.022   0.928
 5687TIP3    H117004   5.181   6.950   0.873
 5687TIP3    H217005   5.171   7.100   0.892
 5688TIP3   OH217006   8.196   7.735   2.428
 5688TIP3    H117007   8.223   7.648   2.458
 5688TIP3    H217008   8.147   7.718   2.348
 5689TIP3   OH217009   6.253   6.318   1.632
 5689TIP3    H117010   6.161   6.335   1.610
 5689TIP3    H217011   6.277   6.389   1.692
 5690TIP3   OH217012   1.790   1.440   3.360
 5690TIP3    H117013   1.754   1.525   3.334
 5690TIP3    H217014   1.878   1.460   3.392
 5691TIP3   OH217015   4.029   0.056   1.844
 5691TIP3    H117016   3.934   0.068   1.849
 5691TIP3    H217017   4.049  -0.001   1.918
 5692TIP3   OH217018   0.598   1.276   0.205
 5692TIP3    H117019   0.649   1.310   0.279
 5692TIP3    H217020   0.570   1.354   0.158
 5693TIP3   OH217021   7.190   2.261   0.511
 5693TIP3    H117022   7.192   2.338   0.454
 5693TIP3    H217023   7.102   2.225   0.499
 5694TIP3   OH217024   7.308   4.548   6.023
 5694TIP3    H117025   7.403   4.548   6.034
 5694TIP3    H217026   7.274   4.535   6.112
 5695TIP3   OH217027   6.095   2.412   1.824
 5695TIP3    H117028   6.144   2.361   1.889
 5695TIP3    H217029   6.003   2.400   1.849
 5696TIP3   OH217030   0.379   3.364   4.290
 5696TIP3    H117031   0.301   3.341   4.240
 5696TIP3    H217032   0.358   3.449   4.329
 5697TIP3   OH217033   0.664   4.700   3.884
 5697TIP3    H117034   0.578   4.687   3.845
 5697TIP3    H217035   0.670   4.794   3.897
 5698TIP3   OH217036   6.986   0.743   0.732
 5698TIP3    H117037   6.944   0.665   0.768
 5698TIP3    H217038   7.036   0.711   0.657
 5699TIP3   OH217039   6.410   0.783   5.039
 5699TIP3    H117040   6.447   0.855   5.091
 5699TIP3    H217041   6.429   0.704   5.089
 5700TIP3   OH217042   5.793   3.515   1.780
 5700TIP3    H117043   5.872   3.484   1.823
 5700TIP3    H217044   5.773   3.449   1.714
 5701TIP3   OH217045   3.634   3.727   3.724
 5701TIP3    H117046   3.559   3.772   3.765
 5701TIP3    H217047   3.683   3.796   3.681
 5702TIP3   OH217048   5.311   1.143   2.060
 5702TIP3    H117049   5.283   1.072   2.117
 5702TIP3    H217050   5.370   1.103   1.997
 5703TIP3   OH217051   7.750   3.980   1.150
 5703TIP3    H117052   7.842   3.993   1.171
 5703TIP3    H217053   7.750   3.926   1.071
 5704TIP3   OH217054   2.173   7.239   6.396
 5704TIP3    H117055   2.184   7.145   6.383
 5704TIP3    H217056   2.157   7.249   6.490
 5705TIP3   OH217057   1.680   4.684   5.180
 5705TIP3    H117058   1.752   4.724   5.131
 5705TIP3    H217059   1.710   4.595   5.198
 5706TIP3   OH217060   6.698   5.177   1.847
 5706TIP3    H117061   6.646   5.225   1.782
 5706TIP3    H217062   6.636   5.154   1.916
 5707TIP3   OH217063   5.528   4.850   4.943
 5707TIP3    H117064   5.438   4.874   4.919
 5707TIP3    H217065   5.518   4.777   5.004
 5708TIP3   OH217066   3.327   5.447   3.632
 5708TIP3    H117067   3.309   5.429   3.540
 5708TIP3    H217068   3.420   5.427   3.643
 5709TIP3   OH217069   6.012   3.696   5.822
 5709TIP3    H117070   6.067   3.638   5.875
 5709TIP3    H217071   6.069   3.726   5.751
 5710TIP3   OH217072   8.094   4.211   0.770
 5710TIP3    H117073   8.115   4.200   0.677
 5710TIP3    H217074   8.088   4.122   0.804
 5711TIP3   OH217075   5.476   2.508   1.217
 5711TIP3    H117076   5.543   2.572   1.241
 5711TIP3    H217077   5.482   2.502   1.121
 5712TIP3   OH217078   2.494   4.830   1.300
 5712TIP3    H117079   2.466   4.843   1.391
 5712TIP3    H217080   2.445   4.894   1.250
 5713TIP3   OH217081   4.834   1.172   6.430
 5713TIP3    H117082   4.896   1.107   6.396
 5713TIP3    H217083   4.776   1.121   6.487
 5714TIP3   OH217084   7.758   5.296   5.898
 5714TIP3    H117085   7.754   5.373   5.955
 5714TIP3    H217086   7.701   5.318   5.824
 5715TIP3   OH217087   5.587   2.825   3.232
 5715TIP3    H117088   5.661   2.799   3.178
 5715TIP3    H217089   5.621   2.896   3.287
 5716TIP3   OH217090   0.401   4.552   0.588
 5716TIP3    H117091   0.441   4.503   0.660
 5716TIP3    H217092   0.352   4.622   0.631
 5717TIP3   OH217093   3.799   0.644   2.415
 5717TIP3    H117094   3.756   0.570   2.457
 5717TIP3    H217095   3.794   0.626   2.321
 5718TIP3   OH217096   8.155   3.814   3.476
 5718TIP3    H117097   8.236   3.793   3.428
 5718TIP3    H217098   8.177   3.797   3.567
 5719TIP3   OH217099   2.075   3.787   2.310
 5719TIP3    H117100   2.059   3.819   2.398
 5719TIP3    H217101   2.017   3.840   2.254
 5720TIP3   OH217102   6.211   0.702   3.036
 5720TIP3    H117103   6.301   0.672   3.049
 5720TIP3    H217104   6.161   0.621   3.024
 5721TIP3   OH217105   1.601   7.736   5.690
 5721TIP3    H117106   1.523   7.691   5.657
 5721TIP3    H217107   1.664   7.731   5.618
 5722TIP3   OH217108   5.283   6.379   1.224
 5722TIP3    H117109   5.235   6.301   1.251
 5722TIP3    H217110   5.241   6.451   1.272
 5723TIP3   OH217111   0.136   6.759   1.076
 5723TIP3    H117112   0.137   6.732   1.168
 5723TIP3    H217113   0.168   6.849   1.078
 5724TIP3   OH217114   5.714   3.968   6.744
 5724TIP3    H117115   5.729   3.873   6.742
 5724TIP3    H217116   5.777   4.004   6.682
 5725TIP3   OH217117   7.788   0.266   3.122
 5725TIP3    H117118   7.827   0.287   3.038
 5725TIP3    H217119   7.762   0.351   3.158
 5726TIP3   OH217120   0.811   5.260   1.132
 5726TIP3    H117121   0.834   5.211   1.211
 5726TIP3    H217122   0.847   5.347   1.145
 5727TIP3   OH217123   3.985   5.691   1.817
 5727TIP3    H117124   4.068   5.643   1.816
 5727TIP3    H217125   3.920   5.628   1.786
 5728TIP3   OH217126   7.196   2.858   1.870
 5728TIP3    H117127   7.137   2.924   1.907
 5728TIP3    H217128   7.218   2.802   1.945
 5729TIP3   OH217129   7.181   2.219   0.839
 5729TIP3    H117130   7.204   2.133   0.873
 5729TIP3    H217131   7.189   2.209   0.744
 5730TIP3   OH217132   5.331   0.045   3.707
 5730TIP3    H117133   5.420   0.009   3.714
 5730TIP3    H217134   5.327   0.082   3.619
 5731TIP3   OH217135   0.165   1.246   6.485
 5731TIP3    H117136   0.134   1.188   6.415
 5731TIP3    H217137   0.088   1.298   6.508
 5732TIP3   OH217138   8.282   1.547   1.278
 5732TIP3    H117139   8.204   1.498   1.306
 5732TIP3    H217140   8.287   1.532   1.184
 5733TIP3   OH217141   7.189   2.977   4.562
 5733TIP3    H117142   7.257   2.985   4.629
 5733TIP3    H217143   7.113   3.021   4.599
 5734TIP3   OH217144   3.453   3.184   3.149
 5734TIP3    H117145   3.479   3.267   3.189
 5734TIP3    H217146   3.437   3.126   3.224
 5735TIP3   OH217147   0.669   1.643   5.516
 5735TIP3    H117148   0.715   1.597   5.587
 5735TIP3    H217149   0.606   1.699   5.561
 5736TIP3   OH217150   5.356   3.023   2.189
 5736TIP3    H117151   5.419   2.952   2.184
 5736TIP3    H217152   5.353   3.046   2.282
 5737TIP3   OH217153   3.844   6.640   2.209
 5737TIP3    H117154   3.851   6.562   2.265
 5737TIP3    H217155   3.934   6.673   2.203
 5738TIP3   OH217156   2.902   2.770   3.135
 5738TIP3    H117157   2.964   2.755   3.063
 5738TIP3    H217158   2.817   2.779   3.093
 5739TIP3   OH217159   4.927   3.854   3.238
 5739TIP3    H117160   4.919   3.761   3.257
 5739TIP3    H217161   4.868   3.868   3.163
 5740TIP3   OH217162   4.728   6.123   5.415
 5740TIP3    H117163   4.723   6.119   5.511
 5740TIP3    H217164   4.798   6.063   5.392
 5741TIP3   OH217165   6.824   1.651   3.813
 5741TIP3    H117166   6.912   1.661   3.848
 5741TIP3    H217167   6.785   1.738   3.822
 5742TIP3   OH217168   3.463   7.478   1.314
 5742TIP3    H117169   3.392   7.425   1.277
 5742TIP3    H217170   3.444   7.567   1.284
 5743TIP3   OH217171   1.482   3.955   6.305
 5743TIP3    H117172   1.528   3.973   6.222
 5743TIP3    H217173   1.544   3.904   6.356
 5744TIP3   OH217174   6.353   5.106   4.676
 5744TIP3    H117175   6.365   5.190   4.719
 5744TIP3    H217176   6.439   5.084   4.641
 5745TIP3   OH217177   5.204   6.529   0.108
 5745TIP3    H117178   5.283   6.572   0.076
 5745TIP3    H217179   5.150   6.600   0.144
 5746TIP3   OH217180   5.838   0.752   5.610
 5746TIP3    H117181   5.894   0.690   5.564
 5746TIP3    H217182   5.752   0.744   5.568
 5747TIP3   OH217183   7.883   1.282   6.452
 5747TIP3    H117184   7.924   1.366   6.434
 5747TIP3    H217185   7.826   1.266   6.377
 5748TIP3   OH217186   4.608   3.005   5.541
 5748TIP3    H117187   4.593   3.068   5.612
 5748TIP3    H217188   4.594   3.056   5.461
 5749TIP3   OH217189   2.328   6.560   6.687
 5749TIP3    H117190   2.339   6.554   6.592
 5749TIP3    H217191   2.268   6.633   6.700
 5750TIP3   OH217192   2.287   3.192   1.283
 5750TIP3    H117193   2.259   3.256   1.218
 5750TIP3    H217194   2.328   3.122   1.232
 5751TIP3   OH217195   1.788   5.144   6.010
 5751TIP3    H117196   1.737   5.072   5.974
 5751TIP3    H217197   1.855   5.163   5.943
 5752TIP3   OH217198   0.459   5.217   5.897
 5752TIP3    H117199   0.495   5.294   5.942
 5752TIP3    H217200   0.408   5.172   5.965
 5753TIP3   OH217201   6.817   6.529   5.612
 5753TIP3    H117202   6.728   6.565   5.604
 5753TIP3    H217203   6.857   6.546   5.527
 5754TIP3   OH217204   1.678   4.032   2.190
 5754TIP3    H117205   1.645   4.108   2.143
 5754TIP3    H217206   1.654   4.047   2.282
 5755TIP3   OH217207   0.084   0.724   5.547
 5755TIP3    H117208   0.107   0.801   5.598
 5755TIP3    H217209   0.153   0.660   5.568
 5756TIP3   OH217210   3.795   1.605   3.881
 5756TIP3    H117211   3.832   1.530   3.834
 5756TIP3    H217212   3.742   1.566   3.951
 5757TIP3   OH217213   0.661   0.168   2.682
 5757TIP3    H117214   0.632   0.098   2.741
 5757TIP3    H217215   0.590   0.176   2.618
 5758TIP3   OH217216   3.224   6.402   2.833
 5758TIP3    H117217   3.207   6.328   2.774
 5758TIP3    H217218   3.168   6.472   2.800
 5759TIP3   OH217219   6.500   6.249   0.881
 5759TIP3    H117220   6.521   6.217   0.793
 5759TIP3    H217221   6.543   6.188   0.940
 5760TIP3   OH217222   4.399   4.870   5.796
 5760TIP3    H117223   4.358   4.955   5.813
 5760TIP3    H217224   4.467   4.888   5.731
 5761TIP3   OH217225   0.140   5.431   1.349
 5761TIP3    H117226   0.099   5.514   1.374
 5761TIP3    H217227   0.188   5.451   1.269
 5762TIP3   OH217228   6.196   2.142   6.433
 5762TIP3    H117229   6.211   2.129   6.339
 5762TIP3    H217230   6.109   2.182   6.438
 5763TIP3   OH217231   0.396   0.664   3.470
 5763TIP3    H117232   0.401   0.759   3.459
 5763TIP3    H217233   0.302   0.645   3.464
 5764TIP3   OH217234   3.482   5.661   4.051
 5764TIP3    H117235   3.477   5.723   4.124
 5764TIP3    H217236   3.401   5.676   4.001
 5765TIP3   OH217237   4.628   1.467   3.242
 5765TIP3    H117238   4.678   1.438   3.165
 5765TIP3    H217239   4.555   1.406   3.248
 5766TIP3   OH217240   3.639   4.137   5.690
 5766TIP3    H117241   3.623   4.156   5.783
 5766TIP3    H217242   3.649   4.224   5.650
 5767TIP3   OH217243   3.805   7.026   1.406
 5767TIP3    H117244   3.828   6.934   1.397
 5767TIP3    H217245   3.823   7.064   1.320
 5768TIP3   OH217246   0.025   2.737   6.759
 5768TIP3    H117247   0.056   2.827   6.773
 5768TIP3    H217248   0.085   2.701   6.694
 5769TIP3   OH217249   2.397   5.127   4.090
 5769TIP3    H117250   2.368   5.211   4.054
 5769TIP3    H217251   2.492   5.135   4.097
 5770TIP3   OH217252   2.604   3.768   3.271
 5770TIP3    H117253   2.605   3.855   3.231
 5770TIP3    H217254   2.685   3.727   3.242
 5771TIP3   OH217255   3.184   2.693   2.656
 5771TIP3    H117256   3.183   2.631   2.729
 5771TIP3    H217257   3.254   2.661   2.598
 5772TIP3   OH217258   3.219   1.178   1.380
 5772TIP3    H117259   3.274   1.237   1.430
 5772TIP3    H217260   3.268   1.160   1.299
 5773TIP3   OH217261   4.308   3.863   3.732
 5773TIP3    H117262   4.356   3.781   3.725
 5773TIP3    H217263   4.294   3.875   3.826
 5774TIP3   OH217264   5.081   0.307   0.892
 5774TIP3    H117265   5.146   0.340   0.954
 5774TIP3    H217266   5.095   0.213   0.890
 5775TIP3   OH217267   5.590   2.449   3.421
 5775TIP3    H117268   5.578   2.401   3.339
 5775TIP3    H217269   5.535   2.404   3.484
 5776TIP3   OH217270   1.281   0.538   2.926
 5776TIP3    H117271   1.290   0.547   2.831
 5776TIP3    H217272   1.207   0.594   2.949
 5777TIP3   OH217273   3.068   5.051   5.504
 5777TIP3    H117274   3.118   5.123   5.466
 5777TIP3    H217275   3.131   5.005   5.559
 5778TIP3   OH217276   4.541   3.082   4.516
 5778TIP3    H117277   4.629   3.114   4.499
 5778TIP3    H217278   4.509   3.137   4.588
 5779TIP3   OH217279   7.510   6.795   2.542
 5779TIP3    H117280   7.489   6.739   2.467
 5779TIP3    H217281   7.428   6.839   2.564
 5780TIP3   OH217282   5.889   0.963   2.113
 5780TIP3    H117283   5.884   0.977   2.207
 5780TIP3    H217284   5.977   0.928   2.098
 5781TIP3   OH217285   5.666   5.207   2.024
 5781TIP3    H117286   5.714   5.226   2.104
 5781TIP3    H217287   5.586   5.163   2.054
 5782TIP3   OH217288   4.840   7.250   5.807
 5782TIP3    H117289   4.933   7.259   5.824
 5782TIP3    H217290   4.806   7.340   5.805
 5783TIP3   OH217291   6.510   0.696   2.712
 5783TIP3    H117292   6.504   0.790   2.691
 5783TIP3    H217293   6.589   0.667   2.666
 5784TIP3   OH217294   7.580   6.243   6.674
 5784TIP3    H117295   7.487   6.261   6.660
 5784TIP3    H217296   7.616   6.231   6.586
 5785TIP3   OH217297   4.001   7.272   2.420
 5785TIP3    H117298   4.016   7.263   2.514
 5785TIP3    H217299   4.018   7.184   2.384
 5786TIP3   OH217300   7.226   6.708   5.268
 5786TIP3    H117301   7.136   6.679   5.285
 5786TIP3    H217302   7.255   6.745   5.352
 5787TIP3   OH217303   4.180   7.179   3.169
 5787TIP3    H117304   4.201   7.115   3.100
 5787TIP3    H217305   4.266   7.210   3.198
 5788TIP3   OH217306   2.472   1.349   6.736
 5788TIP3    H117307   2.506   1.434   6.709
 5788TIP3    H217308   2.549   1.299   6.763
 5789TIP3   OH217309   0.149   7.435   2.302
 5789TIP3    H117310   0.181   7.493   2.372
 5789TIP3    H217311   0.167   7.483   2.221
 5790TIP3   OH217312   4.457   2.685   4.882
 5790TIP3    H117313   4.545   2.665   4.913
 5790TIP3    H217314   4.457   2.780   4.868
 5791TIP3   OH217315   7.450   2.920   3.315
 5791TIP3    H117316   7.495   2.893   3.395
 5791TIP3    H217317   7.501   2.995   3.283
 5792TIP3   OH217318  -0.016   3.523   0.811
 5792TIP3    H117319   0.070   3.546   0.846
 5792TIP3    H217320  -0.051   3.606   0.779
 5793TIP3   OH217321   4.002   3.253   2.981
 5793TIP3    H117322   4.023   3.160   2.973
 5793TIP3    H217323   3.908   3.255   2.999
 5794TIP3   OH217324   1.058   4.404   1.536
 5794TIP3    H117325   1.138   4.365   1.571
 5794TIP3    H217326   1.087   4.482   1.489
 5795TIP3   OH217327   4.631   1.368   3.865
 5795TIP3    H117328   4.595   1.377   3.776
 5795TIP3    H217329   4.690   1.293   3.859
 5796TIP3   OH217330   7.870   5.647   4.785
 5796TIP3    H117331   7.889   5.722   4.842
 5796TIP3    H217332   7.875   5.571   4.843
 5797TIP3   OH217333   3.890   4.084   1.303
 5797TIP3    H117334   3.944   4.034   1.241
 5797TIP3    H217335   3.863   4.162   1.254
 5798TIP3   OH217336   6.324   3.457   4.522
 5798TIP3    H117337   6.380   3.419   4.590
 5798TIP3    H217338   6.276   3.527   4.566
 5799TIP3   OH217339   6.911   7.527   4.806
 5799TIP3    H117340   6.821   7.546   4.781
 5799TIP3    H217341   6.944   7.609   4.841
 5800TIP3   OH217342   1.826   6.098   6.161
 5800TIP3    H117343   1.811   6.078   6.069
 5800TIP3    H217344   1.743   6.135   6.191
 5801TIP3   OH217345   1.244   7.629   4.207
 5801TIP3    H117346   1.197   7.554   4.245
 5801TIP3    H217347   1.197   7.646   4.125
 5802TIP3   OH217348   8.051   7.652   2.209
 5802TIP3    H117349   7.992   7.705   2.156
 5802TIP3    H217350   8.025   7.561   2.190
 5803TIP3   OH217351   4.994   4.015   0.567
 5803TIP3    H117352   4.999   4.051   0.479
 5803TIP3    H217353   4.924   4.065   0.609
 5804TIP3   OH217354   7.651   6.107   2.763
 5804TIP3    H117355   7.598   6.091   2.685
 5804TIP3    H217356   7.638   6.200   2.782
 5805TIP3   OH217357   2.909   3.345   4.075
 5805TIP3    H117358   2.976   3.290   4.034
 5805TIP3    H217359   2.826   3.302   4.055
 5806TIP3   OH217360   0.784   1.502   2.374
 5806TIP3    H117361   0.846   1.447   2.327
 5806TIP3    H217362   0.705   1.502   2.320
 5807TIP3   OH217363   4.784   3.834   5.646
 5807TIP3    H117364   4.871   3.867   5.624
 5807TIP3    H217365   4.739   3.828   5.562
 5808TIP3   OH217366   6.982   4.072   5.692
 5808TIP3    H117367   7.074   4.058   5.671
 5808TIP3    H217368   6.947   4.118   5.616
 5809TIP3   OH217369   2.168   1.797   2.331
 5809TIP3    H117370   2.247   1.847   2.351
 5809TIP3    H217371   2.148   1.751   2.413
 5810TIP3   OH217372   0.947   7.277   3.783
 5810TIP3    H117373   0.960   7.355   3.729
 5810TIP3    H217374   0.912   7.212   3.722
 5811TIP3   OH217375   6.305   6.633   1.186
 5811TIP3    H117376   6.319   6.543   1.217
 5811TIP3    H217377   6.371   6.644   1.116
 5812TIP3   OH217378   3.463   3.705   3.404
 5812TIP3    H117379   3.487   3.782   3.456
 5812TIP3    H217380   3.445   3.637   3.468
 5813TIP3   OH217381   3.336   2.267   3.550
 5813TIP3    H117382   3.400   2.331   3.581
 5813TIP3    H217383   3.389   2.194   3.518
 5814TIP3   OH217384   4.670   7.450   1.749
 5814TIP3    H117385   4.640   7.431   1.837
 5814TIP3    H217386   4.713   7.535   1.756
 5815TIP3   OH217387   2.828   1.700   0.907
 5815TIP3    H117388   2.763   1.722   0.974
 5815TIP3    H217389   2.892   1.772   0.912
 5816TIP3   OH217390   8.140   5.428   2.193
 5816TIP3    H117391   8.094   5.407   2.274
 5816TIP3    H217392   8.225   5.462   2.221
 5817TIP3   OH217393   7.410   6.110   2.202
 5817TIP3    H117394   7.471   6.177   2.171
 5817TIP3    H217395   7.408   6.121   2.297
 5818TIP3   OH217396   4.661   6.262   4.610
 5818TIP3    H117397   4.756   6.273   4.611
 5818TIP3    H217398   4.638   6.241   4.700
 5819TIP3   OH217399   4.683   5.695   6.592
 5819TIP3    H117400   4.659   5.638   6.519
 5819TIP3    H217401   4.712   5.635   6.661
 5820TIP3   OH217402   0.140   7.271   6.271
 5820TIP3    H117403   0.087   7.345   6.239
 5820TIP3    H217404   0.155   7.218   6.192
 5821TIP3   OH217405   2.583   1.178   1.455
 5821TIP3    H117406   2.546   1.139   1.375
 5821TIP3    H217407   2.675   1.153   1.454
 5822TIP3   OH217408   5.124   1.268   4.687
 5822TIP3    H117409   5.151   1.359   4.697
 5822TIP3    H217410   5.203   1.217   4.706
 5823TIP3   OH217411   6.172   4.592   6.672
 5823TIP3    H117412   6.232   4.572   6.744
 5823TIP3    H217413   6.085   4.579   6.708
 5824TIP3   OH217414   7.811   5.675   0.615
 5824TIP3    H117415   7.750   5.637   0.679
 5824TIP3    H217416   7.886   5.615   0.616
 5825TIP3   OH217417   3.499   4.532   0.416
 5825TIP3    H117418   3.479   4.481   0.494
 5825TIP3    H217419   3.523   4.619   0.450
 5826TIP3   OH217420   4.464   4.467   2.530
 5826TIP3    H117421   4.420   4.543   2.568
 5826TIP3    H217422   4.538   4.450   2.587
 5827TIP3   OH217423   0.267   7.016   1.053
 5827TIP3    H117424   0.360   6.995   1.059
 5827TIP3    H217425   0.253   7.079   1.124
 5828TIP3   OH217426   3.566   0.686   1.693
 5828TIP3    H117427   3.525   0.772   1.680
 5828TIP3    H217428   3.555   0.668   1.786
 5829TIP3   OH217429   0.526   2.382   0.934
 5829TIP3    H117430   0.526   2.462   0.986
 5829TIP3    H217431   0.434   2.364   0.917
 5830TIP3   OH217432   8.289   1.905   4.086
 5830TIP3    H117433   8.291   1.982   4.029
 5830TIP3    H217434   8.238   1.840   4.039
 5831TIP3   OH217435   6.457   2.445   2.654
 5831TIP3    H117436   6.548   2.427   2.679
 5831TIP3    H217437   6.443   2.537   2.679
 5832TIP3   OH217438   7.060   5.325   5.613
 5832TIP3    H117439   7.147   5.330   5.575
 5832TIP3    H217440   7.055   5.400   5.672
 5833TIP3   OH217441   4.975   5.640  -0.017
 5833TIP3    H117442   5.017   5.573   0.037
 5833TIP3    H217443   4.946   5.706   0.046
 5834TIP3   OH217444   0.129   6.981   4.333
 5834TIP3    H117445   0.049   7.030   4.314
 5834TIP3    H217446   0.117   6.949   4.422
 5835TIP3   OH217447   5.862   6.400   6.182
 5835TIP3    H117448   5.889   6.448   6.103
 5835TIP3    H217449   5.864   6.466   6.252
 5836TIP3   OH217450   7.988   2.151   0.246
 5836TIP3    H117451   8.050   2.079   0.242
 5836TIP3    H217452   7.902   2.109   0.246
 5837TIP3   OH217453   5.524   0.816   3.370
 5837TIP3    H117454   5.601   0.759   3.377
 5837TIP3    H217455   5.489   0.798   3.283
 5838TIP3   OH217456   4.672   0.867   1.790
 5838TIP3    H117457   4.696   0.959   1.804
 5838TIP3    H217458   4.749   0.818   1.818
 5839TIP3   OH217459   5.616   6.615   3.029
 5839TIP3    H117460   5.596   6.705   3.056
 5839TIP3    H217461   5.563   6.600   2.952
 5840TIP3   OH217462   4.491   7.648   3.311
 5840TIP3    H117463   4.460   7.674   3.224
 5840TIP3    H217464   4.430   7.580   3.339
 5841TIP3   OH217465   6.586   7.243   0.324
 5841TIP3    H117466   6.635   7.252   0.242
 5841TIP3    H217467   6.528   7.319   0.326
 5842TIP3   OH217468   2.073   2.167   3.409
 5842TIP3    H117469   2.030   2.202   3.332
 5842TIP3    H217470   2.165   2.156   3.382
 5843TIP3   OH217471   3.254   6.764   5.761
 5843TIP3    H117472   3.230   6.736   5.850
 5843TIP3    H217473   3.186   6.727   5.705
 5844TIP3   OH217474   1.892   7.490   0.657
 5844TIP3    H117475   1.840   7.413   0.635
 5844TIP3    H217476   1.838   7.538   0.721
 5845TIP3   OH217477   0.683   1.572   5.251
 5845TIP3    H117478   0.750   1.632   5.217
 5845TIP3    H217479   0.670   1.598   5.342
 5846TIP3   OH217480   5.892   7.738   5.751
 5846TIP3    H117481   5.855   7.745   5.662
 5846TIP3    H217482   5.815   7.740   5.808
 5847TIP3   OH217483   7.690   0.518   0.593
 5847TIP3    H117484   7.785   0.520   0.589
 5847TIP3    H217485   7.666   0.602   0.633
 5848TIP3   OH217486   4.148   3.958   2.418
 5848TIP3    H117487   4.146   3.973   2.512
 5848TIP3    H217488   4.196   4.032   2.383
 5849TIP3   OH217489   8.020   1.424   5.126
 5849TIP3    H117490   8.025   1.497   5.187
 5849TIP3    H217491   7.960   1.362   5.168
 5850TIP3   OH217492   1.134   0.309   5.924
 5850TIP3    H117493   1.212   0.263   5.895
 5850TIP3    H217494   1.155   0.339   6.013
 5851TIP3   OH217495   4.879   7.695   0.517
 5851TIP3    H117496   4.904   7.606   0.540
 5851TIP3    H217497   4.941   7.751   0.565
 5852TIP3   OH217498   4.735   3.536   1.361
 5852TIP3    H117499   4.713   3.498   1.276
 5852TIP3    H217500   4.829   3.555   1.354
 5853TIP3   OH217501   1.339   1.116   6.164
 5853TIP3    H117502   1.404   1.171   6.120
 5853TIP3    H217503   1.375   1.027   6.158
 5854TIP3   OH217504   1.535   6.325   2.693
 5854TIP3    H117505   1.631   6.331   2.696
 5854TIP3    H217506   1.515   6.315   2.600
 5855TIP3   OH217507   3.944   0.164   1.284
 5855TIP3    H117508   3.902   0.132   1.204
 5855TIP3    H217509   3.935   0.260   1.279
 5856TIP3   OH217510   4.048   4.139   3.523
 5856TIP3    H117511   4.030   4.191   3.444
 5856TIP3    H217512   4.139   4.113   3.514
 5857TIP3   OH217513   2.806   6.978   6.347
 5857TIP3    H117514   2.817   6.942   6.435
 5857TIP3    H217515   2.818   7.073   6.358
 5858TIP3   OH217516   3.988   7.645   3.893
 5858TIP3    H117517   3.986   7.727   3.844
 5858TIP3    H217518   3.914   7.652   3.953
 5859TIP3   OH217519   4.207   5.694   5.509
 5859TIP3    H117520   4.186   5.635   5.437
 5859TIP3    H217521   4.155   5.662   5.582
 5860TIP3   OH217522   4.459   5.797   0.415
 5860TIP3    H117523   4.432   5.707   0.435
 5860TIP3    H217524   4.509   5.789   0.334
 5861TIP3   OH217525   1.454   3.226   3.563
 5861TIP3    H117526   1.363   3.249   3.543
 5861TIP3    H217527   1.475   3.276   3.641
 5862TIP3   OH217528   2.020   4.857   2.590
 5862TIP3    H117529   2.034   4.831   2.681
 5862TIP3    H217530   1.956   4.795   2.556
 5863TIP3   OH217531   6.582   3.621   6.345
 5863TIP3    H117532   6.522   3.613   6.270
 5863TIP3    H217533   6.667   3.592   6.310
 5864TIP3   OH217534   4.524   6.014   2.556
 5864TIP3    H117535   4.457   5.973   2.501
 5864TIP3    H217536   4.570   6.074   2.496
 5865TIP3   OH217537   5.571   2.520   2.388
 5865TIP3    H117538   5.587   2.611   2.410
 5865TIP3    H217539   5.540   2.480   2.470
 5866TIP3   OH217540   4.513   1.435   5.208
 5866TIP3    H117541   4.459   1.454   5.132
 5866TIP3    H217542   4.602   1.426   5.173
 5867TIP3   OH217543   2.784   0.224   3.899
 5867TIP3    H117544   2.779   0.244   3.992
 5867TIP3    H217545   2.854   0.159   3.892
 5868TIP3   OH217546   6.519   6.612   5.539
 5868TIP3    H117547   6.561   6.696   5.555
 5868TIP3    H217548   6.540   6.591   5.448
 5869TIP3   OH217549   1.676   5.891   3.079
 5869TIP3    H117550   1.771   5.892   3.071
 5869TIP3    H217551   1.649   5.981   3.058
 5870TIP3   OH217552   5.495   3.259   3.484
 5870TIP3    H117553   5.588   3.264   3.463
 5870TIP3    H217554   5.488   3.183   3.542
 5871TIP3   OH217555   7.084   0.730   4.967
 5871TIP3    H117556   7.053   0.802   4.912
 5871TIP3    H217557   7.170   0.708   4.931
 5872TIP3   OH217558   0.040   4.787   3.102
 5872TIP3    H117559   0.115   4.737   3.136
 5872TIP3    H217560  -0.035   4.728   3.113
 5873TIP3   OH217561   6.505   3.624   0.367
 5873TIP3    H117562   6.563   3.572   0.422
 5873TIP3    H217563   6.538   3.611   0.278
 5874TIP3   OH217564   0.298   5.273   6.589
 5874TIP3    H117565   0.312   5.344   6.527
 5874TIP3    H217566   0.313   5.193   6.539
 5875TIP3   OH217567   3.759   6.272   6.681
 5875TIP3    H117568   3.827   6.252   6.617
 5875TIP3    H217569   3.677   6.261   6.633
 5876TIP3   OH217570   7.575   7.307   1.276
 5876TIP3    H117571   7.538   7.227   1.239
 5876TIP3    H217572   7.665   7.310   1.243
 5877TIP3   OH217573   1.696   2.844   0.240
 5877TIP3    H117574   1.628   2.822   0.176
 5877TIP3    H217575   1.743   2.761   0.254
 5878TIP3   OH217576   5.389   6.601   4.145
 5878TIP3    H117577   5.316   6.662   4.135
 5878TIP3    H217578   5.457   6.652   4.188
 5879TIP3   OH217579   0.243   2.310   2.328
 5879TIP3    H117580   0.177   2.378   2.314
 5879TIP3    H217581   0.327   2.357   2.326
 5880TIP3   OH217582   4.290   4.905   2.837
 5880TIP3    H117583   4.228   4.978   2.840
 5880TIP3    H217584   4.376   4.946   2.830
 5881TIP3   OH217585   3.215   6.977   0.078
 5881TIP3    H117586   3.129   6.965   0.119
 5881TIP3    H217587   3.221   6.907   0.013
 5882TIP3   OH217588   2.585   7.179   2.914
 5882TIP3    H117589   2.549   7.129   2.987
 5882TIP3    H217590   2.513   7.236   2.886
 5883TIP3   OH217591   5.778   0.807   4.941
 5883TIP3    H117592   5.807   0.776   4.855
 5883TIP3    H217593   5.731   0.889   4.922
 5884TIP3   OH217594   5.469   6.113   3.218
 5884TIP3    H117595   5.486   6.203   3.247
 5884TIP3    H217596   5.544   6.063   3.249
 5885TIP3   OH217597   6.714   3.189   1.290
 5885TIP3    H117598   6.758   3.104   1.292
 5885TIP3    H217599   6.628   3.173   1.328
 5886TIP3   OH217600   1.669   0.861   5.704
 5886TIP3    H117601   1.727   0.895   5.636
 5886TIP3    H217602   1.601   0.928   5.712
 5887TIP3   OH217603   1.052   3.809   4.899
 5887TIP3    H117604   0.978   3.775   4.950
 5887TIP3    H217605   1.027   3.899   4.877
 5888TIP3   OH217606   0.068   3.332   3.853
 5888TIP3    H117607  -0.027   3.335   3.868
 5888TIP3    H217608   0.101   3.273   3.921
 5889TIP3   OH217609   2.474   2.482   2.946
 5889TIP3    H117610   2.479   2.561   2.892
 5889TIP3    H217611   2.553   2.433   2.924
 5890TIP3   OH217612   5.679   5.480   4.602
 5890TIP3    H117613   5.599   5.453   4.647
 5890TIP3    H217614   5.749   5.441   4.654
 5891TIP3   OH217615   2.190   5.646   2.787
 5891TIP3    H117616   2.208   5.552   2.792
 5891TIP3    H217617   2.149   5.658   2.701
 5892TIP3   OH217618   7.173   4.470   4.459
 5892TIP3    H117619   7.161   4.564   4.451
 5892TIP3    H217620   7.206   4.443   4.373
 5893TIP3   OH217621   0.832   6.335   4.373
 5893TIP3    H117622   0.775   6.382   4.434
 5893TIP3    H217623   0.849   6.251   4.416
 5894TIP3   OH217624   5.890   5.197   6.464
 5894TIP3    H117625   5.821   5.133   6.446
 5894TIP3    H217626   5.927   5.216   6.379
 5895TIP3   OH217627   1.929   3.296   3.410
 5895TIP3    H117628   1.882   3.277   3.492
 5895TIP3    H217629   1.974   3.379   3.427
 5896TIP3   OH217630   3.639   2.913   0.242
 5896TIP3    H117631   3.639   2.817   0.239
 5896TIP3    H217632   3.616   2.933   0.333
 5897TIP3   OH217633   0.276   3.907   2.958
 5897TIP3    H117634   0.238   3.906   2.871
 5897TIP3    H217635   0.238   3.983   3.001
 5898TIP3   OH217636   7.094   4.602   2.196
 5898TIP3    H117637   7.043   4.627   2.119
 5898TIP3    H217638   7.031   4.605   2.269
 5899TIP3   OH217639   4.255   2.922   1.502
 5899TIP3    H117640   4.329   2.862   1.494
 5899TIP3    H217641   4.180   2.866   1.520
 5900TIP3   OH217642   4.083   6.478   4.890
 5900TIP3    H117643   4.014   6.412   4.880
 5900TIP3    H217644   4.149   6.436   4.944
 5901TIP3   OH217645   8.087   1.392   1.381
 5901TIP3    H117646   8.031   1.322   1.348
 5901TIP3    H217647   8.068   1.396   1.475
 5902TIP3   OH217648   3.091   6.861   4.488
 5902TIP3    H117649   3.075   6.880   4.580
 5902TIP3    H217650   3.004   6.849   4.450
 5903TIP3   OH217651   3.453   1.882   5.417
 5903TIP3    H117652   3.464   1.914   5.507
 5903TIP3    H217653   3.378   1.823   5.423
 5904TIP3   OH217654   7.966   3.069   2.675
 5904TIP3    H117655   8.020   3.112   2.741
 5904TIP3    H217656   7.897   3.025   2.725
 5905TIP3   OH217657   4.833   3.863   0.290
 5905TIP3    H117658   4.856   3.772   0.308
 5905TIP3    H217659   4.878   3.884   0.208
 5906TIP3   OH217660   1.183   1.287   1.210
 5906TIP3    H117661   1.192   1.269   1.304
 5906TIP3    H217662   1.237   1.364   1.195
 5907TIP3   OH217663   2.197   3.152   2.784
 5907TIP3    H117664   2.140   3.120   2.713
 5907TIP3    H217665   2.138   3.201   2.842
 5908TIP3   OH217666   3.360   2.732   4.747
 5908TIP3    H117667   3.304   2.792   4.797
 5908TIP3    H217668   3.442   2.779   4.736
 5909TIP3   OH217669   1.407   3.358   1.118
 5909TIP3    H117670   1.367   3.350   1.204
 5909TIP3    H217671   1.490   3.403   1.134
 5910TIP3   OH217672   0.243   6.400   3.537
 5910TIP3    H117673   0.201   6.361   3.461
 5910TIP3    H217674   0.184   6.382   3.610
 5911TIP3   OH217675   0.878   5.460   5.770
 5911TIP3    H117676   0.808   5.406   5.733
 5911TIP3    H217677   0.956   5.436   5.722
 5912TIP3   OH217678   5.590   0.895   3.834
 5912TIP3    H117679   5.584   0.831   3.763
 5912TIP3    H217680   5.529   0.965   3.809
 5913TIP3   OH217681   6.066   2.641   1.382
 5913TIP3    H117682   6.003   2.699   1.425
 5913TIP3    H217683   6.081   2.571   1.446
 5914TIP3   OH217684   0.315   5.458   3.201
 5914TIP3    H117685   0.270   5.385   3.244
 5914TIP3    H217686   0.258   5.534   3.217
 5915TIP3   OH217687   3.125   5.557   1.855
 5915TIP3    H117688   3.196   5.611   1.892
 5915TIP3    H217689   3.168   5.505   1.787
 5916TIP3   OH217690   0.285   1.626   1.293
 5916TIP3    H117691   0.200   1.597   1.327
 5916TIP3    H217692   0.267   1.654   1.204
 5917TIP3   OH217693   3.886   5.352   4.630
 5917TIP3    H117694   3.900   5.357   4.536
 5917TIP3    H217695   3.828   5.277   4.642
 5918TIP3   OH217696   3.604   1.424   0.882
 5918TIP3    H117697   3.522   1.373   0.879
 5918TIP3    H217698   3.575   1.515   0.882
 5919TIP3   OH217699   3.849   6.524   0.681
 5919TIP3    H117700   3.765   6.525   0.634
 5919TIP3    H217701   3.825   6.537   0.773
 5920TIP3   OH217702   5.698   2.930   0.051
 5920TIP3    H117703   5.736   2.907   0.136
 5920TIP3    H217704   5.634   2.861   0.034
 5921TIP3   OH217705   0.676   7.278   5.380
 5921TIP3    H117706   0.658   7.259   5.472
 5921TIP3    H217707   0.713   7.197   5.345
 5922TIP3   OH217708   5.955   0.603   2.528
 5922TIP3    H117709   5.945   0.510   2.504
 5922TIP3    H217710   6.027   0.634   2.473
 5923TIP3   OH217711   6.162   7.257   2.003
 5923TIP3    H117712   6.106   7.267   2.080
 5923TIP3    H217713   6.180   7.347   1.975
 5924TIP3   OH217714   1.487   7.608   1.838
 5924TIP3    H117715   1.480   7.687   1.891
 5924TIP3    H217716   1.485   7.639   1.747
 5925TIP3   OH217717   2.564   1.571   6.658
 5925TIP3    H117718   2.624   1.550   6.586
 5925TIP3    H217719   2.478   1.577   6.616
 5926TIP3   OH217720   6.447   6.710   3.828
 5926TIP3    H117721   6.447   6.725   3.734
 5926TIP3    H217722   6.472   6.618   3.838
 5927TIP3   OH217723   2.521   7.395   6.740
 5927TIP3    H117724   2.540   7.427   6.652
 5927TIP3    H217725   2.597   7.420   6.792
 5928TIP3   OH217726   0.326   0.099   3.875
 5928TIP3    H117727   0.355   0.109   3.966
 5928TIP3    H217728   0.253   0.161   3.866
 5929TIP3   OH217729   7.919   7.665   5.374
 5929TIP3    H117730   7.977   7.604   5.420
 5929TIP3    H217731   7.845   7.679   5.433
 5930TIP3   OH217732   7.426   3.170   2.535
 5930TIP3    H117733   7.372   3.184   2.612
 5930TIP3    H217734   7.515   3.191   2.563
 5931TIP3   OH217735   2.987   2.512   1.591
 5931TIP3    H117736   3.000   2.418   1.606
 5931TIP3    H217737   3.040   2.554   1.659
 5932TIP3   OH217738   2.733   0.870   6.091
 5932TIP3    H117739   2.739   0.776   6.110
 5932TIP3    H217740   2.761   0.912   6.172
 5933TIP3   OH217741   4.515   3.887   5.668
 5933TIP3    H117742   4.488   3.796   5.682
 5933TIP3    H217743   4.444   3.925   5.615
 5934TIP3   OH217744   4.945   4.131   6.131
 5934TIP3    H117745   4.945   4.108   6.224
 5934TIP3    H217746   5.004   4.206   6.126
 5935TIP3   OH217747   5.741   7.832   3.040
 5935TIP3    H117748   5.700   7.747   3.055
 5935TIP3    H217749   5.824   7.828   3.088
 5936TIP3   OH217750   4.577   5.283   2.893
 5936TIP3    H117751   4.537   5.197   2.878
 5936TIP3    H217752   4.669   5.271   2.869
 5937TIP3   OH217753   0.116   1.369   1.474
 5937TIP3    H117754   0.052   1.319   1.525
 5937TIP3    H217755   0.078   1.374   1.386
 5938TIP3   OH217756   2.765   3.215   0.568
 5938TIP3    H117757   2.692   3.268   0.538
 5938TIP3    H217758   2.730   3.126   0.575
 5939TIP3   OH217759   7.315   7.441   4.217
 5939TIP3    H117760   7.326   7.398   4.132
 5939TIP3    H217761   7.225   7.472   4.216
 5940TIP3   OH217762   2.686   7.059   5.345
 5940TIP3    H117763   2.687   6.972   5.387
 5940TIP3    H217764   2.767   7.062   5.295
 5941TIP3   OH217765   7.974   7.387   3.407
 5941TIP3    H117766   7.970   7.412   3.315
 5941TIP3    H217767   7.891   7.343   3.424
 5942TIP3   OH217768   4.203   2.443   0.317
 5942TIP3    H117769   4.200   2.384   0.392
 5942TIP3    H217770   4.112   2.466   0.300
 5943TIP3   OH217771   4.251   3.761   3.108
 5943TIP3    H117772   4.258   3.715   3.192
 5943TIP3    H217773   4.326   3.731   3.058
 5944TIP3   OH217774   0.378   0.227   5.193
 5944TIP3    H117775   0.445   0.166   5.224
 5944TIP3    H217776   0.325   0.175   5.132
 5945TIP3   OH217777   0.461   2.403   4.929
 5945TIP3    H117778   0.445   2.489   4.968
 5945TIP3    H217779   0.442   2.341   4.999
 5946TIP3   OH217780   6.182   5.632   6.666
 5946TIP3    H117781   6.153   5.717   6.633
 5946TIP3    H217782   6.101   5.588   6.694
 5947TIP3   OH217783   2.401   6.066   1.293
 5947TIP3    H117784   2.412   5.988   1.239
 5947TIP3    H217785   2.372   6.033   1.378
 5948TIP3   OH217786   0.235   7.441   6.015
 5948TIP3    H117787   0.160   7.481   6.059
 5948TIP3    H217788   0.307   7.449   6.077
 5949TIP3   OH217789   1.890   5.408   2.991
 5949TIP3    H117790   1.977   5.368   2.993
 5949TIP3    H217791   1.897   5.477   2.926
 5950TIP3   OH217792   7.638   2.106   2.839
 5950TIP3    H117793   7.685   2.069   2.764
 5950TIP3    H217794   7.701   2.165   2.880
 5951TIP3   OH217795   5.524   1.028   3.120
 5951TIP3    H117796   5.549   1.097   3.060
 5951TIP3    H217797   5.435   1.003   3.092
 5952TIP3   OH217798   3.226   5.476   3.353
 5952TIP3    H117799   3.245   5.446   3.265
 5952TIP3    H217800   3.136   5.509   3.349
 5953TIP3   OH217801   7.221   5.268   2.025
 5953TIP3    H117802   7.192   5.270   2.116
 5953TIP3    H217803   7.220   5.175   2.002
 5954TIP3   OH217804   7.913   3.117   6.647
 5954TIP3    H117805   7.875   3.060   6.714
 5954TIP3    H217806   7.973   3.174   6.695
 5955TIP3   OH217807   4.905   6.862   2.181
 5955TIP3    H117808   4.875   6.773   2.168
 5955TIP3    H217809   4.879   6.909   2.102
 5956TIP3   OH217810   4.831   6.530   2.075
 5956TIP3    H117811   4.824   6.598   2.008
 5956TIP3    H217812   4.749   6.536   2.123
 5957TIP3   OH217813   6.672   4.823   1.760
 5957TIP3    H117814   6.666   4.899   1.702
 5957TIP3    H217815   6.651   4.858   1.847
 5958TIP3   OH217816   8.255   3.817   5.926
 5958TIP3    H117817   8.208   3.887   5.971
 5958TIP3    H217818   8.188   3.771   5.876
 5959TIP3   OH217819   5.588   5.411   2.645
 5959TIP3    H117820   5.653   5.343   2.659
 5959TIP3    H217821   5.538   5.413   2.727
 5960TIP3   OH217822   3.833   5.416   3.874
 5960TIP3    H117823   3.754   5.421   3.927
 5960TIP3    H217824   3.904   5.403   3.937
 5961TIP3   OH217825   4.639   3.156   3.525
 5961TIP3    H117826   4.566   3.094   3.530
 5961TIP3    H217827   4.678   3.154   3.613
 5962TIP3   OH217828   4.449   7.367   5.829
 5962TIP3    H117829   4.358   7.360   5.800
 5962TIP3    H217830   4.467   7.461   5.829
 5963TIP3   OH217831   8.271   2.372   2.107
 5963TIP3    H117832   8.295   2.439   2.044
 5963TIP3    H217833   8.231   2.420   2.180
 5964TIP3   OH217834   2.061   0.412   6.379
 5964TIP3    H117835   2.082   0.466   6.303
 5964TIP3    H217836   2.088   0.323   6.353
 5965TIP3   OH217837   8.149   3.832   5.403
 5965TIP3    H117838   8.188   3.918   5.393
 5965TIP3    H217839   8.127   3.804   5.314
 5966TIP3   OH217840   1.371   5.135   2.283
 5966TIP3    H117841   1.404   5.179   2.362
 5966TIP3    H217842   1.420   5.052   2.280
 5967TIP3   OH217843   6.933   5.062   1.668
 5967TIP3    H117844   6.997   5.132   1.652
 5967TIP3    H217845   6.884   5.091   1.745
 5968TIP3   OH217846   4.767   6.942   1.702
 5968TIP3    H117847   4.691   6.896   1.738
 5968TIP3    H217848   4.806   6.880   1.640
 5969TIP3   OH217849   1.455   5.649   5.534
 5969TIP3    H117850   1.439   5.739   5.562
 5969TIP3    H217851   1.530   5.621   5.585
 5970TIP3   OH217852   1.491   3.673   5.808
 5970TIP3    H117853   1.407   3.634   5.783
 5970TIP3    H217854   1.555   3.633   5.750
 5971TIP3   OH217855   0.210   4.908   1.108
 5971TIP3    H117856   0.165   4.827   1.131
 5971TIP3    H217857   0.161   4.977   1.153
 5972TIP3   OH217858   4.817   1.541   2.388
 5972TIP3    H117859   4.749   1.544   2.456
 5972TIP3    H217860   4.897   1.568   2.434
 5973TIP3   OH217861   4.401   5.854   6.551
 5973TIP3    H117862   4.323   5.893   6.513
 5973TIP3    H217863   4.426   5.785   6.490
 5974TIP3   OH217864   7.416   7.279   6.526
 5974TIP3    H117865   7.430   7.346   6.459
 5974TIP3    H217866   7.387   7.328   6.603
 5975TIP3   OH217867   4.636   5.887   5.757
 5975TIP3    H117868   4.550   5.926   5.743
 5975TIP3    H217869   4.657   5.846   5.673
 5976TIP3   OH217870   4.024   0.199   2.381
 5976TIP3    H117871   3.966   0.213   2.306
 5976TIP3    H217872   4.097   0.148   2.345
 5977TIP3   OH217873   6.736   4.194   6.192
 5977TIP3    H117874   6.710   4.272   6.240
 5977TIP3    H217875   6.654   4.158   6.158
 5978TIP3   OH217876   7.998   4.010   1.494
 5978TIP3    H117877   8.035   4.041   1.577
 5978TIP3    H217878   7.972   3.919   1.512
 5979TIP3   OH217879   0.244   6.050   0.448
 5979TIP3    H117880   0.322   6.106   0.445
 5979TIP3    H217881   0.279   5.961   0.454
 5980TIP3   OH217882   6.257   4.570   0.277
 5980TIP3    H117883   6.216   4.557   0.192
 5980TIP3    H217884   6.206   4.515   0.337
 5981TIP3   OH217885   3.678   1.395   5.755
 5981TIP3    H117886   3.651   1.319   5.807
 5981TIP3    H217887   3.627   1.468   5.791
 5982TIP3   OH217888   2.738   0.318   6.315
 5982TIP3    H117889   2.711   0.226   6.319
 5982TIP3    H217890   2.707   0.355   6.398
 5983TIP3   OH217891   2.614   2.924   4.994
 5983TIP3    H117892   2.532   2.973   5.006
 5983TIP3    H217893   2.683   2.989   5.008
 5984TIP3   OH217894   2.097   3.700   0.590
 5984TIP3    H117895   2.136   3.655   0.515
 5984TIP3    H217896   2.054   3.631   0.640
 5985TIP3   OH217897   4.880   5.626   1.358
 5985TIP3    H117898   4.799   5.657   1.398
 5985TIP3    H217899   4.923   5.575   1.426
 5986TIP3   OH217900   4.464   2.465   4.234
 5986TIP3    H117901   4.376   2.458   4.272
 5986TIP3    H217902   4.485   2.375   4.208
 5987TIP3   OH217903   3.035   7.320   5.918
 5987TIP3    H117904   3.029   7.345   6.010
 5987TIP3    H217905   3.091   7.387   5.878
 5988TIP3   OH217906   5.275   4.369   0.059
 5988TIP3    H117907   5.320   4.322  -0.011
 5988TIP3    H217908   5.340   4.374   0.130
 5989TIP3   OH217909   5.098   6.500   1.749
 5989TIP3    H117910   5.192   6.491   1.737
 5989TIP3    H217911   5.087   6.583   1.795
 5990TIP3   OH217912   7.622   2.432   1.329
 5990TIP3    H117913   7.531   2.405   1.320
 5990TIP3    H217914   7.618   2.526   1.348
 5991TIP3   OH217915   5.367   5.107   1.685
 5991TIP3    H117916   5.309   5.141   1.753
 5991TIP3    H217917   5.347   5.013   1.682
 5992TIP3   OH217918   3.980   4.246   2.749
 5992TIP3    H117919   3.906   4.207   2.797
 5992TIP3    H217920   3.961   4.340   2.749
 5993TIP3   OH217921   1.384   1.347   1.793
 5993TIP3    H117922   1.414   1.285   1.727
 5993TIP3    H217923   1.296   1.319   1.816
 5994TIP3   OH217924   0.297   6.599   6.002
 5994TIP3    H117925   0.296   6.503   6.011
 5994TIP3    H217926   0.236   6.630   6.068
 5995TIP3   OH217927   3.234   3.606   4.160
 5995TIP3    H117928   3.152   3.650   4.181
 5995TIP3    H217929   3.209   3.536   4.100
 5996TIP3   OH217930   6.548   4.564   0.483
 5996TIP3    H117931   6.519   4.615   0.407
 5996TIP3    H217932   6.521   4.617   0.558
 5997TIP3   OH217933   3.497   1.605   3.809
 5997TIP3    H117934   3.518   1.698   3.819
 5997TIP3    H217935   3.565   1.560   3.859
 5998TIP3   OH217936   6.198   0.883   3.740
 5998TIP3    H117937   6.269   0.850   3.796
 5998TIP3    H217938   6.185   0.973   3.770
 5999TIP3   OH217939   7.552   3.331   4.040
 5999TIP3    H117940   7.467   3.290   4.024
 5999TIP3    H217941   7.533   3.401   4.102
 6000TIP3   OH217942   5.635   3.992   3.910
 6000TIP3    H117943   5.570   3.934   3.949
 6000TIP3    H217944   5.719   3.958   3.942
 6001TIP3   OH217945   4.669   3.066   4.855
 6001TIP3    H117946   4.655   3.079   4.949
 6001TIP3    H217947   4.762   3.082   4.842
 6002TIP3   OH217948   7.482   5.822   3.483
 6002TIP3    H117949   7.421   5.763   3.440
 6002TIP3    H217950   7.431   5.862   3.554
 6003TIP3   OH217951   5.352   7.138   6.286
 6003TIP3    H117952   5.432   7.101   6.248
 6003TIP3    H217953   5.372   7.148   6.379
 6004TIP3   OH217954   7.993   1.860   2.069
 6004TIP3    H117955   8.007   1.921   2.142
 6004TIP3    H217956   7.941   1.789   2.107
 6005TIP3   OH217957   1.089   3.305   5.760
 6005TIP3    H117958   1.109   3.238   5.825
 6005TIP3    H217959   1.017   3.355   5.799
 6006TIP3   OH217960   0.898   3.331   4.448
 6006TIP3    H117961   0.843   3.254   4.463
 6006TIP3    H217962   0.981   3.311   4.491
 6007TIP3   OH217963   6.065   6.344   0.002
 6007TIP3    H117964   6.123   6.417  -0.020
 6007TIP3    H217965   6.123   6.273   0.026
 6008TIP3   OH217966   5.194   3.424   0.724
 6008TIP3    H117967   5.283   3.407   0.691
 6008TIP3    H217968   5.156   3.337   0.736
 6009TIP3   OH217969   5.356   7.128   3.545
 6009TIP3    H117970   5.276   7.105   3.593
 6009TIP3    H217971   5.360   7.065   3.473
 6010TIP3   OH217972   4.371   2.890   2.624
 6010TIP3    H117973   4.388   2.909   2.531
 6010TIP3    H217974   4.363   2.795   2.627
 6011TIP3   OH217975   1.879   4.632   2.488
 6011TIP3    H117976   1.848   4.557   2.438
 6011TIP3    H217977   1.940   4.596   2.552
 6012TIP3   OH217978   1.215   1.015   5.179
 6012TIP3    H117979   1.229   1.074   5.253
 6012TIP3    H217980   1.209   0.928   5.220
 6013TIP3   OH217981   4.880   1.161   1.059
 6013TIP3    H117982   4.785   1.151   1.067
 6013TIP3    H217983   4.892   1.213   0.980
 6014TIP3   OH217984   5.487   4.899   1.426
 6014TIP3    H117985   5.539   4.831   1.384
 6014TIP3    H217986   5.507   4.889   1.519
 6015TIP3   OH217987   4.903   7.445   3.547
 6015TIP3    H117988   4.834   7.512   3.548
 6015TIP3    H217989   4.909   7.416   3.638
 6016TIP3   OH217990   4.273   0.451   3.817
 6016TIP3    H117991   4.284   0.520   3.751
 6016TIP3    H217992   4.315   0.374   3.779
 6017TIP3   OH217993   5.735   0.508   1.916
 6017TIP3    H117994   5.760   0.475   2.003
 6017TIP3    H217995   5.726   0.603   1.929
 6018TIP3   OH217996   8.000   4.412   5.117
 6018TIP3    H117997   7.973   4.371   5.199
 6018TIP3    H217998   7.954   4.496   5.117
 6019TIP3   OH217999   4.380   0.682   4.797
 6019TIP3    H118000   4.307   0.660   4.740
 6019TIP3    H218001   4.340   0.708   4.879
 6020TIP3   OH218002   1.224   4.611   1.371
 6020TIP3    H118003   1.152   4.599   1.309
 6020TIP3    H218004   1.289   4.546   1.346
 6021TIP3   OH218005   3.551   5.292   5.788
 6021TIP3    H118006   3.644   5.272   5.775
 6021TIP3    H218007   3.535   5.367   5.730
 6022TIP3   OH218008   7.244   5.082   5.668
 6022TIP3    H118009   7.159   5.095   5.710
 6022TIP3    H218010   7.239   5.133   5.586
 6023TIP3   OH218011   4.699   4.342   2.627
 6023TIP3    H118012   4.678   4.281   2.556
 6023TIP3    H218013   4.755   4.292   2.686
 6024TIP3   OH218014   1.269   3.661   4.960
 6024TIP3    H118015   1.277   3.701   5.047
 6024TIP3    H218016   1.196   3.707   4.919
 6025TIP3   OH218017   2.605   3.182   1.514
 6025TIP3    H118018   2.568   3.262   1.551
 6025TIP3    H218019   2.532   3.120   1.514
 6026TIP3   OH218020   4.260   7.395   3.822
 6026TIP3    H118021   4.272   7.306   3.788
 6026TIP3    H218022   4.176   7.423   3.786
 6027TIP3   OH218023   1.867   4.700   3.731
 6027TIP3    H118024   1.929   4.629   3.714
 6027TIP3    H218025   1.805   4.663   3.794
 6028TIP3   OH218026   2.506   3.009   3.685
 6028TIP3    H118027   2.448   3.078   3.651
 6028TIP3    H218028   2.454   2.929   3.678
 6029TIP3   OH218029   5.807   1.652   0.341
 6029TIP3    H118030   5.823   1.746   0.335
 6029TIP3    H218031   5.882   1.612   0.296
 6030TIP3   OH218032   2.559   1.552   0.184
 6030TIP3    H118033   2.522   1.634   0.152
 6030TIP3    H218034   2.484   1.492   0.188
 6031TIP3   OH218035   6.313   6.056   2.381
 6031TIP3    H118036   6.382   6.112   2.346
 6031TIP3    H218037   6.246   6.117   2.412
 6032TIP3   OH218038   4.926   7.195   2.286
 6032TIP3    H118039   5.002   7.183   2.228
 6032TIP3    H218040   4.854   7.217   2.226
 6033TIP3   OH218041   1.253   5.603   4.714
 6033TIP3    H118042   1.159   5.596   4.732
 6033TIP3    H218043   1.263   5.688   4.671
 6034TIP3   OH218044   0.286   4.263   0.716
 6034TIP3    H118045   0.271   4.192   0.778
 6034TIP3    H218046   0.217   4.254   0.650
 6035TIP3   OH218047   3.188   6.663   2.017
 6035TIP3    H118048   3.116   6.619   2.061
 6035TIP3    H218049   3.266   6.639   2.068
 6036TIP3   OH218050   0.038   3.303   4.587
 6036TIP3    H118051  -0.021   3.346   4.649
 6036TIP3    H218052  -0.010   3.225   4.559
 6037TIP3   OH218053   5.485   0.236   3.957
 6037TIP3    H118054   5.391   0.252   3.948
 6037TIP3    H218055   5.502   0.157   3.906
 6038TIP3   OH218056   6.848   4.373   4.798
 6038TIP3    H118057   6.904   4.336   4.730
 6038TIP3    H218058   6.759   4.358   4.766
 6039TIP3   OH218059   6.492   4.620   5.407
 6039TIP3    H118060   6.568   4.660   5.364
 6039TIP3    H218061   6.419   4.637   5.347
 6040TIP3   OH218062   6.549   3.449   5.683
 6040TIP3    H118063   6.577   3.487   5.599
 6040TIP3    H218064   6.630   3.442   5.734
 6041TIP3   OH218065   7.739   6.291   4.172
 6041TIP3    H118066   7.727   6.383   4.196
 6041TIP3    H218067   7.680   6.243   4.231
 6042TIP3   OH218068   3.531   2.207   6.666
 6042TIP3    H118069   3.499   2.150   6.597
 6042TIP3    H218070   3.566   2.148   6.732
 6043TIP3   OH218071   2.408   6.221   5.511
 6043TIP3    H118072   2.347   6.204   5.583
 6043TIP3    H218073   2.352   6.245   5.437
 6044TIP3   OH218074   5.825   5.490   6.576
 6044TIP3    H118075   5.849   5.415   6.522
 6044TIP3    H218076   5.737   5.470   6.608
 6045TIP3   OH218077   6.540   2.190   2.877
 6045TIP3    H118078   6.530   2.256   2.946
 6045TIP3    H218079   6.453   2.153   2.866
 6046TIP3   OH218080   7.249   1.460   5.701
 6046TIP3    H118081   7.175   1.514   5.729
 6046TIP3    H218082   7.302   1.449   5.780
 6047TIP3   OH218083   1.118   2.783   6.471
 6047TIP3    H118084   1.126   2.760   6.378
 6047TIP3    H218085   1.095   2.876   6.470
 6048TIP3   OH218086   5.737   5.057   2.495
 6048TIP3    H118087   5.661   5.052   2.437
 6048TIP3    H218088   5.810   5.079   2.437
 6049TIP3   OH218089   7.845   4.420   2.205
 6049TIP3    H118090   7.841   4.508   2.165
 6049TIP3    H218091   7.937   4.395   2.198
 6050TIP3   OH218092   0.316   1.694   6.258
 6050TIP3    H118093   0.317   1.619   6.317
 6050TIP3    H218094   0.308   1.656   6.171
 6051TIP3   OH218095   0.264   6.563   3.142
 6051TIP3    H118096   0.251   6.564   3.047
 6051TIP3    H218097   0.223   6.481   3.170
 6052TIP3   OH218098   5.653   0.575   1.522
 6052TIP3    H118099   5.588   0.624   1.574
 6052TIP3    H218100   5.727   0.564   1.582
 6053TIP3   OH218101   4.954   7.720   5.304
 6053TIP3    H118102   5.033   7.732   5.251
 6053TIP3    H218103   4.929   7.629   5.290
 6054TIP3   OH218104   1.358   5.716   1.697
 6054TIP3    H118105   1.412   5.677   1.766
 6054TIP3    H218106   1.299   5.775   1.745
 6055TIP3   OH218107   4.763   6.679   0.990
 6055TIP3    H118108   4.750   6.627   0.911
 6055TIP3    H218109   4.679   6.675   1.036
 6056TIP3   OH218110   0.761   3.713   1.777
 6056TIP3    H118111   0.789   3.709   1.686
 6056TIP3    H218112   0.674   3.754   1.773
 6057TIP3   OH218113   6.361   2.556   4.602
 6057TIP3    H118114   6.419   2.480   4.609
 6057TIP3    H218115   6.348   2.584   4.693
 6058TIP3   OH218116   1.358   5.013   1.739
 6058TIP3    H118117   1.350   4.929   1.692
 6058TIP3    H218118   1.314   4.997   1.822
 6059TIP3   OH218119   2.137   1.697   1.151
 6059TIP3    H118120   2.069   1.702   1.219
 6059TIP3    H218121   2.210   1.652   1.194
 6060TIP3   OH218122   6.404   4.950   4.032
 6060TIP3    H118123   6.482   4.900   4.010
 6060TIP3    H218124   6.435   5.018   4.091
 6061TIP3   OH218125   5.029   5.486   0.440
 6061TIP3    H118126   5.095   5.546   0.406
 6061TIP3    H218127   5.052   5.401   0.402
 6062TIP3   OH218128   4.232   5.736   1.385
 6062TIP3    H118129   4.169   5.667   1.405
 6062TIP3    H218130   4.178   5.812   1.362
 6063TIP3   OH218131   1.699   5.652   6.018
 6063TIP3    H118132   1.764   5.633   6.086
 6063TIP3    H218133   1.663   5.567   5.995
 6064TIP3   OH218134   8.130   6.127   0.851
 6064TIP3    H118135   8.215   6.164   0.828
 6064TIP3    H218136   8.124   6.047   0.799
 6065TIP3   OH218137   3.566   2.089   1.156
 6065TIP3    H118138   3.629   2.071   1.227
 6065TIP3    H218139   3.499   2.144   1.197
 6066TIP3   OH218140   5.600   1.978   0.770
 6066TIP3    H118141   5.556   2.063   0.767
 6066TIP3    H218142   5.597   1.953   0.862
 6067TIP3   OH218143   0.413   3.093   4.369
 6067TIP3    H118144   0.500   3.058   4.388
 6067TIP3    H218145   0.429   3.182   4.338
 6068TIP3   OH218146   1.619   5.947   3.803
 6068TIP3    H118147   1.583   5.895   3.875
 6068TIP3    H218148   1.650   5.882   3.740
 6069TIP3   OH218149   0.426   0.980   2.605
 6069TIP3    H118150   0.412   1.027   2.686
 6069TIP3    H218151   0.494   0.916   2.626
 6070TIP3   OH218152   2.728   1.719   4.818
 6070TIP3    H118153   2.654   1.716   4.757
 6070TIP3    H218154   2.805   1.724   4.762
 6071TIP3   OH218155   5.295   6.232   2.251
 6071TIP3    H118156   5.261   6.306   2.200
 6071TIP3    H218157   5.219   6.176   2.265
 6072TIP3   OH218158   4.677   4.757   4.203
 6072TIP3    H118159   4.608   4.705   4.161
 6072TIP3    H218160   4.630   4.832   4.241
 6073TIP3   OH218161   0.031   2.922   0.573
 6073TIP3    H118162  -0.062   2.933   0.591
 6073TIP3    H218163   0.070   2.907   0.659
 6074TIP3   OH218164   4.279   3.495   2.369
 6074TIP3    H118165   4.268   3.567   2.307
 6074TIP3    H218166   4.298   3.538   2.452
 6075TIP3   OH218167   7.822   3.099   5.468
 6075TIP3    H118168   7.768   3.150   5.529
 6075TIP3    H218169   7.772   3.018   5.455
 6076TIP3   OH218170   5.582   7.752   2.709
 6076TIP3    H118171   5.574   7.758   2.804
 6076TIP3    H218172   5.649   7.685   2.695
 6077TIP3   OH218173   5.126   7.616   3.806
 6077TIP3    H118174   5.061   7.677   3.771
 6077TIP3    H218175   5.197   7.617   3.742
 6078TIP3   OH218176   4.208   0.575   4.577
 6078TIP3    H118177   4.261   0.497   4.595
 6078TIP3    H218178   4.142   0.546   4.514
 6079TIP3   OH218179   0.312   2.815   5.196
 6079TIP3    H118180   0.381   2.842   5.257
 6079TIP3    H218181   0.233   2.858   5.228
 6080TIP3   OH218182   0.180   4.215   3.505
 6080TIP3    H118183   0.117   4.234   3.575
 6080TIP3    H218184   0.221   4.133   3.532
 6081TIP3   OH218185   1.746   4.418   2.383
 6081TIP3    H118186   1.764   4.336   2.428
 6081TIP3    H218187   1.651   4.426   2.383
 6082TIP3   OH218188   5.489   0.674   1.734
 6082TIP3    H118189   5.458   0.764   1.741
 6082TIP3    H218190   5.465   0.634   1.817
 6083TIP3   OH218191   0.790   0.820   3.221
 6083TIP3    H118192   0.710   0.805   3.171
 6083TIP3    H218193   0.763   0.809   3.312
 6084TIP3   OH218194   0.024   3.724   6.383
 6084TIP3    H118195   0.063   3.637   6.373
 6084TIP3    H218196   0.077   3.781   6.328
 6085TIP3   OH218197   5.398   5.237   5.040
 6085TIP3    H118198   5.494   5.238   5.045
 6085TIP3    H218199   5.373   5.157   5.086
 6086TIP3   OH218200   6.241   6.188   4.186
 6086TIP3    H118201   6.154   6.226   4.183
 6086TIP3    H218202   6.299   6.257   4.154
 6087TIP3   OH218203   6.593   4.542   2.705
 6087TIP3    H118204   6.642   4.472   2.748
 6087TIP3    H218205   6.519   4.498   2.663
 6088TIP3   OH218206   5.582   0.621   4.239
 6088TIP3    H118207   5.635   0.615   4.160
 6088TIP3    H218208   5.575   0.530   4.269
 6089TIP3   OH218209   7.999   5.748   5.435
 6089TIP3    H118210   7.984   5.668   5.385
 6089TIP3    H218211   7.912   5.786   5.447
 6090TIP3   OH218212   6.542   4.579   1.907
 6090TIP3    H118213   6.458   4.604   1.869
 6090TIP3    H218214   6.582   4.662   1.934
 6091TIP3   OH218215   1.934   5.164   5.730
 6091TIP3    H118216   1.988   5.151   5.807
 6091TIP3    H218217   1.965   5.099   5.667
 6092TIP3   OH218218   0.967   4.231   2.099
 6092TIP3    H118219   1.059   4.207   2.091
 6092TIP3    H218220   0.959   4.313   2.051
 6093TIP3   OH218221   7.598   0.568   4.756
 6093TIP3    H118222   7.640   0.592   4.673
 6093TIP3    H218223   7.592   0.473   4.754
 6094TIP3   OH218224   5.303   4.581   1.871
 6094TIP3    H118225   5.230   4.519   1.870
 6094TIP3    H218226   5.376   4.531   1.834
 6095TIP3   OH218227   2.554   3.413   0.537
 6095TIP3    H118228   2.459   3.409   0.550
 6095TIP3    H218229   2.565   3.448   0.449
 6096TIP3   OH218230   1.969   5.924   3.162
 6096TIP3    H118231   1.957   6.000   3.220
 6096TIP3    H218232   1.985   5.851   3.222
 6097TIP3   OH218233   2.960   0.187   6.531
 6097TIP3    H118234   3.036   0.192   6.473
 6097TIP3    H218235   2.903   0.121   6.491
 6098TIP3   OH218236   0.595   6.744   1.038
 6098TIP3    H118237   0.669   6.685   1.055
 6098TIP3    H218238   0.531   6.722   1.106
 6099TIP3   OH218239   2.933   0.335   6.750
 6099TIP3    H118240   2.966   0.406   6.695
 6099TIP3    H218241   2.926   0.260   6.692
 6100TIP3   OH218242   1.587   1.936   5.075
 6100TIP3    H118243   1.521   1.971   5.135
 6100TIP3    H218244   1.662   1.915   5.130
 6101TIP3   OH218245   6.567   5.325   3.401
 6101TIP3    H118246   6.591   5.417   3.409
 6101TIP3    H218247   6.597   5.300   3.314
 6102TIP3   OH218248   1.199   5.314   2.901
 6102TIP3    H118249   1.283   5.290   2.862
 6102TIP3    H218250   1.134   5.268   2.849
 6103TIP3   OH218251   1.447   6.813   5.300
 6103TIP3    H118252   1.427   6.905   5.281
 6103TIP3    H218253   1.490   6.781   5.220
 6104TIP3   OH218254   0.628   0.986   1.318
 6104TIP3    H118255   0.550   0.979   1.263
 6104TIP3    H218256   0.680   1.057   1.278
 6105TIP3   OH218257   5.603   2.601   0.955
 6105TIP3    H118258   5.582   2.534   0.890
 6105TIP3    H218259   5.673   2.561   1.008
 6106TIP3   OH218260   0.150   5.231   4.775
 6106TIP3    H118261   0.095   5.168   4.821
 6106TIP3    H218262   0.225   5.180   4.745
 6107TIP3   OH218263   2.893   2.964   4.222
 6107TIP3    H118264   2.862   2.879   4.252
 6107TIP3    H218265   2.988   2.960   4.234
 6108TIP3   OH218266   6.527   3.499   3.506
 6108TIP3    H118267   6.606   3.445   3.514
 6108TIP3    H218268   6.531   3.560   3.580
 6109TIP3   OH218269   2.715   0.483   3.832
 6109TIP3    H118270   2.772   0.533   3.891
 6109TIP3    H218271   2.734   0.391   3.853
 6110TIP3   OH218272   5.251   0.402   3.918
 6110TIP3    H118273   5.168   0.449   3.932
 6110TIP3    H218274   5.266   0.409   3.824
 6111TIP3   OH218275   5.537   5.748   2.264
 6111TIP3    H118276   5.493   5.833   2.255
 6111TIP3    H218277   5.608   5.751   2.201
 6112TIP3   OH218278   5.117   2.502   6.390
 6112TIP3    H118279   5.073   2.586   6.378
 6112TIP3    H218280   5.097   2.453   6.310
 6113TIP3   OH218281   3.963   0.881   3.083
 6113TIP3    H118282   3.993   0.952   3.026
 6113TIP3    H218283   4.021   0.807   3.062
 6114TIP3   OH218284   1.894   0.312   0.620
 6114TIP3    H118285   1.822   0.375   0.615
 6114TIP3    H218286   1.884   0.271   0.705
 6115TIP3   OH218287   6.444   2.823   1.418
 6115TIP3    H118288   6.453   2.734   1.452
 6115TIP3    H218289   6.349   2.836   1.411
 6116TIP3   OH218290   5.860   0.548   2.189
 6116TIP3    H118291   5.936   0.504   2.149
 6116TIP3    H218292   5.897   0.623   2.235
 6117TIP3   OH218293   0.086   2.943   5.873
 6117TIP3    H118294   0.080   2.850   5.849
 6117TIP3    H218295   0.082   2.990   5.790
 6118TIP3   OH218296   1.373   1.071   4.334
 6118TIP3    H118297   1.381   1.071   4.429
 6118TIP3    H218298   1.292   1.119   4.316
 6119TIP3   OH218299   5.236   7.553   4.072
 6119TIP3    H118300   5.201   7.575   3.986
 6119TIP3    H218301   5.188   7.610   4.132
 6120TIP3   OH218302   3.767   5.017   2.697
 6120TIP3    H118303   3.702   4.958   2.734
 6120TIP3    H218304   3.788   4.979   2.612
 6121TIP3   OH218305   5.751   5.890   2.976
 6121TIP3    H118306   5.685   5.852   2.918
 6121TIP3    H218307   5.759   5.981   2.948
 6122TIP3   OH218308   2.748   0.368   1.267
 6122TIP3    H118309   2.764   0.285   1.312
 6122TIP3    H218310   2.731   0.343   1.176
 6123TIP3   OH218311   0.453   6.062   6.404
 6123TIP3    H118312   0.457   6.075   6.499
 6123TIP3    H218313   0.440   6.150   6.368
 6124TIP3   OH218314   3.866   5.803   2.490
 6124TIP3    H118315   3.909   5.863   2.551
 6124TIP3    H218316   3.870   5.718   2.534
 6125TIP3   OH218317   4.622   1.047   6.666
 6125TIP3    H118318   4.595   1.105   6.595
 6125TIP3    H218319   4.592   1.091   6.746
 6126TIP3   OH218320   2.093   2.008   4.877
 6126TIP3    H118321   2.136   1.930   4.911
 6126TIP3    H218322   2.160   2.053   4.826
 6127TIP3   OH218323   7.025   6.089   1.332
 6127TIP3    H118324   6.980   6.034   1.396
 6127TIP3    H218325   6.955   6.132   1.283
 6128TIP3   OH218326   1.621   4.937   2.713
 6128TIP3    H118327   1.538   4.982   2.724
 6128TIP3    H218328   1.673   4.963   2.789
 6129TIP3   OH218329   2.699   1.690   3.276
 6129TIP3    H118330   2.757   1.621   3.243
 6129TIP3    H218331   2.686   1.748   3.201
 6130TIP3   OH218332   3.591   3.427   0.979
 6130TIP3    H118333   3.584   3.474   1.062
 6130TIP3    H218334   3.519   3.462   0.926
 6131TIP3   OH218335   4.138   3.531   1.787
 6131TIP3    H118336   4.198   3.589   1.741
 6131TIP3    H218337   4.186   3.502   1.864
 6132TIP3   OH218338   8.231   4.438   4.590
 6132TIP3    H118339   8.266   4.482   4.512
 6132TIP3    H218340   8.177   4.368   4.555
 6133TIP3   OH218341   6.228   6.673   0.122
 6133TIP3    H118342   6.153   6.630   0.081
 6133TIP3    H218343   6.269   6.604   0.174
 6134TIP3   OH218344   3.133   7.697   5.612
 6134TIP3    H118345   3.151   7.779   5.657
 6134TIP3    H218346   3.147   7.716   5.519
 6135TIP3   OH218347   2.338   5.144   2.828
 6135TIP3    H118348   2.352   5.097   2.745
 6135TIP3    H218349   2.386   5.094   2.893
 6136TIP3   OH218350   3.672   3.718   2.603
 6136TIP3    H118351   3.601   3.759   2.554
 6136TIP3    H218352   3.628   3.666   2.670
 6137TIP3   OH218353   2.453   5.384   3.068
 6137TIP3    H118354   2.490   5.313   3.121
 6137TIP3    H218355   2.377   5.414   3.119
 6138TIP3   OH218356   5.329   5.592   1.199
 6138TIP3    H118357   5.385   5.669   1.186
 6138TIP3    H218358   5.248   5.628   1.237
 6139TIP3   OH218359   5.516   3.325   4.608
 6139TIP3    H118360   5.515   3.318   4.512
 6139TIP3    H218361   5.565   3.405   4.625
 6140TIP3   OH218362   2.046   0.069   4.486
 6140TIP3    H118363   2.120   0.119   4.520
 6140TIP3    H218364   2.041   0.093   4.393
 6141TIP3   OH218365   6.762   2.214   1.305
 6141TIP3    H118366   6.831   2.250   1.250
 6141TIP3    H218367   6.791   2.125   1.325
 6142TIP3   OH218368   6.100   4.957   4.029
 6142TIP3    H118369   6.064   5.026   3.973
 6142TIP3    H218370   6.195   4.964   4.017
 6143TIP3   OH218371   5.410   2.166   0.658
 6143TIP3    H118372   5.317   2.187   0.669
 6143TIP3    H218373   5.415   2.123   0.572
 6144TIP3   OH218374   1.117   7.313   0.622
 6144TIP3    H118375   1.154   7.395   0.657
 6144TIP3    H218376   1.120   7.325   0.527
 6145TIP3   OH218377   7.193   7.705   4.676
 6145TIP3    H118378   7.150   7.631   4.633
 6145TIP3    H218379   7.155   7.782   4.633
 6146TIP3   OH218380   2.599   5.788   3.312
 6146TIP3    H118381   2.632   5.876   3.291
 6146TIP3    H218382   2.678   5.734   3.317
 6147TIP3   OH218383   7.640   2.575   5.952
 6147TIP3    H118384   7.587   2.550   6.027
 6147TIP3    H218385   7.718   2.521   5.958
 6148TIP3   OH218386   5.087   2.929   3.608
 6148TIP3    H118387   5.175   2.894   3.623
 6148TIP3    H218388   5.094   3.023   3.626
 6149TIP3   OH218389   6.304   0.837  -0.016
 6149TIP3    H118390   6.303   0.839   0.080
 6149TIP3    H218391   6.276   0.749  -0.039
 6150TIP3   OH218392   4.014   2.861   5.673
 6150TIP3    H118393   4.043   2.786   5.621
 6150TIP3    H218394   3.919   2.857   5.670
 6151TIP3   OH218395   0.550   7.496   4.789
 6151TIP3    H118396   0.596   7.577   4.808
 6151TIP3    H218397   0.557   7.486   4.694
 6152TIP3   OH218398   0.044   4.236   5.884
 6152TIP3    H118399   0.134   4.244   5.917
 6152TIP3    H218400  -0.010   4.238   5.963
 6153TIP3   OH218401   7.109   6.112   0.192
 6153TIP3    H118402   7.118   6.017   0.186
 6153TIP3    H218403   7.194   6.146   0.167
 6154TIP3   OH218404   3.714   1.950   5.488
 6154TIP3    H118405   3.646   1.908   5.437
 6154TIP3    H218406   3.696   2.044   5.480
 6155TIP3   OH218407   4.116   5.401   4.886
 6155TIP3    H118408   4.119   5.350   4.804
 6155TIP3    H218409   4.062   5.477   4.864
 6156TIP3   OH218410   0.844   2.523   5.644
 6156TIP3    H118411   0.897   2.502   5.566
 6156TIP3    H218412   0.879   2.466   5.712
 6157TIP3   OH218413   8.069   7.051   4.272
 6157TIP3    H118414   8.029   7.091   4.349
 6157TIP3    H218415   8.064   7.118   4.205
 6158TIP3   OH218416   5.603   3.449   0.830
 6158TIP3    H118417   5.674   3.485   0.777
 6158TIP3    H218418   5.528   3.445   0.770
 6159TIP3   OH218419   5.457   0.589   4.616
 6159TIP3    H118420   5.535   0.644   4.625
 6159TIP3    H218421   5.441   0.586   4.521
 6160TIP3   OH218422   7.744   4.427   5.855
 6160TIP3    H118423   7.798   4.499   5.822
 6160TIP3    H218424   7.807   4.362   5.886
 6161TIP3   OH218425   6.445   7.173   2.246
 6161TIP3    H118426   6.370   7.225   2.274
 6161TIP3    H218427   6.499   7.164   2.324
 6162TIP3   OH218428   2.287   6.652   5.635
 6162TIP3    H118429   2.290   6.594   5.711
 6162TIP3    H218430   2.339   6.728   5.662
 6163TIP3   OH218431   1.221   1.736   5.628
 6163TIP3    H118432   1.292   1.753   5.566
 6163TIP3    H218433   1.151   1.697   5.575
 6164TIP3   OH218434   7.458   7.343   3.116
 6164TIP3    H118435   7.413   7.423   3.088
 6164TIP3    H218436   7.399   7.272   3.090
 6165TIP3   OH218437   6.048   3.990   3.191
 6165TIP3    H118438   6.083   3.906   3.160
 6165TIP3    H218439   5.957   3.970   3.216
 6166TIP3   OH218440   5.084   0.073   6.251
 6166TIP3    H118441   5.160   0.098   6.200
 6166TIP3    H218442   5.015   0.133   6.224
 6167TIP3   OH218443   1.585   7.118   5.936
 6167TIP3    H118444   1.490   7.118   5.928
 6167TIP3    H218445   1.613   7.193   5.884
 6168TIP3   OH218446   4.487   6.965   2.756
 6168TIP3    H118447   4.543   7.036   2.787
 6168TIP3    H218448   4.410   6.969   2.812
 6169TIP3   OH218449   8.004   3.093   4.874
 6169TIP3    H118450   8.054   3.012   4.877
 6169TIP3    H218451   8.022   3.135   4.958
 6170TIP3   OH218452   4.213   6.315   5.648
 6170TIP3    H118453   4.294   6.317   5.598
 6170TIP3    H218454   4.221   6.386   5.711
 6171TIP3   OH218455   0.331   0.367   5.607
 6171TIP3    H118456   0.280   0.417   5.671
 6171TIP3    H218457   0.272   0.356   5.532
 6172TIP3   OH218458   0.683   1.672   1.918
 6172TIP3    H118459   0.692   1.704   2.008
 6172TIP3    H218460   0.594   1.638   1.914
 6173TIP3   OH218461   4.341   7.609   6.002
 6173TIP3    H118462   4.365   7.518   6.021
 6173TIP3    H218463   4.388   7.629   5.921
 6174TIP3   OH218464   4.899   3.606   3.417
 6174TIP3    H118465   4.807   3.621   3.395
 6174TIP3    H218466   4.917   3.665   3.490
 6175TIP3   OH218467   6.033   7.096   1.803
 6175TIP3    H118468   6.079   7.160   1.858
 6175TIP3    H218469   6.068   7.110   1.715
 6176TIP3   OH218470   5.483   7.236   4.644
 6176TIP3    H118471   5.519   7.149   4.629
 6176TIP3    H218472   5.396   7.233   4.603
 6177TIP3   OH218473   8.172   7.539   5.890
 6177TIP3    H118474   8.121   7.615   5.861
 6177TIP3    H218475   8.143   7.467   5.833
 6178TIP3   OH218476   7.094   3.448   1.571
 6178TIP3    H118477   7.118   3.426   1.661
 6178TIP3    H218478   7.080   3.363   1.529
 6179TIP3   OH218479   8.178   5.680   4.933
 6179TIP3    H118480   8.088   5.648   4.946
 6179TIP3    H218481   8.232   5.602   4.937
 6180TIP3   OH218482   5.575   4.805   4.050
 6180TIP3    H118483   5.625   4.799   3.969
 6180TIP3    H218484   5.577   4.717   4.086
 6181TIP3   OH218485   1.720   6.685   2.764
 6181TIP3    H118486   1.650   6.731   2.809
 6181TIP3    H218487   1.801   6.723   2.799
 6182TIP3   OH218488   7.070   6.420   3.257
 6182TIP3    H118489   7.039   6.354   3.318
 6182TIP3    H218490   7.123   6.479   3.311
 6183TIP3   OH218491   1.666   0.705   2.593
 6183TIP3    H118492   1.716   0.750   2.524
 6183TIP3    H218493   1.641   0.775   2.654
 6184TIP3   OH218494   1.103   3.229   3.277
 6184TIP3    H118495   1.124   3.298   3.214
 6184TIP3    H218496   1.117   3.269   3.362
 6185TIP3   OH218497   1.537   5.409   5.407
 6185TIP3    H118498   1.631   5.412   5.389
 6185TIP3    H218499   1.514   5.497   5.435
 6186TIP3   OH218500   4.964   2.233   4.448
 6186TIP3    H118501   4.921   2.311   4.482
 6186TIP3    H218502   4.950   2.237   4.353
 6187TIP3   OH218503   2.388   4.838   3.944
 6187TIP3    H118504   2.343   4.887   4.013
 6187TIP3    H218505   2.436   4.905   3.895
 6188TIP3   OH218506   1.419   1.485   6.722
 6188TIP3    H118507   1.502   1.449   6.690
 6188TIP3    H218508   1.402   1.559   6.665
 6189TIP3   OH218509   7.790   4.794   2.409
 6189TIP3    H118510   7.828   4.861   2.353
 6189TIP3    H218511   7.709   4.769   2.365
 6190TIP3   OH218512   0.310   0.606   5.920
 6190TIP3    H118513   0.309   0.515   5.948
 6190TIP3    H218514   0.397   0.618   5.880
 6191TIP3   OH218515   1.314   6.643   5.480
 6191TIP3    H118516   1.377   6.694   5.428
 6191TIP3    H218517   1.261   6.708   5.525
 6192TIP3   OH218518   3.880   0.026   5.196
 6192TIP3    H118519   3.923  -0.041   5.142
 6192TIP3    H218520   3.950   0.064   5.248
 6193TIP3   OH218521   0.313   4.733  -0.002
 6193TIP3    H118522   0.280   4.645  -0.020
 6193TIP3    H218523   0.343   4.729   0.089
 6194TIP3   OH218524   3.071   6.746   4.127
 6194TIP3    H118525   3.054   6.652   4.120
 6194TIP3    H218526   3.053   6.768   4.218
 6195TIP3   OH218527   1.282   4.093   4.780
 6195TIP3    H118528   1.243   4.146   4.850
 6195TIP3    H218529   1.269   4.146   4.701
 6196TIP3   OH218530   6.177   1.700   1.224
 6196TIP3    H118531   6.156   1.626   1.168
 6196TIP3    H218532   6.115   1.768   1.199
 6197TIP3   OH218533   4.153   0.221   4.609
 6197TIP3    H118534   4.225   0.262   4.656
 6197TIP3    H218535   4.123   0.289   4.548
 6198TIP3   OH218536   3.938   3.100   1.169
 6198TIP3    H118537   3.905   3.046   1.241
 6198TIP3    H218538   3.968   3.180   1.212
 6199TIP3   OH218539   4.265   3.019   6.166
 6199TIP3    H118540   4.216   3.086   6.213
 6199TIP3    H218541   4.258   2.941   6.221
 6200TIP3   OH218542   2.482   7.307   1.711
 6200TIP3    H118543   2.515   7.269   1.630
 6200TIP3    H218544   2.413   7.368   1.683
 6201TIP3   OH218545   3.262   3.807   0.589
 6201TIP3    H118546   3.338   3.753   0.611
 6201TIP3    H218547   3.297   3.870   0.525
 6202TIP3   OH218548   6.717   4.412   0.759
 6202TIP3    H118549   6.752   4.501   0.762
 6202TIP3    H218550   6.708   4.387   0.850
 6203TIP3   OH218551   6.014   2.681   3.885
 6203TIP3    H118552   6.082   2.696   3.820
 6203TIP3    H218553   6.011   2.585   3.894
 6204TIP3   OH218554   0.811   0.239   6.416
 6204TIP3    H118555   0.834   0.208   6.328
 6204TIP3    H218556   0.745   0.307   6.402
 6205TIP3   OH218557   5.390   3.861   3.956
 6205TIP3    H118558   5.395   3.780   4.007
 6205TIP3    H218559   5.307   3.854   3.909
 6206TIP3   OH218560   4.668   2.972   1.263
 6206TIP3    H118561   4.577   2.987   1.290
 6206TIP3    H218562   4.690   2.886   1.300
 6207TIP3   OH218563   0.952   7.387   1.531
 6207TIP3    H118564   0.918   7.420   1.448
 6207TIP3    H218565   0.910   7.301   1.541
 6208TIP3   OH218566   4.113   1.454   6.070
 6208TIP3    H118567   4.155   1.540   6.066
 6208TIP3    H218568   4.036   1.462   6.014
 6209TIP3   OH218569   5.780   6.747   3.875
 6209TIP3    H118570   5.813   6.764   3.786
 6209TIP3    H218571   5.721   6.672   3.865
 6210TIP3   OH218572   2.960   6.962   5.289
 6210TIP3    H118573   3.048   6.969   5.325
 6210TIP3    H218574   2.914   6.902   5.348
 6211TIP3   OH218575   4.153   6.551   3.067
 6211TIP3    H118576   4.209   6.618   3.028
 6211TIP3    H218577   4.214   6.494   3.116
 6212TIP3   OH218578   7.503   4.410   1.311
 6212TIP3    H118579   7.532   4.383   1.398
 6212TIP3    H218580   7.498   4.329   1.260
 6213TIP3   OH218581   6.632   2.801   0.078
 6213TIP3    H118582   6.708   2.832   0.128
 6213TIP3    H218583   6.597   2.880   0.036
 6214TIP3   OH218584   3.377   7.459   2.955
 6214TIP3    H118585   3.378   7.394   2.885
 6214TIP3    H218586   3.310   7.426   3.016
 6215TIP3   OH218587   7.823   4.660   1.359
 6215TIP3    H118588   7.817   4.662   1.454
 6215TIP3    H218589   7.917   4.649   1.341
 6216TIP3   OH218590   6.301   4.453   4.679
 6216TIP3    H118591   6.317   4.469   4.586
 6216TIP3    H218592   6.230   4.513   4.702
 6217TIP3   OH218593   3.267   0.928   0.257
 6217TIP3    H118594   3.243   1.019   0.275
 6217TIP3    H218595   3.224   0.877   0.325
 6218TIP3   OH218596   1.427   3.063   3.318
 6218TIP3    H118597   1.437   3.101   3.406
 6218TIP3    H218598   1.351   3.005   3.325
 6219TIP3   OH218599   8.148   1.120   1.076
 6219TIP3    H118600   8.221   1.161   1.122
 6219TIP3    H218601   8.129   1.041   1.127
 6220TIP3   OH218602   0.673   2.278   1.624
 6220TIP3    H118603   0.579   2.263   1.614
 6220TIP3    H218604   0.703   2.204   1.678
 6221TIP3   OH218605   6.745   3.594   3.254
 6221TIP3    H118606   6.687   3.532   3.212
 6221TIP3    H218607   6.833   3.559   3.239
 6222TIP3   OH218608   6.794   0.886   5.102
 6222TIP3    H118609   6.879   0.862   5.138
 6222TIP3    H218610   6.737   0.896   5.179
 6223TIP3   OH218611   7.803   0.987   6.705
 6223TIP3    H118612   7.722   0.945   6.733
 6223TIP3    H218613   7.814   1.061   6.765
 6224TIP3   OH218614   5.134   2.970   6.656
 6224TIP3    H118615   5.098   2.989   6.743
 6224TIP3    H218616   5.163   3.056   6.624
 6225TIP3   OH218617   1.519   4.384   5.965
 6225TIP3    H118618   1.486   4.401   5.876
 6225TIP3    H218619   1.537   4.291   5.966
 6226TIP3   OH218620   4.889   5.785   0.389
 6226TIP3    H118621   4.850   5.711   0.342
 6226TIP3    H218622   4.972   5.802   0.344
 6227TIP3   OH218623   6.823   0.554   3.247
 6227TIP3    H118624   6.737   0.513   3.251
 6227TIP3    H218625   6.828   0.609   3.325
 6228TIP3   OH218626   4.660   2.542   4.462
 6228TIP3    H118627   4.628   2.631   4.447
 6228TIP3    H218628   4.581   2.491   4.481
 6229TIP3   OH218629   1.995   2.338   0.528
 6229TIP3    H118630   2.057   2.351   0.456
 6229TIP3    H218631   2.004   2.246   0.552
 6230TIP3   OH218632   3.957   1.340   3.835
 6230TIP3    H118633   4.035   1.395   3.831
 6230TIP3    H218634   3.937   1.321   3.743
 6231TIP3   OH218635   8.238   0.598   2.714
 6231TIP3    H118636   8.306   0.531   2.728
 6231TIP3    H218637   8.235   0.646   2.797
 6232TIP3   OH218638   6.224   5.734   1.357
 6232TIP3    H118639   6.158   5.749   1.424
 6232TIP3    H218640   6.179   5.681   1.291
 6233TIP3   OH218641   6.229   1.836   6.053
 6233TIP3    H118642   6.178   1.913   6.031
 6233TIP3    H218643   6.236   1.839   6.149
 6234TIP3   OH218644   0.679   4.680   4.482
 6234TIP3    H118645   0.697   4.707   4.573
 6234TIP3    H218646   0.592   4.641   4.486
 6235TIP3   OH218647   0.495   0.137   4.116
 6235TIP3    H118648   0.567   0.192   4.085
 6235TIP3    H218649   0.534   0.081   4.183
 6236TIP3   OH218650   8.064   3.788   1.172
 6236TIP3    H118651   7.979   3.756   1.203
 6236TIP3    H218652   8.114   3.708   1.153
 6237TIP3   OH218653   0.003   2.803   4.616
 6237TIP3    H118654   0.034   2.737   4.678
 6237TIP3    H218655   0.049   2.783   4.534
 6238TIP3   OH218656   0.332   3.806   0.101
 6238TIP3    H118657   0.282   3.886   0.115
 6238TIP3    H218658   0.296   3.768   0.021
 6239TIP3   OH218659   6.193   1.173   2.175
 6239TIP3    H118660   6.153   1.219   2.101
 6239TIP3    H218661   6.119   1.135   2.223
 6240TIP3   OH218662   0.211   2.239   2.764
 6240TIP3    H118663   0.195   2.170   2.828
 6240TIP3    H218664   0.281   2.292   2.803
 6241TIP3   OH218665   7.540   0.765   3.140
 6241TIP3    H118666   7.629   0.772   3.105
 6241TIP3    H218667   7.483   0.793   3.069
 6242TIP3   OH218668   0.063   4.921   0.709
 6242TIP3    H118669   0.027   4.974   0.779
 6242TIP3    H218670   0.099   4.984   0.647
 6243TIP3   OH218671   5.459   2.017   2.098
 6243TIP3    H118672   5.442   1.924   2.115
 6243TIP3    H218673   5.388   2.063   2.142
 6244TIP3   OH218674   1.614   0.249   3.087
 6244TIP3    H118675   1.624   0.157   3.061
 6244TIP3    H218676   1.520   0.261   3.097
 6245TIP3   OH218677   1.712   5.006   4.362
 6245TIP3    H118678   1.750   5.057   4.291
 6245TIP3    H218679   1.722   5.062   4.439
 6246TIP3   OH218680   0.098   4.302   0.444
 6246TIP3    H118681   0.055   4.387   0.456
 6246TIP3    H218682   0.191   4.323   0.434
 6247TIP3   OH218683   7.213   0.512   5.897
 6247TIP3    H118684   7.181   0.522   5.987
 6247TIP3    H218685   7.274   0.439   5.901
 6248TIP3   OH218686   6.435   3.783   5.428
 6248TIP3    H118687   6.492   3.713   5.396
 6248TIP3    H218688   6.446   3.781   5.523
 6249TIP3   OH218689   6.972   6.473   0.903
 6249TIP3    H118690   6.917   6.540   0.942
 6249TIP3    H218691   7.017   6.517   0.831
 6250TIP3   OH218692   5.844   1.657   2.053
 6250TIP3    H118693   5.835   1.705   2.135
 6250TIP3    H218694   5.765   1.679   2.004
 6251TIP3   OH218695   0.561   5.284   3.799
 6251TIP3    H118696   0.590   5.197   3.774
 6251TIP3    H218697   0.569   5.336   3.719
 6252TIP3   OH218698   3.228   3.327   0.751
 6252TIP3    H118699   3.137   3.351   0.766
 6252TIP3    H218700   3.256   3.382   0.678
 6253TIP3   OH218701   2.939   2.098   6.007
 6253TIP3    H118702   2.862   2.152   6.024
 6253TIP3    H218703   2.928   2.020   6.060
 6254TIP3   OH218704   3.846   7.132   2.735
 6254TIP3    H118705   3.860   7.149   2.828
 6254TIP3    H218706   3.837   7.037   2.729
 6255TIP3   OH218707   1.682   4.803   4.010
 6255TIP3    H118708   1.596   4.838   4.032
 6255TIP3    H218709   1.743   4.874   4.030
 6256TIP3   OH218710   7.841   2.867   4.252
 6256TIP3    H118711   7.755   2.898   4.279
 6256TIP3    H218712   7.903   2.928   4.293
 6257TIP3   OH218713   1.038   4.296   3.827
 6257TIP3    H118714   1.066   4.314   3.917
 6257TIP3    H218715   1.057   4.203   3.815
 6258TIP3   OH218716   5.202   6.305   5.717
 6258TIP3    H118717   5.135   6.345   5.774
 6258TIP3    H218718   5.223   6.374   5.655
 6259TIP3   OH218719   6.553   6.425   3.817
 6259TIP3    H118720   6.626   6.457   3.764
 6259TIP3    H218721   6.518   6.350   3.769
 6260TIP3   OH218722   6.930   5.253   6.598
 6260TIP3    H118723   6.861   5.318   6.583
 6260TIP3    H218724   7.004   5.284   6.546
 6261TIP3   OH218725   1.864   2.214   5.968
 6261TIP3    H118726   1.949   2.221   5.924
 6261TIP3    H218727   1.824   2.300   5.956
 6262TIP3   OH218728   7.721   0.917   2.572
 6262TIP3    H118729   7.659   0.985   2.601
 6262TIP3    H218730   7.673   0.835   2.582
 6263TIP3   OH218731   0.690   0.883   1.562
 6263TIP3    H118732   0.669   0.894   1.469
 6263TIP3    H218733   0.608   0.900   1.607
 6264TIP3   OH218734   7.396   7.813   6.371
 6264TIP3    H118735   7.412   7.731   6.418
 6264TIP3    H218736   7.426   7.881   6.430
 6265TIP3   OH218737   2.129   0.052   0.210
 6265TIP3    H118738   2.076   0.047   0.290
 6265TIP3    H218739   2.066   0.069   0.140
 6266TIP3   OH218740   5.549   4.112   1.527
 6266TIP3    H118741   5.642   4.095   1.514
 6266TIP3    H218742   5.546   4.163   1.608
 6267TIP3   OH218743   2.785   4.475   0.310
 6267TIP3    H118744   2.881   4.474   0.305
 6267TIP3    H218745   2.757   4.411   0.244
 6268TIP3   OH218746   5.652   6.790   1.843
 6268TIP3    H118747   5.710   6.831   1.780
 6268TIP3    H218748   5.572   6.771   1.794
 6269TIP3   OH218749   2.697   5.091   4.031
 6269TIP3    H118750   2.756   5.017   4.045
 6269TIP3    H218751   2.700   5.140   4.114
 6270TIP3   OH218752   0.473   1.534   6.035
 6270TIP3    H118753   0.520   1.568   6.111
 6270TIP3    H218754   0.524   1.459   6.007
 6271TIP3   OH218755   7.072   4.669   3.781
 6271TIP3    H118756   7.160   4.684   3.814
 6271TIP3    H218757   7.080   4.674   3.686
 6272TIP3   OH218758   6.424   4.362   4.904
 6272TIP3    H118759   6.369   4.384   4.830
 6272TIP3    H218760   6.365   4.319   4.966
 6273TIP3   OH218761   1.476   6.923   4.781
 6273TIP3    H118762   1.444   6.888   4.697
 6273TIP3    H218763   1.448   6.858   4.846
 6274TIP3   OH218764   1.070   0.813   1.516
 6274TIP3    H118765   1.046   0.802   1.424
 6274TIP3    H218766   1.142   0.752   1.530
 6275TIP3   OH218767   2.086   3.483   1.776
 6275TIP3    H118768   2.150   3.502   1.707
 6275TIP3    H218769   2.001   3.490   1.732
 6276TIP3   OH218770   2.888   1.542   3.165
 6276TIP3    H118771   2.870   1.508   3.077
 6276TIP3    H218772   2.983   1.533   3.176
 6277TIP3   OH218773   7.451   1.242   0.997
 6277TIP3    H118774   7.517   1.289   1.047
 6277TIP3    H218775   7.498   1.210   0.920
 6278TIP3   OH218776   2.486   5.005   3.014
 6278TIP3    H118777   2.499   4.928   2.959
 6278TIP3    H218778   2.447   4.971   3.094
 6279TIP3   OH218779   2.084   5.483   1.394
 6279TIP3    H118780   2.034   5.409   1.429
 6279TIP3    H218781   2.156   5.442   1.346
 6280TIP3   OH218782   2.703   5.118   4.292
 6280TIP3    H118783   2.666   5.049   4.346
 6280TIP3    H218784   2.782   5.145   4.338
 6281TIP3   OH218785   5.859   2.960   1.419
 6281TIP3    H118786   5.953   2.975   1.422
 6281TIP3    H218787   5.824   3.013   1.492
 6282TIP3   OH218788   4.672   7.384   6.682
 6282TIP3    H118789   4.716   7.457   6.725
 6282TIP3    H218790   4.738   7.315   6.678
 6283TIP3   OH218791   2.912   1.357   1.892
 6283TIP3    H118792   2.954   1.326   1.811
 6283TIP3    H218793   2.819   1.354   1.873
 6284TIP3   OH218794   3.779   7.018   3.309
 6284TIP3    H118795   3.772   6.978   3.396
 6284TIP3    H218796   3.772   6.944   3.249
 6285TIP3   OH218797   4.620   2.749   5.620
 6285TIP3    H118798   4.631   2.837   5.583
 6285TIP3    H218799   4.654   2.690   5.552
 6286TIP3   OH218800   5.376   0.799   2.802
 6286TIP3    H118801   5.470   0.817   2.796
 6286TIP3    H218802   5.349   0.840   2.884
 6287TIP3   OH218803   1.201   6.160   1.305
 6287TIP3    H118804   1.115   6.127   1.333
 6287TIP3    H218805   1.263   6.115   1.362
 6288TIP3   OH218806   3.799   6.402   0.237
 6288TIP3    H118807   3.789   6.497   0.244
 6288TIP3    H218808   3.817   6.373   0.327
 6289TIP3   OH218809   5.448   1.418   1.550
 6289TIP3    H118810   5.541   1.395   1.543
 6289TIP3    H218811   5.443   1.508   1.517
 6290TIP3   OH218812   0.387   7.070   4.323
 6290TIP3    H118813   0.400   7.083   4.417
 6290TIP3    H218814   0.298   7.034   4.316
 6291TIP3   OH218815   3.379   7.386   4.764
 6291TIP3    H118816   3.291   7.422   4.770
 6291TIP3    H218817   3.385   7.350   4.676
 6292TIP3   OH218818   7.424   1.423   3.573
 6292TIP3    H118819   7.468   1.360   3.631
 6292TIP3    H218820   7.493   1.483   3.546
 6293TIP3   OH218821   1.313   2.339   6.081
 6293TIP3    H118822   1.296   2.289   6.001
 6293TIP3    H218823   1.400   2.378   6.067
 6294TIP3   OH218824   4.736   2.726   2.183
 6294TIP3    H118825   4.676   2.703   2.254
 6294TIP3    H218826   4.746   2.821   2.191
 6295TIP3   OH218827   0.669   1.264   6.107
 6295TIP3    H118828   0.754   1.307   6.110
 6295TIP3    H218829   0.659   1.224   6.194
 6296TIP3   OH218830   5.324   1.448   3.676
 6296TIP3    H118831   5.255   1.484   3.621
 6296TIP3    H218832   5.283   1.373   3.719
 6297TIP3   OH218833   6.604   5.817   4.623
 6297TIP3    H118834   6.514   5.783   4.623
 6297TIP3    H218835   6.597   5.901   4.668
 6298TIP3   OH218836   3.526   1.138   1.742
 6298TIP3    H118837   3.606   1.186   1.720
 6298TIP3    H218838   3.475   1.200   1.795
 6299TIP3   OH218839   3.916   1.031   4.693
 6299TIP3    H118840   3.949   1.121   4.688
 6299TIP3    H218841   3.952   0.997   4.775
 6300TIP3   OH218842   2.137   6.452   1.108
 6300TIP3    H118843   2.166   6.377   1.161
 6300TIP3    H218844   2.083   6.413   1.039
 6301TIP3   OH218845   3.489   6.630   0.254
 6301TIP3    H118846   3.552   6.652   0.323
 6301TIP3    H218847   3.484   6.708   0.200
 6302TIP3   OH218848   5.576   2.000   5.518
 6302TIP3    H118849   5.502   1.981   5.461
 6302TIP3    H218850   5.646   1.943   5.486
 6303TIP3   OH218851   1.385   0.478   4.699
 6303TIP3    H118852   1.455   0.418   4.674
 6303TIP3    H218853   1.409   0.561   4.659
 6304TIP3   OH218854   0.691   1.115   5.335
 6304TIP3    H118855   0.650   1.157   5.259
 6304TIP3    H218856   0.778   1.091   5.305
 6305TIP3   OH218857   4.499   4.800   1.516
 6305TIP3    H118858   4.516   4.868   1.581
 6305TIP3    H218859   4.530   4.836   1.434
 6306TIP3   OH218860   4.789   6.589   4.343
 6306TIP3    H118861   4.833   6.554   4.266
 6306TIP3    H218862   4.712   6.532   4.354
 6307TIP3   OH218863   0.649   3.211   5.885
 6307TIP3    H118864   0.639   3.159   5.964
 6307TIP3    H218865   0.657   3.147   5.814
 6308TIP3   OH218866   0.881   1.639   1.003
 6308TIP3    H118867   0.785   1.642   0.997
 6308TIP3    H218868   0.904   1.721   1.048
 6309TIP3   OH218869   3.678   2.658   5.078
 6309TIP3    H118870   3.639   2.743   5.059
 6309TIP3    H218871   3.712   2.627   4.994
 6310TIP3   OH218872   4.946   7.239   6.116
 6310TIP3    H118873   4.981   7.328   6.118
 6310TIP3    H218874   5.011   7.189   6.066
 6311TIP3   OH218875   3.657   7.075   6.467
 6311TIP3    H118876   3.691   7.024   6.394
 6311TIP3    H218877   3.563   7.082   6.450
 6312TIP3   OH218878   0.020   4.476   2.616
 6312TIP3    H118879   0.043   4.561   2.578
 6312TIP3    H218880   0.100   4.425   2.610
 6313TIP3   OH218881   5.539   3.113   4.207
 6313TIP3    H118882   5.611   3.145   4.152
 6313TIP3    H218883   5.523   3.185   4.268
 6314TIP3   OH218884   0.278   3.862   5.372
 6314TIP3    H118885   0.293   3.768   5.361
 6314TIP3    H218886   0.274   3.874   5.467
 6315TIP3   OH218887   3.429   3.871   3.842
 6315TIP3    H118888   3.402   3.870   3.933
 6315TIP3    H218889   3.353   3.838   3.794
 6316TIP3   OH218890   6.290   2.931   1.826
 6316TIP3    H118891   6.322   2.890   1.746
 6316TIP3    H218892   6.253   2.859   1.877
 6317TIP3   OH218893   0.568   3.475   6.628
 6317TIP3    H118894   0.584   3.560   6.670
 6317TIP3    H218895   0.567   3.412   6.700
 6318TIP3   OH218896   5.706   2.990   6.770
 6318TIP3    H118897   5.618   2.957   6.786
 6318TIP3    H218898   5.700   3.030   6.683
 6319TIP3   OH218899   1.261   5.276   4.074
 6319TIP3    H118900   1.305   5.191   4.078
 6319TIP3    H218901   1.256   5.295   3.980
 6320TIP3   OH218902   6.885   5.064   3.705
 6320TIP3    H118903   6.866   5.119   3.629
 6320TIP3    H218904   6.815   4.999   3.705
 6321TIP3   OH218905   3.044   0.368   1.049
 6321TIP3    H118906   2.955   0.348   1.019
 6321TIP3    H218907   3.056   0.313   1.126
 6322TIP3   OH218908   7.191   6.915   6.099
 6322TIP3    H118909   7.193   6.982   6.032
 6322TIP3    H218910   7.151   6.958   6.175
 6323TIP3   OH218911   5.627   4.936   1.096
 6323TIP3    H118912   5.600   4.854   1.136
 6323TIP3    H218913   5.614   4.923   1.002
 6324TIP3   OH218914   3.891   4.902   3.910
 6324TIP3    H118915   3.921   4.920   4.000
 6324TIP3    H218916   3.927   4.974   3.858
 6325TIP3   OH218917   6.359   6.434   1.395
 6325TIP3    H118918   6.328   6.363   1.451
 6325TIP3    H218919   6.445   6.457   1.431
 6326TIP3   OH218920   8.104   5.581   4.612
 6326TIP3    H118921   8.015   5.590   4.646
 6326TIP3    H218922   8.126   5.668   4.578
 6327TIP3   OH218923   7.449   0.067   1.601
 6327TIP3    H118924   7.471   0.051   1.509
 6327TIP3    H218925   7.479  -0.012   1.647
 6328TIP3   OH218926   3.479   2.809   1.735
 6328TIP3    H118927   3.462   2.715   1.730
 6328TIP3    H218928   3.473   2.840   1.645
 6329TIP3   OH218929   3.460   2.063   5.060
 6329TIP3    H118930   3.490   2.072   4.969
 6329TIP3    H218931   3.406   1.984   5.059
 6330TIP3   OH218932   1.909   3.483   4.823
 6330TIP3    H118933   1.900   3.575   4.797
 6330TIP3    H218934   1.880   3.482   4.914
 6331TIP3   OH218935   6.890   2.136   5.445
 6331TIP3    H118936   6.911   2.076   5.517
 6331TIP3    H218937   6.804   2.107   5.415
 6332TIP3   OH218938   1.190   7.367   2.859
 6332TIP3    H118939   1.095   7.360   2.857
 6332TIP3    H218940   1.218   7.307   2.928
 6333TIP3   OH218941   5.700   2.452   5.931
 6333TIP3    H118942   5.621   2.443   5.984
 6333TIP3    H218943   5.675   2.510   5.860
 6334TIP3   OH218944   2.656   1.125   2.613
 6334TIP3    H118945   2.718   1.105   2.543
 6334TIP3    H218946   2.584   1.171   2.569
 6335TIP3   OH218947   6.348   0.761   1.400
 6335TIP3    H118948   6.328   0.698   1.470
 6335TIP3    H218949   6.351   0.708   1.321
 6336TIP3   OH218950   4.187   7.217   0.062
 6336TIP3    H118951   4.251   7.148   0.042
 6336TIP3    H218952   4.204   7.286  -0.002
 6337TIP3   OH218953   1.316   5.123   3.630
 6337TIP3    H118954   1.308   5.055   3.562
 6337TIP3    H218955   1.230   5.164   3.633
 6338TIP3   OH218956   2.425   6.968   3.003
 6338TIP3    H118957   2.367   6.937   3.073
 6338TIP3    H218958   2.392   6.928   2.923
 6339TIP3   OH218959   5.157   3.570   5.475
 6339TIP3    H118960   5.121   3.505   5.535
 6339TIP3    H218961   5.081   3.618   5.443
 6340TIP3   OH218962   6.053   1.840   5.687
 6340TIP3    H118963   6.148   1.849   5.689
 6340TIP3    H218964   6.026   1.899   5.616
 6341TIP3   OH218965   2.657   2.052   5.655
 6341TIP3    H118966   2.562   2.061   5.656
 6341TIP3    H218967   2.677   2.008   5.738
 6342TIP3   OH218968   4.279   7.309   4.436
 6342TIP3    H118969   4.217   7.293   4.507
 6342TIP3    H218970   4.334   7.380   4.467
 6343TIP3   OH218971   0.770   3.742   2.096
 6343TIP3    H118972   0.773   3.689   2.016
 6343TIP3    H218973   0.773   3.678   2.167
 6344TIP3   OH218974   0.630   5.966   3.503
 6344TIP3    H118975   0.620   5.915   3.422
 6344TIP3    H218976   0.590   6.051   3.483
 6345TIP3   OH218977   4.853   6.100   4.378
 6345TIP3    H118978   4.867   6.153   4.456
 6345TIP3    H218979   4.886   6.153   4.306
 6346TIP3   OH218980   1.884   3.608   3.308
 6346TIP3    H118981   1.810   3.586   3.365
 6346TIP3    H218982   1.961   3.580   3.358
 6347TIP3   OH218983   7.417   5.405   1.323
 6347TIP3    H118984   7.322   5.416   1.319
 6347TIP3    H218985   7.431   5.327   1.376
 6348TIP3   OH218986   7.799   1.898   3.885
 6348TIP3    H118987   7.846   1.935   3.960
 6348TIP3    H218988   7.742   1.831   3.923
 6349TIP3   OH218989   6.668   6.757   6.381
 6349TIP3    H118990   6.625   6.790   6.302
 6349TIP3    H218991   6.599   6.710   6.428
 6350TIP3   OH218992   3.095   0.823   6.410
 6350TIP3    H118993   3.041   0.891   6.450
 6350TIP3    H218994   3.139   0.781   6.484
 6351TIP3   OH218995   8.007   7.193   0.630
 6351TIP3    H118996   7.937   7.174   0.568
 6351TIP3    H218997   8.023   7.287   0.621
 6352TIP3   OH218998   0.223   6.915   3.638
 6352TIP3    H118999   0.226   6.993   3.581
 6352TIP3    H219000   0.315   6.900   3.662
 6353TIP3   OH219001   2.106   0.707   0.440
 6353TIP3    H119002   2.099   0.642   0.510
 6353TIP3    H219003   2.016   0.721   0.411
 6354TIP3   OH219004   2.475   2.888   6.265
 6354TIP3    H119005   2.450   2.959   6.324
 6354TIP3    H219006   2.570   2.886   6.269
 6355TIP3   OH219007   1.772   7.700   5.495
 6355TIP3    H119008   1.838   7.768   5.485
 6355TIP3    H219009   1.818   7.630   5.543
 6356TIP3   OH219010   3.579   2.485   2.914
 6356TIP3    H119011   3.666   2.474   2.952
 6356TIP3    H219012   3.593   2.478   2.820
 6357TIP3   OH219013   0.668   1.569   1.217
 6357TIP3    H119014   0.607   1.622   1.167
 6357TIP3    H219015   0.724   1.632   1.262
 6358TIP3   OH219016   8.086   0.091   2.254
 6358TIP3    H119017   8.170   0.102   2.209
 6358TIP3    H219018   8.108   0.092   2.347
 6359TIP3   OH219019   4.591   1.348   3.592
 6359TIP3    H119020   4.541   1.428   3.577
 6359TIP3    H219021   4.549   1.283   3.536
 6360TIP3   OH219022   5.997   1.986   5.445
 6360TIP3    H119023   6.086   1.994   5.409
 6360TIP3    H219024   5.946   1.949   5.373
 6361TIP3   OH219025   6.644   3.218   0.396
 6361TIP3    H119026   6.582   3.287   0.419
 6361TIP3    H219027   6.704   3.260   0.334
 6362TIP3   OH219028   4.596   3.525   2.772
 6362TIP3    H119029   4.691   3.537   2.773
 6362TIP3    H219030   4.584   3.434   2.799
 6363TIP3   OH219031   5.061   1.861   3.143
 6363TIP3    H119032   5.053   1.926   3.214
 6363TIP3    H219033   5.125   1.899   3.083
 6364TIP3   OH219034   4.692   0.673   5.386
 6364TIP3    H119035   4.695   0.716   5.471
 6364TIP3    H219036   4.699   0.580   5.405
 6365TIP3   OH219037   1.046   3.592   2.107
 6365TIP3    H119038   0.981   3.575   2.174
 6365TIP3    H219039   1.009   3.556   2.027
 6366TIP3   OH219040   2.792   4.332   4.473
 6366TIP3    H119041   2.859   4.295   4.415
 6366TIP3    H219042   2.737   4.258   4.498
 6367TIP3   OH219043   1.974   0.662   2.308
 6367TIP3    H119044   1.966   0.577   2.352
 6367TIP3    H219045   2.064   0.689   2.324
 6368TIP3   OH219046   4.177   1.512   4.659
 6368TIP3    H119047   4.267   1.506   4.689
 6368TIP3    H219048   4.180   1.572   4.585
 6369TIP3   OH219049   1.905   6.343   5.394
 6369TIP3    H119050   1.972   6.337   5.326
 6369TIP3    H219051   1.844   6.409   5.361
 6370TIP3   OH219052   3.850   5.136   3.455
 6370TIP3    H119053   3.912   5.083   3.504
 6370TIP3    H219054   3.882   5.225   3.464
 6371TIP3   OH219055   2.927   5.643   3.335
 6371TIP3    H119056   2.890   5.563   3.297
 6371TIP3    H219057   2.953   5.696   3.259
 6372TIP3   OH219058   8.219   0.125   2.515
 6372TIP3    H119059   8.267   0.207   2.528
 6372TIP3    H219060   8.247   0.069   2.587
 6373TIP3   OH219061   6.858   4.212   4.053
 6373TIP3    H119062   6.822   4.129   4.019
 6373TIP3    H219063   6.886   4.260   3.975
 6374TIP3   OH219064   7.230   0.475   4.033
 6374TIP3    H119065   7.297   0.432   4.086
 6374TIP3    H219066   7.265   0.564   4.019
 6375TIP3   OH219067   4.129   0.310   3.012
 6375TIP3    H119068   4.099   0.220   3.001
 6375TIP3    H219069   4.178   0.309   3.094
 6376TIP3   OH219070   0.558   6.806   1.655
 6376TIP3    H119071   0.651   6.801   1.632
 6376TIP3    H219072   0.534   6.897   1.638
 6377TIP3   OH219073   6.112   0.674   5.253
 6377TIP3    H119074   6.091   0.650   5.344
 6377TIP3    H219075   6.207   0.661   5.246
 6378TIP3   OH219076   4.909   7.654   3.106
 6378TIP3    H119077   4.991   7.700   3.120
 6378TIP3    H219078   4.842   7.714   3.139
 6379TIP3   OH219079   0.965   4.883   6.596
 6379TIP3    H119080   0.925   4.948   6.537
 6379TIP3    H219081   0.892   4.851   6.649
 6380TIP3   OH219082   4.633   5.192   5.740
 6380TIP3    H119083   4.708   5.207   5.798
 6380TIP3    H219084   4.582   5.272   5.745
 6381TIP3   OH219085   6.534   1.561   3.924
 6381TIP3    H119086   6.442   1.585   3.936
 6381TIP3    H219087   6.531   1.468   3.902
 6382TIP3   OH219088   5.053   2.018   4.609
 6382TIP3    H119089   5.024   2.109   4.616
 6382TIP3    H219090   5.134   2.022   4.559
 6383TIP3   OH219091   0.965   2.102   3.241
 6383TIP3    H119092   0.976   2.168   3.173
 6383TIP3    H219093   0.948   2.151   3.321
 6384TIP3   OH219094   0.403   2.330   0.204
 6384TIP3    H119095   0.489   2.307   0.169
 6384TIP3    H219096   0.378   2.256   0.258
 6385TIP3   OH219097   0.665   4.921   2.006
 6385TIP3    H119098   0.698   4.834   1.984
 6385TIP3    H219099   0.739   4.965   2.049
 6386TIP3   OH219100   7.056   1.670   2.536
 6386TIP3    H119101   7.141   1.709   2.557
 6386TIP3    H219102   6.995   1.710   2.599
 6387TIP3   OH219103   6.208   2.710   3.674
 6387TIP3    H119104   6.254   2.628   3.688
 6387TIP3    H219105   6.213   2.726   3.579
 6388TIP3   OH219106   7.447   7.627   4.505
 6388TIP3    H119107   7.475   7.717   4.520
 6388TIP3    H219108   7.522   7.574   4.534
 6389TIP3   OH219109   3.647   5.221   1.949
 6389TIP3    H119110   3.571   5.253   1.900
 6389TIP3    H219111   3.679   5.147   1.898
 6390TIP3   OH219112   0.467   2.176   4.353
 6390TIP3    H119113   0.377   2.209   4.347
 6390TIP3    H219114   0.507   2.203   4.270
 6391TIP3   OH219115   7.601   0.338   2.737
 6391TIP3    H119116   7.596   0.245   2.759
 6391TIP3    H219117   7.544   0.381   2.801
 6392TIP3   OH219118   1.929   3.207   1.668
 6392TIP3    H119119   2.006   3.194   1.613
 6392TIP3    H219120   1.964   3.226   1.755
 6393TIP3   OH219121   1.200   5.829   3.604
 6393TIP3    H119122   1.268   5.792   3.548
 6393TIP3    H219123   1.199   5.772   3.681
 6394TIP3   OH219124   1.486   1.136   2.860
 6394TIP3    H119125   1.525   1.072   2.920
 6394TIP3    H219126   1.405   1.094   2.830
 6395TIP3   OH219127   5.531   5.915   1.996
 6395TIP3    H119128   5.592   5.842   2.005
 6395TIP3    H219129   5.526   5.930   1.901
 6396TIP3   OH219130   7.229   2.074   5.852
 6396TIP3    H119131   7.294   2.137   5.823
 6396TIP3    H219132   7.256   2.051   5.941
 6397TIP3   OH219133   6.259   1.389   4.437
 6397TIP3    H119134   6.171   1.365   4.406
 6397TIP3    H219135   6.270   1.480   4.410
 6398TIP3   OH219136   3.047   7.069   0.912
 6398TIP3    H119137   3.131   7.057   0.956
 6398TIP3    H219138   3.008   7.145   0.955
 6399TIP3   OH219139   0.958   7.651   0.976
 6399TIP3    H119140   0.872   7.611   0.989
 6399TIP3    H219141   0.967   7.657   0.880
 6400TIP3   OH219142   6.577   3.577   0.868
 6400TIP3    H119143   6.640   3.645   0.890
 6400TIP3    H219144   6.597   3.505   0.927
 6401TIP3   OH219145   5.298   4.035   2.538
 6401TIP3    H119146   5.275   3.955   2.492
 6401TIP3    H219147   5.319   4.007   2.627
 6402TIP3   OH219148   0.985   6.139   3.680
 6402TIP3    H119149   0.958   6.064   3.626
 6402TIP3    H219150   0.965   6.112   3.770
 6403TIP3   OH219151   1.502   0.864   6.251
 6403TIP3    H119152   1.538   0.815   6.178
 6403TIP3    H219153   1.430   0.811   6.283
 6404TIP3   OH219154   5.072   1.341   4.436
 6404TIP3    H119155   5.047   1.331   4.528
 6404TIP3    H219156   5.101   1.432   4.429
 6405TIP3   OH219157   7.555   6.995   3.333
 6405TIP3    H119158   7.540   6.900   3.328
 6405TIP3    H219159   7.487   7.027   3.391
 6406TIP3   OH219160   5.777   5.208   2.720
 6406TIP3    H119161   5.750   5.152   2.648
 6406TIP3    H219162   5.870   5.190   2.730
 6407TIP3   OH219163   1.952   2.581   4.283
 6407TIP3    H119164   2.009   2.588   4.206
 6407TIP3    H219165   1.906   2.498   4.272
 6408TIP3   OH219166   6.497   6.226   5.421
 6408TIP3    H119167   6.401   6.224   5.424
 6408TIP3    H219168   6.522   6.136   5.400
 6409TIP3   OH219169   0.488   1.989   4.865
 6409TIP3    H119170   0.457   2.030   4.784
 6409TIP3    H219171   0.482   1.895   4.848
 6410TIP3   OH219172   0.221   7.658   0.576
 6410TIP3    H119173   0.164   7.629   0.505
 6410TIP3    H219174   0.222   7.586   0.638
 6411TIP3   OH219175   4.989   0.894   1.041
 6411TIP3    H119176   4.994   0.801   1.060
 6411TIP3    H219177   4.967   0.899   0.948
 6412TIP3   OH219178   0.655   0.992   3.675
 6412TIP3    H119179   0.595   0.976   3.603
 6412TIP3    H219180   0.722   0.924   3.666
 6413TIP3   OH219181   4.206   5.839   0.999
 6413TIP3    H119182   4.240   5.923   1.029
 6413TIP3    H219183   4.283   5.783   0.992
 6414TIP3   OH219184   4.242   6.971   4.696
 6414TIP3    H119185   4.231   6.946   4.787
 6414TIP3    H219186   4.264   6.889   4.651
 6415TIP3   OH219187   4.817   4.153   2.808
 6415TIP3    H119188   4.885   4.096   2.772
 6415TIP3    H219189   4.769   4.097   2.869
 6416TIP3   OH219190   1.136   4.588   0.593
 6416TIP3    H119191   1.042   4.605   0.587
 6416TIP3    H219192   1.149   4.509   0.540
 6417TIP3   OH219193   3.635   6.605   2.891
 6417TIP3    H119194   3.601   6.686   2.929
 6417TIP3    H219195   3.717   6.589   2.937
 6418TIP3   OH219196   3.356   7.496   1.583
 6418TIP3    H119197   3.292   7.428   1.606
 6418TIP3    H219198   3.402   7.461   1.507
 6419TIP3   OH219199   0.593   2.493   0.501
 6419TIP3    H119200   0.502   2.494   0.531
 6419TIP3    H219201   0.607   2.404   0.468
 6420TIP3   OH219202   2.406   0.227   2.691
 6420TIP3    H119203   2.360   0.181   2.761
 6420TIP3    H219204   2.485   0.175   2.675
 6421TIP3   OH219205   1.683   3.619   0.151
 6421TIP3    H119206   1.744   3.560   0.196
 6421TIP3    H219207   1.717   3.624   0.061
 6422TIP3   OH219208   4.668   3.228   0.645
 6422TIP3    H119209   4.706   3.285   0.711
 6422TIP3    H219210   4.595   3.278   0.609
 6423TIP3   OH219211   6.107   7.385   3.298
 6423TIP3    H119212   6.057   7.312   3.335
 6423TIP3    H219213   6.159   7.418   3.372
 6424TIP3   OH219214   2.949   2.235   1.624
 6424TIP3    H119215   2.915   2.153   1.588
 6424TIP3    H219216   2.909   2.242   1.711
 6425TIP3   OH219217   0.075   1.793   0.113
 6425TIP3    H119218   0.152   1.771   0.060
 6425TIP3    H219219   0.001   1.760   0.062
 6426TIP3   OH219220   0.021   5.728   1.878
 6426TIP3    H119221   0.083   5.686   1.818
 6426TIP3    H219222  -0.047   5.763   1.821
 6427TIP3   OH219223   3.209   6.931   2.215
 6427TIP3    H119224   3.137   6.973   2.261
 6427TIP3    H219225   3.167   6.874   2.151
 6428TIP3   OH219226   1.473   0.292   5.359
 6428TIP3    H119227   1.521   0.261   5.435
 6428TIP3    H219228   1.465   0.215   5.303
 6429TIP3   OH219229   7.111   0.737   5.548
 6429TIP3    H119230   7.130   0.723   5.641
 6429TIP3    H219231   7.194   0.721   5.503
 6430TIP3   OH219232   1.811   3.235   4.515
 6430TIP3    H119233   1.765   3.186   4.447
 6430TIP3    H219234   1.752   3.235   4.590
 6431TIP3   OH219235   7.293   2.779   4.885
 6431TIP3    H119236   7.374   2.752   4.927
 6431TIP3    H219237   7.320   2.841   4.817
 6432TIP3   OH219238   3.147   2.186   4.783
 6432TIP3    H119239   3.233   2.214   4.750
 6432TIP3    H219240   3.085   2.246   4.742
 6433TIP3   OH219241   2.381   5.949   1.542
 6433TIP3    H119242   2.471   5.973   1.566
 6433TIP3    H219243   2.328   5.980   1.615
 6434TIP3   OH219244   4.159   1.187   4.160
 6434TIP3    H119245   4.245   1.208   4.124
 6434TIP3    H219246   4.153   1.092   4.155
 6435TIP3   OH219247   1.297   5.694   4.247
 6435TIP3    H119248   1.321   5.754   4.177
 6435TIP3    H219249   1.293   5.749   4.326
 6436TIP3   OH219250   5.409   4.340   4.223
 6436TIP3    H119251   5.478   4.295   4.175
 6436TIP3    H219252   5.393   4.419   4.172
 6437TIP3   OH219253   3.202   5.964   5.938
 6437TIP3    H119254   3.296   5.958   5.921
 6437TIP3    H219255   3.180   5.879   5.977
 6438TIP3   OH219256   6.443   6.169   3.696
 6438TIP3    H119257   6.485   6.087   3.722
 6438TIP3    H219258   6.351   6.157   3.718
 6439TIP3   OH219259   3.690   0.029   4.656
 6439TIP3    H119260   3.777   0.041   4.694
 6439TIP3    H219261   3.677  -0.066   4.655
 6440TIP3   OH219262   6.015   1.080   1.155
 6440TIP3    H119263   5.938   1.024   1.166
 6440TIP3    H219264   6.083   1.037   1.206
 6441TIP3   OH219265   2.608   0.409   3.570
 6441TIP3    H119266   2.527   0.363   3.591
 6441TIP3    H219267   2.642   0.363   3.493
 6442TIP3   OH219268   5.619   1.948   0.363
 6442TIP3    H119269   5.607   2.042   0.371
 6442TIP3    H219270   5.713   1.937   0.347
 6443TIP3   OH219271   2.209   7.058   6.128
 6443TIP3    H119272   2.227   6.986   6.066
 6443TIP3    H219273   2.285   7.115   6.121
 6444TIP3   OH219274   7.860   1.836   5.270
 6444TIP3    H119275   7.787   1.781   5.300
 6444TIP3    H219276   7.934   1.777   5.264
 6445TIP3   OH219277   1.737   5.768   3.562
 6445TIP3    H119278   1.813   5.826   3.549
 6445TIP3    H219279   1.710   5.744   3.474
 6446TIP3   OH219280   1.584   2.345   5.765
 6446TIP3    H119281   1.623   2.367   5.680
 6446TIP3    H219282   1.659   2.337   5.824
 6447TIP3   OH219283   4.190   0.182   5.782
 6447TIP3    H119284   4.276   0.171   5.740
 6447TIP3    H219285   4.147   0.098   5.769
 6448TIP3   OH219286   3.245   1.849   0.189
 6448TIP3    H119287   3.311   1.838   0.256
 6448TIP3    H219288   3.212   1.761   0.172
 6449TIP3   OH219289   1.338   4.730   0.395
 6449TIP3    H119290   1.340   4.814   0.441
 6449TIP3    H219291   1.375   4.668   0.457
 6450TIP3   OH219292   1.246   5.740   2.073
 6450TIP3    H119293   1.226   5.673   2.139
 6450TIP3    H219294   1.284   5.812   2.123
 6451TIP3   OH219295   2.497   7.056   0.537
 6451TIP3    H119296   2.492   7.004   0.456
 6451TIP3    H219297   2.409   7.052   0.574
 6452TIP3   OH219298   1.509   2.207   1.010
 6452TIP3    H119299   1.538   2.200   0.920
 6452TIP3    H219300   1.501   2.116   1.040
 6453TIP3   OH219301   7.755   1.762   3.178
 6453TIP3    H119302   7.777   1.720   3.095
 6453TIP3    H219303   7.839   1.789   3.214
 6454TIP3   OH219304   7.624   4.564   1.695
 6454TIP3    H119305   7.701   4.615   1.670
 6454TIP3    H219306   7.564   4.628   1.733
 6455TIP3   OH219307   1.934   5.357   6.428
 6455TIP3    H119308   2.020   5.382   6.463
 6455TIP3    H219309   1.952   5.279   6.375
 6456TIP3   OH219310   4.291   5.119   1.585
 6456TIP3    H119311   4.245   5.198   1.612
 6456TIP3    H219312   4.330   5.142   1.500
 6457TIP3   OH219313   3.762   5.363   1.360
 6457TIP3    H119314   3.813   5.444   1.361
 6457TIP3    H219315   3.828   5.294   1.369
 6458TIP3   OH219316   2.086   0.766   4.825
 6458TIP3    H119317   2.063   0.859   4.824
 6458TIP3    H219318   2.013   0.722   4.782
 6459TIP3   OH219319   0.801   3.559   5.712
 6459TIP3    H119320   0.871   3.624   5.713
 6459TIP3    H219321   0.827   3.494   5.777
 6460TIP3   OH219322   3.762   0.668   4.466
 6460TIP3    H119323   3.739   0.675   4.373
 6460TIP3    H219324   3.828   0.736   4.479
 6461TIP3   OH219325   5.996   3.855   2.102
 6461TIP3    H119326   5.964   3.848   2.012
 6461TIP3    H219327   6.007   3.949   2.117
 6462TIP3   OH219328   4.019   4.295   1.041
 6462TIP3    H119329   4.097   4.332   1.083
 6462TIP3    H219330   3.946   4.330   1.092
 6463TIP3   OH219331   6.519   4.866   5.072
 6463TIP3    H119332   6.497   4.846   4.981
 6463TIP3    H219333   6.454   4.817   5.123
 6464TIP3   OH219334   5.327   5.916   1.020
 6464TIP3    H119335   5.255   5.978   1.013
 6464TIP3    H219336   5.341   5.884   0.931
 6465TIP3   OH219337   7.649   6.734   1.552
 6465TIP3    H119338   7.713   6.732   1.623
 6465TIP3    H219339   7.701   6.747   1.473
 6466TIP3   OH219340   2.454   0.076   3.242
 6466TIP3    H119341   2.378   0.027   3.212
 6466TIP3    H219342   2.515   0.008   3.272
 6467TIP3   OH219343   6.601   7.713   1.865
 6467TIP3    H119344   6.563   7.629   1.838
 6467TIP3    H219345   6.640   7.748   1.785
 6468TIP3   OH219346   4.957   1.341   6.012
 6468TIP3    H119347   5.012   1.314   6.085
 6468TIP3    H219348   4.870   1.352   6.050
 6469TIP3   OH219349   5.075   7.481   6.063
 6469TIP3    H119350   5.134   7.500   5.990
 6469TIP3    H219351   5.032   7.565   6.082
 6470TIP3   OH219352   4.445   6.945   6.565
 6470TIP3    H119353   4.468   6.859   6.600
 6470TIP3    H219354   4.444   7.003   6.641
 6471TIP3   OH219355   6.059   5.483   6.392
 6471TIP3    H119356   6.034   5.533   6.314
 6471TIP3    H219357   5.999   5.514   6.461
 6472TIP3   OH219358   3.686   0.427   1.750
 6472TIP3    H119359   3.621   0.492   1.723
 6472TIP3    H219360   3.693   0.368   1.675
 6473TIP3   OH219361   1.468   2.887   5.542
 6473TIP3    H119362   1.483   2.858   5.452
 6473TIP3    H219363   1.373   2.884   5.552
 6474TIP3   OH219364   4.955   3.233   1.784
 6474TIP3    H119365   4.890   3.244   1.853
 6474TIP3    H219366   4.984   3.323   1.765
 6475TIP3   OH219367   4.852   0.766   5.169
 6475TIP3    H119368   4.787   0.751   5.100
 6475TIP3    H219369   4.802   0.759   5.251
 6476TIP3   OH219370   2.579   0.993   6.446
 6476TIP3    H119371   2.556   1.033   6.529
 6476TIP3    H219372   2.509   1.019   6.386
 6477TIP3   OH219373   5.921   4.956   1.099
 6477TIP3    H119374   5.849   4.901   1.130
 6477TIP3    H219375   5.902   4.972   1.007
 6478TIP3   OH219376   2.884   1.552   5.350
 6478TIP3    H119377   2.925   1.466   5.338
 6478TIP3    H219378   2.790   1.533   5.358
 6479TIP3   OH219379   8.031   6.710   2.808
 6479TIP3    H119380   8.019   6.766   2.731
 6479TIP3    H219381   8.096   6.645   2.780
 6480TIP3   OH219382   5.532   5.790   1.120
 6480TIP3    H119383   5.560   5.757   1.034
 6480TIP3    H219384   5.463   5.853   1.100
 6481TIP3   OH219385   2.670   2.816   5.469
 6481TIP3    H119386   2.696   2.731   5.503
 6481TIP3    H219387   2.732   2.833   5.398
 6482TIP3   OH219388   3.521   0.406   5.825
 6482TIP3    H119389   3.562   0.336   5.774
 6482TIP3    H219390   3.573   0.484   5.806
 6483TIP3   OH219391   3.674   6.321   0.824
 6483TIP3    H119392   3.674   6.279   0.738
 6483TIP3    H219393   3.585   6.310   0.857
 6484TIP3   OH219394   2.289   1.590   1.366
 6484TIP3    H119395   2.220   1.579   1.431
 6484TIP3    H219396   2.338   1.667   1.395
 6485TIP3   OH219397   3.969   2.389   4.954
 6485TIP3    H119398   3.994   2.298   4.937
 6485TIP3    H219399   3.960   2.394   5.049
 6486TIP3   OH219400   3.129   1.901   5.511
 6486TIP3    H119401   3.179   1.978   5.540
 6486TIP3    H219402   3.039   1.932   5.506
 6487TIP3   OH219403   5.276   4.977   6.684
 6487TIP3    H119404   5.195   5.009   6.643
 6487TIP3    H219405   5.324   4.936   6.612
 6488TIP3   OH219406   0.567   5.962   6.168
 6488TIP3    H119407   0.481   6.004   6.173
 6488TIP3    H219408   0.629   6.034   6.174
 6489TIP3   OH219409   3.426   1.727   3.120
 6489TIP3    H119410   3.441   1.675   3.041
 6489TIP3    H219411   3.465   1.812   3.100
 6490TIP3   OH219412   7.977   2.147   6.147
 6490TIP3    H119413   7.982   2.210   6.220
 6490TIP3    H219414   7.922   2.077   6.180
 6491TIP3   OH219415   7.881   3.006   2.158
 6491TIP3    H119416   7.968   2.970   2.139
 6491TIP3    H219417   7.837   2.938   2.208
 6492TIP3   OH219418   0.453   6.178   6.659
 6492TIP3    H119419   0.523   6.152   6.719
 6492TIP3    H219420   0.482   6.263   6.624
 6493TIP3   OH219421   1.712   4.467   0.523
 6493TIP3    H119422   1.700   4.484   0.430
 6493TIP3    H219423   1.679   4.546   0.566
 6494TIP3   OH219424   4.329   3.740   0.259
 6494TIP3    H119425   4.295   3.655   0.233
 6494TIP3    H219426   4.252   3.797   0.261
 6495TIP3   OH219427   3.516   2.743   1.990
 6495TIP3    H119428   3.505   2.773   1.900
 6495TIP3    H219429   3.526   2.823   2.042
 6496TIP3   OH219430   4.595   7.449   2.311
 6496TIP3    H119431   4.573   7.537   2.279
 6496TIP3    H219432   4.683   7.433   2.278
 6497TIP3   OH219433   0.788   6.603   2.633
 6497TIP3    H119434   0.770   6.510   2.648
 6497TIP3    H219435   0.796   6.611   2.538
 6498TIP3   OH219436   3.104   1.223   0.504
 6498TIP3    H119437   3.095   1.302   0.556
 6498TIP3    H219438   3.136   1.157   0.565
 6499TIP3   OH219439   2.593   1.152   1.170
 6499TIP3    H119440   2.537   1.230   1.165
 6499TIP3    H219441   2.677   1.184   1.201
 6500TIP3   OH219442   8.102   7.302   5.351
 6500TIP3    H119443   8.182   7.347   5.379
 6500TIP3    H219444   8.132   7.216   5.322
 6501TIP3   OH219445   7.391   7.625   5.589
 6501TIP3    H119446   7.379   7.677   5.669
 6501TIP3    H219447   7.485   7.618   5.578
 6502TIP3   OH219448   5.081   2.070   1.930
 6502TIP3    H119449   5.176   2.073   1.919
 6502TIP3    H219450   5.056   2.160   1.949
 6503TIP3   OH219451   5.161   4.415   1.544
 6503TIP3    H119452   5.176   4.335   1.494
 6503TIP3    H219453   5.081   4.397   1.595
 6504TIP3   OH219454   4.833   2.289   5.076
 6504TIP3    H119455   4.913   2.311   5.124
 6504TIP3    H219456   4.791   2.221   5.130
 6505TIP3   OH219457   2.745   5.408   2.969
 6505TIP3    H119458   2.660   5.449   2.984
 6505TIP3    H219459   2.799   5.476   2.930
 6506TIP3   OH219460   5.491   3.949   5.281
 6506TIP3    H119461   5.436   3.874   5.304
 6506TIP3    H219462   5.513   3.989   5.365
 6507TIP3   OH219463   3.993   1.771   6.293
 6507TIP3    H119464   3.902   1.744   6.280
 6507TIP3    H219465   4.038   1.691   6.321
 6508TIP3   OH219466   1.020   0.815   2.718
 6508TIP3    H119467   0.976   0.745   2.669
 6508TIP3    H219468   1.032   0.778   2.806
 6509TIP3   OH219469   6.768   1.393   0.194
 6509TIP3    H119470   6.797   1.437   0.274
 6509TIP3    H219471   6.767   1.461   0.127
 6510TIP3   OH219472   2.944   4.746   5.713
 6510TIP3    H119473   2.939   4.694   5.632
 6510TIP3    H219474   3.035   4.736   5.742
 6511TIP3   OH219475   5.230   3.649   3.349
 6511TIP3    H119476   5.179   3.660   3.268
 6511TIP3    H219477   5.229   3.554   3.364
 6512TIP3   OH219478   4.405   6.223   4.896
 6512TIP3    H119479   4.429   6.310   4.862
 6512TIP3    H219480   4.488   6.176   4.902
 6513TIP3   OH219481   2.205   1.701   2.592
 6513TIP3    H119482   2.152   1.636   2.637
 6513TIP3    H219483   2.284   1.655   2.565
 6514TIP3   OH219484   0.614   5.340   5.678
 6514TIP3    H119485   0.562   5.278   5.730
 6514TIP3    H219486   0.555   5.414   5.665
 6515TIP3   OH219487   4.342   6.467   6.381
 6515TIP3    H119488   4.356   6.375   6.356
 6515TIP3    H219489   4.294   6.462   6.463
 6516TIP3   OH219490   8.117   4.654   5.668
 6516TIP3    H119491   8.180   4.590   5.701
 6516TIP3    H219492   8.149   4.676   5.580
 6517TIP3   OH219493   0.990   0.384   6.607
 6517TIP3    H119494   0.930   0.341   6.546
 6517TIP3    H219495   0.933   0.442   6.659
 6518TIP3   OH219496   5.749   1.560   6.062
 6518TIP3    H119497   5.807   1.580   5.989
 6518TIP3    H219498   5.684   1.500   6.026
 6519TIP3   OH219499   2.785   7.709   1.900
 6519TIP3    H119500   2.797   7.802   1.882
 6519TIP3    H219501   2.690   7.695   1.891
 6520TIP3   OH219502   2.526   6.386   4.682
 6520TIP3    H119503   2.615   6.357   4.661
 6520TIP3    H219504   2.474   6.359   4.607
 6521TIP3   OH219505   4.408   3.280   0.568
 6521TIP3    H119506   4.338   3.259   0.629
 6521TIP3    H219507   4.375   3.355   0.517
 6522TIP3   OH219508   7.537   0.480   6.306
 6522TIP3    H119509   7.566   0.470   6.215
 6522TIP3    H219510   7.615   0.508   6.353
 6523TIP3   OH219511   1.385   4.469   5.440
 6523TIP3    H119512   1.318   4.409   5.407
 6523TIP3    H219513   1.377   4.462   5.535
 6524TIP3   OH219514   7.272   7.331   5.015
 6524TIP3    H119515   7.285   7.236   5.018
 6524TIP3    H219516   7.360   7.368   5.011
 6525TIP3   OH219517   0.068   1.265   1.200
 6525TIP3    H119518   0.023   1.207   1.261
 6525TIP3    H219519   0.160   1.237   1.204
 6526TIP3   OH219520   5.018   0.992   3.730
 6526TIP3    H119521   5.059   0.908   3.709
 6526TIP3    H219522   4.937   0.968   3.775
 6527TIP3   OH219523   7.730   1.360   5.598
 6527TIP3    H119524   7.726   1.421   5.524
 6527TIP3    H219525   7.703   1.276   5.562
 6528TIP3   OH219526   6.546   7.063   1.091
 6528TIP3    H119527   6.522   7.092   1.003
 6528TIP3    H219528   6.571   7.143   1.137
 6529TIP3   OH219529   7.466   4.907   6.485
 6529TIP3    H119530   7.428   4.989   6.515
 6529TIP3    H219531   7.506   4.869   6.563
 6530TIP3   OH219532   0.289   5.691   5.820
 6530TIP3    H119533   0.347   5.722   5.889
 6530TIP3    H219534   0.347   5.657   5.752
 6531TIP3   OH219535   5.590   6.382   1.178
 6531TIP3    H119536   5.503   6.368   1.140
 6531TIP3    H219537   5.602   6.477   1.176
 6532TIP3   OH219538   8.188   4.549   3.370
 6532TIP3    H119539   8.144   4.626   3.334
 6532TIP3    H219540   8.155   4.541   3.459
 6533TIP3   OH219541   4.179   2.460   3.309
 6533TIP3    H119542   4.141   2.378   3.278
 6533TIP3    H219543   4.156   2.524   3.241
 6534TIP3   OH219544   3.058   6.448   4.654
 6534TIP3    H119545   3.097   6.500   4.724
 6534TIP3    H219546   3.129   6.435   4.591
 6535TIP3   OH219547   3.122   3.120   1.272
 6535TIP3    H119548   3.138   3.208   1.305
 6535TIP3    H219549   3.127   3.128   1.177
 6536TIP3   OH219550   0.795   5.792   1.639
 6536TIP3    H119551   0.749   5.869   1.606
 6536TIP3    H219552   0.802   5.806   1.733
 6537TIP3   OH219553   1.757   4.101   2.837
 6537TIP3    H119554   1.681   4.080   2.891
 6537TIP3    H219555   1.797   4.017   2.818
 6538TIP3   OH219556   2.933   1.926   3.007
 6538TIP3    H119557   2.996   1.867   3.049
 6538TIP3    H219558   2.946   2.010   3.049
 6539TIP3   OH219559   0.865   3.732   0.482
 6539TIP3    H119560   0.815   3.777   0.550
 6539TIP3    H219561   0.950   3.714   0.523
 6540TIP3   OH219562   8.231   6.523   2.750
 6540TIP3    H119563   8.206   6.435   2.777
 6540TIP3    H219564   8.237   6.519   2.655
 6541TIP3   OH219565   7.927   0.699   5.144
 6541TIP3    H119566   7.855   0.671   5.086
 6541TIP3    H219567   7.882   0.733   5.222
 6542TIP3   OH219568   3.472   4.805   0.524
 6542TIP3    H119569   3.378   4.812   0.503
 6542TIP3    H219570   3.479   4.839   0.613
 6543TIP3   OH219571   8.000   0.415   4.612
 6543TIP3    H119572   7.926   0.468   4.584
 6543TIP3    H219573   7.961   0.345   4.665
 6544TIP3   OH219574   7.904   3.158   2.421
 6544TIP3    H119575   7.946   3.169   2.506
 6544TIP3    H219576   7.970   3.189   2.358
 6545TIP3   OH219577   4.953   3.380   5.286
 6545TIP3    H119578   4.890   3.401   5.355
 6545TIP3    H219579   4.955   3.458   5.230
 6546TIP3   OH219580   1.099   5.089   3.303
 6546TIP3    H119581   1.153   5.015   3.329
 6546TIP3    H219582   1.026   5.050   3.254
 6547TIP3   OH219583   1.729   4.407   5.245
 6547TIP3    H119584   1.787   4.393   5.320
 6547TIP3    H219585   1.676   4.328   5.241
 6548TIP3   OH219586   4.079   2.337   1.615
 6548TIP3    H119587   4.066   2.253   1.659
 6548TIP3    H219588   3.991   2.365   1.591
 6549TIP3   OH219589   6.931   3.040   1.712
 6549TIP3    H119590   6.952   3.053   1.804
 6549TIP3    H219591   6.968   2.954   1.691
 6550TIP3   OH219592   6.533   1.445   3.417
 6550TIP3    H119593   6.508   1.483   3.333
 6550TIP3    H219594   6.622   1.415   3.405
 6551TIP3   OH219595   0.927   1.142   0.382
 6551TIP3    H119596   0.891   1.223   0.419
 6551TIP3    H219597   1.002   1.122   0.437
 6552TIP3   OH219598   1.839   1.124   0.270
 6552TIP3    H119599   1.752   1.115   0.309
 6552TIP3    H219600   1.828   1.094   0.180
 6553TIP3   OH219601   1.319   0.596   2.630
 6553TIP3    H119602   1.405   0.593   2.673
 6553TIP3    H219603   1.331   0.657   2.557
 6554TIP3   OH219604   7.222   1.574   3.008
 6554TIP3    H119605   7.222   1.496   3.064
 6554TIP3    H219606   7.289   1.556   2.942
 6555TIP3   OH219607   8.298   4.104   5.647
 6555TIP3    H119608   8.205   4.122   5.631
 6555TIP3    H219609   8.324   4.168   5.713
 6556TIP3   OH219610   6.544   4.999   0.722
 6556TIP3    H119611   6.461   4.994   0.770
 6556TIP3    H219612   6.523   5.050   0.644
 6557TIP3   OH219613   2.813   6.401   3.039
 6557TIP3    H119614   2.786   6.449   3.118
 6557TIP3    H219615   2.887   6.348   3.068
 6558TIP3   OH219616   4.782   3.639   3.812
 6558TIP3    H119617   4.762   3.731   3.798
 6558TIP3    H219618   4.731   3.593   3.746
 6559TIP3   OH219619   3.114   1.008   3.055
 6559TIP3    H119620   3.196   1.055   3.044
 6559TIP3    H219621   3.077   1.004   2.966
 6560TIP3   OH219622   4.141   3.174   4.688
 6560TIP3    H119623   4.090   3.093   4.685
 6560TIP3    H219624   4.094   3.231   4.748
 6561TIP3   OH219625   6.198   7.390   4.751
 6561TIP3    H119626   6.114   7.395   4.705
 6561TIP3    H219627   6.184   7.441   4.831
 6562TIP3   OH219628   3.394   0.662   2.342
 6562TIP3    H119629   3.430   0.652   2.430
 6562TIP3    H219630   3.301   0.682   2.357
 6563TIP3   OH219631   6.586   5.265   4.036
 6563TIP3    H119632   6.562   5.357   4.047
 6563TIP3    H219633   6.534   5.219   4.102
 6564TIP3   OH219634   2.682   4.052   5.673
 6564TIP3    H119635   2.653   4.056   5.582
 6564TIP3    H219636   2.603   4.070   5.725
 6565TIP3   OH219637   6.227   7.056   5.065
 6565TIP3    H119638   6.260   7.113   4.996
 6565TIP3    H219639   6.140   7.090   5.086
 6566TIP3   OH219640   7.530   5.713   3.002
 6566TIP3    H119641   7.458   5.709   3.064
 6566TIP3    H219642   7.563   5.803   3.009
 6567TIP3   OH219643   6.500   6.312   2.831
 6567TIP3    H119644   6.488   6.384   2.768
 6567TIP3    H219645   6.412   6.296   2.866
 6568TIP3   OH219646   2.117   5.122   2.449
 6568TIP3    H119647   2.120   5.150   2.540
 6568TIP3    H219648   2.076   5.035   2.452
 6569TIP3   OH219649   2.769   6.885   5.863
 6569TIP3    H119650   2.740   6.974   5.884
 6569TIP3    H219651   2.832   6.864   5.931
 6570TIP3   OH219652   0.102   0.073   1.654
 6570TIP3    H119653   0.062   0.014   1.717
 6570TIP3    H219654   0.090   0.030   1.569
 6571TIP3   OH219655   2.921   5.519   0.704
 6571TIP3    H119656   2.861   5.574   0.655
 6571TIP3    H219657   2.969   5.579   0.761
 6572TIP3   OH219658   3.271   0.797   4.794
 6572TIP3    H119659   3.332   0.867   4.772
 6572TIP3    H219660   3.276   0.736   4.720
 6573TIP3   OH219661   6.398   3.671   6.114
 6573TIP3    H119662   6.430   3.761   6.124
 6573TIP3    H219663   6.333   3.661   6.184
 6574TIP3   OH219664   2.379   6.341   2.842
 6574TIP3    H119665   2.354   6.295   2.922
 6574TIP3    H219666   2.410   6.273   2.783
 6575TIP3   OH219667   0.365   2.905   3.870
 6575TIP3    H119668   0.286   2.929   3.822
 6575TIP3    H219669   0.434   2.903   3.804
 6576TIP3   OH219670   6.070   0.040   0.338
 6576TIP3    H119671   6.126   0.068   0.410
 6576TIP3    H219672   5.981   0.064   0.367
 6577TIP3   OH219673   6.406   2.523   1.173
 6577TIP3    H119674   6.434   2.525   1.265
 6577TIP3    H219675   6.416   2.432   1.147
 6578TIP3   OH219676   8.168   0.039   3.847
 6578TIP3    H119677   8.248  -0.007   3.822
 6578TIP3    H219678   8.107   0.020   3.776
 6579TIP3   OH219679   5.273   1.121   0.294
 6579TIP3    H119680   5.198   1.159   0.341
 6579TIP3    H219681   5.315   1.195   0.252
 6580TIP3   OH219682   2.608   3.531   4.129
 6580TIP3    H119683   2.669   3.596   4.094
 6580TIP3    H219684   2.542   3.583   4.175
 6581TIP3   OH219685   5.263   4.088   6.095
 6581TIP3    H119686   5.223   4.065   6.178
 6581TIP3    H219687   5.206   4.048   6.029
 6582TIP3   OH219688   6.780   5.059   4.134
 6582TIP3    H119689   6.715   5.108   4.084
 6582TIP3    H219690   6.857   5.057   4.077
 6583TIP3   OH219691   5.623   6.499   1.911
 6583TIP3    H119692   5.673   6.570   1.873
 6583TIP3    H219693   5.634   6.426   1.851
 6584TIP3   OH219694   8.015   4.955   5.151
 6584TIP3    H119695   7.955   4.887   5.185
 6584TIP3    H219696   7.978   5.037   5.183
 6585TIP3   OH219697   0.688   0.771   3.458
 6585TIP3    H119698   0.604   0.737   3.491
 6585TIP3    H219699   0.746   0.695   3.461
 6586TIP3   OH219700   2.490   1.884   0.907
 6586TIP3    H119701   2.535   1.884   0.991
 6586TIP3    H219702   2.503   1.795   0.873
 6587TIP3   OH219703   5.448   0.563   6.276
 6587TIP3    H119704   5.515   0.610   6.326
 6587TIP3    H219705   5.372   0.559   6.334
 6588TIP3   OH219706   3.377   4.422   5.562
 6588TIP3    H119707   3.369   4.375   5.645
 6588TIP3    H219708   3.463   4.395   5.528
 6589TIP3   OH219709   3.952   2.875   0.312
 6589TIP3    H119710   4.021   2.919   0.362
 6589TIP3    H219711   3.945   2.927   0.231
 6590TIP3   OH219712   5.688   3.873   0.087
 6590TIP3    H119713   5.646   3.801   0.135
 6590TIP3    H219714   5.714   3.834   0.004
 6591TIP3   OH219715   7.357   5.796   0.400
 6591TIP3    H119716   7.452   5.803   0.393
 6591TIP3    H219717   7.336   5.839   0.483
 6592TIP3   OH219718   4.525   4.885   0.613
 6592TIP3    H119719   4.438   4.918   0.592
 6592TIP3    H219720   4.516   4.845   0.700
 6593TIP3   OH219721   5.186   6.469   2.934
 6593TIP3    H119722   5.138   6.395   2.971
 6593TIP3    H219723   5.120   6.539   2.928
 6594TIP3   OH219724   7.196   1.954   0.633
 6594TIP3    H119725   7.235   1.936   0.547
 6594TIP3    H219726   7.126   2.016   0.615
 6595TIP3   OH219727   2.725   2.016   2.352
 6595TIP3    H119728   2.734   1.955   2.278
 6595TIP3    H219729   2.804   2.070   2.348
 6596TIP3   OH219730   1.902   5.705   1.336
 6596TIP3    H119731   1.882   5.617   1.368
 6596TIP3    H219732   1.987   5.696   1.293
 6597TIP3   OH219733   1.929   6.813   2.898
 6597TIP3    H119734   1.943   6.738   2.956
 6597TIP3    H219735   2.011   6.822   2.850
 6598TIP3   OH219736   4.341   0.681   3.633
 6598TIP3    H119737   4.407   0.649   3.572
 6598TIP3    H219738   4.264   0.698   3.578
 6599TIP3   OH219739   0.844   6.739   0.388
 6599TIP3    H119740   0.781   6.726   0.459
 6599TIP3    H219741   0.875   6.651   0.368
 6600TIP3   OH219742   2.498   0.752   2.714
 6600TIP3    H119743   2.579   0.758   2.765
 6600TIP3    H219744   2.429   0.742   2.779
 6601TIP3   OH219745   7.548   0.755   0.602
 6601TIP3    H119746   7.555   0.851   0.600
 6601TIP3    H219747   7.516   0.731   0.515
 6602TIP3   OH219748   4.504   5.774   3.120
 6602TIP3    H119749   4.436   5.737   3.063
 6602TIP3    H219750   4.565   5.702   3.134
 6603TIP3   OH219751   0.558   2.103   6.404
 6603TIP3    H119752   0.476   2.141   6.373
 6603TIP3    H219753   0.533   2.015   6.434
 6604TIP3   OH219754   4.664   2.459   5.356
 6604TIP3    H119755   4.576   2.442   5.391
 6604TIP3    H219756   4.650   2.517   5.282
 6605TIP3   OH219757   7.184   3.702   6.579
 6605TIP3    H119758   7.170   3.628   6.638
 6605TIP3    H219759   7.105   3.703   6.524
 6606TIP3   OH219760   3.883   1.699   1.425
 6606TIP3    H119761   3.801   1.746   1.442
 6606TIP3    H219762   3.937   1.716   1.503
 6607TIP3   OH219763   5.955   3.208   2.109
 6607TIP3    H119764   6.039   3.164   2.093
 6607TIP3    H219765   5.956   3.229   2.202
 6608TIP3   OH219766   3.731   1.094   3.722
 6608TIP3    H119767   3.776   1.082   3.805
 6608TIP3    H219768   3.780   1.163   3.677
 6609TIP3   OH219769   6.782   6.609   5.203
 6609TIP3    H119770   6.695   6.636   5.233
 6609TIP3    H219771   6.769   6.518   5.174
 6610TIP3   OH219772   5.078   3.020   2.937
 6610TIP3    H119773   4.989   3.008   2.905
 6610TIP3    H219774   5.109   2.931   2.954
 6611TIP3   OH219775   3.410   6.274   0.904
 6611TIP3    H119776   3.423   6.311   0.991
 6611TIP3    H219777   3.330   6.316   0.872
 6612TIP3   OH219778   4.687   3.484   2.391
 6612TIP3    H119779   4.621   3.426   2.352
 6612TIP3    H219780   4.701   3.448   2.479
 6613TIP3   OH219781   3.021   7.146   2.391
 6613TIP3    H119782   2.931   7.118   2.373
 6613TIP3    H219783   3.017   7.241   2.391
 6614TIP3   OH219784   0.968   7.140   4.495
 6614TIP3    H119785   0.948   7.050   4.470
 6614TIP3    H219786   1.063   7.143   4.503
 6615TIP3   OH219787   1.827   6.243   2.628
 6615TIP3    H119788   1.787   6.159   2.650
 6615TIP3    H219789   1.876   6.226   2.548
 6616TIP3   OH219790   7.061   0.380   1.317
 6616TIP3    H119791   7.001   0.414   1.384
 6616TIP3    H219792   7.120   0.322   1.365
 6617TIP3   OH219793   7.242   1.023   3.709
 6617TIP3    H119794   7.327   1.046   3.671
 6617TIP3    H219795   7.264   0.978   3.791
 6618TIP3   OH219796   0.256   7.525   4.788
 6618TIP3    H119797   0.252   7.615   4.822
 6618TIP3    H219798   0.349   7.503   4.788
 6619TIP3   OH219799   2.848   7.601   1.084
 6619TIP3    H119800   2.859   7.621   0.991
 6619TIP3    H219801   2.926   7.551   1.108
 6620TIP3   OH219802   4.849   6.161   3.183
 6620TIP3    H119803   4.804   6.243   3.162
 6620TIP3    H219804   4.814   6.098   3.119
 6621TIP3   OH219805   0.557   5.247   0.500
 6621TIP3    H119806   0.531   5.296   0.577
 6621TIP3    H219807   0.644   5.281   0.477
 6622TIP3   OH219808   3.291   4.898   0.198
 6622TIP3    H119809   3.381   4.902   0.168
 6622TIP3    H219810   3.258   4.987   0.187
 6623TIP3   OH219811   3.469   2.012   5.756
 6623TIP3    H119812   3.528   1.942   5.730
 6623TIP3    H219813   3.504   2.044   5.839
 6624TIP3   OH219814   0.532   3.542   2.031
 6624TIP3    H119815   0.494   3.581   1.953
 6624TIP3    H219816   0.545   3.450   2.008
 6625TIP3   OH219817   8.069   0.630   5.691
 6625TIP3    H119818   8.150   0.648   5.643
 6625TIP3    H219819   8.054   0.709   5.743
 6626TIP3   OH219820   6.083   3.280   2.864
 6626TIP3    H119821   6.151   3.307   2.926
 6626TIP3    H219822   6.004   3.322   2.897
 6627TIP3   OH219823   7.683   2.458   0.615
 6627TIP3    H119824   7.603   2.512   0.620
 6627TIP3    H219825   7.745   2.502   0.673
 6628TIP3   OH219826   3.324   4.275   5.301
 6628TIP3    H119827   3.296   4.228   5.223
 6628TIP3    H219828   3.317   4.367   5.278
 6629TIP3   OH219829   4.183   3.309   0.768
 6629TIP3    H119830   4.111   3.372   0.777
 6629TIP3    H219831   4.238   3.324   0.846
 6630TIP3   OH219832   2.588   6.671   6.366
 6630TIP3    H119833   2.664   6.664   6.424
 6630TIP3    H219834   2.549   6.583   6.368
 6631TIP3   OH219835   3.797   6.942   6.676
 6631TIP3    H119836   3.783   7.011   6.611
 6631TIP3    H219837   3.712   6.898   6.682
 6632TIP3   OH219838   3.760   2.326   0.908
 6632TIP3    H119839   3.814   2.373   0.843
 6632TIP3    H219840   3.775   2.233   0.889
 6633TIP3   OH219841   0.689   0.297   1.108
 6633TIP3    H119842   0.715   0.376   1.154
 6633TIP3    H219843   0.770   0.247   1.098
 6634TIP3   OH219844   3.491   5.946   6.038
 6634TIP3    H119845   3.526   6.035   6.023
 6634TIP3    H219846   3.527   5.894   5.966
 6635TIP3   OH219847   1.519   6.503   4.677
 6635TIP3    H119848   1.473   6.492   4.594
 6635TIP3    H219849   1.604   6.540   4.653
 6636TIP3   OH219850   4.316   7.058   2.560
 6636TIP3    H119851   4.376   7.009   2.616
 6636TIP3    H219852   4.372   7.124   2.518
 6637TIP3   OH219853   2.431   1.111   1.655
 6637TIP3    H119854   2.439   1.198   1.616
 6637TIP3    H219855   2.492   1.056   1.606
 6638TIP3   OH219856   1.518   7.663   4.115
 6638TIP3    H119857   1.613   7.654   4.122
 6638TIP3    H219858   1.498   7.637   4.025
 6639TIP3   OH219859   1.187   3.008   5.810
 6639TIP3    H119860   1.198   2.938   5.746
 6639TIP3    H219861   1.092   3.011   5.826
 6640TIP3   OH219862   5.008   1.980   4.951
 6640TIP3    H119863   5.029   1.887   4.941
 6640TIP3    H219864   4.955   2.001   4.874
 6641TIP3   OH219865   0.126   6.470   0.253
 6641TIP3    H119866   0.100   6.384   0.285
 6641TIP3    H219867   0.197   6.452   0.190
 6642TIP3   OH219868   5.237   7.411   2.335
 6642TIP3    H119869   5.269   7.327   2.370
 6642TIP3    H219870   5.192   7.388   2.254
 6643TIP3   OH219871   5.747   0.510   3.219
 6643TIP3    H119872   5.781   0.535   3.304
 6643TIP3    H219873   5.824   0.511   3.161
 6644TIP3   OH219874   4.673   7.178   6.063
 6644TIP3    H119875   4.653   7.125   5.986
 6644TIP3    H219876   4.761   7.212   6.046
 6645TIP3   OH219877   5.835   0.523   0.205
 6645TIP3    H119878   5.909   0.555   0.257
 6645TIP3    H219879   5.770   0.499   0.271
 6646TIP3   OH219880   4.203   3.281   3.504
 6646TIP3    H119881   4.253   3.346   3.554
 6646TIP3    H219882   4.250   3.199   3.517
 6647TIP3   OH219883   6.662   0.957   1.312
 6647TIP3    H119884   6.708   1.039   1.294
 6647TIP3    H219885   6.576   0.984   1.345
 6648TIP3   OH219886   5.806   1.489   2.398
 6648TIP3    H119887   5.835   1.421   2.336
 6648TIP3    H219888   5.731   1.451   2.442
 6649TIP3   OH219889   3.202   3.002   1.930
 6649TIP3    H119890   3.149   3.003   1.850
 6649TIP3    H219891   3.139   2.988   2.000
 6650TIP3   OH219892   2.988   5.258   0.732
 6650TIP3    H119893   2.902   5.222   0.751
 6650TIP3    H219894   2.973   5.352   0.720
 6651TIP3   OH219895   2.173   1.518   0.373
 6651TIP3    H119896   2.097   1.495   0.426
 6651TIP3    H219897   2.140   1.578   0.307
 6652TIP3   OH219898   1.234   0.438   6.456
 6652TIP3    H119899   1.290   0.470   6.527
 6652TIP3    H219900   1.150   0.421   6.498
 6653TIP3   OH219901   2.166   5.508   5.508
 6653TIP3    H119902   2.185   5.414   5.503
 6653TIP3    H219903   2.087   5.513   5.562
 6654TIP3   OH219904   2.302   7.364   4.682
 6654TIP3    H119905   2.365   7.434   4.662
 6654TIP3    H219906   2.217   7.403   4.663
 6655TIP3   OH219907   6.880   1.114   4.669
 6655TIP3    H119908   6.838   1.136   4.586
 6655TIP3    H219909   6.973   1.128   4.654
 6656TIP3   OH219910   6.448   1.685   0.350
 6656TIP3    H119911   6.443   1.750   0.420
 6656TIP3    H219912   6.374   1.705   0.293
 6657TIP3   OH219913   4.060   3.734   6.043
 6657TIP3    H119914   4.105   3.812   6.076
 6657TIP3    H219915   4.064   3.744   5.948
 6658TIP3   OH219916   1.115   0.532   0.310
 6658TIP3    H119917   1.037   0.560   0.263
 6658TIP3    H219918   1.082   0.501   0.395
 6659TIP3   OH219919   1.146   6.083   3.927
 6659TIP3    H119920   1.175   6.172   3.948
 6659TIP3    H219921   1.195   6.059   3.849
 6660TIP3   OH219922   4.806   5.504   1.624
 6660TIP3    H119923   4.781   5.547   1.706
 6660TIP3    H219924   4.734   5.443   1.606
 6661TIP3   OH219925   4.330   2.514   4.656
 6661TIP3    H119926   4.313   2.543   4.746
 6661TIP3    H219927   4.398   2.448   4.665
 6662TIP3   OH219928   2.448   6.690   3.461
 6662TIP3    H119929   2.437   6.634   3.539
 6662TIP3    H219930   2.424   6.633   3.388
 6663TIP3   OH219931   0.421   2.723   2.452
 6663TIP3    H119932   0.412   2.811   2.414
 6663TIP3    H219933   0.361   2.669   2.401
 6664TIP3   OH219934   4.423   7.386   0.014
 6664TIP3    H119935   4.501   7.404   0.066
 6664TIP3    H219936   4.433   7.294  -0.012
 6665TIP3   OH219937   7.460   4.951   1.373
 6665TIP3    H119938   7.376   4.945   1.418
 6665TIP3    H219939   7.482   4.860   1.351
 6666TIP3   OH219940   3.522   2.869   4.088
 6666TIP3    H119941   3.445   2.920   4.114
 6666TIP3    H219942   3.515   2.788   4.139
 6667TIP3   OH219943   8.255   4.304   3.261
 6667TIP3    H119944   8.218   4.255   3.334
 6667TIP3    H219945   8.264   4.393   3.294
 6668TIP3   OH219946   6.911   0.783   2.615
 6668TIP3    H119947   6.966   0.861   2.619
 6668TIP3    H219948   6.876   0.773   2.704
 6669TIP3   OH219949   5.564   0.151   6.353
 6669TIP3    H119950   5.551   0.069   6.402
 6669TIP3    H219951   5.611   0.208   6.414
 6670TIP3   OH219952   0.369   7.458   0.944
 6670TIP3    H119953   0.450   7.421   0.979
 6670TIP3    H219954   0.350   7.406   0.866
 6671TIP3   OH219955   1.212   6.486   1.755
 6671TIP3    H119956   1.144   6.538   1.714
 6671TIP3    H219957   1.231   6.417   1.692
 6672TIP3   OH219958   1.946   0.687   4.098
 6672TIP3    H119959   2.001   0.623   4.052
 6672TIP3    H219960   1.919   0.642   4.178
 6673TIP3   OH219961   2.410   7.215   0.907
 6673TIP3    H119962   2.347   7.182   0.970
 6673TIP3    H219963   2.371   7.197   0.822
 6674TIP3   OH219964   2.281   5.132   4.434
 6674TIP3    H119965   2.275   5.059   4.372
 6674TIP3    H219966   2.247   5.208   4.386
 6675TIP3   OH219967   3.335   4.628   0.037
 6675TIP3    H119968   3.274   4.689   0.078
 6675TIP3    H219969   3.356   4.566   0.107
 6676TIP3   OH219970   1.210   3.894   5.714
 6676TIP3    H119971   1.219   3.860   5.625
 6676TIP3    H219972   1.132   3.949   5.711
 6677TIP3   OH219973   0.964   6.891   6.676
 6677TIP3    H119974   0.994   6.940   6.599
 6677TIP3    H219975   0.880   6.930   6.698
 6678TIP3   OH219976   1.494   4.714   3.005
 6678TIP3    H119977   1.588   4.701   2.991
 6678TIP3    H219978   1.458   4.626   3.012
 6679TIP3   OH219979   4.046   0.939   6.433
 6679TIP3    H119980   4.130   0.966   6.395
 6679TIP3    H219981   4.070   0.896   6.516
 6680TIP3   OH219982   0.615   1.932   0.434
 6680TIP3    H119983   0.693   1.936   0.377
 6680TIP3    H219984   0.544   1.909   0.374
 6681TIP3   OH219985   6.915   2.921   2.618
 6681TIP3    H119986   6.826   2.887   2.609
 6681TIP3    H219987   6.920   2.992   2.553
 6682TIP3   OH219988   1.719   4.634   2.209
 6682TIP3    H119989   1.753   4.616   2.121
 6682TIP3    H219990   1.753   4.563   2.263
 6683TIP3   OH219991   0.021   1.132   0.234
 6683TIP3    H119992   0.068   1.148   0.153
 6683TIP3    H219993   0.086   1.147   0.303
 6684TIP3   OH219994   4.859   4.045   5.413
 6684TIP3    H119995   4.930   4.032   5.349
 6684TIP3    H219996   4.788   4.083   5.362
 6685TIP3   OH219997   2.130   6.082   4.686
 6685TIP3    H119998   2.184   6.069   4.608
 6685TIP3    H219999   2.051   6.030   4.670
 6686TIP3   OH220000   7.559  -0.015   0.951
 6686TIP3    H120001   7.515   0.070   0.947
 6686TIP3    H220002   7.621  -0.007   1.024
 6687TIP3   OH220003   4.239   4.735   0.515
 6687TIP3    H120004   4.147   4.746   0.539
 6687TIP3    H220005   4.239   4.735   0.419
 6688TIP3   OH220006   2.035   2.616   3.299
 6688TIP3    H120007   2.062   2.525   3.288
 6688TIP3    H220008   1.958   2.625   3.243
 6689TIP3   OH220009   6.014   0.745   3.594
 6689TIP3    H120010   6.061   0.709   3.519
 6689TIP3    H220011   6.082   0.788   3.646
 6690TIP3   OH220012   1.104   5.884   6.025
 6690TIP3    H120013   1.175   5.820   6.024
 6690TIP3    H220014   1.096   5.914   5.935
 6691TIP3   OH220015   7.090   2.716   1.002
 6691TIP3    H120016   7.157   2.741   1.066
 6691TIP3    H220017   7.058   2.799   0.967
 6692TIP3   OH220018   2.769   0.485   5.858
 6692TIP3    H120019   2.757   0.578   5.877
 6692TIP3    H220020   2.801   0.483   5.768
 6693TIP3   OH220021   0.733   7.492   5.080
 6693TIP3    H120022   0.735   7.578   5.037
 6693TIP3    H220023   0.723   7.512   5.173
 6694TIP3   OH220024   4.225   6.376   5.110
 6694TIP3    H120025   4.278   6.296   5.111
 6694TIP3    H220026   4.140   6.349   5.144
 6695TIP3   OH220027   7.219   1.229   6.257
 6695TIP3    H120028   7.179   1.313   6.279
 6695TIP3    H220029   7.145   1.169   6.243
 6696TIP3   OH220030   4.976   1.892   5.864
 6696TIP3    H120031   5.067   1.882   5.890
 6696TIP3    H220032   4.933   1.931   5.940
 6697TIP3   OH220033   2.405   2.482   1.956
 6697TIP3    H120034   2.401   2.496   2.050
 6697TIP3    H220035   2.314   2.490   1.926
 6698TIP3   OH220036   6.961   3.735   6.396
 6698TIP3    H120037   6.966   3.829   6.377
 6698TIP3    H220038   6.872   3.723   6.432
 6699TIP3   OH220039   5.884   6.132   6.174
 6699TIP3    H120040   5.958   6.119   6.115
 6699TIP3    H220041   5.876   6.227   6.181
 6700TIP3   OH220042   3.164   5.149   4.151
 6700TIP3    H120043   3.145   5.198   4.071
 6700TIP3    H220044   3.245   5.188   4.184
 6701TIP3   OH220045   4.749   5.277   0.298
 6701TIP3    H120046   4.765   5.244   0.387
 6701TIP3    H220047   4.707   5.362   0.311
 6702TIP3   OH220048   5.230   6.618   2.392
 6702TIP3    H120049   5.226   6.577   2.305
 6702TIP3    H220050   5.245   6.711   2.374
 6703TIP3   OH220051   1.665   6.347   6.663
 6703TIP3    H120052   1.656   6.258   6.628
 6703TIP3    H220053   1.704   6.397   6.592
 6704TIP3   OH220054   3.577   1.182   5.881
 6704TIP3    H120055   3.518   1.176   5.956
 6704TIP3    H220056   3.534   1.132   5.812
 6705TIP3   OH220057   1.313   3.736   6.548
 6705TIP3    H120058   1.320   3.824   6.510
 6705TIP3    H220059   1.225   3.732   6.584
 6706TIP3   OH220060   3.409   2.533   1.737
 6706TIP3    H120061   3.337   2.471   1.753
 6706TIP3    H220062   3.432   2.519   1.644
 6707TIP3   OH220063   7.087   2.916   2.339
 6707TIP3    H120064   7.058   2.859   2.268
 6707TIP3    H220065   7.086   2.861   2.417
 6708TIP3   OH220066   4.313   4.616   2.018
 6708TIP3    H120067   4.373   4.542   2.011
 6708TIP3    H220068   4.330   4.652   2.105
 6709TIP3   OH220069   7.252   5.079   3.821
 6709TIP3    H120070   7.221   5.161   3.782
 6709TIP3    H220071   7.242   5.014   3.752
 6710TIP3   OH220072   3.102   6.204   5.836
 6710TIP3    H120073   3.133   6.119   5.865
 6710TIP3    H220074   3.040   6.185   5.766
 6711TIP3   OH220075   8.019   4.220   3.876
 6711TIP3    H120076   8.012   4.218   3.781
 6711TIP3    H220077   8.060   4.305   3.895
 6712TIP3   OH220078   0.697   6.894   2.304
 6712TIP3    H120079   0.659   6.906   2.217
 6712TIP3    H220080   0.643   6.947   2.362
 6713TIP3   OH220081   7.409   1.287   4.747
 6713TIP3    H120082   7.417   1.239   4.829
 6713TIP3    H220083   7.325   1.259   4.711
 6714TIP3   OH220084   6.850   5.577   3.105
 6714TIP3    H120085   6.801   5.565   3.024
 6714TIP3    H220086   6.838   5.669   3.127
 6715TIP3   OH220087   4.922   2.605   6.798
 6715TIP3    H120088   4.883   2.520   6.779
 6715TIP3    H220089   4.979   2.624   6.723
 6716TIP3   OH220090   4.966   1.020   2.518
 6716TIP3    H120091   4.915   1.101   2.526
 6716TIP3    H220092   5.056   1.047   2.533
 6717TIP3   OH220093   6.019   7.784   3.718
 6717TIP3    H120094   5.976   7.831   3.789
 6717TIP3    H220095   6.062   7.710   3.761
 6718TIP3   OH220096   7.710   6.589   4.225
 6718TIP3    H120097   7.761   6.668   4.207
 6718TIP3    H220098   7.625   6.606   4.184
 6719TIP3   OH220099   3.058   4.450   4.971
 6719TIP3    H120100   3.048   4.355   4.976
 6719TIP3    H220101   3.132   4.464   4.911
 6720TIP3   OH220102   1.934   7.511   5.622
 6720TIP3    H120103   1.929   7.424   5.661
 6720TIP3    H220104   1.973   7.497   5.536
 6721TIP3   OH220105   1.831   7.069   0.837
 6721TIP3    H120106   1.874   6.984   0.827
 6721TIP3    H220107   1.749   7.060   0.789
 6722TIP3   OH220108   7.782   7.772   5.628
 6722TIP3    H120109   7.874   7.795   5.615
 6722TIP3    H220110   7.749   7.838   5.688
 6723TIP3   OH220111   3.817   5.818   2.205
 6723TIP3    H120112   3.812   5.845   2.297
 6723TIP3    H220113   3.909   5.794   2.192
 6724TIP3   OH220114   2.948   1.754   1.642
 6724TIP3    H120115   3.028   1.715   1.677
 6724TIP3    H220116   2.955   1.847   1.664
 6725TIP3   OH220117   7.298   1.127   2.602
 6725TIP3    H120118   7.263   1.216   2.605
 6725TIP3    H220119   7.392   1.136   2.615
 6726TIP3   OH220120   5.993   5.685   6.196
 6726TIP3    H120121   5.933   5.646   6.133
 6726TIP3    H220122   5.977   5.780   6.189
 6727TIP3   OH220123   7.839   1.718   0.018
 6727TIP3    H120124   7.761   1.673   0.051
 6727TIP3    H220125   7.912   1.662   0.046
 6728TIP3   OH220126   4.746   7.377   3.100
 6728TIP3    H120127   4.715   7.437   3.032
 6728TIP3    H220128   4.832   7.411   3.124
 6729TIP3   OH220129   3.881   6.775   1.324
 6729TIP3    H120130   3.976   6.765   1.319
 6729TIP3    H220131   3.846   6.687   1.312
 6730TIP3   OH220132   5.389   6.871   3.835
 6730TIP3    H120133   5.375   6.901   3.745
 6730TIP3    H220134   5.397   6.776   3.828
 6731TIP3   OH220135   6.150   2.633   1.134
 6731TIP3    H120136   6.112   2.648   1.220
 6731TIP3    H220137   6.237   2.598   1.152
 6732TIP3   OH220138   3.124   2.346   4.278
 6732TIP3    H120139   3.202   2.333   4.225
 6732TIP3    H220140   3.129   2.437   4.308
 6733TIP3   OH220141   3.281   7.462   3.984
 6733TIP3    H120142   3.347   7.395   3.970
 6733TIP3    H220143   3.312   7.511   4.060
 6734TIP3   OH220144   0.484   2.881   6.662
 6734TIP3    H120145   0.528   2.796   6.669
 6734TIP3    H220146   0.528   2.925   6.589
 6735TIP3   OH220147   6.016   6.870   5.837
 6735TIP3    H120148   6.017   6.955   5.794
 6735TIP3    H220149   6.046   6.809   5.770
 6736TIP3   OH220150   0.983   2.272   3.000
 6736TIP3    H120151   0.909   2.218   2.972
 6736TIP3    H220152   1.031   2.290   2.919
 6737TIP3   OH220153   2.442   6.806   0.706
 6737TIP3    H120154   2.361   6.821   0.755
 6737TIP3    H220155   2.494   6.884   0.723
 6738TIP3   OH220156   1.712   3.896   3.198
 6738TIP3    H120157   1.760   3.965   3.245
 6738TIP3    H220158   1.620   3.923   3.203
 6739TIP3   OH220159   6.230   1.595   6.618
 6739TIP3    H120160   6.291   1.656   6.660
 6739TIP3    H220161   6.157   1.651   6.589
 6740TIP3   OH220162   2.415   1.519   4.043
 6740TIP3    H120163   2.370   1.440   4.071
 6740TIP3    H220164   2.359   1.555   3.973
 6741TIP3   OH220165   3.910   7.177   4.209
 6741TIP3    H120166   3.969   7.217   4.145
 6741TIP3    H220167   3.959   7.102   4.244
 6742TIP3   OH220168   0.022   2.419   2.764
 6742TIP3    H120169  -0.036   2.343   2.760
 6742TIP3    H220170   0.109   2.382   2.779
 6743TIP3   OH220171   4.116   3.099   6.689
 6743TIP3    H120172   4.042   3.119   6.631
 6743TIP3    H220173   4.176   3.172   6.676
 6744TIP3   OH220174   5.153   4.955   2.433
 6744TIP3    H120175   5.103   4.914   2.363
 6744TIP3    H220176   5.160   5.047   2.407
 6745TIP3   OH220177   4.337   6.208   6.270
 6745TIP3    H120178   4.345   6.274   6.201
 6745TIP3    H220179   4.427   6.183   6.290
 6746TIP3   OH220180   4.665   0.293   0.541
 6746TIP3    H120181   4.704   0.272   0.456
 6746TIP3    H220182   4.650   0.209   0.582
 6747TIP3   OH220183   1.564   3.073   5.783
 6747TIP3    H120184   1.498   3.126   5.827
 6747TIP3    H220185   1.545   2.983   5.811
 6748TIP3   OH220186   2.081   1.967   1.742
 6748TIP3    H120187   2.014   1.919   1.789
 6748TIP3    H220188   2.135   2.007   1.810
 6749TIP3   OH220189   4.649   7.607   6.187
 6749TIP3    H120190   4.704   7.577   6.259
 6749TIP3    H220191   4.581   7.659   6.229
 6750TIP3   OH220192   5.337   3.963   2.808
 6750TIP3    H120193   5.421   3.980   2.851
 6750TIP3    H220194   5.277   3.943   2.880
 6751TIP3   OH220195   6.513   3.975   1.658
 6751TIP3    H120196   6.491   3.888   1.693
 6751TIP3    H220197   6.509   3.964   1.563
 6752TIP3   OH220198   0.461   5.660   3.517
 6752TIP3    H120199   0.386   5.709   3.483
 6752TIP3    H220200   0.511   5.723   3.568
 6753TIP3   OH220201   6.970   4.745   1.974
 6753TIP3    H120202   6.876   4.761   1.973
 6753TIP3    H220203   7.004   4.797   1.901
 6754TIP3   OH220204   1.448   0.687   4.532
 6754TIP3    H120205   1.448   0.653   4.443
 6754TIP3    H220206   1.540   0.705   4.551
 6755TIP3   OH220207   0.008   7.783   5.201
 6755TIP3    H120208   0.070   7.716   5.231
 6755TIP3    H220209  -0.003   7.840   5.277
 6756TIP3   OH220210   5.002   2.414   2.324
 6756TIP3    H120211   4.962   2.382   2.405
 6756TIP3    H220212   5.010   2.509   2.338
 6757TIP3   OH220213   5.371   4.119   4.485
 6757TIP3    H120214   5.464   4.116   4.463
 6757TIP3    H220215   5.327   4.121   4.400
 6758TIP3   OH220216   4.296   0.370   4.958
 6758TIP3    H120217   4.216   0.412   4.928
 6758TIP3    H220218   4.268   0.314   5.030
 6759TIP3   OH220219   4.841   7.497   2.179
 6759TIP3    H120220   4.925   7.521   2.217
 6759TIP3    H220221   4.787   7.576   2.188
 6760TIP3   OH220222   3.584   0.052   6.397
 6760TIP3    H120223   3.527   0.095   6.460
 6760TIP3    H220224   3.616  -0.026   6.442
 6761TIP3   OH220225   1.726   3.387   1.783
 6761TIP3    H120226   1.754   3.471   1.747
 6761TIP3    H220227   1.786   3.323   1.744
 6762TIP3   OH220228   4.121   1.870   4.001
 6762TIP3    H120229   4.108   1.951   3.952
 6762TIP3    H220230   4.212   1.874   4.031
 6763TIP3   OH220231   3.245   0.394   2.398
 6763TIP3    H120232   3.161   0.405   2.354
 6763TIP3    H220233   3.248   0.466   2.461
 6764TIP3   OH220234   1.369   3.858   2.884
 6764TIP3    H120235   1.423   3.833   2.809
 6764TIP3    H220236   1.313   3.783   2.900
 6765TIP3   OH220237   7.003   2.380   2.977
 6765TIP3    H120238   6.972   2.377   2.886
 6765TIP3    H220239   7.017   2.473   2.994
 6766TIP3   OH220240   2.138   0.521   5.763
 6766TIP3    H120241   2.116   0.582   5.833
 6766TIP3    H220242   2.234   0.520   5.762
 6767TIP3   OH220243   0.970   1.078   5.088
 6767TIP3    H120244   1.063   1.087   5.107
 6767TIP3    H220245   0.939   1.010   5.148
 6768TIP3   OH220246   1.482   1.388   2.912
 6768TIP3    H120247   1.482   1.292   2.910
 6768TIP3    H220248   1.398   1.412   2.950
 6769TIP3   OH220249   5.224   6.983   0.435
 6769TIP3    H120250   5.239   7.044   0.363
 6769TIP3    H220251   5.129   6.972   0.437
 6770TIP3   OH220252   1.332   2.336   1.311
 6770TIP3    H120253   1.376   2.416   1.339
 6770TIP3    H220254   1.249   2.336   1.358
 6771TIP3   OH220255   4.037   4.269   0.560
 6771TIP3    H120256   3.968   4.271   0.627
 6771TIP3    H220257   4.093   4.196   0.586
 6772TIP3   OH220258   4.623   1.151   4.153
 6772TIP3    H120259   4.690   1.121   4.215
 6772TIP3    H220260   4.603   1.074   4.100
 6773TIP3   OH220261   0.142   3.361   1.204
 6773TIP3    H120262   0.154   3.366   1.298
 6773TIP3    H220263   0.222   3.398   1.167
 6774TIP3   OH220264   3.997   6.668   5.401
 6774TIP3    H120265   3.957   6.607   5.339
 6774TIP3    H220266   4.086   6.681   5.369
 6775TIP3   OH220267   3.936   4.206   2.259
 6775TIP3    H120268   4.029   4.230   2.257
 6775TIP3    H220269   3.918   4.188   2.351
 6776TIP3   OH220270   3.601   0.012   0.421
 6776TIP3    H120271   3.518  -0.037   0.423
 6776TIP3    H220272   3.577   0.099   0.388
 6777TIP3   OH220273   4.441   6.168   5.546
 6777TIP3    H120274   4.424   6.074   5.556
 6777TIP3    H220275   4.380   6.195   5.477
 6778TIP3   OH220276   2.741   3.890   1.887
 6778TIP3    H120277   2.799   3.958   1.852
 6778TIP3    H220278   2.653   3.925   1.877
 6779TIP3   OH220279   0.035   6.048   6.128
 6779TIP3    H120280  -0.057   6.073   6.121
 6779TIP3    H220281   0.047   5.981   6.060
 6780TIP3   OH220282   2.788   6.200   5.817
 6780TIP3    H120283   2.728   6.272   5.836
 6780TIP3    H220284   2.766   6.172   5.729
 6781TIP3   OH220285   0.956   5.411   0.680
 6781TIP3    H120286   1.047   5.420   0.707
 6781TIP3    H220287   0.941   5.316   0.678
 6782TIP3   OH220288   6.243   5.699   0.727
 6782TIP3    H120289   6.253   5.752   0.805
 6782TIP3    H220290   6.331   5.696   0.688
 6783TIP3   OH220291   5.843   5.634   1.085
 6783TIP3    H120292   5.774   5.629   1.151
 6783TIP3    H220293   5.916   5.586   1.122
 6784TIP3   OH220294   4.052   6.351   0.120
 6784TIP3    H120295   4.024   6.396   0.040
 6784TIP3    H220296   3.972   6.344   0.172
 6785TIP3   OH220297   3.488   1.862   2.719
 6785TIP3    H120298   3.446   1.921   2.657
 6785TIP3    H220299   3.582   1.876   2.706
 6786TIP3   OH220300   6.975   6.690   3.089
 6786TIP3    H120301   7.002   6.621   3.150
 6786TIP3    H220302   7.050   6.749   3.084
 6787TIP3   OH220303   0.810   0.105   4.788
 6787TIP3    H120304   0.877   0.148   4.735
 6787TIP3    H220305   0.813   0.149   4.872
 6788TIP3   OH220306   5.928   2.686   2.111
 6788TIP3    H120307   5.893   2.756   2.167
 6788TIP3    H220308   5.851   2.633   2.089
 6789TIP3   OH220309   6.275   0.422   3.334
 6789TIP3    H120310   6.232   0.337   3.325
 6789TIP3    H220311   6.364   0.407   3.301
 6790TIP3   OH220312   2.857   3.733   5.315
 6790TIP3    H120313   2.932   3.675   5.322
 6790TIP3    H220314   2.781   3.675   5.320
 6791TIP3   OH220315   4.965   1.105   4.062
 6791TIP3    H120316   4.934   1.114   4.153
 6791TIP3    H220317   5.001   1.191   4.041
 6792TIP3   OH220318   5.543   3.440   3.673
 6792TIP3    H120319   5.525   3.365   3.617
 6792TIP3    H220320   5.560   3.512   3.613
 6793TIP3   OH220321   2.560   5.706   5.635
 6793TIP3    H120322   2.633   5.692   5.574
 6793TIP3    H220323   2.490   5.741   5.581
 6794TIP3   OH220324   1.295   6.700   2.357
 6794TIP3    H120325   1.221   6.642   2.375
 6794TIP3    H220326   1.359   6.679   2.424
 6795TIP3   OH220327   5.671   0.016   0.613
 6795TIP3    H120328   5.600   0.076   0.592
 6795TIP3    H220329   5.627  -0.067   0.630
 6796TIP3   OH220330   2.720   5.379   0.056
 6796TIP3    H120331   2.786   5.310   0.063
 6796TIP3    H220332   2.718   5.419   0.143
 6797TIP3   OH220333   1.955   2.246   3.672
 6797TIP3    H120334   1.974   2.219   3.582
 6797TIP3    H220335   2.041   2.265   3.710
 6798TIP3   OH220336   1.865   7.059   2.604
 6798TIP3    H120337   1.961   7.066   2.600
 6798TIP3    H220338   1.844   7.081   2.695
 6799TIP3   OH220339   0.629   0.151   0.597
 6799TIP3    H120340   0.695   0.081   0.604
 6799TIP3    H220341   0.677   0.231   0.620
 6800TIP3   OH220342   7.591   5.633   2.247
 6800TIP3    H120343   7.573   5.704   2.309
 6800TIP3    H220344   7.539   5.560   2.279
 6801TIP3   OH220345   7.465   0.162   1.149
 6801TIP3    H120346   7.530   0.232   1.155
 6801TIP3    H220347   7.389   0.204   1.107
 6802TIP3   OH220348   6.604   7.323   1.208
 6802TIP3    H120349   6.693   7.343   1.239
 6802TIP3    H220350   6.586   7.389   1.142
 6803TIP3   OH220351   8.112   4.826   0.895
 6803TIP3    H120352   8.175   4.798   0.829
 6803TIP3    H220353   8.099   4.920   0.878
 6804TIP3   OH220354   3.701   0.617   5.757
 6804TIP3    H120355   3.761   0.628   5.683
 6804TIP3    H220356   3.747   0.659   5.830
 6805TIP3   OH220357   3.834   3.246   3.806
 6805TIP3    H120358   3.763   3.250   3.743
 6805TIP3    H220359   3.906   3.295   3.765
 6806TIP3   OH220360   7.075   1.066   1.241
 6806TIP3    H120361   7.085   1.048   1.148
 6806TIP3    H220362   7.163   1.087   1.271
 6807TIP3   OH220363   0.425   0.599   5.486
 6807TIP3    H120364   0.399   0.568   5.400
 6807TIP3    H220365   0.430   0.519   5.540
 6808TIP3   OH220366   5.150   1.280   2.850
 6808TIP3    H120367   5.165   1.230   2.930
 6808TIP3    H220368   5.129   1.214   2.783
 6809TIP3   OH220369   8.261   6.056   0.593
 6809TIP3    H120370   8.316   6.035   0.518
 6809TIP3    H220371   8.193   5.989   0.594
 6810TIP3   OH220372   2.147   2.839   2.448
 6810TIP3    H120373   2.150   2.818   2.354
 6810TIP3    H220374   2.237   2.826   2.478
 6811TIP3   OH220375   4.475   6.939   6.007
 6811TIP3    H120376   4.544   6.957   6.070
 6811TIP3    H220377   4.425   7.020   6.003
 6812TIP3   OH220378   4.295   3.942   6.621
 6812TIP3    H120379   4.293   3.854   6.583
 6812TIP3    H220380   4.263   3.998   6.551
 6813TIP3   OH220381   5.573   7.074   3.930
 6813TIP3    H120382   5.501   7.127   3.895
 6813TIP3    H220383   5.543   6.983   3.919
 6814TIP3   OH220384   5.801   7.234   1.376
 6814TIP3    H120385   5.791   7.327   1.398
 6814TIP3    H220386   5.730   7.217   1.314
 6815TIP3   OH220387   7.264   6.518   2.284
 6815TIP3    H120388   7.253   6.613   2.289
 6815TIP3    H220389   7.201   6.483   2.347
 6816TIP3   OH220390   4.843   7.470   5.312
 6816TIP3    H120391   4.814   7.484   5.402
 6816TIP3    H220392   4.849   7.375   5.303
 6817TIP3   OH220393   7.308   2.408   6.631
 6817TIP3    H120394   7.320   2.416   6.726
 6817TIP3    H220395   7.371   2.470   6.594
 6818TIP3   OH220396   2.770   5.443   4.731
 6818TIP3    H120397   2.806   5.360   4.760
 6818TIP3    H220398   2.687   5.420   4.688
 6819TIP3   OH220399   3.316   2.241   6.263
 6819TIP3    H120400   3.406   2.250   6.295
 6819TIP3    H220401   3.266   2.303   6.316
 6820TIP3   OH220402   5.690   6.515   2.723
 6820TIP3    H120403   5.635   6.567   2.665
 6820TIP3    H220404   5.711   6.437   2.672
 6821TIP3   OH220405   6.682   3.013   4.048
 6821TIP3    H120406   6.776   3.029   4.058
 6821TIP3    H220407   6.641   3.074   4.109
 6822TIP3   OH220408   2.418   3.678   4.305
 6822TIP3    H120409   2.382   3.766   4.294
 6822TIP3    H220410   2.413   3.662   4.400
 6823TIP3   OH220411   5.004   3.735   5.989
 6823TIP3    H120412   4.979   3.827   5.995
 6823TIP3    H220413   4.998   3.715   5.896
 6824TIP3   OH220414   6.121   2.687   1.907
 6824TIP3    H120415   6.132   2.594   1.887
 6824TIP3    H220416   6.041   2.691   1.960
 6825TIP3   OH220417   7.616   5.833   0.157
 6825TIP3    H120418   7.618   5.808   0.250
 6825TIP3    H220419   7.528   5.807   0.128
 6826TIP3   OH220420   1.314   3.204   2.424
 6826TIP3    H120421   1.369   3.155   2.485
 6826TIP3    H220422   1.342   3.295   2.434
 6827TIP3   OH220423   0.459   7.169   3.142
 6827TIP3    H120424   0.452   7.079   3.110
 6827TIP3    H220425   0.436   7.223   3.067
 6828TIP3   OH220426   1.003   0.101   6.756
 6828TIP3    H120427   1.029   0.137   6.671
 6828TIP3    H220428   1.077   0.047   6.783
 6829TIP3   OH220429   4.066   3.344   1.271
 6829TIP3    H120430   4.091   3.286   1.343
 6829TIP3    H220431   4.054   3.430   1.312
 6830TIP3   OH220432   1.138   6.698   6.038
 6830TIP3    H120433   1.188   6.779   6.035
 6830TIP3    H220434   1.183   6.640   5.976
 6831TIP3   OH220435   0.214   3.320   1.861
 6831TIP3    H120436   0.240   3.385   1.796
 6831TIP3    H220437   0.185   3.244   1.809
 6832TIP3   OH220438   0.843   7.504   5.897
 6832TIP3    H120439   0.894   7.432   5.934
 6832TIP3    H220440   0.769   7.461   5.854
 6833TIP3   OH220441   5.399   3.098   4.714
 6833TIP3    H120442   5.318   3.071   4.671
 6833TIP3    H220443   5.425   3.178   4.669
 6834TIP3   OH220444   6.461   4.583   3.460
 6834TIP3    H120445   6.451   4.536   3.378
 6834TIP3    H220446   6.554   4.579   3.479
 6835TIP3   OH220447   7.055   6.988   0.289
 6835TIP3    H120448   7.142   6.951   0.277
 6835TIP3    H220449   7.000   6.912   0.311
 6836TIP3   OH220450   1.064   5.260   3.676
 6836TIP3    H120451   0.999   5.193   3.655
 6836TIP3    H220452   1.035   5.338   3.629
 6837TIP3   OH220453   2.764   2.130   6.712
 6837TIP3    H120454   2.736   2.088   6.630
 6837TIP3    H220455   2.842   2.180   6.688
 6838TIP3   OH220456   7.175   3.560   6.078
 6838TIP3    H120457   7.106   3.499   6.105
 6838TIP3    H220458   7.136   3.609   6.006
 6839TIP3   OH220459   3.032   2.778   2.370
 6839TIP3    H120460   3.011   2.861   2.327
 6839TIP3    H220461   2.982   2.712   2.322
 6840TIP3   OH220462   6.710   2.719   2.658
 6840TIP3    H120463   6.778   2.665   2.616
 6840TIP3    H220464   6.660   2.756   2.586
 6841TIP3   OH220465   2.906   0.569   4.904
 6841TIP3    H120466   2.899   0.653   4.861
 6841TIP3    H220467   2.953   0.513   4.842
 6842TIP3   OH220468   8.003   6.151   1.095
 6842TIP3    H120469   8.015   6.127   1.003
 6842TIP3    H220470   7.911   6.134   1.113
 6843TIP3   OH220471   1.321   6.592   1.467
 6843TIP3    H120472   1.346   6.679   1.499
 6843TIP3    H220473   1.387   6.533   1.503
 6844TIP3   OH220474   2.449   4.475   6.379
 6844TIP3    H120475   2.540   4.501   6.362
 6844TIP3    H220476   2.446   4.460   6.474
 6845TIP3   OH220477   3.469   7.748   1.241
 6845TIP3    H120478   3.510   7.731   1.156
 6845TIP3    H220479   3.529   7.808   1.285
 6846TIP3   OH220480   1.784   1.109   4.559
 6846TIP3    H120481   1.718   1.060   4.609
 6846TIP3    H220482   1.735   1.145   4.485
 6847TIP3   OH220483   2.792   1.472   4.594
 6847TIP3    H120484   2.817   1.552   4.642
 6847TIP3    H220485   2.792   1.498   4.502
 6848TIP3   OH220486   8.003   3.283   5.924
 6848TIP3    H120487   7.967   3.235   5.850
 6848TIP3    H220488   8.095   3.256   5.929
 6849TIP3   OH220489   1.079   0.373   1.239
 6849TIP3    H120490   1.029   0.306   1.192
 6849TIP3    H220491   1.132   0.414   1.170
 6850TIP3   OH220492   5.169   1.603   1.343
 6850TIP3    H120493   5.112   1.667   1.384
 6850TIP3    H220494   5.255   1.618   1.382
 6851TIP3   OH220495   1.906   6.813   1.489
 6851TIP3    H120496   1.959   6.752   1.437
 6851TIP3    H220497   1.964   6.837   1.562
 6852TIP3   OH220498   0.665   4.819   0.097
 6852TIP3    H120499   0.640   4.734   0.134
 6852TIP3    H220500   0.689   4.799   0.007
 6853TIP3   OH220501   0.327   7.455   1.216
 6853TIP3    H120502   0.393   7.510   1.258
 6853TIP3    H220503   0.323   7.487   1.125
 6854TIP3   OH220504   3.675   2.947   2.475
 6854TIP3    H120505   3.595   2.999   2.477
 6854TIP3    H220506   3.740   3.005   2.436
 6855TIP3   OH220507   4.327   2.633   3.661
 6855TIP3    H120508   4.385   2.709   3.658
 6855TIP3    H220509   4.239   2.670   3.660
 6856TIP3   OH220510   6.999   4.544   1.766
 6856TIP3    H120511   6.925   4.485   1.749
 6856TIP3    H220512   6.972   4.596   1.841
 6857TIP3   OH220513   7.009   6.690   2.046
 6857TIP3    H120514   6.955   6.680   2.124
 6857TIP3    H220515   7.095   6.715   2.079
 6858TIP3   OH220516   0.293   5.931   5.463
 6858TIP3    H120517   0.276   6.023   5.441
 6858TIP3    H220518   0.245   5.917   5.545
 6859TIP3   OH220519   5.478   7.688   1.821
 6859TIP3    H120520   5.429   7.701   1.740
 6859TIP3    H220521   5.411   7.676   1.888
 6860TIP3   OH220522   2.818   4.591   1.288
 6860TIP3    H120523   2.722   4.585   1.295
 6860TIP3    H220524   2.851   4.554   1.369
 6861TIP3   OH220525   6.261   0.445   1.443
 6861TIP3    H120526   6.281   0.386   1.369
 6861TIP3    H220527   6.322   0.418   1.512
 6862TIP3   OH220528   2.331   0.291   4.246
 6862TIP3    H120529   2.310   0.210   4.201
 6862TIP3    H220530   2.401   0.267   4.307
 6863TIP3   OH220531   2.237   4.618   2.501
 6863TIP3    H120532   2.182   4.690   2.469
 6863TIP3    H220533   2.321   4.660   2.522
 6864TIP3   OH220534   4.020   5.464   6.250
 6864TIP3    H120535   3.928   5.477   6.273
 6864TIP3    H220536   4.067   5.482   6.332
 6865TIP3   OH220537   5.124   5.822   1.632
 6865TIP3    H120538   5.091   5.733   1.641
 6865TIP3    H220539   5.182   5.819   1.555
 6866TIP3   OH220540   6.320   7.532   4.239
 6866TIP3    H120541   6.297   7.478   4.162
 6866TIP3    H220542   6.415   7.528   4.244
 6867TIP3   OH220543   7.489   5.836   1.316
 6867TIP3    H120544   7.396   5.848   1.298
 6867TIP3    H220545   7.507   5.895   1.389
 6868TIP3   OH220546   5.059   2.599   3.984
 6868TIP3    H120547   5.025   2.596   4.073
 6868TIP3    H220548   4.984   2.621   3.930
 6869TIP3   OH220549   1.102   0.378   6.227
 6869TIP3    H120550   1.168   0.384   6.297
 6869TIP3    H220551   1.073   0.468   6.214
 6870TIP3   OH220552   6.475   1.027   5.706
 6870TIP3    H120553   6.394   0.979   5.723
 6870TIP3    H220554   6.539   0.959   5.682
 6871TIP3   OH220555   1.532   0.358   1.000
 6871TIP3    H120556   1.514   0.447   0.970
 6871TIP3    H220557   1.453   0.309   0.978
 6872TIP3   OH220558   7.627   0.020   5.924
 6872TIP3    H120559   7.556   0.083   5.918
 6872TIP3    H220560   7.674   0.028   5.841
 6873TIP3   OH220561   2.969   2.168   3.172
 6873TIP3    H120562   3.007   2.211   3.249
 6873TIP3    H220563   2.877   2.196   3.172
 6874TIP3   OH220564   0.329   7.500   3.473
 6874TIP3    H120565   0.379   7.490   3.554
 6874TIP3    H220566   0.355   7.426   3.419
 6875TIP3   OH220567   3.786   6.965   0.193
 6875TIP3    H120568   3.702   6.950   0.150
 6875TIP3    H220569   3.773   7.044   0.246
 6876TIP3   OH220570   1.136   4.345   0.469
 6876TIP3    H120571   1.194   4.276   0.439
 6876TIP3    H220572   1.057   4.334   0.416
 6877TIP3   OH220573   4.054   7.782   1.116
 6877TIP3    H120574   4.140   7.824   1.105
 6877TIP3    H220575   4.015   7.784   1.029
 6878TIP3   OH220576   0.669   1.248   2.688
 6878TIP3    H120577   0.705   1.335   2.667
 6878TIP3    H220578   0.598   1.235   2.626
 6879TIP3   OH220579   7.612   6.269   0.770
 6879TIP3    H120580   7.530   6.312   0.796
 6879TIP3    H220581   7.676   6.339   0.764
 6880TIP3   OH220582   2.101   2.531   5.308
 6880TIP3    H120583   2.135   2.454   5.352
 6880TIP3    H220584   2.177   2.570   5.264
 6881TIP3   OH220585   4.893   4.392   5.581
 6881TIP3    H120586   4.940   4.401   5.663
 6881TIP3    H220587   4.957   4.358   5.519
 6882TIP3   OH220588   7.042   7.469   6.483
 6882TIP3    H120589   7.106   7.540   6.478
 6882TIP3    H220590   7.043   7.428   6.397
 6883TIP3   OH220591   6.067   4.406   6.416
 6883TIP3    H120592   6.155   4.423   6.383
 6883TIP3    H220593   6.036   4.331   6.366
 6884TIP3   OH220594   0.677   7.026   5.231
 6884TIP3    H120595   0.618   7.041   5.157
 6884TIP3    H220596   0.757   7.073   5.207
 6885TIP3   OH220597   4.286   1.203   6.657
 6885TIP3    H120598   4.209   1.229   6.707
 6885TIP3    H220599   4.318   1.124   6.701
 6886TIP3   OH220600   7.356   0.754   6.164
 6886TIP3    H120601   7.289   0.813   6.199
 6886TIP3    H220602   7.314   0.668   6.163
 6887TIP3   OH220603   6.479   3.709   4.448
 6887TIP3    H120604   6.387   3.688   4.430
 6887TIP3    H220605   6.507   3.760   4.372
 6888TIP3   OH220606   6.943   5.443   3.483
 6888TIP3    H120607   6.934   5.535   3.504
 6888TIP3    H220608   6.974   5.441   3.393
 6889TIP3   OH220609   4.312   2.616   0.979
 6889TIP3    H120610   4.354   2.672   1.044
 6889TIP3    H220611   4.377   2.608   0.909
 6890TIP3   OH220612   7.281   3.025   4.008
 6890TIP3    H120613   7.246   2.954   4.060
 6890TIP3    H220614   7.351   2.985   3.956
 6891TIP3   OH220615   6.394   4.655   6.459
 6891TIP3    H120616   6.459   4.705   6.508
 6891TIP3    H220617   6.355   4.595   6.523
 6892TIP3   OH220618   5.871   5.135   3.423
 6892TIP3    H120619   5.831   5.169   3.344
 6892TIP3    H220620   5.826   5.052   3.439
 6893TIP3   OH220621   0.378   4.807   3.836
 6893TIP3    H120622   0.323   4.743   3.790
 6893TIP3    H220623   0.322   4.838   3.908
 6894TIP3   OH220624   3.218   1.036   0.923
 6894TIP3    H120625   3.247   1.078   1.005
 6894TIP3    H220626   3.124   1.050   0.921
 6895TIP3   OH220627   4.379   1.503   2.783
 6895TIP3    H120628   4.454   1.453   2.751
 6895TIP3    H220629   4.407   1.536   2.868
 6896TIP3   OH220630   3.401   1.338   3.715
 6896TIP3    H120631   3.437   1.359   3.629
 6896TIP3    H220632   3.451   1.393   3.775
 6897TIP3   OH220633   1.262   4.897   2.850
 6897TIP3    H120634   1.202   4.943   2.909
 6897TIP3    H220635   1.288   4.819   2.898
 6898TIP3   OH220636   1.799   5.321   2.704
 6898TIP3    H120637   1.845   5.405   2.694
 6898TIP3    H220638   1.789   5.311   2.798
 6899TIP3   OH220639   0.780   0.188   3.143
 6899TIP3    H120640   0.831   0.265   3.170
 6899TIP3    H220641   0.816   0.117   3.196
 6900TIP3   OH220642   6.439   2.217   0.011
 6900TIP3    H120643   6.491   2.262   0.078
 6900TIP3    H220644   6.499   2.153  -0.027
 6901TIP3   OH220645   7.945   3.483   2.143
 6901TIP3    H120646   8.001   3.408   2.164
 6901TIP3    H220647   7.868   3.444   2.101
 6902TIP3   OH220648   4.540   6.617   3.651
 6902TIP3    H120649   4.573   6.543   3.601
 6902TIP3    H220650   4.486   6.578   3.720
 6903TIP3   OH220651   5.522   0.439   3.361
 6903TIP3    H120652   5.491   0.506   3.422
 6903TIP3    H220653   5.596   0.478   3.317
 6904TIP3   OH220654   4.283   1.957   5.020
 6904TIP3    H120655   4.324   2.018   5.081
 6904TIP3    H220656   4.354   1.898   4.994
 6905TIP3   OH220657   3.317   2.707   2.395
 6905TIP3    H120658   3.237   2.760   2.393
 6905TIP3    H220659   3.318   2.661   2.312
 6906TIP3   OH220660   3.041   1.001   6.140
 6906TIP3    H120661   2.972   1.002   6.207
 6906TIP3    H220662   3.121   1.021   6.188
 6907TIP3   OH220663   5.272   2.750   1.636
 6907TIP3    H120664   5.278   2.657   1.611
 6907TIP3    H220665   5.178   2.767   1.638
 6908TIP3   OH220666   1.813   4.594   0.929
 6908TIP3    H120667   1.762   4.669   0.898
 6908TIP3    H220668   1.832   4.614   1.021
 6909TIP3   OH220669   6.803   0.573   0.863
 6909TIP3    H120670   6.785   0.503   0.926
 6909TIP3    H220671   6.744   0.554   0.789
 6910TIP3   OH220672   5.003   4.878   2.222
 6910TIP3    H120673   4.940   4.821   2.178
 6910TIP3    H220674   4.953   4.956   2.246
 6911TIP3   OH220675   1.899   5.639   4.173
 6911TIP3    H120676   1.936   5.712   4.122
 6911TIP3    H220677   1.865   5.579   4.107
 6912TIP3   OH220678   4.157   4.847   1.027
 6912TIP3    H120679   4.158   4.939   1.056
 6912TIP3    H220680   4.138   4.797   1.106
 6913TIP3   OH220681   2.334   3.628   2.443
 6913TIP3    H120682   2.291   3.575   2.511
 6913TIP3    H220683   2.270   3.631   2.371
 6914TIP3   OH220684   4.836   6.201   0.563
 6914TIP3    H120685   4.843   6.154   0.480
 6914TIP3    H220686   4.769   6.268   0.547
 6915TIP3   OH220687   6.142   5.740   2.237
 6915TIP3    H120688   6.147   5.678   2.164
 6915TIP3    H220689   6.048   5.753   2.250
 6916TIP3   OH220690   5.527   3.346   2.794
 6916TIP3    H120691   5.483   3.360   2.878
 6916TIP3    H220692   5.574   3.428   2.777
 6917TIP3   OH220693   5.040   4.107   1.978
 6917TIP3    H120694   5.029   4.072   2.066
 6917TIP3    H220695   5.120   4.067   1.945
 6918TIP3   OH220696   0.990   7.776   5.591
 6918TIP3    H120697   0.948   7.832   5.525
 6918TIP3    H220698   0.984   7.688   5.555
 6919TIP3   OH220699   4.323   3.141   1.678
 6919TIP3    H120700   4.408   3.142   1.722
 6919TIP3    H220701   4.332   3.074   1.610
 6920TIP3   OH220702   2.595   5.718   1.352
 6920TIP3    H120703   2.688   5.712   1.374
 6920TIP3    H220704   2.554   5.748   1.433
 6921TIP3   OH220705   1.768   1.261   5.924
 6921TIP3    H120706   1.848   1.209   5.930
 6921TIP3    H220707   1.747   1.263   5.830
 6922TIP3   OH220708   7.535   1.014   0.576
 6922TIP3    H120709   7.573   1.067   0.646
 6922TIP3    H220710   7.552   1.064   0.496
 6923TIP3   OH220711   5.299   3.435   0.077
 6923TIP3    H120712   5.278   3.454  -0.015
 6923TIP3    H220713   5.340   3.515   0.109
 6924TIP3   OH220714   7.672   6.268   0.295
 6924TIP3    H120715   7.707   6.290   0.209
 6924TIP3    H220716   7.735   6.206   0.332
 6925TIP3   OH220717   6.056   0.416   3.748
 6925TIP3    H120718   6.079   0.481   3.815
 6925TIP3    H220719   6.056   0.333   3.795
 6926TIP3   OH220720   5.699   0.405   2.672
 6926TIP3    H120721   5.633   0.470   2.650
 6926TIP3    H220722   5.704   0.348   2.595
 6927TIP3   OH220723   2.759   6.498   3.869
 6927TIP3    H120724   2.773   6.524   3.778
 6927TIP3    H220725   2.802   6.567   3.921
 6928TIP3   OH220726   3.994   4.694   0.121
 6928TIP3    H120727   3.964   4.727   0.036
 6928TIP3    H220728   4.055   4.760   0.152
 6929TIP3   OH220729   7.583   1.313   1.804
 6929TIP3    H120730   7.519   1.326   1.874
 6929TIP3    H220731   7.635   1.394   1.804
 6930TIP3   OH220732   4.220   7.383   0.411
 6930TIP3    H120733   4.133   7.413   0.384
 6930TIP3    H220734   4.237   7.308   0.354
 6931TIP3   OH220735   4.012   5.708   4.127
 6931TIP3    H120736   4.013   5.719   4.222
 6931TIP3    H220737   3.999   5.614   4.114
 6932TIP3   OH220738   1.811   3.000   2.905
 6932TIP3    H120739   1.816   2.928   2.968
 6932TIP3    H220740   1.848   3.075   2.951
 6933TIP3   OH220741   2.767   7.601   0.335
 6933TIP3    H120742   2.764   7.506   0.326
 6933TIP3    H220743   2.733   7.619   0.422
 6934TIP3   OH220744   0.794   2.840   5.841
 6934TIP3    H120745   0.857   2.913   5.847
 6934TIP3    H220746   0.710   2.880   5.863
 6935TIP3   OH220747   0.204   3.844   0.625
 6935TIP3    H120748   0.248   3.897   0.559
 6935TIP3    H220749   0.262   3.769   0.638
 6936TIP3   OH220750   6.585   2.754   4.054
 6936TIP3    H120751   6.620   2.722   4.138
 6936TIP3    H220752   6.624   2.841   4.043
 6937TIP3   OH220753   8.026   0.414   2.553
 6937TIP3    H120754   8.086   0.384   2.621
 6937TIP3    H220755   8.025   0.509   2.561
 6938TIP3   OH220756   6.751   7.338   6.411
 6938TIP3    H120757   6.812   7.325   6.338
 6938TIP3    H220758   6.793   7.298   6.486
 6939TIP3   OH220759   1.684   1.412   1.421
 6939TIP3    H120760   1.779   1.404   1.415
 6939TIP3    H220761   1.664   1.497   1.383
 6940TIP3   OH220762   5.071   3.358   5.634
 6940TIP3    H120763   5.151   3.359   5.687
 6940TIP3    H220764   5.009   3.305   5.684
 6941TIP3   OH220765   8.033   5.148   1.177
 6941TIP3    H120766   7.945   5.141   1.139
 6941TIP3    H220767   8.046   5.242   1.190
 6942TIP3   OH220768   7.683   0.792   4.400
 6942TIP3    H120769   7.666   0.728   4.330
 6942TIP3    H220770   7.622   0.863   4.382
 6943TIP3   OH220771   1.368   4.485   1.725
 6943TIP3    H120772   1.453   4.453   1.696
 6943TIP3    H220773   1.385   4.573   1.758
 6944TIP3   OH220774   4.451   0.809   0.513
 6944TIP3    H120775   4.428   0.780   0.602
 6944TIP3    H220776   4.531   0.763   0.493
 6945TIP3   OH220777   5.317   3.313   0.331
 6945TIP3    H120778   5.354   3.225   0.322
 6945TIP3    H220779   5.298   3.340   0.241
 6946TIP3   OH220780   4.572   5.948   5.240
 6946TIP3    H120781   4.647   5.954   5.180
 6946TIP3    H220782   4.584   6.022   5.300
 6947TIP3   OH220783   6.443   4.681   0.032
 6947TIP3    H120784   6.361   4.633   0.044
 6947TIP3    H220785   6.500   4.620  -0.014
 6948TIP3   OH220786   0.225   4.526   3.513
 6948TIP3    H120787   0.220   4.433   3.490
 6948TIP3    H220788   0.190   4.530   3.602
 6949TIP3   OH220789   1.258   2.556   0.096
 6949TIP3    H120790   1.249   2.575   0.003
 6949TIP3    H220791   1.170   2.567   0.132
 6950TIP3   OH220792   4.363   4.858   6.646
 6950TIP3    H120793   4.340   4.825   6.559
 6950TIP3    H220794   4.289   4.913   6.671
 6951TIP3   OH220795   1.680   6.945   1.514
 6951TIP3    H120796   1.709   7.036   1.510
 6951TIP3    H220797   1.760   6.894   1.529
 6952TIP3   OH220798   2.436   3.454   3.772
 6952TIP3    H120799   2.365   3.398   3.742
 6952TIP3    H220800   2.487   3.474   3.694
 6953TIP3   OH220801   1.548   3.156   6.098
 6953TIP3    H120802   1.584   3.207   6.170
 6953TIP3    H220803   1.540   3.219   6.026
 6954TIP3   OH220804   0.841   4.510   3.444
 6954TIP3    H120805   0.878   4.596   3.465
 6954TIP3    H220806   0.880   4.451   3.507
 6955TIP3   OH220807   4.227   5.700   2.097
 6955TIP3    H120808   4.233   5.780   2.150
 6955TIP3    H220809   4.151   5.654   2.132
 6956TIP3   OH220810   1.871   4.148   5.208
 6956TIP3    H120811   1.878   4.053   5.220
 6956TIP3    H220812   1.782   4.160   5.174
 6957TIP3   OH220813   1.735   0.928   1.284
 6957TIP3    H120814   1.736   1.007   1.230
 6957TIP3    H220815   1.796   0.947   1.355
 6958TIP3   OH220816   6.132   3.853   4.096
 6958TIP3    H120817   6.147   3.911   4.171
 6958TIP3    H220818   6.187   3.777   4.113
 6959TIP3   OH220819   8.205   5.594   2.910
 6959TIP3    H120820   8.231   5.612   3.000
 6959TIP3    H220821   8.186   5.500   2.909
 6960TIP3   OH220822   0.637   4.844   2.290
 6960TIP3    H120823   0.603   4.850   2.201
 6960TIP3    H220824   0.682   4.927   2.304
 6961TIP3   OH220825   7.177   3.749   1.674
 6961TIP3    H120826   7.247   3.756   1.608
 6961TIP3    H220827   7.206   3.807   1.745
 6962TIP3   OH220828   4.770   4.889   1.653
 6962TIP3    H120829   4.676   4.887   1.633
 6962TIP3    H220830   4.774   4.907   1.747
 6963TIP3   OH220831   5.477   2.879   0.675
 6963TIP3    H120832   5.569   2.856   0.689
 6963TIP3    H220833   5.428   2.817   0.731
 6964TIP3   OH220834   6.655   5.834   0.486
 6964TIP3    H120835   6.643   5.900   0.418
 6964TIP3    H220836   6.706   5.765   0.444
 6965TIP3   OH220837   6.101   5.123   3.086
 6965TIP3    H120838   6.039   5.050   3.087
 6965TIP3    H220839   6.158   5.108   3.162
 6966TIP3   OH220840   6.406   0.895   0.420
 6966TIP3    H120841   6.388   0.806   0.448
 6966TIP3    H220842   6.369   0.901   0.332
 6967TIP3   OH220843   1.023   5.071   4.436
 6967TIP3    H120844   1.010   5.163   4.460
 6967TIP3    H220845   1.009   5.069   4.341
 6968TIP3   OH220846   5.507   1.277   6.049
 6968TIP3    H120847   5.499   1.182   6.056
 6968TIP3    H220848   5.459   1.311   6.124
 6969TIP3   OH220849   2.123   0.453   0.613
 6969TIP3    H120850   2.158   0.407   0.536
 6969TIP3    H220851   2.043   0.405   0.635
 6970TIP3   OH220852   6.570   6.329   1.640
 6970TIP3    H120853   6.479   6.333   1.669
 6970TIP3    H220854   6.589   6.416   1.607
 6971TIP3   OH220855   6.206   7.778   4.243
 6971TIP3    H120856   6.269   7.843   4.210
 6971TIP3    H220857   6.257   7.697   4.248
 6972TIP3   OH220858   3.946   3.432   6.315
 6972TIP3    H120859   3.996   3.415   6.235
 6972TIP3    H220860   3.906   3.518   6.302
 6973TIP3   OH220861   1.774   5.851   0.216
 6973TIP3    H120862   1.832   5.869   0.290
 6973TIP3    H220863   1.811   5.774   0.174
 6974TIP3   OH220864   3.894   2.171   0.501
 6974TIP3    H120865   3.908   2.119   0.580
 6974TIP3    H220866   3.831   2.121   0.450
 6975TIP3   OH220867   0.577   4.721   0.472
 6975TIP3    H120868   0.561   4.813   0.494
 6975TIP3    H220869   0.514   4.672   0.526
 6976TIP3   OH220870   1.639   1.630   5.402
 6976TIP3    H120871   1.682   1.623   5.317
 6976TIP3    H220872   1.609   1.541   5.421
 6977TIP3   OH220873   7.832   1.279   5.340
 6977TIP3    H120874   7.825   1.184   5.341
 6977TIP3    H220875   7.750   1.309   5.301
 6978TIP3   OH220876   7.679   2.060   0.064
 6978TIP3    H120877   7.583   2.057   0.064
 6978TIP3    H220878   7.704   2.008   0.140
 6979TIP3   OH220879   1.005   7.779   1.511
 6979TIP3    H120880   0.997   7.749   1.601
 6979TIP3    H220881   1.100   7.785   1.496
 6980TIP3   OH220882   1.665   1.655   0.233
 6980TIP3    H120883   1.673   1.739   0.277
 6980TIP3    H220884   1.579   1.657   0.191
 6981TIP3   OH220885   2.476   7.408   0.263
 6981TIP3    H120886   2.538   7.428   0.192
 6981TIP3    H220887   2.394   7.390   0.217
 6982TIP3   OH220888   1.956   7.746   0.569
 6982TIP3    H120889   1.947   7.657   0.604
 6982TIP3    H220890   1.876   7.758   0.517
 6983TIP3   OH220891   7.984   5.420   4.220
 6983TIP3    H120892   8.033   5.393   4.142
 6983TIP3    H220893   8.024   5.503   4.245
 6984TIP3   OH220894   2.371   7.188   5.430
 6984TIP3    H120895   2.419   7.176   5.348
 6984TIP3    H220896   2.391   7.277   5.457
 6985TIP3   OH220897   3.757   5.714   5.385
 6985TIP3    H120898   3.814   5.762   5.325
 6985TIP3    H220899   3.764   5.623   5.358
 6986TIP3   OH220900   1.458   2.690   5.761
 6986TIP3    H120901   1.443   2.757   5.694
 6986TIP3    H220902   1.374   2.681   5.805
 6987TIP3   OH220903   1.117   2.370   2.107
 6987TIP3    H120904   1.025   2.347   2.119
 6987TIP3    H220905   1.162   2.327   2.180
 6988TIP3   OH220906   7.374   1.886   2.035
 6988TIP3    H120907   7.337   1.968   2.002
 6988TIP3    H220908   7.364   1.892   2.130
 6989TIP3   OH220909   2.677   7.653   3.341
 6989TIP3    H120910   2.664   7.636   3.247
 6989TIP3    H220911   2.625   7.731   3.358
 6990TIP3   OH220912   1.731   5.533   6.572
 6990TIP3    H120913   1.645   5.551   6.534
 6990TIP3    H220914   1.767   5.463   6.517
 6991TIP3   OH220915   2.220   4.349   2.579
 6991TIP3    H120916   2.211   4.428   2.526
 6991TIP3    H220917   2.310   4.319   2.562
 6992TIP3   OH220918   6.463   5.831   6.382
 6992TIP3    H120919   6.475   5.836   6.477
 6992TIP3    H220920   6.372   5.857   6.368
 6993TIP3   OH220921   4.259   5.358   5.190
 6993TIP3    H120922   4.191   5.424   5.201
 6993TIP3    H220923   4.312   5.389   5.117
 6994TIP3   OH220924   6.015   0.088   1.441
 6994TIP3    H120925   5.931   0.060   1.405
 6994TIP3    H220926   6.059   0.132   1.368
 6995TIP3   OH220927   6.694   3.455   1.079
 6995TIP3    H120928   6.704   3.391   1.149
 6995TIP3    H220929   6.694   3.540   1.124
 6996TIP3   OH220930   4.387   1.392   4.908
 6996TIP3    H120931   4.370   1.485   4.896
 6996TIP3    H220932   4.481   1.383   4.891
 6997TIP3   OH220933   2.039   1.170   5.725
 6997TIP3    H120934   2.038   1.148   5.818
 6997TIP3    H220935   2.042   1.266   5.723
 6998TIP3   OH220936   3.072   7.695   1.885
 6998TIP3    H120937   2.977   7.704   1.884
 6998TIP3    H220938   3.093   7.662   1.972
 6999TIP3   OH220939   4.986   1.873   6.187
 6999TIP3    H120940   5.019   1.790   6.154
 6999TIP3    H220941   4.963   1.856   6.278
 7000TIP3   OH220942   0.348   2.717   1.682
 7000TIP3    H120943   0.422   2.656   1.679
 7000TIP3    H220944   0.341   2.742   1.774
 7001TIP3   OH220945   1.751   0.948   3.309
 7001TIP3    H120946   1.772   1.039   3.332
 7001TIP3    H220947   1.774   0.898   3.388
 7002TIP3   OH220948   7.851   4.650   0.706
 7002TIP3    H120949   7.780   4.714   0.695
 7002TIP3    H220950   7.842   4.620   0.797
 7003TIP3   OH220951   5.767   0.101   1.154
 7003TIP3    H120952   5.767   0.035   1.223
 7003TIP3    H220953   5.718   0.061   1.082
 7004TIP3   OH220954   4.143   1.054   5.640
 7004TIP3    H120955   4.136   1.107   5.719
 7004TIP3    H220956   4.057   1.060   5.599
 7005TIP3   OH220957   3.994   3.479   0.765
 7005TIP3    H120958   3.925   3.520   0.714
 7005TIP3    H220959   3.951   3.448   0.844
 7006TIP3   OH220960   4.668   4.811   4.933
 7006TIP3    H120961   4.630   4.869   4.867
 7006TIP3    H220962   4.642   4.723   4.906
 7007TIP3   OH220963   6.508   5.731   1.294
 7007TIP3    H120964   6.422   5.740   1.336
 7007TIP3    H220965   6.488   5.702   1.205
 7008TIP3   OH220966   6.422   0.094   6.702
 7008TIP3    H120967   6.357   0.154   6.737
 7008TIP3    H220968   6.500   0.108   6.755
 7009TIP3   OH220969   7.557   1.159   5.488
 7009TIP3    H120970   7.481   1.107   5.464
 7009TIP3    H220971   7.576   1.133   5.579
 7010TIP3   OH220972   3.306   1.798   1.201
 7010TIP3    H120973   3.312   1.707   1.173
 7010TIP3    H220974   3.308   1.795   1.296
 7011TIP3   OH220975   3.335   0.185   5.561
 7011TIP3    H120976   3.327   0.124   5.634
 7011TIP3    H220977   3.425   0.175   5.531
 7012TIP3   OH220978   4.723   5.434   0.713
 7012TIP3    H120979   4.814   5.402   0.716
 7012TIP3    H220980   4.671   5.358   0.739
 7013TIP3   OH220981   2.043   5.796   3.982
 7013TIP3    H120982   2.138   5.810   3.984
 7013TIP3    H220983   2.008   5.880   3.951
 7014TIP3   OH220984   4.601   5.140   5.474
 7014TIP3    H120985   4.526   5.194   5.448
 7014TIP3    H220986   4.608   5.151   5.568
 7015TIP3   OH220987   3.465   1.665   0.637
 7015TIP3    H120988   3.507   1.615   0.568
 7015TIP3    H220989   3.536   1.691   0.695
 7016TIP3   OH220990   4.441   5.708   5.291
 7016TIP3    H120991   4.499   5.779   5.264
 7016TIP3    H220992   4.365   5.752   5.328
 7017TIP3   OH220993   7.679   7.686   1.155
 7017TIP3    H120994   7.625   7.765   1.163
 7017TIP3    H220995   7.762   7.718   1.120
 7018TIP3   OH220996   6.789   6.352   5.101
 7018TIP3    H120997   6.765   6.335   5.192
 7018TIP3    H220998   6.833   6.272   5.072
 7019TIP3   OH220999   2.532   7.283   1.446
 7019TIP3    H121000   2.477   7.361   1.441
 7019TIP3    H221001   2.610   7.305   1.395
 7020TIP3   OH221002   7.162   6.536   6.673
 7020TIP3    H121003   7.071   6.527   6.699
 7020TIP3    H221004   7.199   6.598   6.736
 7021TIP3   OH221005   8.061   4.367   0.312
 7021TIP3    H121006   8.037   4.409   0.395
 7021TIP3    H221007   7.978   4.342   0.272
 7022TIP3   OH221008   6.581   3.920   5.843
 7022TIP3    H121009   6.569   4.009   5.812
 7022TIP3    H221010   6.661   3.923   5.896
 7023TIP3   OH221011   0.881   1.971   6.681
 7023TIP3    H121012   0.976   1.977   6.672
 7023TIP3    H221013   0.859   1.885   6.646
 7024TIP3   OH221014   3.589   2.463   6.694
 7024TIP3    H121015   3.568   2.370   6.681
 7024TIP3    H221016   3.610   2.470   6.787
 7025TIP3   OH221017   3.753   1.317   4.956
 7025TIP3    H121018   3.672   1.266   4.964
 7025TIP3    H221019   3.725   1.400   4.919
 7026TIP3   OH221020   5.968   4.794   4.249
 7026TIP3    H121021   6.054   4.818   4.284
 7026TIP3    H221022   5.980   4.794   4.154
 7027TIP3   OH221023   6.183   4.354   2.464
 7027TIP3    H121024   6.120   4.419   2.493
 7027TIP3    H221025   6.170   4.280   2.523
 7028TIP3   OH221026   4.984   3.990   2.709
 7028TIP3    H121027   5.048   3.956   2.772
 7028TIP3    H221028   4.937   3.912   2.679
 7029TIP3   OH221029   3.415   3.240   5.677
 7029TIP3    H121030   3.485   3.264   5.616
 7029TIP3    H221031   3.436   3.289   5.757
 7030TIP3   OH221032   4.029   3.223   1.608
 7030TIP3    H121033   3.996   3.301   1.653
 7030TIP3    H221034   4.093   3.186   1.668
 7031TIP3   OH221035   4.238   6.864   5.577
 7031TIP3    H121036   4.267   6.846   5.666
 7031TIP3    H221037   4.253   6.782   5.529
 7032TIP3   OH221038   8.260   5.019   3.291
 7032TIP3    H121039   8.328   4.995   3.354
 7032TIP3    H221040   8.264   4.951   3.224
 7033TIP3   OH221041   5.333   0.750   5.709
 7033TIP3    H121042   5.347   0.841   5.685
 7033TIP3    H221043   5.250   0.751   5.758
 7034TIP3   OH221044   2.929   4.081   5.746
 7034TIP3    H121045   2.951   4.141   5.674
 7034TIP3    H221046   2.836   4.061   5.732
 7035TIP3   OH221047   1.525   7.201   2.314
 7035TIP3    H121048   1.460   7.173   2.378
 7035TIP3    H221049   1.589   7.130   2.312
 7036TIP3   OH221050   7.430   5.925   1.962
 7036TIP3    H121051   7.521   5.896   1.971
 7036TIP3    H221052   7.414   5.977   2.040
 7037TIP3   OH221053   2.400   5.882   2.600
 7037TIP3    H121054   2.409   5.859   2.693
 7037TIP3    H221055   2.406   5.978   2.599
 7038TIP3   OH221056   7.073   1.758   4.423
 7038TIP3    H121057   7.159   1.756   4.463
 7038TIP3    H221058   7.057   1.668   4.395
 7039TIP3   OH221059   5.739   2.836   0.985
 7039TIP3    H121060   5.810   2.808   1.042
 7039TIP3    H221061   5.686   2.758   0.970
 7040TIP3   OH221062   1.717   0.886   0.111
 7040TIP3    H121063   1.671   0.918   0.034
 7040TIP3    H221064   1.679   0.801   0.129
 7041TIP3   OH221065   1.683   1.263   1.903
 7041TIP3    H121066   1.591   1.248   1.879
 7041TIP3    H221067   1.733   1.221   1.833
 7042TIP3   OH221068   7.190   0.944   6.477
 7042TIP3    H121069   7.268   0.987   6.440
 7042TIP3    H221070   7.199   0.852   6.452
 7043TIP3   OH221071   5.075   3.262   4.244
 7043TIP3    H121072   5.127   3.186   4.272
 7043TIP3    H221073   5.135   3.336   4.248
 7044TIP3   OH221074   2.570   4.671   5.002
 7044TIP3    H121075   2.634   4.704   5.065
 7044TIP3    H221076   2.487   4.710   5.029
 7045TIP3   OH221077   2.299   7.182   4.450
 7045TIP3    H121078   2.340   7.229   4.522
 7045TIP3    H221079   2.373   7.159   4.392
 7046TIP3   OH221080   3.939   2.952   4.943
 7046TIP3    H121081   4.010   2.949   5.008
 7046TIP3    H221082   3.971   2.899   4.870
 7047TIP3   OH221083   2.528   0.185   4.383
 7047TIP3    H121084   2.582   0.108   4.396
 7047TIP3    H221085   2.572   0.255   4.431
 7048TIP3   OH221086   5.163   0.002   3.935
 7048TIP3    H121087   5.200   0.052   3.863
 7048TIP3    H221088   5.222   0.018   4.009
 7049TIP3   OH221089   6.603   4.154   1.837
 7049TIP3    H121090   6.582   4.076   1.785
 7049TIP3    H221091   6.557   4.225   1.792
 7050TIP3   OH221092   6.634   1.920   5.027
 7050TIP3    H121093   6.659   1.828   5.034
 7050TIP3    H221094   6.618   1.933   4.934
 7051TIP3   OH221095   4.054   6.888   4.375
 7051TIP3    H121096   4.019   6.868   4.288
 7051TIP3    H221097   4.141   6.924   4.357
 7052TIP3   OH221098   1.391   6.522   4.114
 7052TIP3    H121099   1.316   6.492   4.166
 7052TIP3    H221100   1.424   6.442   4.072
 7053TIP3   OH221101   6.060   1.234   6.296
 7053TIP3    H121102   6.033   1.151   6.257
 7053TIP3    H221103   6.066   1.216   6.390
 7054TIP3   OH221104   0.755   1.658   0.590
 7054TIP3    H121105   0.716   1.745   0.593
 7054TIP3    H221106   0.825   1.664   0.525
 7055TIP3   OH221107   2.149   2.980   0.181
 7055TIP3    H121108   2.121   2.889   0.186
 7055TIP3    H221109   2.161   2.996   0.087
 7056TIP3   OH221110   8.038   4.694   4.118
 7056TIP3    H121111   7.945   4.694   4.141
 7056TIP3    H221112   8.057   4.784   4.094
 7057TIP3   OH221113   3.117   3.961   6.469
 7057TIP3    H121114   3.024   3.982   6.478
 7057TIP3    H221115   3.143   4.000   6.385
 7058TIP3   OH221116   3.093   4.424   0.220
 7058TIP3    H121117   3.079   4.334   0.251
 7058TIP3    H221118   3.188   4.433   0.217
 7059TIP3   OH221119   0.900   0.510   3.208
 7059TIP3    H121120   0.895   0.533   3.301
 7059TIP3    H221121   0.951   0.429   3.206
 7060TIP3   OH221122   3.405   6.128   0.260
 7060TIP3    H121123   3.421   6.210   0.213
 7060TIP3    H221124   3.415   6.060   0.194
 7061TIP3   OH221125   4.150   3.696   6.625
 7061TIP3    H121126   4.214   3.643   6.672
 7061TIP3    H221127   4.066   3.674   6.665
 7062TIP3   OH221128   6.965   6.473   0.141
 7062TIP3    H121129   7.031   6.492   0.208
 7062TIP3    H221130   6.917   6.398   0.175
 7063TIP3   OH221131   0.465   7.544   2.900
 7063TIP3    H121132   0.458   7.504   2.814
 7063TIP3    H221133   0.429   7.632   2.889
 7064TIP3   OH221134   2.479   0.916   4.581
 7064TIP3    H121135   2.480   0.874   4.495
 7064TIP3    H221136   2.387   0.939   4.595
 7065TIP3   OH221137   7.364   2.515   3.915
 7065TIP3    H121138   7.442   2.461   3.925
 7065TIP3    H221139   7.397   2.603   3.899
 7066TIP3   OH221140   2.961   5.734   3.590
 7066TIP3    H121141   3.035   5.794   3.589
 7066TIP3    H221142   2.942   5.717   3.497
 7067TIP3   OH221143   1.894   7.657   6.661
 7067TIP3    H121144   1.839   7.647   6.583
 7067TIP3    H221145   1.847   7.610   6.729
 7068TIP3   OH221146   8.121   0.226   5.533
 7068TIP3    H121147   8.056   0.273   5.586
 7068TIP3    H221148   8.180   0.186   5.597
 7069TIP3   OH221149   0.924   5.319   4.520
 7069TIP3    H121150   0.957   5.373   4.592
 7069TIP3    H221151   0.829   5.327   4.526
 7070TIP3   OH221152   5.433   4.445   4.809
 7070TIP3    H121153   5.458   4.384   4.878
 7070TIP3    H221154   5.514   4.492   4.788
 7071TIP3   OH221155   4.713   6.229   0.092
 7071TIP3    H121156   4.696   6.255   0.182
 7071TIP3    H221157   4.797   6.270   0.071
 7072TIP3   OH221158   4.258   0.517   4.114
 7072TIP3    H121159   4.353   0.515   4.127
 7072TIP3    H221160   4.245   0.492   4.023
 7073TIP3   OH221161   7.926   2.167   3.717
 7073TIP3    H121162   7.846   2.119   3.741
 7073TIP3    H221163   7.895   2.253   3.690
 7074TIP3   OH221164   2.890   3.784   0.387
 7074TIP3    H121165   2.925   3.720   0.448
 7074TIP3    H221166   2.891   3.739   0.302
 7075TIP3   OH221167   4.206   5.927   6.330
 7075TIP3    H121168   4.225   6.008   6.282
 7075TIP3    H221169   4.162   5.871   6.266
 7076TIP3   OH221170   0.970   5.297   1.567
 7076TIP3    H121171   0.960   5.376   1.620
 7076TIP3    H221172   1.064   5.277   1.571
 7077TIP3   OH221173   3.365   2.694   2.987
 7077TIP3    H121174   3.451   2.661   2.960
 7077TIP3    H221175   3.353   2.660   3.076
 7078TIP3   OH221176   6.711   6.419   2.607
 7078TIP3    H121177   6.788   6.463   2.571
 7078TIP3    H221178   6.636   6.465   2.570
 7079TIP3   OH221179   4.196   0.798   2.610
 7079TIP3    H121180   4.222   0.706   2.602
 7079TIP3    H221181   4.169   0.823   2.521
 7080TIP3   OH221182   1.511   2.134   0.572
 7080TIP3    H121183   1.596   2.092   0.563
 7080TIP3    H221184   1.531   2.222   0.604
 7081TIP3   OH221185   5.008   6.529   2.594
 7081TIP3    H121186   5.083   6.530   2.535
 7081TIP3    H221187   4.940   6.578   2.547
 7082TIP3   OH221188   6.744   5.922   2.227
 7082TIP3    H121189   6.730   6.012   2.199
 7082TIP3    H221190   6.763   5.929   2.321
 7083TIP3   OH221191   0.192   1.492   0.749
 7083TIP3    H121192   0.119   1.550   0.768
 7083TIP3    H221193   0.164   1.406   0.781
 7084TIP3   OH221194   3.623   1.442   4.026
 7084TIP3    H121195   3.657   1.353   4.018
 7084TIP3    H221196   3.570   1.439   4.106
 7085TIP3   OH221197   7.507   5.137   5.684
 7085TIP3    H121198   7.523   5.214   5.738
 7085TIP3    H221199   7.419   5.108   5.710
 7086TIP3   OH221200   5.966   7.130   5.078
 7086TIP3    H121201   5.910   7.138   5.001
 7086TIP3    H221202   5.971   7.219   5.115
 7087TIP3   OH221203   1.637   7.344   4.784
 7087TIP3    H121204   1.582   7.308   4.854
 7087TIP3    H221205   1.714   7.287   4.783
 7088TIP3   OH221206   8.168   1.405   3.577
 7088TIP3    H121207   8.108   1.472   3.609
 7088TIP3    H221208   8.252   1.425   3.619
 7089TIP3   OH221209   8.067   0.745   4.376
 7089TIP3    H121210   8.024   0.717   4.296
 7089TIP3    H221211   8.096   0.834   4.358
 7090TIP3   OH221212   1.676   3.008   1.836
 7090TIP3    H121213   1.699   2.925   1.877
 7090TIP3    H221214   1.747   3.067   1.861
 7091TIP3   OH221215   6.558   3.654   6.635
 7091TIP3    H121216   6.556   3.632   6.541
 7091TIP3    H221217   6.490   3.599   6.674
 7092TIP3   OH221218   3.833   4.443   3.242
 7092TIP3    H121219   3.890   4.495   3.186
 7092TIP3    H221220   3.886   4.368   3.269
 7093TIP3   OH221221   6.685   1.364   5.585
 7093TIP3    H121222   6.635   1.445   5.586
 7093TIP3    H221223   6.776   1.393   5.575
 7094TIP3   OH221224   5.136   3.608   3.091
 7094TIP3    H121225   5.078   3.532   3.086
 7094TIP3    H221226   5.133   3.646   3.003
 7095TIP3   OH221227   7.339   1.532   2.389
 7095TIP3    H121228   7.361   1.463   2.452
 7095TIP3    H221229   7.249   1.513   2.364
 7096TIP3   OH221230   1.634   6.040   3.536
 7096TIP3    H121231   1.657   5.950   3.514
 7096TIP3    H221232   1.657   6.049   3.628
 7097TIP3   OH221233   7.009   2.484   0.923
 7097TIP3    H121234   7.085   2.439   0.959
 7097TIP3    H221235   7.037   2.575   0.915
 7098TIP3   OH221236   5.633   1.239   1.263
 7098TIP3    H121237   5.604   1.171   1.202
 7098TIP3    H221238   5.552   1.282   1.291
 7099TIP3   OH221239   4.690   7.456   1.286
 7099TIP3    H121240   4.755   7.434   1.352
 7099TIP3    H221241   4.668   7.547   1.304
 7100TIP3   OH221242   7.569   1.319   4.520
 7100TIP3    H121243   7.542   1.386   4.583
 7100TIP3    H221244   7.563   1.237   4.569
 7101TIP3   OH221245   4.632   1.523   4.096
 7101TIP3    H121246   4.677   1.457   4.149
 7101TIP3    H221247   4.604   1.475   4.018
 7102TIP3   OH221248   5.353   5.932   3.489
 7102TIP3    H121249   5.360   5.886   3.405
 7102TIP3    H221250   5.424   5.896   3.542
 7103TIP3   OH221251   0.251   1.807   4.116
 7103TIP3    H121252   0.162   1.835   4.096
 7103TIP3    H221253   0.287   1.877   4.171
 7104TIP3   OH221254   2.921   6.895   6.090
 7104TIP3    H121255   2.993   6.956   6.107
 7104TIP3    H221256   2.850   6.924   6.147
 7105TIP3   OH221257   3.842   0.884   6.263
 7105TIP3    H121258   3.912   0.882   6.199
 7105TIP3    H221259   3.885   0.907   6.345
 7106TIP3   OH221260   1.520   4.090   4.940
 7106TIP3    H121261   1.430   4.078   4.909
 7106TIP3    H221262   1.572   4.095   4.860
 7107TIP3   OH221263   7.009   2.025   4.578
 7107TIP3    H121264   7.081   2.084   4.555
 7107TIP3    H221265   7.051   1.940   4.592
 7108TIP3   OH221266   1.939   6.691   6.448
 7108TIP3    H121267   1.945   6.659   6.537
 7108TIP3    H221268   2.030   6.707   6.422
 7109TIP3   OH221269   2.051   4.608   5.963
 7109TIP3    H121270   2.112   4.536   5.978
 7109TIP3    H221271   1.984   4.570   5.906
 7110TIP3   OH221272   3.622   2.038   5.975
 7110TIP3    H121273   3.602   2.081   6.059
 7110TIP3    H221274   3.718   2.035   5.972
 7111TIP3   OH221275   4.359   4.763   3.364
 7111TIP3    H121276   4.272   4.732   3.340
 7111TIP3    H221277   4.410   4.683   3.378
 7112TIP3   OH221278   6.193   7.062   1.583
 7112TIP3    H121279   6.283   7.061   1.616
 7112TIP3    H221280   6.197   7.116   1.504
 7113TIP3   OH221281   3.287   0.737   6.599
 7113TIP3    H121282   3.322   0.822   6.626
 7113TIP3    H221283   3.345   0.708   6.528
 7114TIP3   OH221284   7.804   0.120   5.725
 7114TIP3    H121285   7.821   0.208   5.692
 7114TIP3    H221286   7.887   0.091   5.762
 7115TIP3   OH221287   2.592   1.467   2.046
 7115TIP3    H121288   2.500   1.446   2.061
 7115TIP3    H221289   2.597   1.562   2.057
 7116TIP3   OH221290   6.844   5.901   1.028
 7116TIP3    H121291   6.910   5.937   1.087
 7116TIP3    H221292   6.882   5.908   0.941
 7117TIP3   OH221293   4.354   6.462   0.651
 7117TIP3    H121294   4.355   6.366   0.659
 7117TIP3    H221295   4.269   6.481   0.612
 7118TIP3   OH221296   0.339   6.930   0.503
 7118TIP3    H121297   0.317   6.939   0.410
 7118TIP3    H221298   0.435   6.935   0.505
 7119TIP3   OH221299   2.825   6.606   6.554
 7119TIP3    H121300   2.891   6.644   6.495
 7119TIP3    H221301   2.876   6.556   6.618
 7120TIP3   OH221302   7.951   5.162   0.329
 7120TIP3    H121303   7.875   5.146   0.385
 7120TIP3    H221304   7.947   5.255   0.309
 7121TIP3   OH221305   7.760   3.497   1.531
 7121TIP3    H121306   7.749   3.403   1.516
 7121TIP3    H221307   7.755   3.507   1.626
 7122TIP3   OH221308   4.137   4.353   5.664
 7122TIP3    H121309   4.148   4.344   5.758
 7122TIP3    H221310   4.225   4.372   5.631
 7123TIP3   OH221311   0.984   0.341   4.036
 7123TIP3    H121312   0.948   0.387   3.961
 7123TIP3    H221313   0.956   0.393   4.112
 7124TIP3   OH221314   0.803   3.068   2.028
 7124TIP3    H121315   0.854   3.122   2.089
 7124TIP3    H221316   0.857   2.990   2.015
 7125TIP3   OH221317   4.123   1.538   5.438
 7125TIP3    H121318   4.074   1.486   5.502
 7125TIP3    H221319   4.121   1.627   5.474
 7126TIP3   OH221320   0.017   1.835   3.024
 7126TIP3    H121321   0.068   1.758   2.998
 7126TIP3    H221322  -0.065   1.827   2.976
 7127TIP3   OH221323   4.936   4.047   3.431
 7127TIP3    H121324   4.921   3.956   3.407
 7127TIP3    H221325   5.022   4.068   3.396
 7128TIP3   OH221326   4.247   2.460   1.820
 7128TIP3    H121327   4.185   2.443   1.891
 7128TIP3    H221328   4.216   2.406   1.748
 7129TIP3   OH221329   7.956   6.952   1.549
 7129TIP3    H121330   8.023   6.956   1.480
 7129TIP3    H221331   7.880   6.997   1.511
 7130TIP3   OH221332   3.664   2.016   3.819
 7130TIP3    H121333   3.725   2.011   3.745
 7130TIP3    H221334   3.688   1.942   3.875
 7131TIP3   OH221335   2.061   3.514   2.324
 7131TIP3    H121336   1.971   3.482   2.317
 7131TIP3    H221337   2.052   3.609   2.335
 7132TIP3   OH221338   7.355   2.540   5.083
 7132TIP3    H121339   7.316   2.472   5.029
 7132TIP3    H221340   7.301   2.541   5.162
 7133TIP3   OH221341   2.740   2.270   0.768
 7133TIP3    H121342   2.777   2.345   0.721
 7133TIP3    H221343   2.680   2.230   0.705
 7134TIP3   OH221344   2.939   4.514   3.550
 7134TIP3    H121345   3.015   4.552   3.592
 7134TIP3    H221346   2.968   4.427   3.522
 7135TIP3   OH221347   2.330   3.928   0.567
 7135TIP3    H121348   2.343   4.007   0.515
 7135TIP3    H221349   2.240   3.937   0.600
 7136TIP3   OH221350   2.914   4.270   0.940
 7136TIP3    H121351   2.909   4.308   0.852
 7136TIP3    H221352   2.912   4.345   0.998
 7137TIP3   OH221353   1.174   5.664   3.836
 7137TIP3    H121354   1.204   5.574   3.841
 7137TIP3    H221355   1.079   5.657   3.831
 7138TIP3   OH221356   7.419   3.414   3.434
 7138TIP3    H121357   7.449   3.443   3.521
 7138TIP3    H221358   7.498   3.412   3.381
 7139TIP3   OH221359   3.738   0.286   3.281
 7139TIP3    H121360   3.665   0.254   3.334
 7139TIP3    H221361   3.698   0.345   3.218
 7140TIP3   OH221362   6.464   2.280   6.426
 7140TIP3    H121363   6.392   2.292   6.489
 7140TIP3    H221364   6.422   2.246   6.348
 7141TIP3   OH221365   4.595   0.154   2.702
 7141TIP3    H121366   4.633   0.167   2.788
 7141TIP3    H221367   4.505   0.186   2.711
 7142TIP3   OH221368   1.029   7.659   6.023
 7142TIP3    H121369   0.982   7.626   5.946
 7142TIP3    H221370   1.069   7.741   5.994
 7143TIP3   OH221371   1.413   1.086   5.024
 7143TIP3    H121372   1.333   1.034   5.023
 7143TIP3    H221373   1.394   1.158   5.084
 7144TIP3   OH221374   1.624   0.087   1.318
 7144TIP3    H121375   1.668   0.003   1.330
 7144TIP3    H221376   1.545   0.066   1.267
 7145TIP3   OH221377   4.003   6.441   4.270
 7145TIP3    H121378   4.076   6.490   4.232
 7145TIP3    H221379   4.029   6.349   4.264
 7146TIP3   OH221380   5.633   7.044   4.214
 7146TIP3    H121381   5.557   7.082   4.258
 7146TIP3    H221382   5.686   7.009   4.285
 7147TIP3   OH221383   2.178   4.234   1.203
 7147TIP3    H121384   2.129   4.151   1.206
 7147TIP3    H221385   2.268   4.207   1.186
 7148TIP3   OH221386   7.395   3.853   1.520
 7148TIP3    H121387   7.399   3.914   1.594
 7148TIP3    H221388   7.467   3.881   1.462
 7149TIP3   OH221389   4.732   2.053   2.705
 7149TIP3    H121390   4.698   2.106   2.777
 7149TIP3    H221391   4.725   2.110   2.628
 7150TIP3   OH221392   7.566   7.715   3.965
 7150TIP3    H121393   7.551   7.711   4.059
 7150TIP3    H221394   7.479   7.710   3.926
 7151TIP3   OH221395   6.530   7.518   0.714
 7151TIP3    H121396   6.541   7.589   0.777
 7151TIP3    H221397   6.596   7.535   0.647
 7152TIP3   OH221398   5.364   2.696   6.518
 7152TIP3    H121399   5.451   2.657   6.528
 7152TIP3    H221400   5.337   2.673   6.429
 7153TIP3   OH221401   1.213   3.233   2.906
 7153TIP3    H121402   1.266   3.279   2.841
 7153TIP3    H221403   1.274   3.215   2.978
 7154TIP3   OH221404   6.670   4.900   3.677
 7154TIP3    H121405   6.706   4.812   3.682
 7154TIP3    H221406   6.597   4.893   3.617
 7155TIP3   OH221407   4.516   3.095   5.289
 7155TIP3    H121408   4.531   3.022   5.229
 7155TIP3    H221409   4.554   3.170   5.244
 7156TIP3   OH221410   6.763   4.038   0.597
 7156TIP3    H121411   6.699   4.068   0.662
 7156TIP3    H221412   6.832   4.105   0.599
 7157TIP3   OH221413   0.694   2.591   5.909
 7157TIP3    H121414   0.608   2.625   5.885
 7157TIP3    H221415   0.754   2.664   5.896
 7158TIP3   OH221416   3.045   7.102   0.366
 7158TIP3    H121417   2.991   7.162   0.315
 7158TIP3    H221418   3.033   7.017   0.324
 7159TIP3   OH221419   8.138   3.453   2.870
 7159TIP3    H121420   8.205   3.462   2.938
 7159TIP3    H221421   8.140   3.537   2.824
 7160TIP3   OH221422   0.288   6.778   4.236
 7160TIP3    H121423   0.229   6.853   4.227
 7160TIP3    H221424   0.268   6.742   4.323
 7161TIP3   OH221425   5.497   4.097   6.329
 7161TIP3    H121426   5.402   4.087   6.331
 7161TIP3    H221427   5.512   4.183   6.290
 7162TIP3   OH221428   3.737   3.085   0.045
 7162TIP3    H121429   3.742   3.056   0.136
 7162TIP3    H221430   3.676   3.025   0.004
 7163TIP3   OH221431   4.067   7.508   1.142
 7163TIP3    H121432   4.072   7.599   1.171
 7163TIP3    H221433   4.125   7.504   1.065
 7164TIP3   OH221434   0.755   5.390   0.417
 7164TIP3    H121435   0.792   5.450   0.482
 7164TIP3    H221436   0.821   5.388   0.347
 7165TIP3   OH221437   7.726   4.812   4.514
 7165TIP3    H121438   7.762   4.835   4.428
 7165TIP3    H221439   7.672   4.734   4.497
 7166TIP3   OH221440   2.942   6.232   4.119
 7166TIP3    H121441   2.848   6.220   4.115
 7166TIP3    H221442   2.961   6.250   4.212
 7167TIP3   OH221443   0.405   3.728   3.399
 7167TIP3    H121444   0.495   3.709   3.428
 7167TIP3    H221445   0.398   3.687   3.313
 7168TIP3   OH221446   2.075   6.575   2.115
 7168TIP3    H121447   2.143   6.547   2.053
 7168TIP3    H221448   2.030   6.647   2.070
 7169TIP3   OH221449   8.030   2.780   1.070
 7169TIP3    H121450   7.971   2.841   1.026
 7169TIP3    H221451   8.092   2.754   1.002
 7170TIP3   OH221452   2.501   0.095   1.584
 7170TIP3    H121453   2.510   0.006   1.548
 7170TIP3    H221454   2.412   0.120   1.563
 7171TIP3   OH221455   2.048   0.652   3.175
 7171TIP3    H121456   2.126   0.673   3.124
 7171TIP3    H221457   1.975   0.673   3.116
 7172TIP3   OH221458   6.220   2.875   0.982
 7172TIP3    H121459   6.211   2.793   1.031
 7172TIP3    H221460   6.234   2.847   0.891
 7173TIP3   OH221461   6.808   6.363   1.956
 7173TIP3    H121462   6.750   6.430   1.918
 7173TIP3    H221463   6.793   6.285   1.902
 7174TIP3   OH221464   2.640   3.495   0.259
 7174TIP3    H121465   2.706   3.564   0.254
 7174TIP3    H221466   2.563   3.531   0.214
 7175TIP3   OH221467   0.852   6.212   1.548
 7175TIP3    H121468   0.855   6.302   1.580
 7175TIP3    H221469   0.941   6.180   1.557
 7176TIP3   OH221470   5.429   1.306   2.792
 7176TIP3    H121471   5.337   1.282   2.785
 7176TIP3    H221472   5.463   1.298   2.703
 7177TIP3   OH221473   1.588   1.254   4.821
 7177TIP3    H121474   1.591   1.342   4.858
 7177TIP3    H221475   1.534   1.204   4.883
 7178TIP3   OH221476   4.657   2.970   0.787
 7178TIP3    H121477   4.718   3.031   0.829
 7178TIP3    H221478   4.635   3.012   0.704
 7179TIP3   OH221479   7.379   7.517   5.318
 7179TIP3    H121480   7.366   7.544   5.408
 7179TIP3    H221481   7.357   7.424   5.317
 7180TIP3   OH221482   1.894   1.039   0.828
 7180TIP3    H121483   1.819   1.040   0.769
 7180TIP3    H221484   1.970   1.037   0.771
 7181TIP3   OH221485   2.254   6.039   0.468
 7181TIP3    H121486   2.280   5.981   0.396
 7181TIP3    H221487   2.335   6.086   0.490
 7182TIP3   OH221488   4.396   0.233   6.353
 7182TIP3    H121489   4.304   0.230   6.379
 7182TIP3    H221490   4.414   0.147   6.315
 7183TIP3   OH221491   4.000   6.924   4.112
 7183TIP3    H121492   4.070   6.966   4.061
 7183TIP3    H221493   3.931   6.907   4.048
 7184TIP3   OH221494   5.355   6.095   5.107
 7184TIP3    H121495   5.323   6.016   5.063
 7184TIP3    H221496   5.404   6.141   5.040
 7185TIP3   OH221497   7.323   6.380   0.860
 7185TIP3    H121498   7.258   6.341   0.918
 7185TIP3    H221499   7.275   6.450   0.815
 7186TIP3   OH221500   2.582   5.365   4.271
 7186TIP3    H121501   2.615   5.276   4.260
 7186TIP3    H221502   2.515   5.357   4.339
 7187TIP3   OH221503   3.206   2.070   2.231
 7187TIP3    H121504   3.187   2.028   2.314
 7187TIP3    H221505   3.184   2.162   2.245
 7188TIP3   OH221506   6.075   2.492   4.246
 7188TIP3    H121507   6.159   2.536   4.254
 7188TIP3    H221508   6.027   2.516   4.325
 7189TIP3   OH221509   5.143   2.481   5.779
 7189TIP3    H121510   5.073   2.485   5.714
 7189TIP3    H221511   5.184   2.396   5.765
 7190TIP3   OH221512   1.898   4.464   4.602
 7190TIP3    H121513   1.977   4.518   4.595
 7190TIP3    H221514   1.831   4.514   4.555
 7191TIP3   OH221515   4.000   3.611   2.392
 7191TIP3    H121516   3.998   3.613   2.297
 7191TIP3    H221517   4.031   3.523   2.414
 7192TIP3   OH221518   5.201   3.792   6.242
 7192TIP3    H121519   5.111   3.792   6.276
 7192TIP3    H221520   5.190   3.770   6.149
 7193TIP3   OH221521   3.338   5.422   2.805
 7193TIP3    H121522   3.398   5.387   2.871
 7193TIP3    H221523   3.287   5.347   2.776
 7194TIP3   OH221524   2.267   5.782   3.601
 7194TIP3    H121525   2.354   5.781   3.641
 7194TIP3    H221526   2.214   5.726   3.659
 7195TIP3   OH221527   1.046   0.166   5.017
 7195TIP3    H121528   1.103   0.206   4.951
 7195TIP3    H221529   1.075   0.205   5.100
 7196TIP3   OH221530   2.500   6.275   6.617
 7196TIP3    H121531   2.533   6.333   6.686
 7196TIP3    H221532   2.432   6.223   6.661
 7197TIP3   OH221533   2.664   6.631   4.564
 7197TIP3    H121534   2.611   6.566   4.609
 7197TIP3    H221535   2.732   6.579   4.519
 7198TIP3   OH221536   5.168   6.492   2.121
 7198TIP3    H121537   5.097   6.546   2.087
 7198TIP3    H221538   5.247   6.543   2.104
 7199TIP3   OH221539   3.295   3.720   6.368
 7199TIP3    H121540   3.273   3.737   6.276
 7199TIP3    H221541   3.232   3.772   6.418
 7200TIP3   OH221542   0.523   7.044   5.848
 7200TIP3    H121543   0.481   6.967   5.812
 7200TIP3    H221544   0.606   7.012   5.885
 7201TIP3   OH221545   5.019   6.809   5.856
 7201TIP3    H121546   4.958   6.855   5.799
 7201TIP3    H221547   4.996   6.839   5.944
 7202TIP3   OH221548   4.125   3.940   0.873
 7202TIP3    H121549   4.167   4.021   0.844
 7202TIP3    H221550   4.176   3.870   0.830
 7203TIP3   OH221551   0.006   0.137   3.602
 7203TIP3    H121552   0.020   0.095   3.518
 7203TIP3    H221553   0.027   0.229   3.587
 7204TIP3   OH221554   0.908   2.655   2.667
 7204TIP3    H121555   0.947   2.740   2.687
 7204TIP3    H221556   0.961   2.621   2.594
 7205TIP3   OH221557   0.050   5.817   2.799
 7205TIP3    H121558   0.143   5.794   2.805
 7205TIP3    H221559   0.004   5.741   2.834
 7206TIP3   OH221560   5.966   7.102   5.674
 7206TIP3    H121561   5.921   7.126   5.593
 7206TIP3    H221562   5.917   7.147   5.743
 7207TIP3   OH221563   0.046   5.990   5.608
 7207TIP3    H121564  -0.017   6.052   5.645
 7207TIP3    H221565  -0.009   5.923   5.566
 7208TIP3   OH221566   6.489   6.305   2.004
 7208TIP3    H121567   6.404   6.334   2.037
 7208TIP3    H221568   6.551   6.332   2.073
 7209TIP3   OH221569   6.657   1.168   0.078
 7209TIP3    H121570   6.653   1.123   0.162
 7209TIP3    H221571   6.719   1.239   0.091
 7210TIP3   OH221572   3.588   3.612   4.252
 7210TIP3    H121573   3.554   3.540   4.200
 7210TIP3    H221574   3.635   3.667   4.189
 7211TIP3   OH221575   6.469   2.201   5.942
 7211TIP3    H121576   6.442   2.288   5.910
 7211TIP3    H221577   6.501   2.156   5.864
 7212TIP3   OH221578   6.524   6.900   3.018
 7212TIP3    H121579   6.583   6.826   3.029
 7212TIP3    H221580   6.466   6.875   2.946
 7213TIP3   OH221581   7.832   6.252   1.815
 7213TIP3    H121582   7.919   6.283   1.792
 7213TIP3    H221583   7.815   6.180   1.753
 7214TIP3   OH221584   7.440   1.780   6.524
 7214TIP3    H121585   7.492   1.845   6.572
 7214TIP3    H221586   7.473   1.696   6.554
 7215TIP3   OH221587   5.584   2.118   3.191
 7215TIP3    H121588   5.598   2.051   3.124
 7215TIP3    H221589   5.508   2.088   3.240
 7216TIP3   OH221590   5.785   0.897   1.643
 7216TIP3    H121591   5.826   0.844   1.576
 7216TIP3    H221592   5.702   0.925   1.605
 7217TIP3   OH221593   0.578   7.210   2.807
 7217TIP3    H121594   0.671   7.224   2.828
 7217TIP3    H221595   0.555   7.283   2.750
 7218TIP3   OH221596   2.880   6.755   3.908
 7218TIP3    H121597   2.943   6.760   3.980
 7218TIP3    H221598   2.895   6.835   3.857
 7219TIP3   OH221599   1.444   5.592   0.618
 7219TIP3    H121600   1.525   5.600   0.668
 7219TIP3    H221601   1.377   5.574   0.684
 7220TIP3   OH221602   3.556   1.300   5.285
 7220TIP3    H121603   3.641   1.332   5.313
 7220TIP3    H221604   3.535   1.230   5.346
 7221TIP3   OH221605   1.947   1.009   3.673
 7221TIP3    H121606   1.945   0.948   3.747
 7221TIP3    H221607   1.855   1.029   3.656
 7222TIP3   OH221608   2.559   2.505   0.676
 7222TIP3    H121609   2.582   2.573   0.738
 7222TIP3    H221610   2.642   2.472   0.642
 7223TIP3   OH221611   5.637   7.015   4.559
 7223TIP3    H121612   5.579   6.938   4.555
 7223TIP3    H221613   5.717   6.987   4.513
 7224TIP3   OH221614   5.400   6.408   4.346
 7224TIP3    H121615   5.335   6.451   4.401
 7224TIP3    H221616   5.419   6.472   4.277
 7225TIP3   OH221617   0.361   5.848   2.690
 7225TIP3    H121618   0.311   5.859   2.609
 7225TIP3    H221619   0.367   5.753   2.701
 7226TIP3   OH221620   0.828   4.060   3.705
 7226TIP3    H121621   0.892   3.989   3.710
 7226TIP3    H221622   0.748   4.017   3.675
 7227TIP3   OH221623   7.677   5.195   0.295
 7227TIP3    H121624   7.670   5.149   0.212
 7227TIP3    H221625   7.618   5.148   0.353
 7228TIP3   OH221626   1.664   5.690   3.312
 7228TIP3    H121627   1.667   5.594   3.311
 7228TIP3    H221628   1.677   5.715   3.220
 7229TIP3   OH221629   3.938   0.234   1.587
 7229TIP3    H121630   4.028   0.254   1.616
 7229TIP3    H221631   3.949   0.191   1.503
 7230TIP3   OH221632   6.990   2.604   3.610
 7230TIP3    H121633   6.939   2.534   3.651
 7230TIP3    H221634   6.994   2.580   3.517
 7231TIP3   OH221635   6.973   1.038   5.619
 7231TIP3    H121636   6.982   0.980   5.695
 7231TIP3    H221637   6.879   1.041   5.602
 7232TIP3   OH221638   1.936   6.802   2.005
 7232TIP3    H121639   1.871   6.856   2.050
 7232TIP3    H221640   2.009   6.861   1.988
 7233TIP3   OH221641   3.689   6.016   1.288
 7233TIP3    H121642   3.619   6.010   1.224
 7233TIP3    H221643   3.694   6.109   1.311
 7234TIP3   OH221644   4.608   2.773   0.982
 7234TIP3    H121645   4.592   2.840   0.915
 7234TIP3    H221646   4.703   2.771   0.991
 7235TIP3   OH221647   7.303   0.527   1.442
 7235TIP3    H121648   7.270   0.472   1.513
 7235TIP3    H221649   7.300   0.471   1.364
 7236TIP3   OH221650   4.937   5.809   6.264
 7236TIP3    H121651   5.008   5.836   6.206
 7236TIP3    H221652   4.892   5.740   6.217
 7237TIP3   OH221653   7.786   7.204   3.053
 7237TIP3    H121654   7.863   7.189   2.998
 7237TIP3    H221655   7.809   7.164   3.137
 7238TIP3   OH221656   6.633   1.486   4.913
 7238TIP3    H121657   6.690   1.415   4.882
 7238TIP3    H221658   6.693   1.549   4.953
 7239TIP3   OH221659   3.750   3.456   2.455
 7239TIP3    H121660   3.732   3.477   2.363
 7239TIP3    H221661   3.816   3.520   2.482
 7240TIP3   OH221662   1.874   6.277   3.845
 7240TIP3    H121663   1.817   6.351   3.824
 7240TIP3    H221664   1.953   6.293   3.794
 7241TIP3   OH221665   3.385   2.340   3.050
 7241TIP3    H121666   3.320   2.306   2.988
 7241TIP3    H221667   3.448   2.386   2.995
 7242TIP3   OH221668   0.453   3.385   1.662
 7242TIP3    H121669   0.514   3.313   1.676
 7242TIP3    H221670   0.413   3.368   1.577
 7243TIP3   OH221671   7.508   6.652   1.058
 7243TIP3    H121672   7.446   6.650   1.131
 7243TIP3    H221673   7.473   6.719   0.999
 7244TIP3   OH221674   6.685   6.976   1.930
 7244TIP3    H121675   6.660   7.067   1.947
 7244TIP3    H221676   6.646   6.927   2.003
 7245TIP3   OH221677   3.639   4.232   0.118
 7245TIP3    H121678   3.676   4.175   0.051
 7245TIP3    H221679   3.707   4.296   0.136
 7246TIP3   OH221680   1.348   6.579   5.082
 7246TIP3    H121681   1.326   6.646   5.147
 7246TIP3    H221682   1.431   6.608   5.045
 7247TIP3   OH221683   6.151   2.636   6.142
 7247TIP3    H121684   6.088   2.586   6.089
 7247TIP3    H221685   6.193   2.695   6.079
 7248TIP3   OH221686   0.343   2.578   5.540
 7248TIP3    H121687   0.424   2.533   5.563
 7248TIP3    H221688   0.301   2.596   5.624
 7249TIP3   OH221689   1.209   3.758   1.626
 7249TIP3    H121690   1.267   3.692   1.665
 7249TIP3    H221691   1.147   3.779   1.696
 7250TIP3   OH221692   5.286   3.039   5.444
 7250TIP3    H121693   5.360   3.055   5.501
 7250TIP3    H221694   5.235   3.120   5.445
 7251TIP3   OH221695   1.853   1.492   4.788
 7251TIP3    H121696   1.787   1.491   4.858
 7251TIP3    H221697   1.837   1.575   4.742
 7252TIP3   OH221698   6.199   1.538   3.275
 7252TIP3    H121699   6.290   1.543   3.246
 7252TIP3    H221700   6.186   1.619   3.325
 7253TIP3   OH221701   6.878   0.249   3.002
 7253TIP3    H121702   6.884   0.154   3.011
 7253TIP3    H221703   6.784   0.266   2.993
 7254TIP3   OH221704   5.023   1.442   5.229
 7254TIP3    H121705   5.085   1.396   5.173
 7254TIP3    H221706   5.078   1.489   5.292
 7255TIP3   OH221707   4.508   2.565   6.668
 7255TIP3    H121708   4.506   2.556   6.572
 7255TIP3    H221709   4.420   2.540   6.696
 7256TIP3   OH221710   6.454   5.782   1.725
 7256TIP3    H121711   6.375   5.795   1.778
 7256TIP3    H221712   6.523   5.824   1.777
 7257TIP3   OH221713   4.714   4.569   0.138
 7257TIP3    H121714   4.656   4.637   0.172
 7257TIP3    H221715   4.770   4.615   0.075
 7258TIP3   OH221716   6.457   3.173   2.380
 7258TIP3    H121717   6.530   3.222   2.342
 7258TIP3    H221718   6.481   3.081   2.368
 7259TIP3   OH221719   7.769   7.113   4.786
 7259TIP3    H121720   7.682   7.083   4.812
 7259TIP3    H221721   7.808   7.146   4.867
 7260TIP3   OH221722   4.305   2.310   3.949
 7260TIP3    H121723   4.340   2.284   4.034
 7260TIP3    H221724   4.292   2.405   3.956
 7261TIP3   OH221725   4.527   5.863   1.761
 7261TIP3    H121726   4.541   5.768   1.765
 7261TIP3    H221727   4.513   5.882   1.668
 7262TIP3   OH221728   2.234   2.832   6.154
 7262TIP3    H121729   2.265   2.799   6.070
 7262TIP3    H221730   2.314   2.839   6.207
 7263TIP3   OH221731   0.664   5.980   5.181
 7263TIP3    H121732   0.638   5.946   5.266
 7263TIP3    H221733   0.588   5.966   5.125
 7264TIP3   OH221734   4.976   1.644   4.151
 7264TIP3    H121735   4.961   1.735   4.178
 7264TIP3    H221736   4.912   1.628   4.082
 7265TIP3   OH221737   1.902   4.800   4.363
 7265TIP3    H121738   1.890   4.794   4.458
 7265TIP3    H221739   1.836   4.863   4.334
 7266TIP3   OH221740   4.645   1.835   2.022
 7266TIP3    H121741   4.732   1.807   1.993
 7266TIP3    H221742   4.647   1.824   2.117
 7267TIP3   OH221743   2.682   2.267   1.828
 7267TIP3    H121744   2.654   2.249   1.918
 7267TIP3    H221745   2.729   2.351   1.833
 7268TIP3   OH221746   1.246   2.831   3.029
 7268TIP3    H121747   1.183   2.823   2.957
 7268TIP3    H221748   1.328   2.798   2.994
 7269TIP3   OH221749   5.355   4.450   3.714
 7269TIP3    H121750   5.409   4.496   3.650
 7269TIP3    H221751   5.270   4.494   3.710
 7270TIP3   OH221752   1.466   5.026   0.879
 7270TIP3    H121753   1.386   5.038   0.827
 7270TIP3    H221754   1.448   5.073   0.961
 7271TIP3   OH221755   5.467   2.409   6.062
 7271TIP3    H121756   5.408   2.383   5.990
 7271TIP3    H221757   5.473   2.331   6.117
 7272TIP3   OH221758   1.353   1.522   4.793
 7272TIP3    H121759   1.336   1.614   4.773
 7272TIP3    H221760   1.367   1.520   4.888
 7273TIP3   OH221761   0.518   4.094   1.174
 7273TIP3    H121762   0.475   4.179   1.181
 7273TIP3    H221763   0.583   4.094   1.245
 7274TIP3   OH221764   1.404   3.699   3.377
 7274TIP3    H121765   1.418   3.606   3.394
 7274TIP3    H221766   1.444   3.743   3.453
 7275TIP3   OH221767   4.218   6.352   3.840
 7275TIP3    H121768   4.251   6.305   3.763
 7275TIP3    H221769   4.127   6.324   3.848
 7276TIP3   OH221770   0.084   6.445   2.039
 7276TIP3    H121771   0.093   6.428   2.133
 7276TIP3    H221772  -0.009   6.465   2.027
 7277TIP3   OH221773   4.920   4.929   6.164
 7277TIP3    H121774   4.870   4.905   6.242
 7277TIP3    H221775   4.859   4.917   6.092
 7278TIP3   OH221776   2.513   5.222   4.557
 7278TIP3    H121777   2.578   5.167   4.599
 7278TIP3    H221778   2.459   5.161   4.507
 7279TIP3   OH221779   3.438   2.199   0.177
 7279TIP3    H121780   3.484   2.189   0.260
 7279TIP3    H221781   3.349   2.223   0.202
 7280TIP3   OH221782   2.703   2.938   2.363
 7280TIP3    H121783   2.785   2.987   2.357
 7280TIP3    H221784   2.727   2.854   2.402
 7281TIP3   OH221785   1.426   3.803   5.476
 7281TIP3    H121786   1.428   3.714   5.511
 7281TIP3    H221787   1.452   3.792   5.384
 7282TIP3   OH221788   2.252   3.262   0.108
 7282TIP3    H121789   2.185   3.305   0.162
 7282TIP3    H221790   2.206   3.241   0.026
 7283TIP3   OH221791   8.069   3.049   6.419
 7283TIP3    H121792   8.000   3.065   6.354
 7283TIP3    H221793   8.030   3.074   6.503
 7284TIP3   OH221794   5.594   3.613   4.471
 7284TIP3    H121795   5.560   3.681   4.528
 7284TIP3    H221796   5.646   3.661   4.405
 7285TIP3   OH221797   2.018   6.480   3.449
 7285TIP3    H121798   2.086   6.529   3.495
 7285TIP3    H221799   1.943   6.539   3.447
 7286TIP3   OH221800   4.577   6.267   2.859
 7286TIP3    H121801   4.557   6.174   2.850
 7286TIP3    H221802   4.614   6.274   2.947
 7287TIP3   OH221803   0.310   7.766   3.415
 7287TIP3    H121804   0.297   7.674   3.436
 7287TIP3    H221805   0.332   7.808   3.498
 7288TIP3   OH221806   5.715   0.897   0.959
 7288TIP3    H121807   5.744   0.952   0.886
 7288TIP3    H221808   5.680   0.818   0.917
 7289TIP3   OH221809   7.194   3.595   0.788
 7289TIP3    H121810   7.238   3.677   0.808
 7289TIP3    H221811   7.112   3.620   0.746
 7290TIP3   OH221812   2.583   3.234   6.639
 7290TIP3    H121813   2.611   3.323   6.616
 7290TIP3    H221814   2.497   3.246   6.678
 7291TIP3   OH221815   5.832   2.780   3.058
 7291TIP3    H121816   5.872   2.703   3.097
 7291TIP3    H221817   5.890   2.852   3.084
 7292TIP3   OH221818   0.786   4.750   5.159
 7292TIP3    H121819   0.794   4.654   5.161
 7292TIP3    H221820   0.866   4.782   5.200
 7293TIP3   OH221821   5.164   3.247   3.086
 7293TIP3    H121822   5.157   3.193   3.007
 7293TIP3    H221823   5.104   3.206   3.149
 7294TIP3   OH221824   4.104   6.549   1.199
 7294TIP3    H121825   4.042   6.483   1.168
 7294TIP3    H221826   4.175   6.547   1.135
 7295TIP3   OH221827   7.599   0.978   4.650
 7295TIP3    H121828   7.670   0.930   4.607
 7295TIP3    H221829   7.637   1.009   4.732
 7296TIP3   OH221830   6.011   1.999   2.228
 7296TIP3    H121831   6.082   1.950   2.186
 7296TIP3    H221832   6.023   1.982   2.321
 7297TIP3   OH221833   5.465   2.743   5.930
 7297TIP3    H121834   5.468   2.751   6.025
 7297TIP3    H221835   5.462   2.833   5.898
 7298TIP3   OH221836   1.477   7.034   5.627
 7298TIP3    H121837   1.469   6.954   5.679
 7298TIP3    H221838   1.387   7.056   5.604
 7299TIP3   OH221839   7.486   2.139   1.490
 7299TIP3    H121840   7.431   2.178   1.421
 7299TIP3    H221841   7.575   2.146   1.456
 7300TIP3   OH221842   0.347   5.342   2.073
 7300TIP3    H121843   0.332   5.377   1.986
 7300TIP3    H221844   0.392   5.259   2.058
 7301TIP3   OH221845   1.635   3.725   4.097
 7301TIP3    H121846   1.715   3.677   4.117
 7301TIP3    H221847   1.655   3.815   4.120
 7302TIP3   OH221848   1.493   7.279   2.692
 7302TIP3    H121849   1.572   7.304   2.643
 7302TIP3    H221850   1.517   7.197   2.735
 7303TIP3   OH221851   4.741   5.394   2.534
 7303TIP3    H121852   4.664   5.413   2.588
 7303TIP3    H221853   4.791   5.330   2.584
 7304TIP3   OH221854   8.107   2.891   1.993
 7304TIP3    H121855   8.061   2.871   1.912
 7304TIP3    H221856   8.170   2.959   1.969
 7305TIP3   OH221857   0.483   3.767   0.995
 7305TIP3    H121858   0.391   3.774   1.020
 7305TIP3    H221859   0.492   3.678   0.961
 7306TIP3   OH221860   3.761   4.774   5.771
 7306TIP3    H121861   3.697   4.711   5.805
 7306TIP3    H221862   3.838   4.721   5.750
 7307TIP3   OH221863   5.162   0.727   2.229
 7307TIP3    H121864   5.069   0.705   2.233
 7307TIP3    H221865   5.174   0.764   2.141
 7308TIP3   OH221866   4.304   0.469   1.903
 7308TIP3    H121867   4.387   0.509   1.877
 7308TIP3    H221868   4.259   0.538   1.952
 7309TIP3   OH221869   0.199   6.175   6.602
 7309TIP3    H121870   0.214   6.166   6.508
 7309TIP3    H221871   0.286   6.172   6.641
 7310TIP3   OH221872   4.684   3.433   3.652
 7310TIP3    H121873   4.744   3.374   3.608
 7310TIP3    H221874   4.650   3.383   3.726
 7311TIP3   OH221875   4.184   2.647   6.662
 7311TIP3    H121876   4.163   2.622   6.752
 7311TIP3    H221877   4.106   2.620   6.612
 7312TIP3   OH221878   5.776   4.885   1.522
 7312TIP3    H121879   5.710   4.865   1.588
 7312TIP3    H221880   5.762   4.978   1.501
 7313TIP3   OH221881   5.921   4.322   1.646
 7313TIP3    H121882   5.941   4.370   1.566
 7313TIP3    H221883   5.922   4.230   1.621
 7314TIP3   OH221884   5.377   7.546   3.248
 7314TIP3    H121885   5.345   7.464   3.286
 7314TIP3    H221886   5.298   7.592   3.220
 7315TIP3   OH221887   6.436   5.124   4.237
 7315TIP3    H121888   6.391   5.185   4.295
 7315TIP3    H221889   6.515   5.099   4.286
 7316TIP3   OH221890   5.150   4.099   5.278
 7316TIP3    H121891   5.193   4.164   5.222
 7316TIP3    H221892   5.219   4.067   5.336
 7317TIP3   OH221893   5.763   6.440   4.100
 7317TIP3    H121894   5.798   6.399   4.022
 7317TIP3    H221895   5.703   6.374   4.137
 7318TIP3   OH221896   7.111   0.432   6.542
 7318TIP3    H121897   7.125   0.381   6.622
 7318TIP3    H221898   7.122   0.369   6.471
 7319TIP3   OH221899   5.894   5.869   5.945
 7319TIP3    H121900   5.970   5.912   5.985
 7319TIP3    H221901   5.874   5.923   5.869
 7320TIP3   OH221902   1.028   7.605   0.467
 7320TIP3    H121903   1.021   7.687   0.417
 7320TIP3    H221904   0.948   7.558   0.445
 7321TIP3   OH221905   1.758   2.019   0.624
 7321TIP3    H121906   1.752   2.057   0.712
 7321TIP3    H221907   1.847   2.040   0.596
 7322TIP3   OH221908   2.221   6.338   3.337
 7322TIP3    H121909   2.243   6.260   3.389
 7322TIP3    H221910   2.137   6.367   3.373
 7323TIP3   OH221911   7.224   6.745   2.583
 7323TIP3    H121912   7.144   6.719   2.627
 7323TIP3    H221913   7.201   6.746   2.490
 7324TIP3   OH221914   8.093   3.000   0.713
 7324TIP3    H121915   8.001   2.972   0.709
 7324TIP3    H221916   8.112   3.006   0.807
 7325TIP3   OH221917   0.444   1.884   1.186
 7325TIP3    H121918   0.533   1.879   1.220
 7325TIP3    H221919   0.434   1.805   1.133
 7326TIP3   OH221920   2.782   5.407   3.249
 7326TIP3    H121921   2.777   5.403   3.153
 7326TIP3    H221922   2.731   5.332   3.279
 7327TIP3   OH221923   3.638   5.787   0.617
 7327TIP3    H121924   3.676   5.722   0.558
 7327TIP3    H221925   3.713   5.839   0.645
 7328TIP3   OH221926   5.621   3.593   3.471
 7328TIP3    H121927   5.581   3.633   3.394
 7328TIP3    H221928   5.715   3.608   3.461
 7329TIP3   OH221929   7.831   2.006   2.665
 7329TIP3    H121930   7.821   2.015   2.570
 7329TIP3    H221931   7.911   2.054   2.685
 7330TIP3   OH221932   3.581   0.915   6.570
 7330TIP3    H121933   3.517   0.972   6.611
 7330TIP3    H221934   3.603   0.851   6.638
 7331TIP3   OH221935   6.287   7.477   3.538
 7331TIP3    H121936   6.326   7.413   3.599
 7331TIP3    H221937   6.360   7.535   3.515
 7332TIP3   OH221938   4.921   1.060   2.200
 7332TIP3    H121939   4.938   1.154   2.193
 7332TIP3    H221940   4.932   1.040   2.293
 7333TIP3   OH221941   7.712   5.935   3.753
 7333TIP3    H121942   7.773   5.873   3.713
 7333TIP3    H221943   7.767   6.006   3.785
 7334TIP3   OH221944   0.403   0.898   2.327
 7334TIP3    H121945   0.378   0.807   2.319
 7334TIP3    H221946   0.465   0.900   2.401
 7335TIP3   OH221947   6.287   2.214   4.988
 7335TIP3    H121948   6.291   2.285   5.051
 7335TIP3    H221949   6.370   2.168   4.998
 7336TIP3   OH221950   8.091   6.037   1.791
 7336TIP3    H121951   8.178   6.075   1.798
 7336TIP3    H221952   8.072   6.004   1.879
 7337TIP3   OH221953   5.070   0.083   3.236
 7337TIP3    H121954   5.107   0.123   3.157
 7337TIP3    H221955   4.975   0.089   3.223
 7338TIP3   OH221956   0.107   4.277   6.729
 7338TIP3    H121957   0.108   4.185   6.704
 7338TIP3    H221958   0.199   4.304   6.725
 7339TIP3   OH221959   4.929   0.398   5.876
 7339TIP3    H121960   4.923   0.493   5.863
 7339TIP3    H221961   4.838   0.369   5.885
 7340TIP3   OH221962   7.639   1.423   4.162
 7340TIP3    H121963   7.596   1.359   4.106
 7340TIP3    H221964   7.693   1.371   4.221
 7341TIP3   OH221965   6.693   0.340   0.971
 7341TIP3    H121966   6.642   0.327   1.051
 7341TIP3    H221967   6.703   0.252   0.934
 7342TIP3   OH221968   1.111   6.115   1.557
 7342TIP3    H121969   1.142   6.033   1.519
 7342TIP3    H221970   1.185   6.175   1.547
 7343TIP3   OH221971   5.041   6.490   0.881
 7343TIP3    H121972   4.962   6.523   0.838
 7343TIP3    H221973   5.068   6.415   0.829
 7344TIP3   OH221974   2.763   0.191   5.377
 7344TIP3    H121975   2.762   0.282   5.347
 7344TIP3    H221976   2.804   0.196   5.464
 7345TIP3   OH221977   4.763   2.630   6.300
 7345TIP3    H121978   4.751   2.616   6.206
 7345TIP3    H221979   4.787   2.722   6.309
 7346TIP3   OH221980   6.370   4.864   4.834
 7346TIP3    H121981   6.375   4.958   4.853
 7346TIP3    H221982   6.365   4.859   4.739
 7347TIP3   OH221983   8.208   1.304   3.079
 7347TIP3    H121984   8.156   1.374   3.040
 7347TIP3    H221985   8.227   1.334   3.167
 7348TIP3   OH221986   4.764   0.176   2.921
 7348TIP3    H121987   4.716   0.146   2.999
 7348TIP3    H221988   4.797   0.262   2.945
 7349TIP3   OH221989   5.283   0.467   3.657
 7349TIP3    H121990   5.252   0.476   3.567
 7349TIP3    H221991   5.364   0.518   3.660
 7350TIP3   OH221992   2.919   4.010   2.782
 7350TIP3    H121993   2.826   4.002   2.804
 7350TIP3    H221994   2.963   4.005   2.867
 7351TIP3   OH221995   4.769   2.532   6.056
 7351TIP3    H121996   4.802   2.446   6.030
 7351TIP3    H221997   4.784   2.587   5.979
 7352TIP3   OH221998   5.189   2.318   3.037
 7352TIP3    H121999   5.114   2.369   3.068
 7352TIP3    H222000   5.222   2.273   3.115
 7353TIP3   OH222001   5.964   5.150   3.880
 7353TIP3    H122002   6.017   5.189   3.811
 7353TIP3    H222003   5.877   5.141   3.842
 7354TIP3   OH222004   2.290   3.628   6.207
 7354TIP3    H122005   2.316   3.704   6.259
 7354TIP3    H222006   2.206   3.601   6.244
 7355TIP3   OH222007   3.457   2.644   5.798
 7355TIP3    H122008   3.435   2.551   5.791
 7355TIP3    H222009   3.377   2.690   5.771
 7356TIP3   OH222010   0.866   7.469   3.570
 7356TIP3    H122011   0.804   7.535   3.539
 7356TIP3    H222012   0.911   7.439   3.491
 7357TIP3   OH222013   1.629   3.956   4.428
 7357TIP3    H122014   1.682   3.999   4.361
 7357TIP3    H222015   1.688   3.893   4.469
 7358TIP3   OH222016   0.333   0.377   1.422
 7358TIP3    H122017   0.411   0.323   1.410
 7358TIP3    H222018   0.284   0.368   1.340
 7359TIP3   OH222019   7.131   5.084   0.632
 7359TIP3    H122020   7.208   5.029   0.617
 7359TIP3    H222021   7.167   5.172   0.645
 7360TIP3   OH222022   1.682   5.603   5.688
 7360TIP3    H122023   1.646   5.532   5.741
 7360TIP3    H222024   1.776   5.602   5.706
 7361TIP3   OH222025   2.159   2.636   5.709
 7361TIP3    H122026   2.184   2.708   5.652
 7361TIP3    H222027   2.065   2.624   5.693
 7362TIP3   OH222028   6.202   0.153   6.369
 7362TIP3    H122029   6.205   0.224   6.433
 7362TIP3    H222030   6.198   0.198   6.284
 7363TIP3   OH222031   5.898   1.532   3.325
 7363TIP3    H122032   5.979   1.553   3.280
 7363TIP3    H222033   5.887   1.438   3.314
 7364TIP3   OH222034   2.617   5.581   2.702
 7364TIP3    H122035   2.702   5.550   2.672
 7364TIP3    H222036   2.562   5.503   2.703
 7365TIP3   OH222037   2.282   6.909   5.342
 7365TIP3    H122038   2.194   6.896   5.378
 7365TIP3    H222039   2.324   6.969   5.404
 7366TIP3   OH222040   7.247   2.568   0.790
 7366TIP3    H122041   7.246   2.534   0.879
 7366TIP3    H222042   7.180   2.637   0.790
 7367TIP3   OH222043   2.690   4.926   2.683
 7367TIP3    H122044   2.765   4.906   2.627
 7367TIP3    H222045   2.715   5.005   2.730
 7368TIP3   OH222046   3.788   3.568   3.457
 7368TIP3    H122047   3.697   3.558   3.486
 7368TIP3    H222048   3.840   3.523   3.523
 7369TIP3   OH222049   0.047   0.334   3.247
 7369TIP3    H122050   0.060   0.294   3.162
 7369TIP3    H222051   0.112   0.292   3.304
 7370TIP3   OH222052   5.638   1.829   1.035
 7370TIP3    H122053   5.662   1.861   1.123
 7370TIP3    H222054   5.721   1.820   0.989
 7371TIP3   OH222055   7.053   5.503   0.451
 7371TIP3    H122056   7.137   5.462   0.472
 7371TIP3    H222057   7.019   5.451   0.378
 7372TIP3   OH222058   2.967   4.166   0.175
 7372TIP3    H122059   2.881   4.167   0.217
 7372TIP3    H222060   2.995   4.075   0.179
 7373TIP3   OH222061   4.117   0.476   0.214
 7373TIP3    H122062   4.131   0.568   0.237
 7373TIP3    H222063   4.101   0.433   0.298
 7374TIP3   OH222064   1.189   4.369   2.414
 7374TIP3    H122065   1.172   4.384   2.507
 7374TIP3    H222066   1.169   4.452   2.371
 7375TIP3   OH222067   3.673   5.333   2.203
 7375TIP3    H122068   3.606   5.396   2.229
 7375TIP3    H222069   3.645   5.303   2.117
 7376TIP3   OH222070   5.237   1.877   0.173
 7376TIP3    H122071   5.143   1.875   0.189
 7376TIP3    H222072   5.246   1.926   0.091
 7377TIP3   OH222073   4.825   1.582   1.689
 7377TIP3    H122074   4.765   1.612   1.757
 7377TIP3    H222075   4.874   1.661   1.664
 7378TIP3   OH222076   6.391   3.986   3.961
 7378TIP3    H122077   6.337   4.049   4.008
 7378TIP3    H222078   6.437   3.937   4.029
 7379TIP3   OH222079   8.260   5.045   4.881
 7379TIP3    H122080   8.165   5.052   4.885
 7379TIP3    H222081   8.284   4.999   4.961
 7380TIP3   OH222082   3.698   2.022   0.227
 7380TIP3    H122083   3.743   2.071   0.157
 7380TIP3    H222084   3.659   1.947   0.182
 7381TIP3   OH222085   6.200   1.470   4.975
 7381TIP3    H122086   6.177   1.467   4.882
 7381TIP3    H222087   6.121   1.504   5.018
 7382TIP3   OH222088   3.165   3.396   1.365
 7382TIP3    H122089   3.154   3.469   1.425
 7382TIP3    H222090   3.100   3.410   1.296
 7383TIP3   OH222091   1.378   6.319   4.956
 7383TIP3    H122092   1.342   6.406   4.973
 7383TIP3    H222093   1.354   6.300   4.865
 7384TIP3   OH222094   6.977   6.510   1.755
 7384TIP3    H122095   6.941   6.461   1.829
 7384TIP3    H222096   6.914   6.581   1.741
 7385TIP3   OH222097   6.759   1.524   4.055
 7385TIP3    H122098   6.840   1.543   4.007
 7385TIP3    H222099   6.690   1.531   3.990
 7386TIP3   OH222100   4.041   0.622   4.311
 7386TIP3    H122101   4.127   0.660   4.294
 7386TIP3    H222102   4.001   0.681   4.375
 7387TIP3   OH222103   5.597   5.370   6.690
 7387TIP3    H122104   5.504   5.366   6.671
 7387TIP3    H222105   5.605   5.337   6.780
 7388TIP3   OH222106   7.861   4.646   5.736
 7388TIP3    H122107   7.954   4.643   5.712
 7388TIP3    H222108   7.824   4.714   5.679
 7389TIP3   OH222109   6.051   0.255   5.899
 7389TIP3    H122110   6.057   0.168   5.938
 7389TIP3    H222111   5.972   0.294   5.937
 7390TIP3   OH222112   5.736   2.790   6.117
 7390TIP3    H122113   5.720   2.857   6.051
 7390TIP3    H222114   5.779   2.837   6.188
 7391TIP3   OH222115   5.190   4.809   6.088
 7391TIP3    H122116   5.158   4.760   6.163
 7391TIP3    H222117   5.286   4.798   6.092
 7392TIP3   OH222118   5.899   6.631   5.978
 7392TIP3    H122119   5.992   6.654   5.969
 7392TIP3    H222120   5.874   6.667   6.063
 7393TIP3   OH222121   6.033   0.526   5.521
 7393TIP3    H122122   6.096   0.462   5.487
 7393TIP3    H222123   6.053   0.531   5.615
 7394TIP3   OH222124   8.239   2.113   6.330
 7394TIP3    H122125   8.219   2.161   6.410
 7394TIP3    H222126   8.286   2.176   6.275
 7395TIP3   OH222127   4.436   7.531   3.662
 7395TIP3    H122128   4.401   7.525   3.572
 7395TIP3    H222129   4.371   7.486   3.716
 7396TIP3   OH222130   3.271   7.310   1.252
 7396TIP3    H122131   3.274   7.240   1.187
 7396TIP3    H222132   3.183   7.305   1.289
 7397TIP3   OH222133   5.763   3.511   1.346
 7397TIP3    H122134   5.691   3.458   1.312
 7397TIP3    H222135   5.814   3.451   1.400
 7398TIP3   OH222136   4.494   4.971   3.551
 7398TIP3    H122137   4.436   4.909   3.508
 7398TIP3    H222138   4.497   5.046   3.491
 7399TIP3   OH222139   3.903   4.022   0.433
 7399TIP3    H122140   3.823   3.990   0.391
 7399TIP3    H222141   3.913   4.112   0.400
 7400TIP3   OH222142   1.822   7.734   3.004
 7400TIP3    H122143   1.775   7.705   3.082
 7400TIP3    H222144   1.754   7.750   2.939
 7401TIP3   OH222145   3.663   1.492   1.327
 7401TIP3    H122146   3.653   1.580   1.292
 7401TIP3    H222147   3.613   1.493   1.409
 7402TIP3   OH222148   4.743   1.540   1.299
 7402TIP3    H122149   4.822   1.528   1.247
 7402TIP3    H222150   4.749   1.629   1.333
 7403TIP3   OH222151   3.745   2.521   3.269
 7403TIP3    H122152   3.752   2.440   3.319
 7403TIP3    H222153   3.762   2.495   3.179
 7404TIP3   OH222154   6.992   2.585   2.552
 7404TIP3    H122155   7.069   2.639   2.535
 7404TIP3    H222156   7.024   2.514   2.606
 7405TIP3   OH222157   2.260   2.054   0.785
 7405TIP3    H122158   2.275   2.000   0.863
 7405TIP3    H222159   2.208   2.127   0.817
 7406TIP3   OH222160   6.728   0.578   2.562
 7406TIP3    H122161   6.697   0.557   2.474
 7406TIP3    H222162   6.799   0.641   2.548
 7407TIP3   OH222163   3.313   7.147   1.008
 7407TIP3    H122164   3.293   7.239   0.990
 7407TIP3    H222165   3.393   7.130   0.958
 7408TIP3   OH222166   7.242   4.602   6.618
 7408TIP3    H122167   7.335   4.601   6.598
 7408TIP3    H222168   7.222   4.513   6.646
 7409TIP3   OH222169   2.443   5.825   1.148
 7409TIP3    H122170   2.493   5.824   1.066
 7409TIP3    H222171   2.470   5.745   1.194
 7410TIP3   OH222172   5.766   4.656   4.367
 7410TIP3    H122173   5.824   4.706   4.309
 7410TIP3    H222174   5.724   4.592   4.310
 7411TIP3   OH222175   2.736   7.698   5.804
 7411TIP3    H122176   2.646   7.730   5.803
 7411TIP3    H222177   2.789   7.770   5.770
 7412TIP3   OH222178   6.724   7.253   0.075
 7412TIP3    H122179   6.809   7.245   0.117
 7412TIP3    H222180   6.726   7.188   0.005
 7413TIP3   OH222181   0.902   0.850   0.111
 7413TIP3    H122182   0.830   0.884   0.164
 7413TIP3    H222183   0.908   0.911   0.037
 7414TIP3   OH222184   1.064   4.633   4.135
 7414TIP3    H122185   1.052   4.556   4.079
 7414TIP3    H222186   1.016   4.613   4.214
 7415TIP3   OH222187   0.754   7.661   2.244
 7415TIP3    H122188   0.829   7.602   2.255
 7415TIP3    H222189   0.678   7.603   2.254
 7416TIP3   OH222190   1.517   3.701   6.796
 7416TIP3    H122191   1.564   3.618   6.783
 7416TIP3    H222192   1.491   3.728   6.708
 7417TIP3   OH222193   6.529   2.868   1.999
 7417TIP3    H122194   6.457   2.840   2.055
 7417TIP3    H222195   6.507   2.836   1.912
 7418TIP3   OH222196   4.111   1.562   2.084
 7418TIP3    H122197   4.147   1.640   2.126
 7418TIP3    H222198   4.016   1.570   2.097
 7419TIP3   OH222199   5.715   0.819   3.115
 7419TIP3    H122200   5.703   0.759   3.041
 7419TIP3    H222201   5.628   0.856   3.129
 7420TIP3   OH222202   3.938   0.116   6.015
 7420TIP3    H122203   3.957   0.209   6.008
 7420TIP3    H222204   3.902   0.105   6.103
 7421TIP3   OH222205   5.250   0.073   0.233
 7421TIP3    H122206   5.206   0.112   0.157
 7421TIP3    H222207   5.251  -0.021   0.214
 7422TIP3   OH222208   0.452   1.977   2.870
 7422TIP3    H122209   0.366   1.992   2.909
 7422TIP3    H222210   0.448   2.022   2.786
 7423TIP3   OH222211   0.829   0.168   3.841
 7423TIP3    H122212   0.785   0.222   3.906
 7423TIP3    H222213   0.840   0.083   3.884
 7424TIP3   OH222214   7.798   1.751   6.430
 7424TIP3    H122215   7.859   1.689   6.391
 7424TIP3    H222216   7.749   1.786   6.355
 7425TIP3   OH222217   7.696   3.217   6.227
 7425TIP3    H122218   7.631   3.184   6.165
 7425TIP3    H222219   7.679   3.310   6.233
 7426TIP3   OH222220   1.999   0.629   3.688
 7426TIP3    H122221   2.008   0.597   3.598
 7426TIP3    H222222   2.043   0.715   3.687
 7427TIP3   OH222223   2.296   3.866   1.636
 7427TIP3    H122224   2.303   3.870   1.540
 7427TIP3    H222225   2.380   3.898   1.667
 7428TIP3   OH222226   0.870   2.790   0.366
 7428TIP3    H122227   0.909   2.814   0.450
 7428TIP3    H222228   0.915   2.709   0.341
 7429TIP3   OH222229   0.538   4.075   0.134
 7429TIP3    H122230   0.573   3.995   0.174
 7429TIP3    H222231   0.523   4.050   0.043
 7430TIP3   OH222232   7.204   1.831   3.706
 7430TIP3    H122233   7.202   1.768   3.778
 7430TIP3    H222234   7.138   1.799   3.644
 7431TIP3   OH222235   3.385   2.376   5.774
 7431TIP3    H122236   3.384   2.315   5.848
 7431TIP3    H222237   3.296   2.375   5.740
 7432TIP3   OH222238   7.146   1.652   1.694
 7432TIP3    H122239   7.094   1.695   1.762
 7432TIP3    H222240   7.161   1.563   1.727
 7433TIP3   OH222241   5.223   6.954   5.253
 7433TIP3    H122242   5.138   6.912   5.237
 7433TIP3    H222243   5.283   6.881   5.269
 7434TIP3   OH222244   0.307   1.619   3.368
 7434TIP3    H122245   0.262   1.541   3.335
 7434TIP3    H222246   0.252   1.649   3.440
 7435TIP3   OH222247   0.077   1.558   2.562
 7435TIP3    H122248  -0.003   1.536   2.514
 7435TIP3    H222249   0.080   1.653   2.562
 7436TIP3   OH222250   5.444   7.223   4.287
 7436TIP3    H122251   5.482   7.303   4.323
 7436TIP3    H222252   5.365   7.208   4.340
 7437TIP3   OH222253   3.291   0.646   4.562
 7437TIP3    H122254   3.290   0.713   4.494
 7437TIP3    H222255   3.383   0.633   4.583
 7438TIP3   OH222256   6.262   3.992   5.402
 7438TIP3    H122257   6.316   3.913   5.394
 7438TIP3    H222258   6.325   4.064   5.404
 7439TIP3   OH222259   6.189   6.291   3.818
 7439TIP3    H122260   6.113   6.298   3.761
 7439TIP3    H222261   6.218   6.381   3.830
 7440TIP3   OH222262   0.719   3.205   5.617
 7440TIP3    H122263   0.649   3.265   5.642
 7440TIP3    H222264   0.705   3.190   5.523
 7441TIP3   OH222265   4.076   0.043   0.304
 7441TIP3    H122266   3.983   0.037   0.325
 7441TIP3    H222267   4.100   0.133   0.329
 7442TIP3   OH222268   6.455   1.547   3.171
 7442TIP3    H122269   6.474   1.638   3.151
 7442TIP3    H222270   6.523   1.498   3.124
 7443TIP3   OH222271   3.142   7.582   1.125
 7443TIP3    H122272   3.174   7.599   1.214
 7443TIP3    H222273   3.181   7.499   1.100
 7444TIP3   OH222274   5.595   1.143   3.345
 7444TIP3    H122275   5.538   1.088   3.399
 7444TIP3    H222276   5.555   1.144   3.259
 7445TIP3   OH222277   6.608   5.412   5.936
 7445TIP3    H122278   6.693   5.415   5.892
 7445TIP3    H222279   6.613   5.333   5.991
 7446TIP3   OH222280   4.777   2.732   1.333
 7446TIP3    H122281   4.768   2.671   1.260
 7446TIP3    H222282   4.773   2.677   1.411
 7447TIP3   OH222283   7.715   4.066   3.381
 7447TIP3    H122284   7.635   4.115   3.402
 7447TIP3    H222285   7.685   3.976   3.366
 7448TIP3   OH222286   5.975   6.220   2.258
 7448TIP3    H122287   6.043   6.230   2.324
 7448TIP3    H222288   5.927   6.142   2.285
 7449TIP3   OH222289   4.774   6.115   1.229
 7449TIP3    H122290   4.744   6.025   1.226
 7449TIP3    H222291   4.709   6.164   1.178
 7450TIP3   OH222292   7.239   7.636   6.610
 7450TIP3    H122293   7.271   7.565   6.666
 7450TIP3    H222294   7.175   7.683   6.664
 7451TIP3   OH222295   8.145   6.773   5.750
 7451TIP3    H122296   8.140   6.788   5.656
 7451TIP3    H222297   8.239   6.764   5.768
 7452TIP3   OH222298   0.430   2.641   3.413
 7452TIP3    H122299   0.457   2.590   3.489
 7452TIP3    H222300   0.378   2.713   3.450
 7453TIP3   OH222301   1.299   7.168   2.470
 7453TIP3    H122302   1.263   7.090   2.513
 7453TIP3    H222303   1.333   7.221   2.542
 7454TIP3   OH222304   1.819   7.624   0.944
 7454TIP3    H122305   1.818   7.626   1.040
 7454TIP3    H222306   1.755   7.691   0.918
 7455TIP3   OH222307   2.247   1.182   0.261
 7455TIP3    H122308   2.308   1.112   0.236
 7455TIP3    H222309   2.178   1.137   0.309
 7456TIP3   OH222310   5.962   6.774   5.303
 7456TIP3    H122311   6.033   6.712   5.287
 7456TIP3    H222312   5.905   6.765   5.227
 7457TIP3   OH222313   4.104   6.517   0.572
 7457TIP3    H122314   4.071   6.509   0.483
 7457TIP3    H222315   4.035   6.562   0.620
 7458TIP3   OH222316   3.305   5.574   5.339
 7458TIP3    H122317   3.290   5.606   5.250
 7458TIP3    H222318   3.359   5.641   5.380
 7459TIP3   OH222319   6.823   6.665   1.056
 7459TIP3    H122320   6.904   6.711   1.080
 7459TIP3    H222321   6.755   6.706   1.110
 7460TIP3   OH222322   3.579   0.571   4.939
 7460TIP3    H122323   3.589   0.481   4.972
 7460TIP3    H222324   3.503   0.567   4.882
 7461TIP3   OH222325   0.767   6.855   0.124
 7461TIP3    H122326   0.858   6.877   0.144
 7461TIP3    H222327   0.723   6.856   0.209
 7462TIP3   OH222328   0.325   1.332   5.469
 7462TIP3    H122329   0.394   1.358   5.407
 7462TIP3    H222330   0.337   1.237   5.479
 7463TIP3   OH222331   1.999   4.044   4.801
 7463TIP3    H122332   2.094   4.053   4.798
 7463TIP3    H222333   1.967   4.129   4.828
 7464TIP3   OH222334   1.849   2.523   1.842
 7464TIP3    H122335   1.897   2.449   1.804
 7464TIP3    H222336   1.835   2.583   1.769
 7465TIP3   OH222337   3.855   3.053   4.526
 7465TIP3    H122338   3.763   3.033   4.507
 7465TIP3    H222339   3.904   2.980   4.488
 7466TIP3   OH222340   7.096   1.873   4.151
 7466TIP3    H122341   7.024   1.933   4.132
 7466TIP3    H222342   7.086   1.850   4.243
 7467TIP3   OH222343   8.258   3.076   4.245
 7467TIP3    H122344   8.279   3.000   4.298
 7467TIP3    H222345   8.167   3.063   4.219
 7468TIP3   OH222346   0.260   7.514   4.466
 7468TIP3    H122347   0.245   7.477   4.553
 7468TIP3    H222348   0.253   7.609   4.479
 7469TIP3   OH222349   2.565   0.627   2.448
 7469TIP3    H122350   2.561   0.705   2.393
 7469TIP3    H222351   2.543   0.658   2.536
 7470TIP3   OH222352   2.105   2.207   1.514
 7470TIP3    H122353   2.136   2.126   1.473
 7470TIP3    H222354   2.010   2.196   1.519
 7471TIP3   OH222355   4.015   2.802   1.575
 7471TIP3    H122356   4.078   2.754   1.629
 7471TIP3    H222357   3.944   2.740   1.559
 7472TIP3   OH222358   3.257   5.509   0.513
 7472TIP3    H122359   3.307   5.554   0.444
 7472TIP3    H222360   3.227   5.428   0.472
 7473TIP3   OH222361   0.204   1.137   4.865
 7473TIP3    H122362   0.158   1.071   4.813
 7473TIP3    H222363   0.141   1.208   4.874
 7474TIP3   OH222364   4.123   3.473   3.857
 7474TIP3    H122365   4.204   3.454   3.809
 7474TIP3    H222366   4.069   3.521   3.795
 7475TIP3   OH222367   5.457   5.170   4.537
 7475TIP3    H122368   5.491   5.087   4.504
 7475TIP3    H222369   5.533   5.212   4.577
 7476TIP3   OH222370   2.533   4.314   0.787
 7476TIP3    H122371   2.582   4.395   0.774
 7476TIP3    H222372   2.469   4.335   0.854
 7477TIP3   OH222373   1.594   5.690   3.920
 7477TIP3    H122374   1.559   5.608   3.953
 7477TIP3    H222375   1.649   5.665   3.846
 7478TIP3   OH222376   4.202   1.445   0.266
 7478TIP3    H122377   4.259   1.456   0.343
 7478TIP3    H222378   4.145   1.522   0.267
 7479TIP3   OH222379   7.295   6.020   0.611
 7479TIP3    H122380   7.359   6.079   0.571
 7479TIP3    H222381   7.342   5.981   0.685
 7480TIP3   OH222382   4.233   3.891   4.001
 7480TIP3    H122383   4.234   3.952   4.075
 7480TIP3    H222384   4.167   3.826   4.026
 7481TIP3   OH222385   3.882   7.168   2.118
 7481TIP3    H122386   3.908   7.117   2.041
 7481TIP3    H222387   3.820   7.113   2.164
 7482TIP3   OH222388   4.837   5.650   5.159
 7482TIP3    H122389   4.827   5.556   5.140
 7482TIP3    H222390   4.828   5.656   5.255
 7483TIP3   OH222391   5.373   0.195   5.063
 7483TIP3    H122392   5.358   0.171   4.971
 7483TIP3    H222393   5.365   0.290   5.065
 7484TIP3   OH222394   3.595   7.456   3.416
 7484TIP3    H122395   3.516   7.419   3.376
 7484TIP3    H222396   3.634   7.509   3.347
 7485TIP3   OH222397   4.417   7.772   2.601
 7485TIP3    H122398   4.472   7.850   2.605
 7485TIP3    H222399   4.336   7.798   2.646
 7486TIP3   OH222400   2.667   5.805   2.374
 7486TIP3    H122401   2.726   5.736   2.343
 7486TIP3    H222402   2.581   5.762   2.380
 7487TIP3   OH222403   1.378   4.409   6.329
 7487TIP3    H122404   1.349   4.370   6.247
 7487TIP3    H222405   1.311   4.384   6.392
 7488TIP3   OH222406   7.091   6.157   4.357
 7488TIP3    H122407   7.037   6.226   4.396
 7488TIP3    H222408   7.028   6.099   4.313
 7489TIP3   OH222409   6.491   0.621   5.945
 7489TIP3    H122410   6.585   0.620   5.930
 7489TIP3    H222411   6.470   0.713   5.961
 7490TIP3   OH222412   3.051   3.997   3.644
 7490TIP3    H122413   3.113   3.941   3.690
 7490TIP3    H222414   3.099   4.078   3.629
 7491TIP3   OH222415   2.196   5.059   3.308
 7491TIP3    H122416   2.139   5.131   3.335
 7491TIP3    H222417   2.216   5.012   3.388
 7492TIP3   OH222418   3.964   1.676   1.178
 7492TIP3    H122419   3.932   1.687   1.268
 7492TIP3    H222420   4.050   1.636   1.187
 7493TIP3   OH222421   5.795   2.195   0.625
 7493TIP3    H122422   5.828   2.280   0.654
 7493TIP3    H222423   5.794   2.200   0.530
 7494TIP3   OH222424   7.455   3.426   0.677
 7494TIP3    H122425   7.451   3.382   0.762
 7494TIP3    H222426   7.411   3.367   0.617
 7495TIP3   OH222427   1.556   2.333   3.650
 7495TIP3    H122428   1.625   2.313   3.714
 7495TIP3    H222429   1.583   2.417   3.612
 7496TIP3   OH222430   3.211   2.573   6.133
 7496TIP3    H122431   3.285   2.630   6.114
 7496TIP3    H222432   3.171   2.555   6.048
 7497TIP3   OH222433   7.155   4.300   2.161
 7497TIP3    H122434   7.105   4.286   2.080
 7497TIP3    H222435   7.124   4.384   2.194
 7498TIP3   OH222436   0.932   6.099   5.356
 7498TIP3    H122437   0.877   6.040   5.304
 7498TIP3    H222438   0.871   6.162   5.393
 7499TIP3   OH222439   2.627   6.263   2.050
 7499TIP3    H122440   2.602   6.215   2.128
 7499TIP3    H222441   2.600   6.207   1.977
 7500TIP3   OH222442   4.349   0.688   0.758
 7500TIP3    H122443   4.391   0.645   0.833
 7500TIP3    H222444   4.356   0.782   0.777
 7501TIP3   OH222445   8.243   5.500   5.228
 7501TIP3    H122446   8.158   5.475   5.264
 7501TIP3    H222447   8.245   5.461   5.140
 7502TIP3   OH222448   0.618   0.522   2.453
 7502TIP3    H122449   0.611   0.616   2.435
 7502TIP3    H222450   0.611   0.481   2.366
 7503TIP3   OH222451   6.696   6.058   4.048
 7503TIP3    H122452   6.668   6.041   3.958
 7503TIP3    H222453   6.746   5.980   4.072
 7504TIP3   OH222454   2.041   6.587   3.030
 7504TIP3    H122455   2.070   6.515   2.974
 7504TIP3    H222456   1.983   6.545   3.094
 7505TIP3   OH222457   7.498   3.520   3.753
 7505TIP3    H122458   7.486   3.443   3.808
 7505TIP3    H222459   7.586   3.551   3.774
 7506TIP3   OH222460   2.641   6.781   2.966
 7506TIP3    H122461   2.567   6.842   2.966
 7506TIP3    H222462   2.661   6.767   2.874
 7507TIP3   OH222463   2.794   1.168   3.895
 7507TIP3    H122464   2.701   1.184   3.879
 7507TIP3    H222465   2.804   1.073   3.886
 7508TIP3   OH222466   4.287   1.654   4.910
 7508TIP3    H122467   4.255   1.715   4.844
 7508TIP3    H222468   4.221   1.657   4.980
 7509TIP3   OH222469   6.113   0.712   6.040
 7509TIP3    H122470   6.099   0.628   5.996
 7509TIP3    H222471   6.046   0.770   6.004
 7510TIP3   OH222472   1.715   0.017   5.157
 7510TIP3    H122473   1.714  -0.052   5.091
 7510TIP3    H222474   1.623   0.039   5.171
 7511TIP3   OH222475   5.732   0.990   4.521
 7511TIP3    H122476   5.723   1.015   4.429
 7511TIP3    H222477   5.712   1.070   4.569
 7512TIP3   OH222478   4.049   0.903   4.177
 7512TIP3    H122479   4.003   0.968   4.124
 7512TIP3    H222480   4.091   0.846   4.112
 7513TIP3   OH222481   2.507   3.405   1.651
 7513TIP3    H122482   2.587   3.448   1.683
 7513TIP3    H222483   2.441   3.474   1.651
 7514TIP3   OH222484   2.651   4.609   0.502
 7514TIP3    H122485   2.707   4.578   0.431
 7514TIP3    H222486   2.607   4.686   0.467
 7515TIP3   OH222487   0.198   4.169   1.192
 7515TIP3    H122488   0.169   4.199   1.105
 7515TIP3    H222489   0.182   4.075   1.191
 7516TIP3   OH222490   8.063   4.273   5.619
 7516TIP3    H122491   8.049   4.207   5.688
 7516TIP3    H222492   8.136   4.326   5.652
 7517TIP3   OH222493   2.351   4.796   2.056
 7517TIP3    H122494   2.401   4.861   2.106
 7517TIP3    H222495   2.335   4.725   2.119
 7518TIP3   OH222496   8.216   0.526   0.757
 7518TIP3    H122497   8.223   0.618   0.782
 7518TIP3    H222498   8.305   0.501   0.733
 7519TIP3   OH222499   1.864   2.748   2.509
 7519TIP3    H122500   1.811   2.820   2.543
 7519TIP3    H222501   1.945   2.789   2.480
 7520TIP3   OH222502   7.675   5.851   5.144
 7520TIP3    H122503   7.582   5.846   5.122
 7520TIP3    H222504   7.685   5.796   5.222
 7521TIP3   OH222505   6.745   6.400   2.940
 7521TIP3    H122506   6.697   6.317   2.951
 7521TIP3    H222507   6.721   6.451   3.017
 7522TIP3   OH222508   3.712   6.548   5.662
 7522TIP3    H122509   3.785   6.607   5.644
 7522TIP3    H222510   3.635   6.604   5.664
 7523TIP3   OH222511   1.553   6.966   2.631
 7523TIP3    H122512   1.648   6.978   2.632
 7523TIP3    H222513   1.539   6.899   2.564
 7524TIP3   OH222514   4.088   2.120   3.923
 7524TIP3    H122515   4.025   2.183   3.888
 7524TIP3    H222516   4.173   2.163   3.911
 7525TIP3   OH222517   0.033   2.191   1.862
 7525TIP3    H122518   0.033   2.222   1.953
 7525TIP3    H222519   0.113   2.138   1.856
 7526TIP3   OH222520   2.247   4.033   3.080
 7526TIP3    H122521   2.252   4.116   3.127
 7526TIP3    H222522   2.325   4.033   3.023
 7527TIP3   OH222523   2.107   1.550   1.609
 7527TIP3    H122524   2.188   1.572   1.656
 7527TIP3    H222525   2.038   1.564   1.673
 7528TIP3   OH222526   0.426   4.576   4.387
 7528TIP3    H122527   0.417   4.620   4.303
 7528TIP3    H222528   0.483   4.501   4.369
 7529TIP3   OH222529   7.370   0.349   5.030
 7529TIP3    H122530   7.448   0.328   4.978
 7529TIP3    H222531   7.405   0.398   5.105
 7530TIP3   OH222532   1.783   0.494   3.841
 7530TIP3    H122533   1.837   0.520   3.766
 7530TIP3    H222534   1.717   0.562   3.848
 7531TIP3   OH222535   5.340   7.139   6.558
 7531TIP3    H122536   5.310   7.049   6.550
 7531TIP3    H222537   5.312   7.166   6.645
 7532TIP3   OH222538   8.001   3.932   2.932
 7532TIP3    H122539   8.082   3.980   2.947
 7532TIP3    H222540   7.942   3.997   2.894
 7533TIP3   OH222541   1.710   0.311   5.510
 7533TIP3    H122542   1.761   0.351   5.439
 7533TIP3    H222543   1.731   0.218   5.505
 7534TIP3   OH222544   0.364   5.454   6.395
 7534TIP3    H122545   0.402   5.524   6.342
 7534TIP3    H222546   0.427   5.382   6.389
 7535TIP3   OH222547   5.125   1.017   5.304
 7535TIP3    H122548   5.082   1.032   5.388
 7535TIP3    H222549   5.212   1.055   5.314
 7536TIP3   OH222550   7.274   2.401   2.040
 7536TIP3    H122551   7.349   2.388   2.098
 7536TIP3    H222552   7.303   2.467   1.977
 7537TIP3   OH222553   8.301   4.914   5.133
 7537TIP3    H122554   8.209   4.902   5.155
 7537TIP3    H222555   8.349   4.862   5.197
 7538TIP3   OH222556   3.147   0.103   1.257
 7538TIP3    H122557   3.180   0.057   1.180
 7538TIP3    H222558   3.057   0.074   1.266
 7539TIP3   OH222559   0.998   5.332   6.278
 7539TIP3    H122560   1.085   5.295   6.264
 7539TIP3    H222561   0.959   5.337   6.191
 7540TIP3   OH222562   5.268   4.904   4.477
 7540TIP3    H122563   5.253   4.969   4.409
 7540TIP3    H222564   5.321   4.836   4.434
 7541TIP3   OH222565   6.728   4.096   0.327
 7541TIP3    H122566   6.685   4.023   0.283
 7541TIP3    H222567   6.740   4.066   0.417
 7542TIP3   OH222568   6.591   5.328   6.515
 7542TIP3    H122569   6.614   5.268   6.586
 7542TIP3    H222570   6.499   5.349   6.530
 7543TIP3   OH222571   4.583   7.197   2.871
 7543TIP3    H122572   4.603   7.243   2.790
 7543TIP3    H222573   4.652   7.225   2.932
 7544TIP3   OH222574   7.055   6.681   3.866
 7544TIP3    H122575   7.102   6.640   3.792
 7544TIP3    H222576   6.982   6.623   3.883
 7545TIP3   OH222577   5.774   1.286   2.889
 7545TIP3    H122578   5.782   1.191   2.879
 7545TIP3    H222579   5.693   1.298   2.938
 7546TIP3   OH222580   1.493   0.297   1.435
 7546TIP3    H122581   1.533   0.294   1.522
 7546TIP3    H222582   1.551   0.245   1.380
 7547TIP3   OH222583   6.611   7.205   0.804
 7547TIP3    H122584   6.579   7.160   0.725
 7547TIP3    H222585   6.591   7.297   0.788
 7548TIP3   OH222586   1.801   4.969   1.531
 7548TIP3    H122587   1.721   5.002   1.492
 7548TIP3    H222588   1.789   4.982   1.625
 7549TIP3   OH222589   4.445   6.742   4.635
 7549TIP3    H122590   4.524   6.796   4.644
 7549TIP3    H222591   4.457   6.696   4.552
 7550TIP3   OH222592   8.021   6.625   4.564
 7550TIP3    H122593   8.013   6.697   4.501
 7550TIP3    H222594   7.980   6.658   4.644
 7551TIP3   OH222595   5.345   6.899   4.571
 7551TIP3    H122596   5.397   6.825   4.539
 7551TIP3    H222597   5.363   6.901   4.665
 7552TIP3   OH222598   8.167   2.238   5.953
 7552TIP3    H122599   8.219   2.292   6.014
 7552TIP3    H222600   8.082   2.229   5.997
 7553TIP3   OH222601   2.082   5.127   4.849
 7553TIP3    H122602   2.023   5.052   4.850
 7553TIP3    H222603   2.169   5.089   4.842
 7554TIP3   OH222604   3.333   1.614   2.149
 7554TIP3    H122605   3.388   1.548   2.189
 7554TIP3    H222606   3.269   1.637   2.216
 7555TIP3   OH222607   5.580   6.830   6.735
 7555TIP3    H122608   5.640   6.770   6.778
 7555TIP3    H222609   5.601   6.916   6.771
 7556TIP3   OH222610   2.145   1.801   0.528
 7556TIP3    H122611   2.067   1.758   0.565
 7556TIP3    H222612   2.153   1.764   0.440
 7557TIP3   OH222613   5.149   4.323   6.087
 7557TIP3    H122614   5.201   4.387   6.136
 7557TIP3    H222615   5.203   4.244   6.086
 7558TIP3   OH222616   8.050   7.327   5.729
 7558TIP3    H122617   8.108   7.270   5.780
 7558TIP3    H222618   8.021   7.273   5.656
 7559TIP3   OH222619   6.476   3.745   3.283
 7559TIP3    H122620   6.498   3.681   3.351
 7559TIP3    H222621   6.420   3.809   3.328
 7560TIP3   OH222622   0.391   1.309   4.351
 7560TIP3    H122623   0.428   1.396   4.367
 7560TIP3    H222624   0.300   1.325   4.327
 7561TIP3   OH222625   7.425   2.152   5.394
 7561TIP3    H122626   7.398   2.124   5.307
 7561TIP3    H222627   7.452   2.243   5.382
 7562TIP3   OH222628   4.135   3.585   1.396
 7562TIP3    H122629   4.196   3.514   1.414
 7562TIP3    H222630   4.162   3.620   1.311
 7563TIP3   OH222631   0.330   5.782   4.262
 7563TIP3    H122632   0.360   5.716   4.199
 7563TIP3    H222633   0.368   5.864   4.231
 7564TIP3   OH222634   1.814   5.749   5.330
 7564TIP3    H122635   1.740   5.795   5.370
 7564TIP3    H222636   1.867   5.819   5.291
 7565TIP3   OH222637   6.617   4.779   3.994
 7565TIP3    H122638   6.711   4.795   3.986
 7565TIP3    H222639   6.590   4.751   3.907
 7566TIP3   OH222640   0.237   6.266   6.330
 7566TIP3    H122641   0.288   6.225   6.261
 7566TIP3    H222642   0.266   6.358   6.330
 7567TIP3   OH222643   7.378   3.177   0.077
 7567TIP3    H122644   7.356   3.118   0.149
 7567TIP3    H222645   7.295   3.190   0.031
 7568TIP3   OH222646   6.372   4.146   0.103
 7568TIP3    H122647   6.434   4.174   0.169
 7568TIP3    H222648   6.377   4.213   0.034
 7569TIP3   OH222649   2.489   7.417   4.130
 7569TIP3    H122650   2.493   7.501   4.174
 7569TIP3    H222651   2.402   7.383   4.149
 7570TIP3   OH222652   5.895   0.198   4.157
 7570TIP3    H122653   5.902   0.272   4.096
 7570TIP3    H222654   5.937   0.229   4.237
 7571TIP3   OH222655   2.037   1.058   4.094
 7571TIP3    H122656   2.091   0.980   4.084
 7571TIP3    H222657   1.995   1.047   4.180
 7572TIP3   OH222658   3.335   2.841   4.429
 7572TIP3    H122659   3.350   2.797   4.512
 7572TIP3    H222660   3.259   2.797   4.391
 7573TIP3   OH222661   2.742   6.061   0.632
 7573TIP3    H122662   2.831   6.058   0.596
 7573TIP3    H222663   2.751   6.027   0.721
 7574TIP3   OH222664   3.674   3.940   0.253
 7574TIP3    H122665   3.687   3.991   0.173
 7574TIP3    H222666   3.620   3.996   0.309
 7575TIP3   OH222667   6.098   6.023   5.996
 7575TIP3    H122668   6.169   5.961   5.983
 7575TIP3    H222669   6.120   6.097   5.940
 7576TIP3   OH222670   6.498   3.145   5.844
 7576TIP3    H122671   6.577   3.162   5.793
 7576TIP3    H222672   6.531   3.123   5.931
 7577TIP3   OH222673   4.452   3.766   5.180
 7577TIP3    H122674   4.367   3.808   5.168
 7577TIP3    H222675   4.442   3.678   5.144
 7578TIP3   OH222676   4.443   4.124   0.938
 7578TIP3    H122677   4.506   4.168   0.996
 7578TIP3    H222678   4.432   4.037   0.976
 7579TIP3   OH222679   1.166   6.883   1.555
 7579TIP3    H122680   1.188   6.931   1.635
 7579TIP3    H222681   1.242   6.894   1.498
 7580TIP3   OH222682   6.466   4.213   5.455
 7580TIP3    H122683   6.475   4.182   5.544
 7580TIP3    H222684   6.417   4.295   5.463
 7581TIP3   OH222685   3.814   7.174   6.079
 7581TIP3    H122686   3.904   7.158   6.049
 7581TIP3    H222687   3.759   7.126   6.017
 7582TIP3   OH222688   5.884   2.194   5.606
 7582TIP3    H122689   5.805   2.230   5.565
 7582TIP3    H222690   5.899   2.111   5.559
 7583TIP3   OH222691   0.472   0.726   1.991
 7583TIP3    H122692   0.545   0.678   1.953
 7583TIP3    H222693   0.414   0.743   1.916
 7584TIP3   OH222694   7.156   7.570   0.980
 7584TIP3    H122695   7.071   7.525   0.975
 7584TIP3    H222696   7.204   7.523   1.048
 7585TIP3   OH222697   5.784   1.751   6.330
 7585TIP3    H122698   5.832   1.813   6.275
 7585TIP3    H222699   5.741   1.691   6.268
 7586TIP3   OH222700   5.081   7.727   1.094
 7586TIP3    H122701   5.110   7.650   1.144
 7586TIP3    H222702   5.117   7.713   1.007
 7587TIP3   OH222703   3.183   2.062   6.585
 7587TIP3    H122704   3.154   2.108   6.664
 7587TIP3    H222705   3.168   2.125   6.514
 7588TIP3   OH222706   6.166   4.248   6.642
 7588TIP3    H122707   6.138   4.328   6.598
 7588TIP3    H222708   6.173   4.272   6.735
 7589TIP3   OH222709   0.701   2.100   5.537
 7589TIP3    H122710   0.768   2.106   5.605
 7589TIP3    H222711   0.719   2.175   5.479
 7590TIP3   OH222712   4.880   0.353   1.402
 7590TIP3    H122713   4.872   0.448   1.399
 7590TIP3    H222714   4.948   0.333   1.338
 7591TIP3   OH222715   6.966   7.520   5.881
 7591TIP3    H122716   6.963   7.448   5.945
 7591TIP3    H222717   7.019   7.588   5.924
 7592TIP3   OH222718   5.095   5.537   1.587
 7592TIP3    H122719   5.151   5.469   1.551
 7592TIP3    H222720   5.057   5.498   1.666
 7593TIP3   OH222721   1.948   5.407   3.851
 7593TIP3    H122722   2.021   5.406   3.790
 7593TIP3    H222723   1.872   5.433   3.798
 7594TIP3   OH222724   6.687   6.098   1.561
 7594TIP3    H122725   6.679   6.193   1.566
 7594TIP3    H222726   6.597   6.067   1.551
 7595TIP3   OH222727   4.117   6.969   3.607
 7595TIP3    H122728   4.041   6.917   3.636
 7595TIP3    H222729   4.080   7.034   3.548
 7596TIP3   OH222730   6.143   2.509   0.487
 7596TIP3    H122731   6.232   2.528   0.516
 7596TIP3    H222732   6.114   2.438   0.546
 7597TIP3   OH222733   0.373   2.667   4.004
 7597TIP3    H122734   0.392   2.749   3.960
 7597TIP3    H222735   0.397   2.682   4.096
 7598TIP3   OH222736   6.360   0.272   0.307
 7598TIP3    H122737   6.275   0.268   0.352
 7598TIP3    H222738   6.422   0.239   0.372
 7599TIP3   OH222739   2.755   0.180   5.675
 7599TIP3    H122740   2.816   0.245   5.709
 7599TIP3    H222741   2.810   0.122   5.621
 7600TIP3   OH222742   5.548   2.386   3.134
 7600TIP3    H122743   5.570   2.410   3.045
 7600TIP3    H222744   5.535   2.291   3.131
 7601TIP3   OH222745   3.891   0.394   2.758
 7601TIP3    H122746   3.830   0.464   2.736
 7601TIP3    H222747   3.967   0.438   2.794
 7602TIP3   OH222748   5.414   3.105   2.905
 7602TIP3    H122749   5.427   3.196   2.878
 7602TIP3    H222750   5.502   3.073   2.924
 7603TIP3   OH222751   7.462   6.989   6.694
 7603TIP3    H122752   7.430   7.056   6.634
 7603TIP3    H222753   7.529   6.942   6.643
 7604TIP3   OH222754   4.713   7.352   2.690
 7604TIP3    H122755   4.789   7.356   2.631
 7604TIP3    H222756   4.732   7.416   2.758
 7605TIP3   OH222757   0.156   1.098   2.321
 7605TIP3    H122758   0.229   1.091   2.259
 7605TIP3    H222759   0.102   1.169   2.287
 7606TIP3   OH222760   5.535   6.869   5.641
 7606TIP3    H122761   5.538   6.914   5.556
 7606TIP3    H222762   5.444   6.879   5.670
 7607TIP3   OH222763   1.555   1.130   0.353
 7607TIP3    H122764   1.460   1.141   0.356
 7607TIP3    H222765   1.588   1.212   0.318
 7608TIP3   OH222766   2.998   2.879   2.081
 7608TIP3    H122767   2.955   2.965   2.076
 7608TIP3    H222768   3.059   2.888   2.154
 7609TIP3   OH222769   3.813   7.537   0.118
 7609TIP3    H122770   3.754   7.471   0.081
 7609TIP3    H222771   3.823   7.602   0.049
 7610TIP3   OH222772   6.449   1.310   4.795
 7610TIP3    H122773   6.450   1.223   4.835
 7610TIP3    H222774   6.458   1.371   4.868
 7611TIP3   OH222775   3.890   5.956   0.398
 7611TIP3    H122776   3.890   5.892   0.327
 7611TIP3    H222777   3.883   6.041   0.353
 7612TIP3   OH222778   2.877   0.587   3.545
 7612TIP3    H122779   2.967   0.586   3.576
 7612TIP3    H222780   2.882   0.624   3.457
 7613TIP3   OH222781   4.033   6.538   6.216
 7613TIP3    H122782   4.114   6.588   6.222
 7613TIP3    H222783   4.005   6.548   6.125
 7614TIP3   OH222784   7.558   4.725   2.313
 7614TIP3    H122785   7.502   4.671   2.257
 7614TIP3    H222786   7.535   4.815   2.289
 7615TIP3   OH222787   7.145   6.833   5.004
 7615TIP3    H122788   7.180   6.748   5.032
 7615TIP3    H222789   7.208   6.865   4.939
 7616TIP3   OH222790   1.580   5.015   5.362
 7616TIP3    H122791   1.586   5.032   5.456
 7616TIP3    H222792   1.666   4.983   5.337
 7617TIP3   OH222793   6.756   2.858   3.807
 7617TIP3    H122794   6.733   2.919   3.737
 7617TIP3    H222795   6.701   2.886   3.881
 7618TIP3   OH222796   6.738   3.347   3.624
 7618TIP3    H122797   6.805   3.405   3.661
 7618TIP3    H222798   6.670   3.343   3.692
 7619TIP3   OH222799   1.056   2.316   6.670
 7619TIP3    H122800   0.967   2.351   6.675
 7619TIP3    H222801   1.112   2.394   6.671
 7620TIP3   OH222802   6.434   3.875   0.503
 7620TIP3    H122803   6.359   3.816   0.493
 7620TIP3    H222804   6.510   3.822   0.480
 7621TIP3   OH222805   1.854   0.028   5.791
 7621TIP3    H122806   1.934   0.052   5.744
 7621TIP3    H222807   1.807   0.110   5.803
 7622TIP3   OH222808   6.562   1.921   4.087
 7622TIP3    H122809   6.479   1.882   4.115
 7622TIP3    H222810   6.539   2.008   4.054
 7623TIP3   OH222811   5.834   2.441   3.612
 7623TIP3    H122812   5.761   2.449   3.550
 7623TIP3    H222813   5.912   2.443   3.557
 7624TIP3   OH222814   4.084   3.551   4.637
 7624TIP3    H122815   3.989   3.545   4.630
 7624TIP3    H222816   4.115   3.552   4.546
 7625TIP3   OH222817   7.379   7.128   4.664
 7625TIP3    H122818   7.362   7.210   4.618
 7625TIP3    H222819   7.444   7.083   4.610
 7626TIP3   OH222820   4.545   3.884   4.158
 7626TIP3    H122821   4.527   3.874   4.252
 7626TIP3    H222822   4.590   3.968   4.152
 7627TIP3   OH222823   6.463   3.221   3.735
 7627TIP3    H122824   6.500   3.293   3.785
 7627TIP3    H222825   6.507   3.143   3.769
 7628TIP3   OH222826   7.493   6.284   6.000
 7628TIP3    H122827   7.486   6.333   6.082
 7628TIP3    H222828   7.555   6.213   6.020
 7629TIP3   OH222829   0.345   0.425   0.585
 7629TIP3    H122830   0.261   0.472   0.589
 7629TIP3    H222831   0.399   0.468   0.651
 7630TIP3   OH222832   1.242   3.072   6.108
 7630TIP3    H122833   1.234   3.167   6.107
 7630TIP3    H222834   1.269   3.049   6.020
 7631TIP3   OH222835   4.164   2.242   6.512
 7631TIP3    H122836   4.142   2.270   6.601
 7631TIP3    H222837   4.249   2.283   6.494
 7632TIP3   OH222838   1.941   6.624   1.768
 7632TIP3    H122839   1.906   6.700   1.814
 7632TIP3    H222840   2.021   6.602   1.815
 7633TIP3   OH222841   2.960   4.079   2.062
 7633TIP3    H122842   2.967   4.070   1.967
 7633TIP3    H222843   3.041   4.041   2.096
 7634TIP3   OH222844   2.408   7.577   1.022
 7634TIP3    H122845   2.400   7.482   1.013
 7634TIP3    H222846   2.373   7.595   1.110
 7635TIP3   OH222847   2.299   1.289   4.131
 7635TIP3    H122848   2.306   1.204   4.088
 7635TIP3    H222849   2.211   1.292   4.167
 7636TIP3   OH222850   0.937   2.654   1.680
 7636TIP3    H122851   0.884   2.726   1.646
 7636TIP3    H222852   0.893   2.628   1.761
 7637TIP3   OH222853   4.085   5.549   3.290
 7637TIP3    H122854   4.080   5.643   3.302
 7637TIP3    H222855   4.088   5.537   3.195
 7638TIP3   OH222856   0.295   0.416   0.286
 7638TIP3    H122857   0.320   0.397   0.376
 7638TIP3    H222858   0.233   0.347   0.263
 7639TIP3   OH222859   3.933   3.339   3.575
 7639TIP3    H122860   4.017   3.347   3.529
 7639TIP3    H222861   3.872   3.306   3.510
 7640TIP3   OH222862   3.864   3.735   2.863
 7640TIP3    H122863   3.918   3.711   2.788
 7640TIP3    H222864   3.896   3.680   2.934
 7641TIP3   OH222865   6.873   1.056   1.796
 7641TIP3    H122866   6.841   1.131   1.745
 7641TIP3    H222867   6.967   1.055   1.780
 7642TIP3   OH222868   1.969   5.872   0.848
 7642TIP3    H122869   2.026   5.908   0.916
 7642TIP3    H222870   1.881   5.895   0.876
 7643TIP3   OH222871   6.222   3.543   5.912
 7643TIP3    H122872   6.254   3.476   5.851
 7643TIP3    H222873   6.300   3.586   5.945
 7644TIP3   OH222874   2.644   6.102   0.231
 7644TIP3    H122875   2.733   6.100   0.198
 7644TIP3    H222876   2.615   6.192   0.218
 7645TIP3   OH222877   2.683   5.528   6.716
 7645TIP3    H122878   2.683   5.526   6.621
 7645TIP3    H222879   2.593   5.506   6.741
 7646TIP3   OH222880   5.969   5.701   3.050
 7646TIP3    H122881   5.881   5.693   3.013
 7646TIP3    H222882   6.025   5.652   2.990
 7647TIP3   OH222883   8.205   5.638   6.617
 7647TIP3    H122884   8.183   5.710   6.557
 7647TIP3    H222885   8.301   5.641   6.624
 7648TIP3   OH222886   6.852   6.962   3.100
 7648TIP3    H122887   6.846   6.994   3.009
 7648TIP3    H222888   6.931   6.908   3.101
 7649TIP3   OH222889   3.905   1.268   3.562
 7649TIP3    H122890   3.977   1.220   3.521
 7649TIP3    H222891   3.900   1.350   3.515
 7650TIP3   OH222892   5.626   0.356   4.221
 7650TIP3    H122893   5.672   0.298   4.282
 7650TIP3    H222894   5.596   0.298   4.151
 7651TIP3   OH222895   6.075   2.339   0.682
 7651TIP3    H122896   6.013   2.275   0.646
 7651TIP3    H222897   6.034   2.368   0.763
 7652TIP3   OH222898   3.419   7.677   2.763
 7652TIP3    H122899   3.362   7.628   2.822
 7652TIP3    H222900   3.376   7.762   2.753
 7653TIP3   OH222901   2.295   5.874   4.083
 7653TIP3    H122902   2.252   5.892   4.167
 7653TIP3    H222903   2.326   5.783   4.091
 7654TIP3   OH222904   2.950   4.579   6.083
 7654TIP3    H122905   3.033   4.623   6.062
 7654TIP3    H222906   2.883   4.648   6.072
 7655TIP3   OH222907   0.735   0.293   5.009
 7655TIP3    H122908   0.768   0.228   5.072
 7655TIP3    H222909   0.750   0.377   5.052
 7656TIP3   OH222910   2.247   7.292   0.102
 7656TIP3    H122911   2.152   7.293   0.113
 7656TIP3    H222912   2.264   7.350   0.028
 7657TIP3   OH222913   7.076   1.456   6.323
 7657TIP3    H122914   7.071   1.509   6.402
 7657TIP3    H222915   7.035   1.510   6.255
 7658TIP3   OH222916   0.925   2.511   4.296
 7658TIP3    H122917   0.904   2.552   4.212
 7658TIP3    H222918   1.018   2.488   4.289
 7659TIP3   OH222919   3.150   3.041   6.708
 7659TIP3    H122920   3.226   3.070   6.759
 7659TIP3    H222921   3.133   2.952   6.739
 7660TIP3   OH222922   6.210   5.055   5.039
 7660TIP3    H122923   6.291   5.033   5.084
 7660TIP3    H222924   6.141   5.021   5.096
 7661TIP3   OH222925   8.181   2.521   0.027
 7661TIP3    H122926   8.275   2.536   0.041
 7661TIP3    H222927   8.140   2.559   0.104
 7662TIP3   OH222928   5.460   7.601   6.264
 7662TIP3    H122929   5.384   7.600   6.205
 7662TIP3    H222930   5.503   7.516   6.248
 7663TIP3   OH222931   1.324   5.951   1.493
 7663TIP3    H122932   1.333   5.883   1.559
 7663TIP3    H222933   1.355   5.910   1.412
 7664TIP3   OH222934   5.849   7.009   0.360
 7664TIP3    H122935   5.922   7.067   0.341
 7664TIP3    H222936   5.827   7.025   0.452
 7665TIP3   OH222937   0.491   2.932   0.727
 7665TIP3    H122938   0.492   2.840   0.752
 7665TIP3    H222939   0.508   2.932   0.633
 7666TIP3   OH222940   6.460   5.667   5.582
 7666TIP3    H122941   6.437   5.633   5.495
 7666TIP3    H222942   6.421   5.603   5.643
 7667TIP3   OH222943   0.664   7.522   0.933
 7667TIP3    H122944   0.625   7.481   1.010
 7667TIP3    H222945   0.595   7.579   0.900
 7668TIP3   OH222946   5.063   6.942   2.608
 7668TIP3    H122947   5.080   6.898   2.525
 7668TIP3    H222948   5.011   7.018   2.585
 7669TIP3   OH222949   4.388   6.625   2.601
 7669TIP3    H122950   4.412   6.665   2.517
 7669TIP3    H222951   4.293   6.636   2.605
 7670TIP3   OH222952   1.237   2.599   6.154
 7670TIP3    H122953   1.328   2.626   6.146
 7670TIP3    H222954   1.234   2.511   6.116
 7671TIP3   OH222955   2.723   1.605   2.710
 7671TIP3    H122956   2.796   1.663   2.730
 7671TIP3    H222957   2.749   1.560   2.629
 7672TIP3   OH222958   1.896   3.885   2.128
 7672TIP3    H122959   1.862   3.798   2.110
 7672TIP3    H222960   1.822   3.932   2.169
 7673TIP3   OH222961   5.424   6.677   0.635
 7673TIP3    H122962   5.402   6.584   0.629
 7673TIP3    H222963   5.421   6.707   0.544
 7674TIP3   OH222964   2.355   5.394   3.990
 7674TIP3    H122965   2.406   5.430   3.917
 7674TIP3    H222966   2.334   5.470   4.044
 7675TIP3   OH222967   0.039   5.170   5.141
 7675TIP3    H122968   0.038   5.075   5.133
 7675TIP3    H222969   0.115   5.189   5.196
 7676TIP3   OH222970   6.185   3.452   6.454
 7676TIP3    H122971   6.244   3.378   6.470
 7676TIP3    H222972   6.113   3.438   6.515
 7677TIP3   OH222973   0.608   0.315   6.176
 7677TIP3    H122974   0.595   0.341   6.267
 7677TIP3    H222975   0.674   0.376   6.143
 7678TIP3   OH222976   2.209   3.905   5.380
 7678TIP3    H122977   2.211   3.920   5.285
 7678TIP3    H222978   2.288   3.853   5.397
 7679TIP3   OH222979   4.000   2.351   6.709
 7679TIP3    H122980   3.929   2.311   6.660
 7679TIP3    H222981   3.992   2.445   6.691
 7680TIP3   OH222982   1.888   6.448   0.783
 7680TIP3    H122983   1.813   6.449   0.723
 7680TIP3    H222984   1.953   6.504   0.741
 7681TIP3   OH222985   3.504   7.079   2.682
 7681TIP3    H122986   3.504   6.998   2.732
 7681TIP3    H222987   3.415   7.088   2.650
 7682TIP3   OH222988   7.170   4.299   4.106
 7682TIP3    H122989   7.126   4.384   4.103
 7682TIP3    H222990   7.100   4.236   4.127
 7683TIP3   OH222991   1.298   7.711   1.472
 7683TIP3    H122992   1.267   7.633   1.518
 7683TIP3    H222993   1.290   7.688   1.379
 7684TIP3   OH222994   4.899   5.991   5.638
 7684TIP3    H122995   4.849   6.072   5.649
 7684TIP3    H222996   4.948   5.981   5.720
 7685TIP3   OH222997   4.834   4.256   4.533
 7685TIP3    H122998   4.867   4.254   4.623
 7685TIP3    H222999   4.836   4.165   4.504
 7686TIP3   OH223000   0.231   1.902   5.770
 7686TIP3    H123001   0.155   1.927   5.717
 7686TIP3    H223002   0.245   1.977   5.828
 7687TIP3   OH223003   2.626   4.683   6.610
 7687TIP3    H123004   2.689   4.754   6.608
 7687TIP3    H223005   2.548   4.718   6.567
 7688TIP3   OH223006   3.992   5.641   3.733
 7688TIP3    H123007   3.938   5.691   3.671
 7688TIP3    H223008   3.932   5.617   3.803
 7689TIP3   OH223009   8.134   1.558   2.223
 7689TIP3    H123010   8.044   1.583   2.203
 7689TIP3    H223011   8.177   1.641   2.245
 7690TIP3   OH223012   8.003   6.328   2.560
 7690TIP3    H123013   7.981   6.415   2.525
 7690TIP3    H223014   8.026   6.345   2.652
 7691TIP3   OH223015   6.212   3.257   3.990
 7691TIP3    H123016   6.218   3.194   4.062
 7691TIP3    H223017   6.261   3.217   3.918
 7692TIP3   OH223018   6.979   6.216   5.444
 7692TIP3    H123019   7.011   6.279   5.379
 7692TIP3    H223020   6.977   6.132   5.398
 7693TIP3   OH223021   5.725   2.239   2.068
 7693TIP3    H123022   5.760   2.312   2.016
 7693TIP3    H223023   5.744   2.264   2.159
 7694TIP3   OH223024   1.707   0.740   5.986
 7694TIP3    H123025   1.721   0.779   5.900
 7694TIP3    H223026   1.781   0.770   6.039
 7695TIP3   OH223027   6.357   7.440   3.929
 7695TIP3    H123028   6.333   7.347   3.935
 7695TIP3    H223029   6.449   7.439   3.904
 7696TIP3   OH223030   7.168   3.422   0.420
 7696TIP3    H123031   7.208   3.498   0.461
 7696TIP3    H223032   7.074   3.434   0.435
 7697TIP3   OH223033   2.128   1.212   0.563
 7697TIP3    H123034   2.124   1.211   0.659
 7697TIP3    H223035   2.125   1.119   0.539
 7698TIP3   OH223036   3.242   4.851   4.039
 7698TIP3    H123037   3.200   4.921   4.090
 7698TIP3    H223038   3.253   4.779   4.101
 7699TIP3   OH223039   3.453   7.375   5.513
 7699TIP3    H123040   3.501   7.389   5.594
 7699TIP3    H223041   3.494   7.435   5.450
 7700TIP3   OH223042   0.229   4.838   5.322
 7700TIP3    H123043   0.214   4.747   5.296
 7700TIP3    H223044   0.323   4.841   5.343
 7701TIP3   OH223045   1.652   4.433   1.676
 7701TIP3    H123046   1.656   4.515   1.627
 7701TIP3    H223047   1.743   4.407   1.686
 7702TIP3   OH223048   0.229   5.678   4.570
 7702TIP3    H123049   0.200   5.763   4.604
 7702TIP3    H223050   0.167   5.615   4.607
 7703TIP3   OH223051   0.807   5.438   6.694
 7703TIP3    H123052   0.834   5.418   6.605
 7703TIP3    H223053   0.729   5.383   6.707
 7704TIP3   OH223054   0.143   0.899   4.728
 7704TIP3    H123055   0.135   0.899   4.633
 7704TIP3    H223056   0.136   0.807   4.752
 7705TIP3   OH223057   7.580   5.017   3.771
 7705TIP3    H123058   7.639   5.013   3.846
 7705TIP3    H223059   7.495   5.041   3.809
 7706TIP3   OH223060   8.168   3.681   2.750
 7706TIP3    H123061   8.228   3.732   2.697
 7706TIP3    H223062   8.082   3.720   2.733
 7707TIP3   OH223063   7.359   0.447   5.632
 7707TIP3    H123064   7.294   0.387   5.670
 7707TIP3    H223065   7.371   0.514   5.699
 7708TIP3   OH223066   2.991   7.399   3.527
 7708TIP3    H123067   2.972   7.485   3.491
 7708TIP3    H223068   2.920   7.382   3.589
 7709TIP3   OH223069   3.292   4.656   5.296
 7709TIP3    H123070   3.342   4.736   5.285
 7709TIP3    H223071   3.269   4.654   5.390
 7710TIP3   OH223072   2.360   0.383   6.403
 7710TIP3    H123073   2.297   0.439   6.449
 7710TIP3    H223074   2.310   0.303   6.384
 7711TIP3   OH223075   0.195   7.203   1.234
 7711TIP3    H123076   0.142   7.192   1.312
 7711TIP3    H223077   0.240   7.287   1.248
 7712TIP3   OH223078   4.970   6.669   3.934
 7712TIP3    H123079   5.058   6.703   3.951
 7712TIP3    H223080   4.965   6.588   3.985
 7713TIP3   OH223081   5.120   5.290   2.688
 7713TIP3    H123082   5.160   5.373   2.711
 7713TIP3    H223083   5.185   5.224   2.714
 7714TIP3   OH223084   6.133   4.402   0.518
 7714TIP3    H123085   6.134   4.493   0.549
 7714TIP3    H223086   6.187   4.355   0.581
 7715TIP3   OH223087   1.057   7.535   5.482
 7715TIP3    H123088   1.045   7.476   5.556
 7715TIP3    H223089   1.085   7.478   5.410
 7716TIP3   OH223090   2.432   5.981   5.310
 7716TIP3    H123091   2.417   6.059   5.362
 7716TIP3    H223092   2.525   5.961   5.322
 7717TIP3   OH223093   2.999   5.453   0.974
 7717TIP3    H123094   3.059   5.521   0.944
 7717TIP3    H223095   3.036   5.371   0.940
 7718TIP3   OH223096   8.179   4.392   1.860
 7718TIP3    H123097   8.123   4.366   1.787
 7718TIP3    H223098   8.155   4.332   1.931
 7719TIP3   OH223099   2.388   6.794   3.804
 7719TIP3    H123100   2.422   6.817   3.891
 7719TIP3    H223101   2.336   6.870   3.779
 7720TIP3   OH223102   2.127   3.775   0.280
 7720TIP3    H123103   2.201   3.737   0.328
 7720TIP3    H223104   2.124   3.866   0.309
 7721TIP3   OH223105   5.056   5.072   1.149
 7721TIP3    H123106   5.139   5.086   1.103
 7721TIP3    H223107   5.036   5.157   1.188
 7722TIP3   OH223108   1.372   1.062   0.006
 7722TIP3    H123109   1.360   1.137  -0.052
 7722TIP3    H223110   1.346   1.094   0.093
 7723TIP3   OH223111   0.264   2.047   3.779
 7723TIP3    H123112   0.296   2.044   3.689
 7723TIP3    H223113   0.202   2.120   3.780
 7724TIP3   OH223114   2.009   3.840   4.247
 7724TIP3    H123115   2.000   3.887   4.330
 7724TIP3    H223116   1.986   3.750   4.268
 7725TIP3   OH223117   7.753   3.162   4.189
 7725TIP3    H123118   7.697   3.214   4.131
 7725TIP3    H223119   7.842   3.192   4.170
 7726TIP3   OH223120   6.838   3.148   6.017
 7726TIP3    H123121   6.838   3.062   5.975
 7726TIP3    H223122   6.753   3.153   6.062
 7727TIP3   OH223123   7.430   2.969   2.273
 7727TIP3    H123124   7.344   2.929   2.265
 7727TIP3    H223125   7.416   3.046   2.328
 7728TIP3   OH223126   6.858   6.556   1.427
 7728TIP3    H123127   6.947   6.524   1.440
 7728TIP3    H223128   6.866   6.651   1.430
 7729TIP3   OH223129   1.651   6.724   0.916
 7729TIP3    H123130   1.674   6.793   0.853
 7729TIP3    H223131   1.698   6.647   0.885
 7730TIP3   OH223132   6.688   2.072   2.236
 7730TIP3    H123133   6.702   2.069   2.141
 7730TIP3    H223134   6.774   2.051   2.273
 7731TIP3   OH223135   0.059   2.833   1.717
 7731TIP3    H123136   0.138   2.858   1.670
 7731TIP3    H223137   0.062   2.885   1.798
 7732TIP3   OH223138   0.065   2.118   4.574
 7732TIP3    H123139   0.058   2.090   4.665
 7732TIP3    H223140  -0.004   2.184   4.563
 7733TIP3   OH223141   2.089   2.816   5.474
 7733TIP3    H123142   2.121   2.866   5.399
 7733TIP3    H223143   2.062   2.731   5.437
 7734TIP3   OH223144   8.229   5.277   2.658
 7734TIP3    H123145   8.319   5.266   2.628
 7734TIP3    H223146   8.200   5.189   2.681
 7735TIP3   OH223147   6.736   3.359   4.148
 7735TIP3    H123148   6.720   3.355   4.243
 7735TIP3    H223149   6.717   3.450   4.125
 7736TIP3   OH223150   3.593   7.809   2.956
 7736TIP3    H123151   3.563   7.842   2.871
 7736TIP3    H223152   3.585   7.714   2.949
 7737TIP3   OH223153   7.054   3.421   3.589
 7737TIP3    H123154   7.064   3.329   3.612
 7737TIP3    H223155   7.092   3.469   3.662
 7738TIP3   OH223156   8.109   7.528   3.969
 7738TIP3    H123157   8.124   7.465   3.898
 7738TIP3    H223158   8.029   7.498   4.012
 7739TIP3   OH223159   7.724   7.063   5.731
 7739TIP3    H123160   7.819   7.060   5.734
 7739TIP3    H223161   7.696   7.000   5.798
 7740TIP3   OH223162   0.898   4.366   2.354
 7740TIP3    H123163   0.938   4.307   2.418
 7740TIP3    H223164   0.913   4.323   2.269
 7741TIP3   OH223165   0.091   2.225   1.414
 7741TIP3    H123166   0.075   2.292   1.348
 7741TIP3    H223167   0.148   2.162   1.371
 7742TIP3   OH223168   8.118   0.543   1.918
 7742TIP3    H123169   8.108   0.627   1.963
 7742TIP3    H223170   8.192   0.501   1.961
 7743TIP3   OH223171   5.469   1.838   5.733
 7743TIP3    H123172   5.488   1.768   5.671
 7743TIP3    H223173   5.501   1.917   5.689
 7744TIP3   OH223174   2.235   6.980   1.365
 7744TIP3    H123175   2.227   6.893   1.325
 7744TIP3    H223176   2.320   7.012   1.334
 7745TIP3   OH223177   1.313   7.375   3.605
 7745TIP3    H123178   1.248   7.422   3.657
 7745TIP3    H223179   1.310   7.418   3.519
 7746TIP3   OH223180   0.490   5.636   1.237
 7746TIP3    H123181   0.414   5.578   1.236
 7746TIP3    H223182   0.551   5.593   1.297
 7747TIP3   OH223183   1.216   5.827   2.591
 7747TIP3    H123184   1.276   5.862   2.525
 7747TIP3    H223185   1.149   5.780   2.540
 7748TIP3   OH223186   4.410   3.290   6.533
 7748TIP3    H123187   4.393   3.198   6.512
 7748TIP3    H223188   4.376   3.339   6.458
 7749TIP3   OH223189   2.761   7.494   4.928
 7749TIP3    H123190   2.802   7.455   5.005
 7749TIP3    H223191   2.799   7.582   4.922
 7750TIP3   OH223192   2.108   6.422   5.216
 7750TIP3    H123193   2.147   6.503   5.249
 7750TIP3    H223194   2.080   6.442   5.127
 7751TIP3   OH223195   7.052   2.500   2.108
 7751TIP3    H123196   6.987   2.431   2.092
 7751TIP3    H223197   7.135   2.463   2.078
 7752TIP3   OH223198   1.581   1.608   6.198
 7752TIP3    H123199   1.573   1.688   6.146
 7752TIP3    H223200   1.667   1.574   6.175
 7753TIP3   OH223201   6.400   3.736   5.090
 7753TIP3    H123202   6.496   3.735   5.087
 7753TIP3    H223203   6.379   3.713   5.180
 7754TIP3   OH223204   3.016   3.774   4.263
 7754TIP3    H123205   2.956   3.805   4.331
 7754TIP3    H223206   2.987   3.818   4.184
 7755TIP3   OH223207   5.720   3.959   3.367
 7755TIP3    H123208   5.733   3.895   3.297
 7755TIP3    H223209   5.772   3.925   3.440
 7756TIP3   OH223210   7.002   5.913   2.122
 7756TIP3    H123211   6.908   5.915   2.141
 7756TIP3    H223212   7.014   5.980   2.054
 7757TIP3   OH223213   6.117   2.035   5.089
 7757TIP3    H123214   6.155   2.110   5.043
 7757TIP3    H223215   6.182   1.965   5.078
 7758TIP3   OH223216   5.307   2.841   0.163
 7758TIP3    H123217   5.369   2.813   0.096
 7758TIP3    H223218   5.347   2.815   0.246
 7759TIP3   OH223219   1.732   4.806   0.079
 7759TIP3    H123220   1.695   4.859   0.151
 7759TIP3    H223221   1.809   4.856   0.051
 7760TIP3   OH223222   4.602   5.223   2.249
 7760TIP3    H123223   4.645   5.309   2.256
 7760TIP3    H223224   4.673   5.160   2.249
 7761TIP3   OH223225   1.639   2.329   2.049
 7761TIP3    H123226   1.609   2.408   2.093
 7761TIP3    H223227   1.582   2.320   1.973
 7762TIP3   OH223228   4.486   7.364   6.125
 7762TIP3    H123229   4.558   7.316   6.086
 7762TIP3    H223230   4.525   7.446   6.155
 7763TIP3   OH223231   4.240   1.730   6.072
 7763TIP3    H123232   4.179   1.771   6.133
 7763TIP3    H223233   4.313   1.701   6.127
 7764TIP3   OH223234   2.071   1.379   4.258
 7764TIP3    H123235   2.040   1.345   4.342
 7764TIP3    H223236   2.044   1.471   4.257
 7765TIP3   OH223237   3.329   1.934   6.301
 7765TIP3    H123238   3.309   2.027   6.312
 7765TIP3    H223239   3.249   1.889   6.330
 7766TIP3   OH223240   5.159   0.509   6.722
 7766TIP3    H123241   5.117   0.580   6.769
 7766TIP3    H223242   5.098   0.436   6.729
 7767TIP3   OH223243   6.044   4.403   1.140
 7767TIP3    H123244   6.091   4.323   1.115
 7767TIP3    H223245   6.074   4.421   1.229
 7768TIP3   OH223246   6.263   1.569   2.543
 7768TIP3    H123247   6.293   1.482   2.516
 7768TIP3    H223248   6.172   1.556   2.569
 7769TIP3   OH223249   1.988   4.388   3.261
 7769TIP3    H123250   2.051   4.404   3.190
 7769TIP3    H223251   1.922   4.457   3.250
 7770TIP3   OH223252   3.400   5.421   0.754
 7770TIP3    H123253   3.408   5.505   0.798
 7770TIP3    H223254   3.337   5.436   0.684
 7771TIP3   OH223255   2.802   7.525   3.993
 7771TIP3    H123256   2.870   7.483   3.940
 7771TIP3    H223257   2.806   7.481   4.077
 7772TIP3   OH223258   4.517   0.221   4.112
 7772TIP3    H123259   4.570   0.268   4.047
 7772TIP3    H223260   4.571   0.220   4.191
 7773TIP3   OH223261   7.540   3.547   4.600
 7773TIP3    H123262   7.541   3.639   4.575
 7773TIP3    H223263   7.585   3.502   4.528
 7774TIP3   OH223264   4.312   7.066   2.959
 7774TIP3    H123265   4.396   7.047   3.001
 7774TIP3    H223266   4.316   7.160   2.939
 7775TIP3   OH223267   5.247   2.488   3.399
 7775TIP3    H123268   5.307   2.553   3.362
 7775TIP3    H223269   5.275   2.479   3.490
 7776TIP3   OH223270   2.116   4.903   6.515
 7776TIP3    H123271   2.086   4.992   6.536
 7776TIP3    H223272   2.072   4.881   6.433
 7777TIP3   OH223273   2.366   0.168   6.627
 7777TIP3    H123274   2.395   0.084   6.592
 7777TIP3    H223275   2.390   0.165   6.720
 7778TIP3   OH223276   4.330   2.369   3.035
 7778TIP3    H123277   4.380   2.302   3.083
 7778TIP3    H223278   4.330   2.445   3.093
 7779TIP3   OH223279   5.986   1.076   2.344
 7779TIP3    H123280   6.006   0.998   2.396
 7779TIP3    H223281   5.996   1.149   2.405
 7780TIP3   OH223282   1.477   4.080   4.117
 7780TIP3    H123283   1.392   4.122   4.133
 7780TIP3    H223284   1.496   4.033   4.198
 7781TIP3   OH223285   0.053   5.441   4.600
 7781TIP3    H123286  -0.033   5.484   4.605
 7781TIP3    H223287   0.045   5.366   4.658
 7782TIP3   OH223288   6.517   1.516   6.576
 7782TIP3    H123289   6.517   1.429   6.615
 7782TIP3    H223290   6.567   1.570   6.637
 7783TIP3   OH223291   0.591   2.083   1.925
 7783TIP3    H123292   0.575   2.006   1.870
 7783TIP3    H223293   0.680   2.071   1.957
 7784TIP3   OH223294   2.633   4.647   1.925
 7784TIP3    H123295   2.667   4.664   1.837
 7784TIP3    H223296   2.617   4.734   1.961
 7785TIP3   OH223297   7.777   5.062   0.647
 7785TIP3    H123298   7.843   5.069   0.716
 7785TIP3    H223299   7.734   5.148   0.647
 7786TIP3   OH223300   4.073   3.521   4.361
 7786TIP3    H123301   4.083   3.558   4.273
 7786TIP3    H223302   4.003   3.457   4.353
 7787TIP3   OH223303   7.249   1.300   2.273
 7787TIP3    H123304   7.274   1.211   2.298
 7787TIP3    H223305   7.332   1.343   2.254
 7788TIP3   OH223306   4.382   3.469   0.960
 7788TIP3    H123307   4.415   3.383   0.933
 7788TIP3    H223308   4.420   3.483   1.047
 7789TIP3   OH223309   1.506   1.955   1.143
 7789TIP3    H123310   1.567   1.893   1.104
 7789TIP3    H223311   1.420   1.913   1.134
 7790TIP3   OH223312   3.762   0.373   2.479
 7790TIP3    H123313   3.679   0.325   2.474
 7790TIP3    H223314   3.805   0.356   2.395
 7791TIP3   OH223315   2.201   4.296   2.856
 7791TIP3    H123316   2.194   4.305   2.761
 7791TIP3    H223317   2.112   4.274   2.885
 7792TIP3   OH223318   4.093   5.092   2.805
 7792TIP3    H123319   4.062   5.133   2.725
 7792TIP3    H223320   4.051   5.141   2.876
 7793TIP3   OH223321   0.504   6.625   0.791
 7793TIP3    H123322   0.539   6.680   0.861
 7793TIP3    H223323   0.410   6.620   0.809
 7794TIP3   OH223324   5.907   2.576   6.009
 7794TIP3    H123325   5.846   2.508   5.980
 7794TIP3    H223326   5.850   2.648   6.037
 7795TIP3   OH223327   1.643   3.283   4.732
 7795TIP3    H123328   1.710   3.296   4.799
 7795TIP3    H223329   1.612   3.193   4.747
 7796TIP3   OH223330   0.110   5.133   5.884
 7796TIP3    H123331   0.047   5.097   5.947
 7796TIP3    H223332   0.185   5.158   5.937
 7797TIP3   OH223333   6.788   3.430   1.412
 7797TIP3    H123334   6.847   3.473   1.351
 7797TIP3    H223335   6.789   3.338   1.387
 7798TIP3   OH223336   2.081   7.286   0.896
 7798TIP3    H123337   2.125   7.348   0.954
 7798TIP3    H223338   2.112   7.309   0.809
 7799TIP3   OH223339   5.511   7.178   5.967
 7799TIP3    H123340   5.534   7.085   5.967
 7799TIP3    H223341   5.420   7.180   5.939
 7800TIP3   OH223342   6.238   1.365   6.485
 7800TIP3    H123343   6.284   1.328   6.561
 7800TIP3    H223344   6.196   1.444   6.520
 7801TIP3   OH223345   8.199   2.105   4.307
 7801TIP3    H123346   8.229   2.088   4.396
 7801TIP3    H223347   8.261   2.058   4.251
 7802TIP3   OH223348   4.035   4.996   4.631
 7802TIP3    H123349   4.075   5.068   4.581
 7802TIP3    H223350   4.086   4.919   4.606
 7803TIP3   OH223351   4.429   0.196   1.753
 7803TIP3    H123352   4.370   0.124   1.731
 7803TIP3    H223353   4.514   0.155   1.765
 7804TIP3   OH223354   7.866   0.011   3.146
 7804TIP3    H123355   7.958   0.022   3.167
 7804TIP3    H223356   7.835   0.100   3.130
 7805TIP3   OH223357   2.978   6.479   6.735
 7805TIP3    H123358   3.036   6.425   6.681
 7805TIP3    H223359   3.011   6.469   6.824
 7806TIP3   OH223360   1.094   4.071   0.133
 7806TIP3    H123361   1.187   4.062   0.114
 7806TIP3    H223362   1.085   4.038   0.223
 7807TIP3   OH223363   4.838   4.554   2.290
 7807TIP3    H123364   4.842   4.618   2.219
 7807TIP3    H223365   4.767   4.495   2.266
 7808TIP3   OH223366   3.090   5.106   1.508
 7808TIP3    H123367   3.072   5.109   1.414
 7808TIP3    H223368   3.147   5.181   1.523
 7809TIP3   OH223369   5.795   5.392   2.914
 7809TIP3    H123370   5.844   5.351   2.985
 7809TIP3    H223371   5.786   5.323   2.848
 7810TIP3   OH223372   0.713   6.909   5.524
 7810TIP3    H123373   0.749   6.951   5.446
 7810TIP3    H223374   0.680   6.825   5.493
 7811TIP3   OH223375   7.584   2.850   5.045
 7811TIP3    H123376   7.573   2.759   5.073
 7811TIP3    H223377   7.665   2.850   4.995
 7812TIP3   OH223378   5.590   6.263   0.837
 7812TIP3    H123379   5.513   6.264   0.894
 7812TIP3    H223380   5.664   6.275   0.897
 7813TIP3   OH223381   2.033   7.562   3.047
 7813TIP3    H123382   2.102   7.585   3.109
 7813TIP3    H223383   1.984   7.642   3.033
 7814TIP3   OH223384   7.437   2.059   4.892
 7814TIP3    H123385   7.478   2.072   4.977
 7814TIP3    H223386   7.496   2.102   4.830
 7815TIP3   OH223387   3.963   0.874   4.927
 7815TIP3    H123388   4.047   0.853   4.967
 7815TIP3    H223389   3.919   0.931   4.990
 7816TIP3   OH223390   0.943   4.388   2.688
 7816TIP3    H123391   0.878   4.421   2.626
 7816TIP3    H223392   0.942   4.450   2.760
 7817TIP3   OH223393   5.952   0.468   3.033
 7817TIP3    H123394   5.965   0.521   2.955
 7817TIP3    H223395   5.963   0.378   3.002
 7818TIP3   OH223396   5.555   0.985   5.327
 7818TIP3    H123397   5.512   0.909   5.287
 7818TIP3    H223398   5.502   1.060   5.299
 7819TIP3   OH223399   2.592   2.144   0.548
 7819TIP3    H123400   2.644   2.078   0.594
 7819TIP3    H223401   2.516   2.096   0.516
 7820TIP3   OH223402   0.968   2.759   5.424
 7820TIP3    H123403   0.967   2.665   5.407
 7820TIP3    H223404   0.876   2.784   5.430
 7821TIP3   OH223405   5.184   0.399   2.965
 7821TIP3    H123406   5.249   0.384   2.896
 7821TIP3    H223407   5.141   0.481   2.941
 7822TIP3   OH223408   5.713   5.170   3.742
 7822TIP3    H123409   5.697   5.242   3.681
 7822TIP3    H223410   5.656   5.099   3.711
 7823TIP3   OH223411   3.551   5.690   1.710
 7823TIP3    H123412   3.627   5.741   1.739
 7823TIP3    H223413   3.489   5.755   1.678
 7824TIP3   OH223414   1.922   1.619   4.275
 7824TIP3    H123415   1.983   1.665   4.217
 7824TIP3    H223416   1.899   1.683   4.342
 7825TIP3   OH223417   1.918   2.331   3.250
 7825TIP3    H123418   1.829   2.301   3.229
 7825TIP3    H223419   1.953   2.361   3.167
 7826TIP3   OH223420   0.048   3.493   6.060
 7826TIP3    H123421   0.042   3.570   6.003
 7826TIP3    H223422   0.023   3.420   6.004
 7827TIP3   OH223423   6.637   3.172   0.904
 7827TIP3    H123424   6.586   3.139   0.978
 7827TIP3    H223425   6.581   3.238   0.864
 7828TIP3   OH223426   8.003   5.287   1.693
 7828TIP3    H123427   8.082   5.320   1.734
 7828TIP3    H223428   8.023   5.286   1.599
 7829TIP3   OH223429   4.692   5.656   1.033
 7829TIP3    H123430   4.783   5.628   1.042
 7829TIP3    H223431   4.641   5.585   1.071
 7830TIP3   OH223432   7.533   2.817   0.554
 7830TIP3    H123433   7.617   2.794   0.594
 7830TIP3    H223434   7.487   2.868   0.621
 7831TIP3   OH223435   0.569   0.593   5.816
 7831TIP3    H123436   0.578   0.671   5.762
 7831TIP3    H223437   0.583   0.520   5.756
 7832TIP3   OH223438   0.425   5.715   3.914
 7832TIP3    H123439   0.331   5.723   3.898
 7832TIP3    H223440   0.462   5.796   3.879
 7833TIP3   OH223441   4.571   6.122   3.977
 7833TIP3    H123442   4.565   6.145   4.070
 7833TIP3    H223443   4.527   6.037   3.971
 7834TIP3   OH223444   0.904   7.458   1.809
 7834TIP3    H123445   0.900   7.413   1.725
 7834TIP3    H223446   0.874   7.547   1.789
 7835TIP3   OH223447   4.789   6.508   0.330
 7835TIP3    H123448   4.874   6.522   0.288
 7835TIP3    H223449   4.810   6.487   0.421
 7836TIP3   OH223450   0.194   1.475   1.784
 7836TIP3    H123451   0.175   1.519   1.866
 7836TIP3    H223452   0.143   1.522   1.718
 7837TIP3   OH223453   3.013   7.403   5.061
 7837TIP3    H123454   3.041   7.424   4.972
 7837TIP3    H223455   2.991   7.310   5.058
 7838TIP3   OH223456   0.826   4.127   3.212
 7838TIP3    H123457   0.755   4.063   3.216
 7838TIP3    H223458   0.880   4.108   3.289
 7839TIP3   OH223459   2.411   4.306   4.294
 7839TIP3    H123460   2.385   4.382   4.347
 7839TIP3    H223461   2.484   4.338   4.241
 7840TIP3   OH223462   3.667   5.588   2.088
 7840TIP3    H123463   3.706   5.669   2.121
 7840TIP3    H223464   3.703   5.579   2.000
 7841TIP3   OH223465   4.349   3.241   4.906
 7841TIP3    H123466   4.415   3.247   4.837
 7841TIP3    H223467   4.278   3.189   4.867
 7842TIP3   OH223468   8.117   7.590   2.811
 7842TIP3    H123469   8.052   7.598   2.881
 7842TIP3    H223470   8.145   7.498   2.816
 7843TIP3   OH223471   7.237   3.608   4.127
 7843TIP3    H123472   7.192   3.531   4.094
 7843TIP3    H223473   7.207   3.679   4.070
 7844TIP3   OH223474   7.124   7.676   3.475
 7844TIP3    H123475   7.217   7.688   3.496
 7844TIP3    H223476   7.099   7.596   3.522
 7845TIP3   OH223477   0.979   7.713   0.717
 7845TIP3    H123478   1.042   7.678   0.653
 7845TIP3    H223479   0.919   7.766   0.664
 7846TIP3   OH223480   4.794   4.792   3.962
 7846TIP3    H123481   4.789   4.700   3.935
 7846TIP3    H223482   4.771   4.791   4.055
 7847TIP3   OH223483   1.699   5.133   0.118
 7847TIP3    H123484   1.780   5.084   0.130
 7847TIP3    H223485   1.640   5.097   0.185
 7848TIP3   OH223486   3.046   6.303   0.093
 7848TIP3    H123487   3.092   6.386   0.080
 7848TIP3    H223488   3.000   6.288   0.011
 7849TIP3   OH223489   3.421   0.376   1.952
 7849TIP3    H123490   3.494   0.436   1.967
 7849TIP3    H223491   3.456   0.310   1.892
 7850TIP3   OH223492   3.544   2.899   3.806
 7850TIP3    H123493   3.639   2.909   3.798
 7850TIP3    H223494   3.523   2.943   3.888
 7851TIP3   OH223495   6.345   1.112   6.287
 7851TIP3    H123496   6.427   1.087   6.331
 7851TIP3    H223497   6.305   1.029   6.262
 7852TIP3   OH223498   3.631   6.512   3.859
 7852TIP3    H123499   3.575   6.559   3.797
 7852TIP3    H223500   3.710   6.492   3.809
 7853TIP3   OH223501   4.364   6.020   1.137
 7853TIP3    H123502   4.431   5.952   1.148
 7853TIP3    H223503   4.406   6.100   1.168
 7854TIP3   OH223504   7.266   4.427   4.712
 7854TIP3    H123505   7.190   4.477   4.742
 7854TIP3    H223506   7.260   4.427   4.617
 7855TIP3   OH223507   6.292   0.255   1.235
 7855TIP3    H123508   6.206   0.214   1.226
 7855TIP3    H223509   6.312   0.287   1.147
 7856TIP3   OH223510   4.582   5.116   6.088
 7856TIP3    H123511   4.614   5.096   6.000
 7856TIP3    H223512   4.624   5.051   6.144
 7857TIP3   OH223513   2.221   4.468   4.855
 7857TIP3    H123514   2.188   4.509   4.775
 7857TIP3    H223515   2.249   4.542   4.910
 7858TIP3   OH223516   7.646   4.050   0.803
 7858TIP3    H123517   7.691   3.984   0.857
 7858TIP3    H223518   7.707   4.123   0.799
 7859TIP3   OH223519   8.084   5.752   1.032
 7859TIP3    H123520   8.171   5.791   1.029
 7859TIP3    H223521   8.045   5.774   0.947
 7860TIP3   OH223522   5.164   2.537   6.069
 7860TIP3    H123523   5.124   2.462   6.114
 7860TIP3    H223524   5.184   2.504   5.981
 7861TIP3   OH223525   4.494   2.351   0.959
 7861TIP3    H123526   4.415   2.317   1.001
 7861TIP3    H223527   4.465   2.382   0.873
 7862TIP3   OH223528   5.349   4.480   6.222
 7862TIP3    H123529   5.372   4.571   6.240
 7862TIP3    H223530   5.423   4.429   6.258
 7863TIP3   OH223531   6.635   1.051   3.770
 7863TIP3    H123532   6.693   1.033   3.843
 7863TIP3    H223533   6.605   0.965   3.740
 7864TIP3   OH223534   5.344   3.407   5.700
 7864TIP3    H123535   5.397   3.475   5.658
 7864TIP3    H223536   5.376   3.326   5.662
 7865TIP3   OH223537   4.558   2.617   2.383
 7865TIP3    H123538   4.517   2.586   2.302
 7865TIP3    H223539   4.556   2.542   2.442
 7866TIP3   OH223540   5.987   4.405   4.590
 7866TIP3    H123541   5.960   4.495   4.609
 7866TIP3    H223542   6.019   4.371   4.674
 7867TIP3   OH223543   2.906   1.601   2.310
 7867TIP3    H123544   2.927   1.691   2.332
 7867TIP3    H223545   2.828   1.581   2.362
 7868TIP3   OH223546   1.603   6.802   6.777
 7868TIP3    H123547   1.621   6.884   6.731
 7868TIP3    H223548   1.646   6.735   6.724
 7869TIP3   OH223549   5.265   7.305   3.335
 7869TIP3    H123550   5.192   7.246   3.317
 7869TIP3    H223551   5.295   7.282   3.423
 7870TIP3   OH223552   3.754   0.917   2.789
 7870TIP3    H123553   3.661   0.906   2.770
 7870TIP3    H223554   3.798   0.850   2.738
 7871TIP3   OH223555   2.861   6.039   2.387
 7871TIP3    H123556   2.821   5.957   2.357
 7871TIP3    H223557   2.920   6.012   2.458
 7872TIP3   OH223558   0.200   2.848   0.087
 7872TIP3    H123559   0.163   2.773   0.041
 7872TIP3    H223560   0.162   2.844   0.174
 7873TIP3   OH223561   0.865   5.842   4.839
 7873TIP3    H123562   0.905   5.889   4.912
 7873TIP3    H223563   0.797   5.788   4.880
 7874TIP3   OH223564   2.421   3.216   6.204
 7874TIP3    H123565   2.427   3.138   6.148
 7874TIP3    H223566   2.337   3.207   6.249
 7875TIP3   OH223567   2.021   1.529   2.682
 7875TIP3    H123568   1.980   1.595   2.738
 7875TIP3    H223569   1.963   1.454   2.687
 7876TIP3   OH223570   2.241   1.890   1.012
 7876TIP3    H123571   2.330   1.858   0.997
 7876TIP3    H223572   2.201   1.825   1.069
 7877TIP3   OH223573   5.188   7.273   2.941
 7877TIP3    H123574   5.146   7.267   2.855
 7877TIP3    H223575   5.160   7.194   2.986
 7878TIP3   OH223576   1.044   7.234   3.175
 7878TIP3    H123577   0.953   7.246   3.147
 7878TIP3    H223578   1.045   7.149   3.217
 7879TIP3   OH223579   1.499   5.152   1.128
 7879TIP3    H123580   1.446   5.216   1.175
 7879TIP3    H223581   1.580   5.198   1.106
 7880TIP3   OH223582   4.912   1.795   1.960
 7880TIP3    H123583   4.963   1.859   2.009
 7880TIP3    H223584   4.910   1.828   1.871
 7881TIP3   OH223585   4.576   1.123   5.026
 7881TIP3    H123586   4.561   1.073   5.106
 7881TIP3    H223587   4.572   1.214   5.054
 7882TIP3   OH223588   1.777   4.509   2.747
 7882TIP3    H123589   1.872   4.498   2.746
 7882TIP3    H223590   1.743   4.425   2.718
 7883TIP3   OH223591   3.991   3.277   2.604
 7883TIP3    H123592   4.000   3.305   2.513
 7883TIP3    H223593   4.038   3.343   2.654
 7884TIP3   OH223594   0.123   4.211   2.800
 7884TIP3    H123595   0.039   4.170   2.778
 7884TIP3    H223596   0.105   4.304   2.803
 7885TIP3   OH223597   6.591   2.667   0.987
 7885TIP3    H123598   6.523   2.707   0.933
 7885TIP3    H223599   6.543   2.626   1.059
 7886TIP3   OH223600   5.129   3.923   2.978
 7886TIP3    H123601   5.068   3.861   2.937
 7886TIP3    H223602   5.093   3.936   3.066
 7887TIP3   OH223603   4.755   5.992   2.211
 7887TIP3    H123604   4.705   5.959   2.136
 7887TIP3    H223605   4.827   6.041   2.173
 7888TIP3   OH223606   2.875   4.342   2.082
 7888TIP3    H123607   2.933   4.357   2.008
 7888TIP3    H223608   2.886   4.250   2.104
 7889TIP3   OH223609   1.495   5.198   3.323
 7889TIP3    H123610   1.441   5.270   3.290
 7889TIP3    H223611   1.434   5.142   3.371
 7890TIP3   OH223612   7.344   4.409   3.664
 7890TIP3    H123613   7.429   4.390   3.705
 7890TIP3    H223614   7.352   4.499   3.634
 7891TIP3   OH223615   4.661   3.807   4.467
 7891TIP3    H123616   4.649   3.850   4.552
 7891TIP3    H223617   4.589   3.744   4.462
 7892TIP3   OH223618   3.435   3.457   2.750
 7892TIP3    H123619   3.385   3.495   2.678
 7892TIP3    H223620   3.508   3.412   2.708
 7893TIP3   OH223621   5.507   4.012   1.980
 7893TIP3    H123622   5.569   3.946   2.013
 7893TIP3    H223623   5.422   3.968   1.983
 7894TIP3   OH223624   3.844   1.303   0.872
 7894TIP3    H123625   3.855   1.246   0.948
 7894TIP3    H223626   3.760   1.346   0.886
 7895TIP3   OH223627   7.528   1.209   3.749
 7895TIP3    H123628   7.500   1.118   3.738
 7895TIP3    H223629   7.523   1.224   3.844
 7896TIP3   OH223630   5.874   4.660   4.616
 7896TIP3    H123631   5.822   4.641   4.537
 7896TIP3    H223632   5.926   4.737   4.592
 7897TIP3   OH223633   4.018   2.062   1.099
 7897TIP3    H123634   3.933   2.101   1.077
 7897TIP3    H223635   4.015   2.052   1.194
 7898TIP3   OH223636   2.813   5.703   5.839
 7898TIP3    H123637   2.828   5.797   5.837
 7898TIP3    H223638   2.720   5.693   5.817
 7899TIP3   OH223639   8.066   1.163   0.351
 7899TIP3    H123640   8.155   1.141   0.325
 7899TIP3    H223641   8.012   1.093   0.315
 7900TIP3   OH223642   6.279   1.365   6.116
 7900TIP3    H123643   6.257   1.291   6.059
 7900TIP3    H223644   6.244   1.441   6.071
 7901TIP3   OH223645   0.473   6.455   4.187
 7901TIP3    H123646   0.562   6.488   4.173
 7901TIP3    H223647   0.451   6.484   4.276
 7902TIP3   OH223648   1.673   0.724   0.579
 7902TIP3    H123649   1.682   0.819   0.588
 7902TIP3    H223650   1.691   0.690   0.667
 7903TIP3   OH223651   8.039   0.681   6.205
 7903TIP3    H123652   7.948   0.711   6.210
 7903TIP3    H223653   8.053   0.633   6.286
 7904TIP3   OH223654   2.811   1.042   1.705
 7904TIP3    H123655   2.875   1.004   1.766
 7904TIP3    H223656   2.774   1.117   1.753
 7905TIP3   OH223657   5.549   7.466   1.588
 7905TIP3    H123658   5.544   7.547   1.638
 7905TIP3    H223659   5.620   7.481   1.525
 7906TIP3   OH223660   2.681   3.820   6.362
 7906TIP3    H123661   2.598   3.834   6.408
 7906TIP3    H223662   2.659   3.759   6.291
 7907TIP3   OH223663   4.289   1.789   2.426
 7907TIP3    H123664   4.201   1.805   2.459
 7907TIP3    H223665   4.318   1.874   2.392
 7908TIP3   OH223666   2.191   5.561   4.653
 7908TIP3    H123667   2.131   5.597   4.588
 7908TIP3    H223668   2.224   5.637   4.701
 7909TIP3   OH223669   1.853   1.232   4.828
 7909TIP3    H123670   1.869   1.322   4.802
 7909TIP3    H223671   1.760   1.218   4.806
 7910TIP3   OH223672   0.992   4.717   3.618
 7910TIP3    H123673   1.067   4.762   3.658
 7910TIP3    H223674   0.958   4.661   3.688
 7911TIP3   OH223675   2.051   0.390   4.813
 7911TIP3    H123676   2.076   0.300   4.837
 7911TIP3    H223677   2.133   0.432   4.788
 7912TIP3   OH223678   0.938   4.303   3.547
 7912TIP3    H123679   0.937   4.317   3.642
 7912TIP3    H223680   0.957   4.210   3.537
 7913TIP3   OH223681   0.768   2.546   3.799
 7913TIP3    H123682   0.754   2.461   3.842
 7913TIP3    H223683   0.800   2.524   3.712
 7914TIP3   OH223684   5.578   2.791   2.490
 7914TIP3    H123685   5.665   2.827   2.468
 7914TIP3    H223686   5.562   2.820   2.579
 7915TIP3   OH223687   1.815   3.774   0.987
 7915TIP3    H123688   1.853   3.860   0.972
 7915TIP3    H223689   1.879   3.712   0.951
 7916TIP3   OH223690   2.221   7.547   5.647
 7916TIP3    H123691   2.179   7.462   5.662
 7916TIP3    H223692   2.284   7.555   5.717
 7917TIP3   OH223693   6.942   2.287   3.230
 7917TIP3    H123694   6.972   2.312   3.142
 7917TIP3    H223695   7.020   2.257   3.275
 7918TIP3   OH223696   0.949   7.462   2.298
 7918TIP3    H123697   1.020   7.476   2.360
 7918TIP3    H223698   0.994   7.444   2.215
 7919TIP3   OH223699   4.051   6.102   0.749
 7919TIP3    H123700   4.003   6.137   0.824
 7919TIP3    H223701   4.003   6.023   0.725
 7920TIP3   OH223702   2.427   2.840   2.474
 7920TIP3    H123703   2.513   2.808   2.504
 7920TIP3    H223704   2.439   2.934   2.464
 7921TIP3   OH223705   1.829   7.205   5.403
 7921TIP3    H123706   1.898   7.193   5.468
 7921TIP3    H223707   1.755   7.241   5.452
 7922TIP3   OH223708   1.369   2.172   4.509
 7922TIP3    H123709   1.314   2.216   4.444
 7922TIP3    H223710   1.317   2.174   4.590
 7923TIP3   OH223711   0.497   4.182   3.278
 7923TIP3    H123712   0.418   4.235   3.280
 7923TIP3    H223713   0.546   4.208   3.356
 7924TIP3   OH223714   4.896   6.699   5.045
 7924TIP3    H123715   4.947   6.715   4.966
 7924TIP3    H223716   4.808   6.680   5.014
 7925TIP3   OH223717   4.561   2.536   3.855
 7925TIP3    H123718   4.486   2.537   3.794
 7925TIP3    H223719   4.535   2.596   3.925
 7926TIP3   OH223720   0.183   3.056   3.701
 7926TIP3    H123721   0.088   3.059   3.688
 7926TIP3    H223722   0.202   3.132   3.756
 7927TIP3   OH223723   3.635   7.564   6.219
 7927TIP3    H123724   3.707   7.613   6.259
 7927TIP3    H223725   3.557   7.615   6.241
 7928TIP3   OH223726   7.894   2.471   2.428
 7928TIP3    H123727   7.982   2.477   2.390
 7928TIP3    H223728   7.902   2.510   2.515
 7929TIP3   OH223729   3.216   3.725   5.590
 7929TIP3    H123730   3.224   3.653   5.652
 7929TIP3    H223731   3.304   3.734   5.552
 7930TIP3   OH223732   0.181   5.473   2.713
 7930TIP3    H123733   0.092   5.473   2.749
 7930TIP3    H223734   0.237   5.453   2.787
 7931TIP3   OH223735   0.730   6.282   4.980
 7931TIP3    H123736   0.718   6.361   4.926
 7931TIP3    H223737   0.699   6.210   4.925
 7932TIP3   OH223738   6.147   2.433   3.246
 7932TIP3    H123739   6.234   2.470   3.257
 7932TIP3    H223740   6.162   2.352   3.196
 7933TIP3   OH223741   7.124   3.035   6.486
 7933TIP3    H123742   7.098   2.982   6.561
 7933TIP3    H223743   7.100   2.983   6.409
 7934TIP3   OH223744   2.370   2.391   4.887
 7934TIP3    H123745   2.340   2.435   4.967
 7934TIP3    H223746   2.297   2.335   4.861
 7935TIP3   OH223747   4.743   2.010   1.477
 7935TIP3    H123748   4.677   2.005   1.408
 7935TIP3    H223749   4.716   2.085   1.530
 7936TIP3   OH223750   0.931   5.557   6.443
 7936TIP3    H123751   0.949   5.491   6.376
 7936TIP3    H223752   0.887   5.628   6.397
 7937TIP3   OH223753   8.012   6.064   5.534
 7937TIP3    H123754   8.080   6.053   5.467
 7937TIP3    H223755   7.931   6.072   5.484
 7938TIP3   OH223756   1.094   4.742   1.863
 7938TIP3    H123757   1.187   4.752   1.878
 7938TIP3    H223758   1.081   4.774   1.773
 7939TIP3   OH223759   5.324   5.114   5.590
 7939TIP3    H123760   5.402   5.106   5.644
 7939TIP3    H223761   5.338   5.053   5.518
 7940TIP3   OH223762   1.281   7.578   0.214
 7940TIP3    H123763   1.285   7.672   0.235
 7940TIP3    H223764   1.291   7.575   0.119
 7941TIP3   OH223765   5.656   5.308   4.881
 7941TIP3    H123766   5.749   5.323   4.863
 7941TIP3    H223767   5.637   5.225   4.837
 7942TIP3   OH223768   6.870   7.590   2.551
 7942TIP3    H123769   6.783   7.550   2.552
 7942TIP3    H223770   6.883   7.616   2.460
 7943TIP3   OH223771   6.968   6.148   5.943
 7943TIP3    H123772   7.004   6.070   5.901
 7943TIP3    H223773   6.889   6.116   5.987
 7944TIP3   OH223774   7.198   0.018   3.088
 7944TIP3    H123775   7.149  -0.009   3.011
 7944TIP3    H223776   7.279   0.055   3.053
 7945TIP3   OH223777   3.359   2.875   0.585
 7945TIP3    H123778   3.445   2.890   0.547
 7945TIP3    H223779   3.346   2.949   0.644
 7946TIP3   OH223780   5.722   3.546   4.072
 7946TIP3    H123781   5.786   3.492   4.118
 7946TIP3    H223782   5.734   3.524   3.980
 7947TIP3   OH223783   4.269   3.240   5.205
 7947TIP3    H123784   4.281   3.228   5.110
 7947TIP3    H223785   4.350   3.208   5.243
 7948TIP3   OH223786   4.629   7.685   5.288
 7948TIP3    H123787   4.600   7.630   5.215
 7948TIP3    H223788   4.722   7.665   5.297
 7949TIP3   OH223789   7.135   2.934   5.148
 7949TIP3    H123790   7.111   2.866   5.210
 7949TIP3    H223791   7.085   2.913   5.069
 7950TIP3   OH223792   4.671   2.818   4.467
 7950TIP3    H123793   4.624   2.898   4.490
 7950TIP3    H223794   4.698   2.831   4.376
 7951TIP3   OH223795   0.707   5.475   2.753
 7951TIP3    H123796   0.799   5.489   2.776
 7951TIP3    H223797   0.672   5.421   2.823
 7952TIP3   OH223798   7.268   7.678   2.664
 7952TIP3    H123799   7.249   7.708   2.575
 7952TIP3    H223800   7.357   7.645   2.659
 7953TIP3   OH223801   2.789   5.523   1.845
 7953TIP3    H123802   2.761   5.490   1.760
 7953TIP3    H223803   2.883   5.503   1.850
 7954TIP3   OH223804   1.749   6.463   2.244
 7954TIP3    H123805   1.693   6.387   2.226
 7954TIP3    H223806   1.723   6.491   2.331
 7955TIP3   OH223807   6.782   3.419   6.547
 7955TIP3    H123808   6.831   3.339   6.529
 7955TIP3    H223809   6.765   3.456   6.460
 7956TIP3   OH223810   1.906   2.909   3.928
 7956TIP3    H123811   1.963   2.902   3.851
 7956TIP3    H223812   1.886   3.002   3.935
 7957TIP3   OH223813   6.273   3.089   4.192
 7957TIP3    H123814   6.317   3.105   4.276
 7957TIP3    H223815   6.295   2.999   4.170
 7958TIP3   OH223816   2.453   1.941   4.567
 7958TIP3    H123817   2.441   1.854   4.605
 7958TIP3    H223818   2.548   1.949   4.557
 7959TIP3   OH223819   2.419   2.670   1.396
 7959TIP3    H123820   2.431   2.598   1.334
 7959TIP3    H223821   2.497   2.724   1.386
 7960TIP3   OH223822   1.486   6.960   0.847
 7960TIP3    H123823   1.462   6.900   0.777
 7960TIP3    H223824   1.429   7.036   0.834
 7961TIP3   OH223825   1.386   6.535   1.961
 7961TIP3    H123826   1.328   6.492   1.897
 7961TIP3    H223827   1.331   6.603   2.000
 7962TIP3   OH223828   2.506   6.046   4.001
 7962TIP3    H123829   2.443   5.980   4.031
 7962TIP3    H223830   2.591   6.009   4.022
 7963TIP3   OH223831   1.190   1.262   5.658
 7963TIP3    H123832   1.240   1.287   5.735
 7963TIP3    H223833   1.099   1.260   5.688
 7964TIP3   OH223834   1.130   3.405   1.697
 7964TIP3    H123835   1.065   3.432   1.762
 7964TIP3    H223836   1.079   3.387   1.618
 7965TIP3   OH223837   6.820   7.698   0.789
 7965TIP3    H123838   6.898   7.653   0.822
 7965TIP3    H223839   6.750   7.671   0.848
 7966TIP3   OH223840   5.646   6.686   4.217
 7966TIP3    H123841   5.726   6.734   4.243
 7966TIP3    H223842   5.676   6.625   4.150
 7967TIP3   OH223843   3.665   0.104   2.338
 7967TIP3    H123844   3.580   0.119   2.295
 7967TIP3    H223845   3.669   0.009   2.349
 7968TIP3   OH223846   3.394   4.254   6.477
 7968TIP3    H123847   3.411   4.172   6.431
 7968TIP3    H223848   3.431   4.321   6.420
 7969TIP3   OH223849   3.452   1.295   0.435
 7969TIP3    H123850   3.396   1.242   0.378
 7969TIP3    H223851   3.428   1.270   0.524
 7970TIP3   OH223852   0.566   5.382   0.747
 7970TIP3    H123853   0.613   5.464   0.763
 7970TIP3    H223854   0.636   5.317   0.733
 7971TIP3   OH223855   5.850   5.295   2.208
 7971TIP3    H123856   5.869   5.388   2.215
 7971TIP3    H223857   5.840   5.265   2.298
 7972TIP3   OH223858   1.061   5.425   3.094
 7972TIP3    H123859   1.117   5.403   3.169
 7972TIP3    H223860   1.084   5.361   3.027
 7973TIP3   OH223861   5.197   4.921   3.306
 7973TIP3    H123862   5.124   4.943   3.364
 7973TIP3    H223863   5.249   5.001   3.301
 7974TIP3   OH223864   0.829   0.346   5.414
 7974TIP3    H123865   0.823   0.306   5.500
 7974TIP3    H223866   0.856   0.436   5.431
 7975TIP3   OH223867   1.952   5.290   5.246
 7975TIP3    H123868   1.927   5.315   5.157
 7975TIP3    H223869   1.893   5.341   5.302
 7976TIP3   OH223870   3.442   5.662   3.358
 7976TIP3    H123871   3.529   5.621   3.357
 7976TIP3    H223872   3.381   5.589   3.368
 7977TIP3   OH223873   5.351   6.864   1.870
 7977TIP3    H123874   5.405   6.787   1.848
 7977TIP3    H223875   5.391   6.936   1.822
 7978TIP3   OH223876   0.968   5.448   4.209
 7978TIP3    H123877   0.979   5.459   4.114
 7978TIP3    H223878   1.003   5.361   4.227
 7979TIP3   OH223879   4.726   7.579   4.219
 7979TIP3    H123880   4.716   7.516   4.290
 7979TIP3    H223881   4.713   7.527   4.139
 7980TIP3   OH223882   0.077   2.024   0.749
 7980TIP3    H123883   0.089   1.954   0.685
 7980TIP3    H223884   0.163   2.036   0.789
 7981TIP3   OH223885   6.137   6.244   2.474
 7981TIP3    H123886   6.174   6.315   2.526
 7981TIP3    H223887   6.061   6.215   2.523
 7982TIP3   OH223888   7.440   4.119   1.326
 7982TIP3    H123889   7.463   4.029   1.302
 7982TIP3    H223890   7.376   4.110   1.396
 7983TIP3   OH223891   0.087   2.466   4.618
 7983TIP3    H123892   0.053   2.406   4.684
 7983TIP3    H223893   0.181   2.472   4.637
 7984TIP3   OH223894   6.861   1.663   0.039
 7984TIP3    H123895   6.792   1.721   0.072
 7984TIP3    H223896   6.843   1.656  -0.055
 7985TIP3   OH223897   8.061   2.023   2.300
 7985TIP3    H123898   8.147   2.035   2.259
 7985TIP3    H223899   8.054   2.094   2.363
 7986TIP3   OH223900   0.989   1.349   4.455
 7986TIP3    H123901   0.899   1.334   4.484
 7986TIP3    H223902   0.979   1.379   4.364
 7987TIP3   OH223903   1.395   5.982   6.597
 7987TIP3    H123904   1.474   6.013   6.553
 7987TIP3    H223905   1.426   5.914   6.656
 7988TIP3   OH223906   0.372   4.683   1.071
 7988TIP3    H123907   0.303   4.628   1.034
 7988TIP3    H223908   0.332   4.770   1.077
 7989TIP3   OH223909   4.486   2.213   4.171
 7989TIP3    H123910   4.557   2.218   4.106
 7989TIP3    H223911   4.477   2.120   4.188
 7990TIP3   OH223912   4.474   0.979   4.495
 7990TIP3    H123913   4.512   0.920   4.559
 7990TIP3    H223914   4.398   1.017   4.540
 7991TIP3   OH223915   0.409   2.426   2.866
 7991TIP3    H123916   0.450   2.403   2.949
 7991TIP3    H223917   0.423   2.520   2.857
 7992TIP3   OH223918   0.562   3.452   3.987
 7992TIP3    H123919   0.536   3.379   3.931
 7992TIP3    H223920   0.554   3.418   4.076
 7993TIP3   OH223921   4.558   7.199   2.484
 7993TIP3    H123922   4.556   7.255   2.406
 7993TIP3    H223923   4.587   7.257   2.554
 7994TIP3   OH223924   1.270   3.899   1.400
 7994TIP3    H123925   1.260   3.850   1.482
 7994TIP3    H223926   1.360   3.880   1.372
 7995TIP3   OH223927   2.064   3.146   0.846
 7995TIP3    H123928   2.106   3.072   0.889
 7995TIP3    H223929   1.991   3.170   0.903
 7996TIP3   OH223930   0.159   3.493   2.975
 7996TIP3    H123931   0.151   3.585   2.998
 7996TIP3    H223932   0.155   3.491   2.880
 7997TIP3   OH223933   1.381   1.313   5.863
 7997TIP3    H123934   1.375   1.406   5.842
 7997TIP3    H223935   1.408   1.310   5.955
 7998TIP3   OH223936   7.147   2.808   0.719
 7998TIP3    H123937   7.170   2.793   0.627
 7998TIP3    H223938   7.150   2.904   0.728
 7999TIP3   OH223939   1.365   5.408   4.544
 7999TIP3    H123940   1.321   5.463   4.608
 7999TIP3    H223941   1.355   5.454   4.461
 8000TIP3   OH223942   3.667   1.162   4.067
 8000TIP3    H123943   3.679   1.197   4.155
 8000TIP3    H223944   3.612   1.084   4.078
 8001TIP3   OH223945   1.315   1.223   3.720
 8001TIP3    H123946   1.228   1.203   3.685
 8001TIP3    H223947   1.318   1.177   3.804
 8002TIP3   OH223948   7.051   3.933   3.747
 8002TIP3    H123949   7.072   3.926   3.654
 8002TIP3    H223950   7.081   4.021   3.771
 8003TIP3   OH223951   0.991   2.321   3.464
 8003TIP3    H123952   0.984   2.232   3.498
 8003TIP3    H223953   1.085   2.340   3.465
 8004TIP3   OH223954   5.707   5.900   1.329
 8004TIP3    H123955   5.673   5.858   1.250
 8004TIP3    H223956   5.647   5.973   1.345
 8005TIP3   OH223957   2.156   7.049   2.511
 8005TIP3    H123958   2.218   7.123   2.510
 8005TIP3    H223959   2.149   7.023   2.419
 8006TIP3   OH223960   4.166   5.378   6.022
 8006TIP3    H123961   4.221   5.308   6.056
 8006TIP3    H223962   4.110   5.402   6.096
 8007TIP3   OH223963   0.536   4.304   2.101
 8007TIP3    H123964   0.557   4.289   2.194
 8007TIP3    H223965   0.441   4.312   2.100
 8008TIP3   OH223966   1.593   6.162   3.293
 8008TIP3    H123967   1.602   6.124   3.381
 8008TIP3    H223968   1.529   6.233   3.305
 8009TIP3   OH223969   1.211   4.881   0.849
 8009TIP3    H123970   1.196   4.964   0.895
 8009TIP3    H223971   1.262   4.828   0.909
 8010TIP3   OH223972   7.403   5.476   2.033
 8010TIP3    H123973   7.344   5.524   2.090
 8010TIP3    H223974   7.380   5.384   2.047
 8011TIP3   OH223975   2.592   1.560   4.226
 8011TIP3    H123976   2.633   1.479   4.196
 8011TIP3    H223977   2.520   1.574   4.165
 8012TIP3   OH223978   4.883   2.579   5.175
 8012TIP3    H123979   4.918   2.574   5.086
 8012TIP3    H223980   4.941   2.522   5.226
 8013TIP3   OH223981   7.432   0.510   0.744
 8013TIP3    H123982   7.381   0.572   0.797
 8013TIP3    H223983   7.490   0.566   0.693
 8014TIP3   OH223984   1.678   3.003   2.325
 8014TIP3    H123985   1.692   3.078   2.382
 8014TIP3    H223986   1.765   2.966   2.311
 8015TIP3   OH223987   2.535   3.005   5.290
 8015TIP3    H123988   2.549   2.924   5.338
 8015TIP3    H223989   2.608   3.010   5.228
 8016TIP3   OH223990   4.928   3.977   1.552
 8016TIP3    H123991   4.951   3.938   1.637
 8016TIP3    H223992   4.865   3.915   1.514
 8017TIP3   OH223993   2.701   3.317   1.907
 8017TIP3    H123994   2.617   3.355   1.933
 8017TIP3    H223995   2.745   3.387   1.859
 8018TIP3   OH223996   7.887   6.366   3.909
 8018TIP3    H123997   7.822   6.323   3.965
 8018TIP3    H223998   7.839   6.439   3.870
 8019TIP3   OH223999   7.961   4.123   3.183
 8019TIP3    H124000   7.973   4.040   3.229
 8019TIP3    H224001   8.000   4.110   3.097
 8020TIP3   OH224002   1.792   3.653   6.013
 8020TIP3    H124003   1.839   3.572   5.992
 8020TIP3    H224004   1.860   3.712   6.046
 8021TIP3   OH224005   4.361   3.496   4.657
 8021TIP3    H124006   4.389   3.415   4.615
 8021TIP3    H224007   4.275   3.476   4.694
 8022TIP3   OH224008   6.426   7.178   4.921
 8022TIP3    H124009   6.509   7.211   4.886
 8022TIP3    H224010   6.441   7.085   4.934
 8023TIP3   OH224011   2.951   7.741   6.259
 8023TIP3    H124012   2.895   7.817   6.274
 8023TIP3    H224013   2.913   7.672   6.313
 8024TIP3   OH224014   7.754   6.619   6.710
 8024TIP3    H124015   7.724   6.530   6.731
 8024TIP3    H224016   7.741   6.669   6.790
 8025TIP3   OH224017   2.738   0.886   6.748
 8025TIP3    H124018   2.654   0.858   6.711
 8025TIP3    H224019   2.772   0.808   6.791
 8026TIP3   OH224020   1.653   4.068   3.471
 8026TIP3    H124021   1.709   4.095   3.398
 8026TIP3    H224022   1.599   4.145   3.490
 8027TIP3   OH224023   5.550   1.029   0.519
 8027TIP3    H124024   5.625   0.986   0.478
 8027TIP3    H224025   5.475   0.973   0.498
 8028TIP3   OH224026   0.996   4.135   4.913
 8028TIP3    H124027   0.975   4.229   4.918
 8028TIP3    H224028   1.000   4.116   4.819
 8029TIP3   OH224029   7.573   1.133   2.675
 8029TIP3    H124030   7.615   1.147   2.760
 8029TIP3    H224031   7.628   1.181   2.613
 8030TIP3   OH224032   4.360   2.409   5.021
 8030TIP3    H124033   4.433   2.465   5.048
 8030TIP3    H224034   4.401   2.325   4.998
 8031TIP3   OH224035   6.506   5.573   1.538
 8031TIP3    H124036   6.449   5.630   1.590
 8031TIP3    H224037   6.550   5.632   1.477
 8032TIP3   OH224038   7.545   7.060   3.050
 8032TIP3    H124039   7.540   7.046   3.144
 8032TIP3    H224040   7.633   7.094   3.035
 8033TIP3   OH224041   8.263   7.685   3.776
 8033TIP3    H124042   8.206   7.625   3.824
 8033TIP3    H224043   8.336   7.703   3.835
 8034TIP3   OH224044   0.161   0.089   0.469
 8034TIP3    H124045   0.172   0.110   0.376
 8034TIP3    H224046   0.249   0.094   0.505
 8035TIP3   OH224047   6.490   2.857   6.255
 8035TIP3    H124048   6.439   2.820   6.183
 8035TIP3    H224049   6.535   2.781   6.293
 8036TIP3   OH224050   6.903   5.788   2.700
 8036TIP3    H124051   6.818   5.753   2.676
 8036TIP3    H224052   6.963   5.715   2.689
 8037TIP3   OH224053   3.068   0.443   0.786
 8037TIP3    H124054   3.078   0.435   0.881
 8037TIP3    H224055   3.105   0.529   0.765
 8038TIP3   OH224056   5.800   5.761   6.554
 8038TIP3    H124057   5.865   5.783   6.487
 8038TIP3    H224058   5.795   5.666   6.552
 8039TIP3   OH224059   1.518   4.511   0.222
 8039TIP3    H124060   1.607   4.543   0.237
 8039TIP3    H224061   1.525   4.416   0.228
 8040TIP3   OH224062   0.903   1.974   4.896
 8040TIP3    H124063   0.973   2.007   4.840
 8040TIP3    H224064   0.921   2.013   4.982
 8041TIP3   OH224065   6.034   7.678   3.471
 8041TIP3    H124066   6.008   7.703   3.559
 8041TIP3    H224067   6.130   7.686   3.471
 8042TIP3   OH224068   2.005   0.435   2.729
 8042TIP3    H124069   2.081   0.416   2.784
 8042TIP3    H224070   1.992   0.529   2.737
 8043TIP3   OH224071   1.780   6.832   3.179
 8043TIP3    H124072   1.766   6.922   3.147
 8043TIP3    H224073   1.858   6.838   3.234
 8044TIP3   OH224074   1.260   3.115   6.557
 8044TIP3    H124075   1.241   3.185   6.496
 8044TIP3    H224076   1.355   3.114   6.564
 8045TIP3   OH224077   3.944   7.027   1.885
 8045TIP3    H124078   3.992   6.994   1.809
 8045TIP3    H224079   3.855   6.993   1.873
 8046TIP3   OH224080   7.632   6.204   5.650
 8046TIP3    H124081   7.603   6.128   5.700
 8046TIP3    H224082   7.691   6.251   5.709
 8047TIP3   OH224083   2.018   0.325   3.596
 8047TIP3    H124084   2.052   0.398   3.544
 8047TIP3    H224085   2.074   0.251   3.574
 8048TIP3   OH224086   3.799   5.825   1.481
 8048TIP3    H124087   3.749   5.888   1.533
 8048TIP3    H224088   3.788   5.855   1.390
 8049TIP3   OH224089   2.573   0.845   2.274
 8049TIP3    H124090   2.615   0.927   2.302
 8049TIP3    H224091   2.598   0.836   2.182
 8050TIP3   OH224092   1.434   7.229   0.135
 8050TIP3    H124093   1.432   7.282   0.055
 8050TIP3    H224094   1.420   7.140   0.104
 8051TIP3   OH224095   0.918   4.609   0.094
 8051TIP3    H124096   0.967   4.673   0.147
 8051TIP3    H224097   0.849   4.577   0.152
 8052TIP3   OH224098   7.295   6.879   4.519
 8052TIP3    H124099   7.385   6.901   4.493
 8052TIP3    H224100   7.278   6.936   4.594
 8053TIP3   OH224101   1.767   3.743   1.267
 8053TIP3    H124102   1.858   3.738   1.297
 8053TIP3    H224103   1.772   3.779   1.179
 8054TIP3   OH224104   3.897   7.535   2.352
 8054TIP3    H124105   3.898   7.548   2.257
 8054TIP3    H224106   3.945   7.453   2.366
 8055TIP3   OH224107   5.828   0.371   5.442
 8055TIP3    H124108   5.756   0.434   5.435
 8055TIP3    H224109   5.906   0.426   5.452
 8056TIP3   OH224110   7.779   2.397   1.568
 8056TIP3    H124111   7.757   2.330   1.632
 8056TIP3    H224112   7.708   2.393   1.504
 8057TIP3   OH224113   4.205   5.114   4.830
 8057TIP3    H124114   4.134   5.052   4.813
 8057TIP3    H224115   4.177   5.162   4.908
 8058TIP3   OH224116   7.178   3.622   2.056
 8058TIP3    H124117   7.196   3.602   2.147
 8058TIP3    H224118   7.263   3.617   2.012
 8059TIP3   OH224119   3.514   1.013   2.332
 8059TIP3    H124120   3.516   1.014   2.236
 8059TIP3    H224121   3.471   1.095   2.356
 8060TIP3   OH224122   5.622   4.032   5.542
 8060TIP3    H124123   5.621   4.127   5.535
 8060TIP3    H224124   5.709   4.011   5.577
 8061TIP3   OH224125   4.815   0.087   1.435
 8061TIP3    H124126   4.855   0.023   1.376
 8061TIP3    H224127   4.806   0.166   1.382
 8062TIP3   OH224128   4.207   4.408   1.841
 8062TIP3    H124129   4.226   4.321   1.877
 8062TIP3    H224130   4.283   4.461   1.866
 8063TIP3   OH224131   2.022   6.796   5.109
 8063TIP3    H124132   1.927   6.809   5.102
 8063TIP3    H224133   2.055   6.814   5.021
 8064TIP3   OH224134   2.216   6.322   2.547
 8064TIP3    H124135   2.242   6.382   2.618
 8064TIP3    H224136   2.140   6.364   2.507
 8065TIP3   OH224137   7.707   4.294   5.027
 8065TIP3    H124138   7.800   4.283   5.049
 8065TIP3    H224139   7.699   4.387   5.006
 8066TIP3   OH224140   3.374   7.244   4.540
 8066TIP3    H124141   3.295   7.217   4.587
 8066TIP3    H224142   3.415   7.161   4.514
 8067TIP3   OH224143   4.135   5.143   1.099
 8067TIP3    H124144   4.141   5.142   1.004
 8067TIP3    H224145   4.063   5.203   1.118
 8068TIP3   OH224146   6.419   6.830   4.097
 8068TIP3    H124147   6.401   6.789   4.013
 8068TIP3    H224148   6.333   6.861   4.127
 8069TIP3   OH224149   4.775   1.667   3.944
 8069TIP3    H124150   4.716   1.615   3.998
 8069TIP3    H224151   4.747   1.757   3.957
 8070TIP3   OH224152   8.157   6.026   2.857
 8070TIP3    H124153   8.230   5.965   2.845
 8070TIP3    H224154   8.101   5.985   2.923
 8071TIP3   OH224155   7.792   2.319   5.798
 8071TIP3    H124156   7.756   2.302   5.885
 8071TIP3    H224157   7.876   2.362   5.815
 8072TIP3   OH224158   5.962   2.654   5.397
 8072TIP3    H124159   5.993   2.742   5.373
 8072TIP3    H224160   6.027   2.595   5.358
 8073TIP3   OH224161   0.114   2.971   1.972
 8073TIP3    H124162   0.140   3.045   2.027
 8073TIP3    H224163   0.192   2.950   1.922
 8074TIP3   OH224164   7.646   5.191   6.426
 8074TIP3    H124165   7.597   5.248   6.484
 8074TIP3    H224166   7.610   5.209   6.339
 8075TIP3   OH224167   8.099   6.476   2.083
 8075TIP3    H124168   8.026   6.438   2.131
 8075TIP3    H224169   8.066   6.562   2.054
 8076TIP3   OH224170   2.944   4.146   0.517
 8076TIP3    H124171   2.853   4.161   0.544
 8076TIP3    H224172   2.975   4.075   0.574
 8077TIP3   OH224173   0.444   7.702   6.341
 8077TIP3    H124174   0.493   7.757   6.280
 8077TIP3    H224175   0.456   7.744   6.427
 8078TIP3   OH224176   1.444   5.279   2.790
 8078TIP3    H124177   1.490   5.362   2.784
 8078TIP3    H224178   1.497   5.227   2.850
 8079TIP3   OH224179   0.795   2.599   0.979
 8079TIP3    H124180   0.885   2.581   1.008
 8079TIP3    H224181   0.779   2.689   1.007
 8080TIP3   OH224182   3.252   4.347   0.842
 8080TIP3    H124183   3.248   4.428   0.893
 8080TIP3    H224184   3.203   4.284   0.894
 8081TIP3   OH224185   6.529   1.009   2.724
 8081TIP3    H124186   6.541   1.099   2.695
 8081TIP3    H224187   6.504   1.016   2.816
 8082TIP3   OH224188   4.072   5.953   1.743
 8082TIP3    H124189   4.054   5.864   1.715
 8082TIP3    H224190   4.131   5.944   1.818
 8083TIP3   OH224191   6.170   4.782   5.490
 8083TIP3    H124192   6.088   4.827   5.509
 8083TIP3    H224193   6.237   4.851   5.496
 8084TIP3   OH224194   0.783   1.036   2.839
 8084TIP3    H124195   0.874   1.049   2.813
 8084TIP3    H224196   0.733   1.093   2.781
 8085TIP3   OH224197   3.455   0.599   6.766
 8085TIP3    H124198   3.492   0.522   6.720
 8085TIP3    H224199   3.370   0.613   6.724
 8086TIP3   OH224200   7.485   4.664   4.521
 8086TIP3    H124201   7.421   4.719   4.566
 8086TIP3    H224202   7.493   4.586   4.575
 8087TIP3   OH224203   6.465   5.506   4.527
 8087TIP3    H124204   6.401   5.567   4.491
 8087TIP3    H224205   6.550   5.543   4.501
 8088TIP3   OH224206   5.718   1.353   1.708
 8088TIP3    H124207   5.779   1.419   1.740
 8088TIP3    H224208   5.766   1.307   1.639
 8089TIP3   OH224209   6.868   7.689   5.557
 8089TIP3    H124210   6.917   7.621   5.512
 8089TIP3    H224211   6.780   7.652   5.568
 8090TIP3   OH224212   2.395   2.836   5.619
 8090TIP3    H124213   2.368   2.783   5.544
 8090TIP3    H224214   2.489   2.849   5.608
 8091TIP3   OH224215   8.266   6.081   2.284
 8091TIP3    H124216   8.273   6.015   2.215
 8091TIP3    H224217   8.184   6.127   2.266
 8092TIP3   OH224218   0.389   5.426   1.798
 8092TIP3    H124219   0.422   5.510   1.768
 8092TIP3    H224220   0.417   5.364   1.731
 8093TIP3   OH224221   0.987   4.038   4.658
 8093TIP3    H124222   1.062   4.067   4.606
 8093TIP3    H224223   0.934   3.987   4.596
 8094TIP3   OH224224   6.656   6.121   6.565
 8094TIP3    H124225   6.714   6.123   6.489
 8094TIP3    H224226   6.599   6.046   6.549
 8095TIP3   OH224227   4.157   5.495   3.532
 8095TIP3    H124228   4.097   5.541   3.590
 8095TIP3    H224229   4.129   5.520   3.444
 8096TIP3   OH224230   5.716   5.102   4.356
 8096TIP3    H124231   5.749   5.095   4.266
 8096TIP3    H224232   5.735   5.192   4.381
 8097TIP3   OH224233   1.765   2.957   6.290
 8097TIP3    H124234   1.748   3.025   6.355
 8097TIP3    H224235   1.687   2.957   6.234
 8098TIP3   OH224236   0.772   0.261   1.440
 8098TIP3    H124237   0.693   0.227   1.398
 8098TIP3    H224238   0.805   0.325   1.378
 8099TIP3   OH224239   1.939   3.914   1.830
 8099TIP3    H124240   1.905   3.941   1.915
 8099TIP3    H224241   2.031   3.894   1.846
 8100TIP3   OH224242   5.872   1.743   2.312
 8100TIP3    H124243   5.850   1.663   2.360
 8100TIP3    H224244   5.960   1.766   2.342
 8101TIP3   OH224245   3.338   6.347   5.778
 8101TIP3    H124246   3.266   6.289   5.803
 8101TIP3    H224247   3.313   6.433   5.810
 8102TIP3   OH224248   0.332   3.176   5.172
 8102TIP3    H124249   0.247   3.132   5.172
 8102TIP3    H224250   0.365   3.164   5.261
 8103TIP3   OH224251   6.854   5.008   6.403
 8103TIP3    H124252   6.911   5.047   6.469
 8103TIP3    H224253   6.902   4.932   6.372
 8104TIP3   OH224254   6.890   4.035   2.229
 8104TIP3    H124255   6.894   3.955   2.177
 8104TIP3    H224256   6.824   4.088   2.185
 8105TIP3   OH224257   2.509   5.965   5.836
 8105TIP3    H124258   2.535   5.935   5.749
 8105TIP3    H224259   2.422   6.002   5.824
 8106TIP3   OH224260   2.504   3.678   6.709
 8106TIP3    H124261   2.442   3.727   6.655
 8106TIP3    H224262   2.512   3.729   6.790
 8107TIP3   OH224263   7.967   1.982   3.501
 8107TIP3    H124264   7.974   2.036   3.580
 8107TIP3    H224265   8.001   2.037   3.431
 8108TIP3   OH224266   4.935   7.744   3.665
 8108TIP3    H124267   4.907   7.835   3.653
 8108TIP3    H224268   4.856   7.698   3.694
 8109TIP3   OH224269   5.844   7.547   6.027
 8109TIP3    H124270   5.801   7.625   5.993
 8109TIP3    H224271   5.773   7.487   6.048
 8110TIP3   OH224272   4.682   3.087   5.953
 8110TIP3    H124273   4.602   3.140   5.952
 8110TIP3    H224274   4.737   3.128   6.020
 8111TIP3   OH224275   5.031   4.714   4.569
 8111TIP3    H124276   5.074   4.764   4.499
 8111TIP3    H224277   5.077   4.630   4.570
 8112TIP3   OH224278   7.310   4.867   4.613
 8112TIP3    H124279   7.248   4.864   4.541
 8112TIP3    H224280   7.361   4.947   4.598
 8113TIP3   OH224281   5.710   1.182   5.136
 8113TIP3    H124282   5.719   1.248   5.205
 8113TIP3    H224283   5.758   1.106   5.168
 8114TIP3   OH224284   4.903   0.721   1.858
 8114TIP3    H124285   4.934   0.640   1.816
 8114TIP3    H224286   4.953   0.726   1.939
 8115TIP3   OH224287   0.791   4.026   5.058
 8115TIP3    H124288   0.772   4.078   5.136
 8115TIP3    H224289   0.837   4.087   4.999
 8116TIP3   OH224290   1.353   1.747   2.813
 8116TIP3    H124291   1.437   1.709   2.784
 8116TIP3    H224292   1.287   1.701   2.761
 8117TIP3   OH224293   1.717   6.447   0.590
 8117TIP3    H124294   1.623   6.461   0.580
 8117TIP3    H224295   1.750   6.433   0.501
 8118TIP3   OH224296   2.462   1.632   0.816
 8118TIP3    H124297   2.399   1.625   0.744
 8118TIP3    H224298   2.427   1.573   0.884
 8119TIP3   OH224299   6.256   0.868   0.707
 8119TIP3    H124300   6.295   0.955   0.715
 8119TIP3    H224301   6.251   0.835   0.796
 8120TIP3   OH224302   2.357   2.094   3.310
 8120TIP3    H124303   2.319   2.087   3.223
 8120TIP3    H224304   2.451   2.092   3.296
 8121TIP3   OH224305   3.121   3.978   4.516
 8121TIP3    H124306   3.032   3.948   4.497
 8121TIP3    H224307   3.113   4.028   4.597
 8122TIP3   OH224308   4.912   3.238   5.820
 8122TIP3    H124309   4.946   3.164   5.869
 8122TIP3    H224310   4.886   3.301   5.887
 8123TIP3   OH224311   5.542   4.328   3.212
 8123TIP3    H124312   5.455   4.301   3.181
 8123TIP3    H224313   5.582   4.371   3.136
 8124TIP3   OH224314   0.926   2.163   0.079
 8124TIP3    H124315   0.957   2.229   0.017
 8124TIP3    H224316   1.002   2.141   0.132
 8125TIP3   OH224317   7.986   0.317   1.256
 8125TIP3    H124318   7.969   0.260   1.181
 8125TIP3    H224319   7.907   0.311   1.309
 8126TIP3   OH224320   2.254   1.798   2.902
 8126TIP3    H124321   2.222   1.713   2.873
 8126TIP3    H224322   2.344   1.803   2.870
 8127TIP3   OH224323   2.910   5.122   0.093
 8127TIP3    H124324   2.939   5.039   0.056
 8127TIP3    H224325   2.851   5.097   0.164
 8128TIP3   OH224326   1.619   0.971   2.611
 8128TIP3    H124327   1.707   0.979   2.575
 8128TIP3    H224328   1.613   1.043   2.674
 8129TIP3   OH224329   6.410   4.208   6.210
 8129TIP3    H124330   6.418   4.298   6.178
 8129TIP3    H224331   6.405   4.217   6.305
 8130TIP3   OH224332   0.244   6.254   2.331
 8130TIP3    H124333   0.161   6.220   2.364
 8130TIP3    H224334   0.260   6.205   2.250
 8131TIP3   OH224335   3.711   0.932   3.170
 8131TIP3    H124336   3.709   1.015   3.218
 8131TIP3    H224337   3.804   0.910   3.166
 8132TIP3   OH224338   3.763   2.040   0.864
 8132TIP3    H124339   3.750   1.981   0.938
 8132TIP3    H224340   3.835   2.001   0.814
 8133TIP3   OH224341   4.464   4.016   5.438
 8133TIP3    H124342   4.537   3.963   5.470
 8133TIP3    H224343   4.498   4.058   5.359
 8134TIP3   OH224344   0.829   6.485   1.669
 8134TIP3    H124345   0.768   6.514   1.601
 8134TIP3    H224346   0.910   6.534   1.651
 8135TIP3   OH224347   2.304   4.103   3.400
 8135TIP3    H124348   2.242   4.047   3.354
 8135TIP3    H224349   2.309   4.183   3.347
 8136TIP3   OH224350   7.281   5.888   6.233
 8136TIP3    H124351   7.185   5.883   6.232
 8136TIP3    H224352   7.308   5.855   6.147
 8137TIP3   OH224353   8.114   2.553   4.426
 8137TIP3    H124354   8.088   2.597   4.507
 8137TIP3    H224355   8.158   2.620   4.375
 8138TIP3   OH224356   5.677   1.915   1.279
 8138TIP3    H124357   5.594   1.935   1.322
 8138TIP3    H224358   5.733   1.991   1.296
 8139TIP3   OH224359   1.092   6.321   4.491
 8139TIP3    H124360   1.073   6.367   4.573
 8139TIP3    H224361   1.041   6.240   4.496
 8140TIP3   OH224362   7.804   5.059   6.605
 8140TIP3    H124363   7.728   5.092   6.557
 8140TIP3    H224364   7.865   5.031   6.538
 8141TIP3   OH224365   6.023   0.190   1.175
 8141TIP3    H124366   5.937   0.147   1.172
 8141TIP3    H224367   6.015   0.263   1.114
 8142TIP3   OH224368   3.302   7.315   0.346
 8142TIP3    H124369   3.312   7.251   0.417
 8142TIP3    H224370   3.355   7.390   0.373
 8143TIP3   OH224371   7.177   5.932   3.485
 8143TIP3    H124372   7.233   6.008   3.466
 8143TIP3    H224373   7.102   5.969   3.531
 8144TIP3   OH224374   1.579   2.831   1.313
 8144TIP3    H124375   1.491   2.809   1.341
 8144TIP3    H224376   1.624   2.857   1.393
 8145TIP3   OH224377   7.841   6.351   6.041
 8145TIP3    H124378   7.847   6.269   6.091
 8145TIP3    H224379   7.914   6.404   6.073
 8146TIP3   OH224380   4.765   1.363   5.140
 8146TIP3    H124381   4.785   1.277   5.103
 8146TIP3    H224382   4.846   1.391   5.182
 8147TIP3   OH224383   6.820   5.380   2.165
 8147TIP3    H124384   6.741   5.409   2.119
 8147TIP3    H224385   6.892   5.406   2.108
 8148TIP3   OH224386   3.119   5.148   1.038
 8148TIP3    H124387   3.177   5.127   0.964
 8148TIP3    H224388   3.042   5.092   1.024
 8149TIP3   OH224389   7.491   5.774   0.738
 8149TIP3    H124390   7.565   5.836   0.738
 8149TIP3    H224391   7.522   5.700   0.790
 8150TIP3   OH224392   2.918   2.694   0.769
 8150TIP3    H124393   2.981   2.732   0.830
 8150TIP3    H224394   2.833   2.715   0.807
 8151TIP3   OH224395   1.898   7.018   4.940
 8151TIP3    H124396   1.967   7.027   4.874
 8151TIP3    H224397   1.909   7.094   4.997
 8152TIP3   OH224398   6.023   5.144   2.826
 8152TIP3    H124399   6.106   5.184   2.800
 8152TIP3    H224400   6.031   5.133   2.921
 8153TIP3   OH224401   5.670   3.070   1.106
 8153TIP3    H124402   5.639   3.112   1.026
 8153TIP3    H224403   5.702   2.984   1.078
 8154TIP3   OH224404   3.258  -0.010   6.611
 8154TIP3    H124405   3.323   0.060   6.610
 8154TIP3    H224406   3.253  -0.036   6.703
 8155TIP3   OH224407   2.809   3.809   5.714
 8155TIP3    H124408   2.744   3.880   5.710
 8155TIP3    H224409   2.861   3.820   5.634
 8156TIP3   OH224410   4.723   0.843   0.345
 8156TIP3    H124411   4.701   0.895   0.423
 8156TIP3    H224412   4.804   0.883   0.312
 8157TIP3   OH224413   8.144   7.489   4.427
 8157TIP3    H124414   8.108   7.547   4.494
 8157TIP3    H224415   8.075   7.482   4.362
 8158TIP3   OH224416   5.382   5.120   1.292
 8158TIP3    H124417   5.389   5.075   1.377
 8158TIP3    H224418   5.377   5.213   1.315
 8159TIP3   OH224419   7.808   2.844   4.867
 8159TIP3    H124420   7.904   2.845   4.873
 8159TIP3    H224421   7.790   2.844   4.773
 8160TIP3   OH224422   5.426   0.198   5.830
 8160TIP3    H124423   5.421   0.278   5.882
 8160TIP3    H224424   5.413   0.227   5.740
 8161TIP3   OH224425   2.130   1.289   5.426
 8161TIP3    H124426   2.206   1.232   5.421
 8161TIP3    H224427   2.150   1.361   5.366
 8162TIP3   OH224428   0.720   1.844   6.331
 8162TIP3    H124429   0.779   1.838   6.406
 8162TIP3    H224430   0.632   1.849   6.369
 8163TIP3   OH224431   1.948   1.758   5.363
 8163TIP3    H124432   1.908   1.721   5.442
 8163TIP3    H224433   2.040   1.733   5.369
 8164TIP3   OH224434   2.011   6.746   1.076
 8164TIP3    H124435   1.968   6.735   0.991
 8164TIP3    H224436   1.943   6.784   1.132
 8165TIP3   OH224437   3.140   0.284   1.644
 8165TIP3    H124438   3.229   0.315   1.628
 8165TIP3    H224439   3.109   0.336   1.718
 8166TIP3   OH224440   1.050   3.605   6.285
 8166TIP3    H124441   0.969   3.646   6.256
 8166TIP3    H224442   1.119   3.654   6.240
 8167TIP3   OH224443   2.770   2.961   6.282
 8167TIP3    H124444   2.778   3.012   6.363
 8167TIP3    H224445   2.826   3.007   6.219
 8168TIP3   OH224446   5.468   3.624   6.072
 8168TIP3    H124447   5.502   3.709   6.043
 8168TIP3    H224448   5.522   3.559   6.027
 8169TIP3   OH224449   0.918   2.747   2.939
 8169TIP3    H124450   0.873   2.828   2.914
 8169TIP3    H224451   0.980   2.731   2.868
 8170TIP3   OH224452   0.168   2.590   5.740
 8170TIP3    H124453   0.136   2.500   5.731
 8170TIP3    H224454   0.157   2.609   5.834
 8171TIP3   OH224455   3.294   3.272   2.897
 8171TIP3    H124456   3.361   3.329   2.861
 8171TIP3    H224457   3.330   3.242   2.981
 8172TIP3   OH224458   2.430   7.150   5.153
 8172TIP3    H124459   2.510   7.161   5.100
 8172TIP3    H224460   2.370   7.102   5.096
 8173TIP3   OH224461   8.004   6.314   6.351
 8173TIP3    H124462   8.094   6.282   6.354
 8173TIP3    H224463   7.953   6.240   6.318
 8174TIP3   OH224464   1.537   7.371   1.074
 8174TIP3    H124465   1.444   7.381   1.054
 8174TIP3    H224466   1.540   7.302   1.141
 8175TIP3   OH224467   6.048   1.224   4.187
 8175TIP3    H124468   6.052   1.263   4.100
 8175TIP3    H224469   6.020   1.296   4.244
 8176TIP3   OH224470   4.419   5.894   1.520
 8176TIP3    H124471   4.393   5.985   1.535
 8176TIP3    H224472   4.342   5.854   1.480
 8177TIP3   OH224473   3.849   3.897   6.324
 8177TIP3    H124474   3.841   3.982   6.281
 8177TIP3    H224475   3.779   3.896   6.389
 8178TIP3   OH224476   7.996   1.611   6.310
 8178TIP3    H124477   8.038   1.528   6.289
 8178TIP3    H224478   8.063   1.662   6.357
 8179TIP3   OH224479   0.375   6.530   6.371
 8179TIP3    H124480   0.354   6.615   6.409
 8179TIP3    H224481   0.450   6.499   6.422
 8180TIP3   OH224482   0.309   3.588   5.355
 8180TIP3    H124483   0.239   3.541   5.400
 8180TIP3    H224484   0.322   3.540   5.273
 8181TIP3   OH224485   3.347   7.358   3.294
 8181TIP3    H124486   3.345   7.263   3.303
 8181TIP3    H224487   3.310   7.374   3.207
 8182TIP3   OH224488   1.042   4.596   2.866
 8182TIP3    H124489   0.966   4.650   2.891
 8182TIP3    H224490   1.099   4.598   2.943
 8183TIP3   OH224491   7.602   3.958   4.777
 8183TIP3    H124492   7.690   3.922   4.772
 8183TIP3    H224493   7.561   3.932   4.694
 8184TIP3   OH224494   6.986   7.501   2.289
 8184TIP3    H124495   6.929   7.487   2.213
 8184TIP3    H224496   7.070   7.526   2.251
 8185TIP3   OH224497   6.439   4.047   5.040
 8185TIP3    H124498   6.432   3.952   5.029
 8185TIP3    H224499   6.505   4.074   4.975
 8186TIP3   OH224500   7.489   5.326   2.602
 8186TIP3    H124501   7.400   5.328   2.637
 8186TIP3    H224502   7.534   5.260   2.655
 8187TIP3   OH224503   6.638   1.952   2.774
 8187TIP3    H124504   6.551   1.913   2.778
 8187TIP3    H224505   6.625   2.043   2.801
 8188TIP3   OH224506   2.019   3.390   1.358
 8188TIP3    H124507   2.078   3.385   1.433
 8188TIP3    H224508   1.931   3.392   1.396
 8189TIP3   OH224509   5.656   4.412   1.956
 8189TIP3    H124510   5.627   4.442   2.042
 8189TIP3    H224511   5.632   4.483   1.896
 8190TIP3   OH224512   5.827   6.010   3.838
 8190TIP3    H124513   5.759   5.962   3.884
 8190TIP3    H224514   5.903   5.951   3.839
 8191TIP3   OH224515   1.870   4.274   6.295
 8191TIP3    H124516   1.786   4.312   6.271
 8191TIP3    H224517   1.855   4.234   6.381
 8192TIP3   OH224518   4.122   1.877   0.929
 8192TIP3    H124519   4.074   1.922   0.998
 8192TIP3    H224520   4.214   1.897   0.947
 8193TIP3   OH224521   5.236   0.621   0.459
 8193TIP3    H124522   5.317   0.652   0.418
 8193TIP3    H224523   5.167   0.673   0.419
 8194TIP3   OH224524   6.321   4.029   6.623
 8194TIP3    H124525   6.300   4.120   6.643
 8194TIP3    H224526   6.266   4.007   6.547
 8195TIP3   OH224527   5.279   3.452   4.209
 8195TIP3    H124528   5.264   3.502   4.129
 8195TIP3    H224529   5.264   3.516   4.279
 8196TIP3   OH224530   2.377   0.489   1.019
 8196TIP3    H124531   2.362   0.544   0.942
 8196TIP3    H224532   2.356   0.547   1.093
 8197TIP3   OH224533   3.823   5.221   2.406
 8197TIP3    H124534   3.772   5.156   2.455
 8197TIP3    H224535   3.759   5.264   2.350
 8198TIP3   OH224536   1.568   6.048   4.578
 8198TIP3    H124537   1.602   6.069   4.491
 8198TIP3    H224538   1.493   5.990   4.561
 8199TIP3   OH224539   0.473   6.649   6.653
 8199TIP3    H124540   0.561   6.611   6.654
 8199TIP3    H224541   0.429   6.607   6.727
 8200TIP3   OH224542   3.285   5.864   3.337
 8200TIP3    H124543   3.257   5.877   3.246
 8200TIP3    H224544   3.342   5.787   3.333
 8201TIP3   OH224545   1.403   7.414   2.033
 8201TIP3    H124546   1.441   7.475   1.970
 8201TIP3    H224547   1.310   7.411   2.011
 8202TIP3   OH224548   8.048   2.838   6.074
 8202TIP3    H124549   7.971   2.894   6.064
 8202TIP3    H224550   8.094   2.846   5.990
 8203TIP3   OH224551   3.329   5.554   2.563
 8203TIP3    H124552   3.358   5.644   2.575
 8203TIP3    H224553   3.339   5.513   2.649
 8204TIP3   OH224554   5.172   1.641   4.410
 8204TIP3    H124555   5.215   1.726   4.396
 8204TIP3    H224556   5.199   1.588   4.335
 8205TIP3   OH224557   1.430   1.152   2.118
 8205TIP3    H124558   1.364   1.181   2.055
 8205TIP3    H224559   1.480   1.086   2.071
 8206TIP3   OH224560   5.881   5.750   2.239
 8206TIP3    H124561   5.858   5.736   2.147
 8206TIP3    H224562   5.849   5.672   2.284
 8207TIP3   OH224563   4.810   4.158   1.833
 8207TIP3    H124564   4.764   4.077   1.858
 8207TIP3    H224565   4.895   4.151   1.877
 8208TIP3   OH224566   5.294   4.900   4.773
 8208TIP3    H124567   5.213   4.929   4.817
 8208TIP3    H224568   5.275   4.909   4.680
 8209TIP3   OH224569   2.860   1.285   6.270
 8209TIP3    H124570   2.784   1.329   6.231
 8209TIP3    H224571   2.927   1.354   6.276
 8210TIP3   OH224572   4.909   3.203   4.909
 8210TIP3    H124573   4.888   3.282   4.958
 8210TIP3    H224574   4.934   3.234   4.822
 8211TIP3   OH224575   4.584   3.149   2.083
 8211TIP3    H124576   4.537   3.200   2.149
 8211TIP3    H224577   4.524   3.078   2.061
 8212TIP3   OH224578   3.699   6.293   2.595
 8212TIP3    H124579   3.620   6.326   2.639
 8212TIP3    H224580   3.745   6.243   2.662
 8213TIP3   OH224581   1.618   6.612   1.415
 8213TIP3    H124582   1.657   6.640   1.332
 8213TIP3    H224583   1.617   6.692   1.468
 8214TIP3   OH224584   2.566   4.062   4.190
 8214TIP3    H124585   2.515   4.142   4.200
 8214TIP3    H224586   2.644   4.087   4.141
 8215TIP3   OH224587   7.720   0.479   3.260
 8215TIP3    H124588   7.712   0.547   3.194
 8215TIP3    H224589   7.736   0.526   3.342
 8216TIP3   OH224590   1.201   1.997   3.763
 8216TIP3    H124591   1.169   1.910   3.789
 8216TIP3    H224592   1.206   2.046   3.845
 8217TIP3   OH224593   6.784   4.431   2.180
 8217TIP3    H124594   6.700   4.461   2.213
 8217TIP3    H224595   6.775   4.432   2.085
 8218TIP3   OH224596   2.248   1.591   4.421
 8218TIP3    H124597   2.334   1.558   4.444
 8218TIP3    H224598   2.214   1.627   4.503
 8219TIP3   OH224599   4.607   1.877   6.130
 8219TIP3    H124600   4.548   1.922   6.190
 8219TIP3    H224601   4.628   1.942   6.063
 8220TIP3   OH224602   3.444   5.986   5.589
 8220TIP3    H124603   3.367   6.033   5.557
 8220TIP3    H224604   3.514   6.051   5.585
 8221TIP3   OH224605   7.963   1.979   1.062
 8221TIP3    H124606   8.036   2.041   1.067
 8221TIP3    H224607   7.884   2.033   1.069
 8222TIP3   OH224608   0.830   2.739   4.446
 8222TIP3    H124609   0.828   2.666   4.385
 8222TIP3    H224610   0.904   2.720   4.504
 8223TIP3   OH224611   8.127   6.268   5.981
 8223TIP3    H124612   8.159   6.254   5.891
 8223TIP3    H224613   8.171   6.349   6.009
 8224TIP3   OH224614   6.919   2.025   2.431
 8224TIP3    H124615   6.851   2.063   2.487
 8224TIP3    H224616   6.979   2.098   2.415
 8225TIP3   OH224617   3.321   6.407   3.816
 8225TIP3    H124618   3.240   6.459   3.812
 8225TIP3    H224619   3.380   6.449   3.754
 8226TIP3   OH224620   2.488   5.968   6.266
 8226TIP3    H124621   2.411   5.923   6.303
 8226TIP3    H224622   2.562   5.915   6.296
 8227TIP3   OH224623   1.908   2.910   2.182
 8227TIP3    H124624   1.858   2.857   2.120
 8227TIP3    H224625   1.999   2.898   2.155
 8228TIP3   OH224626   5.233   5.482   4.532
 8228TIP3    H124627   5.173   5.524   4.593
 8228TIP3    H224628   5.317   5.481   4.578
 8229TIP3   OH224629   2.199   1.435   1.027
 8229TIP3    H124630   2.122   1.413   1.079
 8229TIP3    H224631   2.206   1.530   1.033
 8230TIP3   OH224632   3.413   3.446   1.242
 8230TIP3    H124633   3.397   3.374   1.181
 8230TIP3    H224634   3.340   3.441   1.304
 8231TIP3   OH224635   6.276   4.164   2.292
 8231TIP3    H124636   6.357   4.180   2.244
 8231TIP3    H224637   6.247   4.250   2.321
 8232TIP3   OH224638   2.658   3.903   5.199
 8232TIP3    H124639   2.637   3.839   5.267
 8232TIP3    H224640   2.749   3.886   5.177
 8233TIP3   OH224641   0.693   1.177   1.543
 8233TIP3    H124642   0.649   1.099   1.577
 8233TIP3    H224643   0.786   1.158   1.554
 8234TIP3   OH224644   1.316   4.273   5.117
 8234TIP3    H124645   1.329   4.360   5.155
 8234TIP3    H224646   1.283   4.291   5.029
 8235TIP3   OH224647   6.010   3.939   1.827
 8235TIP3    H124648   6.052   4.024   1.841
 8235TIP3    H224649   6.067   3.895   1.763
 8236TIP3   OH224650   3.119   2.518   3.992
 8236TIP3    H124651   3.037   2.558   4.022
 8236TIP3    H224652   3.096   2.428   3.970
 8237TIP3   OH224653   6.942   5.268   4.481
 8237TIP3    H124654   6.953   5.328   4.407
 8237TIP3    H224655   6.952   5.323   4.558
 8238TIP3   OH224656   6.605   6.007   5.107
 8238TIP3    H124657   6.642   6.056   5.034
 8238TIP3    H224658   6.511   6.007   5.092
 8239TIP3   OH224659   4.545   2.289   4.477
 8239TIP3    H124660   4.548   2.198   4.450
 8239TIP3    H224661   4.613   2.332   4.424
 8240TIP3   OH224662   1.790   5.947   2.187
 8240TIP3    H124663   1.765   5.979   2.273
 8240TIP3    H224664   1.858   5.882   2.204
 8241TIP3   OH224665   1.292   2.931   0.069
 8241TIP3    H124666   1.299   2.985  -0.010
 8241TIP3    H224667   1.198   2.931   0.089
 8242TIP3   OH224668   3.639   7.296   1.396
 8242TIP3    H124669   3.596   7.215   1.369
 8242TIP3    H224670   3.576   7.365   1.374
 8243TIP3   OH224671   6.445   6.462   5.930
 8243TIP3    H124672   6.387   6.533   5.903
 8243TIP3    H224673   6.476   6.424   5.848
 8244TIP3   OH224674   5.718   3.002   4.479
 8244TIP3    H124675   5.741   2.934   4.542
 8244TIP3    H224676   5.723   2.959   4.394
 8245TIP3   OH224677   3.325   1.999   4.215
 8245TIP3    H124678   3.350   1.924   4.160
 8245TIP3    H224679   3.382   1.992   4.292
 8246TIP3   OH224680   4.255   1.806   2.134
 8246TIP3    H124681   4.230   1.892   2.102
 8246TIP3    H224682   4.263   1.817   2.229
 8247TIP3   OH224683   3.140   2.065   0.383
 8247TIP3    H124684   3.068   2.002   0.387
 8247TIP3    H224685   3.211   2.025   0.433
 8248TIP3   OH224686   0.364   5.132   4.584
 8248TIP3    H124687   0.329   5.219   4.566
 8248TIP3    H224688   0.457   5.147   4.601
 8249TIP3   OH224689   4.151   5.816   4.812
 8249TIP3    H124690   4.227   5.759   4.805
 8249TIP3    H224691   4.141   5.854   4.725
 8250TIP3   OH224692   7.280   6.574   1.218
 8250TIP3    H124693   7.313   6.525   1.142
 8250TIP3    H224694   7.273   6.509   1.288
 8251TIP3   OH224695   5.286   3.098   4.344
 8251TIP3    H124696   5.260   3.042   4.271
 8251TIP3    H224697   5.376   3.070   4.364
 8252TIP3   OH224698   4.847   5.882   4.007
 8252TIP3    H124699   4.768   5.844   4.043
 8252TIP3    H224700   4.849   5.971   4.042
 8253TIP3   OH224701   1.225   2.272   5.315
 8253TIP3    H124702   1.272   2.273   5.399
 8253TIP3    H224703   1.260   2.347   5.267
 8254TIP3   OH224704   6.422   5.095   5.200
 8254TIP3    H124705   6.452   5.180   5.168
 8254TIP3    H224706   6.487   5.070   5.266
 8255TIP3   OH224707   3.194   1.617   0.038
 8255TIP3    H124708   3.248   1.542   0.062
 8255TIP3    H224709   3.136   1.584  -0.030
 8256TIP3   OH224710   1.131   5.440   5.666
 8256TIP3    H124711   1.143   5.495   5.743
 8256TIP3    H224712   1.160   5.494   5.593
 8257TIP3   OH224713   0.515   4.329   3.747
 8257TIP3    H124714   0.604   4.328   3.782
 8257TIP3    H224715   0.526   4.312   3.653
 8258TIP3   OH224716   6.398   7.407   4.567
 8258TIP3    H124717   6.486   7.427   4.599
 8258TIP3    H224718   6.350   7.380   4.645
 8259TIP3   OH224719   6.262   5.676   0.159
 8259TIP3    H124720   6.281   5.658   0.251
 8259TIP3    H224721   6.348   5.672   0.116
 8260TIP3   OH224722   1.046   7.359   5.008
 8260TIP3    H124723   1.111   7.312   4.956
 8260TIP3    H224724   1.039   7.445   4.967
 8261TIP3   OH224725   7.136   5.751   3.961
 8261TIP3    H124726   7.175   5.758   4.048
 8261TIP3    H224727   7.209   5.725   3.904
 8262TIP3   OH224728   6.830   1.656   1.356
 8262TIP3    H124729   6.861   1.676   1.445
 8262TIP3    H224730   6.739   1.683   1.356
 8263TIP3   OH224731   2.902   6.303   0.352
 8263TIP3    H124732   2.961   6.246   0.401
 8263TIP3    H224733   2.935   6.303   0.263
 8264TIP3   OH224734   0.930   3.039   0.813
 8264TIP3    H124735   0.897   3.128   0.806
 8264TIP3    H224736   0.882   2.990   0.747
 8265TIP3   OH224737   0.412   6.024   3.726
 8265TIP3    H124738   0.407   6.110   3.769
 8265TIP3    H224739   0.467   6.040   3.649
 8266TIP3   OH224740   6.340   1.210   5.048
 8266TIP3    H124741   6.276   1.274   5.016
 8266TIP3    H224742   6.290   1.130   5.061
 8267TIP3   OH224743   0.996   6.972   1.374
 8267TIP3    H124744   1.013   6.889   1.329
 8267TIP3    H224745   1.056   6.973   1.448
 8268TIP3   OH224746   1.740   6.869   6.498
 8268TIP3    H124747   1.795   6.792   6.483
 8268TIP3    H224748   1.787   6.940   6.455
 8269TIP3   OH224749   5.382   7.412   6.512
 8269TIP3    H124750   5.387   7.317   6.524
 8269TIP3    H224751   5.321   7.424   6.440
 8270TIP3   OH224752   3.217   7.617   6.587
 8270TIP3    H124753   3.194   7.529   6.618
 8270TIP3    H224754   3.286   7.646   6.647
 8271TIP3   OH224755   6.155   3.352   1.243
 8271TIP3    H124756   6.151   3.292   1.169
 8271TIP3    H224757   6.170   3.438   1.203
 8272TIP3   OH224758   3.834   1.920   6.112
 8272TIP3    H124759   3.839   1.850   6.047
 8272TIP3    H224760   3.911   1.907   6.167
 8273TIP3   OH224761   0.099   5.443   0.084
 8273TIP3    H124762   0.111   5.515   0.021
 8273TIP3    H224763   0.188   5.414   0.104
 8274TIP3   OH224764   6.720   1.522   2.542
 8274TIP3    H124765   6.780   1.448   2.547
 8274TIP3    H224766   6.705   1.547   2.633
 8275TIP3   OH224767   2.309   1.386   3.310
 8275TIP3    H124768   2.380   1.355   3.254
 8275TIP3    H224769   2.321   1.338   3.392
 8276TIP3   OH224770   3.908   6.212   4.951
 8276TIP3    H124771   3.984   6.156   4.933
 8276TIP3    H224772   3.913   6.230   5.045
 8277TIP3   OH224773   6.300   0.454   1.023
 8277TIP3    H124774   6.205   0.449   1.019
 8277TIP3    H224775   6.318   0.534   1.072
 8278TIP3   OH224776   3.193   5.914   4.794
 8278TIP3    H124777   3.191   5.906   4.889
 8278TIP3    H224778   3.105   5.888   4.766
 8279TIP3   OH224779   1.490   2.434   0.230
 8279TIP3    H124780   1.409   2.469   0.195
 8279TIP3    H224781   1.468   2.405   0.319
 8280TIP3   OH224782   6.877   1.885   3.466
 8280TIP3    H124783   6.816   1.813   3.480
 8280TIP3    H224784   6.959   1.855   3.505
 8281TIP3   OH224785   1.057   5.646   2.452
 8281TIP3    H124786   0.973   5.602   2.465
 8281TIP3    H224787   1.123   5.578   2.469
 8282TIP3   OH224788   6.973   5.952   0.777
 8282TIP3    H124789   6.996   5.883   0.716
 8282TIP3    H224790   6.948   6.026   0.722
 8283TIP3   OH224791   2.331   5.892   2.217
 8283TIP3    H124792   2.346   5.801   2.241
 8283TIP3    H224793   2.356   5.897   2.125
 8284TIP3   OH224794   7.546   7.056   1.210
 8284TIP3    H124795   7.481   6.994   1.243
 8284TIP3    H224796   7.598   7.005   1.148
 8285TIP3   OH224797   1.950   7.800   2.508
 8285TIP3    H124798   1.893   7.726   2.484
 8285TIP3    H224799   1.929   7.816   2.600
 8286TIP3   OH224800   2.946   4.010   2.482
 8286TIP3    H124801   2.899   4.011   2.565
 8286TIP3    H224802   2.907   3.938   2.433
 8287TIP3   OH224803   6.310   5.877   5.971
 8287TIP3    H124804   6.337   5.873   5.879
 8287TIP3    H224805   6.351   5.800   6.011
 8288TIP3   OH224806   0.545   1.756   2.706
 8288TIP3    H124807   0.550   1.833   2.762
 8288TIP3    H224808   0.465   1.711   2.733
 8289TIP3   OH224809   2.410   4.058   1.432
 8289TIP3    H124810   2.467   4.011   1.371
 8289TIP3    H224811   2.449   4.145   1.439
 8290TIP3   OH224812   7.211   3.941   3.515
 8290TIP3    H124813   7.250   3.854   3.525
 8290TIP3    H224814   7.192   3.948   3.421
 8291TIP3   OH224815   0.533   6.683   2.532
 8291TIP3    H124816   0.517   6.772   2.501
 8291TIP3    H224817   0.588   6.694   2.610
 8292TIP3   OH224818   7.463   7.688   4.224
 8292TIP3    H124819   7.454   7.651   4.311
 8292TIP3    H224820   7.416   7.627   4.167
 8293TIP3   OH224821   1.546   4.682   5.426
 8293TIP3    H124822   1.511   4.594   5.416
 8293TIP3    H224823   1.604   4.694   5.351
 8294TIP3   OH224824   1.192   5.036   1.955
 8294TIP3    H124825   1.120   5.099   1.951
 8294TIP3    H224826   1.155   4.961   2.003
 8295TIP3   OH224827   1.424   6.653   1.205
 8295TIP3    H124828   1.373   6.604   1.269
 8295TIP3    H224829   1.498   6.596   1.184
 8296TIP3   OH224830   7.811   1.397   4.741
 8296TIP3    H124831   7.730   1.447   4.725
 8296TIP3    H224832   7.799   1.362   4.829
 8297TIP3   OH224833   1.119   7.338   5.290
 8297TIP3    H124834   1.207   7.365   5.315
 8297TIP3    H224835   1.117   7.347   5.195
 8298TIP3   OH224836   3.381   3.027   3.388
 8298TIP3    H124837   3.403   3.036   3.481
 8298TIP3    H224838   3.387   2.933   3.371
 8299TIP3   OH224839   7.257   7.654   4.939
 8299TIP3    H124840   7.244   7.660   4.844
 8299TIP3    H224841   7.331   7.593   4.949
 8300TIP3   OH224842   5.869   1.047   0.752
 8300TIP3    H124843   5.911   1.008   0.676
 8300TIP3    H224844   5.871   1.141   0.734
 8301TIP3   OH224845   2.618   3.649   6.167
 8301TIP3    H124846   2.537   3.646   6.116
 8301TIP3    H224847   2.613   3.574   6.226
 8302TIP3   OH224848   7.124   4.202   3.742
 8302TIP3    H124849   7.123   4.275   3.681
 8302TIP3    H224850   7.124   4.243   3.829
 8303TIP3   OH224851   2.832   0.506   2.213
 8303TIP3    H124852   2.815   0.450   2.289
 8303TIP3    H224853   2.748   0.512   2.168
 8304TIP3   OH224854   6.986   6.055   3.657
 8304TIP3    H124855   6.990   6.148   3.634
 8304TIP3    H224856   7.041   6.048   3.735
 8305TIP3   OH224857   6.481   0.116   6.438
 8305TIP3    H124858   6.477   0.098   6.531
 8305TIP3    H224859   6.391   0.106   6.406
 8306TIP3   OH224860   2.933   3.130   0.117
 8306TIP3    H124861   2.954   3.221   0.139
 8306TIP3    H224862   2.932   3.085   0.201
 8307TIP3   OH224863   0.470   5.331   2.339
 8307TIP3    H124864   0.432   5.345   2.253
 8307TIP3    H224865   0.509   5.415   2.362
 8308TIP3   OH224866   6.994   3.643   1.854
 8308TIP3    H124867   7.054   3.649   1.780
 8308TIP3    H224868   7.051   3.630   1.930
 8309TIP3   OH224869   5.449   3.991   0.001
 8309TIP3    H124870   5.481   4.080   0.016
 8309TIP3    H224871   5.520   3.935   0.033
 8310TIP3   OH224872   0.166   0.258   6.239
 8310TIP3    H124873   0.154   0.167   6.267
 8310TIP3    H224874   0.198   0.303   6.318
 8311TIP3   OH224875   1.919   3.599   2.055
 8311TIP3    H124876   1.906   3.516   2.102
 8311TIP3    H224877   1.870   3.588   1.973
 8312TIP3   OH224878   3.181   6.041   1.087
 8312TIP3    H124879   3.093   6.030   1.122
 8312TIP3    H224880   3.170   6.039   0.992
 8313TIP3   OH224881   1.433   0.107   5.145
 8313TIP3    H124882   1.402   0.026   5.104
 8313TIP3    H224883   1.407   0.176   5.084
 8314TIP3   OH224884   2.238   6.787   3.068
 8314TIP3    H124885   2.157   6.737   3.082
 8314TIP3    H224886   2.300   6.724   3.032
 8315TIP3   OH224887   4.617   6.812   2.528
 8315TIP3    H124888   4.562   6.822   2.451
 8315TIP3    H224889   4.564   6.846   2.600
 8316TIP3   OH224890   5.589   1.749   4.276
 8316TIP3    H124891   5.595   1.665   4.321
 8316TIP3    H224892   5.497   1.773   4.283
 8317TIP3   OH224893   4.222   6.547   5.795
 8317TIP3    H124894   4.278   6.623   5.809
 8317TIP3    H224895   4.151   6.579   5.741
 8318TIP3   OH224896   4.073   3.021   2.472
 8318TIP3    H124897   4.050   3.112   2.452
 8318TIP3    H224898   4.079   2.978   2.387
 8319TIP3   OH224899   7.145   6.380   1.573
 8319TIP3    H124900   7.219   6.340   1.618
 8319TIP3    H224901   7.092   6.418   1.643
 8320TIP3   OH224902   5.052   7.264   2.632
 8320TIP3    H124903   5.128   7.275   2.574
 8320TIP3    H224904   4.980   7.306   2.584
 8321TIP3   OH224905   5.942   3.823   0.941
 8321TIP3    H124906   5.984   3.739   0.961
 8321TIP3    H224907   5.924   3.819   0.847
 8322TIP3   OH224908   0.202   3.893   1.762
 8322TIP3    H124909   0.200   3.910   1.856
 8322TIP3    H224910   0.116   3.857   1.742
 8323TIP3   OH224911   1.202   4.496   3.718
 8323TIP3    H124912   1.172   4.413   3.755
 8323TIP3    H224913   1.134   4.558   3.743
 8324TIP3   OH224914   6.944   2.573   6.663
 8324TIP3    H124915   6.964   2.588   6.755
 8324TIP3    H224916   6.962   2.480   6.649
 8325TIP3   OH224917   1.564   6.382   5.351
 8325TIP3    H124918   1.621   6.457   5.335
 8325TIP3    H224919   1.516   6.405   5.431
 8326TIP3   OH224920   7.186   5.777   4.948
 8326TIP3    H124921   7.097   5.765   4.981
 8326TIP3    H224922   7.188   5.729   4.865
 8327TIP3   OH224923   5.231   5.839   4.522
 8327TIP3    H124924   5.247   5.932   4.508
 8327TIP3    H224925   5.267   5.796   4.445
 8328TIP3   OH224926   4.091   6.679   2.592
 8328TIP3    H124927   4.025   6.629   2.640
 8328TIP3    H224928   4.040   6.731   2.529
 8329TIP3   OH224929   7.425   4.117   3.439
 8329TIP3    H124930   7.345   4.168   3.431
 8329TIP3    H224931   7.398   4.036   3.482
 8330TIP3   OH224932   0.974   3.906   0.324
 8330TIP3    H124933   0.911   3.977   0.343
 8330TIP3    H224934   0.945   3.834   0.380
 8331TIP3   OH224935   7.616   7.729   1.852
 8331TIP3    H124936   7.581   7.700   1.768
 8331TIP3    H224937   7.636   7.649   1.900
 8332TIP3   OH224938   0.340   3.768   2.331
 8332TIP3    H124939   0.372   3.807   2.250
 8332TIP3    H224940   0.280   3.833   2.366
 8333TIP3   OH224941   4.391   0.576   0.226
 8333TIP3    H124942   4.485   0.596   0.221
 8333TIP3    H224943   4.385   0.483   0.204
 8334TIP3   OH224944   4.512   3.966   3.889
 8334TIP3    H124945   4.479   3.923   3.968
 8334TIP3    H224946   4.463   4.048   3.884
 8335TIP3   OH224947   5.594   5.627   4.103
 8335TIP3    H124948   5.519   5.570   4.086
 8335TIP3    H224949   5.671   5.570   4.092
 8336TIP3   OH224950   7.882   4.235   5.311
 8336TIP3    H124951   7.910   4.219   5.401
 8336TIP3    H224952   7.789   4.258   5.319
 8337TIP3   OH224953   1.278   5.143   0.711
 8337TIP3    H124954   1.260   5.225   0.756
 8337TIP3    H224955   1.200   5.129   0.656
 8338TIP3   OH224956   6.681   5.921   1.899
 8338TIP3    H124957   6.678   5.833   1.936
 8338TIP3    H224958   6.617   5.970   1.951
 8339TIP3   OH224959   2.652   5.306   5.965
 8339TIP3    H124960   2.601   5.320   5.885
 8339TIP3    H224961   2.704   5.228   5.947
 8340TIP3   OH224962   5.090   6.686   0.514
 8340TIP3    H124963   5.173   6.715   0.552
 8340TIP3    H224964   5.087   6.592   0.533
 8341TIP3   OH224965   1.244   0.514   1.058
 8341TIP3    H124966   1.295   0.527   0.978
 8341TIP3    H224967   1.172   0.577   1.052
 8342TIP3   OH224968   2.548   7.030   4.758
 8342TIP3    H124969   2.572   7.116   4.790
 8342TIP3    H224970   2.631   6.984   4.747
 8343TIP3   OH224971   3.155   3.391   5.514
 8343TIP3    H124972   3.154   3.297   5.498
 8343TIP3    H224973   3.168   3.399   5.608
 8344TIP3   OH224974   6.715   1.100   5.521
 8344TIP3    H124975   6.759   1.139   5.446
 8344TIP3    H224976   6.658   1.169   5.554
 8345TIP3   OH224977   1.316   0.758   1.196
 8345TIP3    H124978   1.331   0.673   1.155
 8345TIP3    H224979   1.363   0.820   1.141
 8346TIP3   OH224980   0.759   2.853   1.057
 8346TIP3    H124981   0.723   2.848   1.145
 8346TIP3    H224982   0.802   2.938   1.053
 8347TIP3   OH224983   5.433   6.039   4.804
 8347TIP3    H124984   5.456   6.077   4.719
 8347TIP3    H224985   5.345   6.004   4.791
 8348TIP3   OH224986   7.752   5.016   5.963
 8348TIP3    H124987   7.726   5.102   5.929
 8348TIP3    H224988   7.847   5.014   5.952
 8349TIP3   OH224989   7.687   7.525   4.696
 8349TIP3    H124990   7.747   7.500   4.766
 8349TIP3    H224991   7.680   7.447   4.641
 8350TIP3   OH224992   3.892   5.897   0.669
 8350TIP3    H124993   3.926   5.808   0.671
 8350TIP3    H224994   3.873   5.914   0.577
 8351TIP3   OH224995   4.740   5.987   6.580
 8351TIP3    H124996   4.772   6.016   6.494
 8351TIP3    H224997   4.728   5.892   6.571
 8352TIP3   OH224998   5.673   5.298   0.404
 8352TIP3    H124999   5.739   5.362   0.376
 8352TIP3    H225000   5.590   5.340   0.382
 8353TIP3   OH225001   7.946   5.028   6.331
 8353TIP3    H125002   8.018   5.090   6.342
 8353TIP3    H225003   7.987   4.948   6.301
 8354TIP3   OH225004   4.001   1.739   1.670
 8354TIP3    H125005   3.926   1.739   1.730
 8354TIP3    H225006   4.066   1.794   1.712
 8355TIP3   OH225007   6.815   3.705   4.307
 8355TIP3    H125008   6.783   3.795   4.317
 8355TIP3    H225009   6.806   3.687   4.213
 8356TIP3   OH225010   1.204   6.474   3.833
 8356TIP3    H125011   1.216   6.563   3.864
 8356TIP3    H225012   1.192   6.422   3.912
 8357TIP3   OH225013   5.442   7.086   0.581
 8357TIP3    H125014   5.439   7.026   0.656
 8357TIP3    H225015   5.385   7.045   0.516
 8358TIP3   OH225016   5.449   4.508   3.976
 8358TIP3    H125017   5.417   4.495   3.887
 8358TIP3    H225018   5.544   4.496   3.968
 8359TIP3   OH225019   7.066   0.558   1.655
 8359TIP3    H125020   7.047   0.639   1.608
 8359TIP3    H225021   7.004   0.494   1.619
 8360TIP3   OH225022   7.441   3.481   5.979
 8360TIP3    H125023   7.349   3.495   6.000
 8360TIP3    H225024   7.484   3.472   6.064
 8361TIP3   OH225025   1.880   3.389   6.039
 8361TIP3    H125026   1.827   3.357   5.967
 8361TIP3    H225027   1.969   3.392   6.004
 8362TIP3   OH225028   0.385   6.902   5.056
 8362TIP3    H125029   0.300   6.860   5.068
 8362TIP3    H225030   0.428   6.894   5.141
 8363TIP3   OH225031   7.898   5.577   3.928
 8363TIP3    H125032   7.897   5.484   3.951
 8363TIP3    H225033   7.862   5.622   4.004
 8364TIP3   OH225034   0.493   0.995   1.694
 8364TIP3    H125035   0.428   1.065   1.695
 8364TIP3    H225036   0.442   0.915   1.707
 8365TIP3   OH225037   7.551   3.002   3.003
 8365TIP3    H125038   7.503   3.070   2.956
 8365TIP3    H225039   7.587   3.046   3.080
 8366TIP3   OH225040   6.203   3.726   4.403
 8366TIP3    H125041   6.155   3.808   4.389
 8366TIP3    H225042   6.185   3.703   4.494
 8367TIP3   OH225043   3.376   5.408   4.860
 8367TIP3    H125044   3.431   5.414   4.782
 8367TIP3    H225045   3.399   5.324   4.899
 8368TIP3   OH225046   7.486   2.950   1.406
 8368TIP3    H125047   7.427   2.902   1.464
 8368TIP3    H225048   7.429   3.013   1.362
 8369TIP3   OH225049   3.047   1.692   0.570
 8369TIP3    H125050   3.042   1.622   0.505
 8369TIP3    H225051   2.994   1.763   0.533
 8370TIP3   OH225052   1.732   4.401   4.964
 8370TIP3    H125053   1.820   4.376   4.938
 8370TIP3    H225054   1.729   4.384   5.058
 8371TIP3   OH225055   6.430   2.920   4.409
 8371TIP3    H125056   6.494   2.955   4.347
 8371TIP3    H225057   6.399   2.996   4.457
 8372TIP3   OH225058   7.400   6.543   5.123
 8372TIP3    H125059   7.352   6.474   5.077
 8372TIP3    H225060   7.332   6.591   5.170
 8373TIP3   OH225061   3.415   3.493   5.431
 8373TIP3    H125062   3.329   3.488   5.472
 8373TIP3    H225063   3.453   3.406   5.445
 8374TIP3   OH225064   7.409   0.346   3.657
 8374TIP3    H125065   7.504   0.353   3.652
 8374TIP3    H225066   7.378   0.370   3.570
 8375TIP3   OH225067   4.319   3.012   3.219
 8375TIP3    H125068   4.315   2.938   3.280
 8375TIP3    H225069   4.376   3.075   3.262
 8376TIP3   OH225070   6.107   3.557   1.456
 8376TIP3    H125071   6.068   3.622   1.398
 8376TIP3    H225072   6.131   3.484   1.398
 8377TIP3   OH225073   6.543   0.271   5.324
 8377TIP3    H125074   6.503   0.201   5.376
 8377TIP3    H225075   6.609   0.310   5.382
 8378TIP3   OH225076   1.619   0.341   1.960
 8378TIP3    H125077   1.535   0.380   1.983
 8378TIP3    H225078   1.650   0.301   2.041
 8379TIP3   OH225079   2.394   7.090   1.962
 8379TIP3    H125080   2.362   7.178   1.946
 8379TIP3    H225081   2.485   7.091   1.931
 8380TIP3   OH225082   7.420  -0.007   5.651
 8380TIP3    H125083   7.348   0.005   5.589
 8380TIP3    H225084   7.498   0.018   5.601
 8381TIP3   OH225085   1.998   4.521   6.403
 8381TIP3    H125086   1.940   4.470   6.347
 8381TIP3    H225087   2.008   4.468   6.482
 8382TIP3   OH225088   8.069   1.412   4.687
 8382TIP3    H125089   7.976   1.404   4.708
 8382TIP3    H225090   8.086   1.506   4.688
 8383TIP3   OH225091   4.715   7.571   0.822
 8383TIP3    H125092   4.748   7.654   0.855
 8383TIP3    H225093   4.789   7.534   0.773
 8384TIP3   OH225094   6.804   0.855   4.809
 8384TIP3    H125095   6.796   0.877   4.902
 8384TIP3    H225096   6.844   0.933   4.769
 8385TIP3   OH225097   6.092   4.376   1.411
 8385TIP3    H125098   6.114   4.468   1.424
 8385TIP3    H225099   6.164   4.328   1.453
 8386TIP3   OH225100   4.900   2.553   4.194
 8386TIP3    H125101   4.806   2.569   4.193
 8386TIP3    H225102   4.933   2.609   4.264
 8387TIP3   OH225103   2.607   6.095   1.611
 8387TIP3    H125104   2.635   6.170   1.558
 8387TIP3    H225105   2.648   6.110   1.696
 8388TIP3   OH225106   2.162   2.427   3.770
 8388TIP3    H125107   2.243   2.379   3.756
 8388TIP3    H225108   2.161   2.493   3.700
 8389TIP3   OH225109   3.349   2.307   4.126
 8389TIP3    H125110   3.378   2.217   4.106
 8389TIP3    H225111   3.347   2.351   4.041
 8390TIP3   OH225112   6.946   5.081   0.934
 8390TIP3    H125113   6.932   5.093   0.840
 8390TIP3    H225114   6.934   5.168   0.971
 8391TIP3   OH225115   4.636   5.249   1.671
 8391TIP3    H125116   4.581   5.192   1.725
 8391TIP3    H225117   4.597   5.245   1.584
 8392TIP3   OH225118   3.400   3.192   2.022
 8392TIP3    H125119   3.438   3.235   1.945
 8392TIP3    H225120   3.352   3.118   1.986
 8393TIP3   OH225121   4.778   4.607   4.499
 8393TIP3    H125122   4.865   4.627   4.465
 8393TIP3    H225123   4.747   4.535   4.445
 8394TIP3   OH225124   4.907   3.824   2.065
 8394TIP3    H125125   4.875   3.903   2.108
 8394TIP3    H225126   4.932   3.766   2.137
 8395TIP3   OH225127   2.742   7.104   2.409
 8395TIP3    H125128   2.653   7.110   2.374
 8395TIP3    H225129   2.741   7.160   2.487
 8396TIP3   OH225130   4.949   7.309   0.283
 8396TIP3    H125131   4.963   7.404   0.282
 8396TIP3    H225132   5.033   7.272   0.308
 8397TIP3   OH225133   4.273   2.022   0.217
 8397TIP3    H125134   4.297   2.073   0.294
 8397TIP3    H225135   4.338   1.952   0.214
 8398TIP3   OH225136   2.555   0.496   4.297
 8398TIP3    H125137   2.528   0.587   4.311
 8398TIP3    H225138   2.489   0.462   4.236
 8399TIP3   OH225139   1.452   4.459   2.549
 8399TIP3    H125140   1.364   4.483   2.578
 8399TIP3    H225141   1.503   4.540   2.558
 8400TIP3   OH225142   0.759   6.549   2.097
 8400TIP3    H125143   0.763   6.471   2.042
 8400TIP3    H225144   0.842   6.595   2.079
 8401TIP3   OH225145   8.024   1.210   4.214
 8401TIP3    H125146   7.943   1.182   4.255
 8401TIP3    H225147   8.057   1.280   4.270
 8402TIP3   OH225148   7.501   6.883   2.114
 8402TIP3    H125149   7.547   6.800   2.126
 8402TIP3    H225150   7.552   6.947   2.164
 8403TIP3   OH225151   5.921   1.258   0.225
 8403TIP3    H125152   5.982   1.329   0.245
 8403TIP3    H225153   5.847   1.273   0.285
 8404TIP3   OH225154   5.651   2.414   2.876
 8404TIP3    H125155   5.718   2.352   2.904
 8404TIP3    H225156   5.701   2.486   2.836
 8405TIP3   OH225157   6.285   5.914   4.819
 8405TIP3    H125158   6.359   5.928   4.878
 8405TIP3    H225159   6.280   5.819   4.809
 8406TIP3   OH225160   4.144   4.410   6.413
 8406TIP3    H125161   4.225   4.454   6.438
 8406TIP3    H225162   4.096   4.400   6.496
 8407TIP3   OH225163   0.390   0.458   6.699
 8407TIP3    H125164   0.458   0.395   6.723
 8407TIP3    H225165   0.336   0.467   6.777
 8408TIP3   OH225166   3.768   7.418   3.984
 8408TIP3    H125167   3.766   7.347   3.920
 8408TIP3    H225168   3.861   7.431   4.002
 8409TIP3   OH225169   3.867   0.512   4.126
 8409TIP3    H125170   3.929   0.544   4.191
 8409TIP3    H225171   3.896   0.423   4.107
 8410TIP3   OH225172   6.401   0.094   2.717
 8410TIP3    H125173   6.317   0.113   2.675
 8410TIP3    H225174   6.462   0.082   2.644
 8411TIP3   OH225175   2.445   7.517   5.871
 8411TIP3    H125176   2.463   7.610   5.886
 8411TIP3    H225177   2.526   7.482   5.835
 8412TIP3   OH225178   7.960   4.232   6.498
 8412TIP3    H125179   7.963   4.295   6.570
 8412TIP3    H225180   7.930   4.283   6.423
 8413TIP3   OH225181   8.216   2.839   3.861
 8413TIP3    H125182   8.213   2.839   3.957
 8413TIP3    H225183   8.305   2.808   3.840
 8414TIP3   OH225184   2.984   7.533   0.822
 8414TIP3    H125185   3.000   7.477   0.746
 8414TIP3    H225186   3.061   7.590   0.827
 8415TIP3   OH225187   2.053   1.485   5.031
 8415TIP3    H125188   1.987   1.463   5.097
 8415TIP3    H225189   2.088   1.401   5.001
 8416TIP3   OH225190  -0.023   6.532   2.491
 8416TIP3    H125191  -0.009   6.626   2.495
 8416TIP3    H225192   0.035   6.502   2.420
 8417TIP3   OH225193   7.109   6.494   5.005
 8417TIP3    H125194   7.117   6.576   4.957
 8417TIP3    H225195   7.132   6.426   4.942
 8418TIP3   OH225196   6.722   7.416   3.002
 8418TIP3    H125197   6.680   7.335   2.972
 8418TIP3    H225198   6.665   7.486   2.969
 8419TIP3   OH225199   8.075   3.930   2.557
 8419TIP3    H125200   8.016   3.942   2.483
 8419TIP3    H225201   8.021   3.886   2.623
 8420TIP3   OH225202   6.793   6.694   5.943
 8420TIP3    H125203   6.872   6.679   5.995
 8420TIP3    H225204   6.751   6.769   5.985
 8421TIP3   OH225205   6.017   2.916   0.633
 8421TIP3    H125206   6.111   2.927   0.620
 8421TIP3    H225207   6.003   2.937   0.725
 8422TIP3   OH225208   6.313   0.998   2.523
 8422TIP3    H125209   6.388   0.975   2.579
 8422TIP3    H225210   6.331   0.953   2.440
 8423TIP3   OH225211   5.872   4.692   0.800
 8423TIP3    H125212   5.948   4.661   0.750
 8423TIP3    H225213   5.883   4.651   0.886
 8424TIP3   OH225214   5.081   3.251   6.236
 8424TIP3    H125215   5.043   3.338   6.226
 8424TIP3    H225216   5.037   3.197   6.170
 8425TIP3   OH225217   2.000   6.317   6.191
 8425TIP3    H125218   1.950   6.237   6.173
 8425TIP3    H225219   2.056   6.328   6.114
 8426TIP3   OH225220   0.248   6.510   2.892
 8426TIP3    H125221   0.312   6.578   2.871
 8426TIP3    H225222   0.202   6.494   2.809
 8427TIP3   OH225223   1.026   0.827   5.478
 8427TIP3    H125224   1.005   0.917   5.501
 8427TIP3    H225225   1.122   0.824   5.478
 8428TIP3   OH225226   7.689   3.884   6.734
 8428TIP3    H125227   7.623   3.933   6.685
 8428TIP3    H225228   7.759   3.947   6.750
 8429TIP3   OH225229   7.978   4.236   4.919
 8429TIP3    H125230   7.970   4.305   4.985
 8429TIP3    H225231   8.072   4.228   4.904
 8430TIP3   OH225232   1.637   5.777   1.250
 8430TIP3    H125233   1.725   5.741   1.253
 8430TIP3    H225234   1.641   5.854   1.307
 8431TIP3   OH225235   0.165   2.210   3.574
 8431TIP3    H125236   0.167   2.300   3.607
 8431TIP3    H225237   0.131   2.218   3.485
 8432TIP3   OH225238   8.057   3.897   0.407
 8432TIP3    H125239   8.104   3.976   0.431
 8432TIP3    H225240   7.971   3.906   0.449
 8433TIP3   OH225241   1.659   5.403   6.211
 8433TIP3    H125242   1.754   5.391   6.218
 8433TIP3    H225243   1.622   5.335   6.267
 8434TIP3   OH225244   5.581   0.804   5.547
 8434TIP3    H125245   5.498   0.796   5.594
 8434TIP3    H225246   5.565   0.874   5.483
 8435TIP3   OH225247   4.688   5.662   2.854
 8435TIP3    H125248   4.709   5.726   2.786
 8435TIP3    H225249   4.636   5.595   2.809
 8436TIP3   OH225250   2.698   5.142   1.521
 8436TIP3    H125251   2.681   5.163   1.429
 8436TIP3    H225252   2.772   5.081   1.518
 8437TIP3   OH225253   0.438   2.619   6.419
 8437TIP3    H125254   0.476   2.579   6.497
 8437TIP3    H225255   0.513   2.639   6.363
 8438TIP3   OH225256   8.141   7.152   2.120
 8438TIP3    H125257   8.219   7.146   2.065
 8438TIP3    H225258   8.069   7.163   2.057
 8439TIP3   OH225259   2.327   2.221   1.685
 8439TIP3    H125260   2.259   2.219   1.618
 8439TIP3    H225261   2.377   2.300   1.665
 8440TIP3   OH225262   5.804   4.646   2.851
 8440TIP3    H125263   5.815   4.738   2.828
 8440TIP3    H225264   5.893   4.612   2.857
 8441TIP3   OH225265   2.252   3.907   6.323
 8441TIP3    H125266   2.175   3.934   6.373
 8441TIP3    H225267   2.262   3.974   6.255
 8442TIP3   OH225268   7.498   3.503   0.274
 8442TIP3    H125269   7.453   3.502   0.358
 8442TIP3    H225270   7.580   3.550   0.291
 8443TIP3   OH225271   1.555   4.940   0.256
 8443TIP3    H125272   1.490   4.993   0.210
 8443TIP3    H225273   1.521   4.931   0.345
 8444TIP3   OH225274   4.283   3.063   1.092
 8444TIP3    H125275   4.346   3.049   1.163
 8444TIP3    H225276   4.222   2.990   1.099
 8445TIP3   OH225277   7.777   0.749   6.076
 8445TIP3    H125278   7.718   0.801   6.130
 8445TIP3    H225279   7.808   0.810   6.009
 8446TIP3   OH225280   5.960   6.900   6.225
 8446TIP3    H125281   5.899   6.948   6.169
 8446TIP3    H225282   5.914   6.818   6.245
 8447TIP3   OH225283   8.075   4.989   3.508
 8447TIP3    H125284   8.126   5.032   3.440
 8447TIP3    H225285   8.023   4.923   3.461
 8448TIP3   OH225286   7.914   0.035   0.373
 8448TIP3    H125287   7.919  -0.011   0.457
 8448TIP3    H225288   7.942   0.124   0.393
 8449TIP3   OH225289   3.393   5.556   1.146
 8449TIP3    H125290   3.349   5.476   1.174
 8449TIP3    H225291   3.326   5.604   1.097
 8450TIP3   OH225292   7.629   5.071   1.989
 8450TIP3    H125293   7.644   5.165   1.985
 8450TIP3    H225294   7.610   5.045   1.899
 8451TIP3   OH225295   3.900   6.537   2.746
 8451TIP3    H125296   3.896   6.587   2.828
 8451TIP3    H225297   3.810   6.535   2.714
 8452TIP3   OH225298   4.706   5.376   5.116
 8452TIP3    H125299   4.760   5.324   5.176
 8452TIP3    H225300   4.708   5.328   5.033
 8453TIP3   OH225301   3.417   5.687   0.778
 8453TIP3    H125302   3.494   5.710   0.727
 8453TIP3    H225303   3.343   5.719   0.726
 8454TIP3   OH225304   7.386   5.598   5.838
 8454TIP3    H125305   7.336   5.664   5.886
 8454TIP3    H225306   7.474   5.635   5.832
 8455TIP3   OH225307   2.487   1.647   6.213
 8455TIP3    H125308   2.566   1.669   6.164
 8455TIP3    H225309   2.482   1.714   6.282
 8456TIP3   OH225310   1.393   0.659   0.602
 8456TIP3    H125311   1.485   0.654   0.575
 8456TIP3    H225312   1.358   0.735   0.555
 8457TIP3   OH225313   1.947   0.734   1.340
 8457TIP3    H125314   1.853   0.733   1.327
 8457TIP3    H225315   1.980   0.794   1.274
 8458TIP3   OH225316   0.068   6.791   2.436
 8458TIP3    H125317   0.000   6.857   2.451
 8458TIP3    H225318   0.119   6.826   2.362
 8459TIP3   OH225319   2.463   6.872   0.332
 8459TIP3    H125320   2.413   6.910   0.260
 8459TIP3    H225321   2.403   6.812   0.375
 8460TIP3   OH225322   0.973   6.665   3.423
 8460TIP3    H125323   0.956   6.606   3.349
 8460TIP3    H225324   1.006   6.607   3.491
 8461TIP3   OH225325   5.373   2.938   2.686
 8461TIP3    H125326   5.376   3.000   2.759
 8461TIP3    H225327   5.387   2.852   2.726
 8462TIP3   OH225328   3.381   3.940   6.527
 8462TIP3    H125329   3.418   3.935   6.615
 8462TIP3    H225330   3.290   3.964   6.540
 8463TIP3   OH225331   1.360   2.450   3.835
 8463TIP3    H125332   1.433   2.407   3.790
 8463TIP3    H225333   1.400   2.490   3.913
 8464TIP3   OH225334   1.503   6.295   1.393
 8464TIP3    H125335   1.590   6.333   1.405
 8464TIP3    H225336   1.478   6.321   1.304
 8465TIP3   OH225337   7.388   1.373   5.009
 8465TIP3    H125338   7.401   1.279   5.012
 8465TIP3    H225339   7.341   1.389   4.928
 8466TIP3   OH225340   5.164   7.314   4.961
 8466TIP3    H125341   5.075   7.347   4.961
 8466TIP3    H225342   5.169   7.258   5.039
 8467TIP3   OH225343   0.479   5.959   4.087
 8467TIP3    H125344   0.563   5.914   4.088
 8467TIP3    H225345   0.501   6.052   4.091
 8468TIP3   OH225346   4.547   4.586   0.387
 8468TIP3    H125347   4.504   4.519   0.441
 8468TIP3    H225348   4.639   4.582   0.412
 8469TIP3   OH225349   7.280   2.423   1.657
 8469TIP3    H125350   7.194   2.406   1.694
 8469TIP3    H225351   7.307   2.506   1.697
 8470TIP3   OH225352   7.288   7.689   3.908
 8470TIP3    H125353   7.206   7.644   3.889
 8470TIP3    H225354   7.262   7.778   3.933
 8471TIP3   OH225355   1.194   7.331   4.267
 8471TIP3    H125356   1.164   7.243   4.245
 8471TIP3    H225357   1.289   7.326   4.267
 8472TIP3   OH225358   7.036   5.231   5.210
 8472TIP3    H125359   7.007   5.187   5.131
 8472TIP3    H225360   6.982   5.195   5.280
 8473TIP3   OH225361   3.574   1.845   3.511
 8473TIP3    H125362   3.560   1.759   3.473
 8473TIP3    H225363   3.647   1.833   3.571
 8474TIP3   OH225364   6.852   0.532   6.733
 8474TIP3    H125365   6.830   0.540   6.640
 8474TIP3    H225366   6.784   0.475   6.770
 8475TIP3   OH225367   4.980   5.004   3.456
 8475TIP3    H125368   5.008   5.085   3.499
 8475TIP3    H225369   4.894   4.985   3.493
 8476TIP3   OH225370   3.154   0.198   6.322
 8476TIP3    H125371   3.228   0.148   6.287
 8476TIP3    H225372   3.105   0.226   6.245
 8477TIP3   OH225373   0.876   0.968   2.441
 8477TIP3    H125374   0.841   1.051   2.409
 8477TIP3    H225375   0.928   0.992   2.518
 8478TIP3   OH225376   8.026   7.013   3.581
 8478TIP3    H125377   8.015   6.952   3.653
 8478TIP3    H225378   7.960   7.081   3.597
 8479TIP3   OH225379   1.276   0.244   0.975
 8479TIP3    H125380   1.193   0.207   1.004
 8479TIP3    H225381   1.254   0.293   0.896
 8480TIP3   OH225382   5.790   0.269   4.419
 8480TIP3    H125383   5.849   0.209   4.465
 8480TIP3    H225384   5.846   0.341   4.390
 8481TIP3   OH225385   3.930   7.139   2.988
 8481TIP3    H125386   4.015   7.175   3.012
 8481TIP3    H225387   3.871   7.168   3.057
 8482TIP3   OH225388   4.098   6.663   4.662
 8482TIP3    H125389   4.071   6.596   4.725
 8482TIP3    H225390   4.181   6.696   4.696
 8483TIP3   OH225391   7.543   6.979   4.482
 8483TIP3    H125392   7.600   7.036   4.431
 8483TIP3    H225393   7.585   6.894   4.480
 8484TIP3   OH225394   5.875   6.093   3.554
 8484TIP3    H125395   5.848   6.179   3.522
 8484TIP3    H225396   5.864   6.099   3.649
 8485TIP3   OH225397   0.921   3.045   1.669
 8485TIP3    H125398   0.978   3.043   1.746
 8485TIP3    H225399   0.980   3.064   1.596
 8486TIP3   OH225400   2.483   1.828   5.106
 8486TIP3    H125401   2.487   1.733   5.092
 8486TIP3    H225402   2.478   1.838   5.201
 8487TIP3   OH225403   7.457   6.972   6.085
 8487TIP3    H125404   7.361   6.965   6.090
 8487TIP3    H225405   7.488   6.915   6.156
 8488TIP3   OH225406   7.173   6.518   0.679
 8488TIP3    H125407   7.158   6.601   0.635
 8488TIP3    H225408   7.171   6.453   0.609
 8489TIP3   OH225409   2.547   7.078   4.309
 8489TIP3    H125410   2.591   7.028   4.377
 8489TIP3    H225411   2.618   7.109   4.253
 8490TIP3   OH225412   0.304   7.424   1.887
 8490TIP3    H125413   0.317   7.492   1.953
 8490TIP3    H225414   0.209   7.421   1.874
 8491TIP3   OH225415   0.160   0.929   1.342
 8491TIP3    H125416   0.210   0.860   1.385
 8491TIP3    H225417   0.086   0.946   1.400
 8492TIP3   OH225418   4.811   5.934   5.963
 8492TIP3    H125419   4.842   5.844   5.959
 8492TIP3    H225420   4.754   5.943   5.886
 8493TIP3   OH225421   7.260   5.801   6.609
 8493TIP3    H125422   7.187   5.745   6.634
 8493TIP3    H225423   7.259   5.871   6.675
 8494TIP3   OH225424   6.699   1.283   1.769
 8494TIP3    H125425   6.654   1.358   1.810
 8494TIP3    H225426   6.757   1.322   1.705
 8495TIP3   OH225427   3.452   0.264   3.121
 8495TIP3    H125428   3.443   0.283   3.215
 8495TIP3    H225429   3.518   0.326   3.090
 8496TIP3   OH225430   3.826   1.080   2.392
 8496TIP3    H125431   3.747   1.051   2.348
 8496TIP3    H225432   3.834   1.173   2.370
 8497TIP3   OH225433   7.613   3.213   3.669
 8497TIP3    H125434   7.632   3.134   3.618
 8497TIP3    H225435   7.530   3.194   3.713
 8498TIP3   OH225436   2.150   3.167   3.800
 8498TIP3    H125437   2.129   3.104   3.731
 8498TIP3    H225438   2.195   3.238   3.755
 8499TIP3   OH225439   3.173   5.389   4.702
 8499TIP3    H125440   3.268   5.384   4.713
 8499TIP3    H225441   3.148   5.467   4.751
 8500TIP3   OH225442   7.562   4.082   2.647
 8500TIP3    H125443   7.527   4.160   2.691
 8500TIP3    H225444   7.504   4.011   2.674
 8501TIP3   OH225445   5.201   3.238   2.122
 8501TIP3    H125446   5.263   3.296   2.078
 8501TIP3    H225447   5.256   3.171   2.163
 8502TIP3   OH225448   1.637   1.344   3.836
 8502TIP3    H125449   1.553   1.371   3.875
 8502TIP3    H225450   1.644   1.396   3.756
 8503TIP3   OH225451   0.780   7.694   3.899
 8503TIP3    H125452   0.723   7.626   3.862
 8503TIP3    H225453   0.721   7.767   3.918
 8504TIP3   OH225454   1.767   0.744   1.549
 8504TIP3    H125455   1.832   0.675   1.538
 8504TIP3    H225456   1.710   0.736   1.472
 8505TIP3   OH225457   6.726   2.114   3.590
 8505TIP3    H125458   6.761   2.060   3.519
 8505TIP3    H225459   6.774   2.085   3.668
 8506TIP3   OH225460   6.744   6.901   4.427
 8506TIP3    H125461   6.685   6.829   4.403
 8506TIP3    H225462   6.790   6.921   4.345
 8507TIP3   OH225463   3.306   0.850   3.519
 8507TIP3    H125464   3.248   0.902   3.464
 8507TIP3    H225465   3.362   0.914   3.563
 8508TIP3   OH225466   2.140   0.708   0.143
 8508TIP3    H125467   2.128   0.711   0.238
 8508TIP3    H225468   2.228   0.742   0.128
 8509TIP3   OH225469   4.150   6.453   2.316
 8509TIP3    H125470   4.118   6.370   2.280
 8509TIP3    H225471   4.088   6.474   2.385
 8510TIP3   OH225472   0.708   6.613   5.679
 8510TIP3    H125473   0.723   6.642   5.769
 8510TIP3    H225474   0.794   6.612   5.638
 8511TIP3   OH225475   2.267   0.213   2.101
 8511TIP3    H125476   2.283   0.125   2.069
 8511TIP3    H225477   2.176   0.231   2.078
 8512TIP3   OH225478   4.081   6.893   1.674
 8512TIP3    H125479   4.070   6.802   1.644
 8512TIP3    H225480   4.108   6.941   1.596
 8513TIP3   OH225481   4.210   4.816   0.223
 8513TIP3    H125482   4.260   4.896   0.240
 8513TIP3    H225483   4.276   4.752   0.195
 8514TIP3   OH225484   1.578   0.675   3.800
 8514TIP3    H125485   1.585   0.753   3.855
 8514TIP3    H225486   1.485   0.670   3.777
 8515TIP3   OH225487   2.163   5.406   0.750
 8515TIP3    H125488   2.124   5.492   0.733
 8515TIP3    H225489   2.109   5.345   0.701
 8516TIP3   OH225490   0.342   5.848   1.280
 8516TIP3    H125491   0.405   5.779   1.261
 8516TIP3    H225492   0.276   5.841   1.211
 8517TIP3   OH225493   6.008   1.516   2.640
 8517TIP3    H125494   5.915   1.528   2.620
 8517TIP3    H225495   6.009   1.477   2.727
 8518TIP3   OH225496   0.368   3.466   5.049
 8518TIP3    H125497   0.347   3.376   5.071
 8518TIP3    H225498   0.351   3.473   4.955
 8519TIP3   OH225499   2.965   6.247   1.588
 8519TIP3    H125500   2.944   6.258   1.496
 8519TIP3    H225501   3.026   6.319   1.607
 8520TIP3   OH225502   0.896   6.516   5.415
 8520TIP3    H125503   0.973   6.498   5.361
 8520TIP3    H225504   0.856   6.431   5.429
 8521TIP3   OH225505   5.607   4.092   0.821
 8521TIP3    H125506   5.697   4.081   0.790
 8521TIP3    H225507   5.614   4.155   0.892
 8522TIP3   OH225508   4.961   0.392   3.774
 8522TIP3    H125509   4.973   0.467   3.832
 8522TIP3    H225510   5.016   0.411   3.698
 8523TIP3   OH225511   7.209   0.252   6.344
 8523TIP3    H125512   7.182   0.168   6.381
 8523TIP3    H225513   7.305   0.247   6.340
 8524TIP3   OH225514   0.765   7.516   0.492
 8524TIP3    H125515   0.798   7.475   0.572
 8524TIP3    H225516   0.676   7.543   0.515
 8525TIP3   OH225517   2.499   1.687   4.652
 8525TIP3    H125518   2.530   1.632   4.581
 8525TIP3    H225519   2.499   1.630   4.729
 8526TIP3   OH225520   2.249   5.999   5.743
 8526TIP3    H125521   2.246   5.910   5.709
 8526TIP3    H225522   2.177   6.045   5.698
 8527TIP3   OH225523   8.028   5.288   0.865
 8527TIP3    H125524   7.946   5.240   0.875
 8527TIP3    H225525   8.009   5.354   0.799
 8528TIP3   OH225526   3.765   4.557   2.083
 8528TIP3    H125527   3.833   4.599   2.031
 8528TIP3    H225528   3.768   4.465   2.057
 8529TIP3   OH225529   6.984   1.222   3.880
 8529TIP3    H125530   7.050   1.285   3.910
 8529TIP3    H225531   6.998   1.145   3.934
 8530TIP3   OH225532   1.191   4.499   2.663
 8530TIP3    H125533   1.205   4.497   2.757
 8530TIP3    H225534   1.096   4.490   2.652
 8531TIP3   OH225535   5.780   0.336   0.819
 8531TIP3    H125536   5.783   0.342   0.723
 8531TIP3    H225537   5.689   0.355   0.841
 8532TIP3   OH225538   2.605   5.660   6.183
 8532TIP3    H125539   2.635   5.587   6.129
 8532TIP3    H225540   2.542   5.707   6.128
 8533TIP3   OH225541   1.696   6.706   3.886
 8533TIP3    H125542   1.768   6.741   3.834
 8533TIP3    H225543   1.718   6.731   3.976
 8534TIP3   OH225544   0.539   7.279   1.931
 8534TIP3    H125545   0.446   7.301   1.931
 8534TIP3    H225546   0.581   7.349   1.882
 8535TIP3   OH225547   2.318   5.270   2.311
 8535TIP3    H125548   2.281   5.202   2.368
 8535TIP3    H225549   2.328   5.346   2.368
 8536TIP3   OH225550   0.849   6.113   4.771
 8536TIP3    H125551   0.825   6.021   4.788
 8536TIP3    H225552   0.928   6.127   4.822
 8537TIP3   OH225553   4.714   4.834   1.315
 8537TIP3    H125554   4.684   4.769   1.251
 8537TIP3    H225555   4.764   4.784   1.379
 8538TIP3   OH225556   0.758   6.532   1.025
 8538TIP3    H125557   0.775   6.469   1.095
 8538TIP3    H225558   0.844   6.547   0.984
 8539TIP3   OH225559   0.787   7.192   3.372
 8539TIP3    H125560   0.852   7.171   3.439
 8539TIP3    H225561   0.704   7.194   3.419
 8540TIP3   OH225562   1.414   3.525   5.204
 8540TIP3    H125563   1.326   3.519   5.168
 8540TIP3    H225564   1.471   3.515   5.127
 8541TIP3   OH225565   5.542   7.154   5.225
 8541TIP3    H125566   5.514   7.137   5.135
 8541TIP3    H225567   5.574   7.244   5.223
 8542TIP3   OH225568   7.364   2.661   3.537
 8542TIP3    H125569   7.445   2.611   3.549
 8542TIP3    H225570   7.325   2.625   3.457
 8543TIP3   OH225571   4.217   6.614   4.130
 8543TIP3    H125572   4.279   6.686   4.124
 8543TIP3    H225573   4.147   6.636   4.069
 8544TIP3   OH225574   6.501   1.834   3.384
 8544TIP3    H125575   6.526   1.746   3.414
 8544TIP3    H225576   6.467   1.877   3.463
 8545TIP3   OH225577   2.092   2.821   3.721
 8545TIP3    H125578   2.185   2.808   3.703
 8545TIP3    H225579   2.052   2.736   3.706
 8546TIP3   OH225580   1.888   1.635   3.134
 8546TIP3    H125581   1.828   1.675   3.198
 8546TIP3    H225582   1.835   1.568   3.091
 8547TIP3   OH225583   2.102   4.464   3.739
 8547TIP3    H125584   2.098   4.433   3.830
 8547TIP3    H225585   2.178   4.419   3.702
 8548TIP3   OH225586   5.226   6.836   4.267
 8548TIP3    H125587   5.259   6.900   4.329
 8548TIP3    H225588   5.203   6.887   4.189
 8549TIP3   OH225589   5.734   2.768   4.342
 8549TIP3    H125590   5.819   2.804   4.316
 8549TIP3    H225591   5.729   2.685   4.295
 8550TIP3   OH225592   6.934   5.684   0.108
 8550TIP3    H125593   6.907   5.671   0.017
 8550TIP3    H225594   7.007   5.624   0.121
 8551TIP3   OH225595   1.972   0.966   2.859
 8551TIP3    H125596   1.899   0.965   2.921
 8551TIP3    H225597   2.031   1.033   2.893
 8552TIP3   OH225598   8.148   2.433   2.345
 8552TIP3    H125599   8.191   2.483   2.414
 8552TIP3    H225600   8.157   2.342   2.373
 8553TIP3   OH225601   4.431   2.963   2.321
 8553TIP3    H125602   4.376   2.997   2.251
 8553TIP3    H225603   4.440   2.870   2.302
 8554TIP3   OH225604   1.064   2.486   6.394
 8554TIP3    H125605   1.085   2.444   6.311
 8554TIP3    H225606   0.975   2.519   6.382
 8555TIP3   OH225607   4.295   0.054   3.083
 8555TIP3    H125608   4.325  -0.028   3.121
 8555TIP3    H225609   4.207   0.036   3.051
 8556TIP3   OH225610   6.700   7.226   2.096
 8556TIP3    H125611   6.609   7.238   2.120
 8556TIP3    H225612   6.745   7.208   2.179
 8557TIP3   OH225613   5.033   4.225   4.916
 8557TIP3    H125614   5.020   4.307   4.868
 8557TIP3    H225615   5.127   4.210   4.911
 8558TIP3   OH225616   0.486   2.132   4.639
 8558TIP3    H125617   0.464   2.175   4.556
 8558TIP3    H225618   0.575   2.100   4.626
 8559TIP3   OH225619   6.659   6.504   0.877
 8559TIP3    H125620   6.655   6.574   0.942
 8559TIP3    H225621   6.592   6.442   0.906
 8560TIP3   OH225622   0.089   3.984   3.239
 8560TIP3    H125623   0.134   4.064   3.210
 8560TIP3    H225624   0.006   3.985   3.191
 8561TIP3   OH225625   5.109   7.376   5.675
 8561TIP3    H125626   5.105   7.433   5.599
 8561TIP3    H225627   5.190   7.327   5.664
 8562TIP3   OH225628   1.155   7.182   1.463
 8562TIP3    H125629   1.096   7.212   1.394
 8562TIP3    H225630   1.240   7.219   1.439
 8563TIP3   OH225631   7.846   4.793   3.430
 8563TIP3    H125632   7.776   4.854   3.453
 8563TIP3    H225633   7.800   4.710   3.416
 8564TIP3   OH225634   7.409   5.927   5.089
 8564TIP3    H125635   7.362   5.904   5.169
 8564TIP3    H225636   7.371   5.870   5.022
 8565TIP3   OH225637   3.992   6.174   1.621
 8565TIP3    H125638   4.017   6.087   1.650
 8565TIP3    H225639   3.898   6.167   1.603
 8566TIP3   OH225640   0.470   1.832   6.436
 8566TIP3    H125641   0.421   1.783   6.370
 8566TIP3    H225642   0.410   1.839   6.510
 8567TIP3   OH225643   7.488   5.731   4.868
 8567TIP3    H125644   7.483   5.659   4.930
 8567TIP3    H225645   7.503   5.689   4.783
 8568TIP3   OH225646   0.903   1.712   5.206
 8568TIP3    H125647   0.972   1.729   5.142
 8568TIP3    H225648   0.871   1.799   5.230
 8569TIP3   OH225649   3.985   5.824   3.355
 8569TIP3    H125650   4.032   5.876   3.420
 8569TIP3    H225651   3.893   5.843   3.372
 8570TIP3   OH225652   2.800   1.680   4.356
 8570TIP3    H125653   2.725   1.630   4.324
 8570TIP3    H225654   2.825   1.736   4.283
 8571TIP3   OH225655   1.555   6.805   2.403
 8571TIP3    H125656   1.608   6.726   2.396
 8571TIP3    H225657   1.484   6.792   2.341
 8572TIP3   OH225658   4.547   5.089   6.691
 8572TIP3    H125659   4.558   5.098   6.596
 8572TIP3    H225660   4.467   5.038   6.701
 8573TIP3   OH225661   8.058   1.777   5.744
 8573TIP3    H125662   8.056   1.823   5.827
 8573TIP3    H225663   8.143   1.732   5.743
 8574TIP3   OH225664   1.832   2.337   4.159
 8574TIP3    H125665   1.762   2.272   4.146
 8574TIP3    H225666   1.817   2.402   4.091
 8575TIP3   OH225667   6.774   4.567   1.473
 8575TIP3    H125668   6.800   4.496   1.531
 8575TIP3    H225669   6.692   4.600   1.511
 8576TIP3   OH225670   3.984   6.225   3.787
 8576TIP3    H125671   3.932   6.204   3.710
 8576TIP3    H225672   3.962   6.158   3.851
 8577TIP3   OH225673   2.601   6.380   3.581
 8577TIP3    H125674   2.651   6.339   3.511
 8577TIP3    H225675   2.511   6.351   3.568
 8578TIP3   OH225676   6.314   7.090   3.453
 8578TIP3    H125677   6.237   7.116   3.403
 8578TIP3    H225678   6.342   7.007   3.413
 8579TIP3   OH225679   5.184   4.858   1.989
 8579TIP3    H125680   5.150   4.939   1.952
 8579TIP3    H225681   5.138   4.848   2.072
 8580TIP3   OH225682   1.380   6.533   6.417
 8580TIP3    H125683   1.314   6.464   6.425
 8580TIP3    H225684   1.372   6.584   6.498
 8581TIP3   OH225685   6.030   6.988   2.279
 8581TIP3    H125686   6.037   7.078   2.248
 8581TIP3    H225687   5.937   6.977   2.299
 8582TIP3   OH225688   0.019   3.942   4.177
 8582TIP3    H125689   0.034   4.007   4.245
 8582TIP3    H225690  -0.040   3.984   4.115
 8583TIP3   OH225691   4.859   1.272   0.020
 8583TIP3    H125692   4.841   1.213   0.093
 8583TIP3    H225693   4.943   1.243  -0.014
 8584TIP3   OH225694   2.560   3.704   2.557
 8584TIP3    H125695   2.476   3.697   2.512
 8584TIP3    H225696   2.620   3.739   2.492
 8585TIP3   OH225697   2.293   2.711   5.126
 8585TIP3    H125698   2.280   2.735   5.034
 8585TIP3    H225699   2.272   2.790   5.175
 8586TIP3   OH225700   8.120   6.343   4.705
 8586TIP3    H125701   8.186   6.277   4.683
 8586TIP3    H225702   8.132   6.412   4.640
 8587TIP3   OH225703   1.680   1.139   3.674
 8587TIP3    H125704   1.664   1.198   3.748
 8587TIP3    H225705   1.630   1.177   3.602
 8588TIP3   OH225706   4.142   0.080   3.883
 8588TIP3    H125707   4.227   0.076   3.927
 8588TIP3    H225708   4.121  -0.011   3.863
 8589TIP3   OH225709   5.548   4.204   1.795
 8589TIP3    H125710   5.595   4.280   1.831
 8589TIP3    H225711   5.543   4.142   1.868
 8590TIP3   OH225712   1.312   6.304   1.573
 8590TIP3    H125713   1.383   6.278   1.632
 8590TIP3    H225714   1.353   6.304   1.486
 8591TIP3   OH225715   0.144   7.803   1.215
 8591TIP3    H125716   0.121   7.813   1.123
 8591TIP3    H225717   0.088   7.732   1.246
 8592TIP3   OH225718   0.797   4.363   1.357
 8592TIP3    H125719   0.766   4.326   1.440
 8592TIP3    H225720   0.749   4.446   1.348
 8593TIP3   OH225721   4.832   3.032   1.598
 8593TIP3    H125722   4.853   3.118   1.633
 8593TIP3    H225723   4.851   3.039   1.504
 8594TIP3   OH225724   0.468   3.005   2.821
 8594TIP3    H125725   0.431   3.065   2.757
 8594TIP3    H225726   0.549   2.974   2.781
 8595TIP3   OH225727   7.615   1.293   0.075
 8595TIP3    H125728   7.550   1.284   0.005
 8595TIP3    H225729   7.693   1.250   0.041
 8596TIP3   OH225730   6.290   6.060   5.118
 8596TIP3    H125731   6.252   6.030   5.201
 8596TIP3    H225732   6.297   6.155   5.128
 8597TIP3   OH225733   5.328   1.011   1.577
 8597TIP3    H125734   5.235   0.991   1.575
 8597TIP3    H225735   5.336   1.087   1.635
 8598TIP3   OH225736   1.362   3.478   1.504
 8598TIP3    H125737   1.383   3.476   1.597
 8598TIP3    H225738   1.419   3.546   1.468
 8599TIP3   OH225739   7.486   1.743   1.830
 8599TIP3    H125740   7.469   1.799   1.755
 8599TIP3    H225741   7.435   1.783   1.901
 8600TIP3   OH225742   2.410   7.466   5.479
 8600TIP3    H125743   2.442   7.549   5.514
 8600TIP3    H225744   2.315   7.473   5.483
 8601TIP3   OH225745   1.751   5.580   5.102
 8601TIP3    H125746   1.773   5.624   5.184
 8601TIP3    H225747   1.835   5.554   5.065
 8602TIP3   OH225748   4.098   0.881   2.391
 8602TIP3    H125749   4.047   0.951   2.431
 8602TIP3    H225750   4.060   0.870   2.304
 8603TIP3   OH225751   1.903   1.311   2.173
 8603TIP3    H125752   1.954   1.230   2.179
 8603TIP3    H225753   1.934   1.364   2.247
 8604TIP3   OH225754   1.818   2.822   4.270
 8604TIP3    H125755   1.841   2.729   4.269
 8604TIP3    H225756   1.900   2.866   4.296
 8605TIP3   OH225757   0.175   2.437   3.236
 8605TIP3    H125758   0.120   2.431   3.159
 8605TIP3    H225759   0.225   2.518   3.224
 8606TIP3   OH225760   1.071   1.284   5.369
 8606TIP3    H125761   0.983   1.308   5.397
 8606TIP3    H225762   1.119   1.269   5.451
 8607TIP3   OH225763   3.813   2.263   1.908
 8607TIP3    H125764   3.754   2.337   1.921
 8607TIP3    H225765   3.755   2.188   1.893
 8608TIP3   OH225766   4.547   0.963   5.252
 8608TIP3    H125767   4.604   0.975   5.328
 8608TIP3    H225768   4.464   1.003   5.278
 8609TIP3   OH225769   3.049   0.948   4.916
 8609TIP3    H125770   3.073   1.040   4.931
 8609TIP3    H225771   3.123   0.911   4.868
 8610TIP3   OH225772   4.937   1.345   6.630
 8610TIP3    H125773   5.025   1.380   6.623
 8610TIP3    H225774   4.929   1.285   6.557
 8611TIP3   OH225775   3.248   2.966   4.900
 8611TIP3    H125776   3.208   3.026   4.963
 8611TIP3    H225777   3.194   2.975   4.822
 8612TIP3   OH225778   0.793   6.299   3.542
 8612TIP3    H125779   0.846   6.289   3.621
 8612TIP3    H225780   0.853   6.281   3.470
 8613TIP3   OH225781   7.809   1.523   1.180
 8613TIP3    H125782   7.773   1.548   1.095
 8613TIP3    H225783   7.815   1.427   1.176
 8614TIP3   OH225784   0.144   4.310   1.824
 8614TIP3    H125785   0.060   4.356   1.823
 8614TIP3    H225786   0.160   4.287   1.732
 8615TIP3   OH225787   4.166   7.211   1.984
 8615TIP3    H125788   4.087   7.167   1.953
 8615TIP3    H225789   4.232   7.193   1.918
 8616TIP3   OH225790   6.948   7.003   3.909
 8616TIP3    H125791   6.984   6.943   3.843
 8616TIP3    H225792   7.002   7.081   3.901
 8617TIP3   OH225793   5.739   5.878   5.424
 8617TIP3    H125794   5.732   5.971   5.404
 8617TIP3    H225795   5.833   5.858   5.415
 8618TIP3   OH225796   6.234   6.317   2.100
 8618TIP3    H125797   6.208   6.226   2.116
 8618TIP3    H225798   6.151   6.365   2.094
 8619TIP3   OH225799   1.426   4.401   2.279
 8619TIP3    H125800   1.427   4.402   2.375
 8619TIP3    H225801   1.335   4.382   2.256
 8620TIP3   OH225802   4.099   6.227   2.145
 8620TIP3    H125803   4.154   6.151   2.159
 8620TIP3    H225804   4.098   6.240   2.050
 8621TIP3   OH225805   5.153   0.511   2.036
 8621TIP3    H125806   5.187   0.584   1.984
 8621TIP3    H225807   5.074   0.483   1.990
 8622TIP3   OH225808   1.682   1.435   4.202
 8622TIP3    H125809   1.627   1.505   4.165
 8622TIP3    H225810   1.751   1.481   4.249
 8623TIP3   OH225811   6.553   0.036   3.778
 8623TIP3    H125812   6.497   0.107   3.747
 8623TIP3    H225813   6.515  -0.043   3.740
 8624TIP3   OH225814   2.150   2.877   4.619
 8624TIP3    H125815   2.104   2.961   4.615
 8624TIP3    H225816   2.190   2.876   4.706
 8625TIP3   OH225817   8.207   3.807   1.799
 8625TIP3    H125818   8.226   3.777   1.888
 8625TIP3    H225819   8.190   3.727   1.750
 8626TIP3   OH225820   3.049   1.617   1.230
 8626TIP3    H125821   3.001   1.566   1.166
 8626TIP3    H225822   2.987   1.686   1.256
 8627TIP3   OH225823   5.692   3.044   3.567
 8627TIP3    H125824   5.776   3.062   3.609
 8627TIP3    H225825   5.646   2.986   3.628
 8628TIP3   OH225826   7.351   3.198   0.465
 8628TIP3    H125827   7.322   3.119   0.421
 8628TIP3    H225828   7.279   3.260   0.453
 8629TIP3   OH225829   7.825   0.337   5.391
 8629TIP3    H125830   7.769   0.404   5.430
 8629TIP3    H225831   7.815   0.350   5.296
 8630TIP3   OH225832   8.095   3.239   5.105
 8630TIP3    H125833   8.125   3.290   5.180
 8630TIP3    H225834   8.168   3.240   5.043
 8631TIP3   OH225835   5.193   0.210   6.685
 8631TIP3    H125836   5.221   0.125   6.649
 8631TIP3    H225837   5.127   0.241   6.623
 8632TIP3   OH225838   2.591   6.614   5.523
 8632TIP3    H125839   2.593   6.537   5.466
 8632TIP3    H225840   2.498   6.634   5.535
 8633TIP3   OH225841   6.817   0.076   3.763
 8633TIP3    H125842   6.821   0.109   3.853
 8633TIP3    H225843   6.723   0.073   3.744
 8634TIP3   OH225844   4.134   0.492   2.802
 8634TIP3    H125845   4.194   0.474   2.730
 8634TIP3    H225846   4.156   0.428   2.869
 8635TIP3   OH225847   2.532   4.551   1.193
 8635TIP3    H125848   2.480   4.618   1.237
 8635TIP3    H225849   2.481   4.529   1.116
 8636TIP3   OH225850   1.492   2.093   5.999
 8636TIP3    H125851   1.507   2.138   5.916
 8636TIP3    H225852   1.528   2.151   6.065
 8637TIP3   OH225853   7.424   4.329   2.385
 8637TIP3    H125854   7.515   4.354   2.404
 8637TIP3    H225855   7.424   4.234   2.397
 8638TIP3   OH225856   1.699   1.694   3.315
 8638TIP3    H125857   1.619   1.728   3.273
 8638TIP3    H225858   1.711   1.751   3.391
 8639TIP3   OH225859   0.503   3.213   2.283
 8639TIP3    H125860   0.495   3.297   2.328
 8639TIP3    H225861   0.495   3.235   2.190
 8640TIP3   OH225862   3.561   5.819   5.800
 8640TIP3    H125863   3.635   5.767   5.768
 8640TIP3    H225864   3.529   5.865   5.722
 8641TIP3   OH225865   6.792   0.324   0.055
 8641TIP3    H125866   6.701   0.295   0.041
 8641TIP3    H225867   6.784   0.416   0.080
 8642TIP3   OH225868   2.032   6.209   5.004
 8642TIP3    H125869   2.036   6.203   4.908
 8642TIP3    H225870   2.062   6.298   5.023
 8643TIP3   OH225871   7.406   0.339   4.179
 8643TIP3    H125872   7.429   0.246   4.175
 8643TIP3    H225873   7.385   0.355   4.271
 8644TIP3   OH225874   6.614   3.333   5.153
 8644TIP3    H125875   6.697   3.346   5.107
 8644TIP3    H225876   6.572   3.261   5.107
 8645TIP3   OH225877   0.593   0.365   5.653
 8645TIP3    H125878   0.500   0.349   5.668
 8645TIP3    H225879   0.637   0.289   5.691
 8646TIP3   OH225880   8.265   5.619   1.512
 8646TIP3    H125881   8.242   5.704   1.549
 8646TIP3    H225882   8.229   5.555   1.573
 8647TIP3   OH225883   4.673   5.034   1.088
 8647TIP3    H125884   4.625   4.976   1.146
 8647TIP3    H225885   4.758   4.993   1.077
 8648TIP3   OH225886   5.412   3.229   6.689
 8648TIP3    H125887   5.378   3.224   6.599
 8648TIP3    H225888   5.441   3.139   6.708
 8649TIP3   OH225889   4.111   1.618   5.145
 8649TIP3    H125890   4.054   1.542   5.133
 8649TIP3    H225891   4.140   1.611   5.236
 8650TIP3   OH225892   3.528   2.451   0.986
 8650TIP3    H125893   3.544   2.520   0.922
 8650TIP3    H225894   3.604   2.393   0.979
 8651TIP3   OH225895   3.491   6.915   0.160
 8651TIP3    H125896   3.411   6.949   0.122
 8651TIP3    H225897   3.498   6.959   0.245
 8652TIP3   OH225898   7.531   6.295   3.990
 8652TIP3    H125899   7.599   6.271   4.053
 8652TIP3    H225900   7.505   6.383   4.014
 8653TIP3   OH225901   3.510   7.105   3.048
 8653TIP3    H125902   3.438   7.168   3.042
 8653TIP3    H225903   3.588   7.159   3.061
 8654TIP3   OH225904   7.168   0.066   5.205
 8654TIP3    H125905   7.168   0.110   5.120
 8654TIP3    H225906   7.248   0.013   5.204
 8655TIP3   OH225907   2.829   2.052   0.877
 8655TIP3    H125908   2.804   2.138   0.845
 8655TIP3    H225909   2.868   2.009   0.801
 8656TIP3   OH225910   4.777   0.350   2.045
 8656TIP3    H125911   4.859   0.311   2.014
 8656TIP3    H225912   4.721   0.274   2.063
 8657TIP3   OH225913   4.910   6.959   3.083
 8657TIP3    H125914   4.832   6.958   3.138
 8657TIP3    H225915   4.880   6.991   2.998
 8658TIP3   OH225916   3.673   6.991   5.897
 8658TIP3    H125917   3.636   6.903   5.897
 8658TIP3    H225918   3.610   7.044   5.847
 8659TIP3   OH225919   3.058   1.175   4.706
 8659TIP3    H125920   3.067   1.089   4.664
 8659TIP3    H225921   3.148   1.209   4.711
 8660TIP3   OH225922   4.327   7.136   6.137
 8660TIP3    H125923   4.381   7.106   6.210
 8660TIP3    H225924   4.369   7.216   6.107
 8661TIP3   OH225925   3.354   6.326   6.111
 8661TIP3    H125926   3.415   6.266   6.068
 8661TIP3    H225927   3.270   6.280   6.111
 8662TIP3   OH225928   6.106   6.314   5.180
 8662TIP3    H125929   6.086   6.222   5.199
 8662TIP3    H225930   6.024   6.350   5.147
 8663TIP3   OH225931   6.124   1.422   0.298
 8663TIP3    H125932   6.144   1.514   0.316
 8663TIP3    H225933   6.202   1.389   0.254
 8664TIP3   OH225934   8.231   5.516   0.490
 8664TIP3    H125935   8.197   5.427   0.494
 8664TIP3    H225936   8.315   5.508   0.446
 8665TIP3   OH225937   3.644   6.615   0.991
 8665TIP3    H125938   3.625   6.530   0.952
 8665TIP3    H225939   3.560   6.661   0.991
 8666TIP3   OH225940   3.158   0.503   6.214
 8666TIP3    H125941   3.235   0.491   6.159
 8666TIP3    H225942   3.193   0.517   6.302
 8667TIP3   OH225943   5.260   6.113   1.398
 8667TIP3    H125944   5.232   6.157   1.478
 8667TIP3    H225945   5.183   6.113   1.342
 8668TIP3   OH225946   7.723   1.825   4.983
 8668TIP3    H125947   7.730   1.760   5.052
 8668TIP3    H225948   7.805   1.874   4.987
 8669TIP3   OH225949   6.055   5.996   4.111
 8669TIP3    H125950   5.980   6.039   4.151
 8669TIP3    H225951   6.127   6.058   4.123
 8670TIP3   OH225952   3.199   4.766   1.280
 8670TIP3    H125953   3.105   4.780   1.265
 8670TIP3    H225954   3.205   4.748   1.374
 8671TIP3   OH225955   6.666   2.386   1.487
 8671TIP3    H125956   6.657   2.336   1.568
 8671TIP3    H225957   6.712   2.326   1.428
 8672TIP3   OH225958   1.536   3.451   3.420
 8672TIP3    H125959   1.592   3.479   3.492
 8672TIP3    H225960   1.526   3.357   3.432
 8673TIP3   OH225961   3.774   6.445   5.897
 8673TIP3    H125962   3.799   6.518   5.954
 8673TIP3    H225963   3.751   6.487   5.814
 8674TIP3   OH225964   4.336   5.876   4.449
 8674TIP3    H125965   4.374   5.866   4.537
 8674TIP3    H225966   4.352   5.967   4.426
 8675TIP3   OH225967   2.875   7.402   1.732
 8675TIP3    H125968   2.846   7.476   1.680
 8675TIP3    H225969   2.904   7.441   1.815
 8676TIP3   OH225970   5.938   4.225   3.458
 8676TIP3    H125971   5.867   4.199   3.400
 8676TIP3    H225972   5.920   4.178   3.540
 8677TIP3   OH225973   7.807   1.899   4.161
 8677TIP3    H125974   7.750   1.972   4.181
 8677TIP3    H225975   7.885   1.913   4.215
 8678TIP3   OH225976   3.843   0.237   4.168
 8678TIP3    H125977   3.824   0.186   4.246
 8678TIP3    H225978   3.874   0.173   4.104
 8679TIP3   OH225979   0.057   7.556   0.360
 8679TIP3    H125980   0.070   7.484   0.299
 8679TIP3    H225981  -0.037   7.575   0.354
 8680TIP3   OH225982   1.988   0.369   6.031
 8680TIP3    H125983   2.053   0.376   6.101
 8680TIP3    H225984   1.990   0.455   5.987
 8681TIP3   OH225985   0.305   6.079   6.142
 8681TIP3    H125986   0.213   6.057   6.128
 8681TIP3    H225987   0.339   6.099   6.054
 8682TIP3   OH225988   2.755   4.909   3.081
 8682TIP3    H125989   2.661   4.920   3.090
 8682TIP3    H225990   2.780   4.970   3.012
 8683TIP3   OH225991   1.151   0.806   4.497
 8683TIP3    H125992   1.125   0.752   4.571
 8683TIP3    H225993   1.245   0.789   4.486
 8684TIP3   OH225994   0.266   4.914   4.087
 8684TIP3    H125995   0.258   5.007   4.108
 8684TIP3    H225996   0.202   4.871   4.144
 8685TIP3   OH225997   0.085   4.736   1.585
 8685TIP3    H125998   0.128   4.700   1.663
 8685TIP3    H225999   0.003   4.771   1.618
 8686TIP3   OH226000   0.974   3.587   4.716
 8686TIP3    H126001   0.969   3.671   4.762
 8686TIP3    H226002   0.889   3.545   4.734
 8687TIP3   OH226003   7.664   2.307   2.350
 8687TIP3    H126004   7.738   2.361   2.376
 8687TIP3    H226005   7.688   2.218   2.378
 8688TIP3   OH226006   3.829   7.364   1.141
 8688TIP3    H126007   3.906   7.418   1.123
 8688TIP3    H226008   3.831   7.348   1.235
 8689TIP3   OH226009   0.989   5.401   3.939
 8689TIP3    H126010   1.013   5.336   3.873
 8689TIP3    H226011   0.954   5.475   3.889
 8690TIP3   OH226012   2.535   1.236   3.291
 8690TIP3    H126013   2.584   1.267   3.368
 8690TIP3    H226014   2.531   1.141   3.302
 8691TIP3   OH226015   2.146   2.811   1.466
 8691TIP3    H126016   2.063   2.841   1.503
 8691TIP3    H226017   2.145   2.844   1.376
 8692TIP3   OH226018   8.087   1.004   1.714
 8692TIP3    H126019   8.051   1.072   1.657
 8692TIP3    H226020   8.053   1.026   1.801
 8693TIP3   OH226021   2.184   5.105   6.208
 8693TIP3    H126022   2.269   5.072   6.235
 8693TIP3    H226023   2.121   5.047   6.250
 8694TIP3   OH226024   6.116   0.603   1.865
 8694TIP3    H126025   6.199   0.647   1.885
 8694TIP3    H226026   6.117   0.523   1.918
 8695TIP3   OH226027   4.645   6.768   0.326
 8695TIP3    H126028   4.688   6.683   0.314
 8695TIP3    H226029   4.634   6.776   0.421
 8696TIP3   OH226030   1.763   5.392  -0.001
 8696TIP3    H126031   1.696   5.445   0.043
 8696TIP3    H226032   1.752   5.305   0.036
 8697TIP3   OH226033   2.062   4.302   4.047
 8697TIP3    H126034   2.006   4.231   4.016
 8697TIP3    H226035   2.001   4.373   4.066
 8698TIP3   OH226036   2.154   1.730   6.336
 8698TIP3    H126037   2.118   1.652   6.378
 8698TIP3    H226038   2.108   1.736   6.253
 8699TIP3   OH226039   5.532   6.169   6.582
 8699TIP3    H126040   5.445   6.196   6.553
 8699TIP3    H226041   5.587   6.178   6.504
 8700TIP3   OH226042   2.110   7.204   2.211
 8700TIP3    H126043   2.059   7.285   2.199
 8700TIP3    H226044   2.109   7.163   2.124
 8701TIP3   OH226045   3.631   6.919   1.836
 8701TIP3    H126046   3.574   6.973   1.890
 8701TIP3    H226047   3.624   6.831   1.874
 8702TIP3   OH226048   2.378   1.591   1.675
 8702TIP3    H126049   2.432   1.636   1.741
 8702TIP3    H226050   2.439   1.530   1.633
 8703TIP3   OH226051   7.775   2.181   1.048
 8703TIP3    H126052   7.700   2.225   1.008
 8703TIP3    H226053   7.748   2.162   1.138
 8704TIP3   OH226054   5.926   2.443   4.642
 8704TIP3    H126055   5.999   2.382   4.658
 8704TIP3    H226056   5.849   2.395   4.671
 8705TIP3   OH226057   2.277   7.816   0.964
 8705TIP3    H126058   2.323   7.753   0.908
 8705TIP3    H226059   2.245   7.763   1.038
 8706TIP3   OH226060   5.638   6.832   6.474
 8706TIP3    H126061   5.690   6.902   6.514
 8706TIP3    H226062   5.574   6.809   6.541
 8707TIP3   OH226063   2.404   1.134   6.287
 8707TIP3    H126064   2.359   1.218   6.294
 8707TIP3    H226065   2.396   1.110   6.195
 8708TIP3   OH226066   2.413   0.878   1.481
 8708TIP3    H126067   2.343   0.868   1.546
 8708TIP3    H226068   2.378   0.939   1.416
 8709TIP3   OH226069   7.164   0.155   4.114
 8709TIP3    H126070   7.182   0.235   4.064
 8709TIP3    H226071   7.111   0.101   4.055
 8710TIP3   OH226072   7.304   4.174   1.573
 8710TIP3    H126073   7.280   4.235   1.642
 8710TIP3    H226074   7.369   4.116   1.614
 8711TIP3   OH226075   5.936   6.041   3.135
 8711TIP3    H126076   5.921   5.996   3.052
 8711TIP3    H226077   5.960   5.970   3.196
 8712TIP3   OH226078   7.034   2.766   2.111
 8712TIP3    H126079   7.038   2.671   2.105
 8712TIP3    H226080   6.940   2.786   2.104
 8713TIP3   OH226081   1.296   2.430   4.846
 8713TIP3    H126082   1.260   2.476   4.923
 8713TIP3    H226083   1.368   2.486   4.816
 8714TIP3   OH226084   7.105   7.294   1.656
 8714TIP3    H126085   7.106   7.389   1.650
 8714TIP3    H226086   7.150   7.275   1.738
 8715TIP3   OH226087   3.363   7.571   2.128
 8715TIP3    H126088   3.376   7.642   2.064
 8715TIP3    H226089   3.377   7.613   2.213
 8716TIP3   OH226090   2.241   0.732   2.314
 8716TIP3    H126091   2.256   0.640   2.337
 8716TIP3    H226092   2.321   0.759   2.270
 8717TIP3   OH226093   2.986   5.535   2.874
 8717TIP3    H126094   3.037   5.611   2.901
 8717TIP3    H226095   3.020   5.463   2.926
 8718TIP3   OH226096   3.913   2.810   0.598
 8718TIP3    H126097   3.883   2.858   0.521
 8718TIP3    H226098   3.979   2.867   0.638
 8719TIP3   OH226099   4.376   3.033   6.501
 8719TIP3    H126100   4.388   2.992   6.587
 8719TIP3    H226101   4.331   2.967   6.449
 8720TIP3   OH226102   3.767   1.827   4.017
 8720TIP3    H126103   3.828   1.760   3.986
 8720TIP3    H226104   3.822   1.895   4.055
 8721TIP3   OH226105   1.379   6.240   4.017
 8721TIP3    H126106   1.466   6.280   4.016
 8721TIP3    H226107   1.375   6.191   3.934
 8722TIP3   OH226108   0.877   2.366   0.459
 8722TIP3    H126109   0.857   2.436   0.521
 8722TIP3    H226110   0.798   2.311   0.458
 8723TIP3   OH226111   5.629   0.622   5.140
 8723TIP3    H126112   5.544   0.664   5.125
 8723TIP3    H226113   5.693   0.689   5.116
 8724TIP3   OH226114   2.390   4.801   6.487
 8724TIP3    H126115   2.309   4.827   6.532
 8724TIP3    H226116   2.404   4.871   6.422
 8725TIP3   OH226117   2.310   0.783   5.824
 8725TIP3    H126118   2.364   0.728   5.767
 8725TIP3    H226119   2.325   0.872   5.791
 8726TIP3   OH226120   4.426   4.427   6.070
 8726TIP3    H126121   4.391   4.506   6.029
 8726TIP3    H226122   4.486   4.459   6.137
 8727TIP3   OH226123   0.557   6.015   2.868
 8727TIP3    H126124   0.525   5.938   2.822
 8727TIP3    H226125   0.501   6.087   2.837
 8728TIP3   OH226126   0.487   0.597   2.805
 8728TIP3    H126127   0.577   0.570   2.827
 8728TIP3    H226128   0.472   0.559   2.718
 8729TIP3   OH226129   8.213   2.354   4.170
 8729TIP3    H126130   8.155   2.421   4.133
 8729TIP3    H226131   8.154   2.284   4.197
 8730TIP3   OH226132   1.996   5.035   1.775
 8730TIP3    H126133   1.962   5.125   1.777
 8730TIP3    H226134   1.988   5.004   1.865
 8731TIP3   OH226135   5.782   5.759   3.500
 8731TIP3    H126136   5.805   5.682   3.551
 8731TIP3    H226137   5.764   5.726   3.412
 8732TIP3   OH226138   6.115   5.619   3.694
 8732TIP3    H126139   6.144   5.612   3.785
 8732TIP3    H226140   6.093   5.711   3.682
 8733TIP3   OH226141   8.089   1.717   1.461
 8733TIP3    H126142   8.002   1.707   1.423
 8733TIP3    H226143   8.137   1.771   1.397
 8734TIP3   OH226144   7.463   0.924   2.921
 8734TIP3    H126145   7.454   0.896   2.830
 8734TIP3    H226146   7.463   1.020   2.916
 8735TIP3   OH226147   3.129   1.387   5.773
 8735TIP3    H126148   3.036   1.411   5.775
 8735TIP3    H226149   3.131   1.299   5.811
 8736TIP3   OH226150   2.474   3.251   2.714
 8736TIP3    H126151   2.433   3.254   2.800
 8736TIP3    H226152   2.482   3.157   2.694
 8737TIP3   OH226153   2.986   0.024   1.685
 8737TIP3    H126154   3.030   0.101   1.650
 8737TIP3    H226155   2.909   0.013   1.629
 8738TIP3   OH226156   3.798   3.216   2.020
 8738TIP3    H126157   3.711   3.235   2.054
 8738TIP3    H226158   3.795   3.123   1.997
 8739TIP3   OH226159   7.854   2.983   3.368
 8739TIP3    H126160   7.859   2.947   3.280
 8739TIP3    H226161   7.929   2.943   3.414
 8740TIP3   OH226162   2.523   6.034   0.473
 8740TIP3    H126163   2.560   6.077   0.395
 8740TIP3    H226164   2.589   6.047   0.541
 8741TIP3   OH226165   5.739   7.805   2.403
 8741TIP3    H126166   5.729   7.801   2.308
 8741TIP3    H226167   5.650   7.811   2.437
 8742TIP3   OH226168   3.889   3.632   3.770
 8742TIP3    H126169   3.920   3.682   3.845
 8742TIP3    H226170   3.794   3.643   3.771
 8743TIP3   OH226171   3.308   6.982   4.361
 8743TIP3    H126172   3.242   6.930   4.408
 8743TIP3    H226173   3.298   6.956   4.270
 8744TIP3   OH226174   6.570   4.959   0.350
 8744TIP3    H126175   6.551   5.051   0.330
 8744TIP3    H226176   6.485   4.921   0.371
 8745TIP3   OH226177   3.086   1.161   5.908
 8745TIP3    H126178   3.131   1.126   5.985
 8745TIP3    H226179   3.038   1.086   5.872
 8746TIP3   OH226180   0.883   5.880   0.353
 8746TIP3    H126181   0.821   5.911   0.419
 8746TIP3    H226182   0.910   5.794   0.384
 8747TIP3   OH226183   3.228   6.288   3.499
 8747TIP3    H126184   3.309   6.292   3.448
 8747TIP3    H226185   3.255   6.258   3.586
 8748TIP3   OH226186   6.456   5.918   6.707
 8748TIP3    H126187   6.371   5.879   6.727
 8748TIP3    H226188   6.513   5.843   6.689
 8749TIP3   OH226189   2.525   3.254   3.244
 8749TIP3    H126190   2.556   3.232   3.156
 8749TIP3    H226191   2.530   3.172   3.293
 8750TIP3   OH226192   6.232   1.742   2.966
 8750TIP3    H126193   6.161   1.704   2.915
 8750TIP3    H226194   6.312   1.718   2.918
 8751TIP3   OH226195   6.341   7.733   3.957
 8751TIP3    H126196   6.258   7.694   3.930
 8751TIP3    H226197   6.388   7.662   3.999
 8752TIP3   OH226198   1.774   4.227   2.587
 8752TIP3    H126199   1.791   4.183   2.670
 8752TIP3    H226200   1.769   4.155   2.523
 8753TIP3   OH226201   2.946   7.150   5.058
 8753TIP3    H126202   2.946   7.117   5.148
 8753TIP3    H226203   3.025   7.113   5.018
 8754TIP3   OH226204   0.352   0.963   2.077
 8754TIP3    H126205   0.367   0.954   2.171
 8754TIP3    H226206   0.396   0.888   2.037
 8755TIP3   OH226207   7.831   0.878   1.883
 8755TIP3    H126208   7.891   0.822   1.835
 8755TIP3    H226209   7.771   0.913   1.817
 8756TIP3   OH226210   3.304   6.095   1.751
 8756TIP3    H126211   3.351   6.071   1.831
 8756TIP3    H226212   3.241   6.162   1.779
 8757TIP3   OH226213   3.383   3.862   4.113
 8757TIP3    H126214   3.306   3.905   4.151
 8757TIP3    H226215   3.374   3.771   4.138
 8758TIP3   OH226216   3.529   6.970   3.735
 8758TIP3    H126217   3.462   7.023   3.777
 8758TIP3    H226218   3.482   6.917   3.671
 8759TIP3   OH226219   2.632   5.222   3.638
 8759TIP3    H126220   2.568   5.286   3.669
 8759TIP3    H226221   2.714   5.270   3.632
 8760TIP3   OH226222   8.059   2.400   6.276
 8760TIP3    H126223   8.037   2.433   6.363
 8760TIP3    H226224   8.151   2.373   6.283
 8761TIP3   OH226225   7.307   0.900   0.723
 8761TIP3    H126226   7.356   0.940   0.651
 8761TIP3    H226227   7.217   0.929   0.710
 8762TIP3   OH226228   2.663   7.754   3.959
 8762TIP3    H126229   2.710   7.672   3.977
 8762TIP3    H226230   2.628   7.743   3.870
 8763TIP3   OH226231   6.391   1.545   3.645
 8763TIP3    H126232   6.418   1.537   3.554
 8763TIP3    H226233   6.417   1.462   3.685
 8764TIP3   OH226234   8.076   5.746   2.636
 8764TIP3    H126235   8.066   5.652   2.646
 8764TIP3    H226236   8.158   5.756   2.587
 8765TIP3   OH226237   2.966   4.144   6.702
 8765TIP3    H126238   3.010   4.174   6.622
 8765TIP3    H226239   2.877   4.123   6.674
 8766TIP3   OH226240   2.395   5.433   1.577
 8766TIP3    H126241   2.381   5.381   1.498
 8766TIP3    H226242   2.458   5.500   1.551
 8767TIP3   OH226243   3.665   5.458   4.077
 8767TIP3    H126244   3.678   5.437   4.169
 8767TIP3    H226245   3.585   5.510   4.075
 8768TIP3   OH226246   3.450   7.564   4.989
 8768TIP3    H126247   3.486   7.633   4.933
 8768TIP3    H226248   3.404   7.506   4.928
 8769TIP3   OH226249   0.695   7.379   0.252
 8769TIP3    H126250   0.788   7.360   0.239
 8769TIP3    H226251   0.694   7.451   0.315
 8770TIP3   OH226252   4.927   1.100   5.109
 8770TIP3    H126253   5.003   1.069   5.159
 8770TIP3    H226254   4.902   1.026   5.055
 8771TIP3   OH226255   5.270   4.652   1.509
 8771TIP3    H126256   5.215   4.575   1.517
 8771TIP3    H226257   5.360   4.618   1.504
 8772TIP3   OH226258   4.863   4.744   0.653
 8772TIP3    H126259   4.781   4.749   0.604
 8772TIP3    H226260   4.889   4.836   0.665
 8773TIP3   OH226261   0.237   0.809   5.196
 8773TIP3    H126262   0.261   0.718   5.213
 8773TIP3    H226263   0.295   0.837   5.126
 8774TIP3   OH226264   3.588   4.729   0.801
 8774TIP3    H126265   3.581   4.650   0.855
 8774TIP3    H226266   3.508   4.778   0.820
 8775TIP3   OH226267   6.937   4.234   0.233
 8775TIP3    H126268   6.867   4.186   0.277
 8775TIP3    H226269   6.899   4.319   0.213
 8776TIP3   OH226270   5.785   6.744   5.593
 8776TIP3    H126271   5.707   6.781   5.635
 8776TIP3    H226272   5.796   6.797   5.514
 8777TIP3   OH226273   2.517   1.223   4.534
 8777TIP3    H126274   2.558   1.150   4.488
 8777TIP3    H226275   2.431   1.190   4.560
 8778TIP3   OH226276   5.631   4.190   4.558
 8778TIP3    H126277   5.686   4.199   4.636
 8778TIP3    H226278   5.578   4.270   4.557
 8779TIP3   OH226279   0.893   0.689   1.725
 8779TIP3    H126280   0.807   0.718   1.692
 8779TIP3    H226281   0.946   0.679   1.646
 8780TIP3   OH226282   1.459   6.111   2.873
 8780TIP3    H126283   1.447   6.185   2.813
 8780TIP3    H226284   1.427   6.143   2.957
 8781TIP3   OH226285   0.520   4.463   0.818
 8781TIP3    H126286   0.576   4.403   0.869
 8781TIP3    H226287   0.441   4.472   0.871
 8782TIP3   OH226288   6.922   6.440   6.364
 8782TIP3    H126289   6.921   6.346   6.348
 8782TIP3    H226290   6.837   6.471   6.330
 8783TIP3   OH226291   7.963   5.557   5.942
 8783TIP3    H126292   7.899   5.522   5.880
 8783TIP3    H226293   8.035   5.494   5.940
 8784TIP3   OH226294   6.185   1.617   3.812
 8784TIP3    H126295   6.118   1.617   3.743
 8784TIP3    H226296   6.267   1.605   3.765
 8785TIP3   OH226297   0.695   2.987   2.353
 8785TIP3    H126298   0.767   2.950   2.302
 8785TIP3    H226299   0.703   3.082   2.339
 8786TIP3   OH226300   6.490   7.091   5.238
 8786TIP3    H126301   6.443   7.126   5.163
 8786TIP3    H226302   6.442   7.011   5.261
 8787TIP3   OH226303   0.601   7.645   5.724
 8787TIP3    H126304   0.554   7.627   5.642
 8787TIP3    H226305   0.554   7.720   5.762
 8788TIP3   OH226306   1.157   0.069   1.655
 8788TIP3    H126307   1.064   0.067   1.634
 8788TIP3    H226308   1.198   0.104   1.575
 8789TIP3   OH226309   3.561   2.129   0.437
 8789TIP3    H126310   3.635   2.099   0.383
 8789TIP3    H226311   3.505   2.052   0.445
 8790TIP3   OH226312   8.268   3.593   2.472
 8790TIP3    H126313   8.269   3.509   2.425
 8790TIP3    H226314   8.237   3.656   2.408
 8791TIP3   OH226315   6.359   6.493   3.623
 8791TIP3    H126316   6.363   6.427   3.553
 8791TIP3    H226317   6.442   6.485   3.669
 8792TIP3   OH226318   0.732   5.629   4.654
 8792TIP3    H126319   0.667   5.595   4.715
 8792TIP3    H226320   0.713   5.584   4.571
 8793TIP3   OH226321   7.275   0.730   2.057
 8793TIP3    H126322   7.253   0.669   1.986
 8793TIP3    H226323   7.194   0.779   2.072
 8794TIP3   OH226324   3.295   6.108   6.672
 8794TIP3    H126325   3.252   6.022   6.674
 8794TIP3    H226326   3.312   6.129   6.764
 8795TIP3   OH226327   4.250   1.856   1.391
 8795TIP3    H126328   4.288   1.852   1.479
 8795TIP3    H226329   4.317   1.903   1.340
 8796TIP3   OH226330   3.774   5.094   4.934
 8796TIP3    H126331   3.763   5.091   4.839
 8796TIP3    H226332   3.828   5.018   4.955
 8797TIP3   OH226333   5.077   7.634   2.237
 8797TIP3    H126334   5.139   7.621   2.309
 8797TIP3    H226335   5.008   7.689   2.273
 8798TIP3   OH226336   2.032   5.917   2.402
 8798TIP3    H126337   1.941   5.892   2.419
 8798TIP3    H226338   2.054   5.976   2.474
 8799TIP3   OH226339   1.802   4.985   2.992
 8799TIP3    H126340   1.764   4.960   3.076
 8799TIP3    H226341   1.895   4.996   3.010
 8800TIP3   OH226342   2.578   7.142   6.571
 8800TIP3    H126343   2.537   7.083   6.507
 8800TIP3    H226344   2.520   7.218   6.574
 8801TIP3   OH226345   5.580   1.992   0.066
 8801TIP3    H126346   5.556   1.971   0.156
 8801TIP3    H226347   5.565   1.911   0.017
 8802TIP3   OH226348   1.022   2.140   5.105
 8802TIP3    H126349   1.116   2.150   5.089
 8802TIP3    H226350   1.011   2.166   5.196
 8803TIP3   OH226351   0.966   2.323   1.796
 8803TIP3    H126352   0.922   2.404   1.819
 8803TIP3    H226353   0.897   2.267   1.761
 8804TIP3   OH226354   5.970   5.673   4.873
 8804TIP3    H126355   5.903   5.671   4.804
 8804TIP3    H226356   5.922   5.652   4.953
 8805TIP3   OH226357   2.601   5.266   6.228
 8805TIP3    H126358   2.620   5.286   6.137
 8805TIP3    H226359   2.680   5.290   6.276
 8806TIP3   OH226360   1.197   4.824   3.763
 8806TIP3    H126361   1.291   4.822   3.743
 8806TIP3    H226362   1.193   4.811   3.858
 8807TIP3   OH226363   5.276   4.157   4.008
 8807TIP3    H126364   5.361   4.136   4.046
 8807TIP3    H226365   5.251   4.078   3.961
 8808TIP3   OH226366   7.181   6.303   0.487
 8808TIP3    H126367   7.191   6.285   0.394
 8808TIP3    H226368   7.267   6.283   0.524
 8809TIP3   OH226369   1.961   1.715   6.099
 8809TIP3    H126370   1.974   1.767   6.020
 8809TIP3    H226371   1.887   1.658   6.079
 8810TIP3   OH226372   2.110   6.280   5.738
 8810TIP3    H126373   2.019   6.308   5.729
 8810TIP3    H226374   2.115   6.243   5.827
 8811TIP3   OH226375   4.450   0.716   1.277
 8811TIP3    H126376   4.399   0.776   1.331
 8811TIP3    H226377   4.393   0.640   1.266
 8812TIP3   OH226378   4.854   2.653   4.675
 8812TIP3    H126379   4.930   2.700   4.639
 8812TIP3    H226380   4.781   2.680   4.620
 8813TIP3   OH226381   2.416   7.173   3.519
 8813TIP3    H126382   2.362   7.210   3.589
 8813TIP3    H226383   2.476   7.244   3.496
 8814TIP3   OH226384   8.137   4.474   3.949
 8814TIP3    H126385   8.232   4.464   3.960
 8814TIP3    H226386   8.112   4.534   4.018
 8815TIP3   OH226387   4.004   4.045   1.546
 8815TIP3    H126388   3.949   4.020   1.473
 8815TIP3    H226389   4.028   4.136   1.528
 8816TIP3   OH226390   5.185   3.825   2.411
 8816TIP3    H126391   5.134   3.829   2.330
 8816TIP3    H226392   5.131   3.774   2.471
 8817TIP3   OH226393   0.417   1.051   2.870
 8817TIP3    H126394   0.354   1.039   2.941
 8817TIP3    H226395   0.480   0.980   2.881
 8818TIP3   OH226396   5.100   1.134   3.080
 8818TIP3    H126397   5.019   1.088   3.102
 8818TIP3    H226398   5.122   1.184   3.159
 8819TIP3   OH226399   5.969   4.087   1.147
 8819TIP3    H126400   5.962   4.006   1.096
 8819TIP3    H226401   6.062   4.097   1.165
 8820TIP3   OH226402   7.837   5.070   2.234
 8820TIP3    H126403   7.784   5.106   2.305
 8820TIP3    H226404   7.825   5.131   2.161
 8821TIP3   OH226405   6.771   1.237   5.276
 8821TIP3    H126406   6.838   1.245   5.208
 8821TIP3    H226407   6.694   1.280   5.239
 8822TIP3   OH226408   3.877   1.996   6.539
 8822TIP3    H126409   3.849   2.083   6.510
 8822TIP3    H226410   3.922   2.012   6.622
 8823TIP3   OH226411   1.770   2.523   3.526
 8823TIP3    H126412   1.840   2.470   3.565
 8823TIP3    H226413   1.742   2.581   3.597
 8824TIP3   OH226414   3.533   3.423   6.256
 8824TIP3    H126415   3.469   3.396   6.322
 8824TIP3    H226416   3.488   3.489   6.204
 8825TIP3   OH226417   0.376   0.338   2.972
 8825TIP3    H126418   0.373   0.313   3.065
 8825TIP3    H226419   0.465   0.369   2.959
 8826TIP3   OH226420   0.312   4.687   2.043
 8826TIP3    H126421   0.311   4.714   2.135
 8826TIP3    H226422   0.403   4.663   2.026
 8827TIP3   OH226423   3.103   5.865   3.090
 8827TIP3    H126424   3.030   5.882   3.030
 8827TIP3    H226425   3.149   5.790   3.051
 8828TIP3   OH226426   0.433   3.539   0.099
 8828TIP3    H126427   0.378   3.616   0.110
 8828TIP3    H226428   0.371   3.465   0.100
 8829TIP3   OH226429   4.871   2.639   3.553
 8829TIP3    H126430   4.905   2.697   3.485
 8829TIP3    H226431   4.879   2.551   3.516
 8830TIP3   OH226432   1.884   0.866   5.183
 8830TIP3    H126433   1.902   0.951   5.144
 8830TIP3    H226434   1.968   0.819   5.179
 8831TIP3   OH226435   7.002   4.685   0.451
 8831TIP3    H126436   6.998   4.746   0.525
 8831TIP3    H226437   6.925   4.629   0.462
 8832TIP3   OH226438   4.525   0.557   3.459
 8832TIP3    H126439   4.521   0.514   3.373
 8832TIP3    H226440   4.560   0.491   3.518
 8833TIP3   OH226441   0.177   5.385   0.914
 8833TIP3    H126442   0.218   5.333   0.845
 8833TIP3    H226443   0.133   5.321   0.970
 8834TIP3   OH226444   2.914   7.301   0.993
 8834TIP3    H126445   2.819   7.295   0.985
 8834TIP3    H226446   2.940   7.361   0.923
 8835TIP3   OH226447   2.923   5.982   5.497
 8835TIP3    H126448   3.010   6.003   5.465
 8835TIP3    H226449   2.937   5.917   5.566
 8836TIP3   OH226450   5.312   7.587   0.402
 8836TIP3    H126451   5.370   7.562   0.330
 8836TIP3    H226452   5.370   7.630   0.466
 8837TIP3   OH226453   2.405   2.284   4.184
 8837TIP3    H126454   2.415   2.261   4.276
 8837TIP3    H226455   2.311   2.297   4.173
 8838TIP3   OH226456   6.069   0.043   2.013
 8838TIP3    H126457   6.057   0.031   1.919
 8838TIP3    H226458   6.160   0.071   2.023
 8839TIP3   OH226459   5.976   3.361   5.579
 8839TIP3    H126460   6.069   3.381   5.563
 8839TIP3    H226461   5.939   3.349   5.492
 8840TIP3   OH226462  -0.009   2.098   2.156
 8840TIP3    H126463   0.003   2.186   2.122
 8840TIP3    H226464   0.077   2.057   2.149
 8841TIP3   OH226465   1.147   5.629   0.998
 8841TIP3    H126466   1.227   5.642   1.048
 8841TIP3    H226467   1.150   5.696   0.929
 8842TIP3   OH226468   2.546   1.287   3.818
 8842TIP3    H126469   2.523   1.264   3.908
 8842TIP3    H226470   2.504   1.372   3.803
 8843TIP3   OH226471   1.382   2.029   1.716
 8843TIP3    H126472   1.311   2.090   1.699
 8843TIP3    H226473   1.385   1.974   1.637
 8844TIP3   OH226474   6.173   0.351   0.001
 8844TIP3    H126475   6.197   0.282   0.063
 8844TIP3    H226476   6.255   0.371  -0.045
 8845TIP3   OH226477   5.530   0.058   0.245
 8845TIP3    H126478   5.551  -0.032   0.271
 8845TIP3    H226479   5.436   0.065   0.260
 8846TIP3   OH226480   3.168   3.438   3.173
 8846TIP3    H126481   3.142   3.379   3.102
 8846TIP3    H226482   3.114   3.516   3.162
 8847TIP3   OH226483   6.407   4.857   1.537
 8847TIP3    H126484   6.361   4.915   1.475
 8847TIP3    H226485   6.482   4.909   1.567
 8848TIP3   OH226486   5.341   6.040   5.531
 8848TIP3    H126487   5.392   6.000   5.601
 8848TIP3    H226488   5.264   5.984   5.522
 8849TIP3   OH226489   6.090   6.754   4.926
 8849TIP3    H126490   6.012   6.787   4.972
 8849TIP3    H226491   6.117   6.827   4.870
 8850TIP3   OH226492   7.772   0.590   6.400
 8850TIP3    H126493   7.777   0.679   6.436
 8850TIP3    H226494   7.849   0.546   6.437
 8851TIP3   OH226495   3.507   2.157   0.707
 8851TIP3    H126496   3.511   2.136   0.614
 8851TIP3    H226497   3.587   2.120   0.743
 8852TIP3   OH226498   1.969   4.410   1.275
 8852TIP3    H126499   2.002   4.415   1.365
 8852TIP3    H226500   2.036   4.361   1.228
 8853TIP3   OH226501   2.768   5.945   4.029
 8853TIP3    H126502   2.813   5.921   3.948
 8853TIP3    H226503   2.810   5.892   4.097
 8854TIP3   OH226504   4.621   1.397   2.616
 8854TIP3    H126505   4.702   1.351   2.641
 8854TIP3    H226506   4.567   1.330   2.574
 8855TIP3   OH226507   1.892   4.159   5.766
 8855TIP3    H126508   1.941   4.187   5.844
 8855TIP3    H226509   1.944   4.087   5.731
 8856TIP3   OH226510   1.775   4.325   0.951
 8856TIP3    H126511   1.775   4.421   0.947
 8856TIP3    H226512   1.802   4.298   0.863
 8857TIP3   OH226513   4.047   5.167   6.608
 8857TIP3    H126514   4.092   5.171   6.524
 8857TIP3    H226515   3.968   5.219   6.596
 8858TIP3   OH226516   0.299   7.399   4.216
 8858TIP3    H126517   0.387   7.366   4.232
 8858TIP3    H226518   0.284   7.463   4.285
 8859TIP3   OH226519   6.919   4.623   3.132
 8859TIP3    H126520   6.917   4.556   3.063
 8859TIP3    H226521   6.930   4.705   3.085
 8860TIP3   OH226522   5.495   1.475   0.845
 8860TIP3    H126523   5.536   1.435   0.768
 8860TIP3    H226524   5.482   1.567   0.819
 8861TIP3   OH226525   7.511   5.949   5.462
 8861TIP3    H126526   7.509   5.948   5.558
 8861TIP3    H226527   7.556   5.868   5.438
 8862TIP3   OH226528   2.840   5.459   2.601
 8862TIP3    H126529   2.912   5.492   2.655
 8862TIP3    H226530   2.882   5.424   2.523
 8863TIP3   OH226531   1.934   0.287   3.974
 8863TIP3    H126532   1.983   0.236   3.910
 8863TIP3    H226533   1.896   0.359   3.924
 8864TIP3   OH226534   7.887   6.023   5.787
 8864TIP3    H126535   7.958   5.970   5.822
 8864TIP3    H226536   7.907   6.032   5.694
 8865TIP3   OH226537   4.897   4.966   6.758
 8865TIP3    H126538   4.966   4.903   6.780
 8865TIP3    H226539   4.818   4.914   6.750
 8866TIP3   OH226540   7.454   2.594   1.006
 8866TIP3    H126541   7.367   2.570   1.039
 8866TIP3    H226542   7.514   2.533   1.050
 8867TIP3   OH226543   3.838   7.337   5.574
 8867TIP3    H126544   3.759   7.382   5.604
 8867TIP3    H226545   3.910   7.392   5.602
 8868TIP3   OH226546   6.952   0.368   5.400
 8868TIP3    H126547   7.043   0.349   5.376
 8868TIP3    H226548   6.910   0.282   5.404
 8869TIP3   OH226549   2.677   5.833   2.672
 8869TIP3    H126550   2.635   5.842   2.587
 8869TIP3    H226551   2.654   5.744   2.701
 8870TIP3   OH226552   1.133   4.510   5.191
 8870TIP3    H126553   1.126   4.549   5.278
 8870TIP3    H226554   1.220   4.535   5.161
 8871TIP3   OH226555   6.212   0.356   5.448
 8871TIP3    H126556   6.301   0.322   5.445
 8871TIP3    H226557   6.156   0.279   5.431
 8872TIP3   OH226558   6.593   1.513   0.006
 8872TIP3    H126559   6.594   1.608   0.020
 8872TIP3    H226560   6.505   1.494  -0.026
 8873TIP3   OH226561   5.592   5.875   3.956
 8873TIP3    H126562   5.604   5.855   3.863
 8873TIP3    H226563   5.571   5.791   3.996
 8874TIP3   OH226564   6.427   3.855   0.996
 8874TIP3    H126565   6.379   3.872   0.915
 8874TIP3    H226566   6.518   3.844   0.968
 8875TIP3   OH226567   8.058   1.164   3.778
 8875TIP3    H126568   8.042   1.104   3.851
 8875TIP3    H226569   8.006   1.242   3.799
 8876TIP3   OH226570   7.504   0.719   2.206
 8876TIP3    H126571   7.566   0.788   2.182
 8876TIP3    H226572   7.428   0.736   2.151
 8877TIP3   OH226573   6.619   2.647   0.691
 8877TIP3    H126574   6.691   2.687   0.739
 8877TIP3    H226575   6.654   2.633   0.603
 8878TIP3   OH226576   4.590   4.191   0.358
 8878TIP3    H126577   4.651   4.231   0.296
 8878TIP3    H226578   4.555   4.266   0.408
 8879TIP3   OH226579   1.204   1.074   3.261
 8879TIP3    H126580   1.217   1.149   3.318
 8879TIP3    H226581   1.152   1.012   3.312
 8880TIP3   OH226582   3.778   7.207   4.621
 8880TIP3    H126583   3.731   7.246   4.548
 8880TIP3    H226584   3.758   7.113   4.616
 8881TIP3   OH226585   3.340   5.603   5.056
 8881TIP3    H126586   3.293   5.548   4.995
 8881TIP3    H226587   3.427   5.615   5.017
 8882TIP3   OH226588   3.455   0.811   6.045
 8882TIP3    H126589   3.447   0.804   5.950
 8882TIP3    H226590   3.457   0.721   6.076
 8883TIP3   OH226591   3.297   6.874   4.101
 8883TIP3    H126592   3.234   6.804   4.083
 8883TIP3    H226593   3.361   6.867   4.030
 8884TIP3   OH226594   4.885   2.938   5.005
 8884TIP3    H126595   4.895   3.027   4.971
 8884TIP3    H226596   4.973   2.912   5.032
 8885TIP3   OH226597   7.324   6.409   1.827
 8885TIP3    H126598   7.333   6.388   1.920
 8885TIP3    H226599   7.291   6.499   1.826
 8886TIP3   OH226600   4.560   2.699   4.136
 8886TIP3    H126601   4.489   2.762   4.133
 8886TIP3    H226602   4.526   2.625   4.186
 8887TIP3   OH226603   1.530   3.041   6.568
 8887TIP3    H126604   1.613   3.088   6.557
 8887TIP3    H226605   1.550   2.970   6.629
 8888TIP3   OH226606   6.089   1.097   6.537
 8888TIP3    H126607   6.062   1.114   6.628
 8888TIP3    H226608   6.058   1.008   6.519
 8889TIP3   OH226609   6.824   3.539   6.271
 8889TIP3    H126610   6.903   3.586   6.297
 8889TIP3    H226611   6.851   3.482   6.199
 8890TIP3   OH226612   7.854   4.811   5.370
 8890TIP3    H126613   7.914   4.830   5.442
 8890TIP3    H226614   7.774   4.779   5.412
 8891TIP3   OH226615   5.448   3.801   0.854
 8891TIP3    H126616   5.435   3.831   0.944
 8891TIP3    H226617   5.455   3.706   0.861
 8892TIP3   OH226618   0.520   1.709   3.166
 8892TIP3    H126619   0.537   1.754   3.249
 8892TIP3    H226620   0.427   1.686   3.169
 8893TIP3   OH226621   4.625   3.786   5.392
 8893TIP3    H126622   4.564   3.741   5.452
 8893TIP3    H226623   4.580   3.785   5.307
 8894TIP3   OH226624   4.308   0.832   0.159
 8894TIP3    H126625   4.345   0.747   0.181
 8894TIP3    H226626   4.342   0.891   0.227
 8895TIP3   OH226627   3.359   4.880   3.013
 8895TIP3    H126628   3.440   4.845   3.049
 8895TIP3    H226629   3.298   4.807   3.016
 8896TIP3   OH226630   6.321   5.543   2.667
 8896TIP3    H126631   6.300   5.590   2.586
 8896TIP3    H226632   6.376   5.470   2.639
 8897TIP3   OH226633   2.313   5.285   3.500
 8897TIP3    H126634   2.303   5.215   3.565
 8897TIP3    H226635   2.404   5.278   3.471
 8898TIP3   OH226636   1.699   5.870   0.982
 8898TIP3    H126637   1.657   5.844   1.064
 8898TIP3    H226638   1.635   5.927   0.939
 8899TIP3   OH226639   0.635   5.582   4.055
 8899TIP3    H126640   0.666   5.493   4.037
 8899TIP3    H226641   0.550   5.586   4.012
 8900TIP3   OH226642   7.763   7.517   2.340
 8900TIP3    H126643   7.824   7.551   2.406
 8900TIP3    H226644   7.820   7.474   2.276
 8901TIP3   OH226645   6.711   4.235   4.274
 8901TIP3    H126646   6.771   4.221   4.201
 8901TIP3    H226647   6.635   4.277   4.235
 8902TIP3   OH226648   0.203   3.676   4.764
 8902TIP3    H126649   0.275   3.739   4.768
 8902TIP3    H226650   0.129   3.728   4.731
 8903TIP3   OH226651   6.652   4.412   6.360
 8903TIP3    H126652   6.584   4.358   6.400
 8903TIP3    H226653   6.665   4.483   6.423
 8904TIP3   OH226654   2.847   3.637   0.134
 8904TIP3    H126655   2.774   3.645   0.073
 8904TIP3    H226656   2.924   3.665   0.084
 8905TIP3   OH226657   7.648   1.586   3.489
 8905TIP3    H126658   7.682   1.534   3.562
 8905TIP3    H226659   7.670   1.676   3.511
 8906TIP3   OH226660   6.519   7.412   5.192
 8906TIP3    H126661   6.473   7.384   5.113
 8906TIP3    H226662   6.605   7.370   5.186
 8907TIP3   OH226663   7.785   1.207   2.858
 8907TIP3    H126664   7.777   1.284   2.914
 8907TIP3    H226665   7.847   1.233   2.790
 8908TIP3   OH226666   5.898   5.605   5.875
 8908TIP3    H126667   5.836   5.620   5.803
 8908TIP3    H226668   5.901   5.688   5.922
 8909TIP3   OH226669   4.311   5.024   4.395
 8909TIP3    H126670   4.232   4.976   4.369
 8909TIP3    H226671   4.381   4.959   4.387
 8910TIP3   OH226672   3.212   1.092   6.330
 8910TIP3    H126673   3.195   1.152   6.403
 8910TIP3    H226674   3.247   1.013   6.372
 8911TIP3   OH226675   2.377   3.365   0.818
 8911TIP3    H126676   2.356   3.453   0.787
 8911TIP3    H226677   2.468   3.351   0.791
 8912TIP3   OH226678   6.793   6.331   5.807
 8912TIP3    H126679   6.698   6.316   5.805
 8912TIP3    H226680   6.807   6.406   5.749
 8913TIP3   OH226681   1.329   3.586   1.786
 8913TIP3    H126682   1.270   3.511   1.788
 8913TIP3    H226683   1.409   3.554   1.828
 8914TIP3   OH226684   2.130   1.752   4.922
 8914TIP3    H126685   2.108   1.783   5.010
 8914TIP3    H226686   2.126   1.656   4.929
 8915TIP3   OH226687   7.849   2.666   1.597
 8915TIP3    H126688   7.938   2.671   1.632
 8915TIP3    H226689   7.820   2.577   1.619
 8916TIP3   OH226690   6.322   2.201   4.564
 8916TIP3    H126691   6.261   2.230   4.496
 8916TIP3    H226692   6.408   2.230   4.532
 8917TIP3   OH226693   2.728   0.441   5.286
 8917TIP3    H126694   2.817   0.475   5.294
 8917TIP3    H226695   2.706   0.450   5.194
 8918TIP3   OH226696   7.210   1.368   3.161
 8918TIP3    H126697   7.259   1.290   3.186
 8918TIP3    H226698   7.214   1.425   3.238
 8919TIP3   OH226699   1.753   6.589   4.593
 8919TIP3    H126700   1.787   6.638   4.667
 8919TIP3    H226701   1.795   6.628   4.516
 8920TIP3   OH226702   5.652   4.833   5.660
 8920TIP3    H126703   5.570   4.826   5.709
 8920TIP3    H226704   5.673   4.926   5.661
 8921TIP3   OH226705   3.732   3.192   3.016
 8921TIP3    H126706   3.720   3.116   2.958
 8921TIP3    H226707   3.644   3.219   3.040
 8922TIP3   OH226708   7.153   6.920   2.995
 8922TIP3    H126709   7.216   6.892   2.929
 8922TIP3    H226710   7.170   7.013   3.007
 8923TIP3   OH226711   0.742   3.469   4.836
 8923TIP3    H126712   0.737   3.430   4.923
 8923TIP3    H226713   0.661   3.442   4.793
 8924TIP3   OH226714   7.692   5.976   0.779
 8924TIP3    H126715   7.653   6.062   0.764
 8924TIP3    H226716   7.678   5.959   0.873
 8925TIP3   OH226717   2.623   4.250   5.912
 8925TIP3    H126718   2.698   4.199   5.944
 8925TIP3    H226719   2.663   4.328   5.873
 8926TIP3   OH226720   0.999   6.532   0.255
 8926TIP3    H126721   1.079   6.584   0.247
 8926TIP3    H226722   0.938   6.570   0.192
 8927TIP3   OH226723   0.736   1.037   1.870
 8927TIP3    H126724   0.731   0.983   1.949
 8927TIP3    H226725   0.658   1.013   1.819
 8928TIP3   OH226726   1.807   0.558   3.391
 8928TIP3    H126727   1.848   0.579   3.307
 8928TIP3    H226728   1.761   0.638   3.416
 8929TIP3   OH226729   3.233   0.058   5.803
 8929TIP3    H126730   3.154   0.110   5.792
 8929TIP3    H226731   3.280   0.098   5.876
 8930TIP3   OH226732   5.204   4.490   4.571
 8930TIP3    H126733   5.271   4.549   4.605
 8930TIP3    H226734   5.221   4.407   4.614
 8931TIP3   OH226735   0.761   5.846   4.464
 8931TIP3    H126736   0.792   5.805   4.383
 8931TIP3    H226737   0.774   5.779   4.531
 8932TIP3   OH226738   5.279   2.661   2.110
 8932TIP3    H126739   5.295   2.682   2.202
 8932TIP3    H226740   5.184   2.671   2.099
 8933TIP3   OH226741   2.594   6.870   5.137
 8933TIP3    H126742   2.599   6.931   5.211
 8933TIP3    H226743   2.522   6.903   5.083
 8934TIP3   OH226744   1.547   1.854   2.347
 8934TIP3    H126745   1.462   1.821   2.320
 8934TIP3    H226746   1.528   1.930   2.403
 8935TIP3   OH226747   5.508   4.484   1.502
 8935TIP3    H126748   5.471   4.408   1.457
 8935TIP3    H226749   5.591   4.500   1.456
 8936TIP3   OH226750   1.973   5.129   6.614
 8936TIP3    H126751   1.889   5.082   6.611
 8936TIP3    H226752   1.957   5.208   6.563
 8937TIP3   OH226753   1.063   4.021   3.860
 8937TIP3    H126754   0.995   3.972   3.907
 8937TIP3    H226755   1.131   3.956   3.843
 8938TIP3   OH226756   1.452   1.990   2.058
 8938TIP3    H126757   1.488   2.059   2.113
 8938TIP3    H226758   1.525   1.963   2.002
 8939TIP3   OH226759   5.097   1.645   6.064
 8939TIP3    H126760   5.160   1.700   6.018
 8939TIP3    H226761   5.023   1.638   6.004
 8940TIP3   OH226762   6.337   0.749   1.886
 8940TIP3    H126763   6.422   0.748   1.929
 8940TIP3    H226764   6.331   0.836   1.845
 8941TIP3   OH226765   1.186   7.136   3.909
 8941TIP3    H126766   1.124   7.202   3.878
 8941TIP3    H226767   1.165   7.125   4.001
 8942TIP3   OH226768   4.460   6.509   5.181
 8942TIP3    H126769   4.384   6.457   5.153
 8942TIP3    H226770   4.513   6.448   5.232
 8943TIP3   OH226771   2.971   4.504   1.068
 8943TIP3    H126772   3.060   4.539   1.067
 8943TIP3    H226773   2.937   4.527   1.154
 8944TIP3   OH226774   6.856   3.837   2.033
 8944TIP3    H126775   6.765   3.813   2.049
 8944TIP3    H226776   6.888   3.770   1.972
 8945TIP3   OH226777   6.776   4.484   0.138
 8945TIP3    H126778   6.772   4.471   0.233
 8945TIP3    H226779   6.813   4.572   0.128
 8946TIP3   OH226780   7.344   6.403   4.600
 8946TIP3    H126781   7.263   6.444   4.570
 8946TIP3    H226782   7.357   6.438   4.688
 8947TIP3   OH226783   1.196   4.339   2.901
 8947TIP3    H126784   1.126   4.306   2.957
 8947TIP3    H226785   1.215   4.267   2.841
 8948TIP3   OH226786   3.931   5.368   4.370
 8948TIP3    H126787   3.979   5.340   4.292
 8948TIP3    H226788   3.970   5.452   4.394
 8949TIP3   OH226789   5.172   5.031   6.264
 8949TIP3    H126790   5.102   4.979   6.225
 8949TIP3    H226791   5.149   5.039   6.356
 8950TIP3   OH226792   2.690   3.323   0.825
 8950TIP3    H126793   2.709   3.398   0.770
 8950TIP3    H226794   2.707   3.354   0.914
 8951TIP3   OH226795   7.112   2.267   5.528
 8951TIP3    H126796   7.037   2.222   5.489
 8951TIP3    H226797   7.179   2.199   5.537
 8952TIP3   OH226798   7.719   5.504   5.156
 8952TIP3    H126799   7.643   5.523   5.101
 8952TIP3    H226800   7.693   5.534   5.243
 8953TIP3   OH226801   2.871   5.718   1.150
 8953TIP3    H126802   2.886   5.691   1.240
 8953TIP3    H226803   2.939   5.675   1.099
 8954TIP3   OH226804   3.383   7.706   5.217
 8954TIP3    H126805   3.389   7.671   5.128
 8954TIP3    H226806   3.299   7.676   5.249
 8955TIP3   OH226807   7.049   6.679   6.105
 8955TIP3    H126808   7.045   6.687   6.201
 8955TIP3    H226809   7.091   6.760   6.076
 8956TIP3   OH226810   5.824   3.457   4.581
 8956TIP3    H126811   5.862   3.401   4.514
 8956TIP3    H226812   5.744   3.491   4.542
 8957TIP3   OH226813   7.982   1.915   4.966
 8957TIP3    H126814   8.060   1.910   5.021
 8957TIP3    H226815   7.984   2.004   4.930
 8958TIP3   OH226816   5.657   6.032   0.714
 8958TIP3    H126817   5.587   6.076   0.763
 8958TIP3    H226818   5.689   6.099   0.653
 8959TIP3   OH226819   3.830   3.518   5.126
 8959TIP3    H126820   3.759   3.466   5.089
 8959TIP3    H226821   3.830   3.599   5.074
 8960TIP3   OH226822   3.949   0.118   0.774
 8960TIP3    H126823   3.989   0.073   0.700
 8960TIP3    H226824   4.001   0.199   0.783
 8961TIP3   OH226825   6.197   5.104   5.396
 8961TIP3    H126826   6.270   5.069   5.345
 8961TIP3    H226827   6.234   5.178   5.443
 8962TIP3   OH226828   4.699   2.784   6.709
 8962TIP3    H126829   4.647   2.704   6.713
 8962TIP3    H226830   4.789   2.754   6.699
 8963TIP3   OH226831   5.633   0.938   2.333
 8963TIP3    H126832   5.562   0.888   2.293
 8963TIP3    H226833   5.672   0.877   2.396
 8964TIP3   OH226834   7.671   6.137   4.535
 8964TIP3    H126835   7.744   6.147   4.596
 8964TIP3    H226836   7.640   6.226   4.519
 8965TIP3   OH226837   0.706   5.539   3.591
 8965TIP3    H126838   0.733   5.472   3.528
 8965TIP3    H226839   0.612   5.549   3.576
 8966TIP3   OH226840   3.288   4.678   5.589
 8966TIP3    H126841   3.275   4.676   5.684
 8966TIP3    H226842   3.324   4.592   5.568
 8967TIP3   OH226843   5.653   6.311   0.312
 8967TIP3    H126844   5.570   6.264   0.300
 8967TIP3    H226845   5.626   6.400   0.335
 8968TIP3   OH226846   6.811   2.107   1.019
 8968TIP3    H126847   6.725   2.073   0.994
 8968TIP3    H226848   6.800   2.202   1.017
 8969TIP3   OH226849   5.769   6.460   5.340
 8969TIP3    H126850   5.801   6.453   5.249
 8969TIP3    H226851   5.847   6.484   5.390
 8970TIP3   OH226852   4.231   3.516   0.178
 8970TIP3    H126853   4.136   3.519   0.185
 8970TIP3    H226854   4.248   3.476   0.093
 8971TIP3   OH226855   3.125   3.345   1.934
 8971TIP3    H126856   3.170   3.275   1.888
 8971TIP3    H226857   3.125   3.418   1.873
 8972TIP3   OH226858   6.008   5.966   1.252
 8972TIP3    H126859   6.071   5.895   1.262
 8972TIP3    H226860   5.933   5.939   1.304
 8973TIP3   OH226861   4.642   5.920   4.283
 8973TIP3    H126862   4.732   5.942   4.308
 8973TIP3    H226863   4.589   5.992   4.318
 8974TIP3   OH226864   1.203   2.693   4.325
 8974TIP3    H126865   1.186   2.602   4.302
 8974TIP3    H226866   1.278   2.718   4.272
 8975TIP3   OH226867   5.316   1.886   3.558
 8975TIP3    H126868   5.286   1.946   3.625
 8975TIP3    H226869   5.363   1.817   3.606
 8976TIP3   OH226870   4.646   6.112   4.850
 8976TIP3    H126871   4.726   6.151   4.883
 8976TIP3    H226872   4.673   6.028   4.814
 8977TIP3   OH226873   3.492   1.558   5.124
 8977TIP3    H126874   3.537   1.540   5.207
 8977TIP3    H226875   3.441   1.638   5.142
 8978TIP3   OH226876   0.038   0.227   2.997
 8978TIP3    H126877   0.098   0.253   2.927
 8978TIP3    H226878   0.067   0.139   3.021
 8979TIP3   OH226879   3.357   3.481   6.643
 8979TIP3    H126880   3.362   3.455   6.551
 8979TIP3    H226881   3.266   3.468   6.667
 8980TIP3   OH226882   2.197   2.517   6.486
 8980TIP3    H126883   2.160   2.511   6.397
 8980TIP3    H226884   2.162   2.599   6.521
 8981TIP3   OH226885   3.028   2.497   3.201
 8981TIP3    H126886   2.979   2.567   3.245
 8981TIP3    H226887   3.048   2.435   3.271
 8982TIP3   OH226888   4.745   5.537   0.419
 8982TIP3    H126889   4.716   5.573   0.503
 8982TIP3    H226890   4.838   5.519   0.431
 8983TIP3   OH226891   2.800   3.531   2.272
 8983TIP3    H126892   2.756   3.455   2.235
 8983TIP3    H226893   2.734   3.601   2.268
 8984TIP3   OH226894   0.654   5.980   0.201
 8984TIP3    H126895   0.731   5.944   0.246
 8984TIP3    H226896   0.660   6.074   0.214
 8985TIP3   OH226897   6.188   0.323   1.905
 8985TIP3    H126898   6.167   0.289   1.818
 8985TIP3    H226899   6.282   0.337   1.903
 8986TIP3   OH226900   3.270   1.045   0.655
 8986TIP3    H126901   3.241   1.026   0.744
 8986TIP3    H226902   3.347   1.100   0.665
 8987TIP3   OH226903   3.031   5.274   6.577
 8987TIP3    H126904   2.988   5.326   6.509
 8987TIP3    H226905   3.097   5.223   6.530
 8988TIP3   OH226906   5.519   3.902   3.670
 8988TIP3    H126907   5.606   3.866   3.652
 8988TIP3    H226908   5.522   3.928   3.762
 8989TIP3   OH226909   7.439   3.027   5.198
 8989TIP3    H126910   7.489   2.953   5.163
 8989TIP3    H226911   7.505   3.084   5.236
 8990TIP3   OH226912   7.954   0.895   0.147
 8990TIP3    H126913   7.916   0.975   0.111
 8990TIP3    H226914   7.984   0.845   0.071
 8991TIP3   OH226915   3.208   2.683   1.477
 8991TIP3    H126916   3.265   2.629   1.422
 8991TIP3    H226917   3.130   2.630   1.490
 8992TIP3   OH226918   7.538   2.269   0.945
 8992TIP3    H126919   7.451   2.302   0.969
 8992TIP3    H226920   7.531   2.247   0.852
 8993TIP3   OH226921   0.440   1.611   0.797
 8993TIP3    H126922   0.354   1.575   0.775
 8993TIP3    H226923   0.448   1.689   0.742
 8994TIP3   OH226924   1.724   1.890   4.120
 8994TIP3    H126925   1.807   1.935   4.100
 8994TIP3    H226926   1.749   1.815   4.174
 8995TIP3   OH226927   7.930   2.588   6.109
 8995TIP3    H126928   7.948   2.681   6.124
 8995TIP3    H226929   7.998   2.542   6.158
 8996TIP3   OH226930   7.082   3.952   6.149
 8996TIP3    H126931   7.139   4.019   6.112
 8996TIP3    H226932   7.082   3.881   6.085
 8997TIP3   OH226933   3.128   5.469   2.388
 8997TIP3    H126934   3.186   5.515   2.449
 8997TIP3    H226935   3.119   5.528   2.314
 8998TIP3   OH226936   5.609   2.009   3.858
 8998TIP3    H126937   5.653   1.924   3.854
 8998TIP3    H226938   5.633   2.053   3.776
 8999TIP3   OH226939   4.596   4.106   5.205
 8999TIP3    H126940   4.605   4.030   5.148
 8999TIP3    H226941   4.661   4.169   5.173
 9000TIP3   OH226942   7.658   5.363   1.999
 9000TIP3    H126943   7.566   5.390   1.993
 9000TIP3    H226944   7.708   5.444   1.993
 9001TIP3   OH226945   2.684   3.107   4.097
 9001TIP3    H126946   2.745   3.051   4.145
 9001TIP3    H226947   2.606   3.111   4.153
 9002TIP3   OH226948   5.402   4.733   6.364
 9002TIP3    H126949   5.455   4.681   6.425
 9002TIP3    H226950   5.321   4.752   6.412
 9003TIP3   OH226951   8.304   6.511   1.634
 9003TIP3    H126952   8.237   6.462   1.681
 9003TIP3    H226953   8.263   6.535   1.551
 9004TIP3   OH226954   3.005   0.054   3.899
 9004TIP3    H126955   3.037  -0.022   3.948
 9004TIP3    H226956   3.061   0.126   3.927
 9005TIP3   OH226957   6.662   6.016   0.707
 9005TIP3    H126958   6.650   5.933   0.660
 9005TIP3    H226959   6.722   6.066   0.653
 9006TIP3   OH226960   4.938   4.984   0.788
 9006TIP3    H126961   4.965   5.072   0.813
 9006TIP3    H226962   4.914   4.942   0.870
 9007TIP3   OH226963   5.680   0.799   0.077
 9007TIP3    H126964   5.735   0.732   0.118
 9007TIP3    H226965   5.723   0.882   0.100
 9008TIP3   OH226966   0.287   5.373   4.499
 9008TIP3    H126967   0.327   5.441   4.444
 9008TIP3    H226968   0.217   5.419   4.545
 9009TIP3   OH226969   4.339   7.747   4.893
 9009TIP3    H126970   4.254   7.717   4.861
 9009TIP3    H226971   4.322   7.776   4.982
 9010TIP3   OH226972   7.028   1.398   2.836
 9010TIP3    H126973   7.069   1.462   2.895
 9010TIP3    H226974   6.936   1.423   2.833
 9011TIP3   OH226975   3.835   4.192   2.523
 9011TIP3    H126976   3.847   4.147   2.606
 9011TIP3    H226977   3.875   4.278   2.537
 9012TIP3   OH226978   7.577   4.593   6.050
 9012TIP3    H126979   7.634   4.602   6.126
 9012TIP3    H226980   7.634   4.562   5.980
 9013TIP3   OH226981   6.200   6.931   5.542
 9013TIP3    H126982   6.127   6.991   5.531
 9013TIP3    H226983   6.234   6.917   5.454
 9014TIP3   OH226984   4.844   4.700   3.600
 9014TIP3    H126985   4.813   4.790   3.612
 9014TIP3    H226986   4.790   4.648   3.660
 9015TIP3   OH226987   2.212   6.551   2.342
 9015TIP3    H126988   2.149   6.530   2.273
 9015TIP3    H226989   2.287   6.495   2.323
 9016TIP3   OH226990   3.684   2.645   0.253
 9016TIP3    H126991   3.697   2.595   0.334
 9016TIP3    H226992   3.772   2.678   0.231
 9017TIP3   OH226993   1.195   6.704   3.989
 9017TIP3    H126994   1.143   6.704   4.069
 9017TIP3    H226995   1.278   6.744   4.014
 9018TIP3   OH226996   6.513   4.698   0.703
 9018TIP3    H126997   6.571   4.665   0.772
 9018TIP3    H226998   6.526   4.793   0.703
 9019TIP3   OH226999   1.090   1.470   5.917
 9019TIP3    H127000   1.129   1.400   5.969
 9019TIP3    H227001   1.165   1.518   5.882
 9020TIP3   OH227002   3.330   2.956   2.927
 9020TIP3    H127003   3.288   2.950   2.842
 9020TIP3    H227004   3.341   2.865   2.954
 9021TIP3   OH227005   5.726   0.248   3.652
 9021TIP3    H127006   5.698   0.299   3.728
 9021TIP3    H227007   5.785   0.182   3.688
 9022TIP3   OH227008   2.052   5.553   2.293
 9022TIP3    H127009   2.013   5.467   2.307
 9022TIP3    H227010   2.124   5.537   2.232
 9023TIP3   OH227011   0.717   4.346   0.516
 9023TIP3    H127012   0.756   4.408   0.578
 9023TIP3    H227013   0.642   4.310   0.563
 9024TIP3   OH227014   1.102   0.446   2.690
 9024TIP3    H127015   1.164   0.515   2.666
 9024TIP3    H227016   1.154   0.384   2.742
 9025TIP3   OH227017   3.596   7.451   5.731
 9025TIP3    H127018   3.615   7.415   5.818
 9025TIP3    H227019   3.610   7.545   5.741
 9026TIP3   OH227020   5.978   6.390   4.507
 9026TIP3    H127021   5.957   6.296   4.504
 9026TIP3    H227022   5.945   6.425   4.425
 9027TIP3   OH227023   4.832   4.932   0.122
 9027TIP3    H127024   4.807   4.866   0.057
 9027TIP3    H227025   4.768   4.923   0.192
 9028TIP3   OH227026   0.342   5.343   3.945
 9028TIP3    H127027   0.274   5.307   3.888
 9028TIP3    H227028   0.424   5.323   3.899
 9029TIP3   OH227029   5.824   5.527   2.400
 9029TIP3    H127030   5.814   5.536   2.494
 9029TIP3    H227031   5.741   5.490   2.370
 9030TIP3   OH227032   1.834   2.221   1.517
 9030TIP3    H127033   1.764   2.199   1.456
 9030TIP3    H227034   1.851   2.314   1.501
 9031TIP3   OH227035   1.882   6.845   3.696
 9031TIP3    H127036   1.866   6.775   3.633
 9031TIP3    H227037   1.943   6.904   3.651
 9032TIP3   OH227038   3.437   1.039   3.757
 9032TIP3    H127039   3.526   1.064   3.783
 9032TIP3    H227040   3.401   1.117   3.715
 9033TIP3   OH227041   5.713   2.289   1.582
 9033TIP3    H127042   5.645   2.294   1.515
 9033TIP3    H227043   5.755   2.204   1.567
 9034TIP3   OH227044   3.666   3.818   2.273
 9034TIP3    H127045   3.632   3.858   2.353
 9034TIP3    H227046   3.750   3.862   2.259
 9035TIP3   OH227047   4.358   3.711   1.557
 9035TIP3    H127048   4.428   3.771   1.534
 9035TIP3    H227049   4.348   3.655   1.480
 9036TIP3   OH227050   5.826   6.002   2.319
 9036TIP3    H127051   5.741   6.001   2.364
 9036TIP3    H227052   5.850   5.910   2.312
 9037TIP3   OH227053   5.247   7.179   4.073
 9037TIP3    H127054   5.322   7.185   4.131
 9037TIP3    H227055   5.265   7.242   4.004
 9038TIP3   OH227056   6.334   1.802   6.732
 9038TIP3    H127057   6.327   1.895   6.753
 9038TIP3    H227058   6.427   1.782   6.743
 9039TIP3   OH227059   5.283   4.879   1.243
 9039TIP3    H127060   5.270   4.973   1.254
 9039TIP3    H227061   5.359   4.859   1.297
 9040TIP3   OH227062   2.226   0.568   2.010
 9040TIP3    H127063   2.256   0.527   2.092
 9040TIP3    H227064   2.293   0.544   1.946
 9041TIP3   OH227065   4.661   5.198   0.861
 9041TIP3    H127066   4.757   5.193   0.865
 9041TIP3    H227067   4.631   5.134   0.926
 9042TIP3   OH227068   7.136   5.428   1.281
 9042TIP3    H127069   7.121   5.515   1.317
 9042TIP3    H227070   7.062   5.376   1.312
 9043TIP3   OH227071   6.251   1.621   0.605
 9043TIP3    H127072   6.204   1.703   0.586
 9043TIP3    H227073   6.325   1.649   0.660
 9044TIP3   OH227074   4.955   0.276   6.107
 9044TIP3    H127075   4.930   0.315   6.023
 9044TIP3    H227076   5.001   0.347   6.153
 9045TIP3   OH227077   4.637   0.232   4.356
 9045TIP3    H127078   4.643   0.226   4.451
 9045TIP3    H227079   4.719   0.272   4.329
 9046TIP3   OH227080   1.204   7.322   2.277
 9046TIP3    H127081   1.182   7.259   2.208
 9046TIP3    H227082   1.232   7.268   2.351
 9047TIP3   OH227083   0.880   1.012   1.196
 9047TIP3    H127084   0.873   0.982   1.106
 9047TIP3    H227085   0.905   0.934   1.245
 9048TIP3   OH227086   7.979   5.897   2.399
 9048TIP3    H127087   7.941   5.865   2.317
 9048TIP3    H227088   7.990   5.991   2.385
 9049TIP3   OH227089   5.692   4.480   3.049
 9049TIP3    H127090   5.743   4.517   2.977
 9049TIP3    H227091   5.675   4.554   3.108
 9050TIP3   OH227092   1.700   1.363   6.648
 9050TIP3    H127093   1.731   1.448   6.616
 9050TIP3    H227094   1.760   1.342   6.720
 9051TIP3   OH227095   5.398   1.694   1.447
 9051TIP3    H127096   5.441   1.649   1.374
 9051TIP3    H227097   5.438   1.781   1.448
 9052TIP3   OH227098   0.234   2.333   6.595
 9052TIP3    H127099   0.188   2.404   6.551
 9052TIP3    H227100   0.256   2.271   6.526
 9053TIP3   OH227101   0.079   1.721   5.098
 9053TIP3    H127102   0.124   1.754   5.020
 9053TIP3    H227103   0.012   1.662   5.064
 9054TIP3   OH227104   1.368   7.598   0.896
 9054TIP3    H127105   1.314   7.582   0.819
 9054TIP3    H227106   1.344   7.529   0.957
 9055TIP3   OH227107   5.103   6.643   4.680
 9055TIP3    H127108   5.039   6.713   4.690
 9055TIP3    H227109   5.151   6.642   4.763
 9056TIP3   OH227110   4.043   1.228   0.460
 9056TIP3    H127111   4.090   1.261   0.383
 9056TIP3    H227112   4.103   1.244   0.533
 9057TIP3   OH227113   4.960   6.810   1.159
 9057TIP3    H127114   4.884   6.780   1.109
 9057TIP3    H227115   5.035   6.783   1.107
 9058TIP3   OH227116   3.398   4.130   6.090
 9058TIP3    H127117   3.451   4.093   6.161
 9058TIP3    H227118   3.308   4.107   6.112
 9059TIP3   OH227119   2.666   6.217   2.468
 9059TIP3    H127120   2.739   6.177   2.421
 9059TIP3    H227121   2.691   6.212   2.560
 9060TIP3   OH227122   4.124   4.714   3.640
 9060TIP3    H127123   4.083   4.713   3.554
 9060TIP3    H227124   4.174   4.795   3.643
 9061TIP3   OH227125   5.061   0.940   0.580
 9061TIP3    H127126   4.969   0.945   0.552
 9061TIP3    H227127   5.075   0.847   0.600
 9062TIP3   OH227128   4.245   6.772   4.911
 9062TIP3    H127129   4.187   6.742   4.980
 9062TIP3    H227130   4.332   6.770   4.950
 9063TIP3   OH227131   6.459   1.692   0.791
 9063TIP3    H127132   6.537   1.742   0.817
 9063TIP3    H227133   6.489   1.601   0.788
 9064TIP3   OH227134   8.100   4.804   1.579
 9064TIP3    H127135   8.051   4.845   1.508
 9064TIP3    H227136   8.077   4.712   1.574
 9065TIP3   OH227137   5.166   4.410   4.005
 9065TIP3    H127138   5.235   4.474   3.988
 9065TIP3    H227139   5.212   4.327   4.016
 9066TIP3   OH227140   6.026   6.759   1.280
 9066TIP3    H127141   6.092   6.812   1.234
 9066TIP3    H227142   6.073   6.722   1.355
 9067TIP3   OH227143   6.272   4.228   4.130
 9067TIP3    H127144   6.200   4.229   4.067
 9067TIP3    H227145   6.251   4.155   4.189
 9068TIP3   OH227146   7.942   3.723   1.544
 9068TIP3    H127147   8.028   3.692   1.574
 9068TIP3    H227148   7.903   3.648   1.501
 9069TIP3   OH227149   1.909   0.386   0.260
 9069TIP3    H127150   1.934   0.356   0.173
 9069TIP3    H227151   1.842   0.452   0.244
 9070TIP3   OH227152   1.459   5.590   1.960
 9070TIP3    H127153   1.483   5.523   2.024
 9070TIP3    H227154   1.389   5.640   2.003
 9071TIP3   OH227155   2.651   6.822   3.689
 9071TIP3    H127156   2.557   6.813   3.707
 9071TIP3    H227157   2.681   6.734   3.669
 9072TIP3   OH227158   0.153   1.847   2.501
 9072TIP3    H127159   0.247   1.840   2.520
 9072TIP3    H227160   0.132   1.939   2.517
 9073TIP3   OH227161   7.061   2.038   2.858
 9073TIP3    H127162   7.111   2.023   2.938
 9073TIP3    H227163   6.983   1.982   2.867
 9074TIP3   OH227164   1.209   0.783   3.170
 9074TIP3    H127165   1.192   0.873   3.196
 9074TIP3    H227166   1.250   0.743   3.247
 9075TIP3   OH227167   6.357   2.456   5.854
 9075TIP3    H127168   6.325   2.534   5.900
 9075TIP3    H227169   6.365   2.484   5.763
 9076TIP3   OH227170   3.763   5.652   0.408
 9076TIP3    H127171   3.761   5.634   0.314
 9076TIP3    H227172   3.854   5.639   0.434
 9077TIP3   OH227173   4.872   4.645   1.540
 9077TIP3    H127174   4.956   4.679   1.510
 9077TIP3    H227175   4.829   4.720   1.581
 9078TIP3   OH227176   4.031   1.166   3.192
 9078TIP3    H127177   4.064   1.235   3.135
 9078TIP3    H227178   4.071   1.184   3.277
 9079TIP3   OH227179   7.921   4.046   6.749
 9079TIP3    H127180   7.927   4.087   6.662
 9079TIP3    H227181   7.982   3.973   6.745
 9080TIP3   OH227182   2.499   3.769   0.223
 9080TIP3    H127183   2.472   3.716   0.148
 9080TIP3    H227184   2.440   3.743   0.294
 9081TIP3   OH227185   6.174   1.975   4.045
 9081TIP3    H127186   6.149   1.974   4.138
 9081TIP3    H227187   6.217   1.891   4.031
 9082TIP3   OH227188   3.710   1.382   1.818
 9082TIP3    H127189   3.641   1.434   1.860
 9082TIP3    H227190   3.747   1.330   1.889
 9083TIP3   OH227191   0.728   2.174   2.892
 9083TIP3    H127192   0.735   2.265   2.862
 9083TIP3    H227193   0.717   2.123   2.812
 9084TIP3   OH227194   4.660   7.092   4.262
 9084TIP3    H127195   4.659   6.997   4.252
 9084TIP3    H227196   4.720   7.123   4.195
 9085TIP3   OH227197   5.170   1.425   6.531
 9085TIP3    H127198   5.227   1.350   6.511
 9085TIP3    H227199   5.118   1.437   6.452
 9086TIP3   OH227200   7.877   6.698   3.055
 9086TIP3    H127201   7.914   6.666   2.973
 9086TIP3    H227202   7.943   6.759   3.089
 9087TIP3   OH227203   8.230   5.097   0.860
 9087TIP3    H127204   8.288   5.119   0.933
 9087TIP3    H227205   8.180   5.177   0.843
 9088TIP3   OH227206   5.834   1.983   5.185
 9088TIP3    H127207   5.916   1.984   5.134
 9088TIP3    H227208   5.779   2.048   5.141
 9089TIP3   OH227209   8.108   0.630   3.122
 9089TIP3    H127210   8.053   0.692   3.170
 9089TIP3    H227211   8.143   0.681   3.050
 9090TIP3   OH227212   1.377   2.249   6.725
 9090TIP3    H127213   1.390   2.293   6.641
 9090TIP3    H227214   1.325   2.311   6.777
 9091TIP3   OH227215   6.366   4.784   5.978
 9091TIP3    H127216   6.339   4.788   6.070
 9091TIP3    H227217   6.283   4.777   5.929
 9092TIP3   OH227218   7.244   3.206   6.107
 9092TIP3    H127219   7.336   3.197   6.081
 9092TIP3    H227220   7.220   3.120   6.140
 9093TIP3   OH227221   7.936   3.968   2.073
 9093TIP3    H127222   7.900   3.882   2.091
 9093TIP3    H227223   7.862   4.028   2.081
 9094TIP3   OH227224   0.005   0.830   0.309
 9094TIP3    H127225   0.089   0.787   0.293
 9094TIP3    H227226   0.004   0.905   0.249
 9095TIP3   OH227227   0.859   1.595   6.032
 9095TIP3    H127228   0.871   1.555   6.118
 9095TIP3    H227229   0.936   1.566   5.982
 9096TIP3   OH227230   4.971   0.312   5.625
 9096TIP3    H127231   4.955   0.322   5.719
 9096TIP3    H227232   4.975   0.218   5.612
 9097TIP3   OH227233   7.137   1.286   1.646
 9097TIP3    H127234   7.232   1.273   1.642
 9097TIP3    H227235   7.100   1.207   1.608
 9098TIP3   OH227236   3.199   0.023   4.312
 9098TIP3    H127237   3.117   0.032   4.360
 9098TIP3    H227238   3.219   0.111   4.281
 9099TIP3   OH227239   5.765   7.696   3.443
 9099TIP3    H127240   5.855   7.701   3.476
 9099TIP3    H227241   5.755   7.605   3.414
 9100TIP3   OH227242   4.944   0.111   2.025
 9100TIP3    H127243   4.871   0.051   2.042
 9100TIP3    H227244   4.996   0.068   1.957
 9101TIP3   OH227245   2.839   6.339   5.486
 9101TIP3    H127246   2.792   6.256   5.501
 9101TIP3    H227247   2.787   6.384   5.419
 9102TIP3   OH227248   5.496   7.047   1.739
 9102TIP3    H127249   5.490   7.143   1.747
 9102TIP3    H227250   5.575   7.024   1.788
 9103TIP3   OH227251   3.312   3.721   4.397
 9103TIP3    H127252   3.237   3.780   4.394
 9103TIP3    H227253   3.287   3.648   4.341
 9104TIP3   OH227254   1.822   6.392   6.405
 9104TIP3    H127255   1.878   6.395   6.328
 9104TIP3    H227256   1.880   6.363   6.475
 9105TIP3   OH227257   5.494   5.044   0.517
 9105TIP3    H127258   5.478   5.033   0.611
 9105TIP3    H227259   5.546   5.124   0.511
 9106TIP3   OH227260   3.063   6.637   5.621
 9106TIP3    H127261   3.056   6.729   5.594
 9106TIP3    H227262   2.975   6.615   5.653
 9107TIP3   OH227263   2.573   3.703   0.989
 9107TIP3    H127264   2.646   3.730   0.933
 9107TIP3    H227265   2.521   3.645   0.934
 9108TIP3   OH227266   5.118   2.335   5.152
 9108TIP3    H127267   5.180   2.384   5.207
 9108TIP3    H227268   5.142   2.244   5.165
 9109TIP3   OH227269   2.034   4.865   6.247
 9109TIP3    H127270   2.088   4.789   6.226
 9109TIP3    H227271   1.951   4.849   6.203
 9110TIP3   OH227272   7.120   6.811   6.717
 9110TIP3    H127273   7.060   6.759   6.663
 9110TIP3    H227274   7.198   6.822   6.663
 9111TIP3   OH227275   0.203   0.571   3.715
 9111TIP3    H127276   0.161   0.491   3.683
 9111TIP3    H227277   0.141   0.607   3.779
 9112TIP3   OH227278   2.248   1.310   2.380
 9112TIP3    H127279   2.242   1.292   2.286
 9112TIP3    H227280   2.291   1.396   2.385
 9113TIP3   OH227281   4.411   6.970   1.601
 9113TIP3    H127282   4.375   7.005   1.683
 9113TIP3    H227283   4.411   7.045   1.541
 9114TIP3   OH227284   4.314   6.711   0.318
 9114TIP3    H127285   4.306   6.658   0.238
 9114TIP3    H227286   4.404   6.695   0.348
 9115TIP3   OH227287   4.984   0.552   4.727
 9115TIP3    H127288   4.933   0.560   4.646
 9115TIP3    H227289   5.055   0.615   4.717
 9116TIP3   OH227290   1.288   0.849   5.477
 9116TIP3    H127291   1.363   0.908   5.466
 9116TIP3    H227292   1.319   0.764   5.446
 9117TIP3   OH227293   0.241   4.352   2.076
 9117TIP3    H127294   0.149   4.377   2.087
 9117TIP3    H227295   0.251   4.339   1.981
 9118TIP3   OH227296   0.262   3.931   3.492
 9118TIP3    H127297   0.317   3.858   3.463
 9118TIP3    H227298   0.189   3.932   3.430
 9119TIP3   OH227299   5.651   3.456   3.100
 9119TIP3    H127300   5.579   3.394   3.096
 9119TIP3    H227301   5.609   3.540   3.118
 9120TIP3   OH227302   7.425   4.214   2.063
 9120TIP3    H127303   7.410   4.299   2.021
 9120TIP3    H227304   7.406   4.231   2.156
 9121TIP3   OH227305   3.445   4.868   6.150
 9121TIP3    H127306   3.490   4.953   6.147
 9121TIP3    H227307   3.501   4.813   6.205
 9122TIP3   OH227308   5.791   5.785   4.302
 9122TIP3    H127309   5.710   5.765   4.255
 9122TIP3    H227310   5.782   5.737   4.385
 9123TIP3   OH227311   3.600   0.864   0.817
 9123TIP3    H127312   3.601   0.887   0.910
 9123TIP3    H227313   3.554   0.780   0.814
 9124TIP3   OH227314   4.144   5.023   3.559
 9124TIP3    H127315   4.206   5.071   3.504
 9124TIP3    H227316   4.167   5.050   3.649
 9125TIP3   OH227317   8.141   4.954   0.499
 9125TIP3    H127318   8.200   4.950   0.424
 9125TIP3    H227319   8.194   4.925   0.573
 9126TIP3   OH227320   3.059   6.517   3.478
 9126TIP3    H127321   3.092   6.428   3.482
 9126TIP3    H227322   3.009   6.520   3.396
 9127TIP3   OH227323   0.317   1.412   5.822
 9127TIP3    H127324   0.290   1.446   5.736
 9127TIP3    H227325   0.333   1.490   5.875
 9128TIP3   OH227326   0.620   3.259   5.338
 9128TIP3    H127327   0.672   3.335   5.364
 9128TIP3    H227328   0.599   3.276   5.246
 9129TIP3   OH227329   8.112   6.113   4.973
 9129TIP3    H127330   8.131   6.045   4.907
 9129TIP3    H227331   8.191   6.168   4.974
 9130TIP3   OH227332   1.393   7.088   1.985
 9130TIP3    H127333   1.433   7.175   1.977
 9130TIP3    H227334   1.313   7.103   2.035
 9131TIP3   OH227335   4.055   3.929   0.035
 9131TIP3    H127336   4.053   3.835   0.054
 9131TIP3    H227337   4.148   3.949   0.026
 9132TIP3   OH227338   3.711   0.646   1.439
 9132TIP3    H127339   3.666   0.633   1.523
 9132TIP3    H227340   3.661   0.715   1.395
 9133TIP3   OH227341   5.041   6.198   1.231
 9133TIP3    H127342   4.954   6.161   1.244
 9133TIP3    H227343   5.024   6.286   1.197
 9134TIP3   OH227344   1.195   2.914   3.898
 9134TIP3    H127345   1.118   2.964   3.871
 9134TIP3    H227346   1.161   2.829   3.924
 9135TIP3   OH227347   2.358   1.204   5.136
 9135TIP3    H127348   2.446   1.169   5.129
 9135TIP3    H227349   2.327   1.175   5.222
 9136TIP3   OH227350   0.811   3.708   5.227
 9136TIP3    H127351   0.725   3.715   5.185
 9136TIP3    H227352   0.853   3.792   5.208
 9137TIP3   OH227353   1.204   4.676   5.743
 9137TIP3    H127354   1.243   4.715   5.822
 9137TIP3    H227355   1.251   4.593   5.732
 9138TIP3   OH227356   7.717   4.886   0.241
 9138TIP3    H127357   7.781   4.906   0.309
 9138TIP3    H227358   7.717   4.963   0.185
 9139TIP3   OH227359   6.125   5.510   4.339
 9139TIP3    H127360   6.168   5.596   4.329
 9139TIP3    H227361   6.173   5.453   4.279
 9140TIP3   OH227362   4.319   1.639   1.849
 9140TIP3    H127363   4.282   1.718   1.810
 9140TIP3    H227364   4.249   1.605   1.905
 9141TIP3   OH227365   0.028   1.544   6.016
 9141TIP3    H127366   0.080   1.625   6.011
 9141TIP3    H227367   0.088   1.479   6.051
 9142TIP3   OH227368   4.166   1.733   4.441
 9142TIP3    H127369   4.236   1.689   4.393
 9142TIP3    H227370   4.092   1.734   4.379
 9143TIP3   OH227371   2.602   0.876   1.248
 9143TIP3    H127372   2.600   0.899   1.341
 9143TIP3    H227373   2.556   0.947   1.204
 9144TIP3   OH227374   0.172   1.370   3.040
 9144TIP3    H127375   0.090   1.322   3.051
 9144TIP3    H227376   0.145   1.455   3.004
 9145TIP3   OH227377   2.510   0.530   0.197
 9145TIP3    H127378   2.483   0.592   0.264
 9145TIP3    H227379   2.502   0.579   0.115
 9146TIP3   OH227380   4.066   2.003   2.042
 9146TIP3    H127381   3.988   1.950   2.059
 9146TIP3    H227382   4.067   2.067   2.113
 9147TIP3   OH227383   7.257   6.192   3.401
 9147TIP3    H127384   7.195   6.235   3.461
 9147TIP3    H227385   7.301   6.265   3.357
 9148TIP3   OH227386   2.767   2.483   4.855
 9148TIP3    H127387   2.717   2.557   4.822
 9148TIP3    H227388   2.829   2.521   4.917
 9149TIP3   OH227389   7.518   6.336   4.341
 9149TIP3    H127390   7.449   6.278   4.374
 9149TIP3    H227391   7.474   6.421   4.332
 9150TIP3   OH227392   8.071   2.898   5.747
 9150TIP3    H127393   8.040   2.812   5.773
 9150TIP3    H227394   8.144   2.880   5.688
 9151TIP3   OH227395   3.398   5.358   6.060
 9151TIP3    H127396   3.447   5.374   5.979
 9151TIP3    H227397   3.418   5.433   6.116
 9152TIP3   OH227398   2.984   2.874   3.809
 9152TIP3    H127399   2.893   2.896   3.829
 9152TIP3    H227400   3.021   2.848   3.894
 9153TIP3   OH227401   1.992   5.291   1.134
 9153TIP3    H127402   2.041   5.364   1.173
 9153TIP3    H227403   2.056   5.246   1.080
 9154TIP3   OH227404   2.480   6.147   4.283
 9154TIP3    H127405   2.441   6.103   4.207
 9154TIP3    H227406   2.569   6.113   4.286
 9155TIP3   OH227407   4.368   4.145   1.811
 9155TIP3    H127408   4.357   4.058   1.774
 9155TIP3    H227409   4.368   4.203   1.735
 9156TIP3   OH227410   5.486   4.799   6.113
 9156TIP3    H127411   5.577   4.770   6.113
 9156TIP3    H227412   5.463   4.807   6.206
 9157TIP3   OH227413   2.091   2.602   6.236
 9157TIP3    H127414   2.004   2.596   6.275
 9157TIP3    H227415   2.100   2.694   6.210
 9158TIP3   OH227416   7.673   5.553   0.842
 9158TIP3    H127417   7.744   5.563   0.905
 9158TIP3    H227418   7.658   5.459   0.838
 9159TIP3   OH227419   1.718   1.473   2.539
 9159TIP3    H127420   1.649   1.486   2.473
 9159TIP3    H227421   1.758   1.390   2.515
 9160TIP3   OH227422   3.345   7.363   6.673
 9160TIP3    H127423   3.322   7.407   6.754
 9160TIP3    H227424   3.381   7.278   6.700
 9161TIP3   OH227425   5.005   7.471   4.418
 9161TIP3    H127426   5.040   7.397   4.369
 9161TIP3    H227427   5.004   7.543   4.355
 9162TIP3   OH227428   2.662   1.052   4.365
 9162TIP3    H127429   2.648   0.958   4.354
 9162TIP3    H227430   2.756   1.061   4.382
 9163TIP3   OH227431   1.399   1.771   5.383
 9163TIP3    H127432   1.494   1.761   5.394
 9163TIP3    H227433   1.381   1.861   5.411
 9164TIP3   OH227434   0.860   5.244   6.504
 9164TIP3    H127435   0.869   5.209   6.593
 9164TIP3    H227436   0.949   5.272   6.481
 9165TIP3   OH227437   6.740   3.652   2.944
 9165TIP3    H127438   6.819   3.690   2.906
 9165TIP3    H227439   6.706   3.720   3.002
 9166TIP3   OH227440   3.615   7.654   3.236
 9166TIP3    H127441   3.538   7.657   3.179
 9166TIP3    H227442   3.612   7.736   3.285
 9167TIP3   OH227443   7.797   7.420   6.231
 9167TIP3    H127444   7.728   7.460   6.179
 9167TIP3    H227445   7.840   7.495   6.274
 9168TIP3   OH227446   3.636   2.045   6.299
 9168TIP3    H127447   3.718   2.005   6.271
 9168TIP3    H227448   3.661   2.132   6.329
 9169TIP3   OH227449   4.831   6.165   2.552
 9169TIP3    H127450   4.744   6.191   2.522
 9169TIP3    H227451   4.879   6.248   2.562
 9170TIP3   OH227452   1.897   2.601   5.601
 9170TIP3    H127453   1.808   2.574   5.577
 9170TIP3    H227454   1.946   2.520   5.607
 9171TIP3   OH227455   0.837   0.565   0.176
 9171TIP3    H127456   0.772   0.625   0.211
 9171TIP3    H227457   0.792   0.519   0.105
 9172TIP3   OH227458   5.672   7.661   4.618
 9172TIP3    H127459   5.619   7.610   4.680
 9172TIP3    H227460   5.622   7.742   4.606
 9173TIP3   OH227461   6.924   2.308   4.055
 9173TIP3    H127462   6.934   2.254   3.977
 9173TIP3    H227463   7.000   2.366   4.054
 9174TIP3   OH227464   6.824   5.646   4.677
 9174TIP3    H127465   6.901   5.689   4.716
 9174TIP3    H227466   6.755   5.711   4.685
 9175TIP3   OH227467   2.335   1.101   5.401
 9175TIP3    H127468   2.383   1.019   5.404
 9175TIP3    H227469   2.387   1.162   5.453
 9176TIP3   OH227470   5.200   3.964   3.274
 9176TIP3    H127471   5.239   3.957   3.362
 9176TIP3    H227472   5.131   3.898   3.274
 9177TIP3   OH227473   5.904   1.892   0.320
 9177TIP3    H127474   5.963   1.919   0.389
 9177TIP3    H227475   5.912   1.959   0.253
 9178TIP3   OH227476   2.504   7.059   5.660
 9178TIP3    H127477   2.587   7.108   5.663
 9178TIP3    H227478   2.459   7.093   5.583
 9179TIP3   OH227479   5.442   3.746   1.339
 9179TIP3    H127480   5.479   3.664   1.307
 9179TIP3    H227481   5.517   3.794   1.374
 9180TIP3   OH227482   6.014   5.231   0.154
 9180TIP3    H127483   5.924   5.249   0.129
 9180TIP3    H227484   6.029   5.140   0.129
 9181TIP3   OH227485   6.244   3.132   2.052
 9181TIP3    H127486   6.324   3.164   2.094
 9181TIP3    H227487   6.273   3.066   1.990
 9182TIP3   OH227488   5.554   5.717   4.495
 9182TIP3    H127489   5.586   5.627   4.489
 9182TIP3    H227490   5.532   5.728   4.588
 9183TIP3   OH227491   2.299   2.006   6.546
 9183TIP3    H127492   2.274   2.098   6.556
 9183TIP3    H227493   2.217   1.959   6.537
 9184TIP3   OH227494   1.194   5.617   6.555
 9184TIP3    H127495   1.205   5.697   6.504
 9184TIP3    H227496   1.113   5.578   6.522
 9185TIP3   OH227497   2.864   5.939   0.861
 9185TIP3    H127498   2.937   5.891   0.822
 9185TIP3    H227499   2.884   5.942   0.954
 9186TIP3   OH227500   2.133   0.311   2.925
 9186TIP3    H127501   2.169   0.338   3.009
 9186TIP3    H227502   2.167   0.222   2.912
 9187TIP3   OH227503   2.611   1.147   2.899
 9187TIP3    H127504   2.642   1.063   2.934
 9187TIP3    H227505   2.627   1.141   2.804
 9188TIP3   OH227506   1.593   2.464   1.631
 9188TIP3    H127507   1.670   2.415   1.601
 9188TIP3    H227508   1.574   2.429   1.718
 9189TIP3   OH227509   8.121   2.607   0.646
 9189TIP3    H127510   8.060   2.678   0.623
 9189TIP3    H227511   8.090   2.532   0.596
 9190TIP3   OH227512   7.462   2.347   5.726
 9190TIP3    H127513   7.513   2.284   5.675
 9190TIP3    H227514   7.526   2.393   5.779
 9191TIP3   OH227515   2.136   4.650   4.612
 9191TIP3    H127516   2.157   4.675   4.522
 9191TIP3    H227517   2.178   4.717   4.666
 9192TIP3   OH227518   6.758   5.352   3.794
 9192TIP3    H127519   6.680   5.325   3.843
 9192TIP3    H227520   6.754   5.301   3.713
 9193TIP3   OH227521   5.848   2.061   4.356
 9193TIP3    H127522   5.866   1.992   4.420
 9193TIP3    H227523   5.790   2.021   4.292
 9194TIP3   OH227524   1.923   7.272   0.088
 9194TIP3    H127525   1.930   7.199   0.027
 9194TIP3    H227526   1.894   7.345   0.035
 9195TIP3   OH227527   1.433   6.317   2.443
 9195TIP3    H127528   1.396   6.355   2.364
 9195TIP3    H227529   1.506   6.263   2.412
 9196TIP3   OH227530   4.831   0.406   0.828
 9196TIP3    H127531   4.915   0.361   0.838
 9196TIP3    H227532   4.785   0.356   0.761
 9197TIP3   OH227533   1.319   3.439   0.832
 9197TIP3    H127534   1.334   3.437   0.927
 9197TIP3    H227535   1.381   3.375   0.797
 9198TIP3   OH227536   0.962   3.916   5.407
 9198TIP3    H127537   0.970   3.992   5.350
 9198TIP3    H227538   1.053   3.888   5.422
 9199TIP3   OH227539   1.244   3.415   6.367
 9199TIP3    H127540   1.302   3.434   6.292
 9199TIP3    H227541   1.165   3.466   6.350
 9200TIP3   OH227542   1.132   0.085   3.981
 9200TIP3    H127543   1.170   0.099   3.894
 9200TIP3    H227544   1.077   0.162   3.996
 9201TIP3   OH227545   1.192   0.377   4.864
 9201TIP3    H127546   1.217   0.418   4.947
 9201TIP3    H227547   1.250   0.416   4.799
 9202TIP3   OH227548   3.850   5.778   2.859
 9202TIP3    H127549   3.886   5.843   2.799
 9202TIP3    H227550   3.897   5.792   2.941
 9203TIP3   OH227551   6.893   0.394   5.939
 9203TIP3    H127552   6.971   0.348   5.972
 9203TIP3    H227553   6.925   0.444   5.864
 9204TIP3   OH227554   1.032   5.846   4.031
 9204TIP3    H127555   1.112   5.793   4.037
 9204TIP3    H227556   1.061   5.929   3.992
 9205TIP3   OH227557   7.582   0.861   1.500
 9205TIP3    H127558   7.619   0.812   1.427
 9205TIP3    H227559   7.603   0.810   1.577
 9206TIP3   OH227560   2.100   0.346   0.034
 9206TIP3    H127561   2.116   0.426   0.083
 9206TIP3    H227562   2.168   0.286   0.064
 9207TIP3   OH227563   7.147   0.934   6.067
 9207TIP3    H127564   7.233   0.977   6.068
 9207TIP3    H227565   7.102   0.969   6.144
 9208TIP3   OH227566   3.332   5.850   1.641
 9208TIP3    H127567   3.254   5.849   1.697
 9208TIP3    H227568   3.379   5.930   1.667
 9209TIP3   OH227569   0.627   6.350   4.617
 9209TIP3    H127570   0.629   6.287   4.689
 9209TIP3    H227571   0.545   6.397   4.629
 9210TIP3   OH227572   5.434   0.546   1.988
 9210TIP3    H127573   5.359   0.553   2.047
 9210TIP3    H227574   5.497   0.609   2.023
 9211TIP3   OH227575   3.993   7.754   4.722
 9211TIP3    H127576   4.011   7.746   4.816
 9211TIP3    H227577   3.984   7.664   4.691
 9212TIP3   OH227578   6.700   0.450   3.651
 9212TIP3    H127579   6.723   0.463   3.559
 9212TIP3    H227580   6.784   0.453   3.697
 9213TIP3   OH227581   4.110   3.992   2.706
 9213TIP3    H127582   4.078   4.079   2.731
 9213TIP3    H227583   4.201   3.992   2.734
 9214TIP3   OH227584   5.603   6.046   2.490
 9214TIP3    H127585   5.514   6.071   2.513
 9214TIP3    H227586   5.636   6.001   2.568
 9215TIP3   OH227587   4.365   5.191   3.111
 9215TIP3    H127588   4.457   5.174   3.129
 9215TIP3    H227589   4.324   5.105   3.109
 9216TIP3   OH227590   6.266   5.994   3.873
 9216TIP3    H127591   6.192   5.933   3.865
 9216TIP3    H227592   6.225   6.078   3.894
 9217TIP3   OH227593   0.151   4.912   5.720
 9217TIP3    H127594   0.212   4.865   5.778
 9217TIP3    H227595   0.139   4.997   5.762
 9218TIP3   OH227596   4.494   1.730   5.077
 9218TIP3    H127597   4.427   1.704   5.013
 9218TIP3    H227598   4.564   1.767   5.024
 9219TIP3   OH227599   5.517   6.262   5.561
 9219TIP3    H127600   5.465   6.182   5.569
 9219TIP3    H227601   5.539   6.286   5.651
 9220TIP3   OH227602   6.511   2.279   1.185
 9220TIP3    H127603   6.538   2.287   1.093
 9220TIP3    H227604   6.583   2.232   1.227
 9221TIP3   OH227605   6.571   1.638   5.310
 9221TIP3    H127606   6.524   1.557   5.287
 9221TIP3    H227607   6.575   1.638   5.405
 9222TIP3   OH227608   3.032   4.016   1.799
 9222TIP3    H127609   3.120   3.996   1.831
 9222TIP3    H227610   3.035   3.997   1.706
 9223TIP3   OH227611   7.576   3.392   2.870
 9223TIP3    H127612   7.585   3.454   2.943
 9223TIP3    H227613   7.654   3.406   2.816
 9224TIP3   OH227614   0.201   2.153   4.160
 9224TIP3    H127615   0.157   2.221   4.210
 9224TIP3    H227616   0.252   2.201   4.094
 9225TIP3   OH227617   2.832   2.898   1.141
 9225TIP3    H127618   2.879   2.823   1.102
 9225TIP3    H227619   2.878   2.975   1.107
 9226TIP3   OH227620   4.463   7.742   0.909
 9226TIP3    H127621   4.553   7.775   0.907
 9226TIP3    H227622   4.441   7.723   0.818
 9227TIP3   OH227623   4.111   0.311   1.806
 9227TIP3    H127624   4.195   0.339   1.842
 9227TIP3    H227625   4.110   0.216   1.817
 9228TIP3   OH227626   3.699   3.542   2.200
 9228TIP3    H127627   3.697   3.635   2.222
 9228TIP3    H227628   3.779   3.532   2.148
 9229TIP3   OH227629   4.823   6.049   6.317
 9229TIP3    H127630   4.873   5.977   6.278
 9229TIP3    H227631   4.887   6.119   6.330
 9230TIP3   OH227632   3.605   4.530   0.974
 9230TIP3    H127633   3.572   4.494   1.057
 9230TIP3    H227634   3.689   4.569   0.998
 9231TIP3   OH227635   1.973   5.757   4.834
 9231TIP3    H127636   1.960   5.682   4.776
 9231TIP3    H227637   1.934   5.831   4.788
 9232TIP3   OH227638   2.923   0.624   3.964
 9232TIP3    H127639   2.923   0.718   3.983
 9232TIP3    H227640   3.010   0.594   3.990
 9233TIP3   OH227641   8.077   1.104   5.194
 9233TIP3    H127642   8.108   1.041   5.128
 9233TIP3    H227643   7.996   1.139   5.158
 9234TIP3   OH227644   0.197   1.774   1.063
 9234TIP3    H127645   0.129   1.708   1.049
 9234TIP3    H227646   0.163   1.852   1.018
 9235TIP3   OH227647   4.575   6.105   3.700
 9235TIP3    H127648   4.557   6.011   3.701
 9235TIP3    H227649   4.583   6.128   3.793
 9236TIP3   OH227650   0.925   2.614  -0.003
 9236TIP3    H127651   0.940   2.598   0.090
 9236TIP3    H227652   0.935   2.529  -0.044
 9237TIP3   OH227653   7.678   6.117   6.450
 9237TIP3    H127654   7.769   6.089   6.446
 9237TIP3    H227655   7.629   6.037   6.471
 9238TIP3   OH227656   6.205   4.530   3.542
 9238TIP3    H127657   6.298   4.549   3.535
 9238TIP3    H227658   6.172   4.592   3.608
 9239TIP3   OH227659   3.077   4.424   6.760
 9239TIP3    H127660   3.109   4.376   6.683
 9239TIP3    H227661   3.070   4.357   6.829
 9240TIP3   OH227662   5.918   6.105   5.199
 9240TIP3    H127663   5.922   6.041   5.271
 9240TIP3    H227664   5.938   6.054   5.121
 9241TIP3   OH227665   4.151   7.668   6.652
 9241TIP3    H127666   4.077   7.709   6.608
 9241TIP3    H227667   4.134   7.574   6.647
 9242TIP3   OH227668   7.239   0.246   1.494
 9242TIP3    H127669   7.317   0.204   1.530
 9242TIP3    H227670   7.166   0.196   1.530
 9243TIP3   OH227671   0.787   4.558   1.750
 9243TIP3    H127672   0.869   4.509   1.761
 9243TIP3    H227673   0.790   4.627   1.816
 9244TIP3   OH227674   3.958   2.243   4.625
 9244TIP3    H127675   4.002   2.329   4.625
 9244TIP3    H227676   3.938   2.226   4.717
 9245TIP3   OH227677   0.342   3.890   1.188
 9245TIP3    H127678   0.318   3.906   1.279
 9245TIP3    H227679   0.417   3.948   1.172
 9246TIP3   OH227680   5.568   5.204   0.802
 9246TIP3    H127681   5.525   5.122   0.825
 9246TIP3    H227682   5.563   5.258   0.882
 9247TIP3   OH227683   5.096   5.661   3.134
 9247TIP3    H127684   5.113   5.730   3.070
 9247TIP3    H227685   5.124   5.698   3.217
 9248TIP3   OH227686   2.071   3.140   4.593
 9248TIP3    H127687   2.145   3.192   4.561
 9248TIP3    H227688   1.994   3.179   4.551
 9249TIP3   OH227689   0.769   0.590   4.622
 9249TIP3    H127690   0.679   0.613   4.645
 9249TIP3    H227691   0.807   0.672   4.589
 9250TIP3   OH227692   5.036   0.667   0.695
 9250TIP3    H127693   4.956   0.662   0.748
 9250TIP3    H227694   5.034   0.588   0.641
 9251TIP3   OH227695   5.337   2.333   0.151
 9251TIP3    H127696   5.430   2.308   0.158
 9251TIP3    H227697   5.331   2.381   0.068
 9252TIP3   OH227698   8.017   7.079   4.577
 9252TIP3    H127699   7.940   7.088   4.633
 9252TIP3    H227700   8.087   7.121   4.627
 9253TIP3   OH227701   1.217   6.681   2.675
 9253TIP3    H127702   1.258   6.739   2.739
 9253TIP3    H227703   1.287   6.657   2.615
 9254TIP3   OH227704   7.083   6.146   2.442
 9254TIP3    H127705   7.068   6.241   2.452
 9254TIP3    H227706   7.040   6.108   2.518
 9255TIP3   OH227707   6.245   0.101   1.649
 9255TIP3    H127708   6.304   0.026   1.648
 9255TIP3    H227709   6.302   0.177   1.638
 9256TIP3   OH227710   0.921   3.648   4.402
 9256TIP3    H127711   0.993   3.665   4.462
 9256TIP3    H227712   0.896   3.557   4.420
 9257TIP3   OH227713   3.990   5.103   1.987
 9257TIP3    H127714   3.921   5.079   2.049
 9257TIP3    H227715   3.944   5.115   1.904
 9258TIP3   OH227716   3.629   7.543   4.374
 9258TIP3    H127717   3.662   7.457   4.350
 9258TIP3    H227718   3.535   7.530   4.387
 9259TIP3   OH227719   5.977   7.355   3.848
 9259TIP3    H127720   5.891   7.346   3.806
 9259TIP3    H227721   6.026   7.278   3.817
 9260TIP3   OH227722   1.885   2.672   5.232
 9260TIP3    H127723   1.918   2.706   5.149
 9260TIP3    H227724   1.960   2.627   5.271
 9261TIP3   OH227725   2.135   3.541   6.618
 9261TIP3    H127726   2.143   3.569   6.709
 9261TIP3    H227727   2.115   3.448   6.623
 9262TIP3   OH227728   4.097   2.226   3.193
 9262TIP3    H127729   4.064   2.154   3.247
 9262TIP3    H227730   4.184   2.197   3.165
 9263TIP3   OH227731   6.243   5.329   1.769
 9263TIP3    H127732   6.239   5.389   1.694
 9263TIP3    H227733   6.152   5.305   1.785
 9264TIP3   OH227734   1.291   1.306   2.664
 9264TIP3    H127735   1.365   1.315   2.724
 9264TIP3    H227736   1.226   1.257   2.714
 9265TIP3   OH227737   3.543   0.776   3.003
 9265TIP3    H127738   3.458   0.784   3.047
 9265TIP3    H227739   3.591   0.854   3.029
 9266TIP3   OH227740   5.363   4.972   2.621
 9266TIP3    H127741   5.307   4.944   2.549
 9266TIP3    H227742   5.412   4.893   2.645
 9267TIP3   OH227743   6.449   5.330   2.541
 9267TIP3    H127744   6.435   5.317   2.448
 9267TIP3    H227745   6.544   5.329   2.552
 9268TIP3   OH227746   1.105   5.034   2.243
 9268TIP3    H127747   1.184   5.088   2.243
 9268TIP3    H227748   1.126   4.959   2.298
 9269TIP3   OH227749   1.218   6.746   4.264
 9269TIP3    H127750   1.311   6.726   4.278
 9269TIP3    H227751   1.173   6.663   4.278
 9270TIP3   OH227752   6.749   3.476   4.451
 9270TIP3    H127753   6.790   3.551   4.408
 9270TIP3    H227754   6.658   3.479   4.424
 9271TIP3   OH227755   5.760   2.722   1.868
 9271TIP3    H127756   5.667   2.713   1.888
 9271TIP3    H227757   5.786   2.803   1.911
 9272TIP3   OH227758   1.477   0.581   1.715
 9272TIP3    H127759   1.491   0.650   1.780
 9272TIP3    H227760   1.560   0.576   1.668
 9273TIP3   OH227761   5.203   1.948   2.603
 9273TIP3    H127762   5.293   1.981   2.605
 9273TIP3    H227763   5.198   1.887   2.676
 9274TIP3   OH227764   5.734   1.982   1.884
 9274TIP3    H127765   5.730   2.019   1.796
 9274TIP3    H227766   5.798   1.911   1.877
 9275TIP3   OH227767   7.957   1.997   4.423
 9275TIP3    H127768   8.039   2.041   4.398
 9275TIP3    H227769   7.978   1.904   4.419
 9276TIP3   OH227770   0.678   5.641   5.024
 9276TIP3    H127771   0.603   5.700   5.015
 9276TIP3    H227772   0.639   5.554   5.035
 9277TIP3   OH227773   5.260   2.066   0.977
 9277TIP3    H127774   5.223   2.103   0.896
 9277TIP3    H227775   5.301   1.984   0.950
 9278TIP3   OH227776   1.570   0.030   6.704
 9278TIP3    H127777   1.612   0.116   6.702
 9278TIP3    H227778   1.518   0.026   6.624
 9279TIP3   OH227779   7.143   2.479   5.982
 9279TIP3    H127780   7.098   2.396   5.999
 9279TIP3    H227781   7.162   2.477   5.889
 9280TIP3   OH227782   2.830   3.113   2.612
 9280TIP3    H127783   2.785   3.191   2.580
 9280TIP3    H227784   2.922   3.137   2.616
 9281TIP3   OH227785   3.055   6.147   5.175
 9281TIP3    H127786   3.125   6.105   5.224
 9281TIP3    H227787   2.995   6.075   5.152
 9282TIP3   OH227788   4.958   0.551   0.189
 9282TIP3    H127789   5.028   0.485   0.188
 9282TIP3    H227790   4.992   0.621   0.245
 9283TIP3   OH227791   6.350   5.277   4.424
 9283TIP3    H127792   6.288   5.256   4.495
 9283TIP3    H227793   6.393   5.357   4.453
 9284TIP3   OH227794   8.164   7.020   1.791
 9284TIP3    H127795   8.131   6.951   1.848
 9284TIP3    H227796   8.104   7.022   1.717
 9285TIP3   OH227797   2.169   6.946   1.899
 9285TIP3    H127798   2.248   6.997   1.915
 9285TIP3    H227799   2.196   6.878   1.838
 9286TIP3   OH227800   8.066   7.595   5.597
 9286TIP3    H127801   8.018   7.647   5.662
 9286TIP3    H227802   8.066   7.506   5.632
 9287TIP3   OH227803   8.188   4.243   1.523
 9287TIP3    H127804   8.133   4.220   1.598
 9287TIP3    H227805   8.271   4.199   1.539
 9288TIP3   OH227806   7.284   0.977   5.554
 9288TIP3    H127807   7.257   1.053   5.606
 9288TIP3    H227808   7.247   0.902   5.600
 9289TIP3   OH227809   7.295   6.897   0.173
 9289TIP3    H127810   7.232   6.864   0.109
 9289TIP3    H227811   7.312   6.823   0.231
 9290TIP3   OH227812   0.377   6.718   5.381
 9290TIP3    H127813   0.283   6.700   5.386
 9290TIP3    H227814   0.418   6.639   5.415
 9291TIP3   OH227815   0.039   4.536   0.556
 9291TIP3    H127816   0.117   4.564   0.602
 9291TIP3    H227817  -0.025   4.517   0.625
 9292TIP3   OH227818   0.356   0.704   1.381
 9292TIP3    H127819   0.304   0.654   1.445
 9292TIP3    H227820   0.317   0.683   1.297
 9293TIP3   OH227821   4.847   6.073   0.327
 9293TIP3    H127822   4.846   5.983   0.360
 9293TIP3    H227823   4.913   6.072   0.258
 9294TIP3   OH227824   2.202   6.241   1.521
 9294TIP3    H127825   2.187   6.157   1.563
 9294TIP3    H227826   2.115   6.274   1.500
 9295TIP3   OH227827   4.426   4.989   5.166
 9295TIP3    H127828   4.336   5.020   5.154
 9295TIP3    H227829   4.427   4.953   5.255
 9296TIP3   OH227830   5.807   7.220   5.872
 9296TIP3    H127831   5.864   7.295   5.890
 9296TIP3    H227832   5.796   7.177   5.957
 9297TIP3   OH227833   3.599   1.677   2.445
 9297TIP3    H127834   3.588   1.713   2.357
 9297TIP3    H227835   3.603   1.753   2.502
 9298TIP3   OH227836   6.711   5.841   3.260
 9298TIP3    H127837   6.641   5.900   3.233
 9298TIP3    H227838   6.791   5.879   3.224
 9299TIP3   OH227839   2.426   6.141   2.604
 9299TIP3    H127840   2.370   6.219   2.608
 9299TIP3    H227841   2.506   6.171   2.561
 9300TIP3   OH227842   2.524   3.318   3.985
 9300TIP3    H127843   2.575   3.380   4.037
 9300TIP3    H227844   2.509   3.361   3.901
 9301TIP3   OH227845   1.646   2.139   4.490
 9301TIP3    H127846   1.550   2.138   4.492
 9301TIP3    H227847   1.668   2.141   4.397
 9302TIP3   OH227848   7.024   6.042   2.682
 9302TIP3    H127849   6.986   5.955   2.673
 9302TIP3    H227850   6.978   6.081   2.756
 9303TIP3   OH227851   3.889   3.702   1.184
 9303TIP3    H127852   3.984   3.692   1.188
 9303TIP3    H227853   3.867   3.691   1.092
 9304TIP3   OH227854   0.720   1.947   3.569
 9304TIP3    H127855   0.665   1.887   3.519
 9304TIP3    H227856   0.677   1.953   3.655
 9305TIP3   OH227857   7.083   4.025   4.111
 9305TIP3    H127858   7.024   3.977   4.054
 9305TIP3    H227859   7.164   3.974   4.110
 9306TIP3   OH227860   8.061   3.383   0.910
 9306TIP3    H127861   8.121   3.453   0.937
 9306TIP3    H227862   8.017   3.418   0.833
 9307TIP3   OH227863   0.941   7.241   4.047
 9307TIP3    H127864   0.940   7.246   3.951
 9307TIP3    H227865   0.899   7.323   4.075
 9308TIP3   OH227866   1.836   3.715   3.059
 9308TIP3    H127867   1.873   3.661   3.128
 9308TIP3    H227868   1.777   3.775   3.104
 9309TIP3   OH227869   2.975   3.378   6.455
 9309TIP3    H127870   3.003   3.327   6.531
 9309TIP3    H227871   2.886   3.407   6.477
 9310TIP3   OH227872   3.589   0.988   5.685
 9310TIP3    H127873   3.684   0.980   5.671
 9310TIP3    H227874   3.568   0.914   5.742
 9311TIP3   OH227875   2.015   3.922   2.582
 9311TIP3    H127876   1.935   3.900   2.630
 9311TIP3    H227877   2.079   3.945   2.650
 9312TIP3   OH227878   0.039   1.024   6.340
 9312TIP3    H127879  -0.043   1.046   6.298
 9312TIP3    H227880   0.015   0.962   6.409
 9313TIP3   OH227881   7.333   7.332   4.471
 9313TIP3    H127882   7.365   7.342   4.381
 9313TIP3    H227883   7.333   7.421   4.507
 9314TIP3   OH227884   7.676   6.894   1.039
 9314TIP3    H127885   7.755   6.839   1.033
 9314TIP3    H227886   7.605   6.839   1.007
 9315TIP3   OH227887   1.491   2.545   5.996
 9315TIP3    H127888   1.517   2.589   5.915
 9315TIP3    H227889   1.568   2.550   6.052
 9316TIP3   OH227890   4.671   2.782   1.653
 9316TIP3    H127891   4.746   2.723   1.659
 9316TIP3    H227892   4.703   2.866   1.686
 9317TIP3   OH227893   5.181   5.831   5.580
 9317TIP3    H127894   5.087   5.814   5.585
 9317TIP3    H227895   5.221   5.744   5.575
 9318TIP3   OH227896   1.564   3.084   4.398
 9318TIP3    H127897   1.509   3.025   4.345
 9318TIP3    H227898   1.507   3.111   4.470
 9319TIP3   OH227899   0.762   6.807   4.993
 9319TIP3    H127900   0.713   6.883   4.961
 9319TIP3    H227901   0.784   6.830   5.084
 9320TIP3   OH227902   2.274   7.691   1.859
 9320TIP3    H127903   2.252   7.748   1.785
 9320TIP3    H227904   2.361   7.657   1.838
 9321TIP3   OH227905   4.985   7.057   1.536
 9321TIP3    H127906   5.074   7.083   1.560
 9321TIP3    H227907   4.932   7.134   1.553
 9322TIP3   OH227908   0.121   6.349   3.240
 9322TIP3    H127909   0.088   6.293   3.169
 9322TIP3    H227910   0.067   6.428   3.235
 9323TIP3   OH227911   1.886   4.752   0.498
 9323TIP3    H127912   1.802   4.790   0.526
 9323TIP3    H227913   1.931   4.824   0.453
 9324TIP3   OH227914   7.206   2.267   3.369
 9324TIP3    H127915   7.205   2.331   3.441
 9324TIP3    H227916   7.241   2.187   3.409
 9325TIP3   OH227917   3.190   0.728   4.202
 9325TIP3    H127918   3.285   0.721   4.196
 9325TIP3    H227919   3.174   0.787   4.275
 9326TIP3   OH227920   7.087   3.121   0.538
 9326TIP3    H127921   7.090   3.160   0.625
 9326TIP3    H227922   7.025   3.177   0.490
 9327TIP3   OH227923   0.306   1.702   2.207
 9327TIP3    H127924   0.247   1.758   2.156
 9327TIP3    H227925   0.358   1.763   2.259
 9328TIP3   OH227926   1.369   2.756   6.626
 9328TIP3    H127927   1.325   2.822   6.681
 9328TIP3    H227928   1.343   2.778   6.537
 9329TIP3   OH227929   5.022   3.045   5.970
 9329TIP3    H127930   5.039   2.958   6.005
 9329TIP3    H227931   5.097   3.063   5.913
 9330TIP3   OH227932   7.160   0.251   5.748
 9330TIP3    H127933   7.129   0.260   5.839
 9330TIP3    H227934   7.100   0.187   5.709
 9331TIP3   OH227935   7.118   6.312   2.986
 9331TIP3    H127936   7.121   6.370   3.063
 9331TIP3    H227937   7.077   6.232   3.019
 9332TIP3   OH227938   5.703   4.991   5.381
 9332TIP3    H127939   5.756   5.067   5.403
 9332TIP3    H227940   5.766   4.926   5.348
 9333TIP3   OH227941   1.924   3.862   0.064
 9333TIP3    H127942   1.891   3.898   0.146
 9333TIP3    H227943   1.846   3.832   0.017
 9334TIP3   OH227944   3.124   1.337   3.668
 9334TIP3    H127945   3.205   1.383   3.689
 9334TIP3    H227946   3.055   1.400   3.689
 9335TIP3   OH227947   0.177   3.772   5.062
 9335TIP3    H127948   0.146   3.830   4.992
 9335TIP3    H227949   0.227   3.830   5.120
 9336TIP3   OH227950   0.336   5.234   0.716
 9336TIP3    H127951   0.421   5.276   0.725
 9336TIP3    H227952   0.340   5.158   0.774
 9337TIP3   OH227953   1.524   5.489   2.225
 9337TIP3    H127954   1.494   5.557   2.284
 9337TIP3    H227955   1.577   5.431   2.280
 9338TIP3   OH227956   3.769   6.983   3.593
 9338TIP3    H127957   3.692   6.972   3.650
 9338TIP3    H227958   3.779   7.078   3.585
 9339TIP3   OH227959   4.774   4.204   0.677
 9339TIP3    H127960   4.737   4.211   0.589
 9339TIP3    H227961   4.732   4.275   0.726
 9340TIP3   OH227962   5.283   0.588   2.524
 9340TIP3    H127963   5.234   0.569   2.444
 9340TIP3    H227964   5.237   0.661   2.564
 9341TIP3   OH227965   5.018   1.604   0.787
 9341TIP3    H127966   5.009   1.687   0.834
 9341TIP3    H227967   5.101   1.611   0.741
 9342TIP3   OH227968   7.676   3.127   4.945
 9342TIP3    H127969   7.643   3.038   4.933
 9342TIP3    H227970   7.770   3.115   4.959
 9343TIP3   OH227971   3.421   1.977   0.018
 9343TIP3    H127972   3.351   1.948   0.077
 9343TIP3    H227973   3.443   2.065   0.048
 9344TIP3   OH227974   5.777   0.591   4.485
 9344TIP3    H127975   5.795   0.509   4.438
 9344TIP3    H227976   5.789   0.660   4.420
 9345TIP3   OH227977   5.747   4.985   5.048
 9345TIP3    H127978   5.789   4.964   4.964
 9345TIP3    H227979   5.664   4.937   5.045
 9346TIP3   OH227980   5.734   7.789   5.969
 9346TIP3    H127981   5.646   7.751   5.969
 9346TIP3    H227982   5.744   7.824   6.058
 9347TIP3   OH227983   1.924   1.848   1.934
 9347TIP3    H127984   1.995   1.833   1.996
 9347TIP3    H227985   1.849   1.871   1.988
 9348TIP3   OH227986   6.756   5.960   2.511
 9348TIP3    H127987   6.770   6.030   2.574
 9348TIP3    H227988   6.838   5.911   2.511
 9349TIP3   OH227989   0.074   6.014   3.629
 9349TIP3    H127990   0.077   6.096   3.679
 9349TIP3    H227991   0.096   6.040   3.539
 9350TIP3   OH227992   4.052   2.811   3.662
 9350TIP3    H127993   4.035   2.746   3.595
 9350TIP3    H227994   4.111   2.875   3.621
 9351TIP3   OH227995   6.785   2.933   4.747
 9351TIP3    H127996   6.772   2.910   4.655
 9351TIP3    H227997   6.816   3.023   4.745
 9352TIP3   OH227998   3.848   6.157   2.306
 9352TIP3    H127999   3.934   6.171   2.346
 9352TIP3    H228000   3.866   6.153   2.212
 9353TIP3   OH228001   3.793   5.493   3.086
 9353TIP3    H128002   3.823   5.409   3.121
 9353TIP3    H228003   3.867   5.528   3.038
 9354TIP3   OH228004   5.506   6.329   6.202
 9354TIP3    H128005   5.493   6.385   6.278
 9354TIP3    H228006   5.418   6.317   6.166
 9355TIP3   OH228007   6.221   3.877   1.693
 9355TIP3    H128008   6.196   3.929   1.617
 9355TIP3    H228009   6.273   3.805   1.656
 9356TIP3   OH228010   5.443   1.259   5.566
 9356TIP3    H128011   5.526   1.263   5.613
 9356TIP3    H228012   5.398   1.340   5.588
 9357TIP3   OH228013   2.450   6.296   1.399
 9357TIP3    H128014   2.356   6.282   1.410
 9357TIP3    H228015   2.480   6.218   1.353
 9358TIP3   OH228016   3.557   0.064   2.040
 9358TIP3    H128017   3.568  -0.008   2.102
 9358TIP3    H228018   3.494   0.123   2.083
 9359TIP3   OH228019   5.061   6.083   5.134
 9359TIP3    H128020   5.148   6.050   5.158
 9359TIP3    H228021   5.074   6.177   5.119
 9360TIP3   OH228022   0.230   0.158   3.384
 9360TIP3    H128023   0.296   0.201   3.438
 9360TIP3    H228024   0.229   0.067   3.414
 9361TIP3   OH228025   1.110   3.014   1.195
 9361TIP3    H128026   1.090   2.923   1.171
 9361TIP3    H228027   1.163   3.047   1.123
 9362TIP3   OH228028   6.787   7.079   5.534
 9362TIP3    H128029   6.715   7.135   5.563
 9362TIP3    H228030   6.866   7.128   5.557
 9363TIP3   OH228031   5.917   3.727   1.579
 9363TIP3    H128032   5.978   3.660   1.548
 9363TIP3    H228033   5.895   3.700   1.668
 9364TIP3   OH228034   3.557   4.706   3.454
 9364TIP3    H128035   3.538   4.614   3.473
 9364TIP3    H228036   3.485   4.733   3.397
 9365TIP3   OH228037   3.223   7.414   2.377
 9365TIP3    H128038   3.242   7.359   2.301
 9365TIP3    H228039   3.292   7.480   2.376
 9366TIP3   OH228040   3.026   2.477   4.708
 9366TIP3    H128041   3.098   2.513   4.760
 9366TIP3    H228042   2.950   2.479   4.766
 9367TIP3   OH228043   7.560   3.366   0.053
 9367TIP3    H128044   7.541   3.409   0.137
 9367TIP3    H228045   7.501   3.292   0.050
 9368TIP3   OH228046   5.168   7.301   0.540
 9368TIP3    H128047   5.233   7.235   0.564
 9368TIP3    H228048   5.215   7.385   0.547
 9369TIP3   OH228049   7.703   4.339   2.413
 9369TIP3    H128050   7.773   4.359   2.350
 9369TIP3    H228051   7.737   4.371   2.497
 9370TIP3   OH228052   7.449   4.746   1.825
 9370TIP3    H128053   7.497   4.828   1.812
 9370TIP3    H228054   7.397   4.762   1.904
 9371TIP3   OH228055   1.482   3.147   1.383
 9371TIP3    H128056   1.394   3.173   1.355
 9371TIP3    H228057   1.497   3.196   1.464
 9372TIP3   OH228058   1.883   6.036   3.969
 9372TIP3    H128059   1.795   6.005   3.947
 9372TIP3    H228060   1.887   6.124   3.932
 9373TIP3   OH228061   5.985   5.236   6.744
 9373TIP3    H128062   5.969   5.236   6.649
 9373TIP3    H228063   5.973   5.145   6.770
 9374TIP3   OH228064   2.173   0.869   1.592
 9374TIP3    H128065   2.154   0.911   1.676
 9374TIP3    H228066   2.132   0.783   1.598
 9375TIP3   OH228067   3.417   6.422   1.121
 9375TIP3    H128068   3.405   6.517   1.111
 9375TIP3    H228069   3.379   6.402   1.206
 9376TIP3   OH228070   6.897   2.901   3.177
 9376TIP3    H128071   6.986   2.933   3.190
 9376TIP3    H228072   6.856   2.964   3.118
 9377TIP3   OH228073   5.355   0.203   4.774
 9377TIP3    H128074   5.422   0.245   4.721
 9377TIP3    H228075   5.274   0.249   4.752
 9378TIP3   OH228076   1.605   7.585   3.508
 9378TIP3    H128077   1.537   7.581   3.441
 9378TIP3    H228078   1.604   7.498   3.548
 9379TIP3   OH228079   2.691   0.050   6.405
 9379TIP3    H128080   2.663  -0.014   6.471
 9379TIP3    H228081   2.768   0.010   6.364
 9380TIP3   OH228082   6.830   2.801   6.069
 9380TIP3    H128083   6.907   2.751   6.098
 9380TIP3    H228084   6.757   2.762   6.117
 9381TIP3   OH228085   4.416   5.877   5.011
 9381TIP3    H128086   4.446   5.900   5.099
 9381TIP3    H228087   4.488   5.826   4.974
 9382TIP3   OH228088   0.471   7.304   3.879
 9382TIP3    H128089   0.437   7.244   3.812
 9382TIP3    H228090   0.481   7.249   3.957
 9383TIP3   OH228091   0.487   3.476   0.420
 9383TIP3    H128092   0.483   3.397   0.367
 9383TIP3    H228093   0.557   3.528   0.381
 9384TIP3   OH228094   2.755   1.508   0.472
 9384TIP3    H128095   2.736   1.585   0.527
 9384TIP3    H228096   2.671   1.464   0.462
 9385TIP3   OH228097   0.492   7.715   5.013
 9385TIP3    H128098   0.493   7.810   5.016
 9385TIP3    H228099   0.523   7.688   5.100
 9386TIP3   OH228100   5.572   7.288   1.894
 9386TIP3    H128101   5.618   7.204   1.891
 9386TIP3    H228102   5.639   7.353   1.873
 9387TIP3   OH228103   3.866   4.571   4.440
 9387TIP3    H128104   3.833   4.650   4.483
 9387TIP3    H228105   3.906   4.520   4.511
 9388TIP3   OH228106   3.803   4.373   0.468
 9388TIP3    H128107   3.807   4.410   0.380
 9388TIP3    H228108   3.889   4.333   0.482
 9389TIP3   OH228109   3.185   4.687   5.893
 9389TIP3    H128110   3.219   4.617   5.949
 9389TIP3    H228111   3.222   4.767   5.929
 9390TIP3   OH228112   6.706   2.673   6.282
 9390TIP3    H128113   6.651   2.614   6.231
 9390TIP3    H228114   6.702   2.639   6.371
 9391TIP3   OH228115   3.630   2.149   1.740
 9391TIP3    H128116   3.578   2.070   1.753
 9391TIP3    H228117   3.602   2.183   1.656
 9392TIP3   OH228118   5.336   1.025   6.206
 9392TIP3    H128119   5.402   0.991   6.145
 9392TIP3    H228120   5.338   0.965   6.280
 9393TIP3   OH228121   3.433   4.073   1.684
 9393TIP3    H128122   3.516   4.113   1.660
 9393TIP3    H228123   3.370   4.107   1.620
 9394TIP3   OH228124   6.464   6.704   2.743
 9394TIP3    H128125   6.464   6.632   2.680
 9394TIP3    H228126   6.434   6.665   2.825
 9395TIP3   OH228127   3.594   2.665   2.471
 9395TIP3    H128128   3.614   2.758   2.461
 9395TIP3    H228129   3.501   2.657   2.450
 9396TIP3   OH228130   3.355   7.606   0.454
 9396TIP3    H128131   3.318   7.664   0.520
 9396TIP3    H228132   3.334   7.648   0.371
 9397TIP3   OH228133   2.960   6.569   0.656
 9397TIP3    H128134   2.979   6.645   0.710
 9397TIP3    H228135   2.867   6.579   0.632
 9398TIP3   OH228136   7.856   5.987   4.044
 9398TIP3    H128137   7.894   6.035   4.118
 9398TIP3    H228138   7.928   5.933   4.011
 9399TIP3   OH228139   2.328   0.888   1.002
 9399TIP3    H128140   2.383   0.943   0.946
 9399TIP3    H228141   2.286   0.827   0.941
 9400TIP3   OH228142   3.526   1.009   2.650
 9400TIP3    H128143   3.520   1.104   2.658
 9400TIP3    H228144   3.441   0.982   2.615
 9401TIP3   OH228145   4.623   2.331   5.742
 9401TIP3    H128146   4.578   2.254   5.710
 9401TIP3    H228147   4.711   2.325   5.705
 9402TIP3   OH228148   3.384   7.532   6.013
 9402TIP3    H128149   3.380   7.498   6.103
 9402TIP3    H228150   3.477   7.527   5.990
 9403TIP3   OH228151   4.592   5.661   4.328
 9403TIP3    H128152   4.621   5.751   4.311
 9403TIP3    H228153   4.497   5.663   4.310
 9404TIP3   OH228154   2.471   4.784   4.722
 9404TIP3    H128155   2.562   4.797   4.696
 9404TIP3    H228156   2.471   4.701   4.769
 9405TIP3   OH228157   4.055   0.281   0.441
 9405TIP3    H128158   4.087   0.313   0.525
 9405TIP3    H228159   3.961   0.297   0.443
 9406TIP3   OH228160   5.787   7.074   0.650
 9406TIP3    H128161   5.734   7.154   0.647
 9406TIP3    H228162   5.874   7.105   0.674
 9407TIP3   OH228163   1.782   4.277   0.150
 9407TIP3    H128164   1.824   4.333   0.084
 9407TIP3    H228165   1.731   4.214   0.099
 9408TIP3   OH228166   4.249   1.767   3.643
 9408TIP3    H128167   4.199   1.840   3.606
 9408TIP3    H228168   4.298   1.807   3.715
 9409TIP3   OH228169   6.217   5.998   2.727
 9409TIP3    H128170   6.287   6.022   2.666
 9409TIP3    H228171   6.264   5.963   2.804
 9410TIP3   OH228172   6.214   7.572   4.957
 9410TIP3    H128173   6.234   7.524   5.037
 9410TIP3    H228174   6.129   7.614   4.974
 9411TIP3   OH228175   3.294   3.318   3.426
 9411TIP3    H128176   3.285   3.349   3.336
 9411TIP3    H228177   3.341   3.235   3.418
 9412TIP3   OH228178   8.243   4.982   6.068
 9412TIP3    H128179   8.260   4.894   6.100
 9412TIP3    H228180   8.204   5.028   6.142
 9413TIP3   OH228181   3.385   6.550   2.163
 9413TIP3    H128182   3.434   6.610   2.219
 9413TIP3    H228183   3.316   6.515   2.220
 9414TIP3   OH228184   6.288   6.427   0.227
 9414TIP3    H128185   6.323   6.416   0.316
 9414TIP3    H228186   6.245   6.344   0.208
 9415TIP3   OH228187   7.550   3.571   4.164
 9415TIP3    H128188   7.460   3.573   4.197
 9415TIP3    H228189   7.561   3.656   4.121
 9416TIP3   OH228190   3.149   6.462   1.624
 9416TIP3    H128191   3.203   6.532   1.660
 9416TIP3    H228192   3.059   6.492   1.638
 9417TIP3   OH228193   1.329   6.234   4.683
 9417TIP3    H128194   1.345   6.165   4.619
 9417TIP3    H228195   1.320   6.314   4.632
 9418TIP3   OH228196   2.132   1.943   1.481
 9418TIP3    H128197   2.127   1.950   1.577
 9418TIP3    H228198   2.080   1.866   1.459
 9419TIP3   OH228199   4.152   0.716   1.035
 9419TIP3    H128200   4.170   0.625   1.056
 9419TIP3    H228201   4.100   0.713   0.955
 9420TIP3   OH228202   2.928   3.365   3.486
 9420TIP3    H128203   2.924   3.305   3.411
 9420TIP3    H228204   2.936   3.307   3.562
 9421TIP3   OH228205   7.311   1.409   0.694
 9421TIP3    H128206   7.388   1.355   0.711
 9421TIP3    H228207   7.253   1.353   0.642
 9422TIP3   OH228208   6.843   0.610   4.685
 9422TIP3    H128209   6.841   0.703   4.708
 9422TIP3    H228210   6.758   0.593   4.645
 9423TIP3   OH228211   2.296   3.076   0.396
 9423TIP3    H128212   2.260   3.022   0.326
 9423TIP3    H228213   2.382   3.101   0.364
 9424TIP3   OH228214   3.976   1.096   2.628
 9424TIP3    H128215   3.897   1.059   2.667
 9424TIP3    H228216   3.952   1.112   2.537
 9425TIP3   OH228217   5.822   4.504   3.336
 9425TIP3    H128218   5.814   4.432   3.272
 9425TIP3    H228219   5.787   4.468   3.417
 9426TIP3   OH228220   7.105   0.307   1.957
 9426TIP3    H128221   7.132   0.248   1.888
 9426TIP3    H228222   7.160   0.384   1.946
 9427TIP3   OH228223   0.492   7.650   0.540
 9427TIP3    H128224   0.492   7.735   0.495
 9427TIP3    H228225   0.403   7.617   0.529
 9428TIP3   OH228226   5.996   0.183   0.716
 9428TIP3    H128227   5.915   0.206   0.760
 9428TIP3    H228228   6.032   0.266   0.686
 9429TIP3   OH228229   5.928   6.830   1.786
 9429TIP3    H128230   5.990   6.901   1.804
 9429TIP3    H228231   5.983   6.751   1.784
 9430TIP3   OH228232   0.823   7.095   6.527
 9430TIP3    H128233   0.790   7.066   6.612
 9430TIP3    H228234   0.758   7.063   6.464
 9431TIP3   OH228235   1.150   3.329   6.044
 9431TIP3    H128236   1.202   3.409   6.043
 9431TIP3    H228237   1.088   3.341   6.116
 9432TIP3   OH228238   2.484   4.312   1.757
 9432TIP3    H128239   2.394   4.345   1.750
 9432TIP3    H228240   2.536   4.374   1.706
 9433TIP3   OH228241   1.670   3.146   1.193
 9433TIP3    H128242   1.654   3.086   1.121
 9433TIP3    H228243   1.591   3.142   1.247
 9434TIP3   OH228244   4.794   0.377   1.657
 9434TIP3    H128245   4.734   0.443   1.624
 9434TIP3    H228246   4.826   0.333   1.578
 9435TIP3   OH228247   6.832   0.619   5.415
 9435TIP3    H128248   6.866   0.530   5.410
 9435TIP3    H228249   6.909   0.675   5.410
 9436TIP3   OH228250   6.299   0.476   3.621
 9436TIP3    H128251   6.223   0.429   3.654
 9436TIP3    H228252   6.301   0.456   3.527
 9437TIP3   OH228253   1.332   6.058   0.607
 9437TIP3    H128254   1.244   6.095   0.602
 9437TIP3    H228255   1.388   6.131   0.632
 9438TIP3   OH228256   3.610   5.752   1.154
 9438TIP3    H128257   3.551   5.691   1.197
 9438TIP3    H228258   3.591   5.837   1.194
 9439TIP3   OH228259   1.550   0.241   0.148
 9439TIP3    H128260   1.483   0.186   0.108
 9439TIP3    H228261   1.615   0.179   0.182
 9440TIP3   OH228262   6.812   2.225   5.865
 9440TIP3    H128263   6.778   2.219   5.954
 9440TIP3    H228264   6.755   2.289   5.822
 9441TIP3   OH228265   0.789   4.244   6.475
 9441TIP3    H128266   0.811   4.336   6.457
 9441TIP3    H228267   0.874   4.202   6.490
 9442TIP3   OH228268   6.843   7.119   6.178
 9442TIP3    H128269   6.758   7.154   6.149
 9442TIP3    H228270   6.904   7.191   6.163
 9443TIP3   OH228271   3.933   6.322   0.458
 9443TIP3    H128272   3.910   6.394   0.516
 9443TIP3    H228273   3.889   6.246   0.496
 9444TIP3   OH228274   2.475   4.016   1.831
 9444TIP3    H128275   2.395   3.984   1.874
 9444TIP3    H228276   2.465   4.111   1.829
 9445TIP3   OH228277   8.005   0.438   4.295
 9445TIP3    H128278   7.929   0.473   4.250
 9445TIP3    H228279   7.981   0.441   4.388
 9446TIP3   OH228280   5.076   6.883   5.519
 9446TIP3    H128281   5.045   6.878   5.428
 9446TIP3    H228282   5.000   6.916   5.568
 9447TIP3   OH228283   8.210   1.682   4.633
 9447TIP3    H128284   8.129   1.725   4.662
 9447TIP3    H228285   8.232   1.726   4.551
 9448TIP3   OH228286   2.889   0.627   5.161
 9448TIP3    H128287   2.973   0.635   5.208
 9448TIP3    H228288   2.914   0.621   5.069
 9449TIP3   OH228289   4.454   0.520   2.857
 9449TIP3    H128290   4.511   0.597   2.851
 9449TIP3    H228291   4.398   0.526   2.779
 9450TIP3   OH228292   4.729   1.583   5.624
 9450TIP3    H128293   4.703   1.654   5.565
 9450TIP3    H228294   4.686   1.505   5.589
 9451TIP3   OH228295   3.179   1.327   6.461
 9451TIP3    H128296   3.221   1.317   6.376
 9451TIP3    H228297   3.231   1.393   6.506
 9452TIP3   OH228298   7.194   4.342   6.702
 9452TIP3    H128299   7.140   4.282   6.652
 9452TIP3    H228300   7.217   4.294   6.782
 9453TIP3   OH228301   7.709   6.664   0.246
 9453TIP3    H128302   7.673   6.747   0.215
 9453TIP3    H228303   7.689   6.601   0.177
 9454TIP3   OH228304   7.238   1.968   2.571
 9454TIP3    H128305   7.302   2.035   2.595
 9454TIP3    H228306   7.164   1.982   2.631
 9455TIP3   OH228307   7.185   0.237   3.834
 9455TIP3    H128308   7.165   0.146   3.809
 9455TIP3    H228309   7.260   0.261   3.779
 9456TIP3   OH228310   3.055   0.645   2.285
 9456TIP3    H128311   3.034   0.694   2.364
 9456TIP3    H228312   2.971   0.611   2.255
 9457TIP3   OH228313   0.233   7.399   0.658
 9457TIP3    H128314   0.306   7.356   0.614
 9457TIP3    H228315   0.194   7.330   0.713
 9458TIP3   OH228316   2.256   4.009   1.991
 9458TIP3    H128317   2.213   3.923   1.998
 9458TIP3    H228318   2.260   4.041   2.080
 9459TIP3   OH228319   2.391   1.441   2.682
 9459TIP3    H128320   2.364   1.466   2.771
 9459TIP3    H228321   2.394   1.345   2.685
 9460TIP3   OH228322   3.922   3.126   0.879
 9460TIP3    H128323   3.933   3.212   0.920
 9460TIP3    H228324   3.925   3.064   0.952
 9461TIP3   OH228325   2.020   5.593   0.940
 9461TIP3    H128326   2.106   5.575   0.902
 9461TIP3    H228327   2.006   5.687   0.923
 9462TIP3   OH228328   6.197   2.929   1.334
 9462TIP3    H128329   6.176   2.977   1.413
 9462TIP3    H228330   6.238   2.994   1.276
 9463TIP3   OH228331   7.320   3.879   4.110
 9463TIP3    H128332   7.340   3.827   4.032
 9463TIP3    H228333   7.405   3.904   4.145
 9464TIP3   OH228334   5.704   7.532   1.122
 9464TIP3    H128335   5.727   7.459   1.064
 9464TIP3    H228336   5.660   7.595   1.066
 9465TIP3   OH228337   1.907   1.826   3.829
 9465TIP3    H128338   1.940   1.889   3.892
 9465TIP3    H228339   1.888   1.748   3.880
 9466TIP3   OH228340   6.128   0.376   6.192
 9466TIP3    H128341   6.069   0.395   6.119
 9466TIP3    H228342   6.203   0.433   6.178
 9467TIP3   OH228343   8.129   3.093   4.611
 9467TIP3    H128344   8.094   3.122   4.695
 9467TIP3    H228345   8.184   3.017   4.632
 9468TIP3   OH228346   3.391   2.417   2.557
 9468TIP3    H128347   3.409   2.330   2.593
 9468TIP3    H228348   3.455   2.428   2.487
 9469TIP3   OH228349   4.183   2.559   5.791
 9469TIP3    H128350   4.156   2.558   5.883
 9469TIP3    H228351   4.277   2.572   5.794
 9470TIP3   OH228352   2.069   3.081   5.898
 9470TIP3    H128353   2.064   3.048   5.987
 9470TIP3    H228354   1.999   3.035   5.851
 9471TIP3   OH228355   5.803   3.140   0.223
 9471TIP3    H128356   5.761   3.065   0.180
 9471TIP3    H228357   5.864   3.174   0.157
 9472TIP3   OH228358   5.375   1.905   5.321
 9472TIP3    H128359   5.418   1.839   5.267
 9472TIP3    H228360   5.346   1.972   5.258
 9473TIP3   OH228361   3.822   3.365   5.364
 9473TIP3    H128362   3.825   3.428   5.292
 9473TIP3    H228363   3.892   3.302   5.343
 9474TIP3   OH228364   5.234   7.392   6.264
 9474TIP3    H128365   5.257   7.300   6.246
 9474TIP3    H228366   5.162   7.411   6.204
 9475TIP3   OH228367   7.487   3.624   5.471
 9475TIP3    H128368   7.540   3.630   5.391
 9475TIP3    H228369   7.517   3.543   5.513
 9476TIP3   OH228370   6.241   6.595   6.712
 9476TIP3    H128371   6.251   6.508   6.752
 9476TIP3    H228372   6.158   6.589   6.663
 9477TIP3   OH228373   6.559   2.742   5.809
 9477TIP3    H128374   6.504   2.733   5.731
 9477TIP3    H228375   6.647   2.717   5.780
 9478TIP3   OH228376   2.530   2.048   1.775
 9478TIP3    H128377   2.477   2.117   1.736
 9478TIP3    H228378   2.616   2.087   1.787
 9479TIP3   OH228379   3.523   6.732   2.301
 9479TIP3    H128380   3.546   6.663   2.364
 9479TIP3    H228381   3.473   6.795   2.352
 9480TIP3   OH228382   1.880   4.971   5.030
 9480TIP3    H128383   1.835   5.024   4.964
 9480TIP3    H228384   1.849   5.005   5.113
 9481TIP3   OH228385   4.527   7.364   0.881
 9481TIP3    H128386   4.590   7.430   0.851
 9481TIP3    H228387   4.471   7.349   0.805
 9482TIP3   OH228388   7.847   1.042   2.331
 9482TIP3    H128389   7.808   0.968   2.378
 9482TIP3    H228390   7.881   1.003   2.250
 9483TIP3   OH228391   4.699   3.390   5.455
 9483TIP3    H128392   4.647   3.463   5.424
 9483TIP3    H228393   4.663   3.369   5.541
 9484TIP3   OH228394   6.372   4.897   3.674
 9484TIP3    H128395   6.416   4.929   3.596
 9484TIP3    H228396   6.285   4.872   3.645
 9485TIP3   OH228397   6.497   7.620   4.868
 9485TIP3    H128398   6.519   7.678   4.940
 9485TIP3    H228399   6.403   7.604   4.878
 9486TIP3   OH228400   3.004   6.265   2.278
 9486TIP3    H128401   2.939   6.201   2.308
 9486TIP3    H228402   3.051   6.221   2.208
 9487TIP3   OH228403   3.615   4.033   1.963
 9487TIP3    H128404   3.677   4.016   1.892
 9487TIP3    H228405   3.630   4.125   1.986
 9488TIP3   OH228406   8.001   7.206   0.121
 9488TIP3    H128407   7.978   7.135   0.181
 9488TIP3    H228408   8.039   7.162   0.045
 9489TIP3   OH228409   2.685   6.075   1.155
 9489TIP3    H128410   2.778   6.053   1.166
 9489TIP3    H228411   2.642   6.035   1.230
 9490TIP3   OH228412   7.375   5.109   4.921
 9490TIP3    H128413   7.461   5.135   4.887
 9490TIP3    H228414   7.389   5.020   4.955
 9491TIP3   OH228415   1.540   5.246   6.391
 9491TIP3    H128416   1.519   5.316   6.452
 9491TIP3    H228417   1.488   5.171   6.421
 9492TIP3   OH228418   5.862   5.181   6.091
 9492TIP3    H128419   5.932   5.201   6.153
 9492TIP3    H228420   5.895   5.214   6.007
 9493TIP3   OH228421   4.648   6.868   5.733
 9493TIP3    H128422   4.606   6.890   5.816
 9493TIP3    H228423   4.674   6.777   5.742
 9494TIP3   OH228424   4.980   4.554   0.816
 9494TIP3    H128425   4.907   4.518   0.865
 9494TIP3    H228426   4.950   4.641   0.789
 9495TIP3   OH228427   5.454   7.243   2.888
 9495TIP3    H128428   5.375   7.256   2.940
 9495TIP3    H228429   5.502   7.173   2.934
 9496TIP3   OH228430   4.191   2.564   4.012
 9496TIP3    H128431   4.104   2.581   3.975
 9496TIP3    H228432   4.236   2.648   4.006
 9497TIP3   OH228433   2.749   6.950   0.054
 9497TIP3    H128434   2.747   6.923  -0.038
 9497TIP3    H228435   2.680   7.015   0.062
 9498TIP3   OH228436   6.386   6.069   0.640
 9498TIP3    H128437   6.469   6.034   0.673
 9498TIP3    H228438   6.324   6.057   0.711
 9499TIP3   OH228439   5.964   2.654   0.869
 9499TIP3    H128440   6.027   2.634   0.800
 9499TIP3    H228441   6.017   2.665   0.948
 9500TIP3   OH228442   0.465   2.235   5.160
 9500TIP3    H128443   0.512   2.279   5.231
 9500TIP3    H228444   0.532   2.184   5.114
 9501TIP3   OH228445   2.492   7.764   4.840
 9501TIP3    H128446   2.512   7.852   4.808
 9501TIP3    H228447   2.559   7.746   4.906
 9502TIP3   OH228448   7.489   5.481   5.035
 9502TIP3    H128449   7.489   5.413   4.968
 9502TIP3    H228450   7.423   5.451   5.099
 9503TIP3   OH228451   1.171   7.084   6.580
 9503TIP3    H128452   1.236   7.085   6.650
 9503TIP3    H228453   1.142   7.175   6.572
 9504TIP3   OH228454   5.294   1.465   4.234
 9504TIP3    H128455   5.224   1.405   4.207
 9504TIP3    H228456   5.352   1.469   4.158
 9505TIP3   OH228457   7.506   7.347   1.979
 9505TIP3    H128458   7.446   7.353   2.053
 9505TIP3    H228459   7.552   7.264   1.993
 9506TIP3   OH228460   8.003   0.590   1.226
 9506TIP3    H128461   7.983   0.497   1.227
 9506TIP3    H228462   7.951   0.625   1.153
 9507TIP3   OH228463   5.617   2.721   1.309
 9507TIP3    H128464   5.701   2.756   1.279
 9507TIP3    H228465   5.616   2.738   1.403
 9508TIP3   OH228466   3.468   1.144   3.445
 9508TIP3    H128467   3.542   1.126   3.502
 9508TIP3    H228468   3.452   1.238   3.455
 9509TIP3   OH228469   8.275   7.793   2.031
 9509TIP3    H128470   8.206   7.761   2.090
 9509TIP3    H228471   8.253   7.885   2.017
 9510TIP3   OH228472   6.134   1.296   0.571
 9510TIP3    H128473   6.138   1.344   0.488
 9510TIP3    H228474   6.216   1.246   0.573
 9511TIP3   OH228475   0.608   1.619   6.255
 9511TIP3    H128476   0.625   1.554   6.323
 9511TIP3    H228477   0.655   1.697   6.284
 9512TIP3   OH228478   5.893   7.521   5.408
 9512TIP3    H128479   5.957   7.590   5.424
 9512TIP3    H228480   5.816   7.567   5.374
 9513TIP3   OH228481   4.740   3.902   3.755
 9513TIP3    H128482   4.725   3.863   3.669
 9513TIP3    H228483   4.659   3.950   3.774
 9514TIP3   OH228484   3.582   6.852   2.978
 9514TIP3    H128485   3.672   6.880   2.961
 9514TIP3    H228486   3.535   6.934   2.993
 9515TIP3   OH228487   8.207   6.391   0.773
 9515TIP3    H128488   8.232   6.482   0.758
 9515TIP3    H228489   8.134   6.376   0.713
 9516TIP3   OH228490   6.437   4.148   0.658
 9516TIP3    H128491   6.434   4.136   0.563
 9516TIP3    H228492   6.407   4.064   0.694
 9517TIP3   OH228493   5.792   4.852   5.913
 9517TIP3    H128494   5.754   4.919   5.855
 9517TIP3    H228495   5.731   4.779   5.908
 9518TIP3   OH228496   0.444   5.469   5.051
 9518TIP3    H128497   0.504   5.433   5.116
 9518TIP3    H228498   0.362   5.480   5.098
 9519TIP3   OH228499   0.504   0.363   4.500
 9519TIP3    H128500   0.530   0.330   4.586
 9519TIP3    H228501   0.427   0.310   4.477
 9520TIP3   OH228502   3.716   5.600   4.716
 9520TIP3    H128503   3.631   5.618   4.675
 9520TIP3    H228504   3.720   5.504   4.720
 9521TIP3   OH228505   5.254   6.665   4.904
 9521TIP3    H128506   5.338   6.636   4.869
 9521TIP3    H228507   5.271   6.684   4.996
 9522TIP3   OH228508   7.217   1.824   6.350
 9522TIP3    H128509   7.306   1.814   6.383
 9522TIP3    H228510   7.162   1.816   6.428
 9523TIP3   OH228511   5.239   7.560   5.869
 9523TIP3    H128512   5.262   7.653   5.870
 9523TIP3    H228513   5.193   7.548   5.786
 9524TIP3   OH228514   2.972   3.593   6.256
 9524TIP3    H128515   2.990   3.562   6.167
 9524TIP3    H228516   2.945   3.515   6.304
 9525TIP3   OH228517   2.020   7.201   4.468
 9525TIP3    H128518   2.011   7.297   4.471
 9525TIP3    H228519   2.114   7.186   4.471
 9526TIP3   OH228520   7.380   4.547   4.242
 9526TIP3    H128521   7.408   4.612   4.306
 9526TIP3    H228522   7.405   4.463   4.280
 9527TIP3   OH228523   7.548   1.387   2.170
 9527TIP3    H128524   7.501   1.436   2.102
 9527TIP3    H228525   7.589   1.315   2.122
 9528TIP3   OH228526   4.179   4.724   1.280
 9528TIP3    H128527   4.115   4.663   1.316
 9528TIP3    H228528   4.264   4.685   1.302
 9529TIP3   OH228529   4.636   4.240   1.079
 9529TIP3    H128530   4.658   4.333   1.087
 9529TIP3    H228531   4.713   4.200   1.038
 9530TIP3   OH228532   0.551   6.469   3.087
 9530TIP3    H128533   0.557   6.376   3.106
 9530TIP3    H228534   0.461   6.492   3.110
 9531TIP3   OH228535   1.612   0.002   2.384
 9531TIP3    H128536   1.597   0.077   2.442
 9531TIP3    H228537   1.679   0.033   2.323
 9532TIP3   OH228538   5.570   5.457   0.689
 9532TIP3    H128539   5.652   5.486   0.650
 9532TIP3    H228540   5.584   5.365   0.709
 9533TIP3   OH228541   6.052   0.315   1.619
 9533TIP3    H128542   6.132   0.344   1.575
 9533TIP3    H228543   5.995   0.392   1.617
 9534TIP3   OH228544   2.640   6.877   4.474
 9534TIP3    H128545   2.662   6.797   4.522
 9534TIP3    H228546   2.545   6.871   4.460
 9535TIP3   OH228547   4.793   6.610   3.106
 9535TIP3    H128548   4.832   6.598   3.019
 9535TIP3    H228549   4.709   6.652   3.089
 9536TIP3   OH228550   7.838   7.351   1.231
 9536TIP3    H128551   7.856   7.329   1.140
 9536TIP3    H228552   7.912   7.315   1.280
 9537TIP3   OH228553   3.409   2.517   4.383
 9537TIP3    H128554   3.485   2.551   4.431
 9537TIP3    H228555   3.414   2.422   4.392
 9538TIP3   OH228556   1.282   4.013   5.374
 9538TIP3    H128557   1.288   4.102   5.409
 9538TIP3    H228558   1.344   3.962   5.426
 9539TIP3   OH228559   1.093   2.384   1.470
 9539TIP3    H128560   1.009   2.380   1.424
 9539TIP3    H228561   1.080   2.454   1.535
 9540TIP3   OH228562   0.200   4.621   0.271
 9540TIP3    H128563   0.155   4.639   0.353
 9540TIP3    H228564   0.130   4.601   0.209
 9541TIP3   OH228565   5.580   0.962   1.461
 9541TIP3    H128566   5.601   1.024   1.391
 9541TIP3    H228567   5.493   0.986   1.490
 9542TIP3   OH228568   7.685   5.631   6.470
 9542TIP3    H128569   7.679   5.727   6.470
 9542TIP3    H228570   7.770   5.612   6.510
 9543TIP3   OH228571   8.262   0.236   1.339
 9543TIP3    H128572   8.189   0.294   1.316
 9543TIP3    H228573   8.340   0.281   1.306
 9544TIP3   OH228574   7.076   5.597   0.972
 9544TIP3    H128575   7.106   5.611   0.882
 9544TIP3    H228576   7.120   5.665   1.022
 9545TIP3   OH228577   6.608   2.766   3.107
 9545TIP3    H128578   6.675   2.726   3.051
 9545TIP3    H228579   6.658   2.815   3.172
 9546TIP3   OH228580   1.651   6.008   0.001
 9546TIP3    H128581   1.704   5.981   0.076
 9546TIP3    H228582   1.561   6.012   0.035
 9547TIP3   OH228583   4.342   2.131   0.463
 9547TIP3    H128584   4.285   2.181   0.522
 9547TIP3    H228585   4.419   2.113   0.516
 9548TIP3   OH228586   7.971   4.245   2.685
 9548TIP3    H128587   7.934   4.166   2.723
 9548TIP3    H228588   7.895   4.294   2.651
 9549TIP3   OH228589   3.270   2.090   5.298
 9549TIP3    H128590   3.251   2.112   5.389
 9549TIP3    H228591   3.358   2.052   5.299
 9550TIP3   OH228592   6.487   0.900   6.071
 9550TIP3    H128593   6.422   0.878   6.137
 9550TIP3    H228594   6.441   0.958   6.010
 9551TIP3   OH228595   2.100   4.066   0.057
 9551TIP3    H128596   2.048   3.988   0.076
 9551TIP3    H228597   2.159   4.074   0.132
 9552TIP3   OH228598   7.722   6.730   3.339
 9552TIP3    H128599   7.715   6.767   3.251
 9552TIP3    H228600   7.804   6.765   3.374
 9553TIP3   OH228601   1.391   1.046   1.105
 9553TIP3    H128602   1.461   1.111   1.111
 9553TIP3    H228603   1.321   1.082   1.159
 9554TIP3   OH228604   3.227   6.201   4.283
 9554TIP3    H128605   3.312   6.234   4.312
 9554TIP3    H228606   3.164   6.259   4.327
 9555TIP3   OH228607   4.354   5.222   0.870
 9555TIP3    H128608   4.259   5.218   0.862
 9555TIP3    H228609   4.385   5.243   0.782
 9556TIP3   OH228610   1.790   7.091   3.375
 9556TIP3    H128611   1.841   7.157   3.424
 9556TIP3    H228612   1.728   7.057   3.439
 9557TIP3   OH228613   0.887   5.904   3.149
 9557TIP3    H128614   0.858   5.812   3.142
 9557TIP3    H228615   0.806   5.953   3.161
 9558TIP3   OH228616   5.046   1.514   2.008
 9558TIP3    H128617   5.110   1.577   2.042
 9558TIP3    H228618   5.017   1.552   1.925
 9559TIP3   OH228619   2.767   1.041   3.503
 9559TIP3    H128620   2.695   0.991   3.466
 9559TIP3    H228621   2.818   1.071   3.428
 9560TIP3   OH228622   1.771   7.584   2.448
 9560TIP3    H128623   1.760   7.496   2.484
 9560TIP3    H228624   1.697   7.633   2.485
 9561TIP3   OH228625   6.686   3.032   1.612
 9561TIP3    H128626   6.703   2.985   1.531
 9561TIP3    H228627   6.773   3.045   1.651
 9562TIP3   OH228628   4.268   6.264   0.862
 9562TIP3    H128629   4.237   6.256   0.953
 9562TIP3    H228630   4.196   6.228   0.810
 9563TIP3   OH228631   3.229   4.538   4.544
 9563TIP3    H128632   3.177   4.477   4.596
 9563TIP3    H228633   3.182   4.545   4.461
 9564TIP3   OH228634   5.557   4.859   1.713
 9564TIP3    H128635   5.487   4.860   1.778
 9564TIP3    H228636   5.607   4.939   1.730
 9565TIP3   OH228637  -0.008   1.250   4.440
 9565TIP3    H128638   0.043   1.331   4.431
 9565TIP3    H228639   0.029   1.191   4.374
 9566TIP3   OH228640   2.511   6.583   5.180
 9566TIP3    H128641   2.416   6.572   5.179
 9566TIP3    H228642   2.523   6.678   5.173
 9567TIP3   OH228643   3.657   7.430   4.746
 9567TIP3    H128644   3.561   7.425   4.740
 9567TIP3    H228645   3.687   7.342   4.723
 9568TIP3   OH228646   5.040   4.967   3.083
 9568TIP3    H128647   5.089   4.955   3.001
 9568TIP3    H228648   5.080   4.905   3.143
 9569TIP3   OH228649   5.436   2.411   6.418
 9569TIP3    H128650   5.385   2.485   6.388
 9569TIP3    H228651   5.373   2.354   6.463
 9570TIP3   OH228652   1.251   6.543   4.796
 9570TIP3    H128653   1.260   6.616   4.858
 9570TIP3    H228654   1.335   6.540   4.750
 9571TIP3   OH228655   2.328   7.811   5.103
 9571TIP3    H128656   2.419   7.781   5.100
 9571TIP3    H228657   2.301   7.817   5.012
 9572TIP3   OH228658   4.415   1.022   0.355
 9572TIP3    H128659   4.401   1.098   0.410
 9572TIP3    H228660   4.413   0.948   0.415
 9573TIP3   OH228661   2.934   7.063   1.949
 9573TIP3    H128662   2.902   7.071   1.859
 9573TIP3    H228663   3.022   7.101   1.948
 9574TIP3   OH228664   1.696   5.140   4.874
 9574TIP3    H128665   1.649   5.218   4.905
 9574TIP3    H228666   1.685   5.141   4.779
 9575TIP3   OH228667   5.073   5.043   0.106
 9575TIP3    H128668   4.994   4.991   0.092
 9575TIP3    H228669   5.070   5.109   0.037
 9576TIP3   OH228670   4.684   0.210   4.657
 9576TIP3    H128671   4.747   0.198   4.728
 9576TIP3    H228672   4.629   0.131   4.660
 9577TIP3   OH228673   3.251   0.654   0.782
 9577TIP3    H128674   3.314   0.680   0.715
 9577TIP3    H228675   3.304   0.620   0.854
 9578TIP3   OH228676   7.119   3.578   2.351
 9578TIP3    H128677   7.168   3.523   2.412
 9578TIP3    H228678   7.060   3.628   2.406
 9579TIP3   OH228679   2.240   1.620   3.618
 9579TIP3    H128680   2.211   1.631   3.708
 9579TIP3    H228681   2.193   1.542   3.587
 9580TIP3   OH228682   4.437   5.939   0.703
 9580TIP3    H128683   4.362   5.982   0.745
 9580TIP3    H228684   4.401   5.904   0.621
 9581TIP3   OH228685   7.979   5.931   0.720
 9581TIP3    H128686   8.019   5.858   0.673
 9581TIP3    H228687   7.885   5.917   0.711
 9582TIP3   OH228688   4.507   3.892   6.007
 9582TIP3    H128689   4.458   3.887   5.925
 9582TIP3    H228690   4.590   3.849   5.988
 9583TIP3   OH228691   3.634   4.817   4.794
 9583TIP3    H128692   3.576   4.742   4.781
 9583TIP3    H228693   3.576   4.886   4.828
 9584TIP3   OH228694   0.968   5.541   2.790
 9584TIP3    H128695   1.053   5.577   2.764
 9584TIP3    H228696   0.989   5.474   2.856
 9585TIP3   OH228697   6.950   1.162   4.212
 9585TIP3    H128698   6.872   1.123   4.172
 9585TIP3    H228699   6.931   1.163   4.306
 9586TIP3   OH228700   3.240   4.197   5.043
 9586TIP3    H128701   3.146   4.183   5.039
 9586TIP3    H228702   3.265   4.221   4.954
 9587TIP3   OH228703   7.932   4.424   6.282
 9587TIP3    H128704   7.852   4.477   6.285
 9587TIP3    H228705   7.959   4.427   6.190
 9588TIP3   OH228706   7.328   3.211   3.684
 9588TIP3    H128707   7.251   3.157   3.703
 9588TIP3    H228708   7.346   3.196   3.591
 9589TIP3   OH228709   1.103   1.508   0.629
 9589TIP3    H128710   1.127   1.542   0.715
 9589TIP3    H228711   1.061   1.582   0.585
 9590TIP3   OH228712   6.846   2.592   1.783
 9590TIP3    H128713   6.781   2.579   1.852
 9590TIP3    H228714   6.907   2.519   1.794
 9591TIP3   OH228715   6.996   4.238   1.931
 9591TIP3    H128716   6.977   4.235   1.837
 9591TIP3    H228717   6.912   4.262   1.971
 9592TIP3   OH228718   4.533   2.083   0.641
 9592TIP3    H128719   4.600   2.082   0.573
 9592TIP3    H228720   4.582   2.086   0.723
 9593TIP3   OH228721   3.782   1.389   3.290
 9593TIP3    H128722   3.804   1.396   3.197
 9593TIP3    H228723   3.848   1.440   3.335
 9594TIP3   OH228724   2.207   2.540   3.023
 9594TIP3    H128725   2.243   2.588   3.097
 9594TIP3    H228726   2.280   2.532   2.961
 9595TIP3   OH228727   5.152   1.164   0.719
 9595TIP3    H128728   5.134   1.102   0.649
 9595TIP3    H228729   5.247   1.179   0.714
 9596TIP3   OH228730   1.150   3.136   0.464
 9596TIP3    H128731   1.174   3.076   0.534
 9596TIP3    H228732   1.148   3.222   0.506
 9597TIP3   OH228733   6.067   2.890   0.173
 9597TIP3    H128734   6.139   2.858   0.228
 9597TIP3    H228735   6.017   2.811   0.151
 9598TIP3   OH228736   7.339   0.641   4.842
 9598TIP3    H128737   7.275   0.572   4.828
 9598TIP3    H228738   7.418   0.609   4.798
 9599TIP3   OH228739   1.830   6.666   3.439
 9599TIP3    H128740   1.829   6.697   3.349
 9599TIP3    H228741   1.743   6.688   3.473
 9600TIP3   OH228742   6.707   7.000   0.254
 9600TIP3    H128743   6.670   7.082   0.286
 9600TIP3    H228744   6.653   6.977   0.178
 9601TIP3   OH228745   6.572   5.449   2.010
 9601TIP3    H128746   6.485   5.474   2.042
 9601TIP3    H228747   6.573   5.354   2.014
 9602TIP3   OH228748   7.730   4.651   6.276
 9602TIP3    H128749   7.745   4.626   6.367
 9602TIP3    H228750   7.724   4.746   6.277
 9603TIP3   OH228751   4.114   0.911   0.576
 9603TIP3    H128752   4.171   0.841   0.544
 9603TIP3    H228753   4.045   0.918   0.509
 9604TIP3   OH228754   5.824   7.067   4.844
 9604TIP3    H128755   5.903   7.032   4.804
 9604TIP3    H228756   5.752   7.030   4.793
 9605TIP3   OH228757   0.973   3.161   2.796
 9605TIP3    H128758   1.007   3.177   2.708
 9605TIP3    H228759   1.043   3.191   2.854
 9606TIP3   OH228760   0.731   2.571   4.724
 9606TIP3    H128761   0.733   2.500   4.789
 9606TIP3    H228762   0.822   2.587   4.703
 9607TIP3   OH228763   6.717   3.608   5.850
 9607TIP3    H128764   6.752   3.695   5.870
 9607TIP3    H228765   6.787   3.564   5.801
 9608TIP3   OH228766   7.153   5.001   1.892
 9608TIP3    H128767   7.106   4.966   1.815
 9608TIP3    H228768   7.196   4.924   1.930
 9609TIP3   OH228769   7.103   5.634   5.426
 9609TIP3    H128770   7.040   5.584   5.376
 9609TIP3    H228771   7.188   5.609   5.390
 9610TIP3   OH228772   1.941   6.541   4.018
 9610TIP3    H128773   1.974   6.631   4.019
 9610TIP3    H228774   1.960   6.510   3.929
 9611TIP3   OH228775   3.126   4.602   2.580
 9611TIP3    H128776   3.101   4.643   2.497
 9611TIP3    H228777   3.090   4.659   2.647
 9612TIP3   OH228778   2.521   0.884   0.538
 9612TIP3    H128779   2.557   0.817   0.596
 9612TIP3    H228780   2.478   0.946   0.598
 9613TIP3   OH228781   2.570   5.022   5.822
 9613TIP3    H128782   2.629   5.020   5.746
 9613TIP3    H228783   2.612   4.965   5.886
 9614TIP3   OH228784   0.257   5.478   5.227
 9614TIP3    H128785   0.277   5.542   5.294
 9614TIP3    H228786   0.163   5.488   5.211
 9615TIP3   OH228787   2.153   5.724   1.201
 9615TIP3    H128788   2.172   5.643   1.154
 9615TIP3    H228789   2.237   5.752   1.237
 9616TIP3   OH228790   4.601   2.283   2.819
 9616TIP3    H128791   4.594   2.339   2.742
 9616TIP3    H228792   4.567   2.336   2.891
 9617TIP3   OH228793   7.609   2.691   4.592
 9617TIP3    H128794   7.617   2.631   4.666
 9617TIP3    H228795   7.515   2.711   4.586
 9618TIP3   OH228796   7.518   5.048   1.111
 9618TIP3    H128797   7.502   5.008   1.196
 9618TIP3    H228798   7.431   5.055   1.072
 9619TIP3   OH228799   4.266   2.677   2.946
 9619TIP3    H128800   4.201   2.745   2.926
 9619TIP3    H228801   4.284   2.637   2.861
 9620TIP3   OH228802   4.375   0.565   6.563
 9620TIP3    H128803   4.421   0.549   6.646
 9620TIP3    H228804   4.426   0.516   6.498
 9621TIP3   OH228805   8.174   7.408   0.569
 9621TIP3    H128806   8.237   7.340   0.547
 9621TIP3    H228807   8.173   7.466   0.492
 9622TIP3   OH228808   1.204   4.835   2.403
 9622TIP3    H128809   1.158   4.818   2.485
 9622TIP3    H228810   1.275   4.894   2.427
 9623TIP3   OH228811   4.531   1.360   1.320
 9623TIP3    H128812   4.615   1.405   1.331
 9623TIP3    H228813   4.499   1.347   1.409
 9624TIP3   OH228814   0.623   7.471   3.094
 9624TIP3    H128815   0.577   7.512   3.021
 9624TIP3    H228816   0.560   7.473   3.166
 9625TIP3   OH228817   3.573   3.694   6.428
 9625TIP3    H128818   3.589   3.782   6.462
 9625TIP3    H228819   3.478   3.690   6.415
 9626TIP3   OH228820   7.577   3.804   4.535
 9626TIP3    H128821   7.507   3.802   4.470
 9626TIP3    H228822   7.640   3.867   4.500
 9627TIP3   OH228823   2.655   7.452   2.304
 9627TIP3    H128824   2.699   7.447   2.219
 9627TIP3    H228825   2.726   7.455   2.368
 9628TIP3   OH228826   1.554   2.727   4.242
 9628TIP3    H128827   1.514   2.812   4.227
 9628TIP3    H228828   1.647   2.745   4.253
 9629TIP3   OH228829   0.685   1.981   2.285
 9629TIP3    H128830   0.770   2.016   2.314
 9629TIP3    H228831   0.707   1.909   2.227
 9630TIP3   OH228832   7.668   3.577   2.589
 9630TIP3    H128833   7.709   3.517   2.527
 9630TIP3    H228834   7.581   3.593   2.554
 9631TIP3   OH228835   5.985   6.097   2.624
 9631TIP3    H128836   5.938   6.014   2.623
 9631TIP3    H228837   6.042   6.091   2.701
 9632TIP3   OH228838   1.734   2.260   3.837
 9632TIP3    H128839   1.771   2.328   3.894
 9632TIP3    H228840   1.808   2.231   3.784
 9633TIP3   OH228841   6.803   3.777   6.699
 9633TIP3    H128842   6.804   3.870   6.674
 9633TIP3    H228843   6.712   3.751   6.687
 9634TIP3   OH228844   3.447   3.159   4.593
 9634TIP3    H128845   3.368   3.106   4.583
 9634TIP3    H228846   3.506   3.126   4.526
 9635TIP3   OH228847   6.081   7.583   2.487
 9635TIP3    H128848   6.003   7.539   2.452
 9635TIP3    H228849   6.069   7.674   2.462
 9636TIP3   OH228850   8.172   5.322   2.974
 9636TIP3    H128851   8.256   5.299   2.936
 9636TIP3    H228852   8.181   5.300   3.067
 9637TIP3   OH228853   4.102   3.799   6.361
 9637TIP3    H128854   4.021   3.848   6.347
 9637TIP3    H228855   4.100   3.774   6.453
 9638TIP3   OH228856   2.014   0.187   5.425
 9638TIP3    H128857   1.958   0.252   5.383
 9638TIP3    H228858   2.064   0.148   5.353
 9639TIP3   OH228859   0.601   0.568   4.331
 9639TIP3    H128860   0.577   0.499   4.393
 9639TIP3    H228861   0.550   0.550   4.253
 9640TIP3   OH228862   3.183   3.333   5.007
 9640TIP3    H128863   3.205   3.263   5.068
 9640TIP3    H228864   3.236   3.407   5.035
 9641TIP3   OH228865   4.510   6.975   5.524
 9641TIP3    H128866   4.437   6.913   5.521
 9641TIP3    H228867   4.559   6.952   5.603
 9642TIP3   OH228868   1.260   0.289   2.282
 9642TIP3    H128869   1.176   0.331   2.300
 9642TIP3    H228870   1.290   0.258   2.367
 9643TIP3   OH228871   3.646   6.318   1.388
 9643TIP3    H128872   3.553   6.335   1.405
 9643TIP3    H228873   3.675   6.392   1.334
 9644TIP3   OH228874   6.704   3.685   5.106
 9644TIP3    H128875   6.770   3.655   5.168
 9644TIP3    H228876   6.751   3.741   5.045
 9645TIP3   OH228877   0.500   3.727   4.025
 9645TIP3    H128878   0.467   3.637   4.027
 9645TIP3    H228879   0.429   3.780   4.061
 9646TIP3   OH228880   6.178   5.419   2.303
 9646TIP3    H128881   6.225   5.498   2.330
 9646TIP3    H228882   6.247   5.360   2.271
 9647TIP3   OH228883   3.683   3.859   4.098
 9647TIP3    H128884   3.637   3.869   4.182
 9647TIP3    H228885   3.631   3.910   4.036
 9648TIP3   OH228886   4.746   7.091   0.280
 9648TIP3    H128887   4.776   7.179   0.256
 9648TIP3    H228888   4.654   7.102   0.302
 9649TIP3   OH228889   7.632   6.160   4.884
 9649TIP3    H128890   7.681   6.079   4.870
 9649TIP3    H228891   7.541   6.136   4.865
 9650TIP3   OH228892   1.501   2.339   5.086
 9650TIP3    H128893   1.421   2.343   5.034
 9650TIP3    H228894   1.498   2.417   5.142
 9651TIP3   OH228895   4.875   7.364   0.956
 9651TIP3    H128896   4.805   7.418   0.919
 9651TIP3    H228897   4.839   7.275   0.957
 9652TIP3   OH228898   1.745   6.824   0.626
 9652TIP3    H128899   1.795   6.813   0.545
 9652TIP3    H228900   1.655   6.840   0.598
 9653TIP3   OH228901   2.773   7.360   3.669
 9653TIP3    H128902   2.748   7.269   3.649
 9653TIP3    H228903   2.750   7.371   3.761
 9654TIP3   OH228904   4.061   3.440   3.263
 9654TIP3    H128905   4.015   3.357   3.271
 9654TIP3    H228906   4.048   3.482   3.348
 9655TIP3   OH228907   7.537   7.658   1.590
 9655TIP3    H128908   7.585   7.673   1.509
 9655TIP3    H228909   7.482   7.583   1.572
 9656TIP3   OH228910   2.632   0.476   5.532
 9656TIP3    H128911   2.646   0.463   5.438
 9656TIP3    H228912   2.720   0.486   5.568
 9657TIP3   OH228913   5.845   6.377   6.530
 9657TIP3    H128914   5.804   6.303   6.485
 9657TIP3    H228915   5.917   6.337   6.579
 9658TIP3   OH228916   1.863   0.497   1.024
 9658TIP3    H128917   1.836   0.451   1.104
 9658TIP3    H228918   1.958   0.496   1.026
 9659TIP3   OH228919   4.466   0.473   5.147
 9659TIP3    H128920   4.507   0.400   5.193
 9659TIP3    H228921   4.423   0.433   5.071
 9660TIP3   OH228922   4.896   2.654   1.987
 9660TIP3    H128923   4.935   2.728   1.940
 9660TIP3    H228924   4.841   2.695   2.054
 9661TIP3   OH228925   0.710   1.004   0.264
 9661TIP3    H128926   0.778   1.070   0.281
 9661TIP3    H228927   0.638   1.029   0.322
 9662TIP3   OH228928   2.141   4.450   4.350
 9662TIP3    H128929   2.164   4.409   4.266
 9662TIP3    H228930   2.144   4.544   4.332
 9663TIP3   OH228931   2.884   6.279   4.374
 9663TIP3    H128932   2.889   6.312   4.464
 9663TIP3    H228933   2.828   6.202   4.380
 9664TIP3   OH228934   0.710   1.384   6.381
 9664TIP3    H128935   0.788   1.418   6.336
 9664TIP3    H228936   0.741   1.310   6.432
 9665TIP3   OH228937   7.972   2.979   3.842
 9665TIP3    H128938   8.038   2.911   3.858
 9665TIP3    H228939   7.896   2.951   3.893
 9666TIP3   OH228940   6.075   3.332   4.677
 9666TIP3    H128941   6.105   3.409   4.628
 9666TIP3    H228942   5.980   3.342   4.682
 9667TIP3   OH228943   4.475   7.661   2.882
 9667TIP3    H128944   4.464   7.657   2.787
 9667TIP3    H228945   4.567   7.639   2.895
 9668TIP3   OH228946   6.788   1.522   2.039
 9668TIP3    H128947   6.701   1.530   1.999
 9668TIP3    H228948   6.777   1.560   2.126
 9669TIP3   OH228949   1.290   4.793   1.593
 9669TIP3    H128950   1.292   4.719   1.532
 9669TIP3    H228951   1.197   4.814   1.602
 9670TIP3   OH228952   3.485   1.608   2.861
 9670TIP3    H128953   3.480   1.696   2.826
 9670TIP3    H228954   3.550   1.563   2.807
 9671TIP3   OH228955   5.946   1.104   4.750
 9671TIP3    H128956   6.022   1.056   4.718
 9671TIP3    H228957   5.971   1.131   4.839
 9672TIP3   OH228958   5.520   6.192   4.568
 9672TIP3    H128959   5.500   6.273   4.521
 9672TIP3    H228960   5.613   6.177   4.551
 9673TIP3   OH228961   3.868   1.496   5.588
 9673TIP3    H128962   3.895   1.569   5.642
 9673TIP3    H228963   3.808   1.446   5.643
 9674TIP3   OH228964   2.052   6.586   4.670
 9674TIP3    H128965   2.005   6.596   4.587
 9674TIP3    H228966   2.084   6.496   4.669
 9675TIP3   OH228967   1.503   1.822   5.855
 9675TIP3    H128968   1.419   1.856   5.888
 9675TIP3    H228969   1.560   1.822   5.932
 9676TIP3   OH228970   7.893   4.787   3.768
 9676TIP3    H128971   7.914   4.828   3.684
 9676TIP3    H228972   7.904   4.693   3.753
 9677TIP3   OH228973   1.893   0.427   5.331
 9677TIP3    H128974   1.872   0.510   5.374
 9677TIP3    H228975   1.887   0.446   5.237
 9678TIP3   OH228976   3.557   7.286   6.275
 9678TIP3    H128977   3.470   7.301   6.312
 9678TIP3    H228978   3.606   7.366   6.296
 9679TIP3   OH228979   4.972   5.455   3.013
 9679TIP3    H128980   4.973   5.381   3.073
 9679TIP3    H228981   5.007   5.528   3.065
 9680TIP3   OH228982   8.194   0.664   1.399
 9680TIP3    H128983   8.128   0.609   1.357
 9680TIP3    H228984   8.234   0.608   1.465
 9681TIP3   OH228985   6.058   7.152   6.245
 9681TIP3    H128986   6.054   7.058   6.232
 9681TIP3    H228987   6.055   7.164   6.340
 9682TIP3   OH228988   3.529   5.235   3.039
 9682TIP3    H128989   3.469   5.300   3.077
 9682TIP3    H228990   3.609   5.245   3.090
 9683TIP3   OH228991   7.328   5.417   1.746
 9683TIP3    H128992   7.376   5.455   1.820
 9683TIP3    H228993   7.244   5.462   1.746
 9684TIP3   OH228994   0.339   7.294   1.655
 9684TIP3    H128995   0.431   7.314   1.635
 9684TIP3    H228996   0.323   7.337   1.739
 9685TIP3   OH228997   4.006   1.527   4.865
 9685TIP3    H128998   3.977   1.619   4.864
 9685TIP3    H228999   4.074   1.524   4.798
 9686TIP3   OH229000   6.484   6.823   0.509
 9686TIP3    H129001   6.527   6.812   0.424
 9686TIP3    H229002   6.407   6.766   0.504
 9687TIP3   OH229003   1.925   5.295   2.344
 9687TIP3    H129004   1.978   5.218   2.365
 9687TIP3    H229005   1.838   5.273   2.375
 9688TIP3   OH229006   5.666   6.014   3.381
 9688TIP3    H129007   5.706   5.933   3.349
 9688TIP3    H229008   5.731   6.049   3.443
 9689TIP3   OH229009   2.874   6.533   1.598
 9689TIP3    H129010   2.869   6.553   1.692
 9689TIP3    H229011   2.794   6.484   1.580
 9690TIP3   OH229012   6.491   5.961   4.249
 9690TIP3    H129013   6.542   6.014   4.187
 9690TIP3    H229014   6.494   6.010   4.331
 9691TIP3   OH229015   7.961   3.766   6.557
 9691TIP3    H129016   8.056   3.773   6.564
 9691TIP3    H229017   7.932   3.854   6.536
 9692TIP3   OH229018   0.502   5.620   6.208
 9692TIP3    H129019   0.545   5.552   6.155
 9692TIP3    H229020   0.572   5.681   6.231
 9693TIP3   OH229021   1.632   5.150   4.606
 9693TIP3    H129022   1.543   5.122   4.586
 9693TIP3    H229023   1.648   5.222   4.545
 9694TIP3   OH229024   1.536   3.250   1.618
 9694TIP3    H129025   1.618   3.261   1.666
 9694TIP3    H229026   1.468   3.262   1.685
 9695TIP3   OH229027   4.483   1.665   1.199
 9695TIP3    H129028   4.529   1.742   1.233
 9695TIP3    H229029   4.541   1.592   1.221
 9696TIP3   OH229030   1.286   2.860   2.546
 9696TIP3    H129031   1.378   2.837   2.557
 9696TIP3    H229032   1.284   2.911   2.465
 9697TIP3   OH229033   3.576   3.389   4.992
 9697TIP3    H129034   3.497   3.440   5.014
 9697TIP3    H229035   3.568   3.372   4.898
 9698TIP3   OH229036   1.094   6.706   4.583
 9698TIP3    H129037   1.026   6.762   4.621
 9698TIP3    H229038   1.117   6.646   4.654
 9699TIP3   OH229039   0.210   1.949   6.232
 9699TIP3    H129040   0.115   1.938   6.226
 9699TIP3    H229041   0.244   1.859   6.239
 9700TIP3   OH229042   2.026   0.091   6.082
 9700TIP3    H129043   1.977   0.092   6.164
 9700TIP3    H229044   2.004   0.173   6.039
 9701TIP3   OH229045   1.037   4.873   1.303
 9701TIP3    H129046   0.984   4.946   1.337
 9701TIP3    H229047   0.972   4.808   1.276
 9702TIP3   OH229048   5.700   2.315   6.337
 9702TIP3    H129049   5.682   2.401   6.298
 9702TIP3    H229050   5.629   2.259   6.306
 9703TIP3   OH229051   0.262   2.982   4.796
 9703TIP3    H129052   0.254   3.028   4.712
 9703TIP3    H229053   0.236   2.892   4.775
 9704TIP3   OH229054   8.207   2.300   1.609
 9704TIP3    H129055   8.227   2.288   1.702
 9704TIP3    H229056   8.287   2.275   1.564
 9705TIP3   OH229057   1.934   4.227   0.379
 9705TIP3    H129058   1.930   4.314   0.419
 9705TIP3    H229059   1.884   4.235   0.298
 9706TIP3   OH229060   5.652   4.690   0.306
 9706TIP3    H129061   5.566   4.700   0.346
 9706TIP3    H229062   5.639   4.629   0.234
 9707TIP3   OH229063   1.420   1.018   6.558
 9707TIP3    H129064   1.463   0.950   6.506
 9707TIP3    H229065   1.341   0.976   6.592
 9708TIP3   OH229066   0.294   3.825   6.569
 9708TIP3    H129067   0.299   3.838   6.475
 9708TIP3    H229068   0.373   3.867   6.604
 9709TIP3   OH229069   5.491   5.014   2.321
 9709TIP3    H129070   5.447   5.091   2.357
 9709TIP3    H229071   5.457   5.008   2.231
 9710TIP3   OH229072   4.964   6.198   4.139
 9710TIP3    H129073   4.996   6.126   4.085
 9710TIP3    H229074   5.042   6.229   4.186
 9711TIP3   OH229075   4.633   2.697   2.832
 9711TIP3    H129076   4.693   2.686   2.906
 9711TIP3    H229077   4.570   2.763   2.861
 9712TIP3   OH229078   3.267   2.921   2.184
 9712TIP3    H129079   3.354   2.902   2.220
 9712TIP3    H229080   3.283   2.955   2.097
 9713TIP3   OH229081   5.302   5.793   6.462
 9713TIP3    H129082   5.386   5.838   6.464
 9713TIP3    H229083   5.261   5.815   6.545
 9714TIP3   OH229084   2.949   2.735   3.564
 9714TIP3    H129085   3.025   2.678   3.576
 9714TIP3    H229086   2.947   2.789   3.643
 9715TIP3   OH229087   3.002   4.409   1.860
 9715TIP3    H129088   2.977   4.501   1.868
 9715TIP3    H229089   3.093   4.411   1.833
 9716TIP3   OH229090   4.868   0.942   6.603
 9716TIP3    H129091   4.780   0.945   6.640
 9716TIP3    H229092   4.873   0.857   6.560
 9717TIP3   OH229093   2.127   0.745   0.847
 9717TIP3    H129094   2.055   0.687   0.820
 9717TIP3    H229095   2.118   0.751   0.942
 9718TIP3   OH229096   2.232   0.590   5.462
 9718TIP3    H129097   2.301   0.543   5.414
 9718TIP3    H229098   2.228   0.547   5.547
 9719TIP3   OH229099   3.473   6.769   4.593
 9719TIP3    H129100   3.408   6.703   4.615
 9719TIP3    H229101   3.474   6.770   4.497
 9720TIP3   OH229102   2.299   0.528   1.499
 9720TIP3    H129103   2.379   0.478   1.515
 9720TIP3    H229104   2.229   0.464   1.503
 9721TIP3   OH229105   2.417   2.286   5.693
 9721TIP3    H129106   2.382   2.204   5.726
 9721TIP3    H229107   2.388   2.352   5.756
 9722TIP3   OH229108   3.609   2.973   2.982
 9722TIP3    H129109   3.638   2.924   3.059
 9722TIP3    H229110   3.515   2.983   2.994
 9723TIP3   OH229111   6.410   6.014   1.461
 9723TIP3    H129112   6.415   6.099   1.417
 9723TIP3    H229113   6.435   5.951   1.393
 9724TIP3   OH229114   6.224   0.066   0.118
 9724TIP3    H129115   6.169   0.060   0.197
 9724TIP3    H229116   6.219  -0.022   0.080
 9725TIP3   OH229117   3.570   7.036   4.382
 9725TIP3    H129118   3.634   6.977   4.341
 9725TIP3    H229119   3.486   6.991   4.372
 9726TIP3   OH229120   4.045   2.134   1.824
 9726TIP3    H129121   3.994   2.212   1.844
 9726TIP3    H229122   4.050   2.086   1.907
 9727TIP3   OH229123   2.215   6.178   5.293
 9727TIP3    H129124   2.154   6.248   5.273
 9727TIP3    H229125   2.285   6.188   5.229
 9728TIP3   OH229126   0.939   3.009   3.304
 9728TIP3    H129127   0.872   3.019   3.236
 9728TIP3    H229128   0.999   3.082   3.289
 9729TIP3   OH229129   5.017   4.366   0.633
 9729TIP3    H129130   4.958   4.389   0.561
 9729TIP3    H229131   4.995   4.427   0.703
 9730TIP3   OH229132   3.474   0.146   6.656
 9730TIP3    H129133   3.563   0.133   6.687
 9730TIP3    H229134   3.440   0.217   6.711
 9731TIP3   OH229135   1.197   3.302   1.388
 9731TIP3    H129136   1.107   3.334   1.383
 9731TIP3    H229137   1.241   3.362   1.448
 9732TIP3   OH229138   0.597   4.579   2.382
 9732TIP3    H129139   0.625   4.663   2.346
 9732TIP3    H229140   0.511   4.564   2.343
 9733TIP3   OH229141   3.295   3.365   6.390
 9733TIP3    H129142   3.252   3.281   6.406
 9733TIP3    H229143   3.224   3.424   6.366
 9734TIP3   OH229144   6.069   5.224   3.633
 9734TIP3    H129145   5.987   5.190   3.597
 9734TIP3    H229146   6.120   5.250   3.556
 9735TIP3   OH229147   4.658   6.617   1.412
 9735TIP3    H129148   4.707   6.694   1.442
 9735TIP3    H229149   4.570   6.651   1.393
 9736TIP3   OH229150   5.163   6.091   6.648
 9736TIP3    H129151   5.243   6.081   6.700
 9736TIP3    H229152   5.191   6.138   6.569
 9737TIP3   OH229153   4.301   6.812   0.825
 9737TIP3    H129154   4.390   6.796   0.793
 9737TIP3    H229155   4.297   6.763   0.908
 9738TIP3   OH229156   0.278   5.148   6.087
 9738TIP3    H129157   0.241   5.225   6.130
 9738TIP3    H229158   0.314   5.095   6.159
 9739TIP3   OH229159   3.818   3.108   2.321
 9739TIP3    H129160   3.886   3.161   2.363
 9739TIP3    H229161   3.775   3.168   2.260
 9740TIP3   OH229162   1.768   1.738   0.753
 9740TIP3    H129163   1.736   1.816   0.798
 9740TIP3    H229164   1.699   1.717   0.690
 9741TIP3   OH229165   2.719   0.678   0.395
 9741TIP3    H129166   2.662   0.722   0.332
 9741TIP3    H229167   2.757   0.606   0.345
 9742TIP3   OH229168   5.993   1.719   1.681
 9742TIP3    H129169   5.946   1.733   1.599
 9742TIP3    H229170   6.083   1.703   1.655
 9743TIP3   OH229171   1.940   4.358   3.541
 9743TIP3    H129172   2.004   4.398   3.599
 9743TIP3    H229173   1.985   4.350   3.456
 9744TIP3   OH229174   4.298   6.117   2.754
 9744TIP3    H129175   4.373   6.061   2.736
 9744TIP3    H229176   4.323   6.203   2.719
 9745TIP3   OH229177   0.529   6.969   2.531
 9745TIP3    H129178   0.458   7.031   2.543
 9745TIP3    H229179   0.558   6.948   2.620
 9746TIP3   OH229180   7.694   2.622   0.289
 9746TIP3    H129181   7.675   2.579   0.206
 9746TIP3    H229182   7.624   2.686   0.301
 9747TIP3   OH229183   6.554   6.128   4.552
 9747TIP3    H129184   6.487   6.074   4.510
 9747TIP3    H229185   6.517   6.217   4.551
 9748TIP3   OH229186   0.605   4.631   1.557
 9748TIP3    H129187   0.684   4.595   1.598
 9748TIP3    H229188   0.582   4.706   1.613
 9749TIP3   OH229189   2.605   4.854   5.217
 9749TIP3    H129190   2.522   4.814   5.241
 9749TIP3    H229191   2.588   4.897   5.133
 9750TIP3   OH229192   3.958   7.400   0.302
 9750TIP3    H129193   3.909   7.472   0.263
 9750TIP3    H229194   3.974   7.339   0.230
 9751TIP3   OH229195   4.006   1.387   5.093
 9751TIP3    H129196   3.917   1.363   5.065
 9751TIP3    H229197   4.051   1.409   5.011
 9752TIP3   OH229198   7.519   2.900   5.856
 9752TIP3    H129199   7.482   2.811   5.861
 9752TIP3    H229200   7.556   2.905   5.768
 9753TIP3   OH229201   7.628   3.625   5.226
 9753TIP3    H129202   7.643   3.694   5.161
 9753TIP3    H229203   7.599   3.550   5.174
 9754TIP3   OH229204   5.039   4.396   4.387
 9754TIP3    H129205   5.081   4.429   4.467
 9754TIP3    H229206   4.964   4.346   4.417
 9755TIP3   OH229207   7.976   0.605   0.867
 9755TIP3    H129208   8.054   0.558   0.837
 9755TIP3    H229209   7.908   0.538   0.872
 9756TIP3   OH229210   7.810   1.835   5.907
 9756TIP3    H129211   7.749   1.906   5.886
 9756TIP3    H229212   7.834   1.798   5.822
 9757TIP3   OH229213   5.400   1.924   3.312
 9757TIP3    H129214   5.391   1.841   3.265
 9757TIP3    H229215   5.359   1.908   3.396
 9758TIP3   OH229216  -0.009   7.056   2.848
 9758TIP3    H129217   0.053   7.073   2.919
 9758TIP3    H229218   0.025   6.977   2.805
 9759TIP3   OH229219   2.217   2.220   0.374
 9759TIP3    H129220   2.173   2.135   0.364
 9759TIP3    H229221   2.267   2.212   0.454
 9760TIP3   OH229222   4.582   3.709   2.226
 9760TIP3    H129223   4.532   3.773   2.277
 9760TIP3    H229224   4.615   3.647   2.292
 9761TIP3   OH229225   5.594   5.752   1.682
 9761TIP3    H129226   5.688   5.741   1.697
 9761TIP3    H229227   5.577   5.843   1.704
 9762TIP3   OH229228   5.360   1.801   0.961
 9762TIP3    H129229   5.328   1.722   1.004
 9762TIP3    H229230   5.453   1.806   0.985
 9763TIP3   OH229231   0.723   3.783   3.030
 9763TIP3    H129232   0.813   3.804   3.055
 9763TIP3    H229233   0.670   3.854   3.068
 9764TIP3   OH229234   0.939   4.276   0.877
 9764TIP3    H129235   1.020   4.255   0.923
 9764TIP3    H229236   0.919   4.197   0.826
 9765TIP3   OH229237   0.814   7.152   1.491
 9765TIP3    H129238   0.758   7.108   1.555
 9765TIP3    H229239   0.872   7.083   1.458
 9766TIP3   OH229240   1.703   1.078   6.266
 9766TIP3    H129241   1.696   1.107   6.357
 9766TIP3    H229242   1.651   0.998   6.262
 9767TIP3   OH229243   1.969   7.705   0.195
 9767TIP3    H129244   1.879   7.677   0.177
 9767TIP3    H229245   2.018   7.680   0.116
 9768TIP3   OH229246   3.598   1.684   0.390
 9768TIP3    H129247   3.620   1.752   0.326
 9768TIP3    H229248   3.681   1.666   0.435
 9769TIP3   OH229249   5.217   7.506   1.456
 9769TIP3    H129250   5.280   7.446   1.495
 9769TIP3    H229251   5.246   7.516   1.365
 9770TIP3   OH229252   7.137   6.113   6.578
 9770TIP3    H129253   7.054   6.067   6.565
 9770TIP3    H229254   7.111   6.202   6.603
 9771TIP3   OH229255   5.905   2.570   3.237
 9771TIP3    H129256   5.997   2.547   3.246
 9771TIP3    H229257   5.888   2.632   3.308
 9772TIP3   OH229258   0.849   1.760   2.789
 9772TIP3    H129259   0.826   1.807   2.869
 9772TIP3    H229260   0.780   1.695   2.779
 9773TIP3   OH229261   0.420   6.615   3.553
 9773TIP3    H129262   0.506   6.591   3.518
 9773TIP3    H229263   0.368   6.536   3.547
 9774TIP3   OH229264   6.089   2.790   4.791
 9774TIP3    H129265   6.033   2.828   4.858
 9774TIP3    H229266   6.053   2.822   4.708
 9775TIP3   OH229267   6.112   3.281   0.728
 9775TIP3    H129268   6.039   3.313   0.782
 9775TIP3    H229269   6.089   3.307   0.639
 9776TIP3   OH229270   3.718   6.462   2.027
 9776TIP3    H129271   3.752   6.425   1.945
 9776TIP3    H229272   3.774   6.537   2.044
 9777TIP3   OH229273   0.821   1.157   6.513
 9777TIP3    H129274   0.915   1.166   6.498
 9777TIP3    H229275   0.799   1.072   6.473
 9778TIP3   OH229276   4.619   1.357   2.056
 9778TIP3    H129277   4.706   1.361   2.096
 9778TIP3    H229278   4.579   1.441   2.076
 9779TIP3   OH229279   5.487   5.512   5.881
 9779TIP3    H129280   5.536   5.475   5.954
 9779TIP3    H229281   5.404   5.464   5.880
 9780TIP3   OH229282   6.289   4.675   1.787
 9780TIP3    H129283   6.305   4.741   1.720
 9780TIP3    H229284   6.232   4.717   1.851
 9781TIP3   OH229285   1.181   4.106   2.680
 9781TIP3    H129286   1.222   4.021   2.664
 9781TIP3    H229287   1.116   4.115   2.610
 9782TIP3   OH229288   7.735   7.428   5.021
 9782TIP3    H129289   7.780   7.486   5.083
 9782TIP3    H229290   7.775   7.343   5.034
 9783TIP3   OH229291   0.622   2.351   2.018
 9783TIP3    H129292   0.653   2.271   1.975
 9783TIP3    H229293   0.684   2.419   1.992
 9784TIP3   OH229294   3.934   1.776   4.857
 9784TIP3    H129295   3.997   1.846   4.839
 9784TIP3    H229296   3.884   1.808   4.932
 9785TIP3   OH229297   1.875   6.154   0.796
 9785TIP3    H129298   1.960   6.118   0.819
 9785TIP3    H229299   1.886   6.249   0.805
 9786TIP3   OH229300   7.102   6.327   5.712
 9786TIP3    H129301   7.106   6.418   5.682
 9786TIP3    H229302   7.084   6.277   5.632
 9787TIP3   OH229303   3.195   1.871   2.858
 9787TIP3    H129304   3.206   1.964   2.874
 9787TIP3    H229305   3.282   1.840   2.834
 9788TIP3   OH229306   4.057   6.755   0.393
 9788TIP3    H129307   4.145   6.742   0.359
 9788TIP3    H229308   4.067   6.753   0.488
 9789TIP3   OH229309   7.164   6.986   1.266
 9789TIP3    H129310   7.144   7.072   1.232
 9789TIP3    H229311   7.256   6.991   1.292
 9790TIP3   OH229312   6.950   3.017   4.095
 9790TIP3    H129313   6.997   3.091   4.057
 9790TIP3    H229314   6.984   2.941   4.047
 9791TIP3   OH229315   3.021   4.998   3.632
 9791TIP3    H129316   2.985   5.044   3.708
 9791TIP3    H229317   3.034   5.067   3.566
 9792TIP3   OH229318   5.569   1.410   2.527
 9792TIP3    H129319   5.532   1.346   2.467
 9792TIP3    H229320   5.502   1.478   2.533
 9793TIP3   OH229321   1.985   0.639   5.954
 9793TIP3    H129322   2.040   0.694   6.010
 9793TIP3    H229323   1.955   0.698   5.885
 9794TIP3   OH229324   3.981   2.846   4.411
 9794TIP3    H129325   3.940   2.780   4.355
 9794TIP3    H229326   4.029   2.903   4.349
 9795TIP3   OH229327   5.628   4.945   3.530
 9795TIP3    H129328   5.569   4.870   3.521
 9795TIP3    H229329   5.625   4.988   3.444
 9796TIP3   OH229330   1.473   3.682   3.832
 9796TIP3    H129331   1.511   3.730   3.759
 9796TIP3    H229332   1.525   3.710   3.908
 9797TIP3   OH229333   1.917   4.297   2.896
 9797TIP3    H129334   1.855   4.358   2.937
 9797TIP3    H229335   1.863   4.222   2.871
 9798TIP3   OH229336   4.255   4.286   0.310
 9798TIP3    H129337   4.287   4.199   0.333
 9798TIP3    H229338   4.243   4.331   0.393
 9799TIP3   OH229339   8.289   7.402   1.827
 9799TIP3    H129340   8.310   7.495   1.817
 9799TIP3    H229341   8.230   7.383   1.754
 9800TIP3   OH229342   7.762   3.340   2.010
 9800TIP3    H129343   7.698   3.309   2.073
 9800TIP3    H229344   7.768   3.269   1.945
 9801TIP3   OH229345   4.113   0.165   3.605
 9801TIP3    H129346   4.104   0.160   3.700
 9801TIP3    H229347   4.045   0.226   3.577
 9802TIP3   OH229348   5.239   3.455   5.955
 9802TIP3    H129349   5.310   3.509   5.987
 9802TIP3    H229350   5.268   3.424   5.870
 9803TIP3   OH229351   1.639   6.486   3.306
 9803TIP3    H129352   1.612   6.506   3.216
 9803TIP3    H229353   1.560   6.452   3.348
 9804TIP3   OH229354   3.898   5.671   1.182
 9804TIP3    H129355   3.929   5.668   1.092
 9804TIP3    H229356   3.807   5.701   1.174
 9805TIP3   OH229357   2.138   6.731   3.533
 9805TIP3    H129358   2.193   6.807   3.555
 9805TIP3    H229359   2.078   6.764   3.467
 9806TIP3   OH229360   4.276   2.708   5.397
 9806TIP3    H129361   4.187   2.679   5.376
 9806TIP3    H229362   4.319   2.718   5.312
 9807TIP3   OH229363   4.050   3.599   5.273
 9807TIP3    H129364   3.963   3.637   5.285
 9807TIP3    H229365   4.044   3.550   5.191
 9808TIP3   OH229366   7.715   1.658   4.018
 9808TIP3    H129367   7.760   1.721   4.075
 9808TIP3    H229368   7.712   1.577   4.068
 9809TIP3   OH229369   3.933   2.585   1.856
 9809TIP3    H129370   3.889   2.560   1.774
 9809TIP3    H229371   3.972   2.503   1.888
 9810TIP3   OH229372   5.930   6.605   3.482
 9810TIP3    H129373   5.953   6.569   3.397
 9810TIP3    H229374   5.839   6.631   3.474
 9811TIP3   OH229375   4.029   3.584   3.026
 9811TIP3    H129376   4.117   3.621   3.021
 9811TIP3    H229377   4.032   3.527   3.102
 9812TIP3   OH229378   2.321   7.209   3.204
 9812TIP3    H129379   2.275   7.280   3.249
 9812TIP3    H229380   2.407   7.245   3.184
 9813TIP3   OH229381   3.459   6.207   3.078
 9813TIP3    H129382   3.408   6.201   2.997
 9813TIP3    H229383   3.398   6.244   3.142
 9814TIP3   OH229384   6.949   1.517   3.161
 9814TIP3    H129385   6.963   1.545   3.251
 9814TIP3    H229386   6.999   1.436   3.153
 9815TIP3   OH229387   2.728   0.387   4.998
 9815TIP3    H129388   2.638   0.372   4.969
 9815TIP3    H229389   2.752   0.472   4.962
 9816TIP3   OH229390   8.270   5.666   5.868
 9816TIP3    H129391   8.200   5.656   5.803
 9816TIP3    H229392   8.346   5.624   5.828
 9817TIP3   OH229393   8.002   6.165   2.330
 9817TIP3    H129394   7.921   6.208   2.301
 9817TIP3    H229395   8.034   6.220   2.401
 9818TIP3   OH229396   3.527   3.448   5.826
 9818TIP3    H129397   3.613   3.415   5.800
 9818TIP3    H229398   3.531   3.542   5.810
 9819TIP3   OH229399   7.458   6.886   1.823
 9819TIP3    H129400   7.471   6.891   1.918
 9819TIP3    H229401   7.428   6.797   1.807
 9820TIP3   OH229402   3.846   2.534   5.808
 9820TIP3    H129403   3.842   2.611   5.752
 9820TIP3    H229404   3.849   2.460   5.747
 9821TIP3   OH229405   7.348   1.178   5.738
 9821TIP3    H129406   7.316   1.267   5.725
 9821TIP3    H229407   7.434   1.189   5.779
 9822TIP3   OH229408   2.400   2.771   5.909
 9822TIP3    H129409   2.360   2.803   5.828
 9822TIP3    H229410   2.476   2.720   5.880
 9823TIP3   OH229411   8.028   2.225   1.420
 9823TIP3    H129412   8.083   2.244   1.496
 9823TIP3    H229413   7.963   2.296   1.420
 9824TIP3   OH229414   3.964   7.796   0.549
 9824TIP3    H129415   4.058   7.779   0.557
 9824TIP3    H229416   3.955   7.845   0.468
 9825TIP3   OH229417   0.925   1.366   3.142
 9825TIP3    H129418   0.924   1.272   3.127
 9825TIP3    H229419   0.835   1.394   3.127
 9826TIP3   OH229420   2.185   4.479   3.071
 9826TIP3    H129421   2.180   4.442   2.983
 9826TIP3    H229422   2.187   4.574   3.058
 9827TIP3   OH229423   0.583   5.269   6.392
 9827TIP3    H129424   0.531   5.189   6.384
 9827TIP3    H229425   0.609   5.273   6.484
 9828TIP3   OH229426   4.419   3.099   0.348
 9828TIP3    H129427   4.422   3.154   0.426
 9828TIP3    H229428   4.498   3.121   0.300
 9829TIP3   OH229429   2.263   6.202   3.072
 9829TIP3    H129430   2.182   6.171   3.030
 9829TIP3    H229431   2.233   6.242   3.153
 9830TIP3   OH229432   1.857   6.164   3.297
 9830TIP3    H129433   1.871   6.220   3.373
 9830TIP3    H229434   1.764   6.172   3.277
 9831TIP3   OH229435   1.516   2.492   6.347
 9831TIP3    H129436   1.434   2.449   6.371
 9831TIP3    H229437   1.567   2.494   6.428
 9832TIP3   OH229438   2.742   7.086   0.637
 9832TIP3    H129439   2.760   7.147   0.566
 9832TIP3    H229440   2.646   7.081   0.640
 9833TIP3   OH229441   2.601   4.311   3.121
 9833TIP3    H129442   2.659   4.248   3.163
 9833TIP3    H229443   2.657   4.355   3.056
 9834TIP3   OH229444   1.587   4.945   5.981
 9834TIP3    H129445   1.577   4.941   5.886
 9834TIP3    H229446   1.565   4.857   6.011
 9835TIP3   OH229447   6.562   5.735   0.109
 9835TIP3    H129448   6.621   5.691   0.170
 9835TIP3    H229449   6.587   5.702   0.023
 9836TIP3   OH229450   1.623   0.640   0.136
 9836TIP3    H129451   1.531   0.635   0.160
 9836TIP3    H229452   1.628   0.603   0.048
 9837TIP3   OH229453   1.090   1.145   0.991
 9837TIP3    H129454   1.119   1.172   1.078
 9837TIP3    H229455   1.023   1.210   0.967
 9838TIP3   OH229456   1.388   4.484   4.373
 9838TIP3    H129457   1.417   4.441   4.292
 9838TIP3    H229458   1.447   4.558   4.383
 9839TIP3   OH229459   5.431   4.669   4.593
 9839TIP3    H129460   5.487   4.682   4.669
 9839TIP3    H229461   5.485   4.697   4.519
 9840TIP3   OH229462   2.393   4.806   5.778
 9840TIP3    H129463   2.386   4.770   5.866
 9840TIP3    H229464   2.452   4.881   5.788
 9841TIP3   OH229465   4.968   7.402   3.271
 9841TIP3    H129466   5.032   7.471   3.254
 9841TIP3    H229467   4.957   7.402   3.366
 9842TIP3   OH229468   7.193   6.512   6.408
 9842TIP3    H129469   7.199   6.522   6.503
 9842TIP3    H229470   7.099   6.513   6.390
 9843TIP3   OH229471   4.992   2.857   1.731
 9843TIP3    H129472   4.937   2.907   1.671
 9843TIP3    H229473   5.047   2.923   1.774
 9844TIP3   OH229474   3.549   2.948   2.197
 9844TIP3    H129475   3.638   2.917   2.180
 9844TIP3    H229476   3.561   3.024   2.255
 9845TIP3   OH229477   2.048   3.473   3.738
 9845TIP3    H129478   2.074   3.478   3.830
 9845TIP3    H229479   1.952   3.472   3.740
 9846TIP3   OH229480   5.192   2.783   2.990
 9846TIP3    H129481   5.184   2.831   3.072
 9846TIP3    H229482   5.280   2.747   2.992
 9847TIP3   OH229483   3.569   6.386   5.067
 9847TIP3    H129484   3.559   6.440   5.144
 9847TIP3    H229485   3.608   6.305   5.099
 9848TIP3   OH229486   1.472   5.458   0.922
 9848TIP3    H129487   1.554   5.456   0.873
 9848TIP3    H229488   1.474   5.541   0.970
 9849TIP3   OH229489   5.047   6.721   3.112
 9849TIP3    H129490   4.978   6.655   3.115
 9849TIP3    H229491   5.002   6.802   3.088
 9850TIP3   OH229492   4.466   4.319   4.756
 9850TIP3    H129493   4.444   4.229   4.779
 9850TIP3    H229494   4.561   4.324   4.768
 9851TIP3   OH229495   1.818   1.203   1.662
 9851TIP3    H129496   1.775   1.266   1.604
 9851TIP3    H229497   1.844   1.131   1.604
 9852TIP3   OH229498   6.977   0.281   0.359
 9852TIP3    H129499   6.909   0.223   0.325
 9852TIP3    H229500   7.051   0.268   0.300
 9853TIP3   OH229501   3.252   6.450   6.446
 9853TIP3    H129502   3.192   6.409   6.508
 9853TIP3    H229503   3.243   6.398   6.366
 9854TIP3   OH229504   4.013   0.850   5.858
 9854TIP3    H129505   4.058   0.864   5.775
 9854TIP3    H229506   3.945   0.917   5.860
 9855TIP3   OH229507   1.787   1.992   5.784
 9855TIP3    H129508   1.765   2.053   5.854
 9855TIP3    H229509   1.812   2.047   5.710
 9856TIP3   OH229510   5.256   3.448   4.645
 9856TIP3    H129511   5.327   3.399   4.605
 9856TIP3    H229512   5.251   3.530   4.595
 9857TIP3   OH229513   0.168   2.566   1.537
 9857TIP3    H129514   0.214   2.639   1.579
 9857TIP3    H229515   0.186   2.490   1.592
 9858TIP3   OH229516   8.005   6.587   5.945
 9858TIP3    H129517   7.928   6.638   5.968
 9858TIP3    H229518   8.049   6.638   5.877
 9859TIP3   OH229519   1.173   5.996   3.080
 9859TIP3    H129520   1.097   5.939   3.092
 9859TIP3    H229521   1.240   5.958   3.138
 9860TIP3   OH229522   4.469   7.230   5.299
 9860TIP3    H129523   4.431   7.150   5.337
 9860TIP3    H229524   4.436   7.300   5.355
 9861TIP3   OH229525   5.389   0.777   4.371
 9861TIP3    H129526   5.464   0.724   4.343
 9861TIP3    H229527   5.332   0.781   4.294
 9862TIP3   OH229528   4.987   7.733   6.151
 9862TIP3    H129529   4.913   7.763   6.099
 9862TIP3    H229530   5.030   7.814   6.181
 9863TIP3   OH229531   7.862   6.663   1.979
 9863TIP3    H129532   7.884   6.670   1.886
 9863TIP3    H229533   7.769   6.639   1.981
 9864TIP3   OH229534   1.212   2.768   4.598
 9864TIP3    H129535   1.221   2.769   4.503
 9864TIP3    H229536   1.165   2.849   4.619
 9865TIP3   OH229537   2.224   0.630   4.520
 9865TIP3    H129538   2.240   0.699   4.455
 9865TIP3    H229539   2.195   0.555   4.468
 9866TIP3   OH229540   4.745   5.876   5.032
 9866TIP3    H129541   4.769   5.863   4.940
 9866TIP3    H229542   4.775   5.797   5.077
 9867TIP3   OH229543   5.660   7.410   4.767
 9867TIP3    H129544   5.657   7.374   4.856
 9867TIP3    H229545   5.599   7.357   4.717
 9868TIP3   OH229546   3.935   7.778   5.256
 9868TIP3    H129547   3.876   7.782   5.181
 9868TIP3    H229548   3.887   7.728   5.322
 9869TIP3   OH229549   4.717   5.245   4.600
 9869TIP3    H129550   4.799   5.258   4.552
 9869TIP3    H229551   4.672   5.329   4.592
 9870TIP3   OH229552   4.802   4.513   1.033
 9870TIP3    H129553   4.741   4.564   1.087
 9870TIP3    H229554   4.881   4.506   1.087
 9871TIP3   OH229555   3.088   1.838   6.446
 9871TIP3    H129556   3.093   1.913   6.506
 9871TIP3    H229557   3.040   1.771   6.495
 9872TIP3   OH229558   1.865   7.626   5.881
 9872TIP3    H129559   1.871   7.721   5.890
 9872TIP3    H229560   1.905   7.607   5.796
 9873TIP3   OH229561   5.998   0.923   0.041
 9873TIP3    H129562   6.064   0.944   0.106
 9873TIP3    H229563   5.930   0.990   0.052
 9874TIP3   OH229564   7.590   3.567   1.331
 9874TIP3    H129565   7.658   3.546   1.267
 9874TIP3    H229566   7.630   3.548   1.415
 9875TIP3   OH229567   3.044   7.504   1.466
 9875TIP3    H129568   3.081   7.455   1.539
 9875TIP3    H229569   3.006   7.437   1.409
 9876TIP3   OH229570   0.263   7.770   5.390
 9876TIP3    H129571   0.182   7.749   5.436
 9876TIP3    H229572   0.270   7.865   5.396
 9877TIP3   OH229573   1.151   1.882   5.855
 9877TIP3    H129574   1.060   1.911   5.852
 9877TIP3    H229575   1.161   1.829   5.776
 9878TIP3   OH229576   4.987   2.391   0.518
 9878TIP3    H129577   4.917   2.401   0.453
 9878TIP3    H229578   5.050   2.333   0.475
 9879TIP3   OH229579   1.339   4.087   3.685
 9879TIP3    H129580   1.382   4.004   3.662
 9879TIP3    H229581   1.273   4.062   3.750
 9880TIP3   OH229582   4.958   6.061   4.889
 9880TIP3    H129583   4.979   6.055   4.982
 9880TIP3    H229584   4.898   5.988   4.873
 9881TIP3   OH229585   1.300   4.464   4.617
 9881TIP3    H129586   1.324   4.497   4.530
 9881TIP3    H229587   1.382   4.465   4.666
 9882TIP3   OH229588   4.618   6.678   5.021
 9882TIP3    H129589   4.557   6.624   5.072
 9882TIP3    H229590   4.585   6.767   5.030
 9883TIP3   OH229591   1.333   5.927   1.153
 9883TIP3    H129592   1.267   5.995   1.167
 9883TIP3    H229593   1.416   5.974   1.149
 9884TIP3   OH229594   0.006   0.851   3.638
 9884TIP3    H129595   0.017   0.815   3.725
 9884TIP3    H229596   0.039   0.941   3.645
 9885TIP3   OH229597   3.211   1.909   0.668
 9885TIP3    H129598   3.178   1.821   0.648
 9885TIP3    H229599   3.190   1.922   0.761
 9886TIP3   OH229600   2.978   7.256   1.246
 9886TIP3    H129601   2.951   7.281   1.157
 9886TIP3    H229602   2.946   7.167   1.256
 9887TIP3   OH229603   2.529   0.448   2.860
 9887TIP3    H129604   2.466   0.432   2.790
 9887TIP3    H229605   2.614   0.426   2.821
 9888TIP3   OH229606   5.518   7.703   4.983
 9888TIP3    H129607   5.481   7.780   4.941
 9888TIP3    H229608   5.457   7.633   4.964
 9889TIP3   OH229609   2.267   0.624   4.163
 9889TIP3    H129610   2.201   0.690   4.185
 9889TIP3    H229611   2.223   0.566   4.101
 9890TIP3   OH229612   0.653   7.644   3.524
 9890TIP3    H129613   0.595   7.686   3.588
 9890TIP3    H229614   0.597   7.625   3.449
 9891TIP3   OH229615   6.385   1.198   0.285
 9891TIP3    H129616   6.467   1.148   0.284
 9891TIP3    H229617   6.399   1.267   0.350
 9892TIP3   OH229618   3.787   1.922   4.457
 9892TIP3    H129619   3.872   1.966   4.449
 9892TIP3    H229620   3.794   1.847   4.398
 9893TIP3   OH229621   2.947   4.545   4.054
 9893TIP3    H129622   2.920   4.533   3.963
 9893TIP3    H229623   2.888   4.614   4.087
 9894TIP3   OH229624   4.206   4.686   2.966
 9894TIP3    H129625   4.197   4.609   2.910
 9894TIP3    H229626   4.227   4.757   2.905
 9895TIP3   OH229627   8.264   1.066   3.229
 9895TIP3    H129628   8.318   1.037   3.156
 9895TIP3    H229629   8.205   1.132   3.191
 9896TIP3   OH229630   4.400   0.854   6.505
 9896TIP3    H129631   4.382   0.931   6.559
 9896TIP3    H229632   4.419   0.785   6.569
 9897TIP3   OH229633   5.880   7.715   4.429
 9897TIP3    H129634   5.871   7.688   4.338
 9897TIP3    H229635   5.818   7.660   4.477
 9898TIP3   OH229636   5.019   5.560   6.691
 9898TIP3    H129637   5.023   5.643   6.739
 9898TIP3    H229638   5.068   5.576   6.610
 9899TIP3   OH229639   4.984   2.410   3.449
 9899TIP3    H129640   5.080   2.417   3.442
 9899TIP3    H229641   4.970   2.363   3.531
 9900TIP3   OH229642   1.971   5.134   3.670
 9900TIP3    H129643   2.017   5.211   3.703
 9900TIP3    H229644   2.002   5.123   3.581
 9901TIP3   OH229645   7.267   6.858   6.468
 9901TIP3    H129646   7.341   6.884   6.413
 9901TIP3    H229647   7.219   6.795   6.414
 9902TIP3   OH229648   3.231   4.603   1.032
 9902TIP3    H129649   3.278   4.630   1.111
 9902TIP3    H229650   3.184   4.681   1.003
 9903TIP3   OH229651   1.829   4.726   6.540
 9903TIP3    H129652   1.905   4.706   6.486
 9903TIP3    H229653   1.760   4.669   6.506
 9904TIP3   OH229654   7.383   2.484   6.108
 9904TIP3    H129655   7.373   2.408   6.164
 9904TIP3    H229656   7.308   2.481   6.049
 9905TIP3   OH229657   0.071   2.393   5.097
 9905TIP3    H129658  -0.001   2.372   5.156
 9905TIP3    H229659   0.146   2.407   5.155
 9906TIP3   OH229660   5.497   3.175   5.614
 9906TIP3    H129661   5.509   3.117   5.690
 9906TIP3    H229662   5.585   3.183   5.577
 9907TIP3   OH229663   1.330   4.697   0.998
 9907TIP3    H129664   1.396   4.741   1.050
 9907TIP3    H229665   1.375   4.621   0.960
 9908TIP3   OH229666   1.085   5.937   1.892
 9908TIP3    H129667   1.006   5.951   1.944
 9908TIP3    H229668   1.134   5.870   1.940
 9909TIP3   OH229669   1.013   6.406   4.751
 9909TIP3    H129670   0.981   6.375   4.836
 9909TIP3    H229671   1.094   6.452   4.772
 9910TIP3   OH229672   8.267   3.936   4.720
 9910TIP3    H129673   8.259   3.857   4.667
 9910TIP3    H229674   8.205   3.923   4.792
 9911TIP3   OH229675   5.578   5.271   5.459
 9911TIP3    H129676   5.540   5.358   5.444
 9911TIP3    H229677   5.504   5.211   5.452
 9912TIP3   OH229678   2.117   0.559   1.208
 9912TIP3    H129679   2.195   0.603   1.242
 9912TIP3    H229680   2.044   0.601   1.254
 9913TIP3   OH229681   3.605   4.167   6.708
 9913TIP3    H129682   3.556   4.095   6.748
 9913TIP3    H229683   3.545   4.242   6.712
 9914TIP3   OH229684   4.152   6.844   6.123
 9914TIP3    H129685   4.218   6.785   6.159
 9914TIP3    H229686   4.203   6.918   6.087
 9915TIP3   OH229687   4.817   4.537   0.501
 9915TIP3    H129688   4.852   4.616   0.541
 9915TIP3    H229689   4.871   4.523   0.424
 9916TIP3   OH229690   1.876   6.983   0.178
 9916TIP3    H129691   1.896   7.032   0.099
 9916TIP3    H229692   1.945   7.006   0.240
 9917TIP3   OH229693   3.436   5.138   2.259
 9917TIP3    H129694   3.455   5.102   2.173
 9917TIP3    H229695   3.430   5.233   2.245
 9918TIP3   OH229696   3.500   2.486   0.605
 9918TIP3    H129697   3.516   2.398   0.637
 9918TIP3    H229698   3.455   2.473   0.521
 9919TIP3   OH229699   5.139   7.586   5.072
 9919TIP3    H129700   5.127   7.492   5.078
 9919TIP3    H229701   5.059   7.618   5.030
 9920TIP3   OH229702   7.914   6.561   0.396
 9920TIP3    H129703   7.844   6.603   0.346
 9920TIP3    H229704   7.966   6.633   0.430
 9921TIP3   OH229705   7.672   6.489   0.519
 9921TIP3    H129706   7.694   6.474   0.610
 9921TIP3    H229707   7.756   6.493   0.474
 9922TIP3   OH229708   1.869   0.554   2.082
 9922TIP3    H129709   1.880   0.608   2.003
 9922TIP3    H229710   1.914   0.603   2.151
 9923TIP3   OH229711   2.428   6.565   3.000
 9923TIP3    H129712   2.472   6.625   2.940
 9923TIP3    H229713   2.398   6.493   2.945
 9924TIP3   OH229714   5.451   7.131   4.977
 9924TIP3    H129715   5.420   7.202   4.921
 9924TIP3    H229716   5.392   7.058   4.958
 9925TIP3   OH229717   6.556   2.294   0.616
 9925TIP3    H129718   6.632   2.308   0.558
 9925TIP3    H229719   6.588   2.234   0.683
 9926TIP3   OH229720   1.273   3.407   4.874
 9926TIP3    H129721   1.261   3.494   4.910
 9926TIP3    H229722   1.343   3.416   4.809
 9927TIP3   OH229723   2.377   1.707   5.652
 9927TIP3    H129724   2.467   1.722   5.683
 9927TIP3    H229725   2.329   1.679   5.730
 9928TIP3   OH229726   3.514   5.436   1.782
 9928TIP3    H129727   3.423   5.416   1.760
 9928TIP3    H229728   3.523   5.529   1.763
 9929TIP3   OH229729   4.351   2.120   3.758
 9929TIP3    H129730   4.310   2.179   3.822
 9929TIP3    H229731   4.410   2.065   3.810
 9930TIP3   OH229732   5.921   2.275   2.555
 9930TIP3    H129733   5.931   2.219   2.632
 9930TIP3    H229734   6.004   2.323   2.549
 9931TIP3   OH229735   0.297   4.783   2.291
 9931TIP3    H129736   0.357   4.823   2.354
 9931TIP3    H229737   0.307   4.689   2.305
 9932TIP3   OH229738   4.908   0.616   2.202
 9932TIP3    H129739   4.829   0.564   2.187
 9932TIP3    H229740   4.884   0.676   2.273
 9933TIP3   OH229741   0.649   5.411   6.100
 9933TIP3    H129742   0.725   5.364   6.067
 9933TIP3    H229743   0.638   5.379   6.190
 9934TIP3   OH229744   1.686   2.918   3.259
 9934TIP3    H129745   1.596   2.946   3.278
 9934TIP3    H229746   1.726   2.908   3.346
 9935TIP3   OH229747   4.909   0.834   2.997
 9935TIP3    H129748   4.913   0.895   3.071
 9935TIP3    H229749   4.982   0.774   3.013
 9936TIP3   OH229750   3.358   1.238   2.466
 9936TIP3    H129751   3.409   1.307   2.508
 9936TIP3    H229752   3.268   1.270   2.467
 9937TIP3   OH229753   3.983   1.976   5.390
 9937TIP3    H129754   3.892   1.970   5.417
 9937TIP3    H229755   3.984   1.942   5.301
 9938TIP3   OH229756   5.242   2.038   1.394
 9938TIP3    H129757   5.194   1.987   1.459
 9938TIP3    H229758   5.176   2.094   1.354
 9939TIP3   OH229759   5.444   7.715   2.979
 9939TIP3    H129760   5.409   7.799   3.007
 9939TIP3    H229761   5.384   7.651   3.018
 9940TIP3   OH229762   4.246   6.465   6.630
 9940TIP3    H129763   4.243   6.483   6.724
 9940TIP3    H229764   4.155   6.468   6.602
 9941TIP3   OH229765   6.010   6.857   0.546
 9941TIP3    H129766   6.078   6.872   0.480
 9941TIP3    H229767   5.990   6.764   0.539
 9942TIP3   OH229768   8.243   1.248   2.811
 9942TIP3    H129769   8.288   1.173   2.772
 9942TIP3    H229770   8.251   1.234   2.906
 9943TIP3   OH229771   3.982   6.646   1.566
 9943TIP3    H129772   3.922   6.697   1.510
 9943TIP3    H229773   3.958   6.555   1.549
 9944TIP3   OH229774   7.591   3.780   6.243
 9944TIP3    H129775   7.501   3.810   6.257
 9944TIP3    H229776   7.591   3.746   6.153
 9945TIP3   OH229777   0.360   0.162   0.659
 9945TIP3    H129778   0.350   0.257   0.656
 9945TIP3    H229779   0.452   0.147   0.641
 9946TIP3   OH229780   1.703   1.864   3.558
 9946TIP3    H129781   1.621   1.826   3.588
 9946TIP3    H229782   1.678   1.946   3.517
 9947TIP3   OH229783   7.529   4.651   5.681
 9947TIP3    H129784   7.450   4.703   5.670
 9947TIP3    H229785   7.600   4.715   5.676
 9948TIP3   OH229786   1.528   1.452   0.952
 9948TIP3    H129787   1.442   1.413   0.936
 9948TIP3    H229788   1.589   1.395   0.905
 9949TIP3   OH229789   3.710   5.190   5.343
 9949TIP3    H129790   3.643   5.149   5.398
 9949TIP3    H229791   3.660   5.239   5.277
 9950TIP3   OH229792   0.476   0.629   4.693
 9950TIP3    H129793   0.388   0.607   4.662
 9950TIP3    H229794   0.490   0.572   4.769
 9951TIP3   OH229795   1.309   0.736   3.742
 9951TIP3    H129796   1.238   0.780   3.789
 9951TIP3    H229797   1.354   0.806   3.696
 9952TIP3   OH229798   5.204   2.563   6.678
 9952TIP3    H129799   5.120   2.578   6.633
 9952TIP3    H229800   5.269   2.604   6.622
 9953TIP3   OH229801   6.479   5.051   1.087
 9953TIP3    H129802   6.429   5.009   1.017
 9953TIP3    H229803   6.562   5.076   1.046
 9954TIP3   OH229804   5.195   7.707   0.849
 9954TIP3    H129805   5.278   7.696   0.803
 9954TIP3    H229806   5.159   7.619   0.855
 9955TIP3   OH229807   2.990   7.780   5.963
 9955TIP3    H129808   2.964   7.707   5.907
 9955TIP3    H229809   2.958   7.756   6.050
 9956TIP3   OH229810   6.699   4.926   0.934
 9956TIP3    H129811   6.790   4.958   0.934
 9956TIP3    H229812   6.661   4.961   0.854
 9957TIP3   OH229813   4.196   4.356   5.925
 9957TIP3    H129814   4.285   4.361   5.960
 9957TIP3    H229815   4.148   4.427   5.969
 9958TIP3   OH229816   2.516   4.953   4.965
 9958TIP3    H129817   2.485   4.892   4.898
 9958TIP3    H229818   2.436   4.985   5.007
 9959TIP3   OH229819   7.273   5.709   2.524
 9959TIP3    H129820   7.286   5.802   2.505
 9959TIP3    H229821   7.229   5.708   2.609
 9960TIP3   OH229822   7.277   7.373   5.713
 9960TIP3    H129823   7.324   7.353   5.794
 9960TIP3    H229824   7.301   7.464   5.693
 9961TIP3   OH229825   1.530   7.189   4.513
 9961TIP3    H129826   1.589   7.203   4.587
 9961TIP3    H229827   1.582   7.138   4.451
 9962TIP3   OH229828   1.250   4.702   5.396
 9962TIP3    H129829   1.288   4.765   5.458
 9962TIP3    H229830   1.284   4.617   5.424
 9963TIP3   OH229831   2.896   1.122   0.126
 9963TIP3    H129832   2.919   1.113   0.219
 9963TIP3    H229833   2.885   1.216   0.114
 9964TIP3   OH229834   6.154   0.896   2.083
 9964TIP3    H129835   6.184   0.978   2.044
 9964TIP3    H229836   6.201   0.828   2.034
 9965TIP3   OH229837   0.442   1.363   5.214
 9965TIP3    H129838   0.428   1.274   5.180
 9965TIP3    H229839   0.379   1.416   5.166
 9966TIP3   OH229840   2.754   3.672   4.599
 9966TIP3    H129841   2.800   3.644   4.678
 9966TIP3    H229842   2.711   3.593   4.566
 9967TIP3   OH229843   5.139   5.338   6.439
 9967TIP3    H129844   5.229   5.327   6.406
 9967TIP3    H229845   5.126   5.432   6.443
 9968TIP3   OH229846   6.553   6.610   6.112
 9968TIP3    H129847   6.618   6.670   6.076
 9968TIP3    H229848   6.531   6.552   6.039
 9969TIP3   OH229849   6.805   1.938   3.795
 9969TIP3    H129850   6.801   2.002   3.866
 9969TIP3    H229851   6.713   1.920   3.775
 9970TIP3   OH229852   4.040   4.242   3.276
 9970TIP3    H129853   4.058   4.157   3.236
 9970TIP3    H229854   4.095   4.304   3.229
 9971TIP3   OH229855   1.490   3.701   1.338
 9971TIP3    H129856   1.542   3.654   1.273
 9971TIP3    H229857   1.554   3.745   1.394
 9972TIP3   OH229858   6.051   0.636   0.385
 9972TIP3    H129859   6.061   0.727   0.414
 9972TIP3    H229860   6.110   0.586   0.440
 9973TIP3   OH229861   5.409   5.767   3.272
 9973TIP3    H129862   5.361   5.776   3.189
 9973TIP3    H229863   5.500   5.781   3.248
 9974TIP3   OH229864   7.460   2.843   3.875
 9974TIP3    H129865   7.550   2.852   3.845
 9974TIP3    H229866   7.407   2.864   3.799
 9975TIP3   OH229867   2.909   5.761   2.259
 9975TIP3    H129868   2.936   5.693   2.197
 9975TIP3    H229869   2.988   5.812   2.275
 9976TIP3   OH229870   6.584   7.648   0.941
 9976TIP3    H129871   6.584   7.735   0.980
 9976TIP3    H229872   6.524   7.597   0.996
 9977TIP3   OH229873   8.238   0.420   6.173
 9977TIP3    H129874   8.317   0.371   6.197
 9977TIP3    H229875   8.202   0.451   6.256
 9978TIP3   OH229876   3.010   5.447   1.456
 9978TIP3    H129877   3.085   5.427   1.512
 9978TIP3    H229878   3.002   5.370   1.399
 9979TIP3   OH229879   1.400   6.495   3.650
 9979TIP3    H129880   1.412   6.584   3.681
 9979TIP3    H229881   1.331   6.459   3.706
 9980TIP3   OH229882   0.680   2.546   0.076
 9980TIP3    H129883   0.764   2.575   0.039
 9980TIP3    H229884   0.616   2.563   0.007
 9981TIP3   OH229885   1.054   3.236   0.081
 9981TIP3    H129886   1.054   3.167   0.015
 9981TIP3    H229887   1.008   3.197   0.156
 9982TIP3   OH229888   0.387   6.901   6.668
 9982TIP3    H129889   0.444   6.827   6.687
 9982TIP3    H229890   0.303   6.878   6.707
 9983TIP3   OH229891   6.586   7.598   4.626
 9983TIP3    H129892   6.550   7.665   4.568
 9983TIP3    H229893   6.530   7.600   4.703
 9984TIP3   OH229894   0.877   5.613   3.806
 9984TIP3    H129895   0.874   5.707   3.788
 9984TIP3    H229896   0.826   5.573   3.735
 9985TIP3   OH229897   7.794   2.941   0.620
 9985TIP3    H129898   7.734   3.008   0.655
 9985TIP3    H229899   7.784   2.947   0.525
 9986TIP3   OH229900   3.370   3.524   3.589
 9986TIP3    H129901   3.350   3.489   3.676
 9986TIP3    H229902   3.342   3.455   3.529
 9987TIP3   OH229903   6.603   1.069   0.322
 9987TIP3    H129904   6.563   1.011   0.387
 9987TIP3    H229905   6.665   1.122   0.372
 9988TIP3   OH229906   2.394   2.021   5.781
 9988TIP3    H129907   2.389   1.957   5.852
 9988TIP3    H229908   2.319   2.001   5.725
 9989TIP3   OH229909   0.383   3.464   1.118
 9989TIP3    H129910   0.460   3.443   1.171
 9989TIP3    H229911   0.418   3.483   1.031
 9990TIP3   OH229912   2.301   2.401   3.444
 9990TIP3    H129913   2.329   2.320   3.488
 9990TIP3    H229914   2.319   2.384   3.351
 9991TIP3   OH229915   4.613   1.731   3.299
 9991TIP3    H129916   4.674   1.772   3.238
 9991TIP3    H229917   4.607   1.640   3.269
 9992TIP3   OH229918   2.940   5.248   1.294
 9992TIP3    H129919   2.860   5.197   1.290
 9992TIP3    H229920   2.989   5.223   1.216
 9993TIP3   OH229921   5.390   1.174   4.714
 9993TIP3    H129922   5.484   1.189   4.701
 9993TIP3    H229923   5.372   1.093   4.666
 9994TIP3   OH229924   6.540   7.718   3.735
 9994TIP3    H129925   6.518   7.781   3.803
 9994TIP3    H229926   6.573   7.642   3.784
 9995TIP3   OH229927   3.253   6.543   5.966
 9995TIP3    H129928   3.161   6.542   5.991
 9995TIP3    H229929   3.297   6.492   6.034
 9996TIP3   OH229930   1.373   3.938   0.444
 9996TIP3    H129931   1.348   3.846   0.441
 9996TIP3    H229932   1.312   3.978   0.507
 9997TIP3   OH229933   6.560   1.624   4.258
 9997TIP3    H129934   6.599   1.707   4.287
 9997TIP3    H229935   6.613   1.597   4.183
 9998TIP3   OH229936   8.111   7.048   5.226
 9998TIP3    H129937   8.191   7.044   5.174
 9998TIP3    H229938   8.080   6.958   5.229
 9999TIP3   OH229939   6.645   5.733   4.241
 9999TIP3    H129940   6.695   5.760   4.164
 9999TIP3    H229941   6.575   5.797   4.247
10000TIP3   OH229942   2.811   0.314   3.375
10000TIP3    H129943   2.899   0.299   3.341
10000TIP3    H229944   2.799   0.246   3.441
10001TIP3   OH229945   5.488   2.696   1.932
10001TIP3    H129946   5.450   2.777   1.899
10001TIP3    H229947   5.433   2.673   2.007
10002TIP3   OH229948   2.676   2.230   6.062
10002TIP3    H129949   2.588   2.209   6.029
10002TIP3    H229950   2.672   2.324   6.081
10003TIP3   OH229951   6.868   2.606   4.675
10003TIP3    H129952   6.799   2.651   4.724
10003TIP3    H229953   6.940   2.597   4.738
10004TIP3   OH229954   6.132   0.964   5.123
10004TIP3    H129955   6.165   0.963   5.212
10004TIP3    H229956   6.183   0.897   5.077
10005TIP3   OH229957   5.221   3.464   2.649
10005TIP3    H129958   5.285   3.483   2.719
10005TIP3    H229959   5.154   3.411   2.691
10006TIP3   OH229960   5.438   0.160   0.914
10006TIP3    H129961   5.372   0.191   0.976
10006TIP3    H229962   5.444   0.229   0.848
10007TIP3   OH229963   3.965   7.785   5.682
10007TIP3    H129964   3.906   7.747   5.616
10007TIP3    H229965   3.945   7.737   5.762
10008TIP3   OH229966   6.176   5.460   4.630
10008TIP3    H129967   6.155   5.477   4.538
10008TIP3    H229968   6.271   5.463   4.635
10009TIP3   OH229969   3.562   6.751   5.897
10009TIP3    H129970   3.584   6.699   5.974
10009TIP3    H229971   3.499   6.696   5.849
10010TIP3   OH229972   2.145   2.418   2.388
10010TIP3    H129973   2.158   2.326   2.367
10010TIP3    H229974   2.062   2.421   2.435
10011TIP3   OH229975   6.138   0.938   3.151
10011TIP3    H129976   6.180   0.856   3.125
10011TIP3    H229977   6.091   0.917   3.231
10012TIP3   OH229978   5.189   1.115   3.433
10012TIP3    H129979   5.105   1.072   3.419
10012TIP3    H229980   5.190   1.187   3.370
10013TIP3   OH229981   5.779   6.202   0.522
10013TIP3    H129982   5.871   6.193   0.498
10013TIP3    H229983   5.740   6.248   0.447
10014TIP3   OH229984   6.345   3.905   4.652
10014TIP3    H129985   6.401   3.949   4.587
10014TIP3    H229986   6.406   3.860   4.710
10015TIP3   OH229987   7.421   6.763   4.866
10015TIP3    H129988   7.440   6.721   4.950
10015TIP3    H229989   7.503   6.806   4.842
10016TIP3   OH229990   0.030   0.855   2.355
10016TIP3    H129991   0.067   0.791   2.294
10016TIP3    H229992   0.088   0.931   2.348
10017TIP3   OH229993   6.850   3.581   3.719
10017TIP3    H129994   6.788   3.624   3.778
10017TIP3    H229995   6.936   3.600   3.756
10018TIP3   OH229996   1.796   7.626   4.104
10018TIP3    H129997   1.811   7.655   4.194
10018TIP3    H229998   1.873   7.655   4.056
10019TIP3   OH229999   2.760   5.429   1.591
10019TIP3    H130000   2.814   5.487   1.538
10019TIP3    H230001   2.747   5.351   1.537
10020TIP3   OH230002   3.988   0.295   0.047
10020TIP3    H130003   3.964   0.233   0.116
10020TIP3    H230004   4.044   0.359   0.090
10021TIP3   OH230005   3.192   6.890   6.653
10021TIP3    H130006   3.193   6.866   6.560
10021TIP3    H230007   3.102   6.920   6.669
10022TIP3   OH230008   0.416   2.952   2.322
10022TIP3    H130009   0.376   3.038   2.328
10022TIP3    H230010   0.508   2.970   2.304
10023TIP3   OH230011   5.767   0.917   0.390
10023TIP3    H130012   5.857   0.902   0.417
10023TIP3    H230013   5.774   0.973   0.313
10024TIP3   OH230014   5.679   0.575   6.725
10024TIP3    H130015   5.716   0.492   6.756
10024TIP3    H230016   5.595   0.582   6.769
10025TIP3   OH230017   1.311   3.651   0.495
10025TIP3    H130018   1.377   3.628   0.561
10025TIP3    H230019   1.326   3.589   0.424
10026TIP3   OH230020   7.181   7.093   3.474
10026TIP3    H130021   7.204   7.183   3.498
10026TIP3    H230022   7.244   7.039   3.522
10027TIP3   OH230023   2.466   2.232   3.926
10027TIP3    H130024   2.534   2.166   3.932
10027TIP3    H230025   2.460   2.269   4.014
10028TIP3   OH230026   0.369   6.986   3.996
10028TIP3    H130027   0.321   6.906   3.978
10028TIP3    H230028   0.417   6.968   4.077
10029TIP3   OH230029   5.901   0.415   3.469
10029TIP3    H130030   5.850   0.344   3.508
10029TIP3    H230031   5.940   0.460   3.544
10030TIP3   OH230032   2.530   3.065   4.378
10030TIP3    H130033   2.577   3.094   4.457
10030TIP3    H230034   2.568   2.979   4.359
10031TIP3   OH230035   0.544   3.474   2.317
10031TIP3    H130036   0.543   3.473   2.222
10031TIP3    H230037   0.568   3.563   2.340
10032TIP3   OH230038   0.374   2.633   3.137
10032TIP3    H130039   0.368   2.649   3.231
10032TIP3    H230040   0.457   2.674   3.110
10033TIP3   OH230041   6.316   2.181   0.633
10033TIP3    H130042   6.239   2.232   0.609
10033TIP3    H230043   6.390   2.239   0.616
10034TIP3   OH230044   7.131   1.154   3.394
10034TIP3    H130045   7.093   1.096   3.460
10034TIP3    H230046   7.171   1.095   3.330
10035TIP3   OH230047   3.466   6.790   2.717
10035TIP3    H130048   3.464   6.768   2.810
10035TIP3    H230049   3.520   6.722   2.677
10036TIP3   OH230050   6.506   1.894   1.847
10036TIP3    H130051   6.472   1.811   1.813
10036TIP3    H230052   6.442   1.921   1.912
10037TIP3   OH230053   4.883   2.020   5.448
10037TIP3    H130054   4.852   1.984   5.364
10037TIP3    H230055   4.972   2.050   5.429
10038TIP3   OH230056   2.638   6.301   4.069
10038TIP3    H130057   2.625   6.366   4.001
10038TIP3    H230058   2.571   6.235   4.053
10039TIP3   OH230059   6.436   1.744   2.229
10039TIP3    H130060   6.423   1.830   2.189
10039TIP3    H230061   6.529   1.740   2.249
10040TIP3   OH230062   4.093   2.989   3.060
10040TIP3    H130063   4.123   2.990   2.969
10040TIP3    H230064   4.171   3.012   3.111
10041TIP3   OH230065   4.081   5.488   6.537
10041TIP3    H130066   4.159   5.516   6.585
10041TIP3    H230067   4.031   5.569   6.524
10042TIP3   OH230068   6.795   4.471   0.408
10042TIP3    H130069   6.714   4.484   0.457
10042TIP3    H230070   6.838   4.398   0.451
10043TIP3   OH230071   8.073   7.437   6.143
10043TIP3    H130072   8.109   7.471   6.061
10043TIP3    H230073   7.980   7.426   6.126
10044TIP3   OH230074   4.448   3.201   3.807
10044TIP3    H130075   4.451   3.195   3.903
10044TIP3    H230076   4.393   3.128   3.780
10045TIP3   OH230077   3.815   4.554   6.477
10045TIP3    H130078   3.815   4.550   6.573
10045TIP3    H230079   3.856   4.638   6.457
10046TIP3   OH230080   7.412   3.320   1.533
10046TIP3    H130081   7.404   3.403   1.487
10046TIP3    H230082   7.362   3.258   1.479
10047TIP3   OH230083   0.676   0.355   2.893
10047TIP3    H130084   0.721   0.289   2.947
10047TIP3    H230085   0.660   0.310   2.810
10048TIP3   OH230086   2.646   7.233   0.398
10048TIP3    H130087   2.570   7.277   0.360
10048TIP3    H230088   2.608   7.164   0.453
10049TIP3   OH230089   4.868   0.979   1.317
10049TIP3    H130090   4.814   1.028   1.379
10049TIP3    H230091   4.928   0.929   1.372
10050TIP3   OH230092   1.910   7.234   5.124
10050TIP3    H130093   1.895   7.228   5.219
10050TIP3    H230094   2.003   7.217   5.114
10051TIP3   OH230095   0.295   0.178   4.437
10051TIP3    H130096   0.244   0.171   4.356
10051TIP3    H230097   0.342   0.095   4.443
10052TIP3   OH230098   8.064   1.022   2.111
10052TIP3    H130099   8.138   1.079   2.090
10052TIP3    H230100   7.990   1.061   2.065
10053TIP3   OH230101   5.192   2.499   0.918
10053TIP3    H130102   5.098   2.496   0.936
10053TIP3    H230103   5.213   2.411   0.886
10054TIP3   OH230104   4.605   3.157   2.425
10054TIP3    H130105   4.557   3.079   2.397
10054TIP3    H230106   4.678   3.122   2.477
10055TIP3   OH230107   4.278   3.296   4.469
10055TIP3    H130108   4.249   3.241   4.542
10055TIP3    H230109   4.197   3.333   4.434
10056TIP3   OH230110   8.245   6.241   5.701
10056TIP3    H130111   8.169   6.282   5.659
10056TIP3    H230112   8.310   6.311   5.705
10057TIP3   OH230113   3.036   7.628   2.372
10057TIP3    H130114   3.092   7.558   2.340
10057TIP3    H230115   2.976   7.646   2.300
10058TIP3   OH230116   0.774   7.713   1.785
10058TIP3    H130117   0.789   7.773   1.857
10058TIP3    H230118   0.683   7.686   1.794
10059TIP3   OH230119   1.146   2.140   0.678
10059TIP3    H130120   1.106   2.114   0.762
10059TIP3    H230121   1.142   2.236   0.679
10060TIP3   OH230122   5.869   6.011   5.687
10060TIP3    H130123   5.818   5.985   5.611
10060TIP3    H230124   5.827   6.091   5.718
10061TIP3   OH230125   1.496   6.986   6.268
10061TIP3    H130126   1.409   7.021   6.249
10061TIP3    H230127   1.552   7.063   6.273
10062TIP3   OH230128   3.922   5.730   4.606
10062TIP3    H130129   3.850   5.668   4.619
10062TIP3    H230130   3.883   5.815   4.623
10063TIP3   OH230131   1.473   7.609   4.448
10063TIP3    H130132   1.468   7.670   4.521
10063TIP3    H230133   1.478   7.522   4.488
10064TIP3   OH230134   4.627   1.484   4.939
10064TIP3    H130135   4.698   1.445   4.991
10064TIP3    H230136   4.644   1.578   4.942
10065TIP3   OH230137   0.473   6.887   3.132
10065TIP3    H130138   0.554   6.837   3.119
10065TIP3    H230139   0.465   6.895   3.227
10066TIP3   OH230140   1.583   5.156   4.135
10066TIP3    H130141   1.641   5.229   4.113
10066TIP3    H230142   1.550   5.179   4.222
10067TIP3   OH230143   7.278   5.286   5.476
10067TIP3    H130144   7.373   5.299   5.475
10067TIP3    H230145   7.256   5.261   5.387
10068TIP3   OH230146   2.986   5.541   6.735
10068TIP3    H130147   2.919   5.491   6.782
10068TIP3    H230148   3.060   5.481   6.728
10069TIP3   OH230149   0.086   6.084   3.356
10069TIP3    H130150   0.079   6.045   3.269
10069TIP3    H230151   0.047   6.170   3.347
10070TIP3   OH230152   0.298   1.895   6.680
10070TIP3    H130153   0.222   1.837   6.673
10070TIP3    H230154   0.324   1.888   6.772
10071TIP3   OH230155   6.513   3.688   3.728
10071TIP3    H130156   6.567   3.765   3.717
10071TIP3    H230157   6.493   3.686   3.822
10072TIP3   OH230158   1.323   7.065   5.947
10072TIP3    H130159   1.261   7.071   5.875
10072TIP3    H230160   1.309   6.978   5.984
10073TIP3   OH230161   1.281   4.255   4.209
10073TIP3    H130162   1.191   4.278   4.186
10073TIP3    H230163   1.334   4.320   4.163
10074TIP3   OH230164   1.822   3.788   4.558
10074TIP3    H130165   1.856   3.748   4.638
10074TIP3    H230166   1.892   3.846   4.529
10075TIP3   OH230167   1.613   2.810   6.720
10075TIP3    H130168   1.631   2.746   6.790
10075TIP3    H230169   1.528   2.782   6.685
10076TIP3   OH230170   0.599   1.230   3.551
10076TIP3    H130171   0.590   1.223   3.456
10076TIP3    H230172   0.587   1.141   3.584
10077TIP3   OH230173   5.106   0.316   4.815
10077TIP3    H130174   5.031   0.257   4.822
10077TIP3    H230175   5.074   0.389   4.761
10078TIP3   OH230176   1.433   4.485   0.848
10078TIP3    H130177   1.491   4.496   0.773
10078TIP3    H230178   1.360   4.433   0.814
10079TIP3   OH230179   3.501   3.412   4.096
10079TIP3    H130180   3.409   3.414   4.069
10079TIP3    H230181   3.549   3.437   4.018
10080TIP3   OH230182   1.504   4.927   4.997
10080TIP3    H130183   1.585   4.938   5.046
10080TIP3    H230184   1.452   4.866   5.050
10081TIP3   OH230185   6.959   6.349   4.511
10081TIP3    H130186   6.978   6.416   4.577
10081TIP3    H230187   6.913   6.281   4.560
10082TIP3   OH230188   5.129   0.364   0.625
10082TIP3    H130189   5.114   0.294   0.562
10082TIP3    H230190   5.098   0.329   0.708
10083TIP3   OH230191   3.588   4.479   3.779
10083TIP3    H130192   3.630   4.435   3.852
10083TIP3    H230193   3.608   4.423   3.703
10084TIP3   OH230194   7.949   2.477   2.772
10084TIP3    H130195   7.902   2.491   2.854
10084TIP3    H230196   7.971   2.384   2.773
10085TIP3   OH230197   4.035   5.079   0.472
10085TIP3    H130198   3.962   5.124   0.515
10085TIP3    H230199   3.999   4.992   0.451
10086TIP3   OH230200   6.768   6.453   0.634
10086TIP3    H130201   6.725   6.484   0.713
10086TIP3    H230202   6.839   6.516   0.619
10087TIP3   OH230203   7.611   4.811   0.715
10087TIP3    H130204   7.652   4.887   0.672
10087TIP3    H230205   7.614   4.831   0.808
10088TIP3   OH230206   2.865   1.285   5.856
10088TIP3    H130207   2.949   1.254   5.889
10088TIP3    H230208   2.799   1.236   5.906
10089TIP3   OH230209   7.270   7.343   0.535
10089TIP3    H130210   7.248   7.249   0.534
10089TIP3    H230211   7.270   7.368   0.443
10090TIP3   OH230212   8.066   0.090   4.099
10090TIP3    H130213   8.112   0.097   4.015
10090TIP3    H230214   7.974   0.078   4.075
10091TIP3   OH230215   1.161   4.607   2.256
10091TIP3    H130216   1.200   4.689   2.288
10091TIP3    H230217   1.070   4.630   2.236
10092TIP3   OH230218   7.069   4.686   2.774
10092TIP3    H130219   7.163   4.702   2.760
10092TIP3    H230220   7.028   4.720   2.694
10093TIP3   OH230221   7.979   7.564   6.443
10093TIP3    H130222   8.071   7.576   6.468
10093TIP3    H230223   7.944   7.505   6.510
10094TIP3   OH230224   4.531   6.520   4.434
10094TIP3    H130225   4.528   6.432   4.471
10094TIP3    H230226   4.443   6.534   4.399
10095TIP3   OH230227   4.691   6.457   1.192
10095TIP3    H130228   4.785   6.452   1.174
10095TIP3    H230229   4.684   6.515   1.268
10096TIP3   OH230230   3.796   2.584   4.821
10096TIP3    H130231   3.878   2.537   4.837
10096TIP3    H230232   3.820   2.653   4.759
10097TIP3   OH230233   4.844   6.301   2.238
10097TIP3    H130234   4.865   6.385   2.199
10097TIP3    H230235   4.787   6.322   2.312
10098TIP3   OH230236   3.318   1.357   0.916
10098TIP3    H130237   3.297   1.450   0.903
10098TIP3    H230238   3.268   1.312   0.848
10099TIP3   OH230239   2.865   4.418   0.726
10099TIP3    H130240   2.826   4.367   0.655
10099TIP3    H230241   2.794   4.471   0.760
10100TIP3   OH230242   5.183   2.752   5.512
10100TIP3    H130243   5.098   2.731   5.550
10100TIP3    H230244   5.178   2.846   5.492
10101TIP3   OH230245   6.660   0.566   0.381
10101TIP3    H130246   6.581   0.544   0.332
10101TIP3    H230247   6.732   0.542   0.322
10102TIP3   OH230248   1.337   7.439   6.666
10102TIP3    H130249   1.337   7.403   6.578
10102TIP3    H230250   1.249   7.474   6.678
10103TIP3   OH230251   5.839   2.752   6.685
10103TIP3    H130252   5.837   2.841   6.722
10103TIP3    H230253   5.760   2.748   6.631
10104TIP3   OH230254   2.401   7.311   6.286
10104TIP3    H130255   2.386   7.353   6.202
10104TIP3    H230256   2.318   7.319   6.333
10105TIP3   OH230257   0.375   4.845   4.593
10105TIP3    H130258   0.370   4.802   4.508
10105TIP3    H230259   0.368   4.938   4.574
10106TIP3   OH230260   2.969   2.826   5.570
10106TIP3    H130261   2.937   2.890   5.506
10106TIP3    H230262   2.930   2.743   5.543
10107TIP3   OH230263   8.114   0.579   0.034
10107TIP3    H130264   8.094   0.610   0.123
10107TIP3    H230265   8.123   0.658  -0.018
10108TIP3   OH230266   6.765   3.952   3.984
10108TIP3    H130267   6.748   3.863   4.015
10108TIP3    H230268   6.712   3.960   3.905
10109TIP3   OH230269   6.193   1.764   0.296
10109TIP3    H130270   6.145   1.744   0.376
10109TIP3    H230271   6.140   1.723   0.227
10110TIP3   OH230272   2.271   6.930   0.132
10110TIP3    H130273   2.244   6.850   0.087
10110TIP3    H230274   2.206   6.941   0.201
10111TIP3   OH230275   8.142   0.792   2.018
10111TIP3    H130276   8.094   0.866   2.056
10111TIP3    H230277   8.192   0.756   2.092
10112TIP3   OH230278   0.695   2.920   0.094
10112TIP3    H130279   0.754   2.862   0.143
10112TIP3    H230280   0.719   2.907   0.002
10113TIP3   OH230281   7.013   3.532   0.122
10113TIP3    H130282   6.990   3.604   0.180
10113TIP3    H230283   6.957   3.543   0.045
10114TIP3   OH230284   2.769   4.967   0.826
10114TIP3    H130285   2.833   4.913   0.779
10114TIP3    H230286   2.743   5.033   0.762
10115TIP3   OH230287   0.289   5.969   0.953
10115TIP3    H130288   0.339   6.028   0.896
10115TIP3    H230289   0.223   6.025   0.995
10116TIP3   OH230290   3.376   3.258   1.046
10116TIP3    H130291   3.448   3.197   1.029
10116TIP3    H230292   3.315   3.243   0.974
10117TIP3   OH230293   2.282   2.149   3.061
10117TIP3    H130294   2.207   2.092   3.080
10117TIP3    H230295   2.270   2.174   2.969
10118TIP3   OH230296   6.313   6.639   5.064
10118TIP3    H130297   6.357   6.642   4.979
10118TIP3    H230298   6.221   6.658   5.044
10119TIP3   OH230299   0.103   0.888   4.452
10119TIP3    H130300   0.141   0.824   4.392
10119TIP3    H230301   0.023   0.917   4.408
10120TIP3   OH230302   1.664   7.024   3.627
10120TIP3    H130303   1.730   6.988   3.687
10120TIP3    H230304   1.600   7.065   3.684
10121TIP3   OH230305   6.743   5.719   5.564
10121TIP3    H130306   6.771   5.637   5.524
10121TIP3    H230307   6.649   5.723   5.550
10122TIP3   OH230308   2.826   3.487   1.729
10122TIP3    H130309   2.845   3.447   1.644
10122TIP3    H230310   2.901   3.546   1.744
10123TIP3   OH230311   4.068   5.554   2.959
10123TIP3    H130312   4.110   5.472   2.935
10123TIP3    H230313   4.138   5.619   2.955
10124TIP3   OH230314   2.092   2.263   4.226
10124TIP3    H130315   2.068   2.171   4.236
10124TIP3    H230316   2.010   2.306   4.198
10125TIP3   OH230317   1.259   0.813   5.742
10125TIP3    H130318   1.270   0.825   5.648
10125TIP3    H230319   1.347   0.790   5.774
10126TIP3   OH230320   4.528   5.447   2.701
10126TIP3    H130321   4.448   5.425   2.654
10126TIP3    H230322   4.521   5.398   2.783
10127TIP3   OH230323   0.258   6.587   0.892
10127TIP3    H130324   0.279   6.506   0.940
10127TIP3    H230325   0.211   6.641   0.955
10128TIP3   OH230326   0.257   0.857   0.922
10128TIP3    H130327   0.213   0.932   0.882
10128TIP3    H230328   0.347   0.885   0.933
10129TIP3   OH230329   5.337   1.027   5.669
10129TIP3    H130330   5.351   1.110   5.624
10129TIP3    H230331   5.296   1.051   5.752
10130TIP3   OH230332   0.253   3.340   3.275
10130TIP3    H130333   0.258   3.245   3.260
10130TIP3    H230334   0.185   3.370   3.216
10131TIP3   OH230335   5.704   1.768   5.376
10131TIP3    H130336   5.728   1.836   5.314
10131TIP3    H230337   5.766   1.697   5.358
10132TIP3   OH230338   0.368   2.407   3.935
10132TIP3    H130339   0.283   2.363   3.939
10132TIP3    H230340   0.350   2.496   3.964
10133TIP3   OH230341   7.009   0.895   4.304
10133TIP3    H130342   7.071   0.827   4.330
10133TIP3    H230343   7.061   0.956   4.252
10134TIP3   OH230344   1.223   4.410   4.878
10134TIP3    H130345   1.239   4.443   4.790
10134TIP3    H230346   1.130   4.428   4.893
10135TIP3   OH230347   0.495   1.206   2.449
10135TIP3    H130348   0.447   1.133   2.489
10135TIP3    H230349   0.430   1.254   2.399
10136TIP3   OH230350   3.547   5.829   0.289
10136TIP3    H130351   3.551   5.876   0.206
10136TIP3    H230352   3.632   5.786   0.296
10137TIP3   OH230353   8.033   6.257   3.661
10137TIP3    H130354   8.013   6.343   3.624
10137TIP3    H230355   7.972   6.248   3.734
10138TIP3   OH230356   2.111   4.971   3.965
10138TIP3    H130357   2.085   4.928   3.883
10138TIP3    H230358   2.114   5.064   3.944
10139TIP3   OH230359   3.269   0.880   2.706
10139TIP3    H130360   3.273   0.836   2.621
10139TIP3    H230361   3.182   0.858   2.740
10140TIP3   OH230362   7.361   0.103   6.078
10140TIP3    H130363   7.423   0.138   6.142
10140TIP3    H230364   7.312   0.036   6.126
10141TIP3   OH230365   5.806   6.142   4.520
10141TIP3    H130366   5.828   6.096   4.439
10141TIP3    H230367   5.807   6.074   4.587
10142TIP3   OH230368   0.207   4.317   6.472
10142TIP3    H130369   0.274   4.324   6.541
10142TIP3    H230370   0.124   4.309   6.520
10143TIP3   OH230371   5.693   7.118   3.505
10143TIP3    H130372   5.643   7.062   3.564
10143TIP3    H230373   5.637   7.127   3.427
10144TIP3   OH230374   5.442   2.597   5.263
10144TIP3    H130375   5.457   2.662   5.194
10144TIP3    H230376   5.529   2.571   5.291
10145TIP3   OH230377   7.183   5.710   2.042
10145TIP3    H130378   7.266   5.743   2.007
10145TIP3    H230379   7.126   5.788   2.045
10146TIP3   OH230380   8.108   6.029   0.281
10146TIP3    H130381   8.148   5.942   0.288
10146TIP3    H230382   8.019   6.011   0.250
10147TIP3   OH230383   5.698   6.198   6.352
10147TIP3    H130384   5.767   6.147   6.311
10147TIP3    H230385   5.645   6.229   6.278
10148TIP3   OH230386   0.145   3.192   2.092
10148TIP3    H130387   0.175   3.246   2.018
10148TIP3    H230388   0.177   3.238   2.169
10149TIP3   OH230389   2.160   7.413   1.164
10149TIP3    H130390   2.145   7.353   1.238
10149TIP3    H230391   2.142   7.500   1.200
10150TIP3   OH230392   6.061   7.311   6.031
10150TIP3    H130393   6.090   7.255   5.959
10150TIP3    H230394   6.076   7.259   6.110
10151TIP3   OH230395   6.721   4.631   3.579
10151TIP3    H130396   6.731   4.536   3.576
10151TIP3    H230397   6.767   4.662   3.501
10152TIP3   OH230398   4.904   4.586   2.582
10152TIP3    H130399   4.949   4.577   2.498
10152TIP3    H230400   4.833   4.522   2.578
10153TIP3   OH230401   3.645   0.423   6.674
10153TIP3    H130402   3.731   0.459   6.696
10153TIP3    H230403   3.641   0.426   6.579
10154TIP3   OH230404   2.947   1.461   5.003
10154TIP3    H130405   2.928   1.477   5.095
10154TIP3    H230406   2.866   1.424   4.967
10155TIP3   OH230407   3.684   2.527   6.460
10155TIP3    H130408   3.642   2.500   6.542
10155TIP3    H230409   3.649   2.614   6.442
10156TIP3   OH230410   7.647   6.261   2.363
10156TIP3    H130411   7.688   6.333   2.410
10156TIP3    H230412   7.564   6.245   2.409
10157TIP3   OH230413   2.345   7.652   2.135
10157TIP3    H130414   2.325   7.678   2.045
10157TIP3    H230415   2.261   7.657   2.181
10158TIP3   OH230416   3.485   0.646   3.507
10158TIP3    H130417   3.431   0.725   3.509
10158TIP3    H230418   3.516   0.641   3.416
10159TIP3   OH230419   1.604   7.441   2.195
10159TIP3    H130420   1.532   7.451   2.134
10159TIP3    H230421   1.576   7.371   2.254
10160TIP3   OH230422   7.257   0.771   5.791
10160TIP3    H130423   7.233   0.692   5.838
10160TIP3    H230424   7.348   0.788   5.816
10161TIP3   OH230425   3.850   6.297   3.483
10161TIP3    H130426   3.943   6.300   3.461
10161TIP3    H230427   3.806   6.303   3.398
10162TIP3   OH230428   7.716   4.740   2.839
10162TIP3    H130429   7.729   4.649   2.864
10162TIP3    H230430   7.640   4.768   2.889
10163TIP3   OH230431   5.534   7.711   0.934
10163TIP3    H130432   5.529   7.656   0.856
10163TIP3    H230433   5.575   7.792   0.904
10164TIP3   OH230434   6.975   0.317   1.055
10164TIP3    H130435   7.006   0.359   1.135
10164TIP3    H230436   6.880   0.316   1.064
10165TIP3   OH230437   3.171   7.216   1.956
10165TIP3    H130438   3.238   7.192   1.893
10165TIP3    H230439   3.217   7.218   2.040
10166TIP3   OH230440   0.533   2.175   2.406
10166TIP3    H130441   0.599   2.118   2.366
10166TIP3    H230442   0.521   2.246   2.343
10167TIP3   OH230443   4.772   5.400   6.334
10167TIP3    H130444   4.813   5.318   6.308
10167TIP3    H230445   4.790   5.407   6.428
10168TIP3   OH230446   5.290   6.137   0.080
10168TIP3    H130447   5.321   6.210   0.132
10168TIP3    H230448   5.366   6.109   0.028
10169TIP3   OH230449   5.863   4.078   4.719
10169TIP3    H130450   5.953   4.068   4.748
10169TIP3    H230451   5.849   4.173   4.716
10170TIP3   OH230452   3.254   3.949   2.763
10170TIP3    H130453   3.334   3.996   2.741
10170TIP3    H230454   3.211   3.933   2.679
10171TIP3   OH230455   3.050   1.580   3.498
10171TIP3    H130456   3.121   1.601   3.558
10171TIP3    H230457   3.017   1.666   3.470
10172TIP3   OH230458   8.249   7.107   4.806
10172TIP3    H130459   8.261   7.189   4.853
10172TIP3    H230460   8.163   7.076   4.833
10173TIP3   OH230461   4.644   7.180   1.804
10173TIP3    H130462   4.707   7.119   1.765
10173TIP3    H230463   4.655   7.260   1.753
10174TIP3   OH230464   5.046   6.112   2.294
10174TIP3    H130465   5.001   6.191   2.264
10174TIP3    H230466   5.001   6.088   2.375
10175TIP3   OH230467   3.490   0.419   0.805
10175TIP3    H130468   3.520   0.345   0.858
10175TIP3    H230469   3.444   0.378   0.731
10176TIP3   OH230470   2.625   2.435   5.299
10176TIP3    H130471   2.682   2.387   5.238
10176TIP3    H230472   2.609   2.518   5.254
10177TIP3   OH230473   4.212   1.161   4.608
10177TIP3    H130474   4.205   1.154   4.704
10177TIP3    H230475   4.190   1.252   4.590
10178TIP3   OH230476   0.653   5.930   0.616
10178TIP3    H130477   0.718   5.998   0.632
10178TIP3    H230478   0.572   5.964   0.654
10179TIP3   OH230479   7.651   4.334   1.540
10179TIP3    H130480   7.646   4.407   1.601
10179TIP3    H230481   7.654   4.256   1.595
10180TIP3   OH230482   6.127   7.036   2.927
10180TIP3    H130483   6.102   6.954   2.885
10180TIP3    H230484   6.106   7.104   2.863
10181TIP3   OH230485   0.456   1.013   1.034
10181TIP3    H130486   0.459   1.066   0.955
10181TIP3    H230487   0.401   1.063   1.094
10182TIP3   OH230488   5.378   6.352   0.981
10182TIP3    H130489   5.322   6.348   1.058
10182TIP3    H230490   5.392   6.446   0.967
10183TIP3   OH230491   6.997   1.960   1.127
10183TIP3    H130492   7.027   1.909   1.051
10183TIP3    H230493   6.931   2.020   1.092
10184TIP3   OH230494   3.896   0.665   3.243
10184TIP3    H130495   3.907   0.604   3.170
10184TIP3    H230496   3.938   0.746   3.212
10185TIP3   OH230497   4.673   0.849   4.180
10185TIP3    H130498   4.665   0.757   4.206
10185TIP3    H230499   4.591   0.868   4.135
10186TIP3   OH230500   6.913   4.299   0.575
10186TIP3    H130501   6.983   4.358   0.602
10186TIP3    H230502   6.846   4.307   0.643
10187TIP3   OH230503   1.460   7.295   4.224
10187TIP3    H130504   1.484   7.256   4.309
10187TIP3    H230505   1.542   7.325   4.187
10188TIP3   OH230506   2.111   6.309   0.438
10188TIP3    H130507   2.143   6.227   0.476
10188TIP3    H230508   2.041   6.282   0.378
10189TIP3   OH230509   0.763   3.330   2.455
10189TIP3    H130510   0.761   3.317   2.550
10189TIP3    H230511   0.691   3.392   2.438
10190TIP3   OH230512   1.068   3.000   4.706
10190TIP3    H130513   0.996   2.999   4.769
10190TIP3    H230514   1.115   3.081   4.724
10191TIP3   OH230515   0.546   4.184   0.662
10191TIP3    H130516   0.474   4.246   0.675
10191TIP3    H230517   0.537   4.121   0.733
10192TIP3   OH230518   1.563   6.729   5.058
10192TIP3    H130519   1.652   6.701   5.036
10192TIP3    H230520   1.559   6.821   5.032
10193TIP3   OH230521   5.480   1.163   0.751
10193TIP3    H130522   5.530   1.239   0.720
10193TIP3    H230523   5.494   1.097   0.683
10194TIP3   OH230524   4.331   2.121   2.837
10194TIP3    H130525   4.394   2.059   2.874
10194TIP3    H230526   4.326   2.191   2.901
10195TIP3   OH230527   5.623   4.681   3.197
10195TIP3    H130528   5.551   4.721   3.246
10195TIP3    H230529   5.664   4.621   3.259
10196TIP3   OH230530   8.134   4.587   0.729
10196TIP3    H130531   8.061   4.565   0.672
10196TIP3    H230532   8.098   4.583   0.817
10197TIP3   OH230533   6.720   5.237   4.769
10197TIP3    H130534   6.714   5.148   4.735
10197TIP3    H230535   6.806   5.268   4.742
10198TIP3   OH230536   2.479   1.855   4.176
10198TIP3    H130537   2.552   1.912   4.201
10198TIP3    H230538   2.490   1.778   4.231
10199TIP3   OH230539   4.077   5.734   0.430
10199TIP3    H130540   4.097   5.738   0.523
10199TIP3    H230541   4.114   5.814   0.393
10200TIP3   OH230542   6.037   7.280   2.238
10200TIP3    H130543   6.095   7.347   2.272
10200TIP3    H230544   5.950   7.321   2.237
10201TIP3   OH230545   2.252   1.359   5.980
10201TIP3    H130546   2.195   1.397   6.047
10201TIP3    H230547   2.241   1.415   5.903
10202TIP3   OH230548   7.763   1.068   5.988
10202TIP3    H130549   7.832   1.134   5.994
10202TIP3    H230550   7.798   1.003   5.927
10203TIP3   OH230551   2.630   7.482   4.469
10203TIP3    H130552   2.548   7.510   4.510
10203TIP3    H230553   2.676   7.564   4.450
10204TIP3   OH230554   6.072   3.572   2.721
10204TIP3    H130555   6.141   3.511   2.748
10204TIP3    H230556   6.108   3.615   2.643
10205TIP3   OH230557   6.470   5.922   2.564
10205TIP3    H130558   6.432   5.959   2.484
10205TIP3    H230559   6.565   5.925   2.549
10206TIP3   OH230560   3.003   0.262   0.163
10206TIP3    H130561   2.994   0.330   0.096
10206TIP3    H230562   2.978   0.181   0.119
10207TIP3   OH230563   4.188   2.618   2.428
10207TIP3    H130564   4.129   2.673   2.479
10207TIP3    H230565   4.255   2.589   2.490
10208TIP3   OH230566   6.240   2.788   0.376
10208TIP3    H130567   6.259   2.840   0.454
10208TIP3    H230568   6.300   2.713   0.382
10209TIP3   OH230569   7.155   2.431   4.079
10209TIP3    H130570   7.187   2.486   4.150
10209TIP3    H230571   7.211   2.453   4.005
10210TIP3   OH230572   7.326   0.715   2.437
10210TIP3    H130573   7.403   0.718   2.380
10210TIP3    H230574   7.252   0.707   2.376
10211TIP3   OH230575   1.108   2.219   4.003
10211TIP3    H130576   1.090   2.264   3.921
10211TIP3    H230577   1.125   2.289   4.066
10212TIP3   OH230578   4.177   2.985   0.429
10212TIP3    H130579   4.170   3.015   0.520
10212TIP3    H230580   4.255   3.028   0.396
10213TIP3   OH230581   6.078   6.068   4.631
10213TIP3    H130582   5.992   6.028   4.645
10213TIP3    H230583   6.130   6.039   4.706
10214TIP3   OH230584   5.022   4.131   0.321
10214TIP3    H130585   5.060   4.125   0.234
10214TIP3    H230586   4.941   4.180   0.309
10215TIP3   OH230587   6.620   3.396   3.880
10215TIP3    H130588   6.661   3.482   3.868
10215TIP3    H230589   6.664   3.360   3.958
10216TIP3   OH230590   8.293   3.101   1.189
10216TIP3    H130591   8.328   3.190   1.181
10216TIP3    H230592   8.220   3.097   1.127
10217TIP3   OH230593   1.763   1.620   6.552
10217TIP3    H130594   1.769   1.672   6.633
10217TIP3    H230595   1.726   1.681   6.488
10218TIP3   OH230596   4.863   1.641   4.449
10218TIP3    H130597   4.802   1.568   4.434
10218TIP3    H230598   4.931   1.629   4.383
10219TIP3   OH230599   0.530   7.486   2.222
10219TIP3    H130600   0.491   7.410   2.179
10219TIP3    H230601   0.459   7.550   2.226
10220TIP3   OH230602   2.012   1.009   4.697
10220TIP3    H130603   1.927   0.998   4.655
10220TIP3    H230604   2.001   1.084   4.755
10221TIP3   OH230605   4.358   5.591   4.812
10221TIP3    H130606   4.358   5.509   4.763
10221TIP3    H230607   4.365   5.563   4.904
10222TIP3   OH230608   2.821   1.022   6.302
10222TIP3    H130609   2.828   1.117   6.294
10222TIP3    H230610   2.780   1.008   6.387
10223TIP3   OH230611   1.251   6.330   6.623
10223TIP3    H130612   1.287   6.418   6.630
10223TIP3    H230613   1.283   6.285   6.702
10224TIP3   OH230614   5.618   3.171   0.561
10224TIP3    H130615   5.569   3.132   0.489
10224TIP3    H230616   5.570   3.252   0.582
10225TIP3   OH230617   4.401   3.255   5.499
10225TIP3    H130618   4.474   3.304   5.536
10225TIP3    H230619   4.441   3.203   5.429
10226TIP3   OH230620   2.367   6.505   4.883
10226TIP3    H130621   2.425   6.581   4.882
10226TIP3    H230622   2.391   6.455   4.805
10227TIP3   OH230623   6.598   7.162   4.663
10227TIP3    H130624   6.587   7.190   4.572
10227TIP3    H230625   6.581   7.067   4.661
10228TIP3   OH230626   3.787   2.954   2.754
10228TIP3    H130627   3.709   2.958   2.810
10228TIP3    H230628   3.753   2.946   2.665
10229TIP3   OH230629   7.200   1.011   4.133
10229TIP3    H130630   7.154   1.095   4.126
10229TIP3    H230631   7.288   1.029   4.101
10230TIP3   OH230632   5.371   2.429   2.840
10230TIP3    H130633   5.308   2.374   2.886
10230TIP3    H230634   5.457   2.390   2.859
10231TIP3   OH230635   7.033   0.790   0.212
10231TIP3    H130636   7.124   0.818   0.216
10231TIP3    H230637   7.004   0.813   0.123
10232TIP3   OH230638   2.651   1.589   3.524
10232TIP3    H130639   2.630   1.495   3.521
10232TIP3    H230640   2.676   1.611   3.434
10233TIP3   OH230641   1.401   5.102   6.646
10233TIP3    H130642   1.331   5.148   6.598
10233TIP3    H230643   1.366   5.014   6.661
10234TIP3   OH230644   1.850   1.403   5.179
10234TIP3    H130645   1.853   1.396   5.274
10234TIP3    H230646   1.825   1.315   5.149
10235TIP3   OH230647   2.435   4.455   0.433
10235TIP3    H130648   2.369   4.426   0.496
10235TIP3    H230649   2.472   4.534   0.472
10236TIP3   OH230650   1.943   2.180   2.983
10236TIP3    H130651   1.902   2.097   3.007
10236TIP3    H230652   1.983   2.163   2.898
10237TIP3   OH230653   4.350   3.587   2.616
10237TIP3    H130654   4.295   3.536   2.676
10237TIP3    H230655   4.438   3.579   2.651
10238TIP3   OH230656   2.812   0.534   0.158
10238TIP3    H130657   2.722   0.503   0.144
10238TIP3    H230658   2.859   0.507   0.079
10239TIP3   OH230659   1.639   7.289   5.579
10239TIP3    H130660   1.604   7.205   5.606
10239TIP3    H230661   1.626   7.346   5.655
10240TIP3   OH230662   6.162   3.822   5.611
10240TIP3    H130663   6.249   3.798   5.643
10240TIP3    H230664   6.179   3.879   5.536
10241TIP3   OH230665   2.363   4.095   3.664
10241TIP3    H130666   2.412   4.177   3.660
10241TIP3    H230667   2.332   4.081   3.575
10242TIP3   OH230668   1.249   5.583   2.748
10242TIP3    H130669   1.335   5.571   2.788
10242TIP3    H230670   1.259   5.663   2.696
10243TIP3   OH230671   0.803   3.721   6.607
10243TIP3    H130672   0.782   3.651   6.546
10243TIP3    H230673   0.763   3.694   6.690
10244TIP3   OH230674   5.708   2.793   0.273
10244TIP3    H130675   5.623   2.757   0.297
10244TIP3    H230676   5.748   2.820   0.356
10245TIP3   OH230677   2.423   5.455   0.942
10245TIP3    H130678   2.513   5.484   0.954
10245TIP3    H230679   2.429   5.361   0.930
10246TIP3   OH230680   4.294   6.354   4.115
10246TIP3    H130681   4.271   6.447   4.117
10246TIP3    H230682   4.292   6.331   4.022
10247TIP3   OH230683   1.833   1.569   3.938
10247TIP3    H130684   1.747   1.602   3.964
10247TIP3    H230685   1.826   1.474   3.951
10248TIP3   OH230686   4.869   5.274   1.450
10248TIP3    H130687   4.877   5.357   1.496
10248TIP3    H230688   4.847   5.210   1.517
10249TIP3   OH230689   7.329   6.664   4.301
10249TIP3    H130690   7.354   6.716   4.378
10249TIP3    H230691   7.258   6.608   4.331
10250TIP3   OH230692   3.579   7.315   2.256
10250TIP3    H130693   3.618   7.392   2.298
10250TIP3    H230694   3.629   7.241   2.290
10251TIP3   OH230695   4.489   6.199   5.833
10251TIP3    H130696   4.452   6.208   5.746
10251TIP3    H230697   4.418   6.226   5.892
10252TIP3   OH230698   3.661   3.281   2.661
10252TIP3    H130699   3.677   3.335   2.583
10252TIP3    H230700   3.745   3.279   2.706
10253TIP3   OH230701   3.874   6.136   0.950
10253TIP3    H130702   3.822   6.055   0.958
10253TIP3    H230703   3.812   6.200   0.915
10254TIP3   OH230704   5.250   4.295   0.400
10254TIP3    H130705   5.271   4.249   0.318
10254TIP3    H230706   5.159   4.274   0.417
10255TIP3   OH230707   6.836   2.395   3.711
10255TIP3    H130708   6.754   2.349   3.727
10255TIP3    H230709   6.904   2.329   3.725
10256TIP3   OH230710   4.676   2.472   2.087
10256TIP3    H130711   4.625   2.492   2.008
10256TIP3    H230712   4.695   2.558   2.125
10257TIP3   OH230713   3.184   2.318   0.451
10257TIP3    H130714   3.173   2.333   0.545
10257TIP3    H230715   3.178   2.223   0.442
10258TIP3   OH230716   3.361   1.104   6.050
10258TIP3    H130717   3.388   1.012   6.042
10258TIP3    H230718   3.374   1.125   6.142
10259TIP3   OH230719   7.721   7.441   4.003
10259TIP3    H130720   7.699   7.393   3.924
10259TIP3    H230721   7.695   7.531   3.985
10260TIP3   OH230722   0.915   2.578   4.035
10260TIP3    H130723   1.005   2.611   4.029
10260TIP3    H230724   0.895   2.548   3.946
10261TIP3   OH230725   8.241   0.820   6.488
10261TIP3    H130726   8.173   0.846   6.550
10261TIP3    H230727   8.219   0.729   6.466
10262TIP3   OH230728   1.510   0.592   3.077
10262TIP3    H130729   1.513   0.683   3.047
10262TIP3    H230730   1.420   0.564   3.060
10263TIP3   OH230731   4.304   4.350   6.711
10263TIP3    H130732   4.327   4.264   6.746
10263TIP3    H230733   4.209   4.356   6.724
10264TIP3   OH230734   3.693   5.064   6.410
10264TIP3    H130735   3.693   5.034   6.319
10264TIP3    H230736   3.763   5.130   6.413
10265TIP3   OH230737   1.160   1.643   1.731
10265TIP3    H130738   1.223   1.662   1.801
10265TIP3    H230739   1.213   1.624   1.654
10266TIP3   OH230740   6.085   6.232   0.450
10266TIP3    H130741   6.178   6.254   0.448
10266TIP3    H230742   6.080   6.154   0.505
10267TIP3   OH230743   1.677   4.323   3.028
10267TIP3    H130744   1.664   4.406   3.074
10267TIP3    H230745   1.593   4.279   3.033
10268TIP3   OH230746   5.851   0.087   2.358
10268TIP3    H130747   5.776   0.137   2.389
10268TIP3    H230748   5.824  -0.004   2.365
10269TIP3   OH230749   6.427   7.216   1.408
10269TIP3    H130750   6.443   7.189   1.318
10269TIP3    H230751   6.491   7.167   1.460
10270TIP3   OH230752   2.010   6.343   2.349
10270TIP3    H130753   1.958   6.409   2.303
10270TIP3    H230754   2.037   6.282   2.281
10271TIP3   OH230755   0.834   7.144   2.627
10271TIP3    H130756   0.758   7.091   2.653
10271TIP3    H230757   0.797   7.227   2.599
10272TIP3   OH230758   6.675   2.683   4.314
10272TIP3    H130759   6.760   2.728   4.312
10272TIP3    H230760   6.615   2.747   4.352
10273TIP3   OH230761   4.530   5.976   2.911
10273TIP3    H130762   4.597   5.918   2.948
10273TIP3    H230763   4.462   5.979   2.978
10274TIP3   OH230764   3.677   4.392   5.625
10274TIP3    H130765   3.627   4.433   5.696
10274TIP3    H230766   3.763   4.434   5.629
10275TIP3   OH230767   0.896   1.365   6.185
10275TIP3    H130768   0.932   1.284   6.150
10275TIP3    H230769   0.970   1.406   6.230
10276TIP3   OH230770   1.192   2.626   5.831
10276TIP3    H130771   1.146   2.544   5.814
10276TIP3    H230772   1.197   2.632   5.927
10277TIP3   OH230773   3.627   3.316   3.633
10277TIP3    H130774   3.617   3.328   3.538
10277TIP3    H230775   3.581   3.234   3.652
10278TIP3   OH230776   0.675   7.737   4.427
10278TIP3    H130777   0.738   7.724   4.355
10278TIP3    H230778   0.591   7.750   4.382
10279TIP3   OH230779   7.488   4.054   1.710
10279TIP3    H130780   7.451   4.019   1.791
10279TIP3    H230781   7.582   4.062   1.728
10280TIP3   OH230782   5.660   7.235   0.991
10280TIP3    H130783   5.750   7.208   0.974
10280TIP3    H230784   5.625   7.259   0.905
10281TIP3   OH230785   2.351   1.824   3.943
10281TIP3    H130786   2.355   1.734   3.910
10281TIP3    H230787   2.416   1.827   4.012
10282TIP3   OH230788   3.242   3.347   1.652
10282TIP3    H130789   3.310   3.383   1.595
10282TIP3    H230790   3.183   3.301   1.593
10283TIP3   OH230791   4.291   3.607   3.340
10283TIP3    H130792   4.236   3.603   3.418
10283TIP3    H230793   4.366   3.550   3.360
10284TIP3   OH230794   6.760   1.395   6.230
10284TIP3    H130795   6.686   1.390   6.169
10284TIP3    H230796   6.831   1.349   6.185
10285TIP3   OH230797   4.711   6.928   3.261
10285TIP3    H130798   4.679   7.009   3.300
10285TIP3    H230799   4.756   6.883   3.332
10286TIP3   OH230800   4.166   5.759   0.694
10286TIP3    H130801   4.080   5.727   0.722
10286TIP3    H230802   4.210   5.785   0.775
10287TIP3   OH230803   1.434   0.820   4.214
10287TIP3    H130804   1.476   0.836   4.130
10287TIP3    H230805   1.421   0.907   4.252
10288TIP3   OH230806   1.077   0.719   2.426
10288TIP3    H130807   1.021   0.795   2.411
10288TIP3    H230808   1.150   0.753   2.478
10289TIP3   OH230809   6.583   4.579   4.612
10289TIP3    H130810   6.529   4.501   4.603
10289TIP3    H230811   6.615   4.576   4.702
10290TIP3   OH230812   7.930   5.432   0.624
10290TIP3    H130813   7.843   5.393   0.611
10290TIP3    H230814   7.991   5.365   0.596
10291TIP3   OH230815   3.622   5.067   0.741
10291TIP3    H130816   3.559   5.015   0.792
10291TIP3    H230817   3.570   5.140   0.708
10292TIP3   OH230818  -0.010   3.268   4.919
10292TIP3    H130819  -0.062   3.328   4.865
10292TIP3    H230820   0.080   3.290   4.898
10293TIP3   OH230821   6.262   6.672   3.391
10293TIP3    H130822   6.190   6.718   3.433
10293TIP3    H230823   6.221   6.597   3.347
10294TIP3   OH230824   7.976   4.868   2.989
10294TIP3    H130825   7.937   4.794   2.942
10294TIP3    H230826   8.020   4.919   2.921
10295TIP3   OH230827   6.202   2.795   3.404
10295TIP3    H130828   6.180   2.887   3.420
10295TIP3    H230829   6.297   2.792   3.413
10296TIP3   OH230830   2.471   5.304   5.477
10296TIP3    H130831   2.549   5.254   5.453
10296TIP3    H230832   2.470   5.378   5.417
10297TIP3   OH230833   0.369   0.645   2.235
10297TIP3    H130834   0.383   0.554   2.263
10297TIP3    H230835   0.436   0.659   2.168
10298TIP3   OH230836   2.833   7.537   2.575
10298TIP3    H130837   2.927   7.529   2.558
10298TIP3    H230838   2.803   7.604   2.513
10299TIP3   OH230839   8.154   0.223   1.970
10299TIP3    H130840   8.065   0.203   1.996
10299TIP3    H230841   8.148   0.246   1.877
10300TIP3   OH230842   0.870   3.387   5.901
10300TIP3    H130843   0.811   3.312   5.889
10300TIP3    H230844   0.875   3.399   5.996
10301TIP3   OH230845   4.157   1.397   1.854
10301TIP3    H130846   4.149   1.303   1.871
10301TIP3    H230847   4.112   1.439   1.927
10302TIP3   OH230848   7.216   3.497   3.024
10302TIP3    H130849   7.281   3.448   3.075
10302TIP3    H230850   7.194   3.572   3.080
10303TIP3   OH230851   1.021   0.907   5.892
10303TIP3    H130852   1.098   0.874   5.846
10303TIP3    H230853   0.975   0.962   5.828
10304TIP3   OH230854   7.771   6.567   4.790
10304TIP3    H130855   7.712   6.492   4.790
10304TIP3    H230856   7.719   6.639   4.825
10305TIP3   OH230857   5.016   1.507   6.306
10305TIP3    H130858   5.072   1.538   6.235
10305TIP3    H230859   4.968   1.433   6.268
10306TIP3   OH230860   5.568   0.168   1.923
10306TIP3    H130861   5.522   0.251   1.910
10306TIP3    H230862   5.642   0.191   1.979
10307TIP3   OH230863   5.551   2.137   2.398
10307TIP3    H130864   5.507   2.187   2.466
10307TIP3    H230865   5.605   2.202   2.353
10308TIP3   OH230866   7.671   6.477   1.775
10308TIP3    H130867   7.603   6.448   1.715
10308TIP3    H230868   7.743   6.415   1.762
10309TIP3   OH230869   1.277   1.543   5.347
10309TIP3    H130870   1.330   1.622   5.344
10309TIP3    H230871   1.191   1.572   5.376
10310TIP3   OH230872  -0.012   4.073   5.331
10310TIP3    H130873   0.071   4.097   5.291
10310TIP3    H230874  -0.010   4.114   5.418
10311TIP3   OH230875   7.855   2.870   1.257
10311TIP3    H130876   7.910   2.810   1.207
10311TIP3    H230877   7.767   2.833   1.252
10312TIP3   OH230878   7.584   2.754   0.836
10312TIP3    H130879   7.534   2.826   0.799
10312TIP3    H230880   7.520   2.705   0.888
10313TIP3   OH230881   5.904   4.449   3.928
10313TIP3    H130882   5.958   4.371   3.929
10313TIP3    H230883   5.961   4.518   3.893
10314TIP3   OH230884   3.003   0.715   0.699
10314TIP3    H130885   3.029   0.786   0.641
10314TIP3    H230886   3.074   0.710   0.763
10315TIP3   OH230887   2.213   3.459   2.676
10315TIP3    H130888   2.287   3.402   2.691
10315TIP3    H230889   2.215   3.522   2.748
10316TIP3   OH230890   2.127   0.114   3.786
10316TIP3    H130891   2.125   0.094   3.692
10316TIP3    H230892   2.096   0.034   3.828
10317TIP3   OH230893   2.089   5.025   3.011
10317TIP3    H130894   2.132   5.037   3.096
10317TIP3    H230895   2.116   5.101   2.960
10318TIP3   OH230896   5.377   1.404   2.061
10318TIP3    H130897   5.329   1.321   2.056
10318TIP3    H230898   5.469   1.380   2.051
10319TIP3   OH230899   7.751   6.660   5.599
10319TIP3    H130900   7.661   6.674   5.568
10319TIP3    H230901   7.741   6.613   5.682
10320TIP3   OH230902   6.341   7.053   2.013
10320TIP3    H130903   6.396   7.087   2.083
10320TIP3    H230904   6.271   7.117   2.004
10321TIP3   OH230905   7.273   3.143   1.383
10321TIP3    H130906   7.224   3.163   1.303
10321TIP3    H230907   7.207   3.108   1.443
10322TIP3   OH230908   5.965   4.340   2.848
10322TIP3    H130909   5.986   4.273   2.784
10322TIP3    H230910   6.000   4.306   2.931
10323TIP3   OH230911   0.619   0.131   5.851
10323TIP3    H130912   0.696   0.140   5.907
10323TIP3    H230913   0.546   0.119   5.912
10324TIP3   OH230914   0.297   0.111   2.806
10324TIP3    H130915   0.303   0.203   2.831
10324TIP3    H230916   0.261   0.068   2.884
10325TIP3   OH230917   3.931   2.859   3.238
10325TIP3    H130918   3.850   2.903   3.262
10325TIP3    H230919   3.969   2.915   3.170
10326TIP3   OH230920   3.815   2.511  -0.007
10326TIP3    H130921   3.777   2.514   0.080
10326TIP3    H230922   3.746   2.472  -0.061
10327TIP3   OH230923   5.986   5.931   6.328
10327TIP3    H130924   5.966   5.967   6.415
10327TIP3    H230925   5.941   5.989   6.267
10328TIP3   OH230926   2.888   1.119   2.029
10328TIP3    H130927   2.940   1.083   1.957
10328TIP3    H230928   2.858   1.204   1.997
10329TIP3   OH230929   1.331   0.046   4.572
10329TIP3    H130930   1.275   0.079   4.501
10329TIP3    H230931   1.410   0.099   4.566
10330TIP3   OH230932   8.177   1.821   5.474
10330TIP3    H130933   8.209   1.909   5.495
10330TIP3    H230934   8.139   1.789   5.555
10331TIP3   OH230935   2.762   0.164   1.514
10331TIP3    H130936   2.672   0.131   1.517
10331TIP3    H230937   2.809   0.101   1.460
10332TIP3   OH230938   1.020   1.887   2.103
10332TIP3    H130939   1.085   1.931   2.048
10332TIP3    H230940   1.021   1.796   2.074
10333TIP3   OH230941   2.444   5.702   0.181
10333TIP3    H130942   2.387   5.776   0.162
10333TIP3    H230943   2.419   5.636   0.116
10334TIP3   OH230944   2.295   4.741   4.995
10334TIP3    H130945   2.298   4.755   5.090
10334TIP3    H230946   2.219   4.792   4.966
10335TIP3   OH230947   2.129   6.575   2.616
10335TIP3    H130948   2.105   6.667   2.630
10335TIP3    H230949   2.162   6.572   2.526
10336TIP3   OH230950   3.753   4.433   2.863
10336TIP3    H130951   3.684   4.441   2.928
10336TIP3    H230952   3.778   4.341   2.864
10337TIP3   OH230953   1.045   4.824   2.638
10337TIP3    H130954   1.093   4.868   2.708
10337TIP3    H230955   1.061   4.730   2.653
10338TIP3   OH230956   2.989   1.303   5.318
10338TIP3    H130957   2.964   1.213   5.295
10338TIP3    H230958   3.062   1.294   5.378
10339TIP3   OH230959   3.121   7.008   6.413
10339TIP3    H130960   3.107   7.032   6.321
10339TIP3    H230961   3.037   7.023   6.455
10340TIP3   OH230962   3.754   3.483   6.010
10340TIP3    H130963   3.662   3.502   6.029
10340TIP3    H230964   3.803   3.536   6.073
10341TIP3   OH230965   5.739   3.706   6.663
10341TIP3    H130966   5.717   3.614   6.648
10341TIP3    H230967   5.705   3.753   6.587
10342TIP3   OH230968   2.130   2.597   3.555
10342TIP3    H130969   2.216   2.585   3.514
10342TIP3    H230970   2.071   2.613   3.481
10343TIP3   OH230971   3.754   5.659   3.575
10343TIP3    H130972   3.673   5.648   3.624
10343TIP3    H230973   3.742   5.738   3.524
10344TIP3   OH230974   7.063   1.950   0.375
10344TIP3    H130975   7.105   1.887   0.316
10344TIP3    H230976   6.991   1.902   0.415
10345TIP3   OH230977   4.031   0.369   4.413
10345TIP3    H130978   4.034   0.453   4.367
10345TIP3    H230979   3.964   0.319   4.367
10346TIP3   OH230980   4.897   2.911   3.975
10346TIP3    H130981   4.972   2.962   3.944
10346TIP3    H230982   4.838   2.906   3.900
10347TIP3   OH230983   7.199   0.706   3.830
10347TIP3    H130984   7.131   0.722   3.896
10347TIP3    H230985   7.257   0.782   3.838
10348TIP3   OH230986   6.669   3.733   1.185
10348TIP3    H130987   6.689   3.799   1.119
10348TIP3    H230988   6.678   3.779   1.268
10349TIP3   OH230989   1.175   5.262   1.289
10349TIP3    H130990   1.250   5.315   1.262
10349TIP3    H230991   1.206   5.213   1.366
10350TIP3   OH230992   7.473   5.342   4.791
10350TIP3    H130993   7.538   5.312   4.727
10350TIP3    H230994   7.434   5.420   4.751
10351TIP3   OH230995   0.069   2.437   1.237
10351TIP3    H130996   0.080   2.521   1.282
10351TIP3    H230997  -0.006   2.450   1.179
10352TIP3   OH230998   0.400   0.935   5.788
10352TIP3    H130999   0.323   0.949   5.733
10352TIP3    H231000   0.417   1.020   5.828
10353TIP3   OH231001   6.198   4.748   3.193
10353TIP3    H131002   6.280   4.789   3.164
10353TIP3    H231003   6.213   4.654   3.182
10354TIP3   OH231004   7.069   6.435   5.985
10354TIP3    H131005   7.151   6.399   6.018
10354TIP3    H231006   7.062   6.521   6.028
10355TIP3   OH231007   6.597   0.404   4.332
10355TIP3    H131008   6.657   0.334   4.308
10355TIP3    H231009   6.532   0.362   4.389
10356TIP3   OH231010   1.285   6.033   4.204
10356TIP3    H131011   1.306   5.977   4.129
10356TIP3    H231012   1.330   6.115   4.185
10357TIP3   OH231013   2.158   1.994   5.666
10357TIP3    H131014   2.070   1.996   5.704
10357TIP3    H231015   2.144   2.014   5.573
10358TIP3   OH231016   4.200   5.938   3.542
10358TIP3    H131017   4.255   5.906   3.614
10358TIP3    H231018   4.237   5.897   3.464
10359TIP3   OH231019   2.769   0.743   1.664
10359TIP3    H131020   2.760   0.837   1.673
10359TIP3    H231021   2.773   0.728   1.569
10360TIP3   OH231022   0.501   5.979   2.175
10360TIP3    H131023   0.433   6.036   2.137
10360TIP3    H231024   0.521   5.916   2.105
10361TIP3   OH231025   6.066   1.714   4.276
10361TIP3    H131026   6.153   1.689   4.305
10361TIP3    H231027   6.030   1.766   4.347
10362TIP3   OH231028   5.687   5.553   5.680
10362TIP3    H131029   5.659   5.592   5.598
10362TIP3    H231030   5.609   5.556   5.736
10363TIP3   OH231031   1.141   3.319   5.357
10363TIP3    H131032   1.179   3.295   5.441
10363TIP3    H231033   1.068   3.376   5.379
10364TIP3   OH231034   5.427   6.607   0.890
10364TIP3    H131035   5.522   6.599   0.905
10364TIP3    H231036   5.420   6.647   0.803
10365TIP3   OH231037   5.638   2.569   6.203
10365TIP3    H131038   5.574   2.523   6.150
10365TIP3    H231039   5.665   2.644   6.150
10366TIP3   OH231040   3.355   0.808   3.885
10366TIP3    H131041   3.385   0.882   3.832
10366TIP3    H231042   3.364   0.732   3.828
10367TIP3   OH231043   4.347   3.169   2.941
10367TIP3    H131044   4.259   3.135   2.926
10367TIP3    H231045   4.333   3.254   2.982
10368TIP3   OH231046   7.761   4.526   3.490
10368TIP3    H131047   7.788   4.452   3.436
10368TIP3    H231048   7.833   4.538   3.552
10369TIP3   OH231049   2.175   7.388   4.198
10369TIP3    H131050   2.189   7.448   4.272
10369TIP3    H231051   2.152   7.446   4.125
10370TIP3   OH231052   0.551   3.824   6.340
10370TIP3    H131053   0.546   3.918   6.324
10370TIP3    H231054   0.645   3.807   6.352
10371TIP3   OH231055   7.105   2.705   0.473
10371TIP3    H131056   7.164   2.699   0.398
10371TIP3    H231057   7.023   2.738   0.436
10372TIP3   OH231058   3.328   7.209   4.224
10372TIP3    H131059   3.345   7.137   4.285
10372TIP3    H231060   3.235   7.198   4.201
10373TIP3   OH231061   0.323   2.194   1.956
10373TIP3    H131062   0.302   2.140   2.032
10373TIP3    H231063   0.410   2.165   1.929
10374TIP3   OH231064   1.972   6.461   1.549
10374TIP3    H131065   2.027   6.521   1.498
10374TIP3    H231066   1.941   6.514   1.623
10375TIP3   OH231067   4.874   6.465   5.541
10375TIP3    H131068   4.902   6.374   5.551
10375TIP3    H231069   4.899   6.488   5.451
10376TIP3   OH231070   5.004   2.659   2.799
10376TIP3    H131071   5.065   2.703   2.857
10376TIP3    H231072   5.059   2.626   2.727
10377TIP3   OH231073   5.164   7.016   6.130
10377TIP3    H131074   5.192   7.044   6.043
10377TIP3    H231075   5.228   7.053   6.190
10378TIP3   OH231076   0.695   2.963   4.369
10378TIP3    H131077   0.710   2.871   4.394
10378TIP3    H231078   0.695   3.010   4.453
10379TIP3   OH231079   4.434   5.355   6.379
10379TIP3    H131080   4.505   5.292   6.393
10379TIP3    H231081   4.354   5.302   6.388
10380TIP3   OH231082   5.056   4.207   2.419
10380TIP3    H131083   5.071   4.144   2.490
10380TIP3    H231084   5.139   4.252   2.409
10381TIP3   OH231085   0.117   6.737   1.734
10381TIP3    H131086   0.196   6.703   1.777
10381TIP3    H231087   0.094   6.669   1.671
10382TIP3   OH231088   2.010   1.300   0.037
10382TIP3    H131089   1.936   1.239   0.029
10382TIP3    H231090   2.085   1.245   0.059
10383TIP3   OH231091   4.596   6.199   2.366
10383TIP3    H131092   4.607   6.150   2.284
10383TIP3    H231093   4.515   6.248   2.354
10384TIP3   OH231094   5.296   6.278   6.434
10384TIP3    H131095   5.260   6.240   6.355
10384TIP3    H231096   5.265   6.369   6.434
10385TIP3   OH231097   2.318   6.856   4.685
10385TIP3    H131098   2.405   6.876   4.717
10385TIP3    H231099   2.330   6.838   4.591
10386TIP3   OH231100   5.546   7.177   3.275
10386TIP3    H131101   5.457   7.178   3.310
10386TIP3    H231102   5.541   7.230   3.196
10387TIP3   OH231103   8.132   0.663   2.456
10387TIP3    H131104   8.183   0.646   2.534
10387TIP3    H231105   8.193   0.705   2.395
10388TIP3   OH231106   5.609   6.212   5.037
10388TIP3    H131107   5.629   6.164   4.956
10388TIP3    H231108   5.657   6.165   5.105
10389TIP3   OH231109   6.184   1.269   3.678
10389TIP3    H131110   6.190   1.263   3.583
10389TIP3    H231111   6.275   1.261   3.708
10390TIP3   OH231112   2.709   7.089   3.610
10390TIP3    H131113   2.636   7.029   3.593
10390TIP3    H231114   2.787   7.037   3.590
10391TIP3   OH231115   5.596   0.452   3.827
10391TIP3    H131116   5.542   0.394   3.881
10391TIP3    H231117   5.623   0.521   3.888
10392TIP3   OH231118   0.785   2.110   2.609
10392TIP3    H131119   0.729   2.161   2.550
10392TIP3    H231120   0.868   2.158   2.609
10393TIP3   OH231121   7.397   6.904   2.851
10393TIP3    H131122   7.457   6.834   2.827
10393TIP3    H231123   7.447   6.958   2.913
10394TIP3   OH231124   0.961   6.467   5.742
10394TIP3    H131125   0.882   6.436   5.698
10394TIP3    H231126   1.021   6.393   5.738
10395TIP3   OH231127   1.794   3.335   4.098
10395TIP3    H131128   1.775   3.242   4.107
10395TIP3    H231129   1.719   3.379   4.138
10396TIP3   OH231130   5.609   3.461   5.897
10396TIP3    H131131   5.566   3.401   5.835
10396TIP3    H231132   5.699   3.466   5.867
10397TIP3   OH231133   4.235   0.431   1.127
10397TIP3    H131134   4.226   0.336   1.132
10397TIP3    H231135   4.229   0.460   1.218
10398TIP3   OH231136   6.596   2.265   4.463
10398TIP3    H131137   6.583   2.337   4.402
10398TIP3    H231138   6.675   2.221   4.432
10399TIP3   OH231139   2.526   2.539   4.031
10399TIP3    H131140   2.486   2.460   4.067
10399TIP3    H231141   2.620   2.523   4.038
10400TIP3   OH231142   3.334   0.385   0.560
10400TIP3    H131143   3.251   0.374   0.513
10400TIP3    H231144   3.397   0.334   0.509
10401TIP3   OH231145   4.612   5.116   3.185
10401TIP3    H131146   4.666   5.125   3.264
10401TIP3    H231147   4.647   5.039   3.141
10402TIP3   OH231148   1.478   1.442   3.295
10402TIP3    H131149   1.421   1.481   3.229
10402TIP3    H231150   1.439   1.468   3.378
10403TIP3   OH231151   8.274   7.324   3.301
10403TIP3    H131152   8.217   7.319   3.377
10403TIP3    H231153   8.362   7.325   3.336
10404TIP3   OH231154   2.997   6.532   2.161
10404TIP3    H131155   2.905   6.553   2.142
10404TIP3    H231156   2.994   6.442   2.195
10405TIP3   OH231157   7.318   4.821   3.260
10405TIP3    H131158   7.367   4.895   3.224
10405TIP3    H231159   7.235   4.860   3.288
10406TIP3   OH231160   7.743   1.255   1.465
10406TIP3    H131161   7.746   1.238   1.371
10406TIP3    H231162   7.708   1.343   1.472
10407TIP3   OH231163   4.256   6.579   1.540
10407TIP3    H131164   4.161   6.581   1.550
10407TIP3    H231165   4.289   6.556   1.627
10408TIP3   OH231166   1.318   6.370   1.187
10408TIP3    H131167   1.269   6.292   1.215
10408TIP3    H231168   1.315   6.368   1.092
10409TIP3   OH231169   7.849   6.378   5.033
10409TIP3    H131170   7.837   6.386   5.128
10409TIP3    H231171   7.836   6.285   5.015
10410TIP3   OH231172   6.602   6.693   4.338
10410TIP3    H131173   6.517   6.661   4.368
10410TIP3    H231174   6.582   6.748   4.263
10411TIP3   OH231175   2.113   0.921   0.658
10411TIP3    H131176   2.100   0.872   0.576
10411TIP3    H231177   2.115   0.853   0.726
10412TIP3   OH231178   5.453   2.457   4.401
10412TIP3    H131179   5.520   2.395   4.373
10412TIP3    H231180   5.462   2.530   4.339
10413TIP3   OH231181   6.852   3.817   3.406
10413TIP3    H131182   6.822   3.784   3.490
10413TIP3    H231183   6.811   3.759   3.341
10414TIP3   OH231184   1.475   4.802   3.781
10414TIP3    H131185   1.464   4.809   3.876
10414TIP3    H231186   1.509   4.888   3.755
10415TIP3   OH231187   5.300   4.050   5.524
10415TIP3    H131188   5.239   4.096   5.580
10415TIP3    H231189   5.294   3.958   5.550
10416TIP3   OH231190   4.158   1.498   1.574
10416TIP3    H131191   4.100   1.570   1.600
10416TIP3    H231192   4.177   1.452   1.656
10417TIP3   OH231193   2.202   0.903   6.396
10417TIP3    H131194   2.152   0.836   6.350
10417TIP3    H231195   2.271   0.928   6.334
10418TIP3   OH231196   7.081   4.307   0.854
10418TIP3    H131197   7.131   4.362   0.794
10418TIP3    H231198   7.026   4.368   0.903
10419TIP3   OH231199   6.482   0.691   3.565
10419TIP3    H131200   6.516   0.732   3.644
10419TIP3    H231201   6.421   0.624   3.597
10420TIP3   OH231202   4.455   6.963   3.380
10420TIP3    H131203   4.531   6.918   3.343
10420TIP3    H231204   4.446   6.925   3.468
10421TIP3   OH231205   7.132   7.145   0.904
10421TIP3    H131206   7.150   7.053   0.886
10421TIP3    H231207   7.037   7.151   0.906
10422TIP3   OH231208   4.872   0.632   1.409
10422TIP3    H131209   4.937   0.665   1.472
10422TIP3    H231210   4.798   0.692   1.416
10423TIP3   OH231211   7.844   3.161   4.662
10423TIP3    H131212   7.886   3.141   4.745
10423TIP3    H231213   7.835   3.077   4.618
10424TIP3   OH231214   4.058   6.202   6.292
10424TIP3    H131215   4.012   6.280   6.260
10424TIP3    H231216   4.144   6.207   6.250
10425TIP3   OH231217   3.673   7.419   5.994
10425TIP3    H131218   3.666   7.484   6.064
10425TIP3    H231219   3.714   7.343   6.035
10426TIP3   OH231220   2.789   3.144   1.702
10426TIP3    H131221   2.756   3.191   1.779
10426TIP3    H231222   2.712   3.131   1.647
10427TIP3   OH231223   7.355   1.381   4.323
10427TIP3    H131224   7.381   1.320   4.254
10427TIP3    H231225   7.400   1.349   4.401
10428TIP3   OH231226   5.025   5.443   3.789
10428TIP3    H131227   4.954   5.413   3.846
10428TIP3    H231228   5.016   5.539   3.788
10429TIP3   OH231229   7.411   1.503   2.792
10429TIP3    H131230   7.496   1.474   2.760
10429TIP3    H231231   7.406   1.595   2.768
10430TIP3   OH231232   1.144   4.341   1.052
10430TIP3    H131233   1.085   4.316   1.124
10430TIP3    H231234   1.232   4.340   1.092
10431TIP3   OH231235   1.987   6.776   2.397
10431TIP3    H131236   2.027   6.849   2.349
10431TIP3    H231237   2.013   6.698   2.348
10432TIP3   OH231238   5.374   2.416   2.159
10432TIP3    H131239   5.438   2.411   2.231
10432TIP3    H231240   5.340   2.506   2.163
10433TIP3   OH231241   1.167   2.175   0.211
10433TIP3    H131242   1.246   2.171   0.156
10433TIP3    H231243   1.198   2.151   0.298
10434TIP3   OH231244   6.752   6.749   6.725
10434TIP3    H131245   6.675   6.704   6.690
10434TIP3    H231246   6.809   6.763   6.649
10435TIP3   OH231247   0.053   3.146   5.699
10435TIP3    H131248   0.091   3.147   5.611
10435TIP3    H231249   0.054   3.238   5.726
10436TIP3   OH231250   6.204   5.543   5.993
10436TIP3    H131251   6.185   5.464   6.043
10436TIP3    H231252   6.134   5.604   6.016
10437TIP3   OH231253   8.106   2.217   3.915
10437TIP3    H131254   8.058   2.188   3.838
10437TIP3    H231255   8.038   2.235   3.980
10438TIP3   OH231256   5.900   2.889   4.027
10438TIP3    H131257   5.825   2.830   4.034
10438TIP3    H231258   5.968   2.836   3.985
10439TIP3   OH231259   7.657   5.629   4.614
10439TIP3    H131260   7.737   5.643   4.665
10439TIP3    H231261   7.684   5.570   4.543
10440TIP3   OH231262   8.054   5.324   6.488
10440TIP3    H131263   8.045   5.416   6.464
10440TIP3    H231264   8.044   5.277   6.405
10441TIP3   OH231265   5.583   0.347   0.326
10441TIP3    H131266   5.590   0.261   0.284
10441TIP3    H231267   5.493   0.351   0.358
10442TIP3   OH231268   0.167   3.134   4.048
10442TIP3    H131269   0.074   3.124   4.067
10442TIP3    H231270   0.211   3.083   4.115
10443TIP3   OH231271   6.429   2.979   5.392
10443TIP3    H131272   6.474   3.063   5.390
10443TIP3    H231273   6.498   2.915   5.377
10444TIP3   OH231274   1.576   4.165   5.203
10444TIP3    H131275   1.569   4.137   5.112
10444TIP3    H231276   1.489   4.153   5.239
10445TIP3   OH231277   3.526   5.497   2.366
10445TIP3    H131278   3.508   5.565   2.301
10445TIP3    H231279   3.443   5.484   2.411
10446TIP3   OH231280   3.289   0.779   3.059
10446TIP3    H131281   3.225   0.731   3.111
10446TIP3    H231282   3.262   0.765   2.968
10447TIP3   OH231283   8.238   1.983   1.485
10447TIP3    H131284   8.279   2.069   1.479
10447TIP3    H231285   8.216   1.961   1.394
10448TIP3   OH231286   1.603   1.372   0.227
10448TIP3    H131287   1.517   1.406   0.205
10448TIP3    H231288   1.658   1.450   0.233
10449TIP3   OH231289   0.316   6.671   2.130
10449TIP3    H131290   0.329   6.692   2.038
10449TIP3    H231291   0.386   6.609   2.151
10450TIP3   OH231292   1.385   1.476   4.423
10450TIP3    H131293   1.339   1.408   4.472
10450TIP3    H231294   1.461   1.498   4.477
10451TIP3   OH231295   0.353   0.482   2.581
10451TIP3    H131296   0.432   0.473   2.528
10451TIP3    H231297   0.321   0.570   2.562
10452TIP3   OH231298   8.109   6.449   4.971
10452TIP3    H131299   8.027   6.413   5.005
10452TIP3    H231300   8.115   6.416   4.882
10453TIP3   OH231301   3.058   7.174   2.907
10453TIP3    H131302   2.980   7.119   2.910
10453TIP3    H231303   3.040   7.238   2.837
10454TIP3   OH231304   2.060   0.984   1.798
10454TIP3    H131305   2.078   0.944   1.883
10454TIP3    H231306   2.035   1.074   1.818
10455TIP3   OH231307   2.882   6.059   0.100
10455TIP3    H131308   2.852   5.973   0.071
10455TIP3    H231309   2.974   6.062   0.074
10456TIP3   OH231310   3.492   6.684   4.305
10456TIP3    H131311   3.557   6.721   4.245
10456TIP3    H231312   3.420   6.657   4.249
10457TIP3   OH231313   2.578   3.990   6.149
10457TIP3    H131314   2.649   4.028   6.096
10457TIP3    H231315   2.613   3.987   6.238
10458TIP3   OH231316   3.036   2.973   3.469
10458TIP3    H131317   2.983   2.893   3.469
10458TIP3    H231318   3.015   3.014   3.385
10459TIP3   OH231319   2.220   7.689   5.311
10459TIP3    H131320   2.252   7.720   5.226
10459TIP3    H231321   2.286   7.720   5.373
10460TIP3   OH231322   1.323   0.175   2.551
10460TIP3    H131323   1.414   0.180   2.579
10460TIP3    H231324   1.273   0.173   2.632
10461TIP3   OH231325   3.846   4.888   0.813
10461TIP3    H131326   3.784   4.948   0.772
10461TIP3    H231327   3.830   4.804   0.771
10462TIP3   OH231328   8.035   0.543   6.762
10462TIP3    H131329   8.082   0.540   6.679
10462TIP3    H231330   8.025   0.452   6.787
10463TIP3   OH231331   6.317   7.182   4.427
10463TIP3    H131332   6.409   7.199   4.407
10463TIP3    H231333   6.305   7.214   4.516
10464TIP3   OH231334   3.360   6.372   1.393
10464TIP3    H131335   3.333   6.408   1.478
10464TIP3    H231336   3.316   6.287   1.387
10465TIP3   OH231337   0.122   1.101   3.441
10465TIP3    H131338   0.183   1.171   3.416
10465TIP3    H231339   0.072   1.084   3.361
10466TIP3   OH231340   4.468   3.737   2.895
10466TIP3    H131341   4.545   3.775   2.936
10466TIP3    H231342   4.497   3.650   2.866
10467TIP3   OH231343   7.577   0.825   0.913
10467TIP3    H131344   7.497   0.876   0.897
10467TIP3    H231345   7.595   0.782   0.830
10468TIP3   OH231346   6.438   3.123   1.580
10468TIP3    H131347   6.442   3.211   1.619
10468TIP3    H231348   6.524   3.085   1.598
10469TIP3   OH231349   7.168   5.278   4.842
10469TIP3    H131350   7.099   5.226   4.885
10469TIP3    H231351   7.249   5.233   4.865
10470TIP3   OH231352   3.063   0.612   6.696
10470TIP3    H131353   2.990   0.598   6.635
10470TIP3    H231354   3.137   0.636   6.641
10471TIP3   OH231355   4.014   4.820   2.465
10471TIP3    H131356   3.967   4.878   2.405
10471TIP3    H231357   4.106   4.828   2.439
10472TIP3   OH231358   0.804   5.026   2.743
10472TIP3    H131359   0.880   4.995   2.694
10472TIP3    H231360   0.730   4.975   2.709
10473TIP3   OH231361   2.490   3.636   5.079
10473TIP3    H131362   2.484   3.717   5.129
10473TIP3    H231363   2.519   3.664   4.992
10474TIP3   OH231364   6.815   4.112   5.917
10474TIP3    H131365   6.868   4.105   5.837
10474TIP3    H231366   6.874   4.085   5.987
10475TIP3   OH231367   1.511   7.639   1.181
10475TIP3    H131368   1.522   7.558   1.131
10475TIP3    H231369   1.416   7.655   1.181
10476TIP3   OH231370   1.427   6.829   6.034
10476TIP3    H131371   1.496   6.838   5.968
10476TIP3    H231372   1.459   6.880   6.109
10477TIP3   OH231373   5.143   3.805   0.733
10477TIP3    H131374   5.200   3.847   0.798
10477TIP3    H231375   5.086   3.875   0.702
10478TIP3   OH231376   5.462   2.679   2.776
10478TIP3    H131377   5.549   2.667   2.737
10478TIP3    H231378   5.443   2.596   2.819
10479TIP3   OH231379   0.633   3.624   3.530
10479TIP3    H131380   0.724   3.632   3.502
10479TIP3    H231381   0.608   3.535   3.506
10480TIP3   OH231382   2.571   4.061   2.844
10480TIP3    H131383   2.551   3.971   2.870
10480TIP3    H231384   2.613   4.099   2.921
10481TIP3   OH231385   1.298   6.615   6.685
10481TIP3    H131386   1.310   6.704   6.652
10481TIP3    H231387   1.240   6.625   6.760
10482TIP3   OH231388   2.787   7.197   5.980
10482TIP3    H131389   2.761   7.256   5.908
10482TIP3    H231390   2.880   7.213   5.991
10483TIP3   OH231391   8.164   1.390   6.303
10483TIP3    H131392   8.253   1.381   6.270
10483TIP3    H231393   8.173   1.381   6.398
10484TIP3   OH231394   4.233   5.156   6.377
10484TIP3    H131395   4.224   5.158   6.282
10484TIP3    H231396   4.241   5.063   6.399
10485TIP3   OH231397   7.012   7.008   1.980
10485TIP3    H131398   7.025   6.916   1.957
10485TIP3    H231399   6.948   7.007   2.051
10486TIP3   OH231400   0.050   5.158   6.525
10486TIP3    H131401   0.123   5.205   6.566
10486TIP3    H231402  -0.028   5.199   6.562
10487TIP3   OH231403   8.112   4.790   0.186
10487TIP3    H131404   8.051   4.762   0.253
10487TIP3    H231405   8.093   4.883   0.174
10488TIP3   OH231406   5.892   6.251   3.939
10488TIP3    H131407   5.927   6.292   3.860
10488TIP3    H231408   5.843   6.175   3.906
10489TIP3   OH231409   4.272   6.311   4.570
10489TIP3    H131410   4.203   6.372   4.546
10489TIP3    H231411   4.322   6.355   4.639
10490TIP3   OH231412   3.208   4.234   2.992
10490TIP3    H131413   3.194   4.274   3.078
10490TIP3    H231414   3.150   4.158   2.992
10491TIP3   OH231415   3.003   5.980   6.765
10491TIP3    H131416   2.915   6.018   6.764
10491TIP3    H231417   2.991   5.888   6.743
10492TIP3   OH231418   4.505   2.304   1.324
10492TIP3    H131419   4.509   2.213   1.293
10492TIP3    H231420   4.412   2.320   1.340
10493TIP3   OH231421   5.407   6.565   1.415
10493TIP3    H131422   5.343   6.632   1.390
10493TIP3    H231423   5.473   6.567   1.345
10494TIP3   OH231424   0.729   0.031   1.825
10494TIP3    H131425   0.718   0.087   1.902
10494TIP3    H231426   0.734   0.091   1.751
10495TIP3   OH231427   8.224   4.211   6.125
10495TIP3    H131428   8.184   4.132   6.087
10495TIP3    H231429   8.229   4.192   6.219
10496TIP3   OH231430   6.578   0.882   4.656
10496TIP3    H131431   6.656   0.872   4.711
10496TIP3    H231432   6.538   0.795   4.654
10497TIP3   OH231433   7.980   5.000   4.877
10497TIP3    H131434   7.899   4.964   4.841
10497TIP3    H231435   7.964   5.006   4.971
10498TIP3   OH231436   6.270   7.785   6.170
10498TIP3    H131437   6.290   7.749   6.084
10498TIP3    H231438   6.334   7.855   6.182
10499TIP3   OH231439   2.093   5.684   2.526
10499TIP3    H131440   2.074   5.765   2.479
10499TIP3    H231441   2.083   5.615   2.460
10500TIP3   OH231442   7.416   6.869   1.362
10500TIP3    H131443   7.442   6.777   1.359
10500TIP3    H231444   7.426   6.893   1.454
10501TIP3   OH231445   6.402   2.538   3.194
10501TIP3    H131446   6.467   2.500   3.136
10501TIP3    H231447   6.344   2.588   3.137
10502TIP3   OH231448   1.354   4.402   1.236
10502TIP3    H131449   1.398   4.485   1.218
10502TIP3    H231450   1.413   4.336   1.200
10503TIP3   OH231451   4.990   5.459   3.366
10503TIP3    H131452   5.062   5.483   3.423
10503TIP3    H231453   4.928   5.532   3.373
10504TIP3   OH231454   4.889   2.896   3.381
10504TIP3    H131455   4.981   2.893   3.409
10504TIP3    H231456   4.855   2.977   3.419
10505TIP3   OH231457   6.592   6.543   2.231
10505TIP3    H131458   6.652   6.593   2.287
10505TIP3    H231459   6.638   6.535   2.147
10506TIP3   OH231460   7.586   5.887   4.024
10506TIP3    H131461   7.527   5.896   3.949
10506TIP3    H231462   7.665   5.935   3.997
10507TIP3   OH231463   5.533   2.332   2.628
10507TIP3    H131464   5.592   2.329   2.703
10507TIP3    H231465   5.449   2.360   2.665
10508TIP3   OH231466   3.698   6.084   2.862
10508TIP3    H131467   3.626   6.063   2.921
10508TIP3    H231468   3.677   6.037   2.781
10509TIP3   OH231469   0.213   5.330   2.484
10509TIP3    H131470   0.306   5.340   2.460
10509TIP3    H231471   0.204   5.383   2.563
10510TIP3   OH231472   0.622   0.773   5.603
10510TIP3    H131473   0.534   0.749   5.572
10510TIP3    H231474   0.680   0.756   5.529
10511TIP3   OH231475   3.622   5.322   0.378
10511TIP3    H131476   3.569   5.392   0.342
10511TIP3    H231477   3.560   5.253   0.400
10512TIP3   OH231478   3.693   7.283   4.373
10512TIP3    H131479   3.637   7.206   4.382
10512TIP3    H231480   3.759   7.257   4.309
10513TIP3   OH231481   2.459   3.607   5.841
10513TIP3    H131482   2.456   3.694   5.881
10513TIP3    H231483   2.452   3.546   5.915
10514TIP3   OH231484   2.219   5.398   3.251
10514TIP3    H131485   2.129   5.424   3.271
10514TIP3    H231486   2.254   5.367   3.335
10515TIP3   OH231487   6.206   7.607   5.442
10515TIP3    H131488   6.282   7.582   5.494
10515TIP3    H231489   6.188   7.698   5.467
10516TIP3   OH231490   2.738   5.093   4.645
10516TIP3    H131491   2.828   5.118   4.666
10516TIP3    H231492   2.737   4.998   4.652
10517TIP3   OH231493   0.434   1.206   4.719
10517TIP3    H131494   0.454   1.295   4.749
10517TIP3    H231495   0.344   1.191   4.749
10518TIP3   OH231496   7.998   5.294   2.424
10518TIP3    H131497   8.048   5.222   2.462
10518TIP3    H231498   7.907   5.271   2.440
10519TIP3   OH231499   3.824   2.080   3.531
10519TIP3    H131500   3.896   2.033   3.489
10519TIP3    H231501   3.745   2.043   3.492
10520TIP3   OH231502   1.130   3.371   0.657
10520TIP3    H131503   1.207   3.397   0.707
10520TIP3    H231504   1.057   3.412   0.704
10521TIP3   OH231505   7.246   5.345   2.723
10521TIP3    H131506   7.218   5.255   2.738
10521TIP3    H231507   7.177   5.383   2.669
10522TIP3   OH231508   5.089   4.712   1.166
10522TIP3    H131509   5.147   4.639   1.146
10522TIP3    H231510   5.148   4.785   1.187
10523TIP3   OH231511   0.175   7.500   2.896
10523TIP3    H131512   0.262   7.500   2.938
10523TIP3    H231513   0.193   7.523   2.805
10524TIP3   OH231514   1.973   4.122   6.071
10524TIP3    H131515   1.939   4.033   6.062
10524TIP3    H231516   1.926   4.158   6.147
10525TIP3   OH231517   6.175   4.536   3.974
10525TIP3    H131518   6.180   4.618   3.925
10525TIP3    H231519   6.240   4.480   3.932
10526TIP3   OH231520   0.551   6.759   4.195
10526TIP3    H131521   0.460   6.770   4.223
10526TIP3    H231522   0.600   6.747   4.277
10527TIP3   OH231523   0.196   0.765   0.039
10527TIP3    H131524   0.211   0.679  -0.001
10527TIP3    H231525   0.155   0.816  -0.031
10528TIP3   OH231526   4.556   1.940   2.903
10528TIP3    H131527   4.615   1.941   2.979
10528TIP3    H231528   4.614   1.952   2.828
10529TIP3   OH231529   7.065   1.811   0.836
10529TIP3    H131530   7.095   1.858   0.759
10529TIP3    H231531   6.969   1.814   0.830
10530TIP3   OH231532   2.057   6.796   3.911
10530TIP3    H131533   2.063   6.889   3.930
10530TIP3    H231534   2.020   6.791   3.822
10531TIP3   OH231535   0.178   0.406   1.181
10531TIP3    H131536   0.200   0.497   1.158
10531TIP3    H231537   0.215   0.354   1.109
10532TIP3   OH231538   4.023   4.520   0.778
10532TIP3    H131539   3.987   4.447   0.829
10532TIP3    H231540   3.946   4.564   0.742
10533TIP3   OH231541   0.804   1.836   0.279
10533TIP3    H131542   0.750   1.814   0.202
10533TIP3    H231543   0.884   1.785   0.267
10534TIP3   OH231544   7.269   4.356   5.165
10534TIP3    H131545   7.190   4.377   5.117
10534TIP3    H231546   7.256   4.266   5.196
10535TIP3   OH231547   5.793   7.345   0.524
10535TIP3    H131548   5.805   7.370   0.432
10535TIP3    H231549   5.880   7.322   0.554
10536TIP3   OH231550   0.108   3.919   2.075
10536TIP3    H131551   0.168   3.844   2.078
10536TIP3    H231552   0.165   3.996   2.073
10537TIP3   OH231553   1.443   1.410   0.630
10537TIP3    H131554   1.490   1.491   0.649
10537TIP3    H231555   1.373   1.437   0.570
10538TIP3   OH231556   3.411   4.367   2.717
10538TIP3    H131557   3.395   4.406   2.631
10538TIP3    H231558   3.324   4.358   2.756
10539TIP3   OH231559   2.743   7.581   6.045
10539TIP3    H131560   2.674   7.626   6.094
10539TIP3    H231561   2.726   7.603   5.954
10540TIP3   OH231562   6.570   7.602   2.905
10540TIP3    H131563   6.612   7.681   2.939
10540TIP3    H231564   6.478   7.626   2.895
10541TIP3   OH231565   5.853   6.382   5.075
10541TIP3    H131566   5.869   6.295   5.040
10541TIP3    H231567   5.809   6.429   5.004
10542TIP3   OH231568   5.121   5.765   3.391
10542TIP3    H131569   5.179   5.697   3.425
10542TIP3    H231570   5.150   5.845   3.434
10543TIP3   OH231571   1.964   2.281   5.245
10543TIP3    H131572   1.891   2.288   5.183
10543TIP3    H231573   1.996   2.370   5.255
10544TIP3   OH231574   1.656   4.556   4.530
10544TIP3    H131575   1.620   4.644   4.518
10544TIP3    H231576   1.604   4.520   4.602
10545TIP3   OH231577   1.020   4.463   1.840
10545TIP3    H131578   1.074   4.542   1.849
10545TIP3    H231579   1.082   4.395   1.815
10546TIP3   OH231580   3.519   3.643   0.648
10546TIP3    H131581   3.548   3.728   0.679
10546TIP3    H231582   3.463   3.610   0.718
10547TIP3   OH231583   3.000   7.290   0.686
10547TIP3    H131584   3.005   7.230   0.760
10547TIP3    H231585   2.965   7.236   0.614
10548TIP3   OH231586   3.005   6.905   5.600
10548TIP3    H131587   2.993   6.997   5.620
10548TIP3    H231588   3.081   6.902   5.542
10549TIP3   OH231589   5.101   6.217   0.697
10549TIP3    H131590   5.030   6.199   0.636
10549TIP3    H231591   5.156   6.139   0.693
10550TIP3   OH231592   8.070   0.153   2.810
10550TIP3    H131593   8.037   0.241   2.828
10550TIP3    H231594   8.159   0.153   2.845
10551TIP3   OH231595   0.602   3.229   0.601
10551TIP3    H131596   0.521   3.178   0.597
10551TIP3    H231597   0.620   3.253   0.510
10552TIP3   OH231598   5.867   3.405   2.613
10552TIP3    H131599   5.944   3.453   2.645
10552TIP3    H231600   5.794   3.463   2.632
10553TIP3   OH231601   6.939   7.348   5.646
10553TIP3    H131602   6.922   7.405   5.721
10553TIP3    H231603   7.006   7.394   5.596
10554TIP3   OH231604   6.918   6.879   6.327
10554TIP3    H131605   6.909   6.957   6.272
10554TIP3    H231606   6.828   6.852   6.346
10555TIP3   OH231607   7.525   7.066   4.899
10555TIP3    H131608   7.463   7.057   4.827
10555TIP3    H231609   7.470   7.065   4.978
10556TIP3   OH231610   1.751   7.353   2.606
10556TIP3    H131611   1.778   7.262   2.596
10556TIP3    H231612   1.777   7.377   2.695
10557TIP3   OH231613   7.698   3.972   3.761
10557TIP3    H131614   7.641   4.047   3.776
10557TIP3    H231615   7.638   3.901   3.740
10558TIP3   OH231616   7.111   3.791   5.905
10558TIP3    H131617   7.121   3.869   5.851
10558TIP3    H231618   7.165   3.725   5.863
10559TIP3   OH231619   8.064   2.945   3.559
10559TIP3    H131620   8.043   2.896   3.639
10559TIP3    H231621   8.087   3.032   3.590
10560TIP3   OH231622   0.197   0.091   0.887
10560TIP3    H131623   0.244   0.008   0.881
10560TIP3    H231624   0.220   0.138   0.807
10561TIP3   OH231625   7.918   6.198   3.045
10561TIP3    H131626   7.868   6.123   3.011
10561TIP3    H231627   7.966   6.163   3.119
10562TIP3   OH231628   7.531   1.004   4.340
10562TIP3    H131629   7.472   1.019   4.414
10562TIP3    H231630   7.495   1.058   4.270
10563TIP3   OH231631   1.060   0.262   5.294
10563TIP3    H131632   0.981   0.273   5.347
10563TIP3    H231633   1.113   0.199   5.343
10564TIP3   OH231634   8.134   3.448   4.738
10564TIP3    H131635   8.107   3.475   4.826
10564TIP3    H231636   8.052   3.422   4.695
10565TIP3   OH231637   7.291   2.587   4.274
10565TIP3    H131638   7.321   2.663   4.225
10565TIP3    H231639   7.334   2.594   4.359
10566TIP3   OH231640  -0.018   7.374   3.036
10566TIP3    H131641   0.068   7.405   3.009
10566TIP3    H231642  -0.007   7.347   3.127
10567TIP3   OH231643   0.589   3.092   6.183
10567TIP3    H131644   0.663   3.043   6.220
10567TIP3    H231645   0.515   3.033   6.190
10568TIP3   OH231646   6.916   6.179   4.731
10568TIP3    H131647   7.007   6.202   4.754
10568TIP3    H231648   6.897   6.103   4.786
10569TIP3   OH231649   3.764   3.371   5.709
10569TIP3    H131650   3.784   3.457   5.672
10569TIP3    H231651   3.811   3.369   5.792
10570TIP3   OH231652   7.156   2.004   3.103
10570TIP3    H131653   7.196   1.943   3.165
10570TIP3    H231654   7.062   1.999   3.122
10571TIP3   OH231655   0.536   0.894   4.160
10571TIP3    H131656   0.548   0.943   4.079
10571TIP3    H231657   0.624   0.884   4.196
10572TIP3   OH231658   6.294   4.285   2.864
10572TIP3    H131659   6.259   4.231   2.935
10572TIP3    H231660   6.385   4.255   2.854
10573TIP3   OH231661   0.123   1.120   4.088
10573TIP3    H131662   0.179   1.083   4.020
10573TIP3    H231663   0.068   1.046   4.116
10574TIP3   OH231664   2.691   5.847   6.523
10574TIP3    H131665   2.641   5.767   6.504
10574TIP3    H231666   2.645   5.887   6.596
10575TIP3   OH231667   4.849   4.209   5.144
10575TIP3    H131668   4.912   4.181   5.077
10575TIP3    H231669   4.873   4.300   5.162
10576TIP3   OH231670   5.833   6.689   2.550
10576TIP3    H131671   5.820   6.699   2.456
10576TIP3    H231672   5.779   6.759   2.589
10577TIP3   OH231673   5.716   2.488   0.347
10577TIP3    H131674   5.786   2.541   0.385
10577TIP3    H231675   5.657   2.468   0.420
10578TIP3   OH231676   6.032   3.723   1.256
10578TIP3    H131677   6.092   3.797   1.266
10578TIP3    H231678   6.033   3.704   1.162
10579TIP3   OH231679   0.305   2.073   2.211
10579TIP3    H131680   0.293   2.158   2.252
10579TIP3    H231681   0.395   2.047   2.233
10580TIP3   OH231682   4.707   3.401   4.302
10580TIP3    H131683   4.613   3.396   4.284
10580TIP3    H231684   4.748   3.357   4.227
10581TIP3   OH231685   3.491   0.951   4.086
10581TIP3    H131686   3.530   0.894   4.152
10581TIP3    H231687   3.455   0.891   4.021
10582TIP3   OH231688   7.264   0.469   2.208
10582TIP3    H131689   7.346   0.465   2.158
10582TIP3    H231690   7.218   0.544   2.171
10583TIP3   OH231691   7.892   0.601   2.787
10583TIP3    H131692   7.822   0.608   2.722
10583TIP3    H231693   7.946   0.679   2.772
10584TIP3   OH231694   0.019   7.725   4.170
10584TIP3    H131695   0.103   7.727   4.124
10584TIP3    H231696  -0.028   7.651   4.131
10585TIP3   OH231697   6.313   4.775   0.446
10585TIP3    H131698   6.222   4.804   0.448
10585TIP3    H231699   6.317   4.710   0.376
10586TIP3   OH231700   6.571   0.272   3.971
10586TIP3    H131701   6.666   0.267   3.963
10586TIP3    H231702   6.539   0.242   3.886
10587TIP3   OH231703   2.587   6.627   0.276
10587TIP3    H131704   2.583   6.709   0.324
10587TIP3    H231705   2.559   6.649   0.187
10588TIP3   OH231706   0.673   4.775   5.962
10588TIP3    H131707   0.609   4.830   6.008
10588TIP3    H231708   0.706   4.715   6.029
10589TIP3   OH231709   2.077   5.730   3.365
10589TIP3    H131710   2.139   5.762   3.430
10589TIP3    H231711   2.132   5.688   3.298
10590TIP3   OH231712   7.597   4.887   3.522
10590TIP3    H131713   7.574   4.960   3.465
10590TIP3    H231714   7.592   4.922   3.611
10591TIP3   OH231715   1.827   6.907   1.251
10591TIP3    H131716   1.732   6.895   1.241
10591TIP3    H231717   1.849   6.855   1.329
10592TIP3   OH231718   1.642   5.659   0.816
10592TIP3    H131719   1.657   5.722   0.887
10592TIP3    H231720   1.692   5.582   0.841
10593TIP3   OH231721   5.673   7.294   2.602
10593TIP3    H131722   5.715   7.363   2.653
10593TIP3    H231723   5.726   7.216   2.619
10594TIP3   OH231724   3.415   1.362   4.943
10594TIP3    H131725   3.419   1.397   4.854
10594TIP3    H231726   3.450   1.433   4.997
10595TIP3   OH231727   4.056   6.841   2.807
10595TIP3    H131728   4.105   6.808   2.731
10595TIP3    H231729   4.116   6.830   2.880
10596TIP3   OH231730   1.650   2.926   0.510
10596TIP3    H131731   1.744   2.932   0.530
10596TIP3    H231732   1.647   2.896   0.419
10597TIP3   OH231733   0.626   4.743   1.107
10597TIP3    H131734   0.535   4.728   1.082
10597TIP3    H231735   0.671   4.765   1.026
10598TIP3   OH231736   3.399   0.789   5.075
10598TIP3    H131737   3.417   0.696   5.069
10598TIP3    H231738   3.340   0.807   5.002
10599TIP3   OH231739   2.727   3.452   3.250
10599TIP3    H131740   2.690   3.364   3.261
10599TIP3    H231741   2.801   3.454   3.311
10600TIP3   OH231742   4.869   1.373   2.182
10600TIP3    H131743   4.827   1.420   2.254
10600TIP3    H231744   4.929   1.437   2.144
10601TIP3   OH231745   3.385   4.930   1.600
10601TIP3    H131746   3.299   4.889   1.612
10601TIP3    H231747   3.444   4.856   1.582
10602TIP3   OH231748   0.816   7.602   6.210
10602TIP3    H131749   0.737   7.640   6.170
10602TIP3    H231750   0.884   7.613   6.145
10603TIP3   OH231751   1.903   3.385   5.082
10603TIP3    H131752   1.925   3.432   5.163
10603TIP3    H231753   1.917   3.293   5.103
10604TIP3   OH231754   7.229   5.522   4.450
10604TIP3    H131755   7.231   5.613   4.481
10604TIP3    H231756   7.194   5.528   4.361
10605TIP3   OH231757   8.178   5.262   5.796
10605TIP3    H131758   8.271   5.240   5.797
10605TIP3    H231759   8.165   5.316   5.874
10606TIP3   OH231760   3.366   4.876   4.870
10606TIP3    H131761   3.291   4.839   4.916
10606TIP3    H231762   3.327   4.934   4.803
10607TIP3   OH231763   0.721   0.977   6.029
10607TIP3    H131764   0.729   1.072   6.044
10607TIP3    H231765   0.705   0.969   5.935
10608TIP3   OH231766   3.188   5.826   5.331
10608TIP3    H131767   3.203   5.910   5.373
10608TIP3    H231768   3.162   5.768   5.403
10609TIP3   OH231769   1.206   6.887   0.907
10609TIP3    H131770   1.233   6.934   0.986
10609TIP3    H231771   1.142   6.945   0.866
10610TIP3   OH231772   0.453   5.429   2.646
10610TIP3    H131773   0.455   5.494   2.575
10610TIP3    H231774   0.544   5.422   2.674
10611TIP3   OH231775   6.738   1.927   5.873
10611TIP3    H131776   6.644   1.939   5.888
10611TIP3    H231777   6.761   1.995   5.809
10612TIP3   OH231778   1.811   6.970   5.276
10612TIP3    H131779   1.876   6.914   5.318
10612TIP3    H231780   1.820   7.055   5.319
10613TIP3   OH231781   4.510   4.186   5.999
10613TIP3    H131782   4.538   4.147   6.082
10613TIP3    H231783   4.496   4.278   6.019
10614TIP3   OH231784   4.824   5.618   6.112
10614TIP3    H131785   4.893   5.576   6.060
10614TIP3    H231786   4.765   5.546   6.136
10615TIP3   OH231787   5.656   7.702   3.804
10615TIP3    H131788   5.653   7.671   3.713
10615TIP3    H231789   5.728   7.766   3.805
10616TIP3   OH231790   4.043   7.642   1.431
10616TIP3    H131791   4.066   7.670   1.342
10616TIP3    H231792   3.988   7.565   1.418
10617TIP3   OH231793   7.812   6.826   4.118
10617TIP3    H131794   7.892   6.857   4.076
10617TIP3    H231795   7.753   6.805   4.046
10618TIP3   OH231796   0.952   4.019   1.204
10618TIP3    H131797   0.993   4.084   1.260
10618TIP3    H231798   1.023   3.959   1.181
10619TIP3   OH231799   7.100   0.376   2.844
10619TIP3    H131800   7.030   0.333   2.894
10619TIP3    H231801   7.072   0.468   2.840
10620TIP3   OH231802   1.751   6.840   4.770
10620TIP3    H131803   1.661   6.866   4.790
10620TIP3    H231804   1.804   6.886   4.836
10621TIP3   OH231805   0.969   2.056   3.555
10621TIP3    H131806   1.007   2.061   3.643
10621TIP3    H231807   0.909   1.981   3.560
10622TIP3   OH231808   2.113   0.160   4.917
10622TIP3    H131809   2.035   0.105   4.926
10622TIP3    H231810   2.167   0.115   4.852
10623TIP3   OH231811   5.407   6.600   2.043
10623TIP3    H131812   5.455   6.538   1.988
10623TIP3    H231813   5.474   6.643   2.096
10624TIP3   OH231814   6.924   7.055   1.702
10624TIP3    H131815   6.992   7.122   1.695
10624TIP3    H231816   6.922   7.032   1.794
10625TIP3   OH231817   3.624   0.294   4.708
10625TIP3    H131818   3.644   0.201   4.714
10625TIP3    H231819   3.549   0.306   4.767
10626TIP3   OH231820   6.129   7.578   3.868
10626TIP3    H131821   6.215   7.541   3.848
10626TIP3    H231822   6.067   7.509   3.843
10627TIP3   OH231823   1.354   5.864   3.990
10627TIP3    H131824   1.412   5.790   3.973
10627TIP3    H231825   1.310   5.878   3.906
10628TIP3   OH231826   5.380   5.675   3.832
10628TIP3    H131827   5.382   5.658   3.926
10628TIP3    H231828   5.350   5.592   3.794
10629TIP3   OH231829   0.025   7.280   4.287
10629TIP3    H131830   0.116   7.305   4.268
10629TIP3    H231831  -0.005   7.347   4.349
10630TIP3   OH231832   4.375   2.999   0.708
10630TIP3    H131833   4.450   2.941   0.717
10630TIP3    H231834   4.409   3.085   0.732
10631TIP3   OH231835   7.539   7.212   2.443
10631TIP3    H131836   7.605   7.259   2.495
10631TIP3    H231837   7.506   7.144   2.502
10632TIP3   OH231838   0.841   5.880   3.641
10632TIP3    H131839   0.752   5.891   3.608
10632TIP3    H231840   0.891   5.849   3.566
10633TIP3   OH231841   0.957   0.275   0.436
10633TIP3    H131842   0.964   0.354   0.490
10633TIP3    H231843   1.031   0.280   0.376
10634TIP3   OH231844   0.709   4.225   5.237
10634TIP3    H131845   0.675   4.231   5.326
10634TIP3    H231846   0.642   4.267   5.183
10635TIP3   OH231847   6.741   7.205   5.123
10635TIP3    H131848   6.692   7.124   5.137
10635TIP3    H231849   6.832   7.177   5.114
10636TIP3   OH231850   3.782   7.493   1.759
10636TIP3    H131851   3.748   7.404   1.768
10636TIP3    H231852   3.874   7.487   1.784
10637TIP3   OH231853   3.772   3.278   3.361
10637TIP3    H131854   3.833   3.214   3.323
10637TIP3    H231855   3.724   3.313   3.286
10638TIP3   OH231856   3.521   5.662   1.400
10638TIP3    H131857   3.571   5.693   1.476
10638TIP3    H231858   3.513   5.568   1.414
10639TIP3   OH231859   2.710   2.602   1.659
10639TIP3    H131860   2.747   2.650   1.585
10639TIP3    H231861   2.787   2.572   1.708
10640TIP3   OH231862   4.839   1.120   5.899
10640TIP3    H131863   4.924   1.145   5.935
10640TIP3    H231864   4.790   1.203   5.894
10641TIP3   OH231865   6.212   2.134   5.758
10641TIP3    H131866   6.302   2.127   5.792
10641TIP3    H231867   6.201   2.055   5.704
10642TIP3   OH231868   5.841   4.482   6.525
10642TIP3    H131869   5.897   4.437   6.461
10642TIP3    H231870   5.900   4.541   6.570
10643TIP3   OH231871   7.839   3.085   0.182
10643TIP3    H131872   7.774   3.107   0.249
10643TIP3    H231873   7.903   3.156   0.186
10644TIP3   OH231874   2.635   3.608   1.491
10644TIP3    H131875   2.615   3.515   1.495
10644TIP3    H231876   2.646   3.627   1.397
10645TIP3   OH231877   1.237   0.473   5.195
10645TIP3    H131878   1.198   0.432   5.272
10645TIP3    H231879   1.314   0.420   5.175
10646TIP3   OH231880   7.606   0.416   6.706
10646TIP3    H131881   7.613   0.331   6.749
10646TIP3    H231882   7.663   0.409   6.629
10647TIP3   OH231883   2.847   0.733   3.260
10647TIP3    H131884   2.840   0.826   3.238
10647TIP3    H231885   2.765   0.695   3.229
10648TIP3   OH231886   8.017   3.713   4.461
10648TIP3    H131887   7.974   3.759   4.389
10648TIP3    H231888   7.973   3.628   4.465
10649TIP3   OH231889   2.318   2.313   5.216
10649TIP3    H131890   2.239   2.324   5.163
10649TIP3    H231891   2.359   2.233   5.183
10650TIP3   OH231892   7.266   0.482   6.229
10650TIP3    H131893   7.351   0.465   6.268
10650TIP3    H231894   7.212   0.408   6.256
10651TIP3   OH231895   0.243   3.663   5.640
10651TIP3    H131896   0.326   3.679   5.686
10651TIP3    H231897   0.206   3.751   5.627
10652TIP3   OH231898   5.388   1.634   2.539
10652TIP3    H131899   5.423   1.723   2.533
10652TIP3    H231900   5.357   1.628   2.629
10653TIP3   OH231901   0.762   0.307   1.721
10653TIP3    H131902   0.759   0.295   1.626
10653TIP3    H231903   0.844   0.352   1.737
10654TIP3   OH231904   2.537   7.765   6.619
10654TIP3    H131905   2.572   7.778   6.707
10654TIP3    H231906   2.461   7.707   6.631
10655TIP3   OH231907   2.181   4.417   1.748
10655TIP3    H131908   2.243   4.479   1.786
10655TIP3    H231909   2.146   4.370   1.823
10656TIP3   OH231910   5.906   2.647   0.468
10656TIP3    H131911   5.991   2.605   0.457
10656TIP3    H231912   5.924   2.741   0.463
10657TIP3   OH231913   7.917   5.807   5.031
10657TIP3    H131914   7.836   5.814   5.082
10657TIP3    H231915   7.986   5.794   5.096
10658TIP3   OH231916   0.869   2.979   6.224
10658TIP3    H131917   0.835   2.940   6.305
10658TIP3    H231918   0.940   2.922   6.197
10659TIP3   OH231919   4.776   1.406   4.695
10659TIP3    H131920   4.710   1.441   4.755
10659TIP3    H231921   4.852   1.463   4.707
10660TIP3   OH231922   5.350   1.695   6.408
10660TIP3    H131923   5.276   1.687   6.468
10660TIP3    H231924   5.419   1.735   6.460
10661TIP3   OH231925   6.432   5.819   2.805
10661TIP3    H131926   6.380   5.740   2.795
10661TIP3    H231927   6.459   5.842   2.716
10662TIP3   OH231928   3.176   6.162   3.755
10662TIP3    H131929   3.222   6.242   3.781
10662TIP3    H231930   3.158   6.117   3.837
10663TIP3   OH231931   4.412   6.466   4.740
10663TIP3    H131932   4.408   6.561   4.732
10663TIP3    H231933   4.489   6.449   4.793
10664TIP3   OH231934   0.322   1.135   0.341
10664TIP3    H131935   0.315   1.216   0.292
10664TIP3    H231936   0.336   1.068   0.275
10665TIP3   OH231937   5.180   5.841   6.138
10665TIP3    H131938   5.203   5.858   6.229
10665TIP3    H231939   5.263   5.819   6.096
10666TIP3   OH231940   1.768   5.151   0.479
10666TIP3    H131941   1.830   5.113   0.417
10666TIP3    H231942   1.694   5.180   0.425
10667TIP3   OH231943   2.326   1.408   0.140
10667TIP3    H131944   2.291   1.336   0.192
10667TIP3    H231945   2.258   1.476   0.143
10668TIP3   OH231946   3.063   6.735   1.024
10668TIP3    H131947   3.047   6.641   1.022
10668TIP3    H231948   2.978   6.775   1.008
10669TIP3   OH231949   3.829   7.682   4.150
10669TIP3    H131950   3.785   7.694   4.066
10669TIP3    H231951   3.759   7.655   4.210
10670TIP3   OH231952   5.865   4.867   4.836
10670TIP3    H131953   5.864   4.888   4.742
10670TIP3    H231954   5.957   4.844   4.853
10671TIP3   OH231955   0.316   0.792   1.758
10671TIP3    H131956   0.223   0.786   1.780
10671TIP3    H231957   0.331   0.720   1.697
10672TIP3   OH231958   6.615   4.045   1.112
10672TIP3    H131959   6.626   4.082   1.199
10672TIP3    H231960   6.526   4.009   1.111
10673TIP3   OH231961   1.769   0.834   2.356
10673TIP3    H131962   1.817   0.766   2.310
10673TIP3    H231963   1.834   0.902   2.373
10674TIP3   OH231964   6.860   5.945   0.097
10674TIP3    H131965   6.880   5.852   0.099
10674TIP3    H231966   6.926   5.983   0.039
10675TIP3   OH231967   3.754   4.127   3.496
10675TIP3    H131968   3.848   4.144   3.494
10675TIP3    H231969   3.734   4.096   3.408
10676TIP3   OH231970   6.553   4.141   2.373
10676TIP3    H131971   6.588   4.111   2.288
10676TIP3    H231972   6.577   4.071   2.434
10677TIP3   OH231973   2.402   5.788   6.585
10677TIP3    H131974   2.365   5.726   6.649
10677TIP3    H231975   2.452   5.850   6.637
10678TIP3   OH231976   7.920   3.095   6.150
10678TIP3    H131977   7.912   3.151   6.072
10678TIP3    H231978   7.834   3.101   6.192
10679TIP3   OH231979   6.267   5.235   0.259
10679TIP3    H131980   6.175   5.260   0.253
10679TIP3    H231981   6.281   5.178   0.183
10680TIP3   OH231982   4.935   3.595   4.685
10680TIP3    H131983   5.023   3.631   4.690
10680TIP3    H231984   4.926   3.565   4.594
10681TIP3   OH231985   2.270   4.915   0.289
10681TIP3    H131986   2.292   4.971   0.214
10681TIP3    H231987   2.179   4.938   0.309
10682TIP3   OH231988   6.381   0.510   2.394
10682TIP3    H131989   6.386   0.582   2.331
10682TIP3    H231990   6.310   0.535   2.454
10683TIP3   OH231991   0.339   4.057   2.010
10683TIP3    H131992   0.425   4.069   2.049
10683TIP3    H231993   0.348   4.090   1.920
10684TIP3   OH231994   6.558   3.477   2.622
10684TIP3    H131995   6.639   3.520   2.594
10684TIP3    H231996   6.583   3.386   2.636
10685TIP3   OH231997   5.893   3.854   0.656
10685TIP3    H131998   5.875   3.944   0.683
10685TIP3    H231999   5.927   3.862   0.568
10686TIP3   OH232000   5.252   5.339   5.448
10686TIP3    H132001   5.192   5.307   5.382
10686TIP3    H232002   5.253   5.271   5.516
10687TIP3   OH232003   7.547   5.844   1.661
10687TIP3    H132004   7.501   5.768   1.624
10687TIP3    H232005   7.533   5.837   1.755
10688TIP3   OH232006   0.532   6.222   4.057
10688TIP3    H132007   0.624   6.232   4.031
10688TIP3    H232008   0.518   6.290   4.123
10689TIP3   OH232009   3.555   7.810   3.975
10689TIP3    H132010   3.596   7.810   3.888
10689TIP3    H232011   3.513   7.724   3.982
10690TIP3   OH232012   1.177   0.330   0.735
10690TIP3    H132013   1.109   0.311   0.671
10690TIP3    H232014   1.258   0.329   0.685
10691TIP3   OH232015   2.642   3.320   5.586
10691TIP3    H132016   2.716   3.261   5.590
10691TIP3    H232017   2.678   3.406   5.609
10692TIP3   OH232018   2.844   0.092   3.537
10692TIP3    H132019   2.846   0.091   3.632
10692TIP3    H232020   2.861   0.001   3.511
10693TIP3   OH232021   2.031   7.108   3.134
10693TIP3    H132022   2.047   7.115   3.040
10693TIP3    H232023   2.117   7.118   3.174
10694TIP3   OH232024   6.548   7.763   0.012
10694TIP3    H132025   6.597   7.683   0.030
10694TIP3    H232026   6.538   7.805   0.097
10695TIP3   OH232027   3.537   4.042   6.318
10695TIP3    H132028   3.616   4.045   6.373
10695TIP3    H232029   3.469   4.007   6.376
10696TIP3   OH232030   1.901   2.215   4.974
10696TIP3    H132031   1.831   2.224   4.909
10696TIP3    H232032   1.944   2.133   4.951
10697TIP3   OH232033   6.571   7.158   2.959
10697TIP3    H132034   6.589   7.201   2.876
10697TIP3    H232035   6.604   7.069   2.949
10698TIP3   OH232036   0.543   2.630   1.435
10698TIP3    H132037   0.586   2.597   1.514
10698TIP3    H232038   0.467   2.572   1.423
10699TIP3   OH232039   7.220   3.982   4.522
10699TIP3    H132040   7.191   3.891   4.525
10699TIP3    H232041   7.144   4.031   4.491
10700TIP3   OH232042   5.109   3.490   3.644
10700TIP3    H132043   5.063   3.565   3.605
10700TIP3    H232044   5.190   3.484   3.594
10701TIP3   OH232045   7.097   1.465   5.023
10701TIP3    H132046   7.053   1.540   4.982
10701TIP3    H232047   7.162   1.504   5.081
10702TIP3   OH232048   1.410   5.384   1.217
10702TIP3    H132049   1.417   5.470   1.174
10702TIP3    H232050   1.441   5.400   1.307
10703TIP3   OH232051   3.203   6.108   2.964
10703TIP3    H132052   3.173   6.068   3.046
10703TIP3    H232053   3.130   6.095   2.903
10704TIP3   OH232054   2.881   4.968   2.474
10704TIP3    H132055   2.813   4.967   2.406
10704TIP3    H232056   2.929   5.050   2.458
10705TIP3   OH232057   0.049   6.908   3.855
10705TIP3    H132058   0.020   6.817   3.864
10705TIP3    H232059   0.128   6.903   3.801
10706TIP3   OH232060   7.725   2.198   1.735
10706TIP3    H132061   7.641   2.215   1.778
10706TIP3    H232062   7.772   2.142   1.796
10707TIP3   OH232063   1.055   2.323   6.176
10707TIP3    H132064   1.018   2.234   6.174
10707TIP3    H232065   1.129   2.319   6.116
10708TIP3   OH232066   6.124   4.202   2.676
10708TIP3    H132067   6.147   4.110   2.665
10708TIP3    H232068   6.182   4.233   2.745
10709TIP3   OH232069   3.981   4.452   4.020
10709TIP3    H132070   3.927   4.386   4.063
10709TIP3    H232071   3.955   4.447   3.928
10710TIP3   OH232072   4.642   6.577   0.073
10710TIP3    H132073   4.674   6.565   0.162
10710TIP3    H232074   4.675   6.664   0.048
10711TIP3   OH232075   2.208   2.733   2.741
10711TIP3    H132076   2.180   2.800   2.679
10711TIP3    H232077   2.171   2.760   2.825
10712TIP3   OH232078   7.418   4.115   4.094
10712TIP3    H132079   7.417   4.129   3.999
10712TIP3    H232080   7.332   4.077   4.113
10713TIP3   OH232081   7.284   5.904   5.311
10713TIP3    H132082   7.225   5.873   5.380
10713TIP3    H232083   7.366   5.922   5.357
10714TIP3   OH232084   0.688   5.250   1.832
10714TIP3    H132085   0.672   5.344   1.827
10714TIP3    H232086   0.613   5.214   1.879
10715TIP3   OH232087   3.082   3.102   0.672
10715TIP3    H132088   3.167   3.130   0.705
10715TIP3    H232089   3.021   3.118   0.744
10716TIP3   OH232090   7.282   7.333   3.548
10716TIP3    H132091   7.367   7.303   3.515
10716TIP3    H232092   7.303   7.406   3.606
10717TIP3   OH232093   4.506   0.257   6.733
10717TIP3    H132094   4.571   0.239   6.666
10717TIP3    H232095   4.479   0.170   6.763
10718TIP3   OH232096   3.487   5.309   6.687
10718TIP3    H132097   3.414   5.365   6.711
10718TIP3    H232098   3.448   5.222   6.676
10719TIP3   OH232099   1.189   2.910   5.521
10719TIP3    H132100   1.208   3.003   5.516
10719TIP3    H232101   1.096   2.902   5.498
10720TIP3   OH232102   2.643   5.172   1.267
10720TIP3    H132103   2.666   5.215   1.185
10720TIP3    H232104   2.555   5.139   1.253
10721TIP3   OH232105   2.938   5.979   1.213
10721TIP3    H132106   2.926   5.886   1.193
10721TIP3    H232107   2.965   5.980   1.305
10722TIP3   OH232108   0.152   3.492   2.673
10722TIP3    H132109   0.076   3.538   2.638
10722TIP3    H232110   0.202   3.466   2.595
10723TIP3   OH232111   0.201   1.998   1.632
10723TIP3    H132112   0.240   1.911   1.624
10723TIP3    H232113   0.112   1.987   1.600
10724TIP3   OH232114   2.171   2.911   2.135
10724TIP3    H132115   2.260   2.875   2.144
10724TIP3    H232116   2.181   3.004   2.157
10725TIP3   OH232117   6.600   0.333   1.230
10725TIP3    H132118   6.602   0.405   1.293
10725TIP3    H232119   6.508   0.306   1.228
10726TIP3   OH232120   3.768   6.738   5.100
10726TIP3    H132121   3.683   6.774   5.124
10726TIP3    H232122   3.799   6.793   5.028
10727TIP3   OH232123   4.994   3.550   5.051
10727TIP3    H132124   5.068   3.550   4.991
10727TIP3    H232125   4.974   3.643   5.063
10728TIP3   OH232126   0.354   4.161   6.245
10728TIP3    H132127   0.425   4.146   6.307
10728TIP3    H232128   0.296   4.224   6.289
10729TIP3   OH232129   4.323   6.007   1.832
10729TIP3    H132130   4.337   6.042   1.743
10729TIP3    H232131   4.379   5.929   1.836
10730TIP3   OH232132   1.413   7.405   4.620
10730TIP3    H132133   1.432   7.340   4.553
10730TIP3    H232134   1.479   7.391   4.688
10731TIP3   OH232135   2.022   1.444   3.470
10731TIP3    H132136   2.067   1.384   3.410
10731TIP3    H232137   2.037   1.407   3.556
10732TIP3   OH232138   4.527   2.183   6.594
10732TIP3    H132139   4.563   2.217   6.676
10732TIP3    H232140   4.603   2.178   6.535
10733TIP3   OH232141   1.196   4.765   4.948
10733TIP3    H132142   1.282   4.749   4.987
10733TIP3    H232143   1.215   4.820   4.872
10734TIP3   OH232144   0.819   1.496   0.226
10734TIP3    H132145   0.779   1.530   0.146
10734TIP3    H232146   0.747   1.490   0.288
10735TIP3   OH232147   7.310   3.574   1.449
10735TIP3    H132148   7.340   3.653   1.494
10735TIP3    H232149   7.228   3.550   1.493
10736TIP3   OH232150   3.153   7.066   6.131
10736TIP3    H132151   3.200   7.052   6.049
10736TIP3    H232152   3.157   7.161   6.145
10737TIP3   OH232153   4.000   5.602   1.419
10737TIP3    H132154   3.952   5.682   1.442
10737TIP3    H232155   3.973   5.583   1.329
10738TIP3   OH232156   2.213   0.054   2.473
10738TIP3    H132157   2.280  -0.014   2.474
10738TIP3    H232158   2.254   0.130   2.515
10739TIP3   OH232159   5.992   1.859   1.918
10739TIP3    H132160   5.966   1.795   1.983
10739TIP3    H232161   5.986   1.812   1.834
10740TIP3   OH232162   0.762   4.315   3.829
10740TIP3    H132163   0.762   4.347   3.919
10740TIP3    H232164   0.801   4.228   3.834
10741TIP3   OH232165   8.254   1.300   5.596
10741TIP3    H132166   8.167   1.336   5.581
10741TIP3    H232167   8.302   1.318   5.515
10742TIP3   OH232168   3.532   7.087   1.256
10742TIP3    H132169   3.552   7.137   1.177
10742TIP3    H232170   3.467   7.022   1.228
10743TIP3   OH232171   5.163   0.809   2.625
10743TIP3    H132172   5.177   0.902   2.606
10743TIP3    H232173   5.227   0.789   2.694
10744TIP3   OH232174   2.950   5.337   5.304
10744TIP3    H132175   2.916   5.373   5.386
10744TIP3    H232176   3.037   5.304   5.326
10745TIP3   OH232177   5.727   0.105   5.004
10745TIP3    H132178   5.738   0.130   5.095
10745TIP3    H232179   5.699   0.185   4.960
10746TIP3   OH232180   2.015   1.284   4.528
10746TIP3    H132181   1.954   1.211   4.538
10746TIP3    H232182   1.989   1.346   4.596
10747TIP3   OH232183   0.329   6.413   0.095
10747TIP3    H132184   0.334   6.489   0.036
10747TIP3    H232185   0.310   6.339   0.037
10748TIP3   OH232186   1.181   2.062   1.975
10748TIP3    H132187   1.190   2.157   1.965
10748TIP3    H232188   1.271   2.030   1.976
10749TIP3   OH232189   1.282   5.521   1.517
10749TIP3    H132190   1.320   5.582   1.581
10749TIP3    H232191   1.213   5.476   1.565
10750TIP3   OH232192   3.129   7.731   3.258
10750TIP3    H132193   3.216   7.752   3.223
10750TIP3    H232194   3.093   7.667   3.196
10751TIP3   OH232195   2.350   6.228   0.988
10751TIP3    H132196   2.280   6.183   1.034
10751TIP3    H232197   2.430   6.206   1.036
10752TIP3   OH232198   1.039   0.027   4.449
10752TIP3    H132199   1.105  -0.004   4.387
10752TIP3    H232200   0.973   0.070   4.395
10753TIP3   OH232201   6.423   1.437   0.487
10753TIP3    H132202   6.363   1.494   0.535
10753TIP3    H232203   6.467   1.495   0.425
10754TIP3   OH232204   4.560   5.425   3.410
10754TIP3    H132205   4.545   5.508   3.454
10754TIP3    H232206   4.558   5.447   3.317
10755TIP3   OH232207   4.237   3.927   1.682
10755TIP3    H132208   4.285   3.855   1.639
10755TIP3    H232209   4.193   3.972   1.610
10756TIP3   OH232210   7.886   1.087   4.016
10756TIP3    H132211   7.822   1.099   4.086
10756TIP3    H232212   7.967   1.126   4.051
10757TIP3   OH232213   3.285   3.548   2.551
10757TIP3    H132214   3.349   3.531   2.482
10757TIP3    H232215   3.208   3.496   2.526
10758TIP3   OH232216   7.260   5.951   2.377
10758TIP3    H132217   7.208   6.024   2.412
10758TIP3    H232218   7.238   5.948   2.284
10759TIP3   OH232219   4.506   2.634   0.321
10759TIP3    H132220   4.425   2.583   0.318
10759TIP3    H232221   4.484   2.717   0.280
10760TIP3   OH232222   3.618   4.770   3.040
10760TIP3    H132223   3.681   4.811   3.099
10760TIP3    H232224   3.579   4.699   3.091
10761TIP3   OH232225   2.287   4.169   4.110
10761TIP3    H132226   2.213   4.224   4.088
10761TIP3    H232227   2.343   4.225   4.165
10762TIP3   OH232228   8.219   6.360   1.040
10762TIP3    H132229   8.145   6.302   1.055
10762TIP3    H232230   8.222   6.371   0.945
10763TIP3   OH232231   3.432   3.889   4.685
10763TIP3    H132232   3.520   3.854   4.672
10763TIP3    H232233   3.382   3.815   4.720
10764TIP3   OH232234   0.041   4.771   6.236
10764TIP3    H132235   0.080   4.779   6.323
10764TIP3    H232236   0.108   4.727   6.183
10765TIP3   OH232237   2.875   6.849   4.336
10765TIP3    H132238   2.842   6.873   4.249
10765TIP3    H232239   2.800   6.858   4.393
10766TIP3   OH232240   0.131   4.051   6.587
10766TIP3    H132241   0.108   4.054   6.494
10766TIP3    H232242   0.207   3.993   6.591
10767TIP3   OH232243   7.596   3.221   5.311
10767TIP3    H132244   7.558   3.268   5.385
10767TIP3    H232245   7.689   3.211   5.335
10768TIP3   OH232246   3.981   6.522   6.597
10768TIP3    H132247   3.964   6.592   6.535
10768TIP3    H232248   3.895   6.487   6.618
10769TIP3   OH232249   0.172   4.898   3.427
10769TIP3    H132250   0.164   4.824   3.486
10769TIP3    H232251   0.234   4.869   3.360
10770TIP3   OH232252   8.116   1.953   6.585
10770TIP3    H132253   8.205   1.923   6.565
10770TIP3    H232254   8.116   2.045   6.560
10771TIP3   OH232255   2.165   0.324   6.661
10771TIP3    H132256   2.093   0.303   6.601
10771TIP3    H232257   2.236   0.264   6.635
10772TIP3   OH232258   3.869   4.838   1.532
10772TIP3    H132259   3.953   4.858   1.575
10772TIP3    H232260   3.829   4.772   1.588
10773TIP3   OH232261   0.554   4.024   0.902
10773TIP3    H132262   0.560   4.077   0.981
10773TIP3    H232263   0.570   3.934   0.931
10774TIP3   OH232264   1.422   1.676   5.048
10774TIP3    H132265   1.362   1.709   5.114
10774TIP3    H232266   1.468   1.754   5.016
10775TIP3   OH232267   0.402   3.625   1.801
10775TIP3    H132268   0.444   3.704   1.768
10775TIP3    H232269   0.429   3.556   1.740
10776TIP3   OH232270   2.185   2.853   0.686
10776TIP3    H132271   2.232   2.776   0.654
10776TIP3    H232272   2.093   2.836   0.664
10777TIP3   OH232273   6.834   2.318   0.768
10777TIP3    H132274   6.883   2.371   0.830
10777TIP3    H232275   6.832   2.370   0.688
10778TIP3   OH232276   1.176   2.680   0.444
10778TIP3    H132277   1.120   2.684   0.522
10778TIP3    H232278   1.240   2.749   0.456
10779TIP3   OH232279   0.920   3.385   1.517
10779TIP3    H132280   0.886   3.405   1.430
10779TIP3    H232281   0.851   3.333   1.558
10780TIP3   OH232282   6.681   2.912   1.358
10780TIP3    H132283   6.712   2.848   1.293
10780TIP3    H232284   6.588   2.894   1.367
10781TIP3   OH232285   3.733   4.938   5.548
10781TIP3    H132286   3.716   4.891   5.630
10781TIP3    H232287   3.796   4.884   5.501
10782TIP3   OH232288   6.828   2.481   1.108
10782TIP3    H132289   6.748   2.450   1.066
10782TIP3    H232290   6.891   2.492   1.037
10783TIP3   OH232291   1.583   4.143   3.852
10783TIP3    H132292   1.530   4.132   3.930
10783TIP3    H232293   1.525   4.186   3.789
10784TIP3   OH232294   4.555   6.219   3.333
10784TIP3    H132295   4.586   6.129   3.342
10784TIP3    H232296   4.475   6.211   3.281
10785TIP3   OH232297   5.109   7.155   3.680
10785TIP3    H132298   5.071   7.229   3.729
10785TIP3    H232299   5.060   7.079   3.710
10786TIP3   OH232300   5.390   5.832   0.738
10786TIP3    H132301   5.480   5.800   0.744
10786TIP3    H232302   5.384   5.868   0.649
10787TIP3   OH232303   2.907   3.420   2.701
10787TIP3    H132304   2.971   3.413   2.630
10787TIP3    H232305   2.822   3.422   2.656
10788TIP3   OH232306   1.096   5.148   2.569
10788TIP3    H132307   1.133   5.236   2.570
10788TIP3    H232308   1.009   5.159   2.529
10789TIP3   OH232309   7.525   7.313   3.410
10789TIP3    H132310   7.586   7.240   3.413
10789TIP3    H232311   7.513   7.330   3.316
10790TIP3   OH232312   3.688   2.398   2.685
10790TIP3    H132313   3.650   2.455   2.618
10790TIP3    H232314   3.701   2.314   2.641
10791TIP3   OH232315   5.112   6.092   0.992
10791TIP3    H132316   5.082   6.111   1.081
10791TIP3    H232317   5.143   6.176   0.958
10792TIP3   OH232318   0.846   4.723   1.972
10792TIP3    H132319   0.882   4.686   2.052
10792TIP3    H232320   0.923   4.751   1.922
10793TIP3   OH232321   1.462   6.741   1.701
10793TIP3    H132322   1.545   6.745   1.749
10793TIP3    H232323   1.418   6.663   1.737
10794TIP3   OH232324   6.420   5.354   4.780
10794TIP3    H132325   6.441   5.364   4.873
10794TIP3    H232326   6.495   5.393   4.735
10795TIP3   OH232327   0.707   4.767   3.521
10795TIP3    H132328   0.727   4.770   3.427
10795TIP3    H232329   0.628   4.712   3.526
10796TIP3   OH232330   3.130   5.210   6.008
10796TIP3    H132331   3.177   5.274   6.062
10796TIP3    H232332   3.155   5.231   5.918
10797TIP3   OH232333   4.850   2.646   3.823
10797TIP3    H132334   4.763   2.614   3.847
10797TIP3    H232335   4.853   2.641   3.728
10798TIP3   OH232336   4.395   1.452   6.672
10798TIP3    H132337   4.339   1.376   6.657
10798TIP3    H232338   4.378   1.509   6.597
10799TIP3   OH232339   4.606   7.696   2.194
10799TIP3    H132340   4.571   7.736   2.115
10799TIP3    H232341   4.633   7.770   2.249
10800TIP3   OH232342   2.419   7.603   4.616
10800TIP3    H132343   2.410   7.658   4.538
10800TIP3    H232344   2.449   7.663   4.684
10801TIP3   OH232345   1.315   0.677   3.420
10801TIP3    H132346   1.370   0.756   3.423
10801TIP3    H232347   1.376   0.606   3.401
10802TIP3   OH232348   5.966   6.355   3.680
10802TIP3    H132349   5.873   6.369   3.660
10802TIP3    H232350   5.999   6.442   3.702
10803TIP3   OH232351   2.688   2.700   6.596
10803TIP3    H132352   2.652   2.788   6.588
10803TIP3    H232353   2.612   2.642   6.593
10804TIP3   OH232354   7.893   3.575   5.532
10804TIP3    H132355   7.896   3.602   5.440
10804TIP3    H232356   7.973   3.524   5.544
10805TIP3   OH232357   6.263   6.783   1.684
10805TIP3    H132358   6.217   6.867   1.686
10805TIP3    H232359   6.247   6.749   1.596
10806TIP3   OH232360   2.933   5.993   1.505
10806TIP3    H132361   2.951   6.083   1.534
10806TIP3    H232362   2.999   5.940   1.551
10807TIP3   OH232363   6.392   1.234   0.003
10807TIP3    H132364   6.366   1.248   0.094
10807TIP3    H232365   6.477   1.191   0.008
10808TIP3   OH232366   7.109   4.488   0.623
10808TIP3    H132367   7.099   4.569   0.575
10808TIP3    H232368   7.193   4.452   0.593
10809TIP3   OH232369   6.968   5.918   5.404
10809TIP3    H132370   7.007   5.839   5.440
10809TIP3    H232371   6.930   5.890   5.321
10810TIP3   OH232372   5.233   5.866   0.029
10810TIP3    H132373   5.185   5.875  -0.053
10810TIP3    H232374   5.252   5.956   0.056
10811TIP3   OH232375   0.867   4.244   1.680
10811TIP3    H132376   0.807   4.277   1.747
10811TIP3    H232377   0.927   4.317   1.663
10812TIP3   OH232378   6.526   4.787   6.660
10812TIP3    H132379   6.600   4.833   6.621
10812TIP3    H232380   6.564   4.738   6.733
10813TIP3   OH232381   4.775   3.963   0.841
10813TIP3    H132382   4.830   4.003   0.908
10813TIP3    H232383   4.762   4.032   0.776
10814TIP3   OH232384   0.566   0.585   1.066
10814TIP3    H132385   0.646   0.555   1.024
10814TIP3    H232386   0.589   0.594   1.158
10815TIP3   OH232387   3.607   2.587   4.195
10815TIP3    H132388   3.676   2.526   4.221
10815TIP3    H232389   3.527   2.549   4.231
10816TIP3   OH232390   3.197   0.212   3.552
10816TIP3    H132391   3.246   0.141   3.595
10816TIP3    H232392   3.166   0.266   3.625
10817TIP3   OH232393   6.783   0.287   5.132
10817TIP3    H132394   6.724   0.241   5.191
10817TIP3    H232395   6.823   0.355   5.187
10818TIP3   OH232396   5.813   4.898   2.780
10818TIP3    H132397   5.754   4.933   2.712
10818TIP3    H232398   5.889   4.956   2.777
10819TIP3   OH232399   5.503   5.514   3.329
10819TIP3    H132400   5.479   5.606   3.320
10819TIP3    H232401   5.438   5.478   3.390
10820TIP3   OH232402   8.132   2.593   3.754
10820TIP3    H132403   8.086   2.539   3.818
10820TIP3    H232404   8.156   2.672   3.802
10821TIP3   OH232405   7.196   1.428   3.426
10821TIP3    H132406   7.275   1.419   3.481
10821TIP3    H232407   7.160   1.340   3.421
10822TIP3   OH232408   1.569   2.725   1.773
10822TIP3    H132409   1.590   2.632   1.762
10822TIP3    H232410   1.502   2.743   1.707
10823TIP3   OH232411   2.640   1.239   5.355
10823TIP3    H132412   2.604   1.324   5.378
10823TIP3    H232413   2.657   1.196   5.438
10824TIP3   OH232414   7.744   5.169   1.151
10824TIP3    H132415   7.653   5.142   1.157
10824TIP3    H232416   7.764   5.206   1.238
10825TIP3   OH232417   0.685   0.781   2.396
10825TIP3    H132418   0.736   0.841   2.451
10825TIP3    H232419   0.750   0.741   2.338
10826TIP3   OH232420   6.889   2.540   1.373
10826TIP3    H132421   6.875   2.500   1.288
10826TIP3    H232422   6.805   2.534   1.417
10827TIP3   OH232423   5.428   1.858   4.909
10827TIP3    H132424   5.428   1.941   4.956
10827TIP3    H232425   5.506   1.862   4.854
10828TIP3   OH232426   5.162   3.182   3.639
10828TIP3    H132427   5.221   3.177   3.714
10828TIP3    H232428   5.100   3.252   3.662
10829TIP3   OH232429   0.076   1.601   2.893
10829TIP3    H132430  -0.008   1.566   2.864
10829TIP3    H232431   0.138   1.573   2.826
10830TIP3   OH232432   7.743   3.810   1.737
10830TIP3    H132433   7.772   3.720   1.756
10830TIP3    H232434   7.781   3.830   1.651
10831TIP3   OH232435   6.055   2.887   3.187
10831TIP3    H132436   6.101   2.845   3.260
10831TIP3    H232437   6.049   2.980   3.212
10832TIP3   OH232438   5.870   4.598   1.061
10832TIP3    H132439   5.884   4.659   1.134
10832TIP3    H232440   5.926   4.523   1.080
10833TIP3   OH232441   4.482   4.560   5.455
10833TIP3    H132442   4.417   4.558   5.385
10833TIP3    H232443   4.438   4.603   5.528
10834TIP3   OH232444   1.611   0.720   1.933
10834TIP3    H132445   1.641   0.637   1.970
10834TIP3    H232446   1.690   0.761   1.897
10835TIP3   OH232447   0.614   4.540   5.356
10835TIP3    H132448   0.707   4.549   5.377
10835TIP3    H232449   0.612   4.489   5.275
10836TIP3   OH232450   6.953   3.986   1.290
10836TIP3    H132451   6.922   4.074   1.312
10836TIP3    H232452   6.992   3.996   1.203
10837TIP3   OH232453   7.648   4.804   5.090
10837TIP3    H132454   7.641   4.827   5.182
10837TIP3    H232455   7.557   4.799   5.059
10838TIP3   OH232456   0.767   3.991   2.599
10838TIP3    H132457   0.683   4.010   2.557
10838TIP3    H232458   0.800   3.915   2.551
10839TIP3   OH232459   4.441   7.736   6.724
10839TIP3    H132460   4.413   7.677   6.654
10839TIP3    H232461   4.361   7.755   6.772
10840TIP3   OH232462   7.843   3.980   6.482
10840TIP3    H132463   7.796   3.941   6.409
10840TIP3    H232464   7.851   4.072   6.460
10841TIP3   OH232465   1.667   7.371   3.654
10841TIP3    H132466   1.726   7.419   3.712
10841TIP3    H232467   1.617   7.314   3.712
10842TIP3   OH232468   0.600   1.594   1.579
10842TIP3    H132469   0.573   1.581   1.488
10842TIP3    H232470   0.686   1.635   1.573
10843TIP3   OH232471   6.942   3.549   6.710
10843TIP3    H132472   6.897   3.629   6.738
10843TIP3    H232473   6.888   3.515   6.639
10844TIP3   OH232474   7.487   1.585   5.874
10844TIP3    H132475   7.552   1.606   5.807
10844TIP3    H232476   7.538   1.553   5.948
10845TIP3   OH232477   3.820   5.265   1.028
10845TIP3    H132478   3.899   5.318   1.038
10845TIP3    H232479   3.749   5.329   1.026
10846TIP3   OH232480   7.845   6.103   5.068
10846TIP3    H132481   7.813   6.018   5.037
10846TIP3    H232482   7.940   6.098   5.059
10847TIP3   OH232483   5.181   6.016   1.886
10847TIP3    H132484   5.155   5.961   1.812
10847TIP3    H232485   5.144   5.972   1.963
10848TIP3   OH232486   2.936   2.474   2.810
10848TIP3    H132487   2.872   2.471   2.880
10848TIP3    H232488   3.015   2.510   2.851
10849TIP3   OH232489   1.191   1.659   4.335
10849TIP3    H132490   1.249   1.592   4.371
10849TIP3    H232491   1.236   1.742   4.352
10850TIP3   OH232492   0.808   5.028   5.312
10850TIP3    H132493   0.850   4.969   5.374
10850TIP3    H232494   0.851   5.009   5.228
10851TIP3   OH232495   6.413   5.805   5.267
10851TIP3    H132496   6.411   5.775   5.176
10851TIP3    H232497   6.352   5.747   5.313
10852TIP3   OH232498   5.733   2.215   0.350
10852TIP3    H132499   5.740   2.310   0.353
10852TIP3    H232500   5.773   2.190   0.266
10853TIP3   OH232501   4.863   3.153   1.340
10853TIP3    H132502   4.801   3.089   1.303
10853TIP3    H232503   4.933   3.158   1.274
10854TIP3   OH232504   0.925   5.153   1.918
10854TIP3    H132505   0.853   5.204   1.882
10854TIP3    H232506   0.888   5.112   1.997
10855TIP3   OH232507   0.916   7.307   2.854
10855TIP3    H132508   0.868   7.293   2.935
10855TIP3    H232509   0.946   7.219   2.828
10856TIP3   OH232510   6.679   1.173   0.729
10856TIP3    H132511   6.755   1.177   0.787
10856TIP3    H232512   6.715   1.149   0.644
10857TIP3   OH232513   2.867   3.865   3.988
10857TIP3    H132514   2.774   3.862   4.008
10857TIP3    H232515   2.888   3.777   3.957
10858TIP3   OH232516   4.567   5.749   0.159
10858TIP3    H132517   4.624   5.680   0.125
10858TIP3    H232518   4.620   5.828   0.155
10859TIP3   OH232519   4.832   6.802   2.772
10859TIP3    H132520   4.921   6.814   2.741
10859TIP3    H232521   4.790   6.887   2.760
10860TIP3   OH232522   5.688   1.858   3.274
10860TIP3    H132523   5.636   1.783   3.246
10860TIP3    H232524   5.624   1.924   3.300
10861TIP3   OH232525   0.040   5.144   3.565
10861TIP3    H132526   0.000   5.058   3.579
10861TIP3    H232527   0.113   5.127   3.505
10862TIP3   OH232528   5.099   6.739   1.918
10862TIP3    H132529   5.048   6.816   1.943
10862TIP3    H232530   5.189   6.769   1.915
10863TIP3   OH232531   7.026   1.513   4.667
10863TIP3    H132532   6.991   1.461   4.595
10863TIP3    H232533   6.966   1.586   4.676
10864TIP3   OH232534   2.877   5.480   6.037
10864TIP3    H132535   2.812   5.412   6.022
10864TIP3    H232536   2.845   5.556   5.989
10865TIP3   OH232537   7.330   3.555   2.790
10865TIP3    H132538   7.422   3.534   2.806
10865TIP3    H232539   7.294   3.575   2.876
10866TIP3   OH232540   1.465   0.458   3.326
10866TIP3    H132541   1.493   0.466   3.235
10866TIP3    H232542   1.395   0.392   3.324
10867TIP3   OH232543   6.153   6.949   3.980
10867TIP3    H132544   6.161   7.041   3.956
10867TIP3    H232545   6.181   6.901   3.903
10868TIP3   OH232546   1.530   5.666   6.265
10868TIP3    H132547   1.585   5.614   6.207
10868TIP3    H232548   1.586   5.737   6.295
10869TIP3   OH232549   4.442   1.164   2.170
10869TIP3    H132550   4.498   1.241   2.159
10869TIP3    H232551   4.356   1.201   2.190
10870TIP3   OH232552   8.033   3.625   0.466
10870TIP3    H132553   8.033   3.571   0.388
10870TIP3    H232554   8.033   3.715   0.434
10871TIP3   OH232555   3.069   5.765   4.515
10871TIP3    H132556   3.109   5.829   4.457
10871TIP3    H232557   3.089   5.680   4.476
10872TIP3   OH232558   3.561   1.522   5.942
10872TIP3    H132559   3.576   1.591   6.007
10872TIP3    H232560   3.468   1.501   5.950
10873TIP3   OH232561   1.861   4.504   4.073
10873TIP3    H132562   1.799   4.524   4.143
10873TIP3    H232563   1.808   4.495   3.994
10874TIP3   OH232564   7.090   5.931   5.735
10874TIP3    H132565   7.158   5.970   5.680
10874TIP3    H232566   7.008   5.969   5.702
10875TIP3   OH232567   6.830   3.125   2.441
10875TIP3    H132568   6.747   3.079   2.429
10875TIP3    H232569   6.806   3.217   2.445
10876TIP3   OH232570   2.279   2.647   0.406
10876TIP3    H132571   2.259   2.617   0.495
10876TIP3    H232572   2.362   2.694   0.414
10877TIP3   OH232573   4.259   4.453   0.540
10877TIP3    H132574   4.243   4.546   0.526
10877TIP3    H232575   4.176   4.419   0.575
10878TIP3   OH232576   6.732   3.886   3.709
10878TIP3    H132577   6.718   3.954   3.643
10878TIP3    H232578   6.821   3.901   3.741
10879TIP3   OH232579   4.468   6.953   5.058
10879TIP3    H132580   4.421   6.923   5.136
10879TIP3    H232581   4.424   7.035   5.035
10880TIP3   OH232582   6.242   1.367   3.011
10880TIP3    H132583   6.300   1.339   3.082
10880TIP3    H232584   6.251   1.462   3.010
10881TIP3   OH232585   7.929   3.403   4.521
10881TIP3    H132586   7.854   3.419   4.465
10881TIP3    H232587   7.904   3.328   4.575
10882TIP3   OH232588   2.715   0.824   4.188
10882TIP3    H132589   2.806   0.835   4.159
10882TIP3    H232590   2.703   0.729   4.191
10883TIP3   OH232591   1.430   6.011   0.159
10883TIP3    H132592   1.344   6.053   0.161
10883TIP3    H232593   1.411   5.917   0.157
10884TIP3   OH232594   7.614   7.324   4.293
10884TIP3    H132595   7.580   7.379   4.223
10884TIP3    H232596   7.623   7.383   4.368
10885TIP3   OH232597   7.117   0.991   4.841
10885TIP3    H132598   7.128   0.979   4.747
10885TIP3    H232599   7.088   1.082   4.851
10886TIP3   OH232600   0.244   3.948   5.614
10886TIP3    H132601   0.163   3.998   5.620
10886TIP3    H232602   0.276   3.944   5.705
10887TIP3   OH232603   3.662   2.556   4.513
10887TIP3    H132604   3.747   2.523   4.484
10887TIP3    H232605   3.682   2.638   4.558
10888TIP3   OH232606   3.572   3.818   4.992
10888TIP3    H132607   3.477   3.811   4.988
10888TIP3    H232608   3.602   3.784   4.907
10889TIP3   OH232609   1.589   7.594   3.142
10889TIP3    H132610   1.519   7.577   3.205
10889TIP3    H232611   1.617   7.507   3.113
10890TIP3   OH232612   5.366   6.163   2.589
10890TIP3    H132613   5.416   6.234   2.547
10890TIP3    H232614   5.317   6.206   2.659
10891TIP3   OH232615   1.139   3.274   5.085
10891TIP3    H132616   1.130   3.329   5.162
10891TIP3    H232617   1.208   3.317   5.033
10892TIP3   OH232618   0.376   2.450   1.912
10892TIP3    H132619   0.349   2.362   1.939
10892TIP3    H232620   0.468   2.456   1.940
10893TIP3   OH232621   0.982   5.894   6.341
10893TIP3    H132622   0.938   5.936   6.415
10893TIP3    H232623   1.074   5.890   6.368
10894TIP3   OH232624   1.398   0.387   2.088
10894TIP3    H132625   1.437   0.473   2.102
10894TIP3    H232626   1.368   0.359   2.174
10895TIP3   OH232627   3.859   5.469   1.715
10895TIP3    H132628   3.861   5.463   1.620
10895TIP3    H232629   3.877   5.379   1.745
10896TIP3   OH232630   4.629   7.187   2.111
10896TIP3    H132631   4.541   7.160   2.138
10896TIP3    H232632   4.654   7.123   2.044
10897TIP3   OH232633   7.335   3.021   4.311
10897TIP3    H132634   7.324   3.106   4.354
10897TIP3    H232635   7.315   2.957   4.379
10898TIP3   OH232636   6.613   6.818   2.140
10898TIP3    H132637   6.548   6.845   2.204
10898TIP3    H232638   6.696   6.817   2.188
10899TIP3   OH232639   6.419   0.529   0.209
10899TIP3    H132640   6.391   0.448   0.251
10899TIP3    H232641   6.398   0.517   0.116
10900TIP3   OH232642   1.720   6.241   4.661
10900TIP3    H132643   1.681   6.288   4.735
10900TIP3    H232644   1.651   6.184   4.629
10901TIP3   OH232645   2.891   1.814   1.364
10901TIP3    H132646   2.899   1.795   1.458
10901TIP3    H232647   2.957   1.881   1.348
10902TIP3   OH232648   2.260   7.030   0.747
10902TIP3    H132649   2.249   7.030   0.842
10902TIP3    H232650   2.184   7.078   0.714
10903TIP3   OH232651   4.733   3.103   1.033
10903TIP3    H132652   4.705   3.024   1.080
10903TIP3    H232653   4.826   3.111   1.053
10904TIP3   OH232654   1.578   1.601   2.773
10904TIP3    H132655   1.627   1.583   2.692
10904TIP3    H232656   1.563   1.516   2.812
10905TIP3   OH232657   2.279   0.270   1.812
10905TIP3    H132658   2.279   0.361   1.782
10905TIP3    H232659   2.285   0.277   1.907
10906TIP3   OH232660   3.298   7.558   3.468
10906TIP3    H132661   3.391   7.580   3.474
10906TIP3    H232662   3.293   7.497   3.394
10907TIP3   OH232663   1.536   5.308   1.536
10907TIP3    H132664   1.540   5.266   1.622
10907TIP3    H232665   1.598   5.259   1.482
10908TIP3   OH232666   0.232   2.700   4.773
10908TIP3    H132667   0.281   2.675   4.850
10908TIP3    H232668   0.263   2.642   4.704
10909TIP3   OH232669   3.200   5.748   0.602
10909TIP3    H132670   3.196   5.659   0.566
10909TIP3    H232671   3.236   5.801   0.531
10910TIP3   OH232672   3.535   5.698   3.057
10910TIP3    H132673   3.616   5.739   3.085
10910TIP3    H232674   3.560   5.642   2.984
10911TIP3   OH232675   1.401   0.340   3.650
10911TIP3    H132676   1.489   0.371   3.626
10911TIP3    H232677   1.417   0.263   3.704
10912TIP3   OH232678   4.018   2.067   5.781
10912TIP3    H132679   4.102   2.021   5.781
10912TIP3    H232680   3.954   2.000   5.757
10913TIP3   OH232681   7.186   4.113   2.353
10913TIP3    H132682   7.202   4.183   2.289
10913TIP3    H232683   7.193   4.032   2.302
10914TIP3   OH232684   4.882   5.670   4.343
10914TIP3    H132685   4.912   5.729   4.411
10914TIP3    H232686   4.787   5.673   4.348
10915TIP3   OH232687   7.054   7.540   4.252
10915TIP3    H132688   7.031   7.459   4.207
10915TIP3    H232689   6.996   7.606   4.215
10916TIP3   OH232690   6.480   4.231   0.348
10916TIP3    H132691   6.570   4.202   0.338
10916TIP3    H232692   6.487   4.319   0.385
10917TIP3   OH232693   5.722   4.485   4.153
10917TIP3    H132694   5.782   4.480   4.078
10917TIP3    H232695   5.749   4.412   4.209
10918TIP3   OH232696   4.594   2.887   6.299
10918TIP3    H132697   4.633   2.861   6.216
10918TIP3    H232698   4.520   2.826   6.310
10919TIP3   OH232699   3.732   4.917   3.331
10919TIP3    H132700   3.668   4.860   3.374
10919TIP3    H232701   3.730   4.998   3.383
10920TIP3   OH232702   1.421   6.372   3.418
10920TIP3    H132703   1.392   6.414   3.499
10920TIP3    H232704   1.339   6.350   3.373
10921TIP3   OH232705   7.547   3.473   6.268
10921TIP3    H132706   7.617   3.523   6.309
10921TIP3    H232707   7.467   3.508   6.306
10922TIP3   OH232708   0.950   1.245   2.513
10922TIP3    H132709   0.858   1.269   2.527
10922TIP3    H232710   0.988   1.320   2.468
10923TIP3   OH232711   1.434   3.565   0.252
10923TIP3    H132712   1.520   3.599   0.228
10923TIP3    H232713   1.390   3.548   0.169
10924TIP3   OH232714   5.785   3.731   4.994
10924TIP3    H132715   5.715   3.690   4.944
10924TIP3    H232716   5.755   3.821   5.010
10925TIP3   OH232717   3.485   5.159   4.909
10925TIP3    H132718   3.540   5.175   4.986
10925TIP3    H232719   3.544   5.120   4.845
10926TIP3   OH232720   2.884   5.442   4.124
10926TIP3    H132721   2.977   5.463   4.111
10926TIP3    H232722   2.867   5.468   4.215
10927TIP3   OH232723   1.044   1.103   6.339
10927TIP3    H132724   1.119   1.137   6.387
10927TIP3    H232725   1.077   1.085   6.251
10928TIP3   OH232726   6.974   3.273   5.610
10928TIP3    H132727   7.043   3.230   5.660
10928TIP3    H232728   7.021   3.327   5.546
10929TIP3   OH232729   2.140   7.815   0.387
10929TIP3    H132730   2.121   7.756   0.460
10929TIP3    H232731   2.096   7.775   0.312
10930TIP3   OH232732   1.293   5.373   3.797
10930TIP3    H132733   1.330   5.409   3.717
10930TIP3    H232734   1.212   5.330   3.770
10931TIP3   OH232735   5.182   2.770   4.741
10931TIP3    H132736   5.272   2.799   4.756
10931TIP3    H232737   5.191   2.698   4.677
10932TIP3   OH232738   2.443   1.895   5.376
10932TIP3    H132739   2.463   1.985   5.404
10932TIP3    H232740   2.389   1.860   5.447
10933TIP3   OH232741   3.606   7.453   0.440
10933TIP3    H132742   3.664   7.484   0.509
10933TIP3    H232743   3.522   7.495   0.459
10934TIP3   OH232744   6.821   1.035   6.591
10934TIP3    H132745   6.833   0.952   6.545
10934TIP3    H232746   6.843   1.102   6.526
10935TIP3   OH232747   2.665   1.274   4.169
10935TIP3    H132748   2.632   1.197   4.216
10935TIP3    H232749   2.760   1.265   4.172
10936TIP3   OH232750   5.755   3.008   3.316
10936TIP3    H132751   5.755   3.054   3.232
10936TIP3    H232752   5.748   3.078   3.381
10937TIP3   OH232753   6.638   6.960   3.999
10937TIP3    H132754   6.566   6.924   4.049
10937TIP3    H232755   6.635   6.913   3.915
10938TIP3   OH232756   2.162   4.051   0.318
10938TIP3    H132757   2.126   4.135   0.345
10938TIP3    H232758   2.257   4.059   0.331
10939TIP3   OH232759   4.571   6.640   2.810
10939TIP3    H132760   4.644   6.703   2.806
10939TIP3    H232761   4.530   6.646   2.723
10940TIP3   OH232762   4.297   3.508   5.350
10940TIP3    H132763   4.202   3.517   5.347
10940TIP3    H232764   4.320   3.466   5.267
10941TIP3   OH232765   5.769   4.505   1.369
10941TIP3    H132766   5.794   4.439   1.304
10941TIP3    H232767   5.841   4.568   1.368
10942TIP3   OH232768   4.659   7.256   5.085
10942TIP3    H132769   4.575   7.234   5.045
10942TIP3    H232770   4.636   7.308   5.162
10943TIP3   OH232771   4.434   1.989   6.332
10943TIP3    H132772   4.484   2.042   6.395
10943TIP3    H232773   4.343   2.011   6.350
10944TIP3   OH232774   4.534   2.538   1.833
10944TIP3    H132775   4.524   2.523   1.739
10944TIP3    H232776   4.444   2.543   1.866
10945TIP3   OH232777   7.683   2.654   1.936
10945TIP3    H132778   7.653   2.707   2.010
10945TIP3    H232779   7.776   2.638   1.954
10946TIP3   OH232780   1.598   0.476   6.040
10946TIP3    H132781   1.655   0.458   6.115
10946TIP3    H232782   1.614   0.569   6.020
10947TIP3   OH232783   7.172   4.749   2.474
10947TIP3    H132784   7.151   4.805   2.399
10947TIP3    H232785   7.121   4.786   2.547
10948TIP3   OH232786   2.182   3.759   3.704
10948TIP3    H132787   2.223   3.762   3.618
10948TIP3    H232788   2.089   3.743   3.685
10949TIP3   OH232789   5.734   1.565   4.496
10949TIP3    H132790   5.694   1.570   4.583
10949TIP3    H232791   5.735   1.471   4.476
10950TIP3   OH232792   7.440   1.748   3.946
10950TIP3    H132793   7.524   1.705   3.964
10950TIP3    H232794   7.446   1.833   3.990
10951TIP3   OH232795   6.316   7.052   0.847
10951TIP3    H132796   6.238   7.058   0.792
10951TIP3    H232797   6.283   7.024   0.932
10952TIP3   OH232798   7.938   2.276   0.840
10952TIP3    H132799   7.911   2.257   0.930
10952TIP3    H232800   7.903   2.363   0.822
10953TIP3   OH232801   5.276   4.192   1.709
10953TIP3    H132802   5.364   4.187   1.746
10953TIP3    H232803   5.264   4.110   1.662
10954TIP3   OH232804   4.349   6.525   1.791
10954TIP3    H132805   4.419   6.474   1.750
10954TIP3    H232806   4.356   6.506   1.884
10955TIP3   OH232807   5.543   5.887   6.556
10955TIP3    H132808   5.632   5.856   6.571
10955TIP3    H232809   5.544   5.978   6.585
10956TIP3   OH232810   4.811   5.062   5.107
10956TIP3    H132811   4.811   5.120   5.031
10956TIP3    H232812   4.736   5.005   5.093
10957TIP3   OH232813   6.772   3.346   0.197
10957TIP3    H132814   6.818   3.420   0.159
10957TIP3    H232815   6.770   3.281   0.127
10958TIP3   OH232816   7.268   2.081   3.847
10958TIP3    H132817   7.307   2.034   3.920
10958TIP3    H232818   7.258   2.015   3.778
10959TIP3   OH232819   5.832   6.883   4.387
10959TIP3    H132820   5.914   6.931   4.375
10959TIP3    H232821   5.859   6.796   4.417
10960TIP3   OH232822   6.907   4.816   3.342
10960TIP3    H132823   6.899   4.756   3.268
10960TIP3    H232824   6.830   4.873   3.335
10961TIP3   OH232825   7.794   7.800   4.741
10961TIP3    H132826   7.867   7.782   4.801
10961TIP3    H232827   7.772   7.714   4.705
10962TIP3   OH232828   5.563   3.085   1.370
10962TIP3    H132829   5.514   3.044   1.298
10962TIP3    H232830   5.607   3.012   1.413
10963TIP3   OH232831   5.962   1.199   5.495
10963TIP3    H132832   5.910   1.142   5.439
10963TIP3    H232833   5.919   1.194   5.581
10964TIP3   OH232834   6.643   2.290   2.366
10964TIP3    H132835   6.667   2.218   2.308
10964TIP3    H232836   6.586   2.249   2.432
10965TIP3   OH232837   2.331   3.194   3.567
10965TIP3    H132838   2.270   3.167   3.498
10965TIP3    H232839   2.383   3.264   3.528
10966TIP3   OH232840   5.607   1.241   2.108
10966TIP3    H132841   5.695   1.254   2.146
10966TIP3    H232842   5.553   1.216   2.183
10967TIP3   OH232843   6.671   4.624   3.265
10967TIP3    H132844   6.751   4.576   3.242
10967TIP3    H232845   6.633   4.648   3.181
10968TIP3   OH232846   5.808   6.948   5.982
10968TIP3    H132847   5.727   6.902   5.960
10968TIP3    H232848   5.875   6.905   5.928
10969TIP3   OH232849   7.754   2.782   3.721
10969TIP3    H132850   7.804   2.785   3.802
10969TIP3    H232851   7.810   2.735   3.659
10970TIP3   OH232852   3.939   4.998   2.278
10970TIP3    H132853   3.908   5.071   2.331
10970TIP3    H232854   3.869   4.983   2.214
10971TIP3   OH232855   2.973   0.856   4.076
10971TIP3    H132856   3.040   0.819   4.134
10971TIP3    H232857   3.022   0.907   4.012
10972TIP3   OH232858   1.227   1.334   3.042
10972TIP3    H132859   1.183   1.287   3.113
10972TIP3    H232860   1.181   1.417   3.036
10973TIP3   OH232861   3.762   0.623   2.926
10973TIP3    H132862   3.711   0.697   2.959
10973TIP3    H232863   3.831   0.664   2.873
10974TIP3   OH232864   6.239   2.042   0.243
10974TIP3    H132865   6.208   1.952   0.246
10974TIP3    H232866   6.335   2.034   0.250
10975TIP3   OH232867   2.646   6.393   5.307
10975TIP3    H132868   2.581   6.328   5.280
10975TIP3    H232869   2.618   6.474   5.265
10976TIP3   OH232870   5.901   5.306   5.861
10976TIP3    H132871   5.888   5.401   5.871
10976TIP3    H232872   5.970   5.299   5.795
10977TIP3   OH232873   1.749   3.308   1.397
10977TIP3    H132874   1.684   3.286   1.463
10977TIP3    H232875   1.725   3.257   1.320
10978TIP3   OH232876   2.301   3.563   5.637
10978TIP3    H132877   2.289   3.470   5.656
10978TIP3    H232878   2.371   3.590   5.696
10979TIP3   OH232879   4.586   1.428   6.447
10979TIP3    H132880   4.580   1.333   6.440
10979TIP3    H232881   4.495   1.457   6.451
10980TIP3   OH232882   7.493   2.587   6.541
10980TIP3    H132883   7.473   2.606   6.450
10980TIP3    H232884   7.492   2.672   6.585
10981TIP3   OH232885   5.075   0.944   1.666
10981TIP3    H132886   5.043   0.941   1.756
10981TIP3    H232887   5.012   1.000   1.620
10982TIP3   OH232888   0.087   2.832   2.236
10982TIP3    H132889   0.102   2.865   2.148
10982TIP3    H232890   0.085   2.909   2.291
10983TIP3   OH232891   5.149   3.160   0.103
10983TIP3    H132892   5.119   3.069   0.108
10983TIP3    H232893   5.105   3.195   0.026
10984TIP3   OH232894   6.467   7.023   2.510
10984TIP3    H132895   6.445   6.984   2.426
10984TIP3    H232896   6.561   7.006   2.520
10985TIP3   OH232897   3.977   5.581   2.653
10985TIP3    H132898   4.000   5.601   2.744
10985TIP3    H232899   3.948   5.489   2.655
10986TIP3   OH232900   0.248   3.551   3.715
10986TIP3    H132901   0.253   3.535   3.621
10986TIP3    H232902   0.211   3.471   3.751
10987TIP3   OH232903   6.238   5.371   5.156
10987TIP3    H132904   6.283   5.324   5.086
10987TIP3    H232905   6.149   5.334   5.156
10988TIP3   OH232906   6.633   5.525   2.368
10988TIP3    H132907   6.603   5.588   2.304
10988TIP3    H232908   6.646   5.444   2.318
10989TIP3   OH232909   0.002   5.823   3.821
10989TIP3    H132910   0.040   5.888   3.762
10989TIP3    H232911   0.068   5.811   3.890
10990TIP3   OH232912   7.322   1.162   1.313
10990TIP3    H132913   7.341   1.242   1.264
10990TIP3    H232914   7.380   1.165   1.389
10991TIP3   OH232915   5.172   6.526   6.091
10991TIP3    H132916   5.138   6.485   6.171
10991TIP3    H232917   5.093   6.546   6.039
10992TIP3   OH232918   1.886   7.479   4.444
10992TIP3    H132919   1.879   7.502   4.537
10992TIP3    H232920   1.852   7.555   4.397
10993TIP3   OH232921   4.303   4.650   5.664
10993TIP3    H132922   4.352   4.727   5.692
10993TIP3    H232923   4.228   4.646   5.723
10994TIP3   OH232924   3.817   6.413   2.386
10994TIP3    H132925   3.816   6.352   2.313
10994TIP3    H232926   3.803   6.359   2.463
10995TIP3   OH232927   3.626   3.358   0.192
10995TIP3    H132928   3.669   3.332   0.273
10995TIP3    H232929   3.696   3.392   0.137
10996TIP3   OH232930   6.377   1.903   2.603
10996TIP3    H132931   6.313   1.911   2.675
10996TIP3    H232932   6.384   1.808   2.589
10997TIP3   OH232933   6.334   0.663   0.536
10997TIP3    H132934   6.368   0.598   0.598
10997TIP3    H232935   6.304   0.735   0.591
10998TIP3   OH232936   1.801   0.057   1.755
10998TIP3    H132937   1.868   0.003   1.714
10998TIP3    H232938   1.833   0.073   1.844
10999TIP3   OH232939   7.574   4.863   2.646
10999TIP3    H132940   7.617   4.902   2.722
10999TIP3    H232941   7.602   4.772   2.647
11000TIP3   OH232942   1.963   5.465   0.320
11000TIP3    H132943   2.042   5.516   0.338
11000TIP3    H232944   1.988   5.407   0.248
11001TIP3   OH232945   3.027   0.976   1.837
11001TIP3    H132946   3.100   0.995   1.895
11001TIP3    H232947   3.067   0.934   1.761
11002TIP3   OH232948   1.729   0.674   6.393
11002TIP3    H132949   1.673   0.751   6.402
11002TIP3    H232950   1.763   0.660   6.482
11003TIP3   OH232951   5.002   0.200   1.183
11003TIP3    H132952   5.022   0.128   1.243
11003TIP3    H232953   5.020   0.166   1.096
11004TIP3   OH232954   7.473   5.352   5.859
11004TIP3    H132955   7.424   5.434   5.867
11004TIP3    H232956   7.429   5.293   5.921
11005TIP3   OH232957   2.108   1.743   0.231
11005TIP3    H132958   2.022   1.741   0.188
11005TIP3    H232959   2.134   1.835   0.227
11006TIP3   OH232960   8.021   1.491   0.105
11006TIP3    H132961   8.051   1.407   0.070
11006TIP3    H232962   7.997   1.472   0.196
11007TIP3   OH232963   4.082   5.830   2.292
11007TIP3    H132964   4.030   5.796   2.365
11007TIP3    H232965   4.139   5.895   2.331
11008TIP3   OH232966   2.078   5.093   5.929
11008TIP3    H132967   2.155   5.092   5.871
11008TIP3    H232968   2.114   5.088   6.017
11009TIP3   OH232969   3.270   3.108   5.144
11009TIP3    H132970   3.337   3.087   5.209
11009TIP3    H232971   3.189   3.115   5.195
11010TIP3   OH232972   1.634   2.578   5.535
11010TIP3    H132973   1.629   2.651   5.473
11010TIP3    H232974   1.581   2.607   5.610
11011TIP3   OH232975   8.154   2.287   4.518
11011TIP3    H132976   8.059   2.277   4.515
11011TIP3    H232977   8.171   2.373   4.479
11012TIP3   OH232978   7.705   1.978   2.098
11012TIP3    H132979   7.742   1.994   2.011
11012TIP3    H232980   7.656   1.896   2.088
11013TIP3   OH232981   6.828   6.134   1.801
11013TIP3    H132982   6.815   6.150   1.707
11013TIP3    H232983   6.769   6.061   1.821
11014TIP3   OH232984   2.328   2.461   5.868
11014TIP3    H132985   2.349   2.502   5.952
11014TIP3    H232986   2.255   2.512   5.834
11015TIP3   OH232987   3.442   7.563   0.061
11015TIP3    H132988   3.491   7.511   0.124
11015TIP3    H232989   3.355   7.572   0.100
11016TIP3   OH232990   0.937   7.774   0.036
11016TIP3    H132991   0.917   7.683   0.015
11016TIP3    H232992   0.872   7.824  -0.013
11017TIP3   OH232993   5.926   1.259   5.771
11017TIP3    H132994   5.956   1.179   5.814
11017TIP3    H232995   6.005   1.313   5.763
11018TIP3   OH232996   0.443   2.739   5.962
11018TIP3    H132997   0.374   2.673   5.968
11018TIP3    H232998   0.424   2.801   6.032
11019TIP3   OH232999   3.235   4.137   5.523
11019TIP3    H133000   3.277   4.187   5.453
11019TIP3    H233001   3.307   4.101   5.574
11020TIP3   OH233002   5.041   5.141   4.798
11020TIP3    H133003   5.080   5.130   4.711
11020TIP3    H233004   5.092   5.210   4.840
11021TIP3   OH233005   7.494   5.573   2.758
11021TIP3    H133006   7.519   5.587   2.850
11021TIP3    H233007   7.531   5.488   2.736
11022TIP3   OH233008   4.628   2.098   5.077
11022TIP3    H133009   4.590   2.143   5.002
11022TIP3    H233010   4.570   2.119   5.151
11023TIP3   OH233011   0.566   6.250   1.072
11023TIP3    H133012   0.566   6.156   1.094
11023TIP3    H233013   0.625   6.289   1.136
11024TIP3   OH233014   6.837   5.228   2.953
11024TIP3    H133015   6.848   5.314   2.912
11024TIP3    H233016   6.820   5.168   2.880
11025TIP3   OH233017   5.077   5.166   4.002
11025TIP3    H133018   5.093   5.081   3.961
11025TIP3    H233019   4.985   5.184   3.983
11026TIP3   OH233020   0.445   6.088   0.717
11026TIP3    H133021   0.495   6.162   0.684
11026TIP3    H233022   0.354   6.109   0.698
11027TIP3   OH233023   2.320   5.783   4.838
11027TIP3    H133024   2.365   5.813   4.917
11027TIP3    H233025   2.246   5.844   4.828
11028TIP3   OH233026   4.823   0.002   3.336
11028TIP3    H133027   4.770   0.080   3.321
11028TIP3    H233028   4.759  -0.070   3.340
11029TIP3   OH233029   3.139   5.929   3.576
11029TIP3    H133030   3.154   6.024   3.579
11029TIP3    H233031   3.183   5.901   3.496
11030TIP3   OH233032   1.365   7.652   5.504
11030TIP3    H133033   1.380   7.687   5.416
11030TIP3    H233034   1.272   7.666   5.520
11031TIP3   OH233035   2.600   6.091   3.644
11031TIP3    H133036   2.623   6.113   3.553
11031TIP3    H233037   2.652   6.151   3.697
11032TIP3   OH233038   3.569   4.791   2.239
11032TIP3    H133039   3.487   4.833   2.263
11032TIP3    H233040   3.552   4.698   2.246
11033TIP3   OH233041   7.680   5.493   0.304
11033TIP3    H133042   7.653   5.505   0.395
11033TIP3    H233043   7.633   5.415   0.275
11034TIP3   OH233044   2.826   3.676   2.012
11034TIP3    H133045   2.791   3.746   1.958
11034TIP3    H233046   2.776   3.680   2.094
11035TIP3   OH233047   0.353   2.076   0.802
11035TIP3    H133048   0.422   2.117   0.750
11035TIP3    H233049   0.385   2.081   0.892
11036TIP3   OH233050   2.506   4.645   3.789
11036TIP3    H133051   2.456   4.718   3.826
11036TIP3    H233052   2.517   4.584   3.862
11037TIP3   OH233053   2.502   5.187   1.713
11037TIP3    H133054   2.448   5.255   1.673
11037TIP3    H233055   2.577   5.178   1.655
11038TIP3   OH233056   4.492   1.611   3.560
11038TIP3    H133057   4.548   1.646   3.491
11038TIP3    H233058   4.446   1.687   3.594
11039TIP3   OH233059   6.625   5.059   5.381
11039TIP3    H133060   6.712   5.089   5.409
11039TIP3    H233061   6.570   5.068   5.458
11040TIP3   OH233062   2.659   7.702   3.054
11040TIP3    H133063   2.621   7.787   3.034
11040TIP3    H233064   2.712   7.681   2.977
11041TIP3   OH233065   8.154   5.741   0.654
11041TIP3    H133066   8.224   5.705   0.709
11041TIP3    H233067   8.149   5.682   0.579
11042TIP3   OH233068   0.944   1.663   4.011
11042TIP3    H133069   0.885   1.632   3.942
11042TIP3    H233070   0.980   1.583   4.049
11043TIP3   OH233071   0.576   6.641   6.000
11043TIP3    H133072   0.481   6.641   6.015
11043TIP3    H233073   0.603   6.551   6.017
11044TIP3   OH233074   5.987   6.608   6.546
11044TIP3    H133075   5.930   6.532   6.540
11044TIP3    H233076   5.940   6.670   6.603
11045TIP3   OH233077   4.506   3.470   3.438
11045TIP3    H133078   4.556   3.419   3.375
11045TIP3    H233079   4.566   3.481   3.512
11046TIP3   OH233080   3.016   4.385   4.632
11046TIP3    H133081   2.939   4.382   4.575
11046TIP3    H233082   3.019   4.300   4.674
11047TIP3   OH233083   2.687   4.262   4.777
11047TIP3    H133084   2.599   4.276   4.740
11047TIP3    H233085   2.713   4.349   4.808
11048TIP3   OH233086   6.875   4.026   2.577
11048TIP3    H133087   6.788   4.000   2.608
11048TIP3    H233088   6.857   4.090   2.508
11049TIP3   OH233089   6.796   4.328   1.606
11049TIP3    H133090   6.863   4.263   1.626
11049TIP3    H233091   6.742   4.288   1.538
11050TIP3   OH233092   3.841   6.284   2.972
11050TIP3    H133093   3.932   6.279   2.942
11050TIP3    H233094   3.796   6.217   2.921
11051TIP3   OH233095   4.677   7.400   4.430
11051TIP3    H133096   4.687   7.308   4.406
11051TIP3    H233097   4.702   7.403   4.522
11052TIP3   OH233098   1.574   3.361   2.209
11052TIP3    H133099   1.533   3.280   2.180
11052TIP3    H233100   1.519   3.431   2.172
11053TIP3   OH233101   0.136   2.412   0.686
11053TIP3    H133102   0.106   2.359   0.760
11053TIP3    H233103   0.067   2.476   0.673
11054TIP3   OH233104   0.249   3.922   1.479
11054TIP3    H133105   0.247   3.921   1.575
11054TIP3    H233106   0.165   3.961   1.454
11055TIP3   OH233107   2.430   1.629   1.111
11055TIP3    H133108   2.428   1.661   1.201
11055TIP3    H233109   2.517   1.589   1.101
11056TIP3   OH233110   7.671   1.806   6.182
11056TIP3    H133111   7.717   1.833   6.102
11056TIP3    H233112   7.585   1.778   6.152
11057TIP3   OH233113   2.286   0.078   2.917
11057TIP3    H133114   2.271   0.026   2.996
11057TIP3    H233115   2.378   0.065   2.896
11058TIP3   OH233116   0.941   5.644   5.125
11058TIP3    H133117   0.979   5.557   5.116
11058TIP3    H233118   0.851   5.634   5.094
11059TIP3   OH233119   2.424   6.509   3.275
11059TIP3    H133120   2.412   6.533   3.183
11059TIP3    H233121   2.343   6.465   3.300
11060TIP3   OH233122   5.599   6.898   4.867
11060TIP3    H133123   5.567   6.820   4.912
11060TIP3    H233124   5.551   6.971   4.907
11061TIP3   OH233125   1.334   0.566   4.263
11061TIP3    H133126   1.353   0.656   4.240
11061TIP3    H233127   1.284   0.532   4.189
11062TIP3   OH233128   7.260   5.349   3.966
11062TIP3    H133129   7.280   5.442   3.955
11062TIP3    H233130   7.193   5.331   3.900
11063TIP3   OH233131   1.804   4.182   3.270
11063TIP3    H133132   1.780   4.157   3.180
11063TIP3    H233133   1.871   4.249   3.258
11064TIP3   OH233134   4.883   2.454   1.791
11064TIP3    H133135   4.864   2.525   1.853
11064TIP3    H233136   4.900   2.378   1.846
11065TIP3   OH233137   5.667   4.239   1.068
11065TIP3    H133138   5.693   4.189   1.145
11065TIP3    H233139   5.748   4.251   1.019
11066TIP3   OH233140   7.602   0.081   2.802
11066TIP3    H133141   7.568   0.017   2.739
11066TIP3    H233142   7.681   0.040   2.836
11067TIP3   OH233143   2.754   5.494   5.017
11067TIP3    H133144   2.724   5.419   4.966
11067TIP3    H233145   2.837   5.520   4.977
11068TIP3   OH233146   1.204   2.529   6.624
11068TIP3    H133147   1.165   2.521   6.537
11068TIP3    H233148   1.263   2.604   6.617
11069TIP3   OH233149   7.857   4.455   5.515
11069TIP3    H133150   7.932   4.396   5.511
11069TIP3    H233151   7.872   4.509   5.592
11070TIP3   OH233152   4.765   4.981   3.611
11070TIP3    H133153   4.718   5.056   3.647
11070TIP3    H233154   4.697   4.929   3.568
11071TIP3   OH233155   0.813   1.407   5.423
11071TIP3    H133156   0.746   1.389   5.490
11071TIP3    H233157   0.769   1.465   5.361
11072TIP3   OH233158   4.668   1.048   5.508
11072TIP3    H133159   4.735   1.083   5.448
11072TIP3    H233160   4.718   1.004   5.576
11073TIP3   OH233161   7.041   0.848   2.104
11073TIP3    H133162   7.021   0.833   2.197
11073TIP3    H233163   6.995   0.929   2.083
11074TIP3   OH233164   1.768   7.807   4.628
11074TIP3    H133165   1.719   7.851   4.698
11074TIP3    H233166   1.775   7.716   4.656
11075TIP3   OH233167   1.709   7.485   1.507
11075TIP3    H133168   1.696   7.441   1.591
11075TIP3    H233169   1.734   7.574   1.530
11076TIP3   OH233170   6.122   5.467   3.338
11076TIP3    H133171   6.166   5.392   3.377
11076TIP3    H233172   6.187   5.537   3.341
11077TIP3   OH233173   0.718   5.339   3.994
11077TIP3    H133174   0.804   5.332   3.952
11077TIP3    H233175   0.655   5.317   3.926
11078TIP3   OH233176   0.440   5.623   6.612
11078TIP3    H133177   0.424   5.565   6.538
11078TIP3    H233178   0.493   5.694   6.576
11079TIP3   OH233179   3.414   3.135   0.194
11079TIP3    H133180   3.455   3.221   0.191
11079TIP3    H233181   3.431   3.097   0.108
11080TIP3   OH233182   0.370   4.375   0.375
11080TIP3    H133183   0.405   4.421   0.451
11080TIP3    H233184   0.369   4.441   0.305
11081TIP3   OH233185   5.333   2.559   1.441
11081TIP3    H133186   5.265   2.493   1.461
11081TIP3    H233187   5.381   2.521   1.368
11082TIP3   OH233188   3.283   6.615   6.677
11082TIP3    H133189   3.266   6.600   6.584
11082TIP3    H233190   3.263   6.707   6.690
11083TIP3   OH233191   1.363   4.487   6.638
11083TIP3    H133192   1.307   4.427   6.588
11083TIP3    H233193   1.449   4.476   6.599
11084TIP3   OH233194   2.855   4.939   6.130
11084TIP3    H133195   2.843   5.025   6.090
11084TIP3    H233196   2.790   4.884   6.087
11085TIP3   OH233197   1.247   2.602   5.043
11085TIP3    H133198   1.206   2.646   5.117
11085TIP3    H233199   1.283   2.673   4.990
11086TIP3   OH233200   5.570   0.290   1.229
11086TIP3    H133201   5.646   0.238   1.202
11086TIP3    H233202   5.604   0.346   1.300
11087TIP3   OH233203   4.637   3.136   0.183
11087TIP3    H133204   4.643   3.117   0.089
11087TIP3    H233205   4.704   3.081   0.222
11088TIP3   OH233206   1.062   6.148   0.662
11088TIP3    H133207   1.042   6.092   0.737
11088TIP3    H233208   0.980   6.192   0.643
11089TIP3   OH233209   0.054   2.052   4.857
11089TIP3    H133210   0.015   2.029   4.942
11089TIP3    H233211   0.145   2.025   4.864
11090TIP3   OH233212   0.036   5.638   0.831
11090TIP3    H133213   0.063   5.574   0.897
11090TIP3    H233214   0.119   5.677   0.802
11091TIP3   OH233215   3.206   1.546   1.444
11091TIP3    H133216   3.212   1.620   1.505
11091TIP3    H233217   3.141   1.574   1.379
11092TIP3   OH233218   3.212   5.245   0.398
11092TIP3    H133219   3.120   5.220   0.395
11092TIP3    H233220   3.247   5.216   0.313
11093TIP3   OH233221   0.715   6.634   3.202
11093TIP3    H133222   0.798   6.644   3.156
11093TIP3    H233223   0.664   6.575   3.146
11094TIP3   OH233224   6.167   4.611   1.489
11094TIP3    H133225   6.157   4.660   1.407
11094TIP3    H233226   6.116   4.660   1.553
11095TIP3   OH233227   0.386   1.299   3.737
11095TIP3    H133228   0.444   1.284   3.662
11095TIP3    H233229   0.423   1.376   3.780
11096TIP3   OH233230   5.501   6.451   5.127
11096TIP3    H133231   5.565   6.387   5.095
11096TIP3    H233232   5.443   6.401   5.184
11097TIP3   OH233233   4.709   7.281   0.646
11097TIP3    H133234   4.650   7.236   0.707
11097TIP3    H233235   4.651   7.322   0.582
11098TIP3   OH233236   2.310   6.877   3.306
11098TIP3    H133237   2.279   6.816   3.239
11098TIP3    H233238   2.365   6.823   3.363
11099TIP3   OH233239   0.751   2.566   6.374
11099TIP3    H133240   0.717   2.484   6.411
11099TIP3    H233241   0.752   2.551   6.280
11100TIP3   OH233242   6.459   3.764   2.648
11100TIP3    H133243   6.402   3.700   2.606
11100TIP3    H233244   6.547   3.735   2.627
11101TIP3   OH233245   6.148   1.793   6.320
11101TIP3    H133246   6.134   1.812   6.413
11101TIP3    H233247   6.217   1.727   6.319
11102TIP3   OH233248   4.348   1.817   3.227
11102TIP3    H133249   4.300   1.787   3.304
11102TIP3    H233250   4.436   1.779   3.237
11103TIP3   OH233251   2.932   1.657   2.039
11103TIP3    H133252   2.878   1.600   1.985
11103TIP3    H233253   2.918   1.627   2.129
11104TIP3   OH233254   2.445   4.625   4.410
11104TIP3    H133255   2.362   4.634   4.457
11104TIP3    H233256   2.420   4.613   4.318
11105TIP3   OH233257   7.549   4.350   0.935
11105TIP3    H133258   7.644   4.354   0.948
11105TIP3    H233259   7.518   4.439   0.949
11106TIP3   OH233260   5.398   7.375   0.101
11106TIP3    H133261   5.397   7.400   0.009
11106TIP3    H233262   5.434   7.452   0.146
11107TIP3   OH233263   8.157   7.694   3.312
11107TIP3    H133264   8.185   7.653   3.394
11107TIP3    H233265   8.237   7.735   3.278
11108TIP3   OH233266   1.360   7.389   1.410
11108TIP3    H133267   1.334   7.385   1.318
11108TIP3    H233268   1.448   7.351   1.411
11109TIP3   OH233269   7.152   6.684   3.422
11109TIP3    H133270   7.169   6.747   3.352
11109TIP3    H233271   7.069   6.711   3.460
11110TIP3   OH233272   5.005   5.396   0.686
11110TIP3    H133273   5.096   5.403   0.714
11110TIP3    H233274   5.010   5.382   0.592
11111TIP3   OH233275   3.130   3.881   4.860
11111TIP3    H133276   3.131   3.967   4.816
11111TIP3    H233277   3.088   3.823   4.797
11112TIP3   OH233278   2.736   2.368   3.902
11112TIP3    H133279   2.819   2.335   3.937
11112TIP3    H233280   2.695   2.292   3.861
11113TIP3   OH233281   4.480   4.722   2.247
11113TIP3    H133282   4.550   4.674   2.204
11113TIP3    H233283   4.524   4.788   2.300
11114TIP3   OH233284   0.723   7.013   4.603
11114TIP3    H133285   0.788   7.082   4.619
11114TIP3    H233286   0.639   7.053   4.628
11115TIP3   OH233287   6.096   4.182   4.505
11115TIP3    H133288   6.064   4.265   4.471
11115TIP3    H233289   6.182   4.202   4.542
11116TIP3   OH233290   6.172   5.124   0.740
11116TIP3    H133291   6.083   5.108   0.711
11116TIP3    H233292   6.166   5.200   0.797
11117TIP3   OH233293   2.767   5.031   0.312
11117TIP3    H133294   2.751   4.936   0.312
11117TIP3    H233295   2.680   5.070   0.314
11118TIP3   OH233296   0.405   4.814   3.275
11118TIP3    H133297   0.455   4.779   3.348
11118TIP3    H233298   0.361   4.738   3.237
11119TIP3   OH233299   2.356   1.729   6.519
11119TIP3    H133300   2.287   1.735   6.453
11119TIP3    H233301   2.311   1.746   6.602
11120TIP3   OH233302   3.884   3.387   0.066
11120TIP3    H133303   3.927   3.326   0.126
11120TIP3    H233304   3.864   3.335  -0.011
11121TIP3   OH233305   1.615   4.733   6.736
11121TIP3    H133306   1.577   4.801   6.681
11121TIP3    H233307   1.684   4.694   6.682
11122TIP3   OH233308   2.840   1.904   2.689
11122TIP3    H133309   2.887   1.828   2.725
11122TIP3    H233310   2.878   1.979   2.735
11123TIP3   OH233311   3.324   1.515   1.152
11123TIP3    H133312   3.267   1.502   1.227
11123TIP3    H233313   3.360   1.428   1.134
11124TIP3   OH233314   4.012   1.881   0.205
11124TIP3    H133315   3.943   1.941   0.174
11124TIP3    H233316   4.084   1.939   0.230
11125TIP3   OH233317   4.519   6.247   1.195
11125TIP3    H133318   4.560   6.333   1.185
11125TIP3    H233319   4.465   6.255   1.274
11126TIP3   OH233320   5.995   5.938   4.981
11126TIP3    H133321   6.083   5.971   4.965
11126TIP3    H233322   5.986   5.862   4.924
11127TIP3   OH233323   1.252   0.915   2.091
11127TIP3    H133324   1.312   0.909   2.017
11127TIP3    H233325   1.310   0.927   2.167
11128TIP3   OH233326   4.744   4.927   5.947
11128TIP3    H133327   4.662   4.922   5.899
11128TIP3    H233328   4.810   4.947   5.880
11129TIP3   OH233329   3.533   1.345   3.148
11129TIP3    H133330   3.497   1.257   3.156
11129TIP3    H233331   3.624   1.337   3.176
11130TIP3   OH233332   3.902   1.408   1.404
11130TIP3    H133333   3.954   1.486   1.424
11130TIP3    H233334   3.815   1.442   1.385
11131TIP3   OH233335   2.595   1.452   1.498
11131TIP3    H133336   2.610   1.367   1.457
11131TIP3    H233337   2.681   1.478   1.532
11132TIP3   OH233338   2.193   2.497   4.036
11132TIP3    H133339   2.198   2.476   3.943
11132TIP3    H233340   2.206   2.592   4.040
11133TIP3   OH233341   7.542   2.391   2.099
11133TIP3    H133342   7.587   2.392   2.183
11133TIP3    H233343   7.590   2.455   2.046
11134TIP3   OH233344   5.743   6.155   5.461
11134TIP3    H133345   5.664   6.203   5.486
11134TIP3    H233346   5.782   6.206   5.390
11135TIP3   OH233347   2.337   4.509   0.187
11135TIP3    H133348   2.376   4.491   0.272
11135TIP3    H233349   2.411   4.505   0.126
11136TIP3   OH233350   1.397   5.033   3.997
11136TIP3    H133351   1.471   5.094   3.995
11136TIP3    H233352   1.413   4.978   4.074
11137TIP3   OH233353   2.006   4.975   5.557
11137TIP3    H133354   2.024   4.907   5.622
11137TIP3    H233355   2.092   5.005   5.529
11138TIP3   OH233356   7.066   2.541   3.353
11138TIP3    H133357   7.011   2.491   3.291
11138TIP3    H233358   7.119   2.597   3.298
11139TIP3   OH233359   2.175   4.381   0.588
11139TIP3    H133360   2.114   4.427   0.531
11139TIP3    H233361   2.143   4.291   0.591
11140TIP3   OH233362   0.580   2.945   4.046
11140TIP3    H133363   0.543   2.982   3.965
11140TIP3    H233364   0.660   2.901   4.018
11141TIP3   OH233365   0.315   2.207   3.136
11141TIP3    H133366   0.408   2.217   3.116
11141TIP3    H233367   0.287   2.293   3.165
11142TIP3   OH233368   0.947   2.160   1.193
11142TIP3    H133369   0.895   2.123   1.264
11142TIP3    H233370   0.939   2.255   1.204
11143TIP3   OH233371   5.932   3.502   1.116
11143TIP3    H133372   5.947   3.564   1.187
11143TIP3    H233373   5.892   3.426   1.157
11144TIP3   OH233374   2.921   3.007   4.959
11144TIP3    H133375   2.884   3.047   4.880
11144TIP3    H233376   2.932   3.079   5.020
11145TIP3   OH233377   7.607   1.501   3.219
11145TIP3    H133378   7.633   1.537   3.304
11145TIP3    H233379   7.552   1.426   3.241
11146TIP3   OH233380   3.215   6.191   4.985
11146TIP3    H133381   3.260   6.107   4.990
11146TIP3    H233382   3.141   6.183   5.045
11147TIP3   OH233383   5.297   4.136   5.004
11147TIP3    H133384   5.316   4.055   4.957
11147TIP3    H233385   5.382   4.180   5.012
11148TIP3   OH233386   2.795   4.773   3.972
11148TIP3    H133387   2.833   4.852   4.010
11148TIP3    H233388   2.815   4.778   3.879
11149TIP3   OH233389   5.245   2.450   4.890
11149TIP3    H133390   5.196   2.402   4.956
11149TIP3    H233391   5.334   2.458   4.925
11150TIP3   OH233392   0.762   6.359   1.896
11150TIP3    H133393   0.839   6.303   1.910
11150TIP3    H233394   0.785   6.414   1.822
11151TIP3   OH233395   7.361   6.550   2.846
11151TIP3    H133396   7.350   6.622   2.785
11151TIP3    H233397   7.300   6.483   2.814
11152TIP3   OH233398   5.011   5.531   5.887
11152TIP3    H133399   5.054   5.616   5.878
11152TIP3    H233400   5.075   5.468   5.853
11153TIP3   OH233401   7.584   2.518   2.876
11153TIP3    H133402   7.620   2.551   2.794
11153TIP3    H233403   7.543   2.594   2.917
11154TIP3   OH233404   4.145   0.067   4.329
11154TIP3    H133405   4.119   0.142   4.276
11154TIP3    H233406   4.142   0.098   4.419
11155TIP3   OH233407   0.587   5.788   3.266
11155TIP3    H133408   0.616   5.747   3.185
11155TIP3    H233409   0.558   5.716   3.322
11156TIP3   OH233410   5.440   4.950   0.819
11156TIP3    H133411   5.351   4.951   0.785
11156TIP3    H233412   5.444   4.870   0.871
11157TIP3   OH233413   2.092   7.537   2.197
11157TIP3    H133414   2.111   7.546   2.290
11157TIP3    H233415   2.009   7.582   2.185
11158TIP3   OH233416   7.805   6.482   0.804
11158TIP3    H133417   7.819   6.571   0.772
11158TIP3    H233418   7.883   6.434   0.775
11159TIP3   OH233419   1.039   6.504   3.205
11159TIP3    H133420   1.131   6.521   3.226
11159TIP3    H233421   1.019   6.566   3.135
11160TIP3   OH233422   1.049   4.744   3.360
11160TIP3    H133423   0.972   4.778   3.316
11160TIP3    H233424   1.020   4.725   3.449
11161TIP3   OH233425   2.938   4.147   4.732
11161TIP3    H133426   2.988   4.172   4.809
11161TIP3    H233427   2.849   4.177   4.751
11162TIP3   OH233428   3.846   4.152   6.227
11162TIP3    H133429   3.890   4.130   6.144
11162TIP3    H233430   3.903   4.217   6.268
11163TIP3   OH233431   0.791   2.969   2.844
11163TIP3    H133432   0.735   2.984   2.768
11163TIP3    H233433   0.859   3.036   2.838
11164TIP3   OH233434   2.945   3.393   1.200
11164TIP3    H133435   2.944   3.466   1.138
11164TIP3    H233436   2.863   3.347   1.184
11165TIP3   OH233437   0.387   6.136   3.308
11165TIP3    H133438   0.453   6.186   3.355
11165TIP3    H233439   0.304   6.167   3.343
11166TIP3   OH233440   2.404   5.703   3.904
11166TIP3    H133441   2.463   5.660   3.966
11166TIP3    H233442   2.462   5.742   3.839
11167TIP3   OH233443   4.181   0.135   1.090
11167TIP3    H133444   4.219   0.114   1.175
11167TIP3    H233445   4.096   0.093   1.089
11168TIP3   OH233446   5.968   3.470   0.508
11168TIP3    H133447   5.905   3.521   0.458
11168TIP3    H233448   5.965   3.383   0.470
11169TIP3   OH233449   5.530   1.077   1.031
11169TIP3    H133450   5.610   1.023   1.033
11169TIP3    H233451   5.501   1.073   0.940
11170TIP3   OH233452   0.612   7.051   2.066
11170TIP3    H133453   0.623   7.145   2.051
11170TIP3    H233454   0.518   7.036   2.058
11171TIP3   OH233455   3.849   5.182   0.641
11171TIP3    H133456   3.821   5.273   0.654
11171TIP3    H233457   3.770   5.130   0.655
11172TIP3   OH233458   1.880   7.322   1.369
11172TIP3    H133459   1.941   7.395   1.360
11172TIP3    H233460   1.809   7.355   1.423
11173TIP3   OH233461   4.104   0.904   3.707
11173TIP3    H133462   4.042   0.924   3.637
11173TIP3    H233463   4.175   0.966   3.694
11174TIP3   OH233464   7.033   3.123   3.618
11174TIP3    H133465   6.982   3.045   3.598
11174TIP3    H233466   7.094   3.132   3.545
11175TIP3   OH233467   2.464   6.247   5.152
11175TIP3    H133468   2.424   6.314   5.097
11175TIP3    H233469   2.528   6.204   5.095
11176TIP3   OH233470   7.233   6.012   1.785
11176TIP3    H133471   7.289   5.968   1.850
11176TIP3    H233472   7.166   6.055   1.837
11177TIP3   OH233473   2.933   3.597   1.029
11177TIP3    H133474   2.880   3.675   1.017
11177TIP3    H233475   3.017   3.629   1.062
11178TIP3   OH233476   0.214   4.449   1.258
11178TIP3    H133477   0.252   4.363   1.278
11178TIP3    H233478   0.120   4.432   1.248
11179TIP3   OH233479   4.793   0.172   6.307
11179TIP3    H133480   4.849   0.225   6.250
11179TIP3    H233481   4.719   0.147   6.252
11180TIP3   OH233482   0.485   3.424   2.815
11180TIP3    H133483   0.466   3.510   2.852
11180TIP3    H233484   0.478   3.364   2.889
11181TIP3   OH233485   3.105   6.549   3.751
11181TIP3    H133486   3.102   6.645   3.749
11181TIP3    H233487   3.074   6.522   3.665
11182TIP3   OH233488   5.117   5.328   4.213
11182TIP3    H133489   5.076   5.410   4.184
11182TIP3    H233490   5.117   5.272   4.135
11183TIP3   OH233491   2.235   1.387   6.609
11183TIP3    H133492   2.309   1.373   6.667
11183TIP3    H233493   2.274   1.416   6.526
11184TIP3   OH233494   2.805   7.068   1.140
11184TIP3    H133495   2.741   7.109   1.082
11184TIP3    H233496   2.780   6.975   1.141
11185TIP3   OH233497   4.485   4.999   2.055
11185TIP3    H133498   4.395   4.969   2.070
11185TIP3    H233499   4.478   5.094   2.046
11186TIP3   OH233500   5.365   3.432   1.443
11186TIP3    H133501   5.339   3.513   1.487
11186TIP3    H233502   5.361   3.365   1.512
11187TIP3   OH233503   5.215   6.881   6.512
11187TIP3    H133504   5.202   6.856   6.420
11187TIP3    H233505   5.239   6.800   6.556
11188TIP3   OH233506   3.265   5.766   1.968
11188TIP3    H133507   3.334   5.833   1.967
11188TIP3    H233508   3.185   5.815   1.985
11189TIP3   OH233509   1.345   5.508   4.952
11189TIP3    H133510   1.306   5.528   4.867
11189TIP3    H233511   1.427   5.464   4.930
11190TIP3   OH233512   0.420   0.208   1.626
11190TIP3    H133513   0.409   0.180   1.535
11190TIP3    H233514   0.486   0.278   1.621
11191TIP3   OH233515   3.314   6.529   4.143
11191TIP3    H133516   3.233   6.546   4.096
11191TIP3    H233517   3.360   6.464   4.090
11192TIP3   OH233518   1.456   0.906   5.936
11192TIP3    H133519   1.532   0.858   5.971
11192TIP3    H233520   1.381   0.852   5.959
11193TIP3   OH233521   2.389   6.785   2.776
11193TIP3    H133522   2.464   6.823   2.729
11193TIP3    H233523   2.344   6.732   2.710
11194TIP3   OH233524   0.827   1.859   2.520
11194TIP3    H133525   0.792   1.793   2.580
11194TIP3    H233526   0.813   1.942   2.564
11195TIP3   OH233527   7.651   2.340   0.358
11195TIP3    H133528   7.660   2.379   0.445
11195TIP3    H233529   7.675   2.410   0.298
11196TIP3   OH233530   6.234   5.461   1.488
11196TIP3    H133531   6.206   5.493   1.402
11196TIP3    H233532   6.328   5.449   1.480
11197TIP3   OH233533   6.250   3.344   0.174
11197TIP3    H133534   6.224   3.269   0.120
11197TIP3    H233535   6.343   3.355   0.156
11198TIP3   OH233536   6.549   4.617   1.621
11198TIP3    H133537   6.591   4.663   1.693
11198TIP3    H233538   6.476   4.675   1.595
11199TIP3   OH233539   7.815   0.793   3.721
11199TIP3    H133540   7.782   0.836   3.800
11199TIP3    H233541   7.842   0.866   3.664
11200TIP3   OH233542   4.360   0.041   0.196
11200TIP3    H133543   4.279   0.020   0.244
11200TIP3    H233544   4.399  -0.044   0.178
11201TIP3   OH233545   4.830   6.872   0.549
11201TIP3    H133546   4.747   6.918   0.544
11201TIP3    H233547   4.893   6.930   0.507
11202TIP3   OH233548   7.723   7.487   5.672
11202TIP3    H133549   7.773   7.448   5.600
11202TIP3    H233550   7.763   7.574   5.685
11203TIP3   OH233551   3.947   2.244   5.387
11203TIP3    H133552   3.959   2.151   5.365
11203TIP3    H233553   4.001   2.291   5.323
11204TIP3   OH233554   5.494   4.088   3.481
11204TIP3    H133555   5.461   4.030   3.549
11204TIP3    H233556   5.572   4.045   3.447
11205TIP3   OH233557   4.315   1.400   1.049
11205TIP3    H133558   4.231   1.358   1.031
11205TIP3    H233559   4.312   1.422   1.142
11206TIP3   OH233560   8.043   4.973   5.530
11206TIP3    H133561   8.094   4.946   5.607
11206TIP3    H233562   8.108   4.980   5.460
11207TIP3   OH233563   6.577   3.530   4.870
11207TIP3    H133564   6.612   3.551   4.956
11207TIP3    H233565   6.563   3.615   4.828
11208TIP3   OH233566   1.823   6.300   0.352
11208TIP3    H133567   1.754   6.296   0.285
11208TIP3    H233568   1.806   6.225   0.409
11209TIP3   OH233569   3.431   4.899   4.261
11209TIP3    H133570   3.428   4.887   4.166
11209TIP3    H233571   3.523   4.893   4.284
11210TIP3   OH233572   4.735   2.905   0.291
11210TIP3    H133573   4.698   2.818   0.276
11210TIP3    H233574   4.828   2.895   0.271
11211TIP3   OH233575   1.059   6.416   2.033
11211TIP3    H133576   1.069   6.394   1.940
11211TIP3    H233577   1.049   6.511   2.033
11212TIP3   OH233578   6.090   6.000   0.581
11212TIP3    H133579   6.175   6.003   0.625
11212TIP3    H233580   6.034   5.952   0.642
11213TIP3   OH233581   2.234   6.878   4.229
11213TIP3    H133582   2.220   6.783   4.229
11213TIP3    H233583   2.309   6.891   4.170
11214TIP3   OH233584   4.885   0.195   4.152
11214TIP3    H133585   4.946   0.268   4.168
11214TIP3    H233586   4.820   0.232   4.092
11215TIP3   OH233587   4.175   6.009   2.970
11215TIP3    H133588   4.080   6.019   2.958
11215TIP3    H233589   4.213   6.047   2.890
11216TIP3   OH233590   5.887   1.371   0.739
11216TIP3    H133591   5.951   1.380   0.669
11216TIP3    H233592   5.939   1.349   0.817
11217TIP3   OH233593   4.817   3.734   4.882
11217TIP3    H133594   4.862   3.680   4.818
11217TIP3    H233595   4.724   3.722   4.863
11218TIP3   OH233596   7.419   7.092   0.939
11218TIP3    H133597   7.327   7.110   0.921
11218TIP3    H233598   7.435   7.131   1.025
11219TIP3   OH233599   4.465   5.404   5.719
11219TIP3    H133600   4.387   5.440   5.761
11219TIP3    H233601   4.446   5.407   5.625
11220TIP3   OH233602   4.328   3.692   5.770
11220TIP3    H133603   4.361   3.618   5.820
11220TIP3    H233604   4.233   3.690   5.783
11221TIP3   OH233605   7.942   1.701   4.376
11221TIP3    H133606   7.994   1.625   4.400
11221TIP3    H233607   7.853   1.680   4.405
11222TIP3   OH233608   0.982   4.310   4.124
11222TIP3    H133609   0.936   4.372   4.181
11222TIP3    H233610   0.914   4.248   4.097
11223TIP3   OH233611   7.132   2.146   6.360
11223TIP3    H133612   7.217   2.189   6.369
11223TIP3    H233613   7.153   2.055   6.340
11224TIP3   OH233614   3.902   5.168   6.227
11224TIP3    H133615   3.967   5.223   6.270
11224TIP3    H233616   3.856   5.226   6.167
11225TIP3   OH233617   1.965   4.800   5.758
11225TIP3    H133618   1.873   4.771   5.758
11225TIP3    H233619   1.994   4.787   5.848
11226TIP3   OH233620   2.922   1.854   4.975
11226TIP3    H133621   2.982   1.796   4.928
11226TIP3    H233622   2.850   1.797   5.003
11227TIP3   OH233623   6.564   5.148   3.801
11227TIP3    H133624   6.591   5.152   3.893
11227TIP3    H233625   6.599   5.064   3.769
11228TIP3   OH233626   6.892   5.192   0.453
11228TIP3    H133627   6.973   5.163   0.495
11228TIP3    H233628   6.882   5.135   0.377
11229TIP3   OH233629   5.760   2.325   2.333
11229TIP3    H133630   5.716   2.409   2.347
11229TIP3    H233631   5.802   2.306   2.416
11230TIP3   OH233632   4.538   6.920   3.057
11230TIP3    H133633   4.617   6.936   3.108
11230TIP3    H233634   4.513   6.830   3.078
11231TIP3   OH233635   2.212   6.793   0.525
11231TIP3    H133636   2.187   6.701   0.534
11231TIP3    H233637   2.267   6.810   0.602
11232TIP3   OH233638   6.717   1.757   0.263
11232TIP3    H133639   6.625   1.738   0.243
11232TIP3    H233640   6.748   1.678   0.307
11233TIP3   OH233641   0.984   4.881   4.082
11233TIP3    H133642   1.042   4.811   4.112
11233TIP3    H233643   0.904   4.871   4.135
11234TIP3   OH233644   0.823   5.779   0.880
11234TIP3    H133645   0.766   5.814   0.811
11234TIP3    H233646   0.803   5.686   0.883
11235TIP3   OH233647   0.258   5.667   5.412
11235TIP3    H133648   0.258   5.759   5.386
11235TIP3    H233649   0.326   5.661   5.479
11236TIP3   OH233650   3.574   4.540   5.842
11236TIP3    H133651   3.483   4.509   5.848
11236TIP3    H233652   3.620   4.494   5.912
11237TIP3   OH233653   6.480   0.298   3.706
11237TIP3    H133654   6.562   0.346   3.693
11237TIP3    H233655   6.411   0.362   3.688
11238TIP3   OH233656   6.465   5.654   6.009
11238TIP3    H133657   6.390   5.595   6.015
11238TIP3    H233658   6.533   5.601   5.968
11239TIP3   OH233659   1.653   1.695   1.044
11239TIP3    H133660   1.698   1.737   0.970
11239TIP3    H233661   1.610   1.619   1.006
11240TIP3   OH233662   1.444   0.896   3.337
11240TIP3    H133663   1.528   0.894   3.291
11240TIP3    H233664   1.413   0.986   3.327
11241TIP3   OH233665   6.941   0.902   0.469
11241TIP3    H133666   6.945   0.843   0.393
11241TIP3    H233667   6.857   0.882   0.510
11242TIP3   OH233668   6.890   7.025   1.331
11242TIP3    H133669   6.963   6.987   1.380
11242TIP3    H233670   6.820   6.960   1.338
11243TIP3   OH233671   5.774   3.192   2.772
11243TIP3    H133672   5.798   3.260   2.708
11243TIP3    H233673   5.681   3.207   2.788
11244TIP3   OH233674   4.475   0.649   2.412
11244TIP3    H133675   4.539   0.600   2.361
11244TIP3    H233676   4.524   0.680   2.488
11245TIP3   OH233677   2.354   4.455   0.989
11245TIP3    H133678   2.268   4.491   0.968
11245TIP3    H233679   2.336   4.373   1.034
11246TIP3   OH233680   5.312   1.270   1.736
11246TIP3    H133681   5.370   1.328   1.686
11246TIP3    H233682   5.357   1.257   1.819
11247TIP3   OH233683   4.212   0.524   1.388
11247TIP3    H133684   4.246   0.484   1.468
11247TIP3    H233685   4.145   0.585   1.418
11248TIP3   OH233686   1.355   4.396   5.722
11248TIP3    H133687   1.423   4.355   5.670
11248TIP3    H233688   1.276   4.347   5.702
11249TIP3   OH233689   2.759   6.840   4.760
11249TIP3    H133690   2.743   6.812   4.850
11249TIP3    H233691   2.742   6.762   4.707
11250TIP3   OH233692   6.372   0.968   4.836
11250TIP3    H133693   6.450   0.955   4.783
11250TIP3    H233694   6.376   0.900   4.903
11251TIP3   OH233695   5.303   7.431   5.472
11251TIP3    H133696   5.289   7.493   5.400
11251TIP3    H233697   5.292   7.345   5.431
11252TIP3   OH233698   5.054   3.306   0.459
11252TIP3    H133699   5.024   3.216   0.470
11252TIP3    H233700   5.139   3.299   0.415
11253TIP3   OH233701   1.180   7.246   4.804
11253TIP3    H133702   1.149   7.172   4.751
11253TIP3    H233703   1.188   7.318   4.742
11254TIP3   OH233704   3.034   5.220   3.459
11254TIP3    H133705   2.997   5.293   3.508
11254TIP3    H233706   2.966   5.195   3.396
11255TIP3   OH233707   7.378   6.120   3.853
11255TIP3    H133708   7.332   6.095   3.933
11255TIP3    H233709   7.440   6.187   3.881
11256TIP3   OH233710   2.527   2.087   2.962
11256TIP3    H133711   2.499   2.133   3.041
11256TIP3    H233712   2.445   2.068   2.915
11257TIP3   OH233713   0.511   6.935   1.304
11257TIP3    H133714   0.494   6.981   1.386
11257TIP3    H233715   0.595   6.890   1.318
11258TIP3   OH233716   1.226   1.872   0.921
11258TIP3    H133717   1.179   1.956   0.920
11258TIP3    H233718   1.208   1.836   1.007
11259TIP3   OH233719   0.116   1.016   1.888
11259TIP3    H133720   0.075   0.930   1.881
11259TIP3    H233721   0.206   0.998   1.914
11260TIP3   OH233722   5.631   3.805   2.104
11260TIP3    H133723   5.718   3.806   2.145
11260TIP3    H233724   5.571   3.797   2.178
11261TIP3   OH233725   2.202   2.255   6.549
11261TIP3    H133726   2.161   2.240   6.463
11261TIP3    H233727   2.200   2.350   6.561
11262TIP3   OH233728   0.977   2.147   5.624
11262TIP3    H133729   1.054   2.195   5.654
11262TIP3    H233730   0.968   2.076   5.689
11263TIP3   OH233731   3.318   4.798   2.606
11263TIP3    H133732   3.359   4.827   2.525
11263TIP3    H233733   3.271   4.718   2.583
11264TIP3   OH233734   3.946   2.672   4.214
11264TIP3    H133735   3.939   2.639   4.124
11264TIP3    H233736   3.959   2.594   4.267
11265TIP3   OH233737   5.624   5.577   3.023
11265TIP3    H133738   5.529   5.567   3.016
11265TIP3    H233739   5.659   5.505   2.970
11266TIP3   OH233740   0.215   0.069   5.018
11266TIP3    H133741   0.132   0.020   5.015
11266TIP3    H233742   0.206   0.136   4.951
11267TIP3   OH233743   3.388   6.697   1.037
11267TIP3    H133744   3.325   6.704   0.966
11267TIP3    H233745   3.338   6.722   1.115
11268TIP3   OH233746   7.501   4.833   5.314
11268TIP3    H133747   7.524   4.906   5.371
11268TIP3    H233748   7.406   4.842   5.302
11269TIP3   OH233749   5.207   0.031   1.518
11269TIP3    H133750   5.140  -0.023   1.475
11269TIP3    H233751   5.242   0.086   1.448
11270TIP3   OH233752   7.852   3.391   1.087
11270TIP3    H133753   7.845   3.307   1.132
11270TIP3    H233754   7.920   3.378   1.021
11271TIP3   OH233755   2.359   6.793   2.128
11271TIP3    H133756   2.356   6.698   2.112
11271TIP3    H233757   2.385   6.830   2.044
11272TIP3   OH233758   0.784   5.332   3.420
11272TIP3    H133759   0.704   5.287   3.449
11272TIP3    H233760   0.788   5.314   3.326
11273TIP3   OH233761   5.970   7.291   4.305
11273TIP3    H133762   5.971   7.367   4.363
11273TIP3    H233763   6.036   7.311   4.239
11274TIP3   OH233764   7.010   5.508   1.988
11274TIP3    H133765   7.019   5.519   1.893
11274TIP3    H233766   7.064   5.578   2.025
11275TIP3   OH233767   6.262   7.474   5.222
11275TIP3    H133768   6.357   7.475   5.212
11275TIP3    H233769   6.243   7.550   5.278
11276TIP3   OH233770   1.127   6.830   3.104
11276TIP3    H133771   1.090   6.892   3.168
11276TIP3    H233772   1.201   6.877   3.066
11277TIP3   OH233773   4.260   2.189   1.036
11277TIP3    H133774   4.233   2.259   1.095
11277TIP3    H233775   4.188   2.127   1.038
11278TIP3   OH233776   8.188   7.352   1.045
11278TIP3    H133777   8.126   7.402   0.992
11278TIP3    H233778   8.267   7.348   0.991
11279TIP3   OH233779   4.129   7.595   3.598
11279TIP3    H133780   4.036   7.581   3.582
11279TIP3    H233781   4.137   7.689   3.614
11280TIP3   OH233782   2.456   5.383   4.782
11280TIP3    H133783   2.479   5.340   4.699
11280TIP3    H233784   2.483   5.321   4.849
11281TIP3   OH233785   0.826   1.072   3.137
11281TIP3    H133786   0.817   1.075   3.042
11281TIP3    H233787   0.837   0.979   3.158
11282TIP3   OH233788   3.850   4.986   1.091
11282TIP3    H133789   3.811   5.066   1.057
11282TIP3    H233790   3.862   4.930   1.014
11283TIP3   OH233791   5.517   4.458   5.532
11283TIP3    H133792   5.435   4.422   5.497
11283TIP3    H233793   5.576   4.383   5.538
11284TIP3   OH233794   7.251   0.145   4.781
11284TIP3    H133795   7.177   0.164   4.839
11284TIP3    H233796   7.214   0.089   4.712
11285TIP3   OH233797   0.586   2.975   1.922
11285TIP3    H133798   0.554   2.892   1.959
11285TIP3    H233799   0.655   3.003   1.982
11286TIP3   OH233800   7.273   5.840   5.942
11286TIP3    H133801   7.314   5.924   5.920
11286TIP3    H233802   7.193   5.839   5.890
11287TIP3   OH233803   5.376   3.411   3.007
11287TIP3    H133804   5.314   3.484   3.000
11287TIP3    H233805   5.322   3.337   3.038
11288TIP3   OH233806   8.084   2.848   4.984
11288TIP3    H133807   8.106   2.886   5.070
11288TIP3    H233808   8.140   2.771   4.978
11289TIP3   OH233809   7.490   4.407   5.798
11289TIP3    H133810   7.585   4.418   5.803
11289TIP3    H233811   7.457   4.490   5.763
11290TIP3   OH233812   4.040   7.109   3.391
11290TIP3    H133813   3.954   7.084   3.357
11290TIP3    H233814   4.088   7.140   3.315
11291TIP3   OH233815   4.829   4.013   4.444
11291TIP3    H133816   4.778   3.932   4.444
11291TIP3    H233817   4.874   4.013   4.360
11292TIP3   OH233818   7.796   2.523   1.119
11292TIP3    H133819   7.753   2.468   1.184
11292TIP3    H233820   7.876   2.553   1.163
11293TIP3   OH233821   5.411   0.993   3.549
11293TIP3    H133822   5.434   0.916   3.499
11293TIP3    H233823   5.319   1.010   3.527
11294TIP3   OH233824   6.838   6.127   6.364
11294TIP3    H133825   6.894   6.049   6.372
11294TIP3    H233826   6.826   6.138   6.269
11295TIP3   OH233827   6.709   0.800   0.511
11295TIP3    H133828   6.702   0.706   0.490
11295TIP3    H233829   6.626   0.837   0.481
11296TIP3   OH233830   5.218   1.558   4.666
11296TIP3    H133831   5.197   1.604   4.585
11296TIP3    H233832   5.189   1.617   4.736
11297TIP3   OH233833   7.392   5.125   5.960
11297TIP3    H133834   7.306   5.108   5.923
11297TIP3    H233835   7.395   5.072   6.039
11298TIP3   OH233836   6.186   3.383   5.277
11298TIP3    H133837   6.264   3.434   5.253
11298TIP3    H233838   6.190   3.306   5.221
11299TIP3   OH233839   7.415   0.665   5.485
11299TIP3    H133840   7.467   0.717   5.546
11299TIP3    H233841   7.398   0.583   5.532
11300TIP3   OH233842   4.613   5.158   0.080
11300TIP3    H133843   4.655   5.178   0.163
11300TIP3    H233844   4.669   5.093   0.039
11301TIP3   OH233845   8.061   1.861   0.786
11301TIP3    H133846   8.053   1.865   0.882
11301TIP3    H233847   8.097   1.946   0.761
11302TIP3   OH233848   8.150   2.367   5.292
11302TIP3    H133849   8.205   2.388   5.368
11302TIP3    H233850   8.065   2.404   5.314
11303TIP3   OH233851   4.339   7.500   1.027
11303TIP3    H133852   4.384   7.429   0.981
11303TIP3    H233853   4.392   7.577   1.010
11304TIP3   OH233854   3.112   5.410   5.074
11304TIP3    H133855   3.056   5.395   5.151
11304TIP3    H233856   3.133   5.322   5.043
11305TIP3   OH233857   5.140   4.269   5.633
11305TIP3    H133858   5.070   4.208   5.657
11305TIP3    H233859   5.145   4.329   5.707
11306TIP3   OH233860   2.587   4.649   4.107
11306TIP3    H133861   2.642   4.679   4.035
11306TIP3    H233862   2.634   4.675   4.186
11307TIP3   OH233863   3.443   6.922   2.048
11307TIP3    H133864   3.370   6.900   2.105
11307TIP3    H233865   3.494   6.841   2.041
11308TIP3   OH233866   0.322   2.550   6.116
11308TIP3    H133867   0.315   2.582   6.206
11308TIP3    H233868   0.271   2.470   6.115
11309TIP3   OH233869   0.324   6.680   4.843
11309TIP3    H133870   0.247   6.735   4.829
11309TIP3    H233871   0.397   6.742   4.848
11310TIP3   OH233872   0.764   3.200   3.448
11310TIP3    H133873   0.747   3.225   3.539
11310TIP3    H233874   0.831   3.132   3.453
11311TIP3   OH233875   3.534   5.499   5.593
11311TIP3    H133876   3.616   5.540   5.565
11311TIP3    H233877   3.469   5.530   5.529
11312TIP3   OH233878   5.390   6.569   5.688
11312TIP3    H133879   5.311   6.584   5.635
11312TIP3    H233880   5.455   6.539   5.625
11313TIP3   OH233881   1.897   1.403   0.326
11313TIP3    H133882   1.898   1.309   0.343
11313TIP3    H233883   1.936   1.412   0.239
11314TIP3   OH233884   6.395   7.442   5.956
11314TIP3    H133885   6.428   7.475   6.040
11314TIP3    H233886   6.474   7.411   5.911
11315TIP3   OH233887   7.344   3.158   5.460
11315TIP3    H133888   7.317   3.073   5.426
11315TIP3    H233889   7.414   3.138   5.521
11316TIP3   OH233890   7.112   2.980   6.169
11316TIP3    H133891   7.117   2.885   6.157
11316TIP3    H233892   7.043   3.008   6.110
11317TIP3   OH233893   2.994   4.118   3.965
11317TIP3    H133894   2.969   4.148   3.878
11317TIP3    H233895   2.942   4.039   3.979
11318TIP3   OH233896   5.319   5.533   0.736
11318TIP3    H133897   5.398   5.486   0.709
11318TIP3    H233898   5.338   5.625   0.718
11319TIP3   OH233899   3.343   6.852   3.577
11319TIP3    H133900   3.375   6.856   3.487
11319TIP3    H233901   3.250   6.876   3.571
11320TIP3   OH233902   4.665   0.734   2.926
11320TIP3    H133903   4.612   0.814   2.924
11320TIP3    H233904   4.750   0.762   2.959
11321TIP3   OH233905   6.512   6.345   5.677
11321TIP3    H133906   6.513   6.270   5.618
11321TIP3    H233907   6.531   6.420   5.621
11322TIP3   OH233908   4.236   1.178   2.650
11322TIP3    H133909   4.141   1.162   2.647
11322TIP3    H233910   4.255   1.198   2.742
11323TIP3   OH233911   7.066   5.316   3.743
11323TIP3    H133912   6.980   5.339   3.778
11323TIP3    H233913   7.069   5.357   3.657
11324TIP3   OH233914   2.129   5.460   6.581
11324TIP3    H133915   2.131   5.471   6.676
11324TIP3    H233916   2.094   5.542   6.547
11325TIP3   OH233917   7.716   6.430   1.076
11325TIP3    H133918   7.754   6.436   0.989
11325TIP3    H233919   7.659   6.506   1.083
11326TIP3   OH233920   3.040   2.026   4.253
11326TIP3    H133921   3.100   2.016   4.179
11326TIP3    H233922   3.083   2.088   4.312
11327TIP3   OH233923   8.065   1.650   5.301
11327TIP3    H133924   8.118   1.719   5.341
11327TIP3    H233925   8.044   1.591   5.373
11328TIP3   OH233926   3.251   7.108   2.571
11328TIP3    H133927   3.243   7.163   2.493
11328TIP3    H233928   3.259   7.019   2.538
11329TIP3   OH233929   5.590   2.248   4.292
11329TIP3    H133930   5.639   2.225   4.370
11329TIP3    H233931   5.607   2.177   4.230
11330TIP3   OH233932   2.961   5.741   2.672
11330TIP3    H133933   2.866   5.733   2.659
11330TIP3    H233934   2.984   5.666   2.727
11331TIP3   OH233935   4.122   6.090   2.410
11331TIP3    H133936   4.099   6.152   2.479
11331TIP3    H233937   4.218   6.093   2.406
11332TIP3   OH233938   2.677   1.420   6.130
11332TIP3    H133939   2.706   1.425   6.039
11332TIP3    H233940   2.613   1.350   6.132
11333TIP3   OH233941   6.339   0.446   0.711
11333TIP3    H133942   6.425   0.424   0.675
11333TIP3    H233943   6.356   0.473   0.801
11334TIP3   OH233944   2.706   4.274   6.694
11334TIP3    H133945   2.690   4.229   6.777
11334TIP3    H233946   2.684   4.366   6.711
11335TIP3   OH233947   6.434   2.620   0.284
11335TIP3    H133948   6.506   2.654   0.337
11335TIP3    H233949   6.458   2.643   0.194
11336TIP3   OH233950   5.073   2.917   0.449
11336TIP3    H133951   5.003   2.981   0.465
11336TIP3    H233952   5.154   2.965   0.467
11337TIP3   OH233953   2.932   2.267   4.069
11337TIP3    H133954   2.942   2.174   4.049
11337TIP3    H233955   2.970   2.277   4.156
11338TIP3   OH233956   5.869   4.707   5.575
11338TIP3    H133957   5.873   4.611   5.575
11338TIP3    H233958   5.792   4.728   5.627
11339TIP3   OH233959   8.201   3.421   0.585
11339TIP3    H133960   8.243   3.456   0.664
11339TIP3    H233961   8.132   3.484   0.566
11340TIP3   OH233962   4.992   3.407   1.326
11340TIP3    H133963   5.067   3.352   1.301
11340TIP3    H233964   4.932   3.346   1.369
11341TIP3   OH233965   4.005   2.363   3.845
11341TIP3    H133966   4.013   2.379   3.751
11341TIP3    H233967   3.986   2.449   3.882
11342TIP3   OH233968   4.156   4.631   3.229
11342TIP3    H133969   4.192   4.636   3.141
11342TIP3    H233970   4.066   4.663   3.220
11343TIP3   OH233971   3.969   1.622   0.882
11343TIP3    H133972   3.938   1.620   0.973
11343TIP3    H233973   4.030   1.696   0.879
11344TIP3   OH233974   6.296   1.757   4.005
11344TIP3    H133975   6.240   1.730   3.933
11344TIP3    H233976   6.273   1.699   4.077
11345TIP3   OH233977   5.644   3.906   6.150
11345TIP3    H133978   5.685   3.905   6.064
11345TIP3    H233979   5.598   3.991   6.153
11346TIP3   OH233980   3.745   5.605   6.725
11346TIP3    H133981   3.796   5.555   6.789
11346TIP3    H233982   3.805   5.617   6.651
11347TIP3   OH233983   4.181   5.251   0.194
11347TIP3    H133984   4.184   5.297   0.110
11347TIP3    H233985   4.105   5.288   0.239
11348TIP3   OH233986   5.138   5.979   0.564
11348TIP3    H133987   5.223   5.950   0.534
11348TIP3    H233988   5.089   5.898   0.582
11349TIP3   OH233989   3.591   3.220   0.801
11349TIP3    H133990   3.542   3.261   0.730
11349TIP3    H233991   3.594   3.286   0.870
11350TIP3   OH233992   1.318   3.381   4.365
11350TIP3    H133993   1.354   3.380   4.454
11350TIP3    H233994   1.253   3.452   4.366
11351TIP3   OH233995   3.420   5.130   1.794
11351TIP3    H133996   3.348   5.192   1.789
11351TIP3    H233997   3.414   5.079   1.713
11352TIP3   OH233998   5.276   7.151   4.496
11352TIP3    H133999   5.196   7.163   4.547
11352TIP3    H234000   5.303   7.061   4.514
11353TIP3   OH234001   7.850   2.822   0.855
11353TIP3    H134002   7.762   2.795   0.883
11353TIP3    H234003   7.835   2.878   0.779
11354TIP3   OH234004   2.309   1.943   2.549
11354TIP3    H134005   2.400   1.930   2.575
11354TIP3    H234006   2.263   1.866   2.583
11355TIP3   OH234007   4.768   1.209   0.282
11355TIP3    H134008   4.717   1.263   0.222
11355TIP3    H234009   4.755   1.250   0.368
11356TIP3   OH234010   5.487   5.650   1.461
11356TIP3    H134011   5.532   5.691   1.534
11356TIP3    H234012   5.420   5.714   1.435
11357TIP3   OH234013   1.445   1.625   6.466
11357TIP3    H134014   1.464   1.611   6.374
11357TIP3    H234015   1.480   1.712   6.485
11358TIP3   OH234016   5.148   1.299   5.829
11358TIP3    H134017   5.198   1.250   5.894
11358TIP3    H234018   5.080   1.344   5.880
11359TIP3   OH234019   3.414   0.653   0.493
11359TIP3    H134020   3.490   0.706   0.469
11359TIP3    H234021   3.450   0.566   0.507
11360TIP3   OH234022   7.073   3.743   4.564
11360TIP3    H134023   7.060   3.699   4.480
11360TIP3    H234024   7.052   3.676   4.630
11361TIP3   OH234025   5.617   4.649   6.547
11361TIP3    H134026   5.693   4.593   6.564
11361TIP3    H234027   5.611   4.705   6.625
11362TIP3   OH234028   5.538   4.438   2.241
11362TIP3    H134029   5.536   4.461   2.334
11362TIP3    H234030   5.518   4.520   2.196
11363TIP3   OH234031   3.238   2.534   4.895
11363TIP3    H134032   3.287   2.594   4.839
11363TIP3    H234033   3.218   2.585   4.973
11364TIP3   OH234034   2.463   6.958   2.318
11364TIP3    H134035   2.422   6.926   2.238
11364TIP3    H234036   2.493   7.047   2.296
11365TIP3   OH234037   4.626   3.755   0.813
11365TIP3    H134038   4.684   3.830   0.828
11365TIP3    H234039   4.648   3.725   0.724
11366TIP3   OH234040   2.190   0.938   2.474
11366TIP3    H134041   2.195   0.864   2.413
11366TIP3    H234042   2.276   0.941   2.515
11367TIP3   OH234043   1.604   0.074   4.475
11367TIP3    H134044   1.649   0.149   4.436
11367TIP3    H234045   1.581   0.019   4.401
11368TIP3   OH234046   4.446   0.499   6.260
11368TIP3    H134047   4.435   0.410   6.293
11368TIP3    H234048   4.534   0.524   6.287
11369TIP3   OH234049   4.164   1.151   5.880
11369TIP3    H134050   4.253   1.169   5.912
11369TIP3    H234051   4.108   1.203   5.938
11370TIP3   OH234052   2.924   1.983   1.812
11370TIP3    H134053   3.015   1.962   1.832
11370TIP3    H234054   2.885   2.001   1.898
11371TIP3   OH234055   0.073   7.397   5.418
11371TIP3    H134056   0.141   7.464   5.416
11371TIP3    H234057   0.097   7.341   5.492
11372TIP3   OH234058   0.125   7.133   2.360
11372TIP3    H134059   0.155   7.072   2.292
11372TIP3    H234060   0.146   7.219   2.325
11373TIP3   OH234061   5.856   3.831   4.028
11373TIP3    H134062   5.828   3.747   4.066
11373TIP3    H234063   5.935   3.854   4.077
11374TIP3   OH234064   1.048   3.789   0.087
11374TIP3    H134065   0.993   3.711   0.080
11374TIP3    H234066   1.025   3.825   0.173
11375TIP3   OH234067   7.011   2.561   0.043
11375TIP3    H134068   6.960   2.620  -0.012
11375TIP3    H234069   7.079   2.528  -0.015
11376TIP3   OH234070   2.398   2.082   5.065
11376TIP3    H134071   2.405   2.105   4.973
11376TIP3    H234072   2.430   1.992   5.069
11377TIP3   OH234073   7.894   5.788   2.158
11377TIP3    H134074   7.861   5.855   2.097
11377TIP3    H234075   7.836   5.713   2.144
11378TIP3   OH234076   2.046   2.093   2.743
11378TIP3    H134077   2.138   2.104   2.721
11378TIP3    H234078   2.001   2.086   2.658
11379TIP3   OH234079   0.923   3.491   1.887
11379TIP3    H134080   0.874   3.412   1.861
11379TIP3    H234081   0.878   3.563   1.844
11380TIP3   OH234082   5.177   6.227   4.289
11380TIP3    H134083   5.198   6.183   4.371
11380TIP3    H234084   5.258   6.271   4.263
11381TIP3   OH234085   5.405   3.340   1.046
11381TIP3    H134086   5.434   3.270   0.988
11381TIP3    H234087   5.473   3.345   1.113
11382TIP3   OH234088   3.236   1.735   6.058
11382TIP3    H134089   3.248   1.796   5.985
11382TIP3    H234090   3.246   1.790   6.136
11383TIP3   OH234091   8.046   0.036   5.856
11383TIP3    H134092   8.127   0.047   5.808
11383TIP3    H234093   8.061   0.083   5.939
11384TIP3   OH234094   0.971   0.514   1.484
11384TIP3    H134095   1.006   0.450   1.546
11384TIP3    H234096   1.048   0.551   1.441
11385TIP3   OH234097   2.382   4.220   6.306
11385TIP3    H134098   2.407   4.311   6.324
11385TIP3    H234099   2.371   4.217   6.211
11386TIP3   OH234100   7.240   2.871   3.703
11386TIP3    H134101   7.280   2.795   3.661
11386TIP3    H234102   7.194   2.917   3.633
11387TIP3   OH234103   0.235   0.762   2.544
11387TIP3    H134104   0.285   0.843   2.549
11387TIP3    H234105   0.157   0.784   2.493
11388TIP3   OH234106   5.860   6.948   3.051
11388TIP3    H134107   5.942   6.951   3.002
11388TIP3    H234108   5.825   7.037   3.046
11389TIP3   OH234109   6.290   5.248   6.772
11389TIP3    H134110   6.309   5.161   6.738
11389TIP3    H234111   6.197   5.245   6.794
11390TIP3   OH234112   2.136   5.782   6.080
11390TIP3    H134113   2.116   5.871   6.111
11390TIP3    H234114   2.195   5.746   6.147
11391TIP3   OH234115   5.590   6.561   6.107
11391TIP3    H134116   5.518   6.608   6.064
11391TIP3    H234117   5.559   6.471   6.114
11392TIP3   OH234118   4.040   6.365   5.964
11392TIP3    H134119   4.038   6.456   5.935
11392TIP3    H234120   3.948   6.336   5.958
11393TIP3   OH234121   7.064   0.346   0.074
11393TIP3    H134122   6.969   0.348   0.078
11393TIP3    H234123   7.085   0.256   0.045
11394TIP3   OH234124   5.987   2.901   5.673
11394TIP3    H134125   5.977   2.809   5.696
11394TIP3    H234126   6.070   2.905   5.624
11395TIP3   OH234127   8.082   5.421   1.109
11395TIP3    H134128   8.117   5.508   1.091
11395TIP3    H234129   8.098   5.371   1.029
11396TIP3   OH234130   4.639   4.136   4.122
11396TIP3    H134131   4.589   4.167   4.046
11396TIP3    H234132   4.692   4.211   4.148
11397TIP3   OH234133   2.534   2.542   4.363
11397TIP3    H134134   2.597   2.508   4.299
11397TIP3    H234135   2.457   2.486   4.352
11398TIP3   OH234136   5.550   0.047   1.587
11398TIP3    H134137   5.540   0.084   1.675
11398TIP3    H234138   5.472   0.075   1.540
11399TIP3   OH234139   1.572   5.150   3.004
11399TIP3    H134140   1.561   5.207   3.080
11399TIP3    H234141   1.655   5.105   3.020
11400TIP3   OH234142   3.004   2.270   5.243
11400TIP3    H134143   2.941   2.198   5.240
11400TIP3    H234144   3.002   2.300   5.333
11401TIP3   OH234145   4.988   2.686   2.311
11401TIP3    H134146   4.917   2.681   2.247
11401TIP3    H234147   5.031   2.770   2.292
11402TIP3   OH234148   1.428   2.238   3.052
11402TIP3    H134149   1.369   2.169   3.083
11402TIP3    H234150   1.385   2.320   3.077
11403TIP3   OH234151   0.503   4.449   0.119
11403TIP3    H134152   0.508   4.364   0.075
11403TIP3    H234153   0.537   4.511   0.056
11404TIP3   OH234154   7.557   0.348   2.205
11404TIP3    H134155   7.635   0.362   2.151
11404TIP3    H234156   7.557   0.422   2.266
11405TIP3   OH234157   0.594   1.221   3.280
11405TIP3    H134158   0.650   1.188   3.209
11405TIP3    H234159   0.505   1.214   3.246
11406TIP3   OH234160   5.161   1.585   3.511
11406TIP3    H134161   5.232   1.648   3.525
11406TIP3    H234162   5.090   1.637   3.474
11407TIP3   OH234163   7.603   1.199   5.819
11407TIP3    H134164   7.663   1.167   5.887
11407TIP3    H234165   7.650   1.271   5.778
11408TIP3   OH234166   2.796   6.790   0.949
11408TIP3    H134167   2.713   6.831   0.973
11408TIP3    H234168   2.802   6.800   0.854
11409TIP3   OH234169   8.144   2.103   5.334
11409TIP3    H134170   8.136   2.100   5.429
11409TIP3    H234171   8.172   2.192   5.315
11410TIP3   OH234172   2.213   6.674   0.861
11410TIP3    H134173   2.150   6.704   0.927
11410TIP3    H234174   2.256   6.599   0.901
11411TIP3   OH234175   2.923   0.527   1.416
11411TIP3    H134176   2.856   0.487   1.360
11411TIP3    H234177   2.994   0.462   1.418
11412TIP3   OH234178   5.404   1.051   4.988
11412TIP3    H134179   5.491   1.066   4.952
11412TIP3    H234180   5.419   0.997   5.066
11413TIP3   OH234181   7.443   2.564   0.594
11413TIP3    H134182   7.480   2.652   0.595
11413TIP3    H234183   7.382   2.563   0.668
11414TIP3   OH234184   3.384   0.333   0.160
11414TIP3    H134185   3.300   0.369   0.187
11414TIP3    H234186   3.424   0.302   0.241
11415TIP3   OH234187   1.530   6.229   5.745
11415TIP3    H134188   1.598   6.211   5.680
11415TIP3    H234189   1.484   6.307   5.710
11416TIP3   OH234190   2.403   1.346   1.224
11416TIP3    H134191   2.379   1.383   1.309
11416TIP3    H234192   2.355   1.399   1.160
11417TIP3   OH234193   4.516   1.232   1.588
11417TIP3    H134194   4.501   1.298   1.655
11417TIP3    H234195   4.611   1.227   1.579
11418TIP3   OH234196   6.597   3.199   6.118
11418TIP3    H134197   6.611   3.293   6.110
11418TIP3    H234198   6.520   3.191   6.175
11419TIP3   OH234199   4.738   1.884   6.516
11419TIP3    H134200   4.739   1.951   6.448
11419TIP3    H234201   4.794   1.815   6.481
11420TIP3   OH234202   4.391   5.741   2.719
11420TIP3    H134203   4.486   5.738   2.719
11420TIP3    H234204   4.364   5.677   2.654
11421TIP3   OH234205   2.229   4.476   5.439
11421TIP3    H134206   2.208   4.389   5.472
11421TIP3    H234207   2.286   4.514   5.506
11422TIP3   OH234208   7.310   7.069   5.095
11422TIP3    H134209   7.356   7.065   5.179
11422TIP3    H234210   7.257   6.989   5.093
11423TIP3   OH234211   3.228   1.670   3.706
11423TIP3    H134212   3.229   1.736   3.775
11423TIP3    H234213   3.321   1.651   3.690
11424TIP3   OH234214   0.922   4.323   0.307
11424TIP3    H134215   0.862   4.301   0.235
11424TIP3    H234216   0.866   4.324   0.384
11425TIP3   OH234217   2.134   3.354   5.872
11425TIP3    H134218   2.108   3.263   5.889
11425TIP3    H234219   2.228   3.355   5.886
11426TIP3   OH234220   6.775   5.108   5.745
11426TIP3    H134221   6.864   5.118   5.780
11426TIP3    H234222   6.732   5.048   5.805
11427TIP3   OH234223   4.997   1.877   3.685
11427TIP3    H134224   5.075   1.879   3.740
11427TIP3    H234225   4.938   1.942   3.724
11428TIP3   OH234226   5.620   4.716   1.255
11428TIP3    H134227   5.697   4.675   1.296
11428TIP3    H234228   5.572   4.642   1.217
11429TIP3   OH234229   1.822   4.002   6.451
11429TIP3    H134230   1.755   3.952   6.497
11429TIP3    H234231   1.876   3.937   6.406
11430TIP3   OH234232   0.721   4.020   4.732
11430TIP3    H134233   0.683   4.098   4.773
11430TIP3    H234234   0.811   4.045   4.710
11431TIP3   OH234235   4.357   5.446   1.267
11431TIP3    H134236   4.433   5.429   1.211
11431TIP3    H234237   4.346   5.541   1.265
11432TIP3   OH234238   1.602   5.382   3.538
11432TIP3    H134239   1.626   5.297   3.574
11432TIP3    H234240   1.580   5.364   3.447
11433TIP3   OH234241   8.189   7.031   0.480
11433TIP3    H134242   8.119   7.066   0.536
11433TIP3    H234243   8.209   7.102   0.419
11434TIP3   OH234244   5.406   4.217   1.019
11434TIP3    H134245   5.497   4.228   1.048
11434TIP3    H234246   5.388   4.124   1.032
11435TIP3   OH234247   0.879   0.180   0.782
11435TIP3    H134248   0.866   0.155   0.873
11435TIP3    H234249   0.953   0.126   0.752
11436TIP3   OH234250   3.472   6.019   1.120
11436TIP3    H134251   3.396   6.054   1.167
11436TIP3    H234252   3.439   5.994   1.035
11437TIP3   OH234253   0.168   1.370   3.357
11437TIP3    H134254   0.091   1.406   3.312
11437TIP3    H234255   0.145   1.374   3.450
11438TIP3   OH234256   4.872   4.149   1.325
11438TIP3    H134257   4.878   4.066   1.279
11438TIP3    H234258   4.912   4.133   1.411
11439TIP3   OH234259   7.924   6.768   1.061
11439TIP3    H134260   7.963   6.782   0.975
11439TIP3    H234261   7.926   6.673   1.073
11440TIP3   OH234262   7.981   6.036   2.648
11440TIP3    H134263   8.037   6.046   2.725
11440TIP3    H234264   7.969   6.126   2.616
11441TIP3   OH234265   0.419   7.360   5.302
11441TIP3    H134266   0.419   7.362   5.207
11441TIP3    H234267   0.508   7.332   5.325
11442TIP3   OH234268   6.147   6.727   6.049
11442TIP3    H134269   6.116   6.817   6.037
11442TIP3    H234270   6.125   6.706   6.140
11443TIP3   OH234271   0.431   6.980   5.399
11443TIP3    H134272   0.414   6.887   5.417
11443TIP3    H234273   0.519   6.981   5.361
11444TIP3   OH234274   2.737   3.379   4.570
11444TIP3    H134275   2.662   3.332   4.605
11444TIP3    H234276   2.763   3.329   4.492
11445TIP3   OH234277   3.427   0.299   3.396
11445TIP3    H134278   3.346   0.292   3.447
11445TIP3    H234279   3.497   0.280   3.459
11446TIP3   OH234280   3.316   2.156   5.995
11446TIP3    H134281   3.313   2.180   6.088
11446TIP3    H234282   3.282   2.067   5.992
11447TIP3   OH234283   2.406   2.223   2.337
11447TIP3    H134284   2.427   2.205   2.429
11447TIP3    H234285   2.313   2.203   2.329
11448TIP3   OH234286   0.955   6.821   3.647
11448TIP3    H134287   0.961   6.769   3.567
11448TIP3    H234288   1.043   6.858   3.658
11449TIP3   OH234289   5.116   7.771   2.499
11449TIP3    H134290   5.196   7.748   2.547
11449TIP3    H234291   5.117   7.867   2.496
11450TIP3   OH234292   1.048   6.020   5.799
11450TIP3    H134293   1.074   6.002   5.709
11450TIP3    H234294   1.041   6.115   5.804
11451TIP3   OH234295   5.865   1.278   3.689
11451TIP3    H134296   5.800   1.337   3.650
11451TIP3    H234297   5.820   1.193   3.693
11452TIP3   OH234298   1.214   1.229   1.519
11452TIP3    H134299   1.126   1.195   1.535
11452TIP3    H234300   1.269   1.185   1.583
11453TIP3   OH234301   5.448   5.390   1.697
11453TIP3    H134302   5.464   5.428   1.611
11453TIP3    H234303   5.442   5.296   1.681
11454TIP3   OH234304   5.549   5.223   5.854
11454TIP3    H134305   5.491   5.164   5.902
11454TIP3    H234306   5.568   5.293   5.915
11455TIP3   OH234307   4.495   7.328   0.325
11455TIP3    H134308   4.489   7.368   0.412
11455TIP3    H234309   4.552   7.387   0.276
11456TIP3   OH234310   1.098   0.750   0.723
11456TIP3    H134311   1.158   0.799   0.778
11456TIP3    H234312   1.128   0.767   0.633
11457TIP3   OH234313   3.684   0.229   1.546
11457TIP3    H134314   3.765   0.277   1.528
11457TIP3    H234315   3.712   0.138   1.557
11458TIP3   OH234316   1.142   5.685   1.352
11458TIP3    H134317   1.110   5.621   1.289
11458TIP3    H234318   1.195   5.634   1.414
11459TIP3   OH234319   8.142   1.479   1.915
11459TIP3    H134320   8.181   1.392   1.919
11459TIP3    H234321   8.184   1.527   1.988
11460TIP3   OH234322   6.387   3.118   6.266
11460TIP3    H134323   6.446   3.043   6.272
11460TIP3    H234324   6.300   3.080   6.280
11461TIP3   OH234325   3.166   2.748   1.777
11461TIP3    H134326   3.119   2.829   1.757
11461TIP3    H234327   3.258   2.775   1.783
11462TIP3   OH234328   6.097   5.956   0.295
11462TIP3    H134329   6.130   5.871   0.266
11462TIP3    H234330   6.092   5.949   0.390
11463TIP3   OH234331   8.218   1.445   3.919
11463TIP3    H134332   8.235   1.470   4.009
11463TIP3    H234333   8.245   1.354   3.913
11464TIP3   OH234334   7.349   5.060   3.082
11464TIP3    H134335   7.294   5.065   3.161
11464TIP3    H234336   7.332   5.141   3.035
11465TIP3   OH234337   8.242   7.054   6.159
11465TIP3    H134338   8.299   7.005   6.101
11465TIP3    H234339   8.173   6.992   6.183
11466TIP3   OH234340   3.148   5.469   4.054
11466TIP3    H134341   3.218   5.413   4.086
11466TIP3    H234342   3.192   5.548   4.022
11467TIP3   OH234343   7.161   3.910   2.939
11467TIP3    H134344   7.133   3.995   2.906
11467TIP3    H234345   7.255   3.919   2.952
11468TIP3   OH234346   3.975   5.728   0.908
11468TIP3    H134347   4.044   5.780   0.949
11468TIP3    H234348   3.918   5.794   0.868
11469TIP3   OH234349   3.180   2.450   5.572
11469TIP3    H134350   3.134   2.367   5.559
11469TIP3    H234351   3.185   2.489   5.485
11470TIP3   OH234352   4.373   5.908   3.342
11470TIP3    H134353   4.461   5.942   3.360
11470TIP3    H234354   4.388   5.833   3.284
11471TIP3   OH234355   4.107   4.843   6.088
11471TIP3    H134356   4.099   4.889   6.004
11471TIP3    H234357   4.018   4.841   6.123
11472TIP3   OH234358   5.324   3.649   6.646
11472TIP3    H134359   5.272   3.599   6.582
11472TIP3    H234360   5.278   3.733   6.653
11473TIP3   OH234361   0.559   6.869   6.451
11473TIP3    H134362   0.488   6.909   6.501
11473TIP3    H234363   0.536   6.777   6.446
11474TIP3   OH234364   8.124   0.097   3.178
11474TIP3    H134365   8.124   0.192   3.190
11474TIP3    H234366   8.179   0.064   3.249
11475TIP3   OH234367   0.459   4.841   0.733
11475TIP3    H134368   0.369   4.809   0.730
11475TIP3    H234369   0.460   4.901   0.808
11476TIP3   OH234370   4.750   1.928   4.738
11476TIP3    H134371   4.748   1.916   4.643
11476TIP3    H234372   4.767   2.021   4.750
11477TIP3   OH234373   1.690   7.359   1.757
11477TIP3    H134374   1.751   7.315   1.818
11477TIP3    H234375   1.660   7.436   1.805
11478TIP3   OH234376   2.517   4.590   3.149
11478TIP3    H134377   2.510   4.546   3.064
11478TIP3    H234378   2.543   4.520   3.209
11479TIP3   OH234379   1.971   1.585   0.638
11479TIP3    H134380   1.915   1.526   0.587
11479TIP3    H234381   1.922   1.598   0.720
11480TIP3   OH234382   2.211   4.194   5.430
11480TIP3    H134383   2.263   4.115   5.414
11480TIP3    H234384   2.153   4.169   5.502
11481TIP3   OH234385   1.442   3.116   2.092
11481TIP3    H134386   1.426   3.065   2.013
11481TIP3    H234387   1.509   3.066   2.139
11482TIP3   OH234388   3.538   0.007   2.609
11482TIP3    H134389   3.581   0.085   2.643
11482TIP3    H234390   3.600  -0.064   2.625
11483TIP3   OH234391   5.797   2.793   3.726
11483TIP3    H134392   5.860   2.779   3.796
11483TIP3    H234393   5.814   2.723   3.663
11484TIP3   OH234394   0.527   3.403   4.694
11484TIP3    H134395   0.535   3.467   4.623
11484TIP3    H234396   0.433   3.394   4.707
11485TIP3   OH234397   0.847   0.498   4.220
11485TIP3    H134398   0.802   0.553   4.284
11485TIP3    H234399   0.925   0.467   4.266
11486TIP3   OH234400   5.564   7.126   2.395
11486TIP3    H134401   5.566   7.174   2.477
11486TIP3    H234402   5.529   7.188   2.331
11487TIP3   OH234403   3.866   4.610   3.479
11487TIP3    H134404   3.883   4.553   3.404
11487TIP3    H234405   3.781   4.651   3.459
11488TIP3   OH234406   2.797   0.574   6.558
11488TIP3    H134407   2.765   0.644   6.501
11488TIP3    H234408   2.725   0.511   6.560
11489TIP3   OH234409   6.562   3.210   2.655
11489TIP3    H134410   6.564   3.157   2.575
11489TIP3    H234411   6.571   3.146   2.726
11490TIP3   OH234412   4.704   0.197   2.336
11490TIP3    H134413   4.646   0.157   2.401
11490TIP3    H234414   4.676   0.158   2.253
11491TIP3   OH234415   5.008   6.410   6.380
11491TIP3    H134416   5.093   6.445   6.408
11491TIP3    H234417   4.963   6.389   6.462
11492TIP3   OH234418   5.992   3.344   3.731
11492TIP3    H134419   6.084   3.330   3.707
11492TIP3    H234420   5.951   3.259   3.717
11493TIP3   OH234421   0.964   5.600   1.953
11493TIP3    H134422   1.025   5.626   2.022
11493TIP3    H234423   0.901   5.672   1.948
11494TIP3   OH234424   0.957   3.034   4.452
11494TIP3    H134425   0.963   2.986   4.535
11494TIP3    H234426   0.899   2.979   4.398
11495TIP3   OH234427   4.223   1.771   2.949
11495TIP3    H134428   4.265   1.816   3.023
11495TIP3    H234429   4.281   1.699   2.928
11496TIP3   OH234430   3.279   7.029   1.471
11496TIP3    H134431   3.359   7.011   1.521
11496TIP3    H234432   3.301   7.107   1.420
11497TIP3   OH234433   6.691   1.405   3.130
11497TIP3    H134434   6.778   1.440   3.150
11497TIP3    H234435   6.698   1.311   3.147
11498TIP3   OH234436   0.484   6.423   1.885
11498TIP3    H134437   0.569   6.386   1.863
11498TIP3    H234438   0.500   6.479   1.961
11499TIP3   OH234439   7.848   1.448   3.321
11499TIP3    H134440   7.777   1.454   3.257
11499TIP3    H234441   7.807   1.471   3.405
11500TIP3   OH234442   6.999   5.684   3.698
11500TIP3    H134443   6.928   5.630   3.732
11500TIP3    H234444   7.023   5.741   3.770
11501TIP3   OH234445   4.873   7.082   2.806
11501TIP3    H134446   4.966   7.061   2.792
11501TIP3    H234447   4.840   7.103   2.719
11502TIP3   OH234448   2.483   3.275   5.364
11502TIP3    H134449   2.519   3.281   5.453
11502TIP3    H234450   2.498   3.184   5.338
11503TIP3   OH234451   8.065   4.498   2.767
11503TIP3    H134452   7.987   4.459   2.729
11503TIP3    H234453   8.137   4.469   2.710
11504TIP3   OH234454   8.121   2.110   0.678
11504TIP3    H134455   8.214   2.100   0.697
11504TIP3    H234456   8.093   2.182   0.734
11505TIP3   OH234457   6.699   4.806   2.791
11505TIP3    H134458   6.648   4.738   2.747
11505TIP3    H234459   6.657   4.888   2.765
11506TIP3   OH234460   3.461   4.633   4.636
11506TIP3    H134461   3.515   4.584   4.575
11506TIP3    H234462   3.371   4.618   4.607
11507TIP3   OH234463   5.567   7.480   4.402
11507TIP3    H134464   5.580   7.562   4.450
11507TIP3    H234465   5.620   7.416   4.451
11508TIP3   OH234466   0.765   0.790   4.270
11508TIP3    H134467   0.708   0.731   4.319
11508TIP3    H234468   0.798   0.737   4.197
11509TIP3   OH234469   2.041   7.300   2.741
11509TIP3    H134470   2.033   7.380   2.689
11509TIP3    H234471   2.125   7.263   2.716
11510TIP3   OH234472   7.134   3.807   1.018
11510TIP3    H134473   7.192   3.781   1.090
11510TIP3    H234474   7.133   3.902   1.020
11511TIP3   OH234475   2.734   5.142   5.463
11511TIP3    H134476   2.680   5.066   5.483
11511TIP3    H234477   2.738   5.144   5.367
11512TIP3   OH234478   0.062   0.699   6.735
11512TIP3    H134479   0.047   0.605   6.728
11512TIP3    H234480   0.017   0.736   6.659
11513TIP3   OH234481   3.053   0.383   4.740
11513TIP3    H134482   3.079   0.428   4.659
11513TIP3    H234483   2.986   0.320   4.712
11514TIP3   OH234484   8.189   0.260   1.681
11514TIP3    H134485   8.262   0.204   1.653
11514TIP3    H234486   8.113   0.224   1.636
11515TIP3   OH234487   1.541   7.215   1.549
11515TIP3    H134488   1.592   7.264   1.614
11515TIP3    H234489   1.506   7.140   1.598
11516TIP3   OH234490   2.104   3.472   4.605
11516TIP3    H134491   2.058   3.476   4.688
11516TIP3    H234492   2.049   3.522   4.544
11517TIP3   OH234493   1.659   6.496   1.669
11517TIP3    H134494   1.664   6.490   1.574
11517TIP3    H234495   1.737   6.543   1.695
11518TIP3   OH234496   4.171   1.840   4.713
11518TIP3    H134497   4.145   1.842   4.621
11518TIP3    H234498   4.250   1.894   4.717
11519TIP3   OH234499   5.205   4.918   0.644
11519TIP3    H134500   5.205   4.832   0.686
11519TIP3    H234501   5.159   4.903   0.561
11520TIP3   OH234502   0.539   3.700   0.635
11520TIP3    H134503   0.474   3.647   0.589
11520TIP3    H234504   0.519   3.790   0.611
11521TIP3   OH234505   1.891   5.638   6.223
11521TIP3    H134506   1.937   5.577   6.281
11521TIP3    H234507   1.959   5.698   6.192
11522TIP3   OH234508   5.201   4.141   4.285
11522TIP3    H134509   5.207   4.233   4.310
11522TIP3    H234510   5.228   4.138   4.193
11523TIP3   OH234511   6.472   6.762   3.548
11523TIP3    H134512   6.419   6.698   3.500
11523TIP3    H234513   6.549   6.776   3.493
11524TIP3   OH234514   2.607   6.440   2.334
11524TIP3    H134515   2.523   6.429   2.290
11524TIP3    H234516   2.635   6.351   2.356
11525TIP3   OH234517   4.795   0.643   6.724
11525TIP3    H134518   4.869   0.675   6.775
11525TIP3    H234519   4.820   0.657   6.633
11526TIP3   OH234520   7.885   7.305   0.379
11526TIP3    H134521   7.802   7.341   0.349
11526TIP3    H234522   7.951   7.347   0.323
11527TIP3   OH234523   2.368   0.303   0.121
11527TIP3    H134524   2.409   0.379   0.162
11527TIP3    H234525   2.370   0.235   0.189
11528TIP3   OH234526   7.532   4.553   6.528
11528TIP3    H134527   7.590   4.607   6.581
11528TIP3    H234528   7.590   4.494   6.480
11529TIP3   OH234529   1.019   1.634   5.465
11529TIP3    H134530   0.957   1.663   5.399
11529TIP3    H234531   0.974   1.563   5.511
11530TIP3   OH234532   5.572   0.191   3.428
11530TIP3    H134533   5.610   0.210   3.514
11530TIP3    H234534   5.550   0.277   3.392
11531TIP3   OH234535   6.644   7.437   3.582
11531TIP3    H134536   6.610   7.523   3.554
11531TIP3    H234537   6.654   7.446   3.676
11532TIP3   OH234538   4.054   5.688   0.016
11532TIP3    H134539   4.095   5.760  -0.033
11532TIP3    H234540   4.127   5.639   0.053
11533TIP3   OH234541   3.072   3.609   0.541
11533TIP3    H134542   3.121   3.560   0.476
11533TIP3    H234543   3.131   3.680   0.568
11534TIP3   OH234544   1.618   5.559   1.730
11534TIP3    H134545   1.566   5.556   1.811
11534TIP3    H234546   1.581   5.490   1.675
11535TIP3   OH234547   2.674   1.541   1.101
11535TIP3    H134548   2.756   1.551   1.052
11535TIP3    H234549   2.699   1.490   1.179
11536TIP3   OH234550   4.004   1.228   6.385
11536TIP3    H134551   3.913   1.212   6.411
11536TIP3    H234552   4.048   1.144   6.395
11537TIP3   OH234553   1.388   3.307   5.871
11537TIP3    H134554   1.309   3.360   5.877
11537TIP3    H234555   1.447   3.357   5.813
11538TIP3   OH234556   3.085   1.039   3.665
11538TIP3    H134557   3.042   1.124   3.660
11538TIP3    H234558   3.127   1.029   3.579
11539TIP3   OH234559   4.994   0.583   3.982
11539TIP3    H134560   4.938   0.569   4.058
11539TIP3    H234561   4.963   0.666   3.944
11540TIP3   OH234562   5.319   7.661   3.594
11540TIP3    H134563   5.379   7.733   3.572
11540TIP3    H234564   5.253   7.663   3.525
11541TIP3   OH234565   7.091   5.150   6.285
11541TIP3    H134566   7.007   5.115   6.256
11541TIP3    H234567   7.125   5.197   6.209
11542TIP3   OH234568   2.154   1.115   1.493
11542TIP3    H134569   2.167   1.022   1.510
11542TIP3    H234570   2.206   1.132   1.415
11543TIP3   OH234571   5.326   4.950   4.017
11543TIP3    H134572   5.409   4.907   4.036
11543TIP3    H234573   5.260   4.883   4.035
11544TIP3   OH234574   1.856   7.734   4.353
11544TIP3    H134575   1.926   7.800   4.347
11544TIP3    H234576   1.804   7.761   4.428
11545TIP3   OH234577   5.166   1.664   2.224
11545TIP3    H134578   5.196   1.581   2.261
11545TIP3    H234579   5.071   1.665   2.240
11546TIP3   OH234580   7.335   0.189   1.819
11546TIP3    H134581   7.385   0.163   1.742
11546TIP3    H234582   7.355   0.281   1.832
11547TIP3   OH234583   5.854   6.054   4.274
11547TIP3    H134584   5.765   6.084   4.255
11547TIP3    H234585   5.845   5.960   4.289
11548TIP3   OH234586   6.513   0.610   2.989
11548TIP3    H134587   6.491   0.619   2.896
11548TIP3    H234588   6.580   0.541   2.991
11549TIP3   OH234589   0.966   6.784   2.698
11549TIP3    H134590   1.041   6.729   2.675
11549TIP3    H234591   0.890   6.730   2.678
11550TIP3   OH234592   0.226   6.338   5.982
11550TIP3    H134593   0.132   6.328   5.994
11550TIP3    H234594   0.250   6.269   5.921
11551TIP3   OH234595   6.733   5.785   5.204
11551TIP3    H134596   6.711   5.698   5.235
11551TIP3    H234597   6.648   5.829   5.192
11552TIP3   OH234598   7.819   3.751   2.150
11552TIP3    H134599   7.750   3.740   2.084
11552TIP3    H234600   7.848   3.661   2.170
11553TIP3   OH234601   6.137   1.063   0.229
11553TIP3    H134602   6.100   1.139   0.183
11553TIP3    H234603   6.215   1.097   0.273
11554TIP3   OH234604   2.032   6.846   5.444
11554TIP3    H134605   1.990   6.880   5.523
11554TIP3    H234606   2.019   6.752   5.448
11555TIP3   OH234607   6.273   4.949   2.929
11555TIP3    H134608   6.192   4.999   2.932
11555TIP3    H234609   6.259   4.882   2.862
11556TIP3   OH234610   5.515   6.641   2.573
11556TIP3    H134611   5.473   6.724   2.549
11556TIP3    H234612   5.476   6.577   2.513
11557TIP3   OH234613   5.856   3.444   2.930
11557TIP3    H134614   5.853   3.513   2.863
11557TIP3    H234615   5.774   3.455   2.979
11558TIP3   OH234616   1.476   2.033   4.836
11558TIP3    H134617   1.529   2.004   4.910
11558TIP3    H234618   1.450   1.952   4.792
11559TIP3   OH234619   6.938   0.271   3.577
11559TIP3    H134620   6.938   0.321   3.659
11559TIP3    H234621   6.876   0.200   3.593
11560TIP3   OH234622   3.191   5.760   1.061
11560TIP3    H134623   3.174   5.724   1.148
11560TIP3    H234624   3.236   5.842   1.077
11561TIP3   OH234625   2.167   7.750   3.803
11561TIP3    H134626   2.211   7.681   3.852
11561TIP3    H234627   2.182   7.727   3.711
11562TIP3   OH234628   7.084   3.782   1.418
11562TIP3    H134629   7.115   3.830   1.495
11562TIP3    H234630   7.052   3.850   1.358
11563TIP3   OH234631   0.733   1.372   5.054
11563TIP3    H134632   0.718   1.419   5.137
11563TIP3    H234633   0.682   1.291   5.063
11564TIP3   OH234634   4.500   5.602   5.942
11564TIP3    H134635   4.553   5.667   5.988
11564TIP3    H234636   4.505   5.524   5.997
11565TIP3   OH234637   4.228   7.267   6.614
11565TIP3    H134638   4.264   7.192   6.660
11565TIP3    H234639   4.196   7.232   6.531
11566TIP3   OH234640   2.832   6.518   5.696
11566TIP3    H134641   2.819   6.439   5.644
11566TIP3    H234642   2.761   6.576   5.669
11567TIP3   OH234643   1.827   7.314   2.228
11567TIP3    H134644   1.816   7.230   2.273
11567TIP3    H234645   1.738   7.343   2.210
11568TIP3   OH234646   2.373   2.684   4.713
11568TIP3    H134647   2.338   2.733   4.638
11568TIP3    H234648   2.304   2.689   4.779
11569TIP3   OH234649   5.795   6.675   2.283
11569TIP3    H134650   5.707   6.649   2.257
11569TIP3    H234651   5.839   6.697   2.201
11570TIP3   OH234652   6.751   4.644   6.484
11570TIP3    H134653   6.809   4.605   6.549
11570TIP3    H234654   6.809   4.694   6.426
11571TIP3   OH234655   1.683   3.095   4.986
11571TIP3    H134656   1.770   3.108   4.948
11571TIP3    H234657   1.636   3.044   4.921
11572TIP3   OH234658   0.645   4.186   1.530
11572TIP3    H134659   0.721   4.190   1.588
11572TIP3    H234660   0.633   4.092   1.514
11573TIP3   OH234661   2.601   5.841   3.755
11573TIP3    H134662   2.694   5.844   3.780
11573TIP3    H234663   2.587   5.921   3.705
11574TIP3   OH234664   3.385   4.420   6.090
11574TIP3    H134665   3.461   4.463   6.128
11574TIP3    H234666   3.408   4.327   6.089
11575TIP3   OH234667   7.710   5.782   6.120
11575TIP3    H134668   7.776   5.755   6.184
11575TIP3    H234669   7.631   5.735   6.145
11576TIP3   OH234670   0.078   1.068   1.593
11576TIP3    H134671   0.022   1.015   1.649
11576TIP3    H234672   0.145   1.104   1.652
11577TIP3   OH234673   5.120   7.063   1.846
11577TIP3    H134674   5.180   7.056   1.772
11577TIP3    H234675   5.176   7.056   1.923
11578TIP3   OH234676   2.230   0.477   6.169
11578TIP3    H134677   2.288   0.531   6.114
11578TIP3    H234678   2.260   0.494   6.258
11579TIP3   OH234679   5.191   0.503   5.034
11579TIP3    H134680   5.150   0.436   4.979
11579TIP3    H234681   5.120   0.563   5.056
11580TIP3   OH234682   2.365   2.504   2.228
11580TIP3    H134683   2.288   2.472   2.277
11580TIP3    H234684   2.437   2.498   2.291
11581TIP3   OH234685   7.886   4.145   3.601
11581TIP3    H134686   7.846   4.142   3.514
11581TIP3    H234687   7.876   4.057   3.636
11582TIP3   OH234688   3.608   3.192   4.213
11582TIP3    H134689   3.608   3.147   4.128
11582TIP3    H234690   3.561   3.274   4.198
11583TIP3   OH234691   3.204   3.048   5.619
11583TIP3    H134692   3.149   3.069   5.544
11583TIP3    H234693   3.280   3.105   5.610
11584TIP3   OH234694   0.733   3.184   4.040
11584TIP3    H134695   0.676   3.113   4.070
11584TIP3    H234696   0.723   3.252   4.106
11585TIP3   OH234697   6.996   4.771   6.329
11585TIP3    H134698   6.993   4.723   6.246
11585TIP3    H234699   7.085   4.759   6.361
11586TIP3   OH234700   6.993   5.071   4.958
11586TIP3    H134701   7.026   4.984   4.979
11586TIP3    H234702   6.901   5.069   4.984
11587TIP3   OH234703   4.347   3.429   3.699
11587TIP3    H134704   4.394   3.350   3.726
11587TIP3    H234705   4.396   3.461   3.623
11588TIP3   OH234706   5.279   5.307   3.384
11588TIP3    H134707   5.324   5.228   3.354
11588TIP3    H234708   5.242   5.345   3.304
11589TIP3   OH234709   1.577   3.613   4.511
11589TIP3    H134710   1.583   3.696   4.464
11589TIP3    H234711   1.578   3.638   4.604
11590TIP3   OH234712   2.257   0.723   2.984
11590TIP3    H134713   2.277   0.816   2.984
11590TIP3    H234714   2.334   0.681   3.022
11591TIP3   OH234715   0.208   6.942   0.259
11591TIP3    H134716   0.235   6.923   0.169
11591TIP3    H234717   0.158   7.023   0.252
11592TIP3   OH234718   7.835   6.917   2.806
11592TIP3    H134719   7.887   6.983   2.853
11592TIP3    H234720   7.869   6.833   2.838
11593TIP3   OH234721   6.751   1.869   6.292
11593TIP3    H134722   6.766   1.924   6.369
11593TIP3    H234723   6.725   1.784   6.328
11594TIP3   OH234724   0.417   5.912   4.662
11594TIP3    H134725   0.451   5.958   4.585
11594TIP3    H234726   0.322   5.920   4.654
11595TIP3   OH234727   6.471   6.852   1.509
11595TIP3    H134728   6.402   6.855   1.575
11595TIP3    H234729   6.537   6.914   1.540
11596TIP3   OH234730   2.188   7.734   6.025
11596TIP3    H134731   2.141   7.652   6.039
11596TIP3    H234732   2.239   7.746   6.105
11597TIP3   OH234733   1.924   2.064   1.262
11597TIP3    H134734   1.924   2.013   1.181
11597TIP3    H234735   1.954   2.002   1.329
11598TIP3   OH234736   5.369   6.438   1.647
11598TIP3    H134737   5.449   6.390   1.667
11598TIP3    H234738   5.389   6.486   1.567
11599TIP3   OH234739   4.477   6.162   4.461
11599TIP3    H134740   4.551   6.194   4.511
11599TIP3    H234741   4.400   6.198   4.505
11600TIP3   OH234742   6.021   3.506   0.197
11600TIP3    H134743   5.954   3.455   0.150
11600TIP3    H234744   6.095   3.446   0.205
11601TIP3   OH234745   5.716   4.652   3.865
11601TIP3    H134746   5.688   4.658   3.774
11601TIP3    H234747   5.769   4.573   3.869
11602TIP3   OH234748   4.504   1.623   6.187
11602TIP3    H134749   4.545   1.704   6.218
11602TIP3    H234750   4.532   1.557   6.249
11603TIP3   OH234751   6.742   7.782   4.806
11603TIP3    H134752   6.783   7.822   4.729
11603TIP3    H234753   6.670   7.730   4.769
11604TIP3   OH234754   1.508   7.728   2.462
11604TIP3    H134755   1.447   7.661   2.430
11604TIP3    H234756   1.490   7.804   2.407
11605TIP3   OH234757   4.011   2.742   2.853
11605TIP3    H134758   4.004   2.726   2.759
11605TIP3    H234759   3.927   2.779   2.878
11606TIP3   OH234760   4.675   3.427   0.191
11606TIP3    H134761   4.664   3.337   0.162
11606TIP3    H234762   4.725   3.420   0.273
11607TIP3   OH234763   2.944   1.886   3.756
11607TIP3    H134764   3.019   1.857   3.809
11607TIP3    H234765   2.867   1.864   3.809
11608TIP3   OH234766   1.609   6.024   1.414
11608TIP3    H134767   1.588   6.003   1.505
11608TIP3    H234768   1.564   6.106   1.396
11609TIP3   OH234769   1.096   0.017   0.651
11609TIP3    H134770   1.142   0.086   0.604
11609TIP3    H234771   1.165  -0.035   0.692
11610TIP3   OH234772   1.880   1.406   5.445
11610TIP3    H134773   1.810   1.367   5.498
11610TIP3    H234774   1.958   1.355   5.467
11611TIP3   OH234775   2.608   0.347   6.560
11611TIP3    H134776   2.522   0.336   6.520
11611TIP3    H234777   2.633   0.258   6.587
11612TIP3   OH234778   4.840   1.909   4.459
11612TIP3    H134779   4.859   1.816   4.455
11612TIP3    H234780   4.921   1.949   4.490
11613TIP3   OH234781   5.428   0.023   5.531
11613TIP3    H134782   5.464   0.004   5.445
11613TIP3    H234783   5.478   0.099   5.561
11614TIP3   OH234784   4.917   3.707   5.391
11614TIP3    H134785   4.825   3.735   5.397
11614TIP3    H234786   4.958   3.774   5.336
11615TIP3   OH234787   5.808   5.920   1.608
11615TIP3    H134788   5.835   6.007   1.579
11615TIP3    H234789   5.762   5.883   1.533
11616TIP3   OH234790   1.197   6.926   3.713
11616TIP3    H134791   1.205   6.981   3.791
11616TIP3    H234792   1.255   6.852   3.729
11617TIP3   OH234793   0.826   3.514   3.011
11617TIP3    H134794   0.862   3.565   2.938
11617TIP3    H234795   0.751   3.566   3.042
11618TIP3   OH234796   6.051   4.237   0.244
11618TIP3    H134797   6.139   4.209   0.271
11618TIP3    H234798   6.000   4.238   0.325
11619TIP3   OH234799   2.578   5.455   0.602
11619TIP3    H134800   2.509   5.515   0.632
11619TIP3    H234801   2.658   5.489   0.641
11620TIP3   OH234802   0.226   6.931   2.197
11620TIP3    H134803   0.245   6.971   2.113
11620TIP3    H234804   0.237   6.837   2.182
11621TIP3   OH234805   2.408   4.614   2.258
11621TIP3    H134806   2.434   4.584   2.345
11621TIP3    H234807   2.401   4.534   2.206
11622TIP3   OH234808   0.029   5.419   3.473
11622TIP3    H134809   0.115   5.439   3.510
11622TIP3    H234810  -0.005   5.348   3.528
11623TIP3   OH234811   0.239   5.438   5.931
11623TIP3    H134812   0.229   5.380   5.855
11623TIP3    H234813   0.261   5.523   5.893
11624TIP3   OH234814   0.672   3.193   0.050
11624TIP3    H134815   0.691   3.106   0.086
11624TIP3    H234816   0.652   3.177  -0.042
11625TIP3   OH234817   5.218   4.034   0.116
11625TIP3    H134818   5.212   4.003   0.207
11625TIP3    H234819   5.304   4.004   0.087
11626TIP3   OH234820   7.164   0.085   0.255
11626TIP3    H134821   7.133   0.090   0.164
11626TIP3    H234822   7.158  -0.008   0.277
11627TIP3   OH234823   8.070   2.380   0.493
11627TIP3    H134824   7.996   2.363   0.434
11627TIP3    H234825   8.060   2.317   0.564
11628TIP3   OH234826   1.799   3.398   0.299
11628TIP3    H134827   1.770   3.309   0.275
11628TIP3    H234828   1.767   3.411   0.388
11629TIP3   OH234829   7.188   4.273   3.454
11629TIP3    H134830   7.122   4.333   3.418
11629TIP3    H234831   7.237   4.325   3.517
11630TIP3   OH234832   4.961   3.366   2.125
11630TIP3    H134833   5.052   3.336   2.115
11630TIP3    H234834   4.913   3.287   2.149
11631TIP3   OH234835   7.875   2.781   5.197
11631TIP3    H134836   7.899   2.873   5.194
11631TIP3    H234837   7.822   2.766   5.119
11632TIP3   OH234838   3.154   0.611   0.022
11632TIP3    H134839   3.086   0.552  -0.008
11632TIP3    H234840   3.131   0.632   0.112
11633TIP3   OH234841   0.584   5.505   3.169
11633TIP3    H134842   0.614   5.415   3.183
11633TIP3    H234843   0.491   5.496   3.151
11634TIP3   OH234844   4.893   6.471   3.322
11634TIP3    H134845   4.866   6.380   3.317
11634TIP3    H234846   4.860   6.511   3.242
11635TIP3   OH234847   6.274   0.930   1.056
11635TIP3    H134848   6.261   0.956   1.148
11635TIP3    H234849   6.280   1.014   1.009
11636TIP3   OH234850   1.294   2.382   3.505
11636TIP3    H134851   1.309   2.458   3.561
11636TIP3    H234852   1.379   2.363   3.466
11637TIP3   OH234853   1.254   4.195   1.497
11637TIP3    H134854   1.344   4.166   1.514
11637TIP3    H234855   1.214   4.122   1.449
11638TIP3   OH234856   2.201   7.322   5.149
11638TIP3    H134857   2.252   7.390   5.105
11638TIP3    H234858   2.263   7.251   5.164
11639TIP3   OH234859   0.757   6.526   4.184
11639TIP3    H134860   0.758   6.472   4.105
11639TIP3    H234861   0.794   6.470   4.252
11640TIP3   OH234862   1.873   6.173   1.675
11640TIP3    H134863   1.799   6.147   1.730
11640TIP3    H234864   1.843   6.154   1.586
11641TIP3   OH234865   1.878   5.702   6.706
11641TIP3    H134866   1.845   5.630   6.652
11641TIP3    H234867   1.938   5.660   6.768
11642TIP3   OH234868   4.379   4.845   5.392
11642TIP3    H134869   4.384   4.756   5.427
11642TIP3    H234870   4.315   4.889   5.448
11643TIP3   OH234871   8.043   5.403   0.250
11643TIP3    H134872   8.104   5.439   0.186
11643TIP3    H234873   8.018   5.478   0.304
11644TIP3   OH234874   7.322   3.316   5.208
11644TIP3    H134875   7.300   3.234   5.250
11644TIP3    H234876   7.417   3.311   5.194
11645TIP3   OH234877   0.185   1.982   4.375
11645TIP3    H134878   0.219   2.033   4.301
11645TIP3    H234879   0.145   2.048   4.432
11646TIP3   OH234880   2.052   6.889   4.524
11646TIP3    H134881   2.107   6.964   4.501
11646TIP3    H234882   2.092   6.853   4.604
11647TIP3   OH234883   8.212   4.391   1.291
11647TIP3    H134884   8.226   4.361   1.380
11647TIP3    H234885   8.230   4.315   1.236
11648TIP3   OH234886   3.406   1.528   0.280
11648TIP3    H134887   3.475   1.585   0.315
11648TIP3    H234888   3.426   1.441   0.316
11649TIP3   OH234889   7.615   2.370   3.885
11649TIP3    H134890   7.671   2.385   3.809
11649TIP3    H234891   7.585   2.279   3.876
11650TIP3   OH234892   5.890   5.103   0.855
11650TIP3    H134893   5.866   5.148   0.775
11650TIP3    H234894   5.940   5.167   0.905
11651TIP3   OH234895   6.983   2.183   3.816
11651TIP3    H134896   7.071   2.217   3.829
11651TIP3    H234897   6.996   2.093   3.785
11652TIP3   OH234898   0.434   5.375   4.190
11652TIP3    H134899   0.396   5.380   4.102
11652TIP3    H234900   0.430   5.465   4.223
11653TIP3   OH234901   1.427   6.874   4.077
11653TIP3    H134902   1.363   6.899   4.143
11653TIP3    H234903   1.497   6.831   4.126
11654TIP3   OH234904   7.807   0.231   4.753
11654TIP3    H134905   7.800   0.136   4.744
11654TIP3    H234906   7.718   0.263   4.744
11655TIP3   OH234907   7.039   2.845   6.653
11655TIP3    H134908   7.013   2.753   6.645
11655TIP3    H234909   7.083   2.850   6.738
11656TIP3   OH234910   7.656   3.702   3.345
11656TIP3    H134911   7.583   3.710   3.284
11656TIP3    H234912   7.724   3.655   3.296
11657TIP3   OH234913   8.257   5.784   5.397
11657TIP3    H134914   8.293   5.695   5.388
11657TIP3    H234915   8.162   5.771   5.393
11658TIP3   OH234916   5.522   6.330   2.878
11658TIP3    H134917   5.555   6.408   2.834
11658TIP3    H234918   5.600   6.281   2.902
11659TIP3   OH234919   5.006   7.598   6.593
11659TIP3    H134920   5.052   7.668   6.546
11659TIP3    H234921   4.989   7.532   6.526
11660TIP3   OH234922   3.065   3.586   5.319
11660TIP3    H134923   3.136   3.577   5.255
11660TIP3    H234924   3.101   3.553   5.400
11661TIP3   OH234925   1.091   0.009   2.111
11661TIP3    H134926   1.092  -0.032   2.024
11661TIP3    H234927   1.160   0.075   2.106
11662TIP3   OH234928   6.496   5.635   0.610
11662TIP3    H134929   6.562   5.568   0.596
11662TIP3    H234930   6.541   5.718   0.593
11663TIP3   OH234931   2.437   0.649   6.127
11663TIP3    H134932   2.526   0.641   6.163
11663TIP3    H234933   2.451   0.679   6.037
11664TIP3   OH234934   2.401   1.996   1.475
11664TIP3    H134935   2.337   1.976   1.543
11664TIP3    H234936   2.441   1.912   1.455
11665TIP3   OH234937   0.683   0.062   0.041
11665TIP3    H134938   0.588   0.066   0.042
11665TIP3    H234939   0.709   0.087   0.130
11666TIP3   OH234940   3.551   5.909   2.218
11666TIP3    H134941   3.642   5.891   2.195
11666TIP3    H234942   3.557   5.977   2.285
11667TIP3   OH234943   0.573   0.689   6.518
11667TIP3    H134944   0.516   0.742   6.462
11667TIP3    H234945   0.535   0.697   6.605
11668TIP3   OH234946   2.888   0.885   0.008
11668TIP3    H134947   2.900   0.979   0.024
11668TIP3    H234948   2.968   0.844   0.039
11669TIP3   OH234949   0.195   5.160   1.327
11669TIP3    H134950   0.177   5.240   1.378
11669TIP3    H234951   0.182   5.089   1.390
11670TIP3   OH234952   0.990   6.667   1.290
11670TIP3    H134953   0.995   6.579   1.327
11670TIP3    H234954   1.037   6.661   1.207
11671TIP3   OH234955   6.080   1.087   5.942
11671TIP3    H134956   6.078   0.992   5.928
11671TIP3    H234957   6.004   1.104   5.998
11672TIP3   OH234958   0.451   6.814   3.733
11672TIP3    H134959   0.416   6.783   3.816
11672TIP3    H234960   0.441   6.740   3.673
11673TIP3   OH234961   2.708   2.781   1.412
11673TIP3    H134962   2.698   2.873   1.438
11673TIP3    H234963   2.770   2.783   1.339
11674TIP3   OH234964   7.442   2.916   2.629
11674TIP3    H134965   7.449   2.991   2.571
11674TIP3    H234966   7.531   2.880   2.633
11675TIP3   OH234967   1.963   1.319   1.470
11675TIP3    H134968   2.025   1.386   1.500
11675TIP3    H234969   2.010   1.237   1.480
11676TIP3   OH234970   3.373   3.549   0.856
11676TIP3    H134971   3.350   3.610   0.926
11676TIP3    H234972   3.296   3.493   0.847
11677TIP3   OH234973   6.125   3.077   6.658
11677TIP3    H134974   6.061   3.143   6.683
11677TIP3    H234975   6.171   3.056   6.738
11678TIP3   OH234976   1.684   5.496   0.378
11678TIP3    H134977   1.624   5.421   0.383
11678TIP3    H234978   1.630   5.568   0.345
11679TIP3   OH234979   0.371   3.268   3.943
11679TIP3    H134980   0.315   3.195   3.967
11679TIP3    H234981   0.312   3.342   3.933
11680TIP3   OH234982   2.701   5.844   4.848
11680TIP3    H134983   2.669   5.770   4.796
11680TIP3    H234984   2.792   5.855   4.819
11681TIP3   OH234985   4.398   2.155   5.243
11681TIP3    H134986   4.399   2.087   5.310
11681TIP3    H234987   4.402   2.237   5.292
11682TIP3   OH234988   6.590   3.094   4.297
11682TIP3    H134989   6.680   3.088   4.330
11682TIP3    H234990   6.558   3.177   4.331
11683TIP3   OH234991   3.615   4.414   1.745
11683TIP3    H134992   3.535   4.459   1.719
11683TIP3    H234993   3.595   4.376   1.830
11684TIP3   OH234994   5.840   0.037   3.809
11684TIP3    H134995   5.824   0.036   3.903
11684TIP3    H234996   5.784  -0.033   3.774
11685TIP3   OH234997   7.364   1.080   0.198
11685TIP3    H134998   7.416   1.005   0.169
11685TIP3    H234999   7.427   1.136   0.244
11686TIP3   OH235000   4.549   4.315   2.888
11686TIP3    H135001   4.617   4.280   2.831
11686TIP3    H235002   4.495   4.369   2.830
11687TIP3   OH235003   7.445   0.496   3.397
11687TIP3    H135004   7.520   0.551   3.422
11687TIP3    H235005   7.472   0.455   3.315
11688TIP3   OH235006   5.659   3.577   2.732
11688TIP3    H135007   5.654   3.641   2.661
11688TIP3    H235008   5.650   3.629   2.812
11689TIP3   OH235009   6.762   0.625   5.103
11689TIP3    H135010   6.753   0.712   5.065
11689TIP3    H235011   6.797   0.641   5.191
11690TIP3   OH235012   0.406   6.887   3.389
11690TIP3    H135013   0.430   6.816   3.448
11690TIP3    H235014   0.320   6.862   3.356
11691TIP3   OH235015   2.888   0.800   1.342
11691TIP3    H135016   2.909   0.707   1.356
11691TIP3    H235017   2.899   0.812   1.248
11692TIP3   OH235018   2.673   7.404   5.283
11692TIP3    H135019   2.625   7.355   5.216
11692TIP3    H235020   2.607   7.422   5.350
11693TIP3   OH235021   2.230   7.352   6.650
11693TIP3    H135022   2.317   7.358   6.690
11693TIP3    H235023   2.173   7.328   6.723
11694TIP3   OH235024   0.432   2.149   6.679
11694TIP3    H135025   0.389   2.068   6.650
11694TIP3    H235026   0.372   2.219   6.652
11695TIP3   OH235027   6.593   0.552   5.535
11695TIP3    H135028   6.675   0.560   5.487
11695TIP3    H235029   6.602   0.471   5.586
11696TIP3   OH235030   2.712   0.611   6.197
11696TIP3    H135031   2.807   0.618   6.196
11696TIP3    H235032   2.693   0.539   6.257
11697TIP3   OH235033   0.488   4.740   6.378
11697TIP3    H135034   0.432   4.815   6.395
11697TIP3    H235035   0.505   4.702   6.464
11698TIP3   OH235036   3.940   4.086   1.830
11698TIP3    H135037   3.939   3.995   1.861
11698TIP3    H235038   3.974   4.080   1.741
11699TIP3   OH235039   3.168   6.421   0.846
11699TIP3    H135040   3.092   6.406   0.789
11699TIP3    H235041   3.131   6.432   0.933
11700TIP3   OH235042   1.315   3.548   6.104
11700TIP3    H135043   1.288   3.640   6.107
11700TIP3    H235044   1.409   3.551   6.086
11701TIP3   OH235045   6.160   6.434   3.290
11701TIP3    H135046   6.123   6.348   3.312
11701TIP3    H235047   6.159   6.437   3.194
11702TIP3   OH235048   6.820   6.762   1.786
11702TIP3    H135049   6.794   6.848   1.819
11702TIP3    H235050   6.794   6.701   1.855
11703TIP3   OH235051   0.129   4.518   3.777
11703TIP3    H135052   0.103   4.602   3.815
11703TIP3    H235053   0.190   4.481   3.841
11704TIP3   OH235054   3.363   6.623   0.546
11704TIP3    H135055   3.323   6.682   0.482
11704TIP3    H235056   3.385   6.545   0.496
11705TIP3   OH235057   5.804   5.416   4.120
11705TIP3    H135058   5.854   5.380   4.193
11705TIP3    H235059   5.766   5.340   4.077
11706TIP3   OH235060   7.205   5.853   0.163
11706TIP3    H135061   7.267   5.832   0.232
11706TIP3    H235062   7.161   5.770   0.144
11707TIP3   OH235063   1.990   0.856   5.763
11707TIP3    H135064   2.011   0.943   5.797
11707TIP3    H235065   2.021   0.858   5.672
11708TIP3   OH235066   8.098   1.556   2.997
11708TIP3    H135067   8.008   1.583   3.016
11708TIP3    H235068   8.103   1.554   2.901
11709TIP3   OH235069   8.155   7.321   4.638
11709TIP3    H135070   8.222   7.367   4.689
11709TIP3    H235071   8.155   7.365   4.554
11710TIP3   OH235072   6.120   6.607   3.667
11710TIP3    H135073   6.202   6.579   3.626
11710TIP3    H235074   6.054   6.596   3.600
11711TIP3   OH235075   1.510   1.891   3.934
11711TIP3    H135076   1.469   1.975   3.915
11711TIP3    H235077   1.582   1.912   3.994
11712TIP3   OH235078   7.128   5.680   3.057
11712TIP3    H135079   7.042   5.641   3.048
11712TIP3    H235080   7.188   5.605   3.057
11713TIP3   OH235081   0.743   6.074   4.193
11713TIP3    H135082   0.767   5.989   4.156
11713TIP3    H235083   0.827   6.116   4.212
11714TIP3   OH235084   6.005   3.488   4.950
11714TIP3    H135085   5.970   3.402   4.926
11714TIP3    H235086   5.972   3.503   5.038
11715TIP3   OH235087   3.157   6.126   2.083
11715TIP3    H135088   3.113   6.062   2.028
11715TIP3    H235089   3.245   6.091   2.096
11716TIP3   OH235090   4.858   7.642   0.095
11716TIP3    H135091   4.924   7.616   0.159
11716TIP3    H235092   4.881   7.733   0.073
11717TIP3   OH235093   3.487   6.719   1.631
11717TIP3    H135094   3.499   6.734   1.537
11717TIP3    H235095   3.551   6.776   1.673
11718TIP3   OH235096   3.887   3.598   6.722
11718TIP3    H135097   3.927   3.524   6.768
11718TIP3    H235098   3.813   3.560   6.674
11719TIP3   OH235099   2.195   4.729   3.760
11719TIP3    H135100   2.164   4.641   3.778
11719TIP3    H235101   2.224   4.762   3.845
11720TIP3   OH235102   4.648   4.561   6.179
11720TIP3    H135103   4.689   4.498   6.238
11720TIP3    H235104   4.645   4.642   6.230
11721TIP3   OH235105   1.812   6.591   5.040
11721TIP3    H135106   1.749   6.526   5.009
11721TIP3    H235107   1.894   6.567   4.997
11722TIP3   OH235108   2.860   2.465   0.599
11722TIP3    H135109   2.829   2.556   0.595
11722TIP3    H235110   2.955   2.473   0.610
11723TIP3   OH235111   5.880   4.590   6.233
11723TIP3    H135112   5.967   4.560   6.260
11723TIP3    H235113   5.893   4.623   6.144
11724TIP3   OH235114   3.449   2.908   6.234
11724TIP3    H135115   3.539   2.930   6.260
11724TIP3    H235116   3.458   2.864   6.149
11725TIP3   OH235117   7.642   2.372   6.379
11725TIP3    H135118   7.638   2.375   6.475
11725TIP3    H235119   7.699   2.445   6.356
11726TIP3   OH235120   0.570   5.804   6.458
11726TIP3    H135121   0.648   5.816   6.404
11726TIP3    H235122   0.518   5.883   6.444
11727TIP3   OH235123   5.107   2.859   4.174
11727TIP3    H135124   5.037   2.862   4.109
11727TIP3    H235125   5.187   2.848   4.122
11728TIP3   OH235126   6.484   6.443   4.370
11728TIP3    H135127   6.486   6.402   4.283
11728TIP3    H235128   6.576   6.447   4.397
11729TIP3   OH235129   7.784   4.954   4.281
11729TIP3    H135130   7.835   4.941   4.201
11729TIP3    H235131   7.693   4.944   4.254
11730TIP3   OH235132   0.833   5.194   4.982
11730TIP3    H135133   0.755   5.215   4.930
11730TIP3    H235134   0.870   5.116   4.940
11731TIP3   OH235135   0.542   5.015   4.257
11731TIP3    H135136   0.587   5.100   4.262
11731TIP3    H235137   0.449   5.037   4.261
11732TIP3   OH235138   7.669   0.614   1.869
11732TIP3    H135139   7.730   0.597   1.941
11732TIP3    H235140   7.656   0.709   1.871
11733TIP3   OH235141   6.054   5.705   1.554
11733TIP3    H135142   5.972   5.655   1.554
11733TIP3    H235143   6.094   5.685   1.639
11734TIP3   OH235144   0.281   2.061   5.051
11734TIP3    H135145   0.339   2.036   4.979
11734TIP3    H235146   0.338   2.107   5.112
11735TIP3   OH235147   3.855   4.327   1.665
11735TIP3    H135148   3.934   4.380   1.665
11735TIP3    H235149   3.786   4.388   1.692
11736TIP3   OH235150   6.370   5.170   0.028
11736TIP3    H135151   6.351   5.252  -0.017
11736TIP3    H235152   6.462   5.153   0.008
11737TIP3   OH235153   8.238   2.271   0.861
11737TIP3    H135154   8.308   2.273   0.926
11737TIP3    H235155   8.162   2.307   0.907
11738TIP3   OH235156   5.580   3.459   2.285
11738TIP3    H135157   5.566   3.489   2.196
11738TIP3    H235158   5.675   3.448   2.293
11739TIP3   OH235159   1.639   2.133   1.732
11739TIP3    H135160   1.709   2.138   1.666
11739TIP3    H235161   1.581   2.065   1.699
11740TIP3   OH235162   8.118   4.359   2.199
11740TIP3    H135163   8.162   4.419   2.139
11740TIP3    H235164   8.174   4.357   2.277
11741TIP3   OH235165   6.923   4.801   2.580
11741TIP3    H135166   6.833   4.826   2.602
11741TIP3    H235167   6.913   4.728   2.519
11742TIP3   OH235168   4.192   5.529   1.856
11742TIP3    H135169   4.184   5.473   1.934
11742TIP3    H235170   4.275   5.575   1.869
11743TIP3   OH235171   5.409   4.762   3.359
11743TIP3    H135172   5.361   4.679   3.351
11743TIP3    H235173   5.352   4.827   3.316
11744TIP3   OH235174   2.677   3.145   3.044
11744TIP3    H135175   2.752   3.123   2.988
11744TIP3    H235176   2.601   3.110   2.997
11745TIP3   OH235177   5.946   6.218   0.829
11745TIP3    H135178   5.868   6.220   0.885
11745TIP3    H235179   5.912   6.233   0.741
11746TIP3   OH235180   3.862   2.423   1.156
11746TIP3    H135181   3.890   2.512   1.139
11746TIP3    H235182   3.847   2.385   1.069
11747TIP3   OH235183   1.831   4.907   4.642
11747TIP3    H135184   1.745   4.888   4.678
11747TIP3    H235185   1.829   5.001   4.623
11748TIP3   OH235186   0.606   1.713   1.007
11748TIP3    H135187   0.624   1.795   0.962
11748TIP3    H235188   0.540   1.670   0.953
11749TIP3   OH235189   7.483   1.203   3.191
11749TIP3    H135190   7.532   1.227   3.270
11749TIP3    H235191   7.427   1.131   3.220
11750TIP3   OH235192   5.561   0.314   6.145
11750TIP3    H135193   5.531   0.394   6.189
11750TIP3    H235194   5.569   0.250   6.215
11751TIP3   OH235195   6.183   6.587   4.259
11751TIP3    H135196   6.224   6.660   4.305
11751TIP3    H235197   6.254   6.523   4.247
11752TIP3   OH235198   1.791   3.236   6.399
11752TIP3    H135199   1.810   3.300   6.330
11752TIP3    H235200   1.866   3.242   6.459
11753TIP3   OH235201   5.023   2.908   0.173
11753TIP3    H135202   5.027   2.902   0.268
11753TIP3    H235203   5.106   2.870   0.144
11754TIP3   OH235204   3.483   1.535   1.904
11754TIP3    H135205   3.453   1.520   1.993
11754TIP3    H235206   3.467   1.628   1.889
11755TIP3   OH235207   5.398   7.150   5.453
11755TIP3    H135208   5.354   7.080   5.405
11755TIP3    H235209   5.481   7.162   5.408
11756TIP3   OH235210   2.883   2.795   5.833
11756TIP3    H135211   2.936   2.816   5.756
11756TIP3    H235212   2.935   2.827   5.907
11757TIP3   OH235213   7.221   5.711   2.785
11757TIP3    H135214   7.173   5.711   2.867
11757TIP3    H235215   7.287   5.643   2.795
11758TIP3   OH235216   6.905   4.472   2.890
11758TIP3    H135217   6.855   4.404   2.846
11758TIP3    H235218   6.935   4.529   2.819
11759TIP3   OH235219   3.094  -0.029   2.812
11759TIP3    H135220   3.092   0.049   2.756
11759TIP3    H235221   3.046  -0.003   2.891
11760TIP3   OH235222   6.235   3.648   0.376
11760TIP3    H135223   6.197   3.598   0.304
11760TIP3    H235224   6.330   3.634   0.367
11761TIP3   OH235225   2.338   6.411   1.671
11761TIP3    H135226   2.390   6.348   1.722
11761TIP3    H235227   2.281   6.357   1.616
11762TIP3   OH235228   4.238   5.637   6.160
11762TIP3    H135229   4.245   5.654   6.066
11762TIP3    H235230   4.177   5.563   6.166
11763TIP3   OH235231   0.111   5.541   4.302
11763TIP3    H135232   0.175   5.603   4.336
11763TIP3    H235233   0.100   5.476   4.372
11764TIP3   OH235234   0.499   0.139   1.330
11764TIP3    H135235   0.411   0.112   1.302
11764TIP3    H235236   0.557   0.072   1.294
11765TIP3   OH235237   6.089   5.771   2.549
11765TIP3    H135238   6.136   5.761   2.466
11765TIP3    H235239   6.134   5.842   2.594
11766TIP3   OH235240   6.871   5.379   0.985
11766TIP3    H135241   6.804   5.406   0.923
11766TIP3    H235242   6.936   5.448   0.982
11767TIP3   OH235243   6.632   5.602   3.408
11767TIP3    H135244   6.654   5.691   3.383
11767TIP3    H235245   6.664   5.594   3.498
11768TIP3   OH235246   1.251   0.155   0.456
11768TIP3    H135247   1.254   0.184   0.365
11768TIP3    H235248   1.328   0.195   0.497
11769TIP3   OH235249   1.045   2.106   0.933
11769TIP3    H135250   1.054   2.128   1.026
11769TIP3    H235251   0.965   2.151   0.906
11770TIP3   OH235252   4.830   2.554   2.611
11770TIP3    H135253   4.867   2.632   2.570
11770TIP3    H235254   4.847   2.565   2.705
11771TIP3   OH235255   2.109   6.544   6.004
11771TIP3    H135256   2.174   6.561   6.072
11771TIP3    H235257   2.030   6.587   6.035
11772TIP3   OH235258   4.106   6.836   3.259
11772TIP3    H135259   4.124   6.867   3.348
11772TIP3    H235260   4.130   6.743   3.261
11773TIP3   OH235261   7.119   3.491   5.125
11773TIP3    H135262   7.159   3.573   5.155
11773TIP3    H235263   7.180   3.423   5.153
11774TIP3   OH235264   2.386   5.605   4.198
11774TIP3    H135265   2.481   5.615   4.203
11774TIP3    H235266   2.361   5.568   4.283
11775TIP3   OH235267   1.031   6.132   4.244
11775TIP3    H135268   1.009   6.084   4.324
11775TIP3    H235269   1.120   6.105   4.223
11776TIP3   OH235270   0.737   0.919   0.922
11776TIP3    H135271   0.652   0.894   0.958
11776TIP3    H235272   0.755   0.854   0.854
11777TIP3   OH235273   3.641   1.956   1.437
11777TIP3    H135274   3.696   2.034   1.448
11777TIP3    H235275   3.630   1.922   1.526
11778TIP3   OH235276   6.478   1.386   5.243
11778TIP3    H135277   6.468   1.335   5.323
11778TIP3    H235278   6.443   1.328   5.174
11779TIP3   OH235279   3.637   3.141   6.535
11779TIP3    H135280   3.633   3.105   6.446
11779TIP3    H235281   3.553   3.117   6.574
11780TIP3   OH235282   5.466   2.736   3.755
11780TIP3    H135283   5.525   2.710   3.685
11780TIP3    H235284   5.381   2.700   3.729
11781TIP3   OH235285   6.516   6.268   2.298
11781TIP3    H135286   6.553   6.356   2.309
11781TIP3    H235287   6.592   6.211   2.284
11782TIP3   OH235288   6.352   4.136   5.728
11782TIP3    H135289   6.425   4.147   5.788
11782TIP3    H235290   6.279   4.111   5.783
11783TIP3   OH235291   1.321   4.929   3.410
11783TIP3    H135292   1.336   4.904   3.318
11783TIP3    H235293   1.323   4.846   3.458
11784TIP3   OH235294   5.848   6.859   5.019
11784TIP3    H135295   5.778   6.877   4.957
11784TIP3    H235296   5.871   6.945   5.055
11785TIP3   OH235297   6.683   4.611   4.873
11785TIP3    H135298   6.700   4.667   4.950
11785TIP3    H235299   6.738   4.534   4.887
11786TIP3   OH235300   1.335   2.409   5.550
11786TIP3    H135301   1.371   2.434   5.635
11786TIP3    H235302   1.325   2.492   5.503
11787TIP3   OH235303   1.393   2.560   4.086
11787TIP3    H135304   1.334   2.516   4.147
11787TIP3    H235305   1.448   2.616   4.140
11788TIP3   OH235306   3.939   7.446   2.077
11788TIP3    H135307   3.937   7.351   2.086
11788TIP3    H235308   4.023   7.472   2.115
11789TIP3   OH235309   3.432   7.092   3.318
11789TIP3    H135310   3.477   7.111   3.236
11789TIP3    H235311   3.418   6.998   3.317
11790TIP3   OH235312   1.205   7.726   2.116
11790TIP3    H135313   1.177   7.662   2.050
11790TIP3    H235314   1.125   7.746   2.165
11791TIP3   OH235315   2.747   5.356   1.038
11791TIP3    H135316   2.837   5.388   1.027
11791TIP3    H235317   2.750   5.265   1.010
11792TIP3   OH235318   6.922   1.291   0.883
11792TIP3    H135319   7.013   1.289   0.910
11792TIP3    H235320   6.886   1.371   0.923
11793TIP3   OH235321   5.007   1.260   0.403
11793TIP3    H135322   4.971   1.258   0.492
11793TIP3    H235323   4.937   1.225   0.348
11794TIP3   OH235324   2.769   0.299   0.411
11794TIP3    H135325   2.850   0.327   0.453
11794TIP3    H235326   2.763   0.353   0.332
11795TIP3   OH235327   5.947   5.216   0.612
11795TIP3    H135328   5.897   5.158   0.555
11795TIP3    H235329   5.897   5.297   0.614
11796TIP3   OH235330   6.394   1.209   0.625
11796TIP3    H135331   6.427   1.281   0.572
11796TIP3    H235332   6.473   1.169   0.663
11797TIP3   OH235333   3.757   2.615   5.346
11797TIP3    H135334   3.668   2.600   5.376
11797TIP3    H235335   3.750   2.613   5.250
11798TIP3   OH235336   3.135   4.099   6.219
11798TIP3    H135337   3.055   4.143   6.249
11798TIP3    H235338   3.114   4.070   6.131
11799TIP3   OH235339   0.856   2.708   3.348
11799TIP3    H135340   0.883   2.792   3.313
11799TIP3    H235341   0.875   2.644   3.279
11800TIP3   OH235342   4.336   2.162   4.688
11800TIP3    H135343   4.391   2.083   4.684
11800TIP3    H235344   4.305   2.175   4.599
11801TIP3   OH235345   1.576   7.485   0.710
11801TIP3    H135346   1.508   7.532   0.759
11801TIP3    H235347   1.536   7.400   0.690
11802TIP3   OH235348   4.217   7.088   5.423
11802TIP3    H135349   4.216   7.002   5.465
11802TIP3    H235350   4.208   7.070   5.329
11803TIP3   OH235351   4.084   5.278   2.539
11803TIP3    H135352   3.996   5.290   2.504
11803TIP3    H235353   4.133   5.238   2.467
11804TIP3   OH235354   0.210   1.062   6.133
11804TIP3    H135355   0.271   0.990   6.115
11804TIP3    H235356   0.163   1.034   6.211
11805TIP3   OH235357   6.684   0.389   4.892
11805TIP3    H135358   6.725   0.357   4.972
11805TIP3    H235359   6.636   0.468   4.919
11806TIP3   OH235360   0.353   4.863   0.261
11806TIP3    H135361   0.266   4.902   0.272
11806TIP3    H235362   0.345   4.776   0.301
11807TIP3   OH235363   2.834   4.931   1.830
11807TIP3    H135364   2.905   4.983   1.867
11807TIP3    H235365   2.819   4.969   1.743
11808TIP3   OH235366   7.537   2.028   6.389
11808TIP3    H135367   7.555   1.938   6.416
11808TIP3    H235368   7.475   2.061   6.454
11809TIP3   OH235369   4.511   0.725   1.999
11809TIP3    H135370   4.507   0.669   1.921
11809TIP3    H235371   4.575   0.793   1.975
11810TIP3   OH235372   7.774   2.637   6.438
11810TIP3    H135373   7.684   2.641   6.469
11810TIP3    H235374   7.784   2.714   6.382
11811TIP3   OH235375   6.677   4.813   0.103
11811TIP3    H135376   6.678   4.851   0.191
11811TIP3    H235377   6.588   4.778   0.093
11812TIP3   OH235378   0.554   4.838   5.117
11812TIP3    H135379   0.639   4.796   5.103
11812TIP3    H235380   0.536   4.826   5.211
11813TIP3   OH235381   1.182   5.599   5.898
11813TIP3    H135382   1.099   5.605   5.946
11813TIP3    H235383   1.238   5.665   5.940
11814TIP3   OH235384   0.923   7.559   4.607
11814TIP3    H135385   0.875   7.514   4.538
11814TIP3    H235386   1.011   7.520   4.605
11815TIP3   OH235387   7.300   3.283   4.111
11815TIP3    H135388   7.304   3.189   4.095
11815TIP3    H235389   7.208   3.306   4.101
11816TIP3   OH235390   0.338   3.052   1.822
11816TIP3    H135391   0.352   3.060   1.727
11816TIP3    H235392   0.423   3.024   1.856
11817TIP3   OH235393   2.716   0.248   1.998
11817TIP3    H135394   2.803   0.279   2.023
11817TIP3    H235395   2.660   0.325   2.006
11818TIP3   OH235396   4.533   7.066   6.337
11818TIP3    H135397   4.522   7.039   6.428
11818TIP3    H235398   4.596   7.138   6.341
11819TIP3   OH235399   1.060   2.649   2.107
11819TIP3    H135400   0.970   2.637   2.075
11819TIP3    H235401   1.096   2.561   2.111
11820TIP3   OH235402   6.944   6.688   6.536
11820TIP3    H135403   6.939   6.718   6.445
11820TIP3    H235404   6.892   6.608   6.537
11821TIP3   OH235405   1.349   6.798   4.541
11821TIP3    H135406   1.393   6.738   4.481
11821TIP3    H235407   1.264   6.758   4.558
11822TIP3   OH235408   3.437   5.285   0.993
11822TIP3    H135409   3.420   5.333   0.912
11822TIP3    H235410   3.518   5.325   1.027
11823TIP3   OH235411   3.493   5.635   6.803
11823TIP3    H135412   3.442   5.615   6.725
11823TIP3    H235413   3.584   5.633   6.773
11824TIP3   OH235414   4.038   2.381   2.011
11824TIP3    H135415   4.022   2.396   2.104
11824TIP3    H235416   3.980   2.308   1.988
11825TIP3   OH235417   5.062   4.848   5.861
11825TIP3    H135418   5.016   4.932   5.868
11825TIP3    H235419   5.101   4.835   5.948
11826TIP3   OH235420   2.680   3.488   6.574
11826TIP3    H135421   2.757   3.540   6.599
11826TIP3    H235422   2.611   3.553   6.559
11827TIP3   OH235423   2.563   0.001   0.017
11827TIP3    H135424   2.610   0.026   0.096
11827TIP3    H235425   2.612   0.043  -0.054
11828TIP3   OH235426   5.821   1.880   5.863
11828TIP3    H135427   5.904   1.859   5.908
11828TIP3    H235428   5.848   1.909   5.776
11829TIP3   OH235429   1.171   3.133   0.954
11829TIP3    H135430   1.252   3.104   0.913
11829TIP3    H235431   1.103   3.119   0.888
11830TIP3   OH235432   1.152   1.851   2.943
11830TIP3    H135433   1.231   1.819   2.899
11830TIP3    H235434   1.135   1.788   3.012
11831TIP3   OH235435   1.341   2.698   1.214
11831TIP3    H135436   1.247   2.682   1.209
11831TIP3    H235437   1.371   2.639   1.284
11832TIP3   OH235438   6.319   3.328   5.748
11832TIP3    H135439   6.400   3.377   5.763
11832TIP3    H235440   6.341   3.238   5.771
11833TIP3   OH235441   7.785   7.689   0.707
11833TIP3    H135442   7.802   7.596   0.717
11833TIP3    H235443   7.701   7.703   0.750
11834TIP3   OH235444   5.992   3.908   3.807
11834TIP3    H135445   5.941   3.878   3.881
11834TIP3    H235446   6.075   3.859   3.813
11835TIP3   OH235447   1.424   2.550   0.819
11835TIP3    H135448   1.468   2.629   0.788
11835TIP3    H235449   1.452   2.542   0.911
11836TIP3   OH235450   3.920   0.709   2.684
11836TIP3    H135451   4.015   0.720   2.693
11836TIP3    H235452   3.907   0.684   2.593
11837TIP3   OH235453   7.682   1.322   6.662
11837TIP3    H135454   7.628   1.270   6.603
11837TIP3    H235455   7.771   1.311   6.630
11838TIP3   OH235456   7.814   5.555   1.078
11838TIP3    H135457   7.877   5.498   1.122
11838TIP3    H235458   7.737   5.556   1.136
11839TIP3   OH235459   1.042   4.261   1.295
11839TIP3    H135460   1.091   4.267   1.378
11839TIP3    H235461   0.954   4.290   1.318
11840TIP3   OH235462   5.403   0.802   5.159
11840TIP3    H135463   5.333   0.809   5.094
11840TIP3    H235464   5.358   0.785   5.241
11841TIP3   OH235465   1.183  -0.008   3.035
11841TIP3    H135466   1.266  -0.032   2.994
11841TIP3    H235467   1.207   0.052   3.105
11842TIP3   OH235468   3.858   6.452   3.693
11842TIP3    H135469   3.926   6.392   3.726
11842TIP3    H235470   3.822   6.407   3.617
11843TIP3   OH235471   3.357   7.491   4.318
11843TIP3    H135472   3.312   7.508   4.400
11843TIP3    H235473   3.346   7.397   4.304
11844TIP3   OH235474   5.638   5.049   3.235
11844TIP3    H135475   5.625   5.143   3.220
11844TIP3    H235476   5.654   5.012   3.148
11845TIP3   OH235477   3.309   4.448   3.255
11845TIP3    H135478   3.393   4.482   3.222
11845TIP3    H235479   3.249   4.459   3.181
11846TIP3   OH235480   3.329   1.089   2.865
11846TIP3    H135481   3.310   1.006   2.820
11846TIP3    H235482   3.390   1.065   2.935
11847TIP3   OH235483   3.947   5.754   5.166
11847TIP3    H135484   3.950   5.702   5.085
11847TIP3    H235485   3.909   5.838   5.140
11848TIP3   OH235486   4.271   4.281   2.579
11848TIP3    H135487   4.183   4.320   2.570
11848TIP3    H235488   4.331   4.354   2.562
11849TIP3   OH235489   1.364   0.669   0.212
11849TIP3    H135490   1.328   0.758   0.205
11849TIP3    H235491   1.291   0.617   0.247
11850TIP3   OH235492   7.079   0.211   6.018
11850TIP3    H135493   7.022   0.136   6.001
11850TIP3    H235494   7.156   0.174   6.060
11851TIP3   OH235495   2.509   2.288   6.490
11851TIP3    H135496   2.432   2.274   6.545
11851TIP3    H235497   2.502   2.379   6.460
11852TIP3   OH235498   0.023   2.969   3.020
11852TIP3    H135499  -0.010   2.879   3.029
11852TIP3    H235500   0.057   2.990   3.106
11853TIP3   OH235501   7.988   4.684   4.523
11853TIP3    H135502   7.923   4.744   4.558
11853TIP3    H235503   8.032   4.733   4.454
11854TIP3   OH235504   1.784   0.325   2.220
11854TIP3    H135505   1.822   0.405   2.184
11854TIP3    H235506   1.755   0.350   2.308
11855TIP3   OH235507   6.351   5.625   3.338
11855TIP3    H135508   6.431   5.579   3.365
11855TIP3    H235509   6.349   5.703   3.393
11856TIP3   OH235510   5.074   4.740   2.748
11856TIP3    H135511   5.007   4.680   2.718
11856TIP3    H235512   5.157   4.695   2.732
11857TIP3   OH235513   2.067   4.529   0.133
11857TIP3    H135514   2.160   4.534   0.158
11857TIP3    H235515   2.063   4.459   0.069
11858TIP3   OH235516   7.798   7.541   6.780
11858TIP3    H135517   7.745   7.475   6.823
11858TIP3    H235518   7.782   7.528   6.686
11859TIP3   OH235519   3.509   5.915   3.565
11859TIP3    H135520   3.475   5.917   3.654
11859TIP3    H235521   3.464   5.842   3.523
11860TIP3   OH235522   3.558   1.287   6.391
11860TIP3    H135523   3.579   1.214   6.333
11860TIP3    H235524   3.475   1.322   6.357
11861TIP3   OH235525   8.038   1.009   6.169
11861TIP3    H135526   7.989   1.075   6.121
11861TIP3    H235527   8.101   0.976   6.106
11862TIP3   OH235528   0.623   2.914   2.618
11862TIP3    H135529   0.567   2.842   2.590
11862TIP3    H235530   0.647   2.958   2.537
11863TIP3   OH235531   2.854   2.627   2.244
11863TIP3    H135532   2.800   2.669   2.177
11863TIP3    H235533   2.792   2.583   2.302
11864TIP3   OH235534   2.728   0.024   6.069
11864TIP3    H135535   2.682  -0.018   5.996
11864TIP3    H235536   2.712   0.117   6.056
11865TIP3   OH235537   6.571   3.415   2.984
11865TIP3    H135538   6.621   3.344   3.024
11865TIP3    H235539   6.637   3.483   2.966
11866TIP3   OH235540   4.745   7.704   4.598
11866TIP3    H135541   4.833   7.738   4.615
11866TIP3    H235542   4.732   7.717   4.504
11867TIP3   OH235543   5.513   1.197   2.379
11867TIP3    H135544   5.431   1.189   2.428
11867TIP3    H235545   5.548   1.108   2.377
11868TIP3   OH235546   0.817   1.708   1.500
11868TIP3    H135547   0.884   1.663   1.448
11868TIP3    H235548   0.866   1.759   1.564
11869TIP3   OH235549   1.329   7.536   2.674
11869TIP3    H135550   1.265   7.525   2.744
11869TIP3    H235551   1.394   7.468   2.691
11870TIP3   OH235552   7.393   3.968   1.966
11870TIP3    H135553   7.298   3.962   1.957
11870TIP3    H235554   7.407   4.037   2.031
11871TIP3   OH235555   6.630   7.233   2.675
11871TIP3    H135556   6.661   7.281   2.598
11871TIP3    H235557   6.535   7.227   2.663
11872TIP3   OH235558   4.117   1.232   0.087
11872TIP3    H135559   4.140   1.265   0.000
11872TIP3    H235560   4.174   1.279   0.147
11873TIP3   OH235561   0.938   6.688   3.008
11873TIP3    H135562   0.998   6.753   3.044
11873TIP3    H235563   0.953   6.691   2.913
11874TIP3   OH235564   1.414   1.067   0.736
11874TIP3    H135565   1.364   0.989   0.758
11874TIP3    H235566   1.410   1.122   0.814
11875TIP3   OH235567   0.713   1.380   4.461
11875TIP3    H135568   0.686   1.455   4.514
11875TIP3    H235569   0.682   1.399   4.373
11876TIP3   OH235570   4.391   2.758   1.189
11876TIP3    H135571   4.390   2.689   1.255
11876TIP3    H235572   4.479   2.754   1.151
11877TIP3   OH235573   5.480   5.650   2.508
11877TIP3    H135574   5.510   5.687   2.425
11877TIP3    H235575   5.535   5.572   2.520
11878TIP3   OH235576   6.445   5.779   3.897
11878TIP3    H135577   6.416   5.870   3.898
11878TIP3    H235578   6.367   5.729   3.918
11879TIP3   OH235579   5.743   4.280   2.334
11879TIP3    H135580   5.786   4.338   2.397
11879TIP3    H235581   5.674   4.334   2.296
11880TIP3   OH235582   4.359   6.029   2.302
11880TIP3    H135583   4.388   5.938   2.296
11880TIP3    H235584   4.387   6.068   2.220
11881TIP3   OH235585   7.795   2.031   0.799
11881TIP3    H135586   7.866   2.085   0.764
11881TIP3    H235587   7.794   2.051   0.893
11882TIP3   OH235588   8.008   0.554   0.559
11882TIP3    H135589   8.056   0.505   0.625
11882TIP3    H235590   7.998   0.641   0.597
11883TIP3   OH235591   5.006   6.105   0.086
11883TIP3    H135592   4.972   6.167   0.021
11883TIP3    H235593   5.100   6.121   0.086
11884TIP3   OH235594   6.752   2.336   4.928
11884TIP3    H135595   6.749   2.361   4.836
11884TIP3    H235596   6.742   2.418   4.976
11885TIP3   OH235597   3.732   6.306   3.225
11885TIP3    H135598   3.643   6.341   3.220
11885TIP3    H235599   3.758   6.293   3.134
11886TIP3   OH235600   1.190   1.739   4.758
11886TIP3    H135601   1.169   1.813   4.701
11886TIP3    H235602   1.151   1.664   4.715
11887TIP3   OH235603   3.862   7.283   6.344
11887TIP3    H135604   3.794   7.231   6.389
11887TIP3    H235605   3.855   7.257   6.252
11888TIP3   OH235606   1.543   7.359   2.981
11888TIP3    H135607   1.479   7.375   2.911
11888TIP3    H235608   1.628   7.375   2.940
11889TIP3   OH235609   5.284   0.344   1.082
11889TIP3    H135610   5.251   0.335   1.171
11889TIP3    H235611   5.345   0.417   1.086
11890TIP3   OH235612   5.001   2.912   0.772
11890TIP3    H135613   4.997   2.872   0.686
11890TIP3    H235614   4.933   2.868   0.823
11891TIP3   OH235615   3.517   6.360   0.168
11891TIP3    H135616   3.492   6.450   0.190
11891TIP3    H235617   3.611   6.355   0.187
11892TIP3   OH235618   6.029   7.454   1.629
11892TIP3    H135619   6.021   7.550   1.627
11892TIP3    H235620   6.121   7.438   1.608
11893TIP3   OH235621   1.564   3.440   4.199
11893TIP3    H135622   1.507   3.412   4.271
11893TIP3    H235623   1.541   3.532   4.185
11894TIP3   OH235624   0.778   4.800   4.267
11894TIP3    H135625   0.745   4.762   4.349
11894TIP3    H235626   0.729   4.882   4.258
11895TIP3   OH235627   0.993   2.360   4.949
11895TIP3    H135628   0.906   2.343   4.914
11895TIP3    H235629   1.006   2.292   5.015
11896TIP3   OH235630   4.778   1.371   1.512
11896TIP3    H135631   4.799   1.416   1.430
11896TIP3    H235632   4.798   1.435   1.580
11897TIP3   OH235633   1.398   4.437   4.040
11897TIP3    H135634   1.394   4.530   4.062
11897TIP3    H235635   1.419   4.435   3.947
11898TIP3   OH235636   5.275   3.863   1.960
11898TIP3    H135637   5.255   3.780   2.001
11898TIP3    H235638   5.262   3.848   1.866
11899TIP3   OH235639   6.172   4.054   1.414
11899TIP3    H135640   6.247   4.112   1.397
11899TIP3    H235641   6.182   3.983   1.351
11900TIP3   OH235642   2.500   5.133   6.551
11900TIP3    H135643   2.476   5.218   6.515
11900TIP3    H235644   2.571   5.102   6.493
11901TIP3   OH235645   4.515   0.937   3.980
11901TIP3    H135646   4.435   0.982   3.951
11901TIP3    H235647   4.503   0.846   3.953
11902TIP3   OH235648   5.650   2.343   4.608
11902TIP3    H135649   5.623   2.418   4.554
11902TIP3    H235650   5.632   2.372   4.698
11903TIP3   OH235651   7.666   1.454   2.678
11903TIP3    H135652   7.693   1.420   2.763
11903TIP3    H235653   7.705   1.394   2.615
11904TIP3   OH235654   4.535   3.950   0.140
11904TIP3    H135655   4.531   4.044   0.121
11904TIP3    H235656   4.488   3.908   0.068
11905TIP3   OH235657   5.617   0.945   6.485
11905TIP3    H135658   5.594   0.958   6.577
11905TIP3    H235659   5.637   1.032   6.452
11906TIP3   OH235660   7.714   2.337   6.054
11906TIP3    H135661   7.648   2.277   6.089
11906TIP3    H235662   7.790   2.324   6.111
11907TIP3   OH235663   7.257   1.764   3.248
11907TIP3    H135664   7.350   1.754   3.270
11907TIP3    H235665   7.245   1.709   3.170
11908TIP3   OH235666   5.689   6.585   0.946
11908TIP3    H135667   5.750   6.533   0.999
11908TIP3    H235668   5.743   6.617   0.873
11909TIP3   OH235669   3.099   6.628   2.671
11909TIP3    H135670   3.015   6.613   2.713
11909TIP3    H235671   3.079   6.642   2.579
11910TIP3   OH235672   3.797   1.633   4.653
11910TIP3    H135673   3.855   1.675   4.717
11910TIP3    H235674   3.821   1.673   4.570
11911TIP3   OH235675   1.406   6.757   3.790
11911TIP3    H135676   1.414   6.811   3.868
11911TIP3    H235677   1.494   6.720   3.777
11912TIP3   OH235678   3.439   0.725   5.490
11912TIP3    H135679   3.423   0.809   5.448
11912TIP3    H235680   3.520   0.693   5.451
11913TIP3   OH235681   5.521   2.444   0.745
11913TIP3    H135682   5.475   2.365   0.718
11913TIP3    H235683   5.493   2.511   0.682
11914TIP3   OH235684   0.918   4.383   5.090
11914TIP3    H135685   0.998   4.417   5.130
11914TIP3    H235686   0.862   4.359   5.164
11915TIP3   OH235687   5.254   5.236   0.653
11915TIP3    H135688   5.242   5.141   0.661
11915TIP3    H235689   5.246   5.269   0.742
11916TIP3   OH235690   1.247   0.833   4.916
11916TIP3    H135691   1.247   0.786   4.999
11916TIP3    H235692   1.256   0.764   4.850
11917TIP3   OH235693   2.321   6.443   5.844
11917TIP3    H135694   2.276   6.382   5.786
11917TIP3    H235695   2.251   6.485   5.894
11918TIP3   OH235696   2.901   1.621   5.630
11918TIP3    H135697   2.895   1.603   5.537
11918TIP3    H235698   2.984   1.668   5.641
11919TIP3   OH235699   3.293   6.372   5.214
11919TIP3    H135700   3.365   6.342   5.158
11919TIP3    H235701   3.215   6.334   5.175
11920TIP3   OH235702   2.123   0.558   3.950
11920TIP3    H135703   2.096   0.591   3.864
11920TIP3    H235704   2.167   0.475   3.931
11921TIP3   OH235705   0.870   5.262   2.529
11921TIP3    H135706   0.793   5.207   2.518
11921TIP3    H235707   0.848   5.344   2.484
11922TIP3   OH235708   5.044   4.824   1.415
11922TIP3    H135709   5.138   4.811   1.407
11922TIP3    H235710   5.011   4.814   1.325
11923TIP3   OH235711   4.185   7.766   2.959
11923TIP3    H135712   4.110   7.709   2.974
11923TIP3    H235713   4.197   7.765   2.864
11924TIP3   OH235714   7.699   1.561   1.820
11924TIP3    H135715   7.630   1.628   1.819
11924TIP3    H235716   7.779   1.609   1.801
11925TIP3   OH235717   4.081   2.399   5.211
11925TIP3    H135718   4.141   2.378   5.140
11925TIP3    H235719   4.087   2.494   5.220
11926TIP3   OH235720   1.893   0.897   6.116
11926TIP3    H135721   1.843   0.963   6.164
11926TIP3    H235722   1.962   0.869   6.177
11927TIP3   OH235723   0.649   2.316   5.370
11927TIP3    H135724   0.702   2.374   5.315
11927TIP3    H235725   0.617   2.372   5.440
11928TIP3   OH235726   2.187   2.282   4.644
11928TIP3    H135727   2.220   2.343   4.578
11928TIP3    H235728   2.095   2.305   4.653
11929TIP3   OH235729   2.934   5.975   2.886
11929TIP3    H135730   2.952   5.965   2.793
11929TIP3    H235731   2.840   5.994   2.890
11930TIP3   OH235732   5.670   6.319   2.209
11930TIP3    H135733   5.640   6.273   2.130
11930TIP3    H235734   5.752   6.276   2.233
11931TIP3   OH235735   7.082   1.869   6.571
11931TIP3    H135736   7.116   1.915   6.648
11931TIP3    H235737   6.987   1.884   6.574
11932TIP3   OH235738   4.456   3.818   4.887
11932TIP3    H135739   4.477   3.731   4.855
11932TIP3    H235740   4.490   3.819   4.977
11933TIP3   OH235741   0.995   6.386   5.041
11933TIP3    H135742   1.008   6.414   5.131
11933TIP3    H235743   0.908   6.420   5.017
11934TIP3   OH235744   4.116   3.662   3.552
11934TIP3    H135745   4.029   3.655   3.592
11934TIP3    H235746   4.171   3.698   3.621
11935TIP3   OH235747   6.632   4.412   5.106
11935TIP3    H135748   6.566   4.422   5.037
11935TIP3    H235749   6.615   4.324   5.142
11936TIP3   OH235750   3.084   4.547   0.556
11936TIP3    H135751   3.159   4.538   0.615
11936TIP3    H235752   3.009   4.521   0.609
11937TIP3   OH235753   1.911   0.858   3.888
11937TIP3    H135754   1.817   0.851   3.903
11937TIP3    H235755   1.951   0.798   3.951
11938TIP3   OH235756   0.062   1.344   4.786
11938TIP3    H135757   0.054   1.392   4.869
11938TIP3    H235758  -0.020   1.363   4.740
11939TIP3   OH235759   1.487   0.180   4.213
11939TIP3    H135760   1.578   0.178   4.243
11939TIP3    H235761   1.483   0.255   4.154
11940TIP3   OH235762   0.594   6.477   3.773
11940TIP3    H135763   0.624   6.520   3.693
11940TIP3    H235764   0.583   6.549   3.835
11941TIP3   OH235765   7.622   0.575   4.216
11941TIP3    H135766   7.651   0.546   4.130
11941TIP3    H235767   7.602   0.495   4.263
11942TIP3   OH235768   6.958   2.926   0.411
11942TIP3    H135769   7.010   3.001   0.441
11942TIP3    H235770   6.872   2.940   0.450
11943TIP3   OH235771   7.820   1.009   3.298
11943TIP3    H135772   7.874   1.081   3.328
11943TIP3    H235773   7.827   1.012   3.202
11944TIP3   OH235774   8.176   1.319   1.658
11944TIP3    H135775   8.144   1.271   1.734
11944TIP3    H235776   8.232   1.387   1.695
11945TIP3   OH235777   4.771   7.587   2.864
11945TIP3    H135778   4.758   7.655   2.797
11945TIP3    H235779   4.843   7.620   2.917
11946TIP3   OH235780   5.559   1.178   1.831
11946TIP3    H135781   5.581   1.185   1.924
11946TIP3    H235782   5.613   1.244   1.788
11947TIP3   OH235783   3.612   2.774   1.063
11947TIP3    H135784   3.530   2.809   1.098
11947TIP3    H235785   3.590   2.742   0.976
11948TIP3   OH235786   5.158   0.715   3.733
11948TIP3    H135787   5.205   0.742   3.812
11948TIP3    H235788   5.218   0.654   3.689
11949TIP3   OH235789   2.143   0.817   4.337
11949TIP3    H135790   2.061   0.859   4.310
11949TIP3    H235791   2.164   0.858   4.421
11950TIP3   OH235792   3.142   4.150   1.012
11950TIP3    H135793   3.063   4.191   0.978
11950TIP3    H235794   3.114   4.063   1.041
11951TIP3   OH235795   3.760   3.608   1.894
11951TIP3    H135796   3.664   3.609   1.896
11951TIP3    H235797   3.784   3.701   1.892
11952TIP3   OH235798   1.850   3.366   2.253
11952TIP3    H135799   1.767   3.358   2.205
11952TIP3    H235800   1.837   3.311   2.331
11953TIP3   OH235801   5.951   5.860   0.977
11953TIP3    H135802   5.980   5.916   1.049
11953TIP3    H235803   5.899   5.791   1.020
11954TIP3   OH235804   4.730   1.268   0.642
11954TIP3    H135805   4.674   1.281   0.718
11954TIP3    H235806   4.817   1.294   0.670
11955TIP3   OH235807   5.760   1.663   6.597
11955TIP3    H135808   5.741   1.754   6.621
11955TIP3    H235809   5.775   1.666   6.502
11956TIP3   OH235810   4.556   1.081   3.374
11956TIP3    H135811   4.576   1.077   3.468
11956TIP3    H235812   4.567   0.991   3.344
11957TIP3   OH235813   6.862   5.904   2.937
11957TIP3    H135814   6.769   5.893   2.955
11957TIP3    H235815   6.874   5.867   2.850
11958TIP3   OH235816   7.980   6.871   2.107
11958TIP3    H135817   8.072   6.851   2.091
11958TIP3    H235818   7.932   6.800   2.065
11959TIP3   OH235819   7.909   5.735   6.313
11959TIP3    H135820   8.001   5.762   6.310
11959TIP3    H235821   7.907   5.667   6.380
11960TIP3   OH235822   7.637   1.687   5.285
11960TIP3    H135823   7.627   1.592   5.279
11960TIP3    H235824   7.565   1.715   5.340
11961TIP3   OH235825   3.729   7.017   3.960
11961TIP3    H135826   3.684   6.964   3.894
11961TIP3    H235827   3.797   7.063   3.912
11962TIP3   OH235828   2.095   3.833   6.063
11962TIP3    H135829   2.161   3.766   6.042
11962TIP3    H235830   2.074   3.818   6.155
11963TIP3   OH235831   0.323   7.534   3.754
11963TIP3    H135832   0.367   7.454   3.783
11963TIP3    H235833   0.252   7.504   3.698
11964TIP3   OH235834   3.747   0.262   0.613
11964TIP3    H135835   3.765   0.223   0.699
11964TIP3    H235836   3.757   0.356   0.627
11965TIP3   OH235837   3.664   5.315   4.318
11965TIP3    H135838   3.603   5.339   4.388
11965TIP3    H235839   3.747   5.299   4.363
11966TIP3   OH235840   3.000   4.214   4.345
11966TIP3    H135841   3.089   4.243   4.366
11966TIP3    H235842   2.992   4.128   4.386
11967TIP3   OH235843   2.220   5.867   4.366
11967TIP3    H135844   2.144   5.926   4.364
11967TIP3    H235845   2.281   5.908   4.428
11968TIP3   OH235846   0.635   7.134   6.291
11968TIP3    H135847   0.550   7.130   6.246
11968TIP3    H235848   0.671   7.046   6.284
11969TIP3   OH235849   0.985   5.128   0.896
11969TIP3    H135850   1.035   5.048   0.914
11969TIP3    H235851   0.975   5.170   0.982
11970TIP3   OH235852   5.607   3.985   5.038
11970TIP3    H135853   5.577   3.993   5.129
11970TIP3    H235854   5.676   4.050   5.029
11971TIP3   OH235855   6.233   0.677   2.563
11971TIP3    H135856   6.155   0.731   2.580
11971TIP3    H235857   6.286   0.687   2.643
11972TIP3   OH235858   5.925   7.146   0.923
11972TIP3    H135859   6.000   7.179   0.972
11972TIP3    H235860   5.948   7.056   0.900
11973TIP3   OH235861   7.149   6.865   0.838
11973TIP3    H135862   7.229   6.871   0.786
11973TIP3    H235863   7.160   6.785   0.890
11974TIP3   OH235864   0.045   2.355   5.555
11974TIP3    H135865   0.058   2.340   5.649
11974TIP3    H235866   0.107   2.297   5.512
11975TIP3   OH235867   1.218   4.274   1.783
11975TIP3    H135868   1.244   4.209   1.718
11975TIP3    H235869   1.287   4.341   1.779
11976TIP3   OH235870   2.650   2.391   1.115
11976TIP3    H135871   2.742   2.378   1.094
11976TIP3    H235872   2.608   2.308   1.092
11977TIP3   OH235873   5.818   4.151   3.768
11977TIP3    H135874   5.871   4.073   3.785
11977TIP3    H235875   5.729   4.117   3.754
11978TIP3   OH235876   4.031   4.346   6.669
11978TIP3    H135877   3.995   4.259   6.686
11978TIP3    H235878   3.956   4.405   6.677
11979TIP3   OH235879   1.351   5.750   6.054
11979TIP3    H135880   1.408   5.820   6.021
11979TIP3    H235881   1.392   5.721   6.135
11980TIP3   OH235882   7.773   2.790   6.747
11980TIP3    H135883   7.734   2.708   6.775
11980TIP3    H235884   7.866   2.781   6.767
11981TIP3   OH235885   5.656   0.398   4.978
11981TIP3    H135886   5.662   0.469   5.042
11981TIP3    H235887   5.562   0.388   4.962
11982TIP3   OH235888   3.362   3.867   0.291
11982TIP3    H135889   3.442   3.817   0.309
11982TIP3    H235890   3.371   3.946   0.344
11983TIP3   OH235891   3.310   6.107   1.455
11983TIP3    H135892   3.316   6.017   1.423
11983TIP3    H235893   3.311   6.098   1.550
11984TIP3   OH235894   0.356   5.162   2.729
11984TIP3    H135895   0.274   5.180   2.775
11984TIP3    H235896   0.382   5.247   2.693
11985TIP3   OH235897   5.228   4.874   1.680
11985TIP3    H135898   5.170   4.831   1.743
11985TIP3    H235899   5.231   4.815   1.605
11986TIP3   OH235900   2.525   0.972   3.378
11986TIP3    H135901   2.515   0.917   3.301
11986TIP3    H235902   2.451   0.948   3.434
11987TIP3   OH235903   6.339   1.320   2.456
11987TIP3    H135904   6.387   1.308   2.374
11987TIP3    H235905   6.262   1.264   2.447
11988TIP3   OH235906   4.834   1.876   1.700
11988TIP3    H135907   4.824   1.944   1.634
11988TIP3    H235908   4.748   1.835   1.705
11989TIP3   OH235909   5.477   2.175   2.913
11989TIP3    H135910   5.561   2.153   2.953
11989TIP3    H235911   5.475   2.125   2.831
11990TIP3   OH235912   7.808   3.202   3.007
11990TIP3    H135913   7.873   3.253   3.056
11990TIP3    H235914   7.810   3.240   2.919
11991TIP3   OH235915   6.675   1.540   2.898
11991TIP3    H135916   6.671   1.627   2.938
11991TIP3    H235917   6.668   1.479   2.972
11992TIP3   OH235918   7.153   1.450   1.867
11992TIP3    H135919   7.155   1.378   1.804
11992TIP3    H235920   7.096   1.418   1.938
11993TIP3   OH235921   2.569   2.384   0.379
11993TIP3    H135922   2.482   2.381   0.341
11993TIP3    H235923   2.560   2.344   0.466
11994TIP3   OH235924   0.360   0.871   5.443
11994TIP3    H135925   0.310   0.871   5.361
11994TIP3    H235926   0.366   0.779   5.468
11995TIP3   OH235927   0.880   6.756   4.161
11995TIP3    H135928   0.826   6.680   4.185
11995TIP3    H235929   0.901   6.742   4.069
11996TIP3   OH235930   1.620   4.283   6.596
11996TIP3    H135931   1.579   4.314   6.676
11996TIP3    H235932   1.564   4.211   6.567
11997TIP3   OH235933   1.651   1.283   0.794
11997TIP3    H135934   1.711   1.308   0.724
11997TIP3    H235935   1.565   1.281   0.752
11998TIP3   OH235936   1.854   6.933   5.639
11998TIP3    H135937   1.890   6.856   5.682
11998TIP3    H235938   1.857   7.002   5.706
11999TIP3   OH235939   5.033   3.509   6.155
11999TIP3    H135940   5.090   3.470   6.089
11999TIP3    H235941   5.020   3.599   6.125
12000TIP3   OH235942   3.821   1.242   1.604
12000TIP3    H135943   3.846   1.301   1.533
12000TIP3    H235944   3.814   1.299   1.681
12001TIP3   OH235945   4.470   1.209   2.515
12001TIP3    H135946   4.405   1.183   2.581
12001TIP3    H235947   4.425   1.274   2.462
12002TIP3   OH235948   0.765   1.766   2.162
12002TIP3    H135949   0.859   1.782   2.150
12002TIP3    H235950   0.761   1.701   2.232
12003TIP3   OH235951   4.870   7.190   6.637
12003TIP3    H135952   4.912   7.262   6.590
12003TIP3    H235953   4.867   7.119   6.573
12004TIP3   OH235954   8.305   5.953   5.196
12004TIP3    H135955   8.226   6.005   5.210
12004TIP3    H235956   8.306   5.891   5.269
12005TIP3   OH235957   4.680   5.282   4.261
12005TIP3    H135958   4.586   5.294   4.275
12005TIP3    H235959   4.720   5.352   4.311
12006TIP3   OH235960   2.406   2.242   1.327
12006TIP3    H135961   2.421   2.176   1.394
12006TIP3    H235962   2.358   2.196   1.258
12007TIP3   OH235963   1.004   4.057   3.441
12007TIP3    H135964   0.974   3.987   3.500
12007TIP3    H235965   1.083   4.022   3.400
12008TIP3   OH235966   0.852   6.937   2.000
12008TIP3    H135967   0.868   7.003   1.932
12008TIP3    H235968   0.772   6.966   2.042
12009TIP3   OH235969   1.127   6.974   5.730
12009TIP3    H135970   1.043   7.018   5.748
12009TIP3    H235971   1.102   6.894   5.684
12010TIP3   OH235972   7.698   6.734   4.455
12010TIP3    H135973   7.709   6.703   4.365
12010TIP3    H235974   7.780   6.779   4.475
12011TIP3   OH235975   6.824   4.485   4.365
12011TIP3    H135976   6.767   4.539   4.419
12011TIP3    H235977   6.777   4.403   4.355
12012TIP3   OH235978   3.961   0.528   1.743
12012TIP3    H135979   3.870   0.509   1.765
12012TIP3    H235980   4.006   0.444   1.755
12013TIP3   OH235981   5.502   7.325   2.218
12013TIP3    H135982   5.518   7.417   2.241
12013TIP3    H235983   5.556   7.310   2.141
12014TIP3   OH235984   6.269   2.193   6.177
12014TIP3    H135985   6.220   2.266   6.139
12014TIP3    H235986   6.353   2.195   6.132
12015TIP3   OH235987   2.432   5.773   2.850
12015TIP3    H135988   2.504   5.715   2.877
12015TIP3    H235989   2.354   5.718   2.855
12016TIP3   OH235990   3.236   3.738   1.298
12016TIP3    H135991   3.317   3.732   1.347
12016TIP3    H235992   3.167   3.720   1.362
12017TIP3   OH235993   3.271   4.794   3.793
12017TIP3    H135994   3.254   4.815   3.885
12017TIP3    H235995   3.246   4.702   3.784
12018TIP3   OH235996   2.647   3.100   3.415
12018TIP3    H135997   2.625   3.049   3.493
12018TIP3    H235998   2.731   3.064   3.386
12019TIP3   OH235999   0.303   4.204   5.971
12019TIP3    H136000   0.303   4.201   6.067
12019TIP3    H236001   0.369   4.270   5.949
12020TIP3   OH236002   7.265   3.706   5.188
12020TIP3    H136003   7.358   3.698   5.165
12020TIP3    H236004   7.234   3.778   5.134
12021TIP3   OH236005   1.934   2.947   5.233
12021TIP3    H136006   1.908   3.037   5.251
12021TIP3    H236007   1.888   2.895   5.299
12022TIP3   OH236008   7.954   5.907   6.687
12022TIP3    H136009   7.891   5.944   6.748
12022TIP3    H236010   7.995   5.984   6.646
12023TIP3   OH236011   8.139   7.349   1.592
12023TIP3    H136012   8.153   7.361   1.498
12023TIP3    H236013   8.046   7.365   1.606
12024TIP3   OH236014   6.770   5.750   3.990
12024TIP3    H136015   6.861   5.768   4.009
12024TIP3    H236016   6.744   5.816   3.926
12025TIP3   OH236017   4.237   6.809   3.018
12025TIP3    H136018   4.267   6.891   2.980
12025TIP3    H236019   4.205   6.832   3.104
12026TIP3   OH236020   4.478   4.583   4.126
12026TIP3    H136021   4.413   4.618   4.065
12026TIP3    H236022   4.432   4.575   4.209
12027TIP3   OH236023   1.529   4.227   1.536
12027TIP3    H136024   1.567   4.309   1.504
12027TIP3    H236025   1.543   4.229   1.630
12028TIP3   OH236026   4.916   2.600   5.574
12028TIP3    H136027   4.872   2.668   5.522
12028TIP3    H236028   4.897   2.519   5.527
12029TIP3   OH236029   7.832   6.419   2.215
12029TIP3    H136030   7.751   6.387   2.255
12029TIP3    H236031   7.809   6.435   2.124
12030TIP3   OH236032   2.426   0.297   5.888
12030TIP3    H136033   2.511   0.276   5.927
12030TIP3    H236034   2.367   0.228   5.917
12031TIP3   OH236035   6.058   3.889   0.448
12031TIP3    H136036   6.120   3.938   0.395
12031TIP3    H236037   6.112   3.845   0.514
12032TIP3   OH236038   1.800   2.143   6.666
12032TIP3    H136039   1.720   2.099   6.695
12032TIP3    H236040   1.843   2.172   6.746
12033TIP3   OH236041   2.772   3.103   6.505
12033TIP3    H136042   2.710   3.171   6.534
12033TIP3    H236043   2.855   3.127   6.547
12034TIP3   OH236044   5.973   0.461   4.070
12034TIP3    H136045   6.057   0.428   4.036
12034TIP3    H236046   5.985   0.466   4.164
12035TIP3   OH236047   6.098   1.606   2.159
12035TIP3    H136048   6.016   1.604   2.111
12035TIP3    H236049   6.073   1.608   2.251
12036TIP3   OH236050   6.062   6.938   4.735
12036TIP3    H136051   6.123   7.003   4.701
12036TIP3    H236052   6.043   6.882   4.659
12037TIP3   OH236053   5.743   6.399   1.435
12037TIP3    H136054   5.704   6.395   1.348
12037TIP3    H236055   5.769   6.491   1.445
12038TIP3   OH236056   0.635   0.186   3.635
12038TIP3    H136057   0.719   0.167   3.676
12038TIP3    H236058   0.577   0.115   3.664
12039TIP3   OH236059   0.936   1.896   0.690
12039TIP3    H136060   0.929   1.967   0.626
12039TIP3    H236061   1.019   1.913   0.735
12040TIP3   OH236062   5.338   5.233   2.424
12040TIP3    H136063   5.335   5.208   2.517
12040TIP3    H236064   5.302   5.321   2.422
12041TIP3   OH236065   7.054   1.605   5.836
12041TIP3    H136066   7.115   1.625   5.907
12041TIP3    H236067   6.972   1.647   5.862
12042TIP3   OH236068   3.578   0.248   1.147
12042TIP3    H136069   3.592   0.167   1.196
12042TIP3    H236070   3.646   0.248   1.080
12043TIP3   OH236071   6.955   4.868   0.667
12043TIP3    H136072   7.047   4.845   0.667
12043TIP3    H236073   6.954   4.963   0.654
12044TIP3   OH236074   3.952   5.628   4.876
12044TIP3    H136075   3.889   5.647   4.806
12044TIP3    H236076   4.030   5.678   4.852
12045TIP3   OH236077   4.850   6.743   3.427
12045TIP3    H136078   4.858   6.672   3.364
12045TIP3    H236079   4.846   6.699   3.512
12046TIP3   OH236080   0.461   4.815   1.375
12046TIP3    H136081   0.525   4.807   1.305
12046TIP3    H236082   0.493   4.757   1.444
12047TIP3   OH236083   7.765   4.652   0.091
12047TIP3    H136084   7.722   4.737   0.095
12047TIP3    H236085   7.835   4.657   0.156
12048TIP3   OH236086   7.534   7.072   3.906
12048TIP3    H136087   7.514   7.064   3.999
12048TIP3    H236088   7.589   6.997   3.886
12049TIP3   OH236089   0.235   7.126   5.313
12049TIP3    H136090   0.268   7.213   5.334
12049TIP3    H236091   0.298   7.066   5.352
12050TIP3   OH236092   2.237   3.491   4.258
12050TIP3    H136093   2.311   3.550   4.269
12050TIP3    H236094   2.274   3.404   4.274
12051TIP3   OH236095   6.453   7.472   1.746
12051TIP3    H136096   6.511   7.402   1.777
12051TIP3    H236097   6.426   7.444   1.659
12052TIP3   OH236098   3.902   0.377   5.169
12052TIP3    H136099   3.888   0.466   5.138
12052TIP3    H236100   3.981   0.348   5.123
12053TIP3   OH236101   7.439   0.084   2.394
12053TIP3    H136102   7.372   0.111   2.331
12053TIP3    H236103   7.442   0.155   2.458
12054TIP3   OH236104   0.474   1.845   2.356
12054TIP3    H136105   0.555   1.895   2.344
12054TIP3    H236106   0.457   1.850   2.450
12055TIP3   OH236107   3.550   5.342   6.373
12055TIP3    H136108   3.570   5.360   6.465
12055TIP3    H236109   3.586   5.255   6.357
12056TIP3   OH236110   3.844   1.455   6.010
12056TIP3    H136111   3.848   1.545   5.978
12056TIP3    H236112   3.759   1.422   5.981
12057TIP3   OH236113   8.180   4.720   2.265
12057TIP3    H136114   8.145   4.805   2.241
12057TIP3    H236115   8.149   4.704   2.354
12058TIP3   OH236116   7.813   2.567   3.015
12058TIP3    H136117   7.740   2.504   3.010
12058TIP3    H236118   7.770   2.652   3.020
12059TIP3   OH236119   0.142   6.792   3.281
12059TIP3    H136120   0.191   6.720   3.242
12059TIP3    H236121   0.058   6.753   3.307
12060TIP3   OH236122   4.818   6.960   6.261
12060TIP3    H136123   4.795   7.044   6.221
12060TIP3    H236124   4.737   6.930   6.303
12061TIP3   OH236125   4.464   1.193   6.442
12061TIP3    H136126   4.405   1.182   6.517
12061TIP3    H236127   4.411   1.172   6.366
12062TIP3   OH236128   6.659   2.619   3.705
12062TIP3    H136129   6.737   2.564   3.705
12062TIP3    H236130   6.686   2.701   3.744
12063TIP3   OH236131   1.303   6.603   5.858
12063TIP3    H136132   1.375   6.647   5.812
12063TIP3    H236133   1.345   6.528   5.900
12064TIP3   OH236134   8.294   0.067   5.348
12064TIP3    H136135   8.295   0.115   5.431
12064TIP3    H236136   8.202   0.066   5.322
12065TIP3   OH236137   1.184   3.935   0.808
12065TIP3    H136138   1.098   3.971   0.784
12065TIP3    H236139   1.185   3.940   0.904
12066TIP3   OH236140   3.494   2.916   5.024
12066TIP3    H136141   3.560   2.955   4.967
12066TIP3    H236142   3.411   2.955   4.995
12067TIP3   OH236143   4.686   7.774   1.331
12067TIP3    H136144   4.591   7.773   1.344
12067TIP3    H236145   4.698   7.827   1.252
12068TIP3   OH236146   3.780   2.927   4.143
12068TIP3    H136147   3.827   2.847   4.166
12068TIP3    H236148   3.698   2.896   4.104
12069TIP3   OH236149   7.675   0.265   0.683
12069TIP3    H136150   7.664   0.311   0.766
12069TIP3    H236151   7.674   0.334   0.617
12070TIP3   OH236152   3.611   2.454   1.950
12070TIP3    H136153   3.608   2.549   1.948
12070TIP3    H236154   3.534   2.426   1.902
12071TIP3   OH236155   7.617   4.345   6.390
12071TIP3    H136156   7.628   4.251   6.378
12071TIP3    H236157   7.592   4.378   6.304
12072TIP3   OH236158   7.003   3.360   4.096
12072TIP3    H136159   6.908   3.364   4.108
12072TIP3    H236160   7.014   3.312   4.014
12073TIP3   OH236161   1.501   2.800   2.354
12073TIP3    H136162   1.563   2.865   2.319
12073TIP3    H236163   1.534   2.781   2.442
12074TIP3   OH236164   4.609   2.541   1.191
12074TIP3    H136165   4.601   2.525   1.097
12074TIP3    H236166   4.585   2.458   1.231
12075TIP3   OH236167   5.022   6.318   3.610
12075TIP3    H136168   4.980   6.246   3.562
12075TIP3    H236169   4.960   6.391   3.603
12076TIP3   OH236170   0.885   3.762   6.166
12076TIP3    H136171   0.812   3.725   6.116
12076TIP3    H236172   0.847   3.840   6.208
12077TIP3   OH236173   3.510   7.090   5.024
12077TIP3    H136174   3.487   7.051   4.940
12077TIP3    H236175   3.433   7.142   5.049
12078TIP3   OH236176   2.488   1.697   2.869
12078TIP3    H136177   2.443   1.638   2.929
12078TIP3    H236178   2.538   1.639   2.811
12079TIP3   OH236179   5.514   0.083   5.283
12079TIP3    H136180   5.455   0.139   5.233
12079TIP3    H236181   5.571   0.144   5.331
12080TIP3   OH236182   3.077   5.610   5.827
12080TIP3    H136183   3.143   5.647   5.886
12080TIP3    H236184   2.999   5.664   5.840
12081TIP3   OH236185   7.033   5.922   4.571
12081TIP3    H136186   6.948   5.910   4.527
12081TIP3    H236187   7.022   6.000   4.625
12082TIP3   OH236188   3.054   6.660   5.314
12082TIP3    H136189   3.037   6.610   5.234
12082TIP3    H236190   3.021   6.604   5.384
12083TIP3   OH236191   5.120   3.843   4.357
12083TIP3    H136192   5.092   3.924   4.315
12083TIP3    H236193   5.094   3.774   4.296
12084TIP3   OH236194   7.583   5.179   4.397
12084TIP3    H136195   7.635   5.134   4.464
12084TIP3    H236196   7.493   5.154   4.415
12085TIP3   OH236197   6.068   3.215   5.805
12085TIP3    H136198   6.037   3.273   5.735
12085TIP3    H236199   6.160   3.199   5.784
12086TIP3   OH236200   0.011   1.625   5.729
12086TIP3    H136201   0.021   1.584   5.815
12086TIP3    H236202   0.095   1.612   5.685
12087TIP3   OH236203   2.981   4.843   3.227
12087TIP3    H136204   2.888   4.819   3.225
12087TIP3    H236205   2.986   4.921   3.172
12088TIP3   OH236206   7.879   3.664   4.795
12088TIP3    H136207   7.880   3.747   4.749
12088TIP3    H236208   7.969   3.652   4.825
12089TIP3   OH236209   3.919   1.081   3.984
12089TIP3    H136210   3.961   1.165   3.967
12089TIP3    H236211   3.840   1.103   4.034
12090TIP3   OH236212   7.435   5.984   4.238
12090TIP3    H136213   7.492   5.938   4.176
12090TIP3    H236214   7.468   5.959   4.324
12091TIP3   OH236215   4.275   3.389   1.510
12091TIP3    H136216   4.228   3.323   1.562
12091TIP3    H236217   4.345   3.420   1.567
12092TIP3   OH236218   0.277   1.033   3.838
12092TIP3    H136219   0.331   1.111   3.847
12092TIP3    H236220   0.197   1.064   3.796
12093TIP3   OH236221   1.800   2.663   6.169
12093TIP3    H136222   1.833   2.586   6.214
12093TIP3    H236223   1.724   2.691   6.220
12094TIP3   OH236224   0.148   5.613   4.025
12094TIP3    H136225   0.135   5.640   4.116
12094TIP3    H236226   0.091   5.537   4.014
12095TIP3   OH236227   0.781   2.536   2.445
12095TIP3    H136228   0.715   2.554   2.513
12095TIP3    H236229   0.748   2.458   2.400
12096TIP3   OH236230   5.873   2.136   1.240
12096TIP3    H136231   5.908   2.209   1.292
12096TIP3    H236232   5.823   2.178   1.170
12097TIP3   OH236233   2.840   4.796   3.723
12097TIP3    H136234   2.899   4.863   3.689
12097TIP3    H236235   2.782   4.774   3.650
12098TIP3   OH236236   5.424   3.870   0.314
12098TIP3    H136237   5.469   3.791   0.346
12098TIP3    H236238   5.336   3.863   0.352
12099TIP3   OH236239   2.810   6.834   2.347
12099TIP3    H136240   2.787   6.927   2.345
12099TIP3    H236241   2.742   6.794   2.400
12100TIP3   OH236242   5.749   2.468   3.878
12100TIP3    H136243   5.761   2.461   3.784
12100TIP3    H236244   5.785   2.387   3.914
12101TIP3   OH236245   3.073   2.889   6.349
12101TIP3    H136246   3.015   2.815   6.367
12101TIP3    H236247   3.049   2.917   6.260
12102TIP3   OH236248   3.576   6.768   6.628
12102TIP3    H136249   3.556   6.755   6.536
12102TIP3    H236250   3.611   6.684   6.658
12103TIP3   OH236251   1.516   4.867   1.148
12103TIP3    H136252   1.484   4.868   1.238
12103TIP3    H236253   1.514   4.959   1.121
12104TIP3   OH236254   2.688   4.089   0.996
12104TIP3    H136255   2.751   4.018   0.983
12104TIP3    H236256   2.737   4.168   0.972
12105TIP3   OH236257   1.871   0.742   1.837
12105TIP3    H136258   1.951   0.773   1.880
12105TIP3    H236259   1.895   0.730   1.746
12106TIP3   OH236260   7.170   6.014   0.986
12106TIP3    H136261   7.167   6.110   0.981
12106TIP3    H236262   7.119   5.985   0.911
12107TIP3   OH236263   1.920   4.140   1.213
12107TIP3    H136264   1.907   4.179   1.126
12107TIP3    H236265   1.913   4.215   1.273
12108TIP3   OH236266   4.639   1.373   5.466
12108TIP3    H136267   4.603   1.386   5.379
12108TIP3    H236268   4.691   1.293   5.459
12109TIP3   OH236269   3.802   3.741   5.320
12109TIP3    H136270   3.808   3.835   5.335
12109TIP3    H236271   3.712   3.725   5.294
12110TIP3   OH236272   7.367   7.433   2.422
12110TIP3    H136273   7.426   7.507   2.433
12110TIP3    H236274   7.419   7.356   2.447
12111TIP3   OH236275   7.994   6.082   6.122
12111TIP3    H136276   7.979   5.999   6.078
12111TIP3    H236277   8.056   6.129   6.066
12112TIP3   OH236278   1.679   6.784   5.481
12112TIP3    H136279   1.705   6.849   5.547
12112TIP3    H236280   1.625   6.833   5.419
12113TIP3   OH236281   1.033   3.590   3.807
12113TIP3    H136282   1.046   3.496   3.791
12113TIP3    H236283   0.939   3.598   3.823
12114TIP3   OH236284   4.327   6.141   3.153
12114TIP3    H136285   4.289   6.091   3.080
12114TIP3    H236286   4.330   6.080   3.226
12115TIP3   OH236287   3.000   3.439   2.452
12115TIP3    H136288   3.051   3.399   2.381
12115TIP3    H236289   2.918   3.464   2.410
12116TIP3   OH236290   7.528   1.309   6.093
12116TIP3    H136291   7.591   1.381   6.081
12116TIP3    H236292   7.523   1.297   6.187
12117TIP3   OH236293   6.286   3.139   2.611
12117TIP3    H136294   6.313   3.070   2.672
12117TIP3    H236295   6.342   3.127   2.535
12118TIP3   OH236296   7.370   2.297   2.459
12118TIP3    H136297   7.450   2.304   2.406
12118TIP3    H236298   7.396   2.245   2.534
12119TIP3   OH236299   3.376   1.502   6.576
12119TIP3    H136300   3.358   1.586   6.534
12119TIP3    H236301   3.471   1.499   6.584
12120TIP3   OH236302   1.591   1.590   5.727
12120TIP3    H136303   1.528   1.545   5.671
12120TIP3    H236304   1.570   1.683   5.717
12121TIP3   OH236305   3.754   5.692   5.645
12121TIP3    H136306   3.842   5.716   5.675
12121TIP3    H236307   3.752   5.721   5.554
12122TIP3   OH236308   4.168   2.196   0.017
12122TIP3    H136309   4.190   2.147   0.096
12122TIP3    H236310   4.075   2.177   0.003
12123TIP3   OH236311   6.814   5.975   5.721
12123TIP3    H136312   6.786   5.910   5.658
12123TIP3    H236313   6.751   5.968   5.793
12124TIP3   OH236314   5.611   5.459   1.904
12124TIP3    H136315   5.617   5.395   1.974
12124TIP3    H236316   5.560   5.416   1.836
12125TIP3   OH236317   0.628   0.738   0.265
12125TIP3    H136318   0.532   0.735   0.268
12125TIP3    H236319   0.649   0.831   0.265
12126TIP3   OH236320   6.833   1.669   1.643
12126TIP3    H136321   6.750   1.621   1.636
12126TIP3    H236322   6.831   1.707   1.731
12127TIP3   OH236323   5.974   0.385   0.990
12127TIP3    H136324   5.953   0.478   1.001
12127TIP3    H236325   5.916   0.356   0.920
12128TIP3   OH236326   3.994   1.180   1.295
12128TIP3    H136327   4.079   1.147   1.325
12128TIP3    H236328   3.984   1.264   1.339
12129TIP3   OH236329   2.954   5.965   6.188
12129TIP3    H136330   3.012   6.041   6.198
12129TIP3    H236331   2.875   6.001   6.148
12130TIP3   OH236332   2.984   5.246   2.236
12130TIP3    H136333   3.025   5.323   2.275
12130TIP3    H236334   3.018   5.243   2.147
12131TIP3   OH236335   0.601   3.668   6.102
12131TIP3    H136336   0.559   3.645   6.185
12131TIP3    H236337   0.593   3.589   6.049
12132TIP3   OH236338   7.628   7.305   1.725
12132TIP3    H136339   7.605   7.333   1.813
12132TIP3    H236340   7.547   7.317   1.674
12133TIP3   OH236341   7.871   0.213   1.993
12133TIP3    H136342   7.790   0.211   1.942
12133TIP3    H236343   7.854   0.276   2.063
12134TIP3   OH236344   3.330   0.320   4.843
12134TIP3    H136345   3.259   0.327   4.780
12134TIP3    H236346   3.301   0.252   4.904
12135TIP3   OH236347   5.518   0.532   1.085
12135TIP3    H136348   5.576   0.599   1.120
12135TIP3    H236349   5.516   0.464   1.152
12136TIP3   OH236350   1.742   6.125   2.961
12136TIP3    H136351   1.762   6.212   2.926
12136TIP3    H236352   1.676   6.090   2.902
12137TIP3   OH236353   4.108   5.119   0.807
12137TIP3    H136354   4.038   5.149   0.749
12137TIP3    H236355   4.073   5.040   0.848
12138TIP3   OH236356   2.758   5.064   6.399
12138TIP3    H136357   2.814   5.132   6.362
12138TIP3    H236358   2.791   4.982   6.362
12139TIP3   OH236359   4.133   0.044   0.594
12139TIP3    H136360   4.124   0.097   0.514
12139TIP3    H236361   4.223   0.011   0.591
12140TIP3   OH236362   0.506   5.538   4.755
12140TIP3    H136363   0.482   5.507   4.843
12140TIP3    H236364   0.455   5.618   4.744
12141TIP3   OH236365   5.234   0.469   1.331
12141TIP3    H136366   5.164   0.527   1.303
12141TIP3    H236367   5.242   0.484   1.425
12142TIP3   OH236368   7.462   7.025   1.580
12142TIP3    H136369   7.445   7.119   1.578
12142TIP3    H236370   7.464   7.002   1.673
12143TIP3   OH236371   6.696   1.656   2.276
12143TIP3    H136372   6.772   1.715   2.268
12143TIP3    H236373   6.717   1.600   2.350
12144TIP3   OH236374   2.245   1.687   5.906
12144TIP3    H136375   2.160   1.727   5.889
12144TIP3    H236376   2.279   1.735   5.982
12145TIP3   OH236377   4.768   3.699   0.560
12145TIP3    H136378   4.784   3.605   0.555
12145TIP3    H236379   4.852   3.738   0.534
12146TIP3   OH236380   1.010   2.617   0.677
12146TIP3    H136381   0.992   2.681   0.746
12146TIP3    H236382   0.923   2.590   0.646
12147TIP3   OH236383   5.852   6.605   0.731
12147TIP3    H136384   5.805   6.653   0.663
12147TIP3    H236385   5.940   6.591   0.695
12148TIP3   OH236386   5.761   1.534   2.725
12148TIP3    H136387   5.778   1.450   2.767
12148TIP3    H236388   5.709   1.512   2.648
12149TIP3   OH236389   5.139   3.060   1.891
12149TIP3    H136390   5.095   3.113   1.824
12149TIP3    H236391   5.137   3.115   1.969
12150TIP3   OH236392   6.076   7.235   1.347
12150TIP3    H136393   6.094   7.311   1.402
12150TIP3    H236394   5.981   7.234   1.337
12151TIP3   OH236395   6.701   5.162   2.392
12151TIP3    H136396   6.620   5.182   2.344
12151TIP3    H236397   6.771   5.183   2.330
12152TIP3   OH236398   1.608   3.780   2.209
12152TIP3    H136399   1.636   3.870   2.194
12152TIP3    H236400   1.599   3.743   2.121
12153TIP3   OH236401   7.138   4.909   6.046
12153TIP3    H136402   7.136   4.887   6.139
12153TIP3    H236403   7.111   4.828   6.002
12154TIP3   OH236404   2.308   0.416   3.645
12154TIP3    H136405   2.230   0.373   3.680
12154TIP3    H236406   2.278   0.457   3.564
12155TIP3   OH236407   5.565   6.879   1.405
12155TIP3    H136408   5.553   6.954   1.348
12155TIP3    H236409   5.635   6.904   1.465
12156TIP3   OH236410   4.465   2.836   1.848
12156TIP3    H136411   4.535   2.785   1.807
12156TIP3    H236412   4.487   2.927   1.828
12157TIP3   OH236413   8.052   6.997   6.549
12157TIP3    H136414   8.032   7.013   6.457
12157TIP3    H236415   8.018   6.909   6.565
12158TIP3   OH236416   1.579   4.799   4.743
12158TIP3    H136417   1.647   4.745   4.783
12158TIP3    H236418   1.544   4.850   4.816
12159TIP3   OH236419   3.587   0.867   1.345
12159TIP3    H136420   3.504   0.906   1.319
12159TIP3    H236421   3.631   0.934   1.398
12160TIP3   OH236422   5.215   6.314   3.855
12160TIP3    H136423   5.137   6.335   3.804
12160TIP3    H236424   5.192   6.234   3.902
12161TIP3   OH236425   6.188   1.407   5.739
12161TIP3    H136426   6.219   1.479   5.683
12161TIP3    H236427   6.170   1.448   5.823
12162TIP3   OH236428   0.226   0.660   2.831
12162TIP3    H136429   0.204   0.673   2.739
12162TIP3    H236430   0.317   0.631   2.831
12163TIP3   OH236431   7.756   3.410   2.395
12163TIP3    H136432   7.768   3.334   2.452
12163TIP3    H236433   7.828   3.405   2.333
12164TIP3   OH236434   1.164   6.677   1.070
12164TIP3    H136435   1.259   6.670   1.080
12164TIP3    H236436   1.151   6.753   1.014
12165TIP3   OH236437   4.342   4.003   2.858
12165TIP3    H136438   4.392   3.929   2.891
12165TIP3    H236439   4.338   4.064   2.932
12166TIP3   OH236440   6.889   1.399   1.564
12166TIP3    H136441   6.883   1.493   1.585
12166TIP3    H236442   6.981   1.378   1.577
12167TIP3   OH236443   1.984   7.109   3.609
12167TIP3    H136444   1.984   7.100   3.705
12167TIP3    H236445   1.992   7.203   3.594
12168TIP3   OH236446   6.763   0.722   0.059
12168TIP3    H136447   6.749   0.667   0.136
12168TIP3    H236448   6.820   0.670   0.002
12169TIP3   OH236449   5.363   0.094   2.611
12169TIP3    H136450   5.356   0.174   2.663
12169TIP3    H236451   5.338   0.121   2.523
12170TIP3   OH236452   2.230   3.345   4.823
12170TIP3    H136453   2.179   3.360   4.744
12170TIP3    H236454   2.270   3.430   4.843
12171TIP3   OH236455   1.629   2.891   6.016
12171TIP3    H136456   1.627   2.981   6.049
12171TIP3    H236457   1.582   2.840   6.083
12172TIP3   OH236458   7.915   3.553   0.707
12172TIP3    H136459   7.888   3.637   0.744
12172TIP3    H236460   7.950   3.575   0.621
12173TIP3   OH236461   0.135   4.430   4.046
12173TIP3    H136462   0.129   4.395   4.135
12173TIP3    H236463   0.152   4.353   3.992
12174TIP3   OH236464   1.725   3.630   5.666
12174TIP3    H136465   1.804   3.591   5.627
12174TIP3    H236466   1.753   3.718   5.692
12175TIP3   OH236467   4.162   7.273   6.341
12175TIP3    H136468   4.069   7.254   6.350
12175TIP3    H236469   4.194   7.206   6.280
12176TIP3   OH236470   1.695   5.019   5.709
12176TIP3    H136471   1.620   5.073   5.685
12176TIP3    H236472   1.770   5.077   5.703
12177TIP3   OH236473   7.823   0.024   0.624
12177TIP3    H136474   7.797   0.115   0.635
12177TIP3    H236475   7.889   0.010   0.691
12178TIP3   OH236476   4.626   4.160   2.442
12178TIP3    H136477   4.547   4.117   2.476
12178TIP3    H236478   4.689   4.088   2.431
12179TIP3   OH236479   5.648   0.691   1.276
12179TIP3    H136480   5.647   0.642   1.358
12179TIP3    H236481   5.564   0.736   1.274
12180TIP3   OH236482   3.973   4.518   1.337
12180TIP3    H136483   3.974   4.514   1.433
12180TIP3    H236484   3.895   4.568   1.316
12181TIP3   OH236485   7.118   6.780   2.341
12181TIP3    H136486   7.028   6.759   2.366
12181TIP3    H236487   7.134   6.866   2.379
12182TIP3   OH236488   2.266   0.646   6.484
12182TIP3    H136489   2.233   0.736   6.487
12182TIP3    H236490   2.242   0.608   6.568
12183TIP3   OH236491   6.045   2.712   5.104
12183TIP3    H136492   5.969   2.740   5.052
12183TIP3    H236493   6.055   2.781   5.170
12184TIP3   OH236494   1.603   0.159   2.654
12184TIP3    H136495   1.643   0.124   2.733
12184TIP3    H236496   1.626   0.252   2.655
12185TIP3   OH236497   3.743   1.661   6.216
12185TIP3    H136498   3.691   1.624   6.287
12185TIP3    H236499   3.686   1.727   6.177
12186TIP3   OH236500   3.184   2.357   1.719
12186TIP3    H136501   3.138   2.291   1.667
12186TIP3    H236502   3.156   2.341   1.809
12187TIP3   OH236503   3.178   3.848   2.467
12187TIP3    H136504   3.110   3.890   2.520
12187TIP3    H236505   3.179   3.757   2.497
12188TIP3   OH236506   0.760   7.411   4.137
12188TIP3    H136507   0.729   7.494   4.100
12188TIP3    H236508   0.680   7.361   4.152
12189TIP3   OH236509   7.385   0.445   2.871
12189TIP3    H136510   7.384   0.536   2.900
12189TIP3    H236511   7.293   0.420   2.864
12190TIP3   OH236512   1.915   7.342   3.240
12190TIP3    H136513   1.922   7.247   3.250
12190TIP3    H236514   1.959   7.361   3.157
12191TIP3   OH236515   3.707   3.917   5.554
12191TIP3    H136516   3.708   4.001   5.599
12191TIP3    H236517   3.614   3.896   5.545
12192TIP3   OH236518   0.010   6.329   5.406
12192TIP3    H136519  -0.043   6.259   5.368
12192TIP3    H236520   0.097   6.291   5.417
12193TIP3   OH236521   3.084   6.277   6.582
12193TIP3    H136522   3.011   6.215   6.581
12193TIP3    H236523   3.158   6.226   6.617
12194TIP3   OH236524   0.804   5.534   2.496
12194TIP3    H136525   0.779   5.626   2.484
12194TIP3    H236526   0.773   5.512   2.584
12195TIP3   OH236527   7.322   0.994   3.236
12195TIP3    H136528   7.376   0.915   3.244
12195TIP3    H236529   7.259   0.973   3.167
12196TIP3   OH236530   8.125   2.438   1.059
12196TIP3    H136531   8.083   2.447   1.144
12196TIP3    H236532   8.122   2.526   1.021
12197TIP3   OH236533   4.599   3.687   0.288
12197TIP3    H136534   4.506   3.692   0.310
12197TIP3    H236535   4.615   3.594   0.273
12198TIP3   OH236536   7.416   4.984   6.187
12198TIP3    H136537   7.496   4.998   6.237
12198TIP3    H236538   7.377   4.905   6.226
12199TIP3   OH236539   5.915   2.084   4.877
12199TIP3    H136540   5.976   2.065   4.948
12199TIP3    H236541   5.955   2.156   4.829
12200TIP3   OH236542   4.594   6.429   1.697
12200TIP3    H136543   4.606   6.387   1.611
12200TIP3    H236544   4.677   6.415   1.742
12201TIP3   OH236545   8.123   5.478   3.737
12201TIP3    H136546   8.087   5.522   3.814
12201TIP3    H236547   8.149   5.392   3.767
12202TIP3   OH236548   5.408   1.338   1.057
12202TIP3    H136549   5.450   1.252   1.048
12202TIP3    H236550   5.429   1.383   0.975
12203TIP3   OH236551   0.167   3.269   2.352
12203TIP3    H136552   0.166   3.197   2.416
12203TIP3    H236553   0.222   3.336   2.392
12204TIP3   OH236554   7.238   0.530   1.857
12204TIP3    H136555   7.323   0.526   1.814
12204TIP3    H236556   7.177   0.554   1.787
12205TIP3   OH236557   1.656   7.087   3.113
12205TIP3    H136558   1.700   7.117   3.193
12205TIP3    H236559   1.581   7.145   3.103
12206TIP3   OH236560   8.060   2.080   5.589
12206TIP3    H136561   7.968   2.063   5.572
12206TIP3    H236562   8.080   2.027   5.666
12207TIP3   OH236563   3.988   2.299   5.955
12207TIP3    H136564   4.004   2.363   5.886
12207TIP3    H236565   3.988   2.214   5.910
12208TIP3   OH236566   5.989   5.139   2.414
12208TIP3    H136567   5.995   5.226   2.453
12208TIP3    H236568   6.080   5.114   2.396
12209TIP3   OH236569   2.977   4.762   4.796
12209TIP3    H136570   2.981   4.842   4.848
12209TIP3    H236571   3.042   4.704   4.836
12210TIP3   OH236572   2.104   2.020   0.245
12210TIP3    H136573   2.143   2.039   0.159
12210TIP3    H236574   2.015   2.055   0.240
12211TIP3   OH236575   2.315   4.592   4.152
12211TIP3    H136576   2.380   4.651   4.115
12211TIP3    H236577   2.237   4.606   4.098
12212TIP3   OH236578   2.316   2.239   2.797
12212TIP3    H136579   2.407   2.255   2.773
12212TIP3    H236580   2.268   2.311   2.757
12213TIP3   OH236581   2.643   2.288   1.451
12213TIP3    H136582   2.635   2.330   1.537
12213TIP3    H236583   2.562   2.309   1.406
12214TIP3   OH236584   4.101   7.198   2.659
12214TIP3    H136585   4.179   7.143   2.655
12214TIP3    H236586   4.032   7.139   2.689
12215TIP3   OH236587   6.651   0.838   5.374
12215TIP3    H136588   6.716   0.769   5.387
12215TIP3    H236589   6.674   0.905   5.438
12216TIP3   OH236590   7.719   6.154   1.195
12216TIP3    H136591   7.635   6.150   1.240
12216TIP3    H236592   7.720   6.242   1.155
12217TIP3   OH236593   3.375   6.175   2.341
12217TIP3    H136594   3.310   6.244   2.351
12217TIP3    H236595   3.445   6.214   2.291
12218TIP3   OH236596   6.987   1.323   5.816
12218TIP3    H136597   7.067   1.309   5.866
12218TIP3    H236598   6.967   1.416   5.826
12219TIP3   OH236599   0.851   4.386   4.822
12219TIP3    H136600   0.860   4.475   4.788
12219TIP3    H236601   0.893   4.388   4.907
12220TIP3   OH236602   0.320   0.857   0.514
12220TIP3    H136603   0.400   0.817   0.550
12220TIP3    H236604   0.333   0.854   0.419
12221TIP3   OH236605   7.209   1.508   1.222
12221TIP3    H136606   7.302   1.490   1.236
12221TIP3    H236607   7.198   1.506   1.127
12222TIP3   OH236608   5.841   4.761   5.294
12222TIP3    H136609   5.881   4.733   5.376
12222TIP3    H236610   5.749   4.735   5.302
12223TIP3   OH236611   1.758   4.643   4.859
12223TIP3    H136612   1.808   4.603   4.788
12223TIP3    H236613   1.731   4.570   4.914
12224TIP3   OH236614   1.582   1.642   4.016
12224TIP3    H136615   1.494   1.621   3.985
12224TIP3    H236616   1.587   1.738   4.012
12225TIP3   OH236617   3.612   5.685   4.969
12225TIP3    H136618   3.678   5.639   5.019
12225TIP3    H236619   3.619   5.649   4.880
12226TIP3   OH236620   0.582   5.665   0.112
12226TIP3    H136621   0.647   5.675   0.042
12226TIP3    H236622   0.512   5.726   0.090
12227TIP3   OH236623   6.868   3.820   5.759
12227TIP3    H136624   6.861   3.914   5.742
12227TIP3    H236625   6.930   3.814   5.832
12228TIP3   OH236626   6.615   0.506   1.432
12228TIP3    H136627   6.672   0.581   1.417
12228TIP3    H236628   6.550   0.536   1.494
12229TIP3   OH236629   5.293   5.423   3.745
12229TIP3    H136630   5.207   5.403   3.781
12229TIP3    H236631   5.347   5.347   3.767
12230TIP3   OH236632   3.016   0.541   3.114
12230TIP3    H136633   3.028   0.457   3.160
12230TIP3    H236634   2.958   0.591   3.172
12231TIP3   OH236635   7.843   1.324   4.444
12231TIP3    H136636   7.805   1.244   4.407
12231TIP3    H236637   7.800   1.334   4.528
12232TIP3   OH236638   6.317   1.239   1.594
12232TIP3    H136639   6.230   1.199   1.591
12232TIP3    H236640   6.364   1.200   1.520
12233TIP3   OH236641   0.176   2.047   2.942
12233TIP3    H136642   0.130   1.965   2.955
12233TIP3    H236643   0.193   2.079   3.031
12234TIP3   OH236644   1.477   4.433   3.760
12234TIP3    H136645   1.530   4.390   3.693
12234TIP3    H236646   1.392   4.449   3.717
12235TIP3   OH236647   3.533   0.850   0.241
12235TIP3    H136648   3.439   0.863   0.249
12235TIP3    H236649   3.542   0.767   0.195
12236TIP3   OH236650   6.601   4.577   2.339
12236TIP3    H136651   6.564   4.521   2.407
12236TIP3    H236652   6.573   4.665   2.364
12237TIP3   OH236653   0.058   2.181   3.303
12237TIP3    H136654   0.092   2.102   3.262
12237TIP3    H236655   0.121   2.250   3.280
12238TIP3   OH236656   7.228   1.322   5.403
12238TIP3    H136657   7.164   1.385   5.372
12238TIP3    H236658   7.193   1.292   5.488
12239TIP3   OH236659   2.417   6.537   1.221
12239TIP3    H136660   2.393   6.556   1.311
12239TIP3    H236661   2.460   6.452   1.225
12240TIP3   OH236662   4.225   3.128   5.700
12240TIP3    H136663   4.280   3.179   5.760
12240TIP3    H236664   4.226   3.178   5.619
12241TIP3   OH236665   5.837   3.273   5.936
12241TIP3    H136666   5.836   3.340   6.004
12241TIP3    H236667   5.929   3.260   5.915
12242TIP3   OH236668   4.774   7.243   6.322
12242TIP3    H136669   4.822   7.224   6.242
12242TIP3    H236670   4.781   7.338   6.333
12243TIP3   OH236671   4.939   6.871   4.794
12243TIP3    H136672   5.010   6.928   4.825
12243TIP3    H236673   4.862   6.899   4.841
12244TIP3   OH236674   0.067   3.731   3.311
12244TIP3    H136675   0.077   3.816   3.268
12244TIP3    H236676   0.156   3.701   3.325
12245TIP3   OH236677   1.814   3.800   5.432
12245TIP3    H136678   1.729   3.759   5.416
12245TIP3    H236679   1.856   3.803   5.347
12246TIP3   OH236680   5.377   2.469   3.653
12246TIP3    H136681   5.301   2.517   3.686
12246TIP3    H236682   5.394   2.401   3.719
12247TIP3   OH236683   2.716   4.595   4.484
12247TIP3    H136684   2.740   4.504   4.498
12247TIP3    H236685   2.621   4.595   4.486
12248TIP3   OH236686   0.758   0.488   5.974
12248TIP3    H136687   0.805   0.567   6.002
12248TIP3    H236688   0.683   0.522   5.924
12249TIP3   OH236689   6.638   2.377   5.714
12249TIP3    H136690   6.704   2.441   5.740
12249TIP3    H236691   6.587   2.421   5.646
12250TIP3   OH236692   6.126   2.288   4.101
12250TIP3    H136693   6.123   2.356   4.168
12250TIP3    H236694   6.115   2.335   4.019
12251TIP3   OH236695   1.844   3.361   2.725
12251TIP3    H136696   1.932   3.398   2.719
12251TIP3    H236697   1.826   3.355   2.819
12252TIP3   OH236698   8.061   2.670   0.220
12252TIP3    H136699   8.015   2.650   0.301
12252TIP3    H236700   8.108   2.751   0.238
12253TIP3   OH236701   0.406   2.024   2.599
12253TIP3    H136702   0.465   2.078   2.546
12253TIP3    H236703   0.319   2.056   2.577
12254TIP3   OH236704   0.378   2.044   0.307
12254TIP3    H136705   0.324   2.094   0.369
12254TIP3    H236706   0.332   2.053   0.224
12255TIP3   OH236707   3.383   2.590   5.152
12255TIP3    H136708   3.455   2.647   5.125
12255TIP3    H236709   3.424   2.506   5.169
12256TIP3   OH236710   5.437   3.425   0.582
12256TIP3    H136711   5.452   3.512   0.546
12256TIP3    H236712   5.387   3.380   0.514
12257TIP3   OH236713   5.305   4.454   5.154
12257TIP3    H136714   5.224   4.419   5.117
12257TIP3    H236715   5.326   4.395   5.227
12258TIP3   OH236716   7.789   4.279   4.008
12258TIP3    H136717   7.748   4.227   4.077
12258TIP3    H236718   7.865   4.226   3.981
12259TIP3   OH236719   2.779   5.957   2.104
12259TIP3    H136720   2.697   6.004   2.122
12259TIP3    H236721   2.783   5.890   2.173
12260TIP3   OH236722   0.531   1.536   0.098
12260TIP3    H136723   0.560   1.618   0.056
12260TIP3    H236724   0.513   1.561   0.189
12261TIP3   OH236725   4.607   1.730   5.347
12261TIP3    H136726   4.673   1.792   5.319
12261TIP3    H236727   4.564   1.701   5.267
12262TIP3   OH236728   3.172   0.997   3.329
12262TIP3    H136729   3.166   0.978   3.235
12262TIP3    H236730   3.154   1.091   3.335
12263TIP3   OH236731   4.468   6.871   3.649
12263TIP3    H136732   4.512   6.787   3.634
12263TIP3    H236733   4.508   6.905   3.729
12264TIP3   OH236734   0.286   1.377   0.216
12264TIP3    H136735   0.318   1.462   0.247
12264TIP3    H236736   0.196   1.394   0.188
12265TIP3   OH236737   2.195   0.290   1.164
12265TIP3    H136738   2.282   0.303   1.126
12265TIP3    H236739   2.162   0.378   1.181
12266TIP3   OH236740   3.000   1.602   6.551
12266TIP3    H136741   2.975   1.511   6.570
12266TIP3    H236742   3.041   1.633   6.632
12267TIP3   OH236743   6.584   7.271   4.022
12267TIP3    H136744   6.625   7.185   4.032
12267TIP3    H236745   6.576   7.305   4.111
12268TIP3   OH236746   0.519   3.971   2.483
12268TIP3    H136747   0.436   3.991   2.526
12268TIP3    H236748   0.505   3.995   2.392
12269TIP3   OH236749   6.058   0.910   0.451
12269TIP3    H136750   6.076   0.974   0.382
12269TIP3    H236751   6.121   0.932   0.520
12270TIP3   OH236752   0.952   0.155   6.184
12270TIP3    H136753   0.923   0.160   6.093
12270TIP3    H236754   1.006   0.234   6.196
12271TIP3   OH236755   3.434   6.263   0.620
12271TIP3    H136756   3.407   6.241   0.709
12271TIP3    H236757   3.353   6.264   0.570
12272TIP3   OH236758   4.948   5.960   6.765
12272TIP3    H136759   4.892   5.977   6.689
12272TIP3    H236760   5.021   6.021   6.755
12273TIP3   OH236761   1.172   5.589   5.438
12273TIP3    H136762   1.145   5.528   5.368
12273TIP3    H236763   1.261   5.613   5.415
12274TIP3   OH236764   2.462   5.171   0.879
12274TIP3    H136765   2.369   5.153   0.875
12274TIP3    H236766   2.504   5.092   0.844
12275TIP3   OH236767   2.046   6.193   0.119
12275TIP3    H136768   2.107   6.130   0.157
12275TIP3    H236769   1.962   6.148   0.118
12276TIP3   OH236770   3.276   2.901   0.275
12276TIP3    H136771   3.354   2.847   0.288
12276TIP3    H236772   3.310   2.988   0.253
12277TIP3   OH236773   5.766   0.437   5.762
12277TIP3    H136774   5.687   0.479   5.727
12277TIP3    H236775   5.741   0.346   5.776
12278TIP3   OH236776   0.891   2.089   0.494
12278TIP3    H136777   0.918   2.179   0.514
12278TIP3    H236778   0.957   2.057   0.432
12279TIP3   OH236779   3.337   2.162   1.956
12279TIP3    H136780   3.322   2.070   1.978
12279TIP3    H236781   3.406   2.190   2.016
12280TIP3   OH236782   1.700   7.101   4.314
12280TIP3    H136783   1.697   7.177   4.256
12280TIP3    H236784   1.794   7.086   4.329
12281TIP3   OH236785   3.827   0.875   0.670
12281TIP3    H136786   3.815   0.954   0.618
12281TIP3    H236787   3.749   0.871   0.726
12282TIP3   OH236788   7.306   4.856   2.682
12282TIP3    H136789   7.401   4.864   2.687
12282TIP3    H236790   7.287   4.844   2.589
12283TIP3   OH236791   5.839   5.529   0.634
12283TIP3    H136792   5.864   5.591   0.566
12283TIP3    H236793   5.920   5.513   0.683
12284TIP3   OH236794   3.770   1.725   6.545
12284TIP3    H136795   3.794   1.816   6.527
12284TIP3    H236796   3.682   1.716   6.509
12285TIP3   OH236797   5.197   0.638   0.945
12285TIP3    H136798   5.131   0.646   0.876
12285TIP3    H236799   5.148   0.610   1.022
12286TIP3   OH236800   1.434   0.638   6.680
12286TIP3    H136801   1.382   0.670   6.753
12286TIP3    H236802   1.501   0.584   6.720
12287TIP3   OH236803   2.461   4.854   3.246
12287TIP3    H136804   2.490   4.767   3.216
12287TIP3    H236805   2.402   4.835   3.319
12288TIP3   OH236806   2.324   5.926   3.331
12288TIP3    H136807   2.319   5.887   3.244
12288TIP3    H236808   2.396   5.881   3.374
12289TIP3   OH236809   2.154   2.570   1.861
12289TIP3    H136810   2.123   2.480   1.847
12289TIP3    H236811   2.084   2.611   1.912
12290TIP3   OH236812   0.513   7.683   3.270
12290TIP3    H136813   0.518   7.731   3.187
12290TIP3    H236814   0.437   7.719   3.314
12291TIP3   OH236815   4.726   3.805   1.441
12291TIP3    H136816   4.749   3.746   1.369
12291TIP3    H236817   4.642   3.843   1.415
12292TIP3   OH236818   8.012   7.596   4.634
12292TIP3    H136819   8.056   7.661   4.690
12292TIP3    H236820   7.990   7.524   4.693
12293TIP3   OH236821   2.339   7.645   0.185
12293TIP3    H136822   2.301   7.607   0.105
12293TIP3    H236823   2.282   7.718   0.207
12294TIP3   OH236824   3.848   6.766   2.483
12294TIP3    H136825   3.786   6.692   2.481
12294TIP3    H236826   3.832   6.812   2.401
12295TIP3   OH236827   5.177   5.169   4.580
12295TIP3    H136828   5.171   5.264   4.572
12295TIP3    H236829   5.260   5.147   4.536
12296TIP3   OH236830   2.152   2.134   2.401
12296TIP3    H136831   2.063   2.100   2.395
12296TIP3    H236832   2.202   2.065   2.445
12297TIP3   OH236833   6.390   1.161   0.990
12297TIP3    H136834   6.404   1.232   0.927
12297TIP3    H236835   6.476   1.147   1.030
12298TIP3   OH236836   5.013   0.385   6.399
12298TIP3    H136837   4.982   0.434   6.475
12298TIP3    H236838   5.009   0.294   6.426
12299TIP3   OH236839   0.152   2.129   2.528
12299TIP3    H136840   0.154   2.164   2.617
12299TIP3    H236841   0.166   2.205   2.471
12300TIP3   OH236842   6.900   0.342   2.340
12300TIP3    H136843   6.827   0.333   2.402
12300TIP3    H236844   6.966   0.392   2.388
12301TIP3   OH236845   8.070   3.940   4.930
12301TIP3    H136846   8.094   3.930   5.022
12301TIP3    H236847   7.990   3.993   4.932
12302TIP3   OH236848   7.668   2.137   4.275
12302TIP3    H136849   7.663   2.105   4.366
12302TIP3    H236850   7.619   2.219   4.276
12303TIP3   OH236851   6.576   2.268   1.739
12303TIP3    H136852   6.638   2.214   1.787
12303TIP3    H236853   6.509   2.207   1.709
12304TIP3   OH236854   2.664   0.297   0.769
12304TIP3    H136855   2.737   0.257   0.721
12304TIP3    H236856   2.615   0.345   0.702
12305TIP3   OH236857   0.491   0.492   3.262
12305TIP3    H136858   0.489   0.398   3.278
12305TIP3    H236859   0.476   0.532   3.348
12306TIP3   OH236860   2.415   2.503   1.169
12306TIP3    H136861   2.501   2.468   1.144
12306TIP3    H236862   2.372   2.430   1.214
12307TIP3   OH236863   2.639   0.708   5.263
12307TIP3    H136864   2.606   0.619   5.275
12307TIP3    H236865   2.720   0.697   5.213
12308TIP3   OH236866   1.034   2.324   4.494
12308TIP3    H136867   1.097   2.337   4.423
12308TIP3    H236868   0.949   2.343   4.455
12309TIP3   OH236869   7.210   7.187   1.889
12309TIP3    H136870   7.156   7.112   1.913
12309TIP3    H236871   7.284   7.184   1.949
12310TIP3   OH236872   6.632   3.274   2.202
12310TIP3    H136873   6.714   3.316   2.228
12310TIP3    H236874   6.657   3.216   2.129
12311TIP3   OH236875   4.366   3.539   5.034
12311TIP3    H136876   4.273   3.560   5.020
12311TIP3    H236877   4.385   3.471   4.968
12312TIP3   OH236878   0.467   6.537   1.219
12312TIP3    H136879   0.503   6.507   1.135
12312TIP3    H236880   0.401   6.472   1.242
12313TIP3   OH236881   3.120   5.074   2.721
12313TIP3    H136882   3.152   5.157   2.685
12313TIP3    H236883   3.200   5.024   2.740
12314TIP3   OH236884   0.975   2.070   6.255
12314TIP3    H136885   0.956   2.097   6.344
12314TIP3    H236886   0.998   1.978   6.262
12315TIP3   OH236887   3.695   7.236   0.301
12315TIP3    H136888   3.667   7.313   0.350
12315TIP3    H236889   3.649   7.163   0.342
12316TIP3   OH236890   0.515   0.234   3.203
12316TIP3    H136891   0.609   0.235   3.183
12316TIP3    H236892   0.480   0.161   3.152
12317TIP3   OH236893   3.816   5.221   3.190
12317TIP3    H136894   3.875   5.193   3.120
12317TIP3    H236895   3.830   5.158   3.260
12318TIP3   OH236896   0.765   4.229   0.105
12318TIP3    H136897   0.773   4.264   0.016
12318TIP3    H236898   0.678   4.190   0.108
12319TIP3   OH236899   0.422   4.521   3.919
12319TIP3    H136900   0.448   4.459   3.852
12319TIP3    H236901   0.402   4.467   3.996
12320TIP3   OH236902   3.262   0.376   5.903
12320TIP3    H136903   3.341   0.369   5.850
12320TIP3    H236904   3.252   0.470   5.919
12321TIP3   OH236905   0.256   7.576   2.640
12321TIP3    H136906   0.242   7.622   2.557
12321TIP3    H236907   0.273   7.645   2.703
12322TIP3   OH236908   4.544   4.563   5.760
12322TIP3    H136909   4.450   4.581   5.763
12322TIP3    H236910   4.551   4.471   5.734
12323TIP3   OH236911   3.058   1.847   0.934
12323TIP3    H136912   3.127   1.788   0.903
12323TIP3    H236913   3.097   1.894   1.007
12324TIP3   OH236914   5.363   5.238   6.721
12324TIP3    H136915   5.336   5.148   6.701
12324TIP3    H236916   5.286   5.277   6.764
12325TIP3   OH236917   3.094   2.736   6.799
12325TIP3    H136918   3.019   2.679   6.782
12325TIP3    H236919   3.151   2.723   6.723
12326TIP3   OH236920   5.165   6.555   5.524
12326TIP3    H136921   5.110   6.634   5.520
12326TIP3    H236922   5.112   6.487   5.484
12327TIP3   OH236923   2.097   3.621   0.034
12327TIP3    H136924   2.088   3.703   0.081
12327TIP3    H236925   2.136   3.645  -0.050
12328TIP3   OH236926   5.810   5.059   0.426
12328TIP3    H136927   5.770   4.981   0.465
12328TIP3    H236928   5.742   5.126   0.429
12329TIP3   OH236929   7.524   1.650   1.015
12329TIP3    H136930   7.464   1.684   0.948
12329TIP3    H236931   7.586   1.721   1.031
12330TIP3   OH236932   3.940   6.712   3.661
12330TIP3    H136933   3.914   6.620   3.669
12330TIP3    H236934   3.858   6.759   3.644
12331TIP3   OH236935   7.783   0.222   1.429
12331TIP3    H136936   7.824   0.212   1.515
12331TIP3    H236937   7.750   0.135   1.408
12332TIP3   OH236938   4.781   0.565   4.180
12332TIP3    H136939   4.824   0.579   4.265
12332TIP3    H236940   4.688   0.561   4.200
12333TIP3   OH236941   6.782   6.221   0.936
12333TIP3    H136942   6.786   6.174   0.853
12333TIP3    H236943   6.820   6.307   0.917
12334TIP3   OH236944   0.801   1.423   3.607
12334TIP3    H136945   0.751   1.504   3.611
12334TIP3    H236946   0.737   1.358   3.576
12335TIP3   OH236947   2.879   7.137   1.691
12335TIP3    H136948   2.919   7.116   1.607
12335TIP3    H236949   2.878   7.232   1.695
12336TIP3   OH236950   3.527   7.021   0.421
12336TIP3    H136951   3.586   6.982   0.485
12336TIP3    H236952   3.440   7.014   0.460
12337TIP3   OH236953   0.118   5.801   1.096
12337TIP3    H136954   0.169   5.862   1.041
12337TIP3    H236955   0.064   5.858   1.150
12338TIP3   OH236956   1.653   2.771   5.309
12338TIP3    H136957   1.731   2.718   5.294
12338TIP3    H236958   1.632   2.808   5.223
12339TIP3   OH236959   1.740   2.712   3.696
12339TIP3    H136960   1.729   2.757   3.780
12339TIP3    H236961   1.754   2.782   3.632
12340TIP3   OH236962   2.422   5.325   0.003
12340TIP3    H136963   2.460   5.364   0.081
12340TIP3    H236964   2.374   5.397  -0.039
12341TIP3   OH236965   5.325   0.803   3.927
12341TIP3    H136966   5.409   0.820   3.969
12341TIP3    H236967   5.281   0.888   3.927
12342TIP3   OH236968   5.012   2.733   6.551
12342TIP3    H136969   4.951   2.783   6.497
12342TIP3    H236970   5.071   2.798   6.588
12343TIP3   OH236971   1.350   3.268   0.209
12343TIP3    H136972   1.379   3.359   0.213
12343TIP3    H236973   1.254   3.273   0.205
12344TIP3   OH236974   4.026   5.468   1.025
12344TIP3    H136975   3.998   5.527   0.955
12344TIP3    H236976   4.121   5.473   1.024
12345TIP3   OH236977   2.136   3.765   1.971
12345TIP3    H136978   2.169   3.724   1.890
12345TIP3    H236979   2.057   3.714   1.992
12346TIP3   OH236980   7.018   1.939   2.088
12346TIP3    H136981   7.024   1.886   2.168
12346TIP3    H236982   7.078   2.012   2.103
12347TIP3   OH236983  -0.012   7.686   4.689
12347TIP3    H136984   0.045   7.744   4.740
12347TIP3    H236985   0.032   7.602   4.690
12348TIP3   OH236986   7.474   4.123   0.181
12348TIP3    H136987   7.438   4.035   0.191
12348TIP3    H236988   7.430   4.158   0.104
12349TIP3   OH236989   4.555   1.240   2.988
12349TIP3    H136990   4.510   1.282   3.061
12349TIP3    H236991   4.641   1.282   2.985
12350TIP3   OH236992   3.697   0.106   3.014
12350TIP3    H136993   3.716   0.177   3.075
12350TIP3    H236994   3.647   0.042   3.065
12351TIP3   OH236995   2.122   2.161   3.977
12351TIP3    H136996   2.212   2.164   4.010
12351TIP3    H236997   2.088   2.249   3.990
12352TIP3   OH236998   5.240   2.153   2.198
12352TIP3    H136999   5.194   2.137   2.281
12352TIP3    H237000   5.209   2.239   2.170
12353TIP3   OH237001   5.176   5.345   0.930
12353TIP3    H137002   5.231   5.422   0.918
12353TIP3    H237003   5.234   5.278   0.965
12354TIP3   OH237004   7.778   1.121   4.257
12354TIP3    H137005   7.689   1.093   4.277
12354TIP3    H237006   7.834   1.062   4.307
12355TIP3   OH237007   3.135   6.591   4.891
12355TIP3    H137008   3.187   6.656   4.937
12355TIP3    H237009   3.054   6.585   4.940
12356TIP3   OH237010   1.896   5.860   2.726
12356TIP3    H137011   1.989   5.881   2.728
12356TIP3    H237012   1.863   5.904   2.648
12357TIP3   OH237013   2.015   5.136   0.768
12357TIP3    H137014   2.016   5.040   0.769
12357TIP3    H237015   1.922   5.159   0.764
12358TIP3   OH237016   3.089   4.898   5.285
12358TIP3    H137017   3.166   4.955   5.288
12358TIP3    H237018   3.025   4.941   5.340
12359TIP3   OH237019   0.042   7.620   3.521
12359TIP3    H137020   0.028   7.647   3.612
12359TIP3    H237021   0.032   7.525   3.522
12360TIP3   OH237022   4.874   7.497   6.325
12360TIP3    H137023   4.936   7.556   6.281
12360TIP3    H237024   4.930   7.432   6.369
12361TIP3   OH237025   0.946   1.034   1.606
12361TIP3    H137026   0.865   0.994   1.637
12361TIP3    H237027   0.988   0.965   1.554
12362TIP3   OH237028   6.974   3.753   2.829
12362TIP3    H137029   7.051   3.795   2.868
12362TIP3    H237030   7.009   3.702   2.755
12363TIP3   OH237031   4.534   7.432   4.012
12363TIP3    H137032   4.469   7.451   3.944
12363TIP3    H237033   4.486   7.386   4.080
12364TIP3   OH237034   2.007   4.833   0.730
12364TIP3    H137035   1.981   4.789   0.649
12364TIP3    H237036   2.056   4.766   0.778
12365TIP3   OH237037   3.839   4.960   6.725
12365TIP3    H137038   3.917   4.934   6.676
12365TIP3    H237039   3.823   5.051   6.700
12366TIP3   OH237040   2.748   7.597   1.587
12366TIP3    H137041   2.752   7.690   1.568
12366TIP3    H237042   2.721   7.557   1.504
12367TIP3   OH237043   7.564   4.749   3.932
12367TIP3    H137044   7.581   4.781   4.020
12367TIP3    H237045   7.630   4.682   3.917
12368TIP3   OH237046   3.507   4.066   3.025
12368TIP3    H137047   3.415   4.040   3.012
12368TIP3    H237048   3.557   3.986   3.008
12369TIP3   OH237049   7.420   4.420   5.481
12369TIP3    H137050   7.478   4.403   5.556
12369TIP3    H237051   7.452   4.502   5.444
12370TIP3   OH237052   6.195   6.392   6.174
12370TIP3    H137053   6.146   6.317   6.141
12370TIP3    H237054   6.286   6.361   6.179
12371TIP3   OH237055   0.569   2.592   4.217
12371TIP3    H137056   0.576   2.502   4.185
12371TIP3    H237057   0.623   2.643   4.157
12372TIP3   OH237058   5.475   1.713   3.151
12372TIP3    H137059   5.449   1.674   3.067
12372TIP3    H237060   5.486   1.638   3.209
12373TIP3   OH237061   3.596   0.806   2.134
12373TIP3    H137062   3.550   0.823   2.216
12373TIP3    H237063   3.684   0.780   2.161
12374TIP3   OH237064   6.063   5.534   2.055
12374TIP3    H137065   6.138   5.529   1.996
12374TIP3    H237066   6.084   5.474   2.127
12375TIP3   OH237067   5.852   2.874   2.759
12375TIP3    H137068   5.819   2.898   2.846
12375TIP3    H237069   5.912   2.945   2.736
12376TIP3   OH237070   1.262   1.902   0.057
12376TIP3    H137071   1.283   1.972   0.118
12376TIP3    H237072   1.267   1.942  -0.030
12377TIP3   OH237073   4.632   3.813   1.743
12377TIP3    H137074   4.607   3.826   1.652
12377TIP3    H237075   4.727   3.798   1.740
12378TIP3   OH237076   2.279   5.664   6.281
12378TIP3    H137077   2.266   5.577   6.244
12378TIP3    H237078   2.354   5.654   6.340
12379TIP3   OH237079   1.778   1.974   3.072
12379TIP3    H137080   1.867   1.939   3.067
12379TIP3    H237081   1.721   1.898   3.064
12380TIP3   OH237082   1.881   2.186   1.960
12380TIP3    H137083   1.865   2.096   1.932
12380TIP3    H237084   1.800   2.214   2.002
12381TIP3   OH237085   7.406   6.331   3.645
12381TIP3    H137086   7.473   6.295   3.586
12381TIP3    H237087   7.388   6.260   3.707
12382TIP3   OH237088   6.390   4.207   4.439
12382TIP3    H137089   6.386   4.295   4.401
12382TIP3    H237090   6.455   4.214   4.509
12383TIP3   OH237091   6.640   0.065   3.520
12383TIP3    H137092   6.620  -0.028   3.509
12383TIP3    H237093   6.644   0.099   3.431
12384TIP3   OH237094   5.321   7.752   0.166
12384TIP3    H137095   5.304   7.840   0.132
12384TIP3    H237096   5.272   7.748   0.248
12385TIP3   OH237097   1.575   4.275   5.616
12385TIP3    H137098   1.565   4.187   5.578
12385TIP3    H237099   1.665   4.300   5.595
12386TIP3   OH237100   2.991   2.030   3.522
12386TIP3    H137101   2.963   1.952   3.474
12386TIP3    H237102   2.967   2.012   3.613
12387TIP3   OH237103   4.386   7.212   5.015
12387TIP3    H137104   4.374   7.289   5.072
12387TIP3    H237105   4.336   7.233   4.936
12388TIP3   OH237106   6.573   5.720   2.168
12388TIP3    H137107   6.639   5.784   2.193
12388TIP3    H237108   6.621   5.653   2.120
12389TIP3   OH237109   6.178   2.264   0.091
12389TIP3    H137110   6.169   2.183   0.141
12389TIP3    H237111   6.272   2.278   0.085
12390TIP3   OH237112   0.544   4.645   3.094
12390TIP3    H137113   0.562   4.563   3.139
12390TIP3    H237114   0.607   4.648   3.022
12391TIP3   OH237115   4.659   5.598   5.662
12391TIP3    H137116   4.611   5.569   5.740
12391TIP3    H237117   4.630   5.539   5.592
12392TIP3   OH237118   5.012   1.658   5.039
12392TIP3    H137119   5.047   1.615   4.961
12392TIP3    H237120   5.038   1.602   5.112
12393TIP3   OH237121   2.524   6.996   1.445
12393TIP3    H137122   2.529   7.069   1.507
12393TIP3    H237123   2.598   7.010   1.385
12394TIP3   OH237124   0.031   4.809   4.260
12394TIP3    H137125   0.078   4.858   4.327
12394TIP3    H237126  -0.054   4.791   4.300
12395TIP3   OH237127   7.091   0.010   4.585
12395TIP3    H137128   7.094   0.013   4.489
12395TIP3    H237129   7.007   0.049   4.607
12396TIP3   OH237130   7.776   2.012   5.500
12396TIP3    H137131   7.782   1.970   5.414
12396TIP3    H237132   7.692   1.981   5.535
12397TIP3   OH237133   0.287   0.772   4.248
12397TIP3    H137134   0.333   0.691   4.271
12397TIP3    H237135   0.356   0.830   4.217
12398TIP3   OH237136   2.116   1.130   6.513
12398TIP3    H137137   2.148   1.044   6.485
12398TIP3    H237138   2.195   1.177   6.541
12399TIP3   OH237139   8.232   3.712   3.020
12399TIP3    H137140   8.218   3.717   2.925
12399TIP3    H237141   8.148   3.738   3.058
12400TIP3   OH237142   3.053   2.761   5.104
12400TIP3    H137143   3.079   2.820   5.175
12400TIP3    H237144   3.050   2.817   5.026
12401TIP3   OH237145   5.201   0.424   0.174
12401TIP3    H137146   5.267   0.416   0.242
12401TIP3    H237147   5.251   0.434   0.093
12402TIP3   OH237148   7.263   1.903   1.263
12402TIP3    H137149   7.221   1.843   1.325
12402TIP3    H237150   7.191   1.932   1.206
12403TIP3   OH237151   2.095   4.867   5.205
12403TIP3    H137152   2.022   4.893   5.150
12403TIP3    H237153   2.066   4.785   5.246
12404TIP3   OH237154   1.415   5.394   3.093
12404TIP3    H137155   1.377   5.482   3.093
12404TIP3    H237156   1.375   5.351   3.017
12405TIP3   OH237157   2.301   4.890   2.392
12405TIP3    H137158   2.254   4.820   2.346
12405TIP3    H237159   2.333   4.947   2.321
12406TIP3   OH237160   3.998   6.889   0.018
12406TIP3    H137161   4.006   6.950  -0.054
12406TIP3    H237162   3.919   6.915   0.064
12407TIP3   OH237163   3.101   1.033   5.242
12407TIP3    H137164   3.022   1.006   5.194
12407TIP3    H237165   3.142   1.098   5.185
12408TIP3   OH237166   6.250   2.940   6.451
12408TIP3    H137167   6.200   2.985   6.519
12408TIP3    H237168   6.201   2.860   6.435
12409TIP3   OH237169   6.768   4.937   1.254
12409TIP3    H137170   6.700   4.885   1.211
12409TIP3    H237171   6.782   5.011   1.196
12410TIP3   OH237172   1.837   1.217   3.117
12410TIP3    H137173   1.783   1.296   3.120
12410TIP3    H237174   1.776   1.146   3.096
12411TIP3   OH237175   4.140   2.309   0.556
12411TIP3    H137176   4.127   2.394   0.600
12411TIP3    H237177   4.052   2.282   0.532
12412TIP3   OH237178   8.151   7.044   2.361
12412TIP3    H137179   8.230   7.094   2.380
12412TIP3    H237180   8.118   7.081   2.279
12413TIP3   OH237181   8.079   0.393   3.326
12413TIP3    H137182   8.023   0.419   3.254
12413TIP3    H237183   8.167   0.387   3.288
12414TIP3   OH237184   0.444   6.242   2.751
12414TIP3    H137185   0.491   6.256   2.669
12414TIP3    H237186   0.358   6.282   2.736
12415TIP3   OH237187   8.030   3.301   3.152
12415TIP3    H137188   8.011   3.273   3.242
12415TIP3    H237189   8.116   3.344   3.158
12416TIP3   OH237190   8.254   4.092   2.318
12416TIP3    H137191   8.238   4.011   2.271
12416TIP3    H237192   8.223   4.075   2.407
12417TIP3   OH237193   4.672   2.124   0.873
12417TIP3    H137194   4.629   2.202   0.909
12417TIP3    H237195   4.697   2.074   0.951
12418TIP3   OH237196   7.596   6.710   3.083
12418TIP3    H137197   7.689   6.695   3.065
12418TIP3    H237198   7.553   6.694   2.999
12419TIP3   OH237199   1.112   1.273   0.199
12419TIP3    H137200   1.070   1.305   0.120
12419TIP3    H237201   1.060   1.197   0.225
12420TIP3   OH237202   0.172   2.470   3.653
12420TIP3    H137203   0.115   2.461   3.729
12420TIP3    H237204   0.116   2.507   3.584
12421TIP3   OH237205   4.785   5.874   4.757
12421TIP3    H137206   4.694   5.865   4.729
12421TIP3    H237207   4.836   5.871   4.676
12422TIP3   OH237208   4.289   6.643   5.412
12422TIP3    H137209   4.321   6.644   5.322
12422TIP3    H237210   4.361   6.606   5.462
12423TIP3   OH237211   3.492   5.026   0.048
12423TIP3    H137212   3.455   5.114   0.039
12423TIP3    H237213   3.587   5.040   0.053
12424TIP3   OH237214   2.769   6.486   4.215
12424TIP3    H137215   2.744   6.409   4.164
12424TIP3    H237216   2.830   6.452   4.281
12425TIP3   OH237217   5.260   6.561   6.389
12425TIP3    H137218   5.284   6.605   6.471
12425TIP3    H237219   5.243   6.633   6.328
12426TIP3   OH237220   4.226   3.447   2.021
12426TIP3    H137221   4.320   3.444   2.037
12426TIP3    H237222   4.202   3.356   2.003
12427TIP3   OH237223   2.841   3.095   2.071
12427TIP3    H137224   2.837   3.188   2.048
12427TIP3    H237225   2.750   3.068   2.079
12428TIP3   OH237226   6.500   5.366   0.287
12428TIP3    H137227   6.511   5.319   0.204
12428TIP3    H237228   6.416   5.335   0.321
12429TIP3   OH237229   0.682   0.974   5.758
12429TIP3    H137230   0.702   0.893   5.712
12429TIP3    H237231   0.587   0.986   5.746
12430TIP3   OH237232   0.397   2.672   4.980
12430TIP3    H137233   0.356   2.729   5.045
12430TIP3    H237234   0.490   2.697   4.982
12431TIP3   OH237235   7.692   1.598   4.438
12431TIP3    H137236   7.699   1.502   4.440
12431TIP3    H237237   7.610   1.615   4.391
12432TIP3   OH237238   4.550   7.263   1.127
12432TIP3    H137239   4.539   7.314   1.046
12432TIP3    H237240   4.609   7.315   1.181
12433TIP3   OH237241   0.066   0.858   4.076
12433TIP3    H137242   0.077   0.817   3.991
12433TIP3    H237243   0.098   0.792   4.138
12434TIP3   OH237244   6.208   6.199   5.798
12434TIP3    H137245   6.161   6.136   5.743
12434TIP3    H237246   6.170   6.284   5.775
12435TIP3   OH237247   6.351   5.724   4.382
12435TIP3    H137248   6.279   5.737   4.319
12435TIP3    H237249   6.403   5.804   4.375
12436TIP3   OH237250   6.569   2.475   6.136
12436TIP3    H137251   6.633   2.404   6.139
12436TIP3    H237252   6.553   2.489   6.043
12437TIP3   OH237253   6.875   3.109   0.764
12437TIP3    H137254   6.867   3.164   0.687
12437TIP3    H237255   6.802   3.135   0.820
12438TIP3   OH237256   4.176   2.820   4.791
12438TIP3    H137257   4.260   2.863   4.771
12438TIP3    H237258   4.199   2.752   4.854
12439TIP3   OH237259   6.500   5.517   4.078
12439TIP3    H137260   6.501   5.596   4.024
12439TIP3    H237261   6.536   5.545   4.163
12440TIP3   OH237262   4.215   0.651   6.271
12440TIP3    H137263   4.292   0.594   6.267
12440TIP3    H237264   4.184   0.644   6.361
12441TIP3   OH237265   0.863   0.171   4.223
12441TIP3    H137266   0.839   0.233   4.292
12441TIP3    H237267   0.910   0.223   4.158
12442TIP3   OH237268   0.165   1.505   2.061
12442TIP3    H137269   0.179   1.413   2.083
12442TIP3    H237270   0.180   1.552   2.143
12443TIP3   OH237271   4.256   1.585   0.756
12443TIP3    H137272   4.307   1.656   0.718
12443TIP3    H237273   4.311   1.550   0.826
12444TIP3   OH237274   1.914   5.521   1.666
12444TIP3    H137275   1.888   5.451   1.725
12444TIP3    H237276   2.001   5.495   1.635
12445TIP3   OH237277   3.128   1.989   1.473
12445TIP3    H137278   3.121   2.013   1.566
12445TIP3    H237279   3.121   2.072   1.426
12446TIP3   OH237280   2.633   2.757   3.070
12446TIP3    H137281   2.578   2.745   3.148
12446TIP3    H237282   2.570   2.766   2.998
12447TIP3   OH237283   1.122   1.984   1.475
12447TIP3    H137284   1.129   1.916   1.407
12447TIP3    H237285   1.193   2.045   1.455
12448TIP3   OH237286   7.999   6.527   1.143
12448TIP3    H137287   8.068   6.466   1.117
12448TIP3    H237288   7.925   6.471   1.166
12449TIP3   OH237289   3.436   7.790   0.781
12449TIP3    H137290   3.406   7.857   0.841
12449TIP3    H237291   3.358   7.738   0.760
12450TIP3   OH237292   6.158   4.550   6.052
12450TIP3    H137293   6.107   4.630   6.039
12450TIP3    H237294   6.095   4.479   6.039
12451TIP3   OH237295   4.600   1.666   0.126
12451TIP3    H137296   4.665   1.670   0.056
12451TIP3    H237297   4.568   1.576   0.124
12452TIP3   OH237298   2.689   1.884   3.080
12452TIP3    H137299   2.626   1.932   3.027
12452TIP3    H237300   2.763   1.868   3.022
12453TIP3   OH237301   4.741   0.089   5.519
12453TIP3    H137302   4.821   0.051   5.556
12453TIP3    H237303   4.764   0.107   5.427
12454TIP3   OH237304   0.227   7.612   2.102
12454TIP3    H137305   0.245   7.701   2.133
12454TIP3    H237306   0.158   7.623   2.037
12455TIP3   OH237307   2.953   2.522   5.050
12455TIP3    H137308   2.973   2.464   5.123
12455TIP3    H237309   2.985   2.608   5.078
12456TIP3   OH237310   4.100   1.362   6.761
12456TIP3    H137311   4.073   1.447   6.725
12456TIP3    H237312   4.027   1.303   6.741
12457TIP3   OH237313   0.118   6.997   0.632
12457TIP3    H137314   0.200   6.986   0.583
12457TIP3    H237315   0.050   6.973   0.569
12458TIP3   OH237316   7.083   0.061   6.496
12458TIP3    H137317   6.995   0.097   6.498
12458TIP3    H237318   7.102   0.039   6.588
12459TIP3   OH237319   2.854   0.221   2.908
12459TIP3    H137320   2.819   0.132   2.910
12459TIP3    H237321   2.920   0.223   2.977
12460TIP3   OH237322   7.521   4.840   5.905
12460TIP3    H137323   7.521   4.759   5.956
12460TIP3    H237324   7.585   4.896   5.949
12461TIP3   OH237325   1.058   0.727   2.964
12461TIP3    H137326   0.974   0.698   2.999
12461TIP3    H237327   1.107   0.758   3.041
12462TIP3   OH237328   4.892   3.109   0.521
12462TIP3    H137329   4.935   3.107   0.606
12462TIP3    H237330   4.809   3.154   0.537
12463TIP3   OH237331   1.111   4.930   3.081
12463TIP3    H137332   1.187   4.975   3.118
12463TIP3    H237333   1.120   4.839   3.110
12464TIP3   OH237334   4.728   7.472   3.787
12464TIP3    H137335   4.702   7.472   3.879
12464TIP3    H237336   4.669   7.409   3.745
12465TIP3   OH237337   4.030   0.507   2.007
12465TIP3    H137338   4.034   0.420   1.968
12465TIP3    H237339   4.019   0.566   1.933
12466TIP3   OH237340   6.792   5.967   4.442
12466TIP3    H137341   6.725   5.900   4.456
12466TIP3    H237342   6.744   6.042   4.408
12467TIP3   OH237343   0.837   7.218   5.121
12467TIP3    H137344   0.926   7.251   5.110
12467TIP3    H237345   0.781   7.294   5.102
12468TIP3   OH237346   2.533   5.011   0.595
12468TIP3    H137347   2.466   4.974   0.652
12468TIP3    H237348   2.537   4.952   0.520
12469TIP3   OH237349   1.337   7.834   2.695
12469TIP3    H137350   1.335   7.740   2.676
12469TIP3    H237351   1.252   7.866   2.665
12470TIP3   OH237352   6.263   2.192   3.080
12470TIP3    H137353   6.284   2.195   2.987
12470TIP3    H237354   6.285   2.103   3.107
12471TIP3   OH237355   2.133   1.449   5.747
12471TIP3    H137356   2.110   1.541   5.758
12471TIP3    H237357   2.144   1.438   5.653
12472TIP3   OH237358   6.279   3.427   4.923
12472TIP3    H137359   6.304   3.520   4.920
12472TIP3    H237360   6.185   3.427   4.906
12473TIP3   OH237361   0.053   2.346   3.876
12473TIP3    H137362   0.036   2.422   3.930
12473TIP3    H237363  -0.014   2.283   3.901
12474TIP3   OH237364   5.402   4.809   2.870
12474TIP3    H137365   5.366   4.729   2.909
12474TIP3    H237366   5.468   4.839   2.933
12475TIP3   OH237367   7.428   5.380   3.115
12475TIP3    H137368   7.439   5.380   3.210
12475TIP3    H237369   7.517   5.377   3.081
12476TIP3   OH237370   3.798   1.145   0.491
12476TIP3    H137371   3.780   1.137   0.397
12476TIP3    H237372   3.894   1.152   0.496
12477TIP3   OH237373   3.208   0.432   6.476
12477TIP3    H137374   3.183   0.351   6.432
12477TIP3    H237375   3.239   0.404   6.562
12478TIP3   OH237376   1.565   7.718   5.985
12478TIP3    H137377   1.627   7.763   5.927
12478TIP3    H237378   1.493   7.692   5.927
12479TIP3   OH237379   4.303   5.177   1.314
12479TIP3    H137380   4.308   5.263   1.272
12479TIP3    H237381   4.235   5.130   1.266
12480TIP3   OH237382   0.845   0.076   3.440
12480TIP3    H137383   0.920   0.124   3.475
12480TIP3    H237384   0.773   0.140   3.440
12481TIP3   OH237385   5.557   6.728   4.504
12481TIP3    H137386   5.577   6.707   4.413
12481TIP3    H237387   5.606   6.662   4.554
12482TIP3   OH237388   6.328   0.219   2.373
12482TIP3    H137389   6.363   0.194   2.287
12482TIP3    H237390   6.344   0.314   2.379
12483TIP3   OH237391   3.502   3.789   5.249
12483TIP3    H137392   3.546   3.758   5.170
12483TIP3    H237393   3.439   3.854   5.218
12484TIP3   OH237394   1.459   1.911   3.306
12484TIP3    H137395   1.461   1.970   3.382
12484TIP3    H237396   1.410   1.959   3.239
12485TIP3   OH237397   7.420   5.617   1.539
12485TIP3    H137398   7.351   5.635   1.475
12485TIP3    H237399   7.395   5.534   1.579
12486TIP3   OH237400   3.859   0.604   6.678
12486TIP3    H137401   3.886   0.576   6.766
12486TIP3    H237402   3.939   0.599   6.626
12487TIP3   OH237403   5.407   5.772   6.017
12487TIP3    H137404   5.483   5.801   6.069
12487TIP3    H237405   5.438   5.693   5.971
12488TIP3   OH237406   7.787   6.686   6.046
12488TIP3    H137407   7.735   6.640   5.980
12488TIP3    H237408   7.741   6.669   6.128
12489TIP3   OH237409   5.006   2.612   4.913
12489TIP3    H137410   4.975   2.622   4.823
12489TIP3    H237411   5.101   2.609   4.906
12490TIP3   OH237412   7.184   7.294   5.461
12490TIP3    H137413   7.241   7.311   5.537
12490TIP3    H237414   7.150   7.206   5.475
12491TIP3   OH237415   5.927   4.978   0.138
12491TIP3    H137416   5.973   4.915   0.195
12491TIP3    H237417   5.836   4.973   0.166
12492TIP3   OH237418   2.551   4.240   3.433
12492TIP3    H137419   2.486   4.170   3.435
12492TIP3    H237420   2.620   4.207   3.377
12493TIP3   OH237421   6.994   1.326   0.384
12493TIP3    H137422   7.044   1.377   0.321
12493TIP3    H237423   7.057   1.307   0.455
12494TIP3   OH237424   0.796   2.038   1.708
12494TIP3    H137425   0.868   1.976   1.696
12494TIP3    H237426   0.717   1.984   1.712
12495TIP3   OH237427   7.573   6.145   5.205
12495TIP3    H137428   7.513   6.099   5.146
12495TIP3    H237429   7.655   6.150   5.157
12496TIP3   OH237430   0.630   6.685   3.935
12496TIP3    H137431   0.711   6.729   3.910
12496TIP3    H237432   0.617   6.710   4.027
12497TIP3   OH237433   2.695   3.345   1.092
12497TIP3    H137434   2.706   3.252   1.109
12497TIP3    H237435   2.614   3.368   1.139
12498TIP3   OH237436   2.427   1.242   0.536
12498TIP3    H137437   2.333   1.225   0.533
12498TIP3    H237438   2.442   1.309   0.470
12499TIP3   OH237439   2.154   2.708   4.859
12499TIP3    H137440   2.120   2.621   4.881
12499TIP3    H237441   2.088   2.769   4.893
12500TIP3   OH237442   2.257   4.765   0.932
12500TIP3    H137443   2.241   4.671   0.938
12500TIP3    H237444   2.231   4.800   1.017
12501TIP3   OH237445   0.193   4.990   4.386
12501TIP3    H137446   0.162   5.066   4.337
12501TIP3    H237447   0.225   5.026   4.468
12502TIP3   OH237448   5.345   6.692   6.664
12502TIP3    H137449   5.295   6.716   6.742
12502TIP3    H237450   5.435   6.715   6.684
12503TIP3   OH237451   5.219   7.257   1.177
12503TIP3    H137452   5.185   7.346   1.166
12503TIP3    H237453   5.141   7.202   1.170
12504TIP3   OH237454   7.938   5.790   3.630
12504TIP3    H137455   7.994   5.862   3.599
12504TIP3    H237456   7.976   5.765   3.714
12505TIP3   OH237457   0.417   6.218   5.134
12505TIP3    H137458   0.441   6.309   5.116
12505TIP3    H237459   0.434   6.172   5.052
12506TIP3   OH237460   4.377   1.536   0.451
12506TIP3    H137461   4.351   1.604   0.512
12506TIP3    H237462   4.473   1.532   0.460
12507TIP3   OH237463   2.355   1.982   0.531
12507TIP3    H137464   2.319   2.016   0.613
12507TIP3    H237465   2.307   1.900   0.516
12508TIP3   OH237466   2.477   2.416   4.644
12508TIP3    H137467   2.457   2.413   4.737
12508TIP3    H237468   2.467   2.508   4.619
12509TIP3   OH237469   5.417   2.134   4.969
12509TIP3    H137470   5.429   2.134   4.874
12509TIP3    H237471   5.441   2.223   4.997
12510TIP3   OH237472   2.589   0.515   0.618
12510TIP3    H137473   2.638   0.559   0.687
12510TIP3    H237474   2.619   0.557   0.537
12511TIP3   OH237475   1.169   1.026   1.792
12511TIP3    H137476   1.173   0.931   1.786
12511TIP3    H237477   1.091   1.050   1.743
12512TIP3   OH237478   0.042   2.612   6.011
12512TIP3    H137479  -0.052   2.604   5.997
12512TIP3    H237480   0.065   2.536   6.066
12513TIP3   OH237481   4.259   7.533   6.384
12513TIP3    H137482   4.245   7.440   6.364
12513TIP3    H237483   4.289   7.533   6.474
12514TIP3   OH237484   4.451   3.662   1.281
12514TIP3    H137485   4.501   3.699   1.209
12514TIP3    H237486   4.471   3.569   1.279
12515TIP3   OH237487   5.691   1.277   0.383
12515TIP3    H137488   5.627   1.341   0.352
12515TIP3    H237489   5.639   1.206   0.418
12516TIP3   OH237490   1.383   7.442   5.044
12516TIP3    H137491   1.418   7.361   5.008
12516TIP3    H237492   1.461   7.492   5.070
12517TIP3   OH237493   1.428   1.072   4.616
12517TIP3    H137494   1.472   0.987   4.624
12517TIP3    H237495   1.470   1.126   4.682
12518TIP3   OH237496   3.907   1.694   2.317
12518TIP3    H137497   3.928   1.618   2.370
12518TIP3    H237498   3.960   1.765   2.353
12519TIP3   OH237499   3.735   6.959   6.231
12519TIP3    H137500   3.770   7.037   6.188
12519TIP3    H237501   3.652   6.943   6.188
12520TIP3   OH237502   7.891   4.891   0.449
12520TIP3    H137503   7.835   4.951   0.500
12520TIP3    H237504   7.980   4.919   0.471
12521TIP3   OH237505   4.313   5.564   0.428
12521TIP3    H137506   4.294   5.470   0.422
12521TIP3    H237507   4.227   5.606   0.430
12522TIP3   OH237508   3.480   5.131   5.511
12522TIP3    H137509   3.458   5.064   5.575
12522TIP3    H237510   3.534   5.193   5.559
12523TIP3   OH237511   2.282   6.400   0.799
12523TIP3    H137512   2.361   6.439   0.762
12523TIP3    H237513   2.310   6.361   0.882
12524TIP3   OH237514   0.876   1.325   0.622
12524TIP3    H137515   0.959   1.364   0.651
12524TIP3    H237516   0.869   1.244   0.673
12525TIP3   OH237517   0.593   0.874   2.977
12525TIP3    H137518   0.657   0.937   2.945
12525TIP3    H237519   0.617   0.791   2.935
12526TIP3   OH237520   7.890   6.725   0.680
12526TIP3    H137521   7.834   6.784   0.630
12526TIP3    H237522   7.979   6.748   0.654
12527TIP3   OH237523   1.039   4.630   6.622
12527TIP3    H137524   1.025   4.725   6.618
12527TIP3    H237525   1.115   4.620   6.678
12528TIP3   OH237526   4.722   6.964   5.306
12528TIP3    H137527   4.678   6.935   5.386
12528TIP3    H237528   4.652   6.974   5.242
12529TIP3   OH237529   5.146   3.162   0.797
12529TIP3    H137530   5.175   3.155   0.888
12529TIP3    H237531   5.091   3.085   0.784
12530TIP3   OH237532   3.349   6.523   4.696
12530TIP3    H137533   3.297   6.545   4.773
12530TIP3    H237534   3.408   6.453   4.725
12531TIP3   OH237535   6.795   5.631   0.347
12531TIP3    H137536   6.827   5.541   0.341
12531TIP3    H237537   6.853   5.680   0.288
12532TIP3   OH237538   5.155   5.280   1.480
12532TIP3    H137539   5.125   5.291   1.389
12532TIP3    H237540   5.116   5.197   1.508
12533TIP3   OH237541   0.004   6.700   2.968
12533TIP3    H137542   0.006   6.639   2.894
12533TIP3    H237543   0.088   6.745   2.965
12534TIP3   OH237544   5.746   2.691   5.554
12534TIP3    H137545   5.827   2.649   5.525
12534TIP3    H237546   5.737   2.768   5.497
12535TIP3   OH237547   5.671   5.390   3.567
12535TIP3    H137548   5.616   5.418   3.493
12535TIP3    H237549   5.758   5.425   3.546
12536TIP3   OH237550   3.029   3.658   1.810
12536TIP3    H137551   3.104   3.714   1.827
12536TIP3    H237552   2.962   3.689   1.872
12537TIP3   OH237553   0.361   5.385   2.950
12537TIP3    H137554   0.455   5.369   2.939
12537TIP3    H237555   0.351   5.405   3.043
12538TIP3   OH237556   2.818   6.350   4.702
12538TIP3    H137557   2.899   6.402   4.699
12538TIP3    H237558   2.848   6.260   4.708
12539TIP3   OH237559   1.957   4.330   4.834
12539TIP3    H137560   2.043   4.361   4.864
12539TIP3    H237561   1.949   4.366   4.745
12540TIP3   OH237562   0.934   1.045   5.630
12540TIP3    H137563   0.961   1.137   5.631
12540TIP3    H237564   0.847   1.045   5.668
12541TIP3   OH237565   3.781   3.636   6.257
12541TIP3    H137566   3.702   3.627   6.312
12541TIP3    H237567   3.803   3.729   6.263
12542TIP3   OH237568   3.793   4.644   0.642
12542TIP3    H137569   3.713   4.679   0.682
12542TIP3    H237570   3.771   4.554   0.619
12543TIP3   OH237571   3.470   4.096   2.677
12543TIP3    H137572   3.563   4.073   2.670
12543TIP3    H237573   3.470   4.183   2.716
12544TIP3   OH237574   1.708   3.470   0.549
12544TIP3    H137575   1.654   3.546   0.570
12544TIP3    H237576   1.665   3.397   0.594
12545TIP3   OH237577   1.291   2.653   5.446
12545TIP3    H137578   1.210   2.654   5.496
12545TIP3    H237579   1.268   2.692   5.362
12546TIP3   OH237580   1.862   2.337   1.024
12546TIP3    H137581   1.797   2.374   1.084
12546TIP3    H237582   1.937   2.316   1.080
12547TIP3   OH237583   5.511   0.672   3.656
12547TIP3    H137584   5.560   0.670   3.573
12547TIP3    H237585   5.560   0.614   3.714
12548TIP3   OH237586   6.112   7.099   3.188
12548TIP3    H137587   6.108   7.194   3.198
12548TIP3    H237588   6.145   7.085   3.099
12549TIP3   OH237589   5.196   2.181   5.680
12549TIP3    H137590   5.184   2.091   5.649
12549TIP3    H237591   5.281   2.207   5.643
12550TIP3   OH237592   5.659   4.264   5.395
12550TIP3    H137593   5.752   4.240   5.385
12550TIP3    H237594   5.647   4.340   5.338
12551TIP3   OH237595   7.542   5.334   5.396
12551TIP3    H137596   7.622   5.372   5.432
12551TIP3    H237597   7.536   5.368   5.307
12552TIP3   OH237598   0.761   5.828   4.026
12552TIP3    H137599   0.857   5.834   4.022
12552TIP3    H237600   0.744   5.734   4.032
12553TIP3   OH237601   2.453   4.225   2.627
12553TIP3    H137602   2.546   4.238   2.608
12553TIP3    H237603   2.453   4.174   2.708
12554TIP3   OH237604   0.856   5.872   2.714
12554TIP3    H137605   0.936   5.913   2.747
12554TIP3    H237606   0.860   5.783   2.748
12555TIP3   OH237607   5.880   6.862   3.612
12555TIP3    H137608   5.790   6.895   3.613
12555TIP3    H237609   5.883   6.804   3.536
12556TIP3   OH237610   0.048   6.629   0.740
12556TIP3    H137611   0.004   6.702   0.783
12556TIP3    H237612   0.131   6.619   0.787
12557TIP3   OH237613   1.045   1.139   6.061
12557TIP3    H137614   1.025   1.061   6.009
12557TIP3    H237615   1.140   1.146   6.058
12558TIP3   OH237616   2.943   3.597   3.967
12558TIP3    H137617   2.961   3.567   3.878
12558TIP3    H237618   2.918   3.518   4.015
12559TIP3   OH237619   0.962   7.274   0.906
12559TIP3    H137620   0.927   7.219   0.976
12559TIP3    H237621   1.039   7.315   0.945
12560TIP3   OH237622   8.231   0.666   4.580
12560TIP3    H137623   8.172   0.699   4.648
12560TIP3    H237624   8.188   0.688   4.498
12561TIP3   OH237625   2.101   0.739   6.698
12561TIP3    H137626   2.142   0.671   6.750
12561TIP3    H237627   2.017   0.702   6.671
12562TIP3   OH237628   6.292   6.619   0.554
12562TIP3    H137629   6.321   6.543   0.604
12562TIP3    H237630   6.212   6.590   0.510
12563TIP3   OH237631   4.414   4.051   2.568
12563TIP3    H137632   4.411   4.002   2.651
12563TIP3    H237633   4.370   4.133   2.589
12564TIP3   OH237634   4.967   3.517   4.407
12564TIP3    H137635   4.965   3.585   4.340
12564TIP3    H237636   4.938   3.438   4.362
12565TIP3   OH237637   4.882   6.746   2.446
12565TIP3    H137638   4.888   6.826   2.394
12565TIP3    H237639   4.803   6.758   2.499
12566TIP3   OH237640   0.076   4.821   4.786
12566TIP3    H137641   0.040   4.908   4.802
12566TIP3    H237642  -0.001   4.766   4.769
12567TIP3   OH237643   5.770   5.095   5.744
12567TIP3    H137644   5.683   5.132   5.756
12567TIP3    H237645   5.827   5.147   5.801
12568TIP3   OH237646   2.268   5.449   1.159
12568TIP3    H137647   2.342   5.456   1.219
12568TIP3    H237648   2.307   5.442   1.072
12569TIP3   OH237649   4.876   0.505   4.987
12569TIP3    H137650   4.790   0.546   4.992
12569TIP3    H237651   4.913   0.537   4.904
12570TIP3   OH237652   0.316   2.870   3.496
12570TIP3    H137653   0.381   2.937   3.472
12570TIP3    H237654   0.253   2.917   3.550
12571TIP3   OH237655   7.175   7.623   0.690
12571TIP3    H137656   7.121   7.546   0.675
12571TIP3    H237657   7.189   7.626   0.784
12572TIP3   OH237658   4.535   6.244   6.580
12572TIP3    H137659   4.571   6.327   6.549
12572TIP3    H237660   4.565   6.179   6.517
12573TIP3   OH237661   4.443   6.672   6.584
12573TIP3    H137662   4.479   6.673   6.673
12573TIP3    H237663   4.377   6.603   6.585
12574TIP3   OH237664   7.715   1.465   2.973
12574TIP3    H137665   7.775   1.539   2.982
12574TIP3    H237666   7.651   1.478   3.043
12575TIP3   OH237667   0.260   1.009   6.734
12575TIP3    H137668   0.261   0.957   6.814
12575TIP3    H237669   0.349   1.001   6.699
12576TIP3   OH237670   7.789   5.246   5.029
12576TIP3    H137671   7.763   5.337   5.044
12576TIP3    H237672   7.881   5.243   5.058
12577TIP3   OH237673   6.248   4.019   0.300
12577TIP3    H137674   6.327   3.982   0.340
12577TIP3    H237675   6.278   4.055   0.216
12578TIP3   OH237676   2.012   7.385   0.414
12578TIP3    H137677   2.008   7.462   0.470
12578TIP3    H237678   1.926   7.379   0.373
12579TIP3   OH237679   4.575   7.448   2.016
12579TIP3    H137680   4.570   7.358   2.049
12579TIP3    H237681   4.538   7.501   2.086
12580TIP3   OH237682   0.283   3.150   6.205
12580TIP3    H137683   0.328   3.207   6.267
12580TIP3    H237684   0.190   3.165   6.221
12581TIP3   OH237685   0.827   2.305   2.212
12581TIP3    H137686   0.828   2.227   2.157
12581TIP3    H237687   0.739   2.340   2.204
12582TIP3   OH237688   3.758   3.253   6.283
12582TIP3    H137689   3.690   3.317   6.265
12582TIP3    H237690   3.836   3.305   6.304
12583TIP3   OH237691   6.243   6.241   2.915
12583TIP3    H137692   6.154   6.274   2.933
12583TIP3    H237693   6.230   6.148   2.898
12584TIP3   OH237694   1.807   0.692   5.388
12584TIP3    H137695   1.838   0.783   5.381
12584TIP3    H237696   1.721   0.699   5.429
12585TIP3   OH237697   3.879   6.176   4.620
12585TIP3    H137698   3.785   6.194   4.612
12585TIP3    H237699   3.920   6.261   4.609
12586TIP3   OH237700   3.457   3.808   1.761
12586TIP3    H137701   3.552   3.809   1.751
12586TIP3    H237702   3.428   3.891   1.723
12587TIP3   OH237703   3.321   7.230   2.190
12587TIP3    H137704   3.307   7.142   2.224
12587TIP3    H237705   3.414   7.248   2.204
12588TIP3   OH237706   5.699   6.388   3.688
12588TIP3    H137707   5.645   6.311   3.669
12588TIP3    H237708   5.636   6.459   3.701
12589TIP3   OH237709   6.763   4.768   4.269
12589TIP3    H137710   6.776   4.860   4.245
12589TIP3    H237711   6.696   4.737   4.208
12590TIP3   OH237712   6.471   5.615   1.027
12590TIP3    H137713   6.444   5.694   0.981
12590TIP3    H237714   6.489   5.551   0.958
12591TIP3   OH237715   7.016   5.778   2.393
12591TIP3    H137716   7.019   5.819   2.306
12591TIP3    H237717   7.108   5.762   2.415
12592TIP3   OH237718   3.331   4.954   2.079
12592TIP3    H137719   3.297   4.865   2.071
12592TIP3    H237720   3.286   5.003   2.011
12593TIP3   OH237721   6.933   4.824   1.434
12593TIP3    H137722   6.883   4.880   1.375
12593TIP3    H237723   6.889   4.739   1.429
12594TIP3   OH237724   7.186   4.400   2.875
12594TIP3    H137725   7.116   4.455   2.910
12594TIP3    H237726   7.232   4.456   2.813
12595TIP3   OH237727   0.947   5.650   6.102
12595TIP3    H137728   0.965   5.744   6.106
12595TIP3    H237729   0.853   5.643   6.119
12596TIP3   OH237730   4.757   2.192   3.124
12596TIP3    H137731   4.851   2.201   3.139
12596TIP3    H237732   4.730   2.276   3.087
12597TIP3   OH237733   6.191   1.710   4.775
12597TIP3    H137734   6.213   1.625   4.736
12597TIP3    H237735   6.232   1.774   4.716
12598TIP3   OH237736   2.973   7.266   4.341
12598TIP3    H137737   2.880   7.281   4.324
12598TIP3    H237738   2.990   7.177   4.310
12599TIP3   OH237739   4.976   3.962   4.686
12599TIP3    H137740   4.931   3.979   4.603
12599TIP3    H237741   4.907   3.930   4.744
12600TIP3   OH237742   6.362   0.691   1.138
12600TIP3    H137743   6.304   0.753   1.095
12600TIP3    H237744   6.429   0.746   1.180
12601TIP3   OH237745   6.238   5.693   0.442
12601TIP3    H137746   6.324   5.664   0.472
12601TIP3    H237747   6.184   5.694   0.521
12602TIP3   OH237748   4.566   5.102   1.430
12602TIP3    H137749   4.494   5.099   1.368
12602TIP3    H237750   4.622   5.028   1.405
12603TIP3   OH237751   0.635   2.650   6.696
12603TIP3    H137752   0.727   2.668   6.718
12603TIP3    H237753   0.637   2.565   6.653
12604TIP3   OH237754   5.830   0.377   6.067
12604TIP3    H137755   5.857   0.316   6.136
12604TIP3    H237756   5.735   0.377   6.071
12605TIP3   OH237757   0.597   2.493   6.139
12605TIP3    H137758   0.643   2.539   6.069
12605TIP3    H237759   0.504   2.503   6.117
12606TIP3   OH237760   7.616   0.076   5.493
12606TIP3    H137761   7.651   0.016   5.427
12606TIP3    H237762   7.690   0.099   5.548
12607TIP3   OH237763   3.590   6.289   5.528
12607TIP3    H137764   3.506   6.332   5.515
12607TIP3    H237765   3.636   6.344   5.591
12608TIP3   OH237766   6.809   7.506   1.195
12608TIP3    H137767   6.817   7.525   1.101
12608TIP3    H237768   6.773   7.586   1.233
12609TIP3   OH237769   2.955   5.235   4.787
12609TIP3    H137770   2.966   5.150   4.829
12609TIP3    H237771   3.043   5.262   4.762
12610TIP3   OH237772   0.748   2.412   3.197
12610TIP3    H137773   0.766   2.408   3.291
12610TIP3    H237774   0.832   2.436   3.157
12611TIP3   OH237775   7.888   0.994   3.006
12611TIP3    H137776   7.848   1.069   2.961
12611TIP3    H237777   7.952   0.961   2.943
12612TIP3   OH237778   1.784   2.960   0.811
12612TIP3    H137779   1.806   3.031   0.751
12612TIP3    H237780   1.846   2.970   0.883
12613TIP3   OH237781   0.247   7.267   3.309
12613TIP3    H137782   0.187   7.219   3.251
12613TIP3    H237783   0.334   7.250   3.273
12614TIP3   OH237784   2.058   5.576   5.904
12614TIP3    H137785   2.130   5.520   5.934
12614TIP3    H237786   2.061   5.652   5.963
12615TIP3   OH237787   7.570   3.726   2.814
12615TIP3    H137788   7.590   3.684   2.730
12615TIP3    H237789   7.491   3.777   2.797
12616TIP3   OH237790   5.494   1.999   1.471
12616TIP3    H137791   5.408   2.033   1.447
12616TIP3    H237792   5.520   2.052   1.546
12617TIP3   OH237793   1.659   0.028   0.534
12617TIP3    H137794   1.659  -0.056   0.581
12617TIP3    H237795   1.651   0.093   0.603
12618TIP3   OH237796   6.001   4.746   6.518
12618TIP3    H137797   5.963   4.780   6.599
12618TIP3    H237798   6.084   4.708   6.545
12619TIP3   OH237799   2.127   1.923   2.082
12619TIP3    H137800   2.119   1.936   2.177
12619TIP3    H237801   2.191   1.988   2.054
12620TIP3   OH237802   5.420   3.004   3.716
12620TIP3    H137803   5.407   2.922   3.765
12620TIP3    H237804   5.440   3.069   3.784
12621TIP3   OH237805   5.258   5.535   3.502
12621TIP3    H137806   5.262   5.507   3.594
12621TIP3    H237807   5.275   5.455   3.452
12622TIP3   OH237808   0.180   4.222   1.569
12622TIP3    H137809   0.238   4.149   1.588
12622TIP3    H237810   0.232   4.281   1.514
12623TIP3   OH237811   2.970   4.193   5.044
12623TIP3    H137812   2.949   4.113   5.092
12623TIP3    H237813   2.920   4.261   5.089
12624TIP3   OH237814   7.376   0.013   5.007
12624TIP3    H137815   7.323   0.062   4.944
12624TIP3    H237816   7.331  -0.071   5.015
12625TIP3   OH237817   7.908   3.492   0.236
12625TIP3    H137818   7.925   3.401   0.261
12625TIP3    H237819   7.961   3.505   0.157
12626TIP3   OH237820   4.371   4.929   0.843
12626TIP3    H137821   4.325   4.885   0.915
12626TIP3    H237822   4.394   5.015   0.879
12627TIP3   OH237823   6.323   2.648   0.858
12627TIP3    H137824   6.391   2.638   0.792
12627TIP3    H237825   6.299   2.559   0.882
12628TIP3   OH237826   8.135   6.131   4.386
12628TIP3    H137827   8.110   6.149   4.296
12628TIP3    H237828   8.056   6.149   4.437
12629TIP3   OH237829   0.475   5.075   3.182
12629TIP3    H137830   0.465   4.985   3.213
12629TIP3    H237831   0.531   5.067   3.104
12630TIP3   OH237832   4.567   3.971   6.579
12630TIP3    H137833   4.587   3.926   6.661
12630TIP3    H237834   4.472   3.973   6.574
12631TIP3   OH237835   7.050   7.600   0.173
12631TIP3    H137836   6.970   7.559   0.207
12631TIP3    H237837   7.074   7.546   0.097
12632TIP3   OH237838   4.168   2.438   1.185
12632TIP3    H137839   4.082   2.477   1.169
12632TIP3    H237840   4.219   2.459   1.107
12633TIP3   OH237841   5.182   7.126   5.895
12633TIP3    H137842   5.224   7.056   5.846
12633TIP3    H237843   5.173   7.198   5.832
12634TIP3   OH237844   1.519   6.923   1.123
12634TIP3    H137845   1.535   6.941   1.030
12634TIP3    H237846   1.472   6.840   1.123
12635TIP3   OH237847   6.287   0.078   5.010
12635TIP3    H137848   6.235   0.066   5.090
12635TIP3    H237849   6.272   0.170   4.987
12636TIP3   OH237850   4.433   1.280   3.247
12636TIP3    H137851   4.481   1.205   3.282
12636TIP3    H237852   4.356   1.288   3.304
12637TIP3   OH237853   6.733   0.386   1.943
12637TIP3    H137854   6.800   0.337   1.990
12637TIP3    H237855   6.745   0.362   1.851
12638TIP3   OH237856   0.693   3.208   3.721
12638TIP3    H137857   0.637   3.139   3.755
12638TIP3    H237858   0.722   3.256   3.798
12639TIP3   OH237859   8.066   3.196   0.495
12639TIP3    H137860   8.061   3.142   0.574
12639TIP3    H237861   8.090   3.283   0.527
12640TIP3   OH237862   2.716   2.945   0.636
12640TIP3    H137863   2.629   2.918   0.608
12640TIP3    H237864   2.775   2.883   0.593
12641TIP3   OH237865   4.128   1.868   0.477
12641TIP3    H137866   4.151   1.901   0.390
12641TIP3    H237867   4.208   1.825   0.509
12642TIP3   OH237868   2.671   6.011   2.888
12642TIP3    H137869   2.596   5.993   2.945
12642TIP3    H237870   2.656   5.958   2.810
12643TIP3   OH237871   0.540   3.692   5.473
12643TIP3    H137872   0.525   3.694   5.567
12643TIP3    H237873   0.467   3.641   5.437
12644TIP3   OH237874   4.303   4.126   5.790
12644TIP3    H137875   4.390   4.093   5.812
12644TIP3    H237876   4.284   4.190   5.858
12645TIP3   OH237877   1.382   0.484   6.219
12645TIP3    H137878   1.400   0.462   6.310
12645TIP3    H237879   1.460   0.454   6.171
12646TIP3   OH237880   6.292   5.850   0.938
12646TIP3    H137881   6.232   5.922   0.916
12646TIP3    H237882   6.377   5.892   0.949
12647TIP3   OH237883   6.356   5.328   3.050
12647TIP3    H137884   6.275   5.288   3.083
12647TIP3    H237885   6.366   5.295   2.961
12648TIP3   OH237886   4.752   0.936   4.869
12648TIP3    H137887   4.786   0.981   4.792
12648TIP3    H237888   4.693   0.999   4.909
12649TIP3   OH237889   4.838   1.029   4.297
12649TIP3    H137890   4.807   1.014   4.386
12649TIP3    H237891   4.783   0.974   4.242
12650TIP3   OH237892   4.630   4.914   2.382
12650TIP3    H137893   4.685   4.954   2.316
12650TIP3    H237894   4.692   4.879   2.447
12651TIP3   OH237895   0.880   7.176   1.854
12651TIP3    H137896   0.965   7.175   1.810
12651TIP3    H237897   0.865   7.268   1.875
12652TIP3   OH237898   7.121   6.284   1.034
12652TIP3    H137899   7.137   6.300   1.127
12652TIP3    H237900   7.056   6.350   1.010
12653TIP3   OH237901   3.693   3.937   6.542
12653TIP3    H137902   3.727   3.886   6.616
12653TIP3    H237903   3.660   4.018   6.583
12654TIP3   OH237904   3.531   2.026   4.788
12654TIP3    H137905   3.479   2.105   4.773
12654TIP3    H237906   3.554   1.995   4.701
12655TIP3   OH237907   5.585   5.342   3.928
12655TIP3    H137908   5.646   5.310   3.862
12655TIP3    H237909   5.518   5.274   3.934
12656TIP3   OH237910   2.421   6.183   1.875
12656TIP3    H137911   2.333   6.220   1.870
12656TIP3    H237912   2.407   6.090   1.891
12657TIP3   OH237913   7.941   4.341   1.719
12657TIP3    H137914   7.869   4.356   1.779
12657TIP3    H237915   7.928   4.252   1.687
12658TIP3   OH237916   5.772   3.026   2.529
12658TIP3    H137917   5.739   3.113   2.551
12658TIP3    H237918   5.808   2.993   2.612
12659TIP3   OH237919   5.293   0.678   5.392
12659TIP3    H137920   5.263   0.727   5.469
12659TIP3    H237921   5.261   0.589   5.407
12660TIP3   OH237922   4.557   1.847   5.818
12660TIP3    H137923   4.503   1.821   5.744
12660TIP3    H237924   4.633   1.891   5.778
12661TIP3   OH237925   4.375   2.173   2.100
12661TIP3    H137926   4.420   2.149   2.019
12661TIP3    H237927   4.285   2.192   2.073
12662TIP3   OH237928   4.652   3.813   3.500
12662TIP3    H137929   4.605   3.892   3.473
12662TIP3    H237930   4.657   3.759   3.421
12663TIP3   OH237931   5.968   7.238   0.280
12663TIP3    H137932   5.969   7.332   0.265
12663TIP3    H237933   6.060   7.212   0.278
12664TIP3   OH237934   3.572   0.254   3.953
12664TIP3    H137935   3.656   0.207   3.953
12664TIP3    H237936   3.572   0.305   4.033
12665TIP3   OH237937   7.473   7.489   2.739
12665TIP3    H137938   7.458   7.398   2.765
12665TIP3    H237939   7.460   7.539   2.820
12666TIP3   OH237940   7.015   4.714   0.167
12666TIP3    H137941   7.008   4.709   0.262
12666TIP3    H237942   7.062   4.635   0.142
12667TIP3   OH237943   2.521   7.208   2.240
12667TIP3    H137944   2.487   7.223   2.152
12667TIP3    H237945   2.563   7.291   2.265
12668TIP3   OH237946   1.094   1.071   4.059
12668TIP3    H137947   1.043   1.148   4.086
12668TIP3    H237948   1.082   1.008   4.130
12669TIP3   OH237949   4.925   2.314   6.772
12669TIP3    H137950   5.016   2.283   6.778
12669TIP3    H237951   4.909   2.322   6.678
12670TIP3   OH237952   5.425   2.537   3.953
12670TIP3    H137953   5.517   2.516   3.964
12670TIP3    H237954   5.423   2.607   3.888
12671TIP3   OH237955   3.138   3.058   4.381
12671TIP3    H137956   3.091   3.140   4.395
12671TIP3    H237957   3.153   3.023   4.469
12672TIP3   OH237958   0.950   6.170   1.867
12672TIP3    H137959   1.023   6.137   1.814
12672TIP3    H237960   0.959   6.125   1.951
12673TIP3   OH237961   2.477   4.160   0.079
12673TIP3    H137962   2.498   4.069   0.058
12673TIP3    H237963   2.541   4.185   0.145
12674TIP3   OH237964   1.564   4.656   6.075
12674TIP3    H137965   1.558   4.571   6.030
12674TIP3    H237966   1.490   4.656   6.135
12675TIP3   OH237967   0.382   2.889   6.199
12675TIP3    H137968   0.338   2.970   6.224
12675TIP3    H237969   0.374   2.833   6.277
12676TIP3   OH237970   5.632   5.076   4.748
12676TIP3    H137971   5.684   5.039   4.677
12676TIP3    H237972   5.570   5.007   4.771
12677TIP3   OH237973   6.147   7.056   1.141
12677TIP3    H137974   6.128   7.120   1.210
12677TIP3    H237975   6.222   7.006   1.174
12678TIP3   OH237976   7.969   5.520   3.150
12678TIP3    H137977   7.933   5.574   3.221
12678TIP3    H237978   8.061   5.508   3.173
12679TIP3   OH237979   4.395   2.378   6.202
12679TIP3    H137980   4.383   2.462   6.158
12679TIP3    H237981   4.431   2.321   6.134
12680TIP3   OH237982   0.391   3.870   4.854
12680TIP3    H137983   0.453   3.868   4.782
12680TIP3    H237984   0.445   3.863   4.933
12681TIP3   OH237985   4.684   7.611   3.529
12681TIP3    H137986   4.618   7.576   3.589
12681TIP3    H237987   4.642   7.611   3.444
12682TIP3   OH237988   2.708   6.500   3.261
12682TIP3    H137989   2.727   6.593   3.277
12682TIP3    H237990   2.617   6.489   3.290
12683TIP3   OH237991   4.120   6.203   1.867
12683TIP3    H137992   4.208   6.166   1.859
12683TIP3    H237993   4.090   6.212   1.777
12684TIP3   OH237994   6.053   4.333   0.810
12684TIP3    H137995   5.966   4.360   0.842
12684TIP3    H237996   6.093   4.415   0.780
12685TIP3   OH237997   6.414   4.935   2.579
12685TIP3    H137998   6.360   4.866   2.616
12685TIP3    H237999   6.352   4.992   2.533
12686TIP3   OH238000   7.074   4.231   6.358
12686TIP3    H138001   6.995   4.179   6.370
12686TIP3    H238002   7.058   4.280   6.277
12687TIP3   OH238003   2.027   0.364   1.639
12687TIP3    H138004   2.009   0.291   1.580
12687TIP3    H238005   2.048   0.323   1.723
12688TIP3   OH238006   5.561   6.174   3.582
12688TIP3    H138007   5.549   6.146   3.492
12688TIP3    H238008   5.574   6.093   3.631
12689TIP3   OH238009   1.260   3.817   4.681
12689TIP3    H138010   1.289   3.906   4.702
12689TIP3    H238011   1.178   3.807   4.729
12690TIP3   OH238012   7.971   7.381   4.833
12690TIP3    H138013   7.957   7.316   4.902
12690TIP3    H238014   8.029   7.338   4.771
12691TIP3   OH238015   3.795   2.215   1.401
12691TIP3    H138016   3.877   2.166   1.397
12691TIP3    H238017   3.805   2.285   1.337
12692TIP3   OH238018   3.800   4.764   1.230
12692TIP3    H138019   3.796   4.846   1.180
12692TIP3    H238020   3.828   4.790   1.317
12693TIP3   OH238021   0.514   6.003   4.415
12693TIP3    H138022   0.558   6.065   4.356
12693TIP3    H238023   0.576   5.931   4.424
12694TIP3   OH238024   2.100   5.306   1.690
12694TIP3    H138025   2.089   5.299   1.785
12694TIP3    H238026   2.192   5.284   1.675
12695TIP3   OH238027   0.934   1.607   6.363
12695TIP3    H138028   0.931   1.690   6.316
12695TIP3    H238029   1.027   1.587   6.371
12696TIP3   OH238030   0.406   6.519   1.595
12696TIP3    H138031   0.428   6.612   1.602
12696TIP3    H238032   0.391   6.491   1.685
12697TIP3   OH238033   1.063  -0.009   0.280
12697TIP3    H138034   1.124   0.063   0.290
12697TIP3    H238035   1.046  -0.039   0.370
12698TIP3   OH238036   2.169   0.315   3.207
12698TIP3    H138037   2.215   0.249   3.258
12698TIP3    H238038   2.078   0.309   3.237
12699TIP3   OH238039   5.421   3.955   1.078
12699TIP3    H138040   5.515   3.933   1.074
12699TIP3    H238041   5.386   3.897   1.145
12700TIP3   OH238042   6.999   1.371   2.073
12700TIP3    H138043   6.915   1.414   2.058
12700TIP3    H238044   7.031   1.408   2.155
12701TIP3   OH238045   8.268   1.545   4.189
12701TIP3    H138046   8.254   1.639   4.176
12701TIP3    H238047   8.199   1.519   4.250
12702TIP3   OH238048   3.976   1.569   6.633
12702TIP3    H138049   4.043   1.622   6.590
12702TIP3    H238050   3.895   1.618   6.620
12703TIP3   OH238051   7.800   0.406   0.931
12703TIP3    H138052   7.840   0.324   0.958
12703TIP3    H238053   7.723   0.415   0.987
12704TIP3   OH238054   5.833   5.113   1.380
12704TIP3    H138055   5.758   5.147   1.331
12704TIP3    H238056   5.898   5.093   1.313
12705TIP3   OH238057   6.866   7.655   1.946
12705TIP3    H138058   6.887   7.564   1.927
12705TIP3    H238059   6.770   7.659   1.943
12706TIP3   OH238060   6.072   2.407   3.836
12706TIP3    H138061   6.027   2.335   3.791
12706TIP3    H238062   6.115   2.455   3.765
12707TIP3   OH238063   2.468   1.670   2.551
12707TIP3    H138064   2.504   1.727   2.619
12707TIP3    H238065   2.454   1.586   2.595
12708TIP3   OH238066   6.890   1.148   6.028
12708TIP3    H138067   6.802   1.162   5.995
12708TIP3    H238068   6.943   1.129   5.951
12709TIP3   OH238069   8.185   0.987   2.554
12709TIP3    H138070   8.238   0.948   2.485
12709TIP3    H238071   8.248   1.009   2.623
12710TIP3   OH238072   7.789   5.263   1.389
12710TIP3    H138073   7.879   5.290   1.407
12710TIP3    H238074   7.735   5.323   1.441
12711TIP3   OH238075   0.151   4.577   5.303
12711TIP3    H138076   0.099   4.524   5.244
12711TIP3    H238077   0.192   4.513   5.362
12712TIP3   OH238078   3.473   3.126   2.538
12712TIP3    H138079   3.419   3.090   2.609
12712TIP3    H238080   3.542   3.174   2.584
12713TIP3   OH238081   0.644   5.026   1.477
12713TIP3    H138082   0.586   5.079   1.423
12713TIP3    H238083   0.600   4.942   1.485
12714TIP3   OH238084   5.401   4.520   0.529
12714TIP3    H138085   5.332   4.579   0.559
12714TIP3    H238086   5.354   4.452   0.480
12715TIP3   OH238087   7.054   4.164   2.847
12715TIP3    H138088   7.082   4.146   2.758
12715TIP3    H238089   7.101   4.244   2.871
12716TIP3   OH238090   5.016   6.498   5.799
12716TIP3    H138091   4.996   6.485   5.706
12716TIP3    H238092   5.014   6.593   5.811
12717TIP3   OH238093   3.093   2.733   4.535
12717TIP3    H138094   3.057   2.727   4.623
12717TIP3    H238095   3.073   2.649   4.494
12718TIP3   OH238096   1.336   1.287   5.190
12718TIP3    H138097   1.309   1.253   5.276
12718TIP3    H238098   1.349   1.380   5.204
12719TIP3   OH238099   6.236   3.922   0.798
12719TIP3    H138100   6.147   3.941   0.825
12719TIP3    H238101   6.229   3.845   0.741
12720TIP3   OH238102   3.941   5.061   5.308
12720TIP3    H138103   3.857   5.102   5.327
12720TIP3    H238104   3.987   5.061   5.393
12721TIP3   OH238105   0.072   1.828   6.499
12721TIP3    H138106   0.053   1.781   6.417
12721TIP3    H238107   0.148   1.882   6.479
12722TIP3   OH238108   2.928   6.920   3.542
12722TIP3    H138109   3.000   6.958   3.491
12722TIP3    H238110   2.913   6.834   3.503
12723TIP3   OH238111   3.654   5.607   2.832
12723TIP3    H138112   3.675   5.525   2.786
12723TIP3    H238113   3.738   5.649   2.846
12724TIP3   OH238114   1.348   7.091   0.387
12724TIP3    H138115   1.362   7.117   0.296
12724TIP3    H238116   1.253   7.078   0.394
12725TIP3   OH238117   2.455   6.005   3.046
12725TIP3    H138118   2.428   5.948   2.974
12725TIP3    H238119   2.374   6.043   3.079
12726TIP3   OH238120   6.588   1.153   2.388
12726TIP3    H138121   6.623   1.195   2.310
12726TIP3    H238122   6.651   1.172   2.457
12727TIP3   OH238123   4.903   3.498   2.737
12727TIP3    H138124   4.846   3.435   2.694
12727TIP3    H238125   4.916   3.463   2.825
12728TIP3   OH238126   7.372   5.621   3.839
12728TIP3    H138127   7.449   5.582   3.879
12728TIP3    H238128   7.402   5.705   3.803
12729TIP3   OH238129   4.361   5.344   3.656
12729TIP3    H138130   4.421   5.337   3.582
12729TIP3    H238131   4.293   5.404   3.626
12730TIP3   OH238132   1.386   4.463   3.060
12730TIP3    H138133   1.322   4.433   2.995
12730TIP3    H238134   1.411   4.384   3.108
12731TIP3   OH238135   2.527   5.312   2.686
12731TIP3    H138136   2.483   5.234   2.652
12731TIP3    H238137   2.522   5.303   2.781
12732TIP3   OH238138   7.780   7.405   0.847
12732TIP3    H138139   7.800   7.313   0.867
12732TIP3    H238140   7.707   7.427   0.904
12733TIP3   OH238141   1.021   4.832   1.587
12733TIP3    H138142   1.003   4.817   1.494
12733TIP3    H238143   0.943   4.878   1.619
12734TIP3   OH238144   2.317   6.465   0.297
12734TIP3    H138145   2.246   6.417   0.340
12734TIP3    H238146   2.274   6.538   0.254
12735TIP3   OH238147   5.218   6.601   4.423
12735TIP3    H138148   5.225   6.680   4.369
12735TIP3    H238149   5.164   6.628   4.497
12736TIP3   OH238150   0.817   5.037   0.237
12736TIP3    H138151   0.773   5.013   0.155
12736TIP3    H238152   0.746   5.042   0.301
12737TIP3   OH238153   1.562   3.768   5.240
12737TIP3    H138154   1.592   3.779   5.150
12737TIP3    H238155   1.522   3.681   5.242
12738TIP3   OH238156   3.551   5.300   3.664
12738TIP3    H138157   3.641   5.285   3.636
12738TIP3    H238158   3.513   5.213   3.672
12739TIP3   OH238159   4.212   6.938   5.182
12739TIP3    H138160   4.158   6.860   5.197
12739TIP3    H238161   4.166   6.986   5.113
12740TIP3   OH238162   2.652   2.630   5.809
12740TIP3    H138163   2.635   2.584   5.727
12740TIP3    H238164   2.733   2.679   5.793
12741TIP3   OH238165   8.004   6.247   1.412
12741TIP3    H138166   7.952   6.316   1.372
12741TIP3    H238167   7.947   6.170   1.412
12742TIP3   OH238168   2.289   7.574   0.480
12742TIP3    H138169   2.340   7.548   0.404
12742TIP3    H238170   2.334   7.653   0.513
12743TIP3   OH238171   6.456   7.787   5.366
12743TIP3    H138172   6.453   7.753   5.455
12743TIP3    H238173   6.549   7.801   5.349
12744TIP3   OH238174   0.308   1.141   1.253
12744TIP3    H138175   0.301   1.052   1.286
12744TIP3    H238176   0.335   1.193   1.329
12745TIP3   OH238177   5.268   0.631   4.140
12745TIP3    H138178   5.334   0.579   4.094
12745TIP3    H238179   5.222   0.679   4.071
12746TIP3   OH238180   2.416   0.538   5.725
12746TIP3    H138181   2.423   0.460   5.780
12746TIP3    H238182   2.478   0.522   5.654
12747TIP3   OH238183   4.260   2.713   0.433
12747TIP3    H138184   4.244   2.807   0.430
12747TIP3    H238185   4.230   2.681   0.348
12748TIP3   OH238186   4.371   1.435   2.384
12748TIP3    H138187   4.282   1.416   2.354
12748TIP3    H238188   4.415   1.471   2.307
12749TIP3   OH238189   7.197   5.435   2.973
12749TIP3    H138190   7.208   5.399   2.885
12749TIP3    H238191   7.282   5.422   3.015
12750TIP3   OH238192   5.674   1.392   6.505
12750TIP3    H138193   5.664   1.484   6.531
12750TIP3    H238194   5.719   1.395   6.421
12751TIP3   OH238195   8.154   2.636   1.666
12751TIP3    H138196   8.192   2.555   1.634
12751TIP3    H238197   8.228   2.689   1.694
12752TIP3   OH238198   0.493   4.616   3.471
12752TIP3    H138199   0.533   4.553   3.410
12752TIP3    H238200   0.413   4.572   3.500
12753TIP3   OH238201   3.547   6.557   3.380
12753TIP3    H138202   3.582   6.610   3.308
12753TIP3    H238203   3.459   6.531   3.351
12754TIP3   OH238204   7.005   3.346   6.104
12754TIP3    H138205   6.936   3.291   6.067
12754TIP3    H238206   7.082   3.289   6.109
12755TIP3   OH238207   5.804   7.601   6.719
12755TIP3    H138208   5.812   7.524   6.662
12755TIP3    H238209   5.798   7.675   6.658
12756TIP3   OH238210   0.324   3.115   1.163
12756TIP3    H138211   0.266   3.181   1.125
12756TIP3    H238212   0.390   3.099   1.097
12757TIP3   OH238213   7.672   3.306   5.896
12757TIP3    H138214   7.616   3.377   5.929
12757TIP3    H238215   7.753   3.349   5.869
12758TIP3   OH238216   3.575   4.840   3.723
12758TIP3    H138217   3.499   4.860   3.779
12758TIP3    H238218   3.536   4.815   3.639
12759TIP3   OH238219   1.358   2.925   0.436
12759TIP3    H138220   1.446   2.929   0.472
12759TIP3    H238221   1.364   2.973   0.353
12760TIP3   OH238222   1.026   3.805   1.829
12760TIP3    H138223   0.933   3.783   1.830
12760TIP3    H238224   1.049   3.817   1.921
12761TIP3   OH238225   0.028   6.284   5.038
12761TIP3    H138226  -0.016   6.369   5.041
12761TIP3    H238227   0.069   6.275   5.125
12762TIP3   OH238228   1.815   6.186   2.052
12762TIP3    H138229   1.861   6.127   1.992
12762TIP3    H238230   1.828   6.273   2.014
12763TIP3   OH238231   7.933   3.858   3.747
12763TIP3    H138232   7.847   3.899   3.757
12763TIP3    H238233   7.924   3.803   3.669
12764TIP3   OH238234   3.378   1.335   1.535
12764TIP3    H138235   3.454   1.301   1.583
12764TIP3    H238236   3.398   1.427   1.519
12765TIP3   OH238237   7.857   2.548   0.851
12765TIP3    H138238   7.850   2.643   0.841
12765TIP3    H238239   7.821   2.529   0.937
12766TIP3   OH238240   7.888   1.029   3.592
12766TIP3    H138241   7.899   1.088   3.517
12766TIP3    H238242   7.925   1.078   3.666
12767TIP3   OH238243   1.007   2.001   4.357
12767TIP3    H138244   1.090   1.959   4.332
12767TIP3    H238245   1.016   2.091   4.327
12768TIP3   OH238246   3.332   4.958   5.658
12768TIP3    H138247   3.296   4.876   5.623
12768TIP3    H238248   3.336   4.944   5.753
12769TIP3   OH238249   4.577   7.145   5.805
12769TIP3    H138250   4.516   7.213   5.833
12769TIP3    H238251   4.639   7.190   5.748
12770TIP3   OH238252   2.584   6.373   0.188
12770TIP3    H138253   2.511   6.415   0.232
12770TIP3    H238254   2.649   6.442   0.177
12771TIP3   OH238255   4.580   3.388   6.156
12771TIP3    H138256   4.635   3.424   6.226
12771TIP3    H238257   4.590   3.293   6.163
12772TIP3   OH238258   7.941   1.947   0.528
12772TIP3    H138259   7.990   2.025   0.555
12772TIP3    H238260   7.985   1.875   0.573
12773TIP3   OH238261   6.386   1.675   6.374
12773TIP3    H138262   6.439   1.613   6.324
12773TIP3    H238263   6.381   1.637   6.462
12774TIP3   OH238264   2.415   5.041   2.185
12774TIP3    H138265   2.434   5.082   2.101
12774TIP3    H238266   2.405   5.115   2.246
12775TIP3   OH238267   3.579   5.008   3.953
12775TIP3    H138268   3.514   5.069   3.919
12775TIP3    H238269   3.631   5.059   4.015
12776TIP3   OH238270   4.479   4.143   3.078
12776TIP3    H138271   4.523   4.214   3.030
12776TIP3    H238272   4.542   4.071   3.076
12777TIP3   OH238273   6.481   2.143   2.523
12777TIP3    H138274   6.467   2.062   2.571
12777TIP3    H238275   6.425   2.207   2.568
12778TIP3   OH238276   2.127   2.212   6.286
12778TIP3    H138277   2.180   2.278   6.242
12778TIP3    H238278   2.108   2.147   6.219
12779TIP3   OH238279   6.416   1.182   5.412
12779TIP3    H138280   6.415   1.159   5.505
12779TIP3    H238281   6.325   1.204   5.392
12780TIP3   OH238282   2.249   7.325   3.668
12780TIP3    H138283   2.300   7.395   3.710
12780TIP3    H238284   2.237   7.354   3.578
12781TIP3   OH238285   3.128   2.562   5.830
12781TIP3    H138286   3.160   2.606   5.751
12781TIP3    H238287   3.095   2.478   5.799
12782TIP3   OH238288   1.880   6.360   4.472
12782TIP3    H138289   1.815   6.307   4.518
12782TIP3    H238290   1.849   6.450   4.482
12783TIP3   OH238291   7.015   2.482   0.597
12783TIP3    H138292   7.047   2.567   0.567
12783TIP3    H238293   7.086   2.447   0.651
12784TIP3   OH238294   2.344   6.786   6.014
12784TIP3    H138295   2.299   6.790   5.929
12784TIP3    H238296   2.437   6.777   5.991
12785TIP3   OH238297   0.888   4.663   0.573
12785TIP3    H138298   0.856   4.619   0.652
12785TIP3    H238299   0.827   4.637   0.504
12786TIP3   OH238300   3.031   6.258   1.318
12786TIP3    H138301   2.973   6.195   1.276
12786TIP3    H238302   3.112   6.255   1.267
12787TIP3   OH238303   2.140   4.342   6.075
12787TIP3    H138304   2.218   4.310   6.029
12787TIP3    H238305   2.084   4.265   6.084
12788TIP3   OH238306   2.811   7.225   6.473
12788TIP3    H138307   2.721   7.203   6.498
12788TIP3    H238308   2.801   7.284   6.398
12789TIP3   OH238309   4.880   3.506   3.042
12789TIP3    H138310   4.884   3.493   3.137
12789TIP3    H238311   4.808   3.450   3.013
12790TIP3   OH238312   6.004   6.288   4.187
12790TIP3    H138313   5.971   6.307   4.099
12790TIP3    H238314   5.940   6.227   4.224
12791TIP3   OH238315   5.753   3.163   4.029
12791TIP3    H138316   5.799   3.232   3.980
12791TIP3    H238317   5.814   3.139   4.099
12792TIP3   OH238318   1.221   3.961   3.269
12792TIP3    H138319   1.247   4.044   3.309
12792TIP3    H238320   1.301   3.928   3.227
12793TIP3   OH238321   7.032   3.111   4.762
12793TIP3    H138322   7.008   3.189   4.713
12793TIP3    H238323   7.112   3.136   4.809
12794TIP3   OH238324   6.004   2.751   6.326
12794TIP3    H138325   6.054   2.725   6.249
12794TIP3    H238326   6.002   2.672   6.381
12795TIP3   OH238327   2.574   0.115   2.985
12795TIP3    H138328   2.646   0.175   2.963
12795TIP3    H238329   2.550   0.139   3.075
12796TIP3   OH238330   4.695   2.111   3.502
12796TIP3    H138331   4.684   2.179   3.568
12796TIP3    H238332   4.612   2.110   3.454
12797TIP3   OH238333   6.936   0.403   6.229
12797TIP3    H138334   6.975   0.323   6.195
12797TIP3    H238335   6.930   0.461   6.153
12798TIP3   OH238336   2.518   3.361   5.096
12798TIP3    H138337   2.499   3.354   5.189
12798TIP3    H238338   2.511   3.454   5.076
12799TIP3   OH238339   1.163   1.359   6.709
12799TIP3    H138340   1.237   1.401   6.666
12799TIP3    H238341   1.169   1.267   6.681
12800TIP3   OH238342   7.149   7.093   5.898
12800TIP3    H138343   7.054   7.089   5.889
12800TIP3    H238344   7.170   7.186   5.896
12801TIP3   OH238345   0.855   5.134   5.649
12801TIP3    H138346   0.893   5.050   5.623
12801TIP3    H238347   0.903   5.159   5.728
12802TIP3   OH238348   8.016   6.411   4.407
12802TIP3    H138349   8.011   6.482   4.470
12802TIP3    H238350   7.939   6.357   4.426
12803TIP3   OH238351   1.392   4.701   5.159
12803TIP3    H138352   1.484   4.698   5.185
12803TIP3    H238353   1.343   4.698   5.241
12804TIP3   OH238354   7.459   6.162   2.530
12804TIP3    H138355   7.415   6.089   2.575
12804TIP3    H238356   7.401   6.237   2.542
12805TIP3   OH238357   0.609   5.236   6.677
12805TIP3    H138358   0.658   5.155   6.694
12805TIP3    H238359   0.519   5.207   6.664
12806TIP3   OH238360   3.327   3.574   4.837
12806TIP3    H138361   3.329   3.537   4.749
12806TIP3    H238362   3.244   3.543   4.874
12807TIP3   OH238363   0.443   0.083   2.503
12807TIP3    H138364   0.418   0.047   2.588
12807TIP3    H238365   0.373   0.057   2.444
12808TIP3   OH238366   0.046   7.676   5.532
12808TIP3    H138367   0.076   7.628   5.609
12808TIP3    H238368  -0.049   7.661   5.530
12809TIP3   OH238369   1.027   6.980   0.120
12809TIP3    H138370   1.044   7.062   0.072
12809TIP3    H238371   1.055   6.911   0.060
12810TIP3   OH238372   1.703   3.888   3.843
12810TIP3    H138373   1.686   3.840   3.924
12810TIP3    H238374   1.673   3.977   3.860
12811TIP3   OH238375   3.310   5.539   6.547
12811TIP3    H138376   3.277   5.629   6.549
12811TIP3    H238377   3.248   5.493   6.491
12812TIP3   OH238378   5.975   0.162   5.613
12812TIP3    H138379   5.908   0.229   5.598
12812TIP3    H238380   6.002   0.177   5.704
12813TIP3   OH238381   3.583   7.281   0.745
12813TIP3    H138382   3.672   7.301   0.718
12813TIP3    H238383   3.535   7.268   0.663
12814TIP3   OH238384   7.716   4.127   3.072
12814TIP3    H138385   7.786   4.106   3.134
12814TIP3    H238386   7.662   4.192   3.117
12815TIP3   OH238387   3.568   4.435   6.366
12815TIP3    H138388   3.658   4.412   6.388
12815TIP3    H238389   3.547   4.508   6.424
12816TIP3   OH238390   0.104   1.509   4.518
12816TIP3    H138391   0.025   1.561   4.536
12816TIP3    H238392   0.110   1.448   4.592
12817TIP3   OH238393   6.004   4.862   2.522
12817TIP3    H138394   6.006   4.950   2.484
12817TIP3    H238395   5.949   4.811   2.463
12818TIP3   OH238396   5.337   7.353   2.017
12818TIP3    H138397   5.342   7.372   2.111
12818TIP3    H238398   5.427   7.330   1.993
12819TIP3   OH238399   2.148   6.762   4.876
12819TIP3    H138400   2.226   6.776   4.823
12819TIP3    H238401   2.108   6.683   4.840
12820TIP3   OH238402   8.024   7.502   5.176
12820TIP3    H138403   8.032   7.419   5.223
12820TIP3    H238404   7.978   7.560   5.237
12821TIP3   OH238405   5.170   0.427   2.295
12821TIP3    H138406   5.169   0.481   2.216
12821TIP3    H238407   5.082   0.390   2.301
12822TIP3   OH238408   0.252   3.411   4.751
12822TIP3    H138409   0.200   3.397   4.672
12822TIP3    H238410   0.243   3.504   4.769
12823TIP3   OH238411   0.034   3.550   5.127
12823TIP3    H138412   0.093   3.623   5.109
12823TIP3    H238413   0.068   3.512   5.208
12824TIP3   OH238414   6.211   4.789   2.684
12824TIP3    H138415   6.134   4.830   2.645
12824TIP3    H238416   6.182   4.701   2.707
12825TIP3   OH238417   6.280   7.224   5.399
12825TIP3    H138418   6.254   7.306   5.356
12825TIP3    H238419   6.297   7.164   5.326
12826TIP3   OH238420   1.712   0.648   0.852
12826TIP3    H138421   1.765   0.603   0.918
12826TIP3    H238422   1.677   0.724   0.899
12827TIP3   OH238423   0.662   2.954   4.675
12827TIP3    H138424   0.631   2.866   4.654
12827TIP3    H238425   0.686   2.951   4.767
12828TIP3   OH238426   5.333   2.328   4.102
12828TIP3    H138427   5.327   2.416   4.066
12828TIP3    H238428   5.422   2.322   4.136
12829TIP3   OH238429   5.914   1.832   4.775
12829TIP3    H138430   6.007   1.809   4.783
12829TIP3    H238431   5.909   1.921   4.811
12830TIP3   OH238432   4.322   1.083   5.397
12830TIP3    H138433   4.329   1.179   5.392
12830TIP3    H238434   4.249   1.067   5.455
12831TIP3   OH238435   6.876   2.915   0.134
12831TIP3    H138436   6.942   2.884   0.072
12831TIP3    H238437   6.921   2.919   0.218
12832TIP3   OH238438   7.725   0.624   3.494
12832TIP3    H138439   7.757   0.666   3.574
12832TIP3    H238440   7.662   0.686   3.458
12833TIP3   OH238441   0.386   5.230   0.302
12833TIP3    H138442   0.450   5.219   0.372
12833TIP3    H238443   0.423   5.299   0.246
12834TIP3   OH238444   0.423   7.436   6.228
12834TIP3    H138445   0.439   7.530   6.241
12834TIP3    H238446   0.419   7.400   6.316
12835TIP3   OH238447   6.920   2.703   4.200
12835TIP3    H138448   6.947   2.705   4.108
12835TIP3    H238449   6.910   2.610   4.220
12836TIP3   OH238450   2.403   3.522   0.127
12836TIP3    H138451   2.392   3.443   0.075
12836TIP3    H238452   2.314   3.549   0.149
12837TIP3   OH238453   7.639   4.068   2.400
12837TIP3    H138454   7.604   4.060   2.488
12837TIP3    H238455   7.635   4.162   2.382
12838TIP3   OH238456   6.932   7.722   6.144
12838TIP3    H138457   6.946   7.631   6.167
12838TIP3    H238458   7.012   7.767   6.172
12839TIP3   OH238459   2.456   1.851   1.943
12839TIP3    H138460   2.406   1.912   1.998
12839TIP3    H238461   2.501   1.907   1.879
12840TIP3   OH238462   8.119   4.594   3.028
12840TIP3    H138463   8.038   4.584   3.077
12840TIP3    H238464   8.101   4.553   2.943
12841TIP3   OH238465   6.290   2.005   1.127
12841TIP3    H138466   6.210   1.958   1.148
12841TIP3    H238467   6.260   2.083   1.080
12842TIP3   OH238468   7.903   2.113   5.224
12842TIP3    H138469   7.987   2.116   5.271
12842TIP3    H238470   7.899   2.025   5.187
12843TIP3   OH238471   3.065   0.387   3.752
12843TIP3    H138472   3.086   0.424   3.838
12843TIP3    H238473   3.044   0.462   3.697
12844TIP3   OH238474   3.882   1.162   2.892
12844TIP3    H138475   3.927   1.173   2.808
12844TIP3    H238476   3.845   1.074   2.889
12845TIP3   OH238477   2.456   5.865   5.075
12845TIP3    H138478   2.551   5.852   5.078
12845TIP3    H238479   2.436   5.916   5.153
12846TIP3   OH238480   7.406   6.069   1.555
12846TIP3    H138481   7.456   6.000   1.600
12846TIP3    H238482   7.321   6.070   1.599
12847TIP3   OH238483   5.807   2.947   6.363
12847TIP3    H138484   5.878   2.887   6.342
12847TIP3    H238485   5.848   3.033   6.369
12848TIP3   OH238486   4.054   1.715   0.015
12848TIP3    H138487   4.000   1.650   0.059
12848TIP3    H238488   4.062   1.787   0.079
12849TIP3   OH238489   5.031   3.680   4.132
12849TIP3    H138490   5.042   3.597   4.085
12849TIP3    H238491   4.947   3.713   4.103
12850TIP3   OH238492   0.621   0.433   6.425
12850TIP3    H138493   0.656   0.522   6.434
12850TIP3    H238494   0.533   0.438   6.461
12851TIP3   OH238495   7.551   1.779   5.585
12851TIP3    H138496   7.493   1.711   5.551
12851TIP3    H238497   7.625   1.731   5.622
12852TIP3   OH238498   5.127   7.208   2.106
12852TIP3    H138499   5.074   7.251   2.039
12852TIP3    H238500   5.217   7.233   2.085
12853TIP3   OH238501   5.288   3.605   1.027
12853TIP3    H138502   5.200   3.572   1.007
12853TIP3    H238503   5.344   3.528   1.020
12854TIP3   OH238504   4.936   1.851   2.349
12854TIP3    H138505   4.975   1.865   2.435
12854TIP3    H238506   4.959   1.929   2.299
12855TIP3   OH238507   0.830   0.845   4.542
12855TIP3    H138508   0.888   0.920   4.556
12855TIP3    H238509   0.815   0.844   4.447
12856TIP3   OH238510   5.969   4.450   5.623
12856TIP3    H138511   6.055   4.493   5.626
12856TIP3    H238512   5.989   4.360   5.597
12857TIP3   OH238513   4.091   3.247   0.495
12857TIP3    H138514   4.082   3.342   0.485
12857TIP3    H238515   4.096   3.233   0.590
12858TIP3   OH238516   5.514   1.577   4.014
12858TIP3    H138517   5.566   1.633   3.956
12858TIP3    H238518   5.424   1.610   4.003
12859TIP3   OH238519   4.960   4.494   4.760
12859TIP3    H138520   5.038   4.539   4.792
12859TIP3    H238521   4.947   4.529   4.671
12860TIP3   OH238522   0.719   6.328   2.708
12860TIP3    H138523   0.708   6.290   2.795
12860TIP3    H238524   0.725   6.252   2.649
12861TIP3   OH238525   4.979   7.112   1.226
12861TIP3    H138526   4.987   7.107   1.322
12861TIP3    H238527   4.988   7.021   1.197
12862TIP3   OH238528   3.507   1.807   4.096
12862TIP3    H138529   3.511   1.744   4.167
12862TIP3    H238530   3.596   1.811   4.062
12863TIP3   OH238531   4.900   5.170   6.291
12863TIP3    H138532   4.900   5.095   6.232
12863TIP3    H238533   4.991   5.201   6.291
12864TIP3   OH238534   7.737   6.026   1.657
12864TIP3    H138535   7.668   5.961   1.667
12864TIP3    H238536   7.758   6.025   1.563
12865TIP3   OH238537   1.019   0.912   3.367
12865TIP3    H138538   1.032   0.850   3.439
12865TIP3    H238539   0.942   0.878   3.321
12866TIP3   OH238540   6.212   4.210   1.024
12866TIP3    H138541   6.302   4.235   1.002
12866TIP3    H238542   6.163   4.222   0.942
12867TIP3   OH238543   1.833   3.968   0.298
12867TIP3    H138544   1.777   3.943   0.372
12867TIP3    H238545   1.910   4.009   0.338
12868TIP3   OH238546   0.843   6.121   2.897
12868TIP3    H138547   0.779   6.051   2.882
12868TIP3    H238548   0.926   6.084   2.867
12869TIP3   OH238549   1.414   2.788   1.983
12869TIP3    H138550   1.393   2.698   1.961
12869TIP3    H238551   1.484   2.812   1.921
12870TIP3   OH238552   6.164   3.225   1.695
12870TIP3    H138553   6.224   3.152   1.690
12870TIP3    H238554   6.124   3.230   1.608
12871TIP3   OH238555   0.258   0.369   4.032
12871TIP3    H138556   0.186   0.350   3.971
12871TIP3    H238557   0.270   0.289   4.082
12872TIP3   OH238558   1.980   6.889   3.337
12872TIP3    H138559   1.935   6.954   3.390
12872TIP3    H238560   2.036   6.940   3.279
12873TIP3   OH238561   1.755   0.201   6.110
12873TIP3    H138562   1.788   0.273   6.163
12873TIP3    H238563   1.711   0.144   6.173
12874TIP3   OH238564   2.122   6.949   6.415
12874TIP3    H138565   2.154   6.941   6.504
12874TIP3    H238566   2.169   6.881   6.366
12875TIP3   OH238567   1.630   6.224   0.189
12875TIP3    H138568   1.553   6.167   0.194
12875TIP3    H238569   1.613   6.279   0.112
12876TIP3   OH238570   2.200   1.677   5.425
12876TIP3    H138571   2.241   1.696   5.510
12876TIP3    H238572   2.255   1.609   5.386
12877TIP3   OH238573   1.438   0.875   3.029
12877TIP3    H138574   1.366   0.854   3.088
12877TIP3    H238575   1.397   0.882   2.943
12878TIP3   OH238576   3.280   5.706   5.988
12878TIP3    H138577   3.367   5.667   5.982
12878TIP3    H238578   3.251   5.686   6.077
12879TIP3   OH238579   2.537   0.363   1.648
12879TIP3    H138580   2.534   0.269   1.634
12879TIP3    H238581   2.631   0.383   1.654
12880TIP3   OH238582   6.218   2.677   3.053
12880TIP3    H138583   6.170   2.754   3.082
12880TIP3    H238584   6.168   2.644   2.979
12881TIP3   OH238585   5.309   3.549   2.388
12881TIP3    H138586   5.395   3.528   2.351
12881TIP3    H238587   5.306   3.501   2.471
12882TIP3   OH238588   0.581   0.869   0.575
12882TIP3    H138589   0.585   0.956   0.534
12882TIP3    H238590   0.667   0.857   0.615
12883TIP3   OH238591   0.618   3.764   4.663
12883TIP3    H138592   0.668   3.718   4.731
12883TIP3    H238593   0.653   3.853   4.664
12884TIP3   OH238594   3.687   0.793   4.821
12884TIP3    H138595   3.782   0.806   4.820
12884TIP3    H238596   3.674   0.715   4.874
12885TIP3   OH238597   1.897   3.202   4.809
12885TIP3    H138598   1.958   3.181   4.738
12885TIP3    H238599   1.910   3.296   4.824
12886TIP3   OH238600   4.861   3.576   1.949
12886TIP3    H138601   4.854   3.655   2.002
12886TIP3    H238602   4.904   3.512   2.006
12887TIP3   OH238603   2.849   1.025   0.716
12887TIP3    H138604   2.911   1.075   0.770
12887TIP3    H238605   2.777   1.086   0.702
12888TIP3   OH238606   1.092   3.290   4.676
12888TIP3    H138607   1.136   3.366   4.716
12888TIP3    H238608   1.021   3.270   4.737
12889TIP3   OH238609   2.236   3.993   5.897
12889TIP3    H138610   2.171   3.992   5.968
12889TIP3    H238611   2.202   3.931   5.833
12890TIP3   OH238612   5.186   2.754   5.798
12890TIP3    H138613   5.158   2.662   5.805
12890TIP3    H238614   5.272   2.749   5.757
12891TIP3   OH238615   4.291   5.951  -0.024
12891TIP3    H138616   4.250   6.037  -0.011
12891TIP3    H238617   4.303   5.917   0.064
12892TIP3   OH238618   5.253   2.229   4.450
12892TIP3    H138619   5.159   2.248   4.455
12892TIP3    H238620   5.288   2.298   4.393
12893TIP3   OH238621   5.144   1.964   1.642
12893TIP3    H138622   5.078   1.922   1.697
12893TIP3    H238623   5.208   2.001   1.703
12894TIP3   OH238624   6.181   3.640   4.666
12894TIP3    H138625   6.098   3.652   4.711
12894TIP3    H238626   6.224   3.725   4.670
12895TIP3   OH238627   3.291   1.640   6.331
12895TIP3    H138628   3.358   1.707   6.318
12895TIP3    H238629   3.213   1.688   6.358
12896TIP3   OH238630   2.170   3.231   6.330
12896TIP3    H138631   2.113   3.168   6.286
12896TIP3    H238632   2.139   3.233   6.420
12897TIP3   OH238633   4.393   3.080   1.331
12897TIP3    H138634   4.339   3.026   1.388
12897TIP3    H238635   4.453   3.125   1.390
12898TIP3   OH238636   3.899   7.745   5.942
12898TIP3    H138637   3.989   7.746   5.974
12898TIP3    H238638   3.845   7.761   6.020
12899TIP3   OH238639   0.757   4.020   6.225
12899TIP3    H138640   0.722   4.099   6.268
12899TIP3    H238641   0.798   4.053   6.145
12900TIP3   OH238642   6.256   2.035   5.371
12900TIP3    H138643   6.340   2.000   5.340
12900TIP3    H238644   6.216   2.074   5.294
12901TIP3   OH238645   5.105   7.248   0.819
12901TIP3    H138646   5.092   7.313   0.750
12901TIP3    H238647   5.043   7.273   0.887
12902TIP3   OH238648   0.163   7.030   6.454
12902TIP3    H138649   0.156   7.080   6.535
12902TIP3    H238650   0.145   7.093   6.384
12903TIP3   OH238651   3.485   6.283   3.414
12903TIP3    H138652   3.525   6.368   3.432
12903TIP3    H238653   3.540   6.220   3.462
12904TIP3   OH238654   5.397   5.397   4.322
12904TIP3    H138655   5.452   5.322   4.345
12904TIP3    H238656   5.331   5.401   4.392
12905TIP3   OH238657   0.457   1.646   0.346
12905TIP3    H138658   0.532   1.638   0.406
12905TIP3    H238659   0.382   1.615   0.398
12906TIP3   OH238660   4.430   1.236   0.565
12906TIP3    H138661   4.419   1.326   0.536
12906TIP3    H238662   4.519   1.213   0.539
12907TIP3   OH238663   8.051   4.828   3.261
12907TIP3    H138664   7.969   4.821   3.310
12907TIP3    H238665   8.024   4.841   3.170
12908TIP3   OH238666   1.527   5.775   6.706
12908TIP3    H138667   1.608   5.726   6.693
12908TIP3    H238668   1.464   5.711   6.739
12909TIP3   OH238669   7.878   6.195   4.695
12909TIP3    H138670   7.822   6.224   4.767
12909TIP3    H238671   7.951   6.258   4.695
12910TIP3   OH238672   1.718   5.451   1.383
12910TIP3    H138673   1.637   5.438   1.431
12910TIP3    H238674   1.785   5.410   1.437
12911TIP3   OH238675   0.618   1.343   5.624
12911TIP3    H138676   0.526   1.361   5.604
12911TIP3    H238677   0.628   1.249   5.606
12912TIP3   OH238678   8.234   6.767   2.004
12912TIP3    H138679   8.288   6.779   1.926
12912TIP3    H238680   8.296   6.744   2.073
12913TIP3   OH238681   1.279   1.745   2.292
12913TIP3    H138682   1.197   1.746   2.341
12913TIP3    H238683   1.268   1.675   2.228
12914TIP3   OH238684   0.590   0.069   4.494
12914TIP3    H138685   0.634   0.046   4.412
12914TIP3    H238686   0.578   0.164   4.489
12915TIP3   OH238687   1.001   6.898   4.361
12915TIP3    H138688   0.947   6.862   4.291
12915TIP3    H238689   1.069   6.833   4.374
12916TIP3   OH238690   6.611   6.685   3.296
12916TIP3    H138691   6.648   6.712   3.212
12916TIP3    H238692   6.583   6.594   3.282
12917TIP3   OH238693   5.184   1.944   5.529
12917TIP3    H138694   5.146   1.857   5.526
12917TIP3    H238695   5.236   1.950   5.449
12918TIP3   OH238696   4.105   0.821   6.710
12918TIP3    H138697   4.155   0.801   6.789
12918TIP3    H238698   4.033   0.877   6.741
12919TIP3   OH238699   4.009   2.778   2.555
12919TIP3    H138700   4.034   2.867   2.531
12919TIP3    H238701   3.949   2.751   2.486
12920TIP3   OH238702   7.097   7.219   3.780
12920TIP3    H138703   7.073   7.259   3.697
12920TIP3    H238704   7.170   7.161   3.759
12921TIP3   OH238705   2.317   3.781   6.553
12921TIP3    H138706   2.292   3.811   6.466
12921TIP3    H238707   2.249   3.719   6.578
12922TIP3   OH238708   0.415   5.895   0.106
12922TIP3    H138709   0.484   5.910   0.171
12922TIP3    H238710   0.396   5.982   0.070
12923TIP3   OH238711   5.990   4.775   6.073
12923TIP3    H138712   5.911   4.816   6.038
12923TIP3    H238713   6.022   4.838   6.138
12924TIP3   OH238714   5.754   7.534   2.764
12924TIP3    H138715   5.726   7.538   2.855
12924TIP3    H238716   5.847   7.511   2.769
12925TIP3   OH238717   3.564   1.165   5.043
12925TIP3    H138718   3.556   1.185   5.136
12925TIP3    H238719   3.499   1.220   5.001
12926TIP3   OH238720   6.458   2.559   1.470
12926TIP3    H138721   6.525   2.494   1.491
12926TIP3    H238722   6.395   2.552   1.542
12927TIP3   OH238723   1.934   2.901   0.456
12927TIP3    H138724   1.940   2.854   0.373
12927TIP3    H238725   1.960   2.991   0.434
12928TIP3   OH238726   8.095   4.317   3.554
12928TIP3    H138727   8.170   4.291   3.607
12928TIP3    H238728   8.035   4.244   3.560
12929TIP3   OH238729   5.233   1.276   1.391
12929TIP3    H138730   5.203   1.365   1.377
12929TIP3    H238731   5.292   1.282   1.466
12930TIP3   OH238732   1.476   2.163   3.860
12930TIP3    H138733   1.563   2.186   3.827
12930TIP3    H238734   1.415   2.191   3.792
12931TIP3   OH238735   6.473   7.590   1.371
12931TIP3    H138736   6.454   7.573   1.278
12931TIP3    H238737   6.441   7.678   1.386
12932TIP3   OH238738   6.614   1.781   3.025
12932TIP3    H138739   6.614   1.843   3.098
12932TIP3    H238740   6.648   1.832   2.951
12933TIP3   OH238741   2.138   6.127   2.206
12933TIP3    H138742   2.059   6.087   2.241
12933TIP3    H238743   2.208   6.064   2.226
12934TIP3   OH238744   5.646   6.949   2.779
12934TIP3    H138745   5.648   6.965   2.873
12934TIP3    H238746   5.555   6.963   2.754
12935TIP3   OH238747   1.930   0.101   0.375
12935TIP3    H138748   1.850   0.058   0.405
12935TIP3    H238749   1.934   0.183   0.425
12936TIP3   OH238750   3.008   4.916   4.574
12936TIP3    H138751   2.998   4.857   4.649
12936TIP3    H238752   3.067   4.985   4.606
12937TIP3   OH238753   7.535   3.826   3.603
12937TIP3    H138754   7.612   3.827   3.546
12937TIP3    H238755   7.470   3.776   3.554
12938TIP3   OH238756   4.157   7.812   2.672
12938TIP3    H138757   4.095   7.876   2.638
12938TIP3    H238758   4.170   7.750   2.600
12939TIP3   OH238759   3.685   0.182   0.892
12939TIP3    H138760   3.779   0.191   0.875
12939TIP3    H238761   3.664   0.093   0.864
12940TIP3   OH238762   7.743   6.458   3.672
12940TIP3    H138763   7.670   6.406   3.706
12940TIP3    H238764   7.751   6.432   3.581
12941TIP3   OH238765   2.544   4.982   1.941
12941TIP3    H138766   2.631   5.008   1.973
12941TIP3    H238767   2.535   5.028   1.858
12942TIP3   OH238768   2.024   5.951   1.129
12942TIP3    H138769   2.101   6.005   1.147
12942TIP3    H238770   2.052   5.861   1.146
12943TIP3   OH238771   2.177   7.108   4.815
12943TIP3    H138772   2.233   7.033   4.792
12943TIP3    H238773   2.228   7.185   4.791
12944TIP3   OH238774   4.428   7.642   5.744
12944TIP3    H138775   4.363   7.710   5.723
12944TIP3    H238776   4.512   7.681   5.718
12945TIP3   OH238777   3.773   0.161   1.894
12945TIP3    H138778   3.697   0.122   1.937
12945TIP3    H238779   3.739   0.195   1.811
12946TIP3   OH238780   5.826   6.942   1.545
12946TIP3    H138781   5.868   6.921   1.629
12946TIP3    H238782   5.864   7.026   1.520
12947TIP3   OH238783   8.275   0.085   4.663
12947TIP3    H138784   8.264   0.103   4.757
12947TIP3    H238785   8.272   0.171   4.621
12948TIP3   OH238786   3.270   2.694   4.198
12948TIP3    H138787   3.252   2.643   4.119
12948TIP3    H238788   3.313   2.633   4.257
12949TIP3   OH238789   3.007   6.454   5.947
12949TIP3    H138790   3.018   6.382   5.885
12949TIP3    H238791   2.921   6.492   5.923
12950TIP3   OH238792   3.502   2.705   6.053
12950TIP3    H138793   3.459   2.720   5.969
12950TIP3    H238794   3.569   2.640   6.034
12951TIP3   OH238795   2.475   0.543   4.034
12951TIP3    H138796   2.406   0.597   4.072
12951TIP3    H238797   2.443   0.454   4.043
12952TIP3   OH238798   6.712   6.232   3.205
12952TIP3    H138799   6.738   6.223   3.297
12952TIP3    H238800   6.793   6.216   3.156
12953TIP3   OH238801   7.499   3.803   2.236
12953TIP3    H138802   7.542   3.746   2.171
12953TIP3    H238803   7.567   3.865   2.261
12954TIP3   OH238804   6.815   0.334   0.597
12954TIP3    H138805   6.891   0.328   0.655
12954TIP3    H238806   6.852   0.345   0.510
12955TIP3   OH238807   6.018   5.214   1.601
12955TIP3    H138808   5.959   5.196   1.528
12955TIP3    H238809   6.093   5.258   1.561
12956TIP3   OH238810   6.326   0.147   5.780
12956TIP3    H138811   6.247   0.189   5.814
12956TIP3    H238812   6.396   0.209   5.796
12957TIP3   OH238813   2.257   0.445   2.267
12957TIP3    H138814   2.256   0.356   2.231
12957TIP3    H238815   2.246   0.434   2.361
12958TIP3   OH238816   7.392   2.461   0.323
12958TIP3    H138817   7.395   2.513   0.404
12958TIP3    H238818   7.467   2.401   0.331
12959TIP3   OH238819   7.577   3.092   5.621
12959TIP3    H138820   7.612   3.018   5.571
12959TIP3    H238821   7.615   3.083   5.708
12960TIP3   OH238822   5.426   0.360   6.692
12960TIP3    H138823   5.332   0.371   6.705
12960TIP3    H238824   5.448   0.422   6.622
12961TIP3   OH238825   8.203   7.632   0.749
12961TIP3    H138826   8.136   7.621   0.817
12961TIP3    H238827   8.193   7.556   0.693
12962TIP3   OH238828   2.295   3.649   0.846
12962TIP3    H138829   2.327   3.733   0.879
12962TIP3    H238830   2.201   3.650   0.865
12963TIP3   OH238831   7.213   4.259   5.514
12963TIP3    H138832   7.222   4.197   5.442
12963TIP3    H238833   7.286   4.321   5.502
12964TIP3   OH238834   1.942   2.471   3.004
12964TIP3    H138835   1.945   2.377   2.988
12964TIP3    H238836   2.032   2.500   2.997
12965TIP3   OH238837   2.240   6.560   3.703
12965TIP3    H138838   2.242   6.625   3.773
12965TIP3    H238839   2.230   6.612   3.623
12966TIP3   OH238840   6.506   6.863   0.775
12966TIP3    H138841   6.498   6.852   0.681
12966TIP3    H238842   6.450   6.938   0.795
12967TIP3   OH238843   1.200   0.190   2.808
12967TIP3    H138844   1.108   0.165   2.800
12967TIP3    H238845   1.246   0.108   2.823
12968TIP3   OH238846   3.806   6.586   4.058
12968TIP3    H138847   3.739   6.558   3.996
12968TIP3    H238848   3.793   6.530   4.134
12969TIP3   OH238849   7.686   0.153   6.536
12969TIP3    H138850   7.758   0.214   6.550
12969TIP3    H238851   7.665   0.119   6.623
12970TIP3   OH238852   1.419   0.306   0.607
12970TIP3    H138853   1.471   0.377   0.571
12970TIP3    H238854   1.483   0.252   0.656
12971TIP3   OH238855   4.489   7.105   4.761
12971TIP3    H138856   4.412   7.068   4.718
12971TIP3    H238857   4.460   7.190   4.793
12972TIP3   OH238858   2.832   0.916   3.737
12972TIP3    H138859   2.780   0.974   3.682
12972TIP3    H238860   2.918   0.914   3.696
12973TIP3   OH238861   2.328   3.734   2.178
12973TIP3    H138862   2.302   3.708   2.090
12973TIP3    H238863   2.246   3.760   2.220
12974TIP3   OH238864   3.253   4.191   1.517
12974TIP3    H138865   3.272   4.173   1.425
12974TIP3    H238866   3.157   4.186   1.523
12975TIP3   OH238867   4.957   0.361   4.448
12975TIP3    H138868   5.043   0.396   4.425
12975TIP3    H238869   4.905   0.439   4.472
12976TIP3   OH238870   0.951   7.738   6.600
12976TIP3    H138871   1.034   7.693   6.588
12976TIP3    H238872   0.885   7.668   6.599
12977TIP3   OH238873   2.163   3.645   5.198
12977TIP3    H138874   2.090   3.622   5.255
12977TIP3    H238875   2.238   3.653   5.256
12978TIP3   OH238876   5.748   2.172   0.997
12978TIP3    H138877   5.732   2.139   0.908
12978TIP3    H238878   5.667   2.153   1.044
12979TIP3   OH238879   4.385   4.560   1.418
12979TIP3    H138880   4.428   4.637   1.455
12979TIP3    H238881   4.362   4.507   1.495
12980TIP3   OH238882   5.562   2.576   5.730
12980TIP3    H138883   5.613   2.608   5.656
12980TIP3    H238884   5.533   2.655   5.775
12981TIP3   OH238885   2.046   2.334   1.780
12981TIP3    H138886   2.105   2.271   1.737
12981TIP3    H238887   1.978   2.281   1.819
12982TIP3   OH238888   0.589   1.132   5.054
12982TIP3    H138889   0.494   1.137   5.055
12982TIP3    H238890   0.609   1.059   4.996
12983TIP3   OH238891   4.283   1.024   6.304
12983TIP3    H138892   4.284   0.990   6.214
12983TIP3    H238893   4.329   0.958   6.355
12984TIP3   OH238894   3.351   3.952   5.748
12984TIP3    H138895   3.318   3.942   5.838
12984TIP3    H238896   3.320   3.874   5.703
12985TIP3   OH238897   5.671   3.192   5.308
12985TIP3    H138898   5.614   3.259   5.345
12985TIP3    H238899   5.737   3.241   5.258
12986TIP3   OH238900   5.308   7.208   2.545
12986TIP3    H138901   5.299   7.128   2.597
12986TIP3    H238902   5.344   7.272   2.607
12987TIP3   OH238903   1.777   3.856   6.707
12987TIP3    H138904   1.692   3.897   6.724
12987TIP3    H238905   1.827   3.869   6.788
12988TIP3   OH238906   2.700   5.801   1.877
12988TIP3    H138907   2.753   5.721   1.881
12988TIP3    H238908   2.742   5.861   1.938
12989TIP3   OH238909   0.764   5.109   6.070
12989TIP3    H138910   0.785   5.084   6.160
12989TIP3    H238911   0.849   5.116   6.026
12990TIP3   OH238912   5.404   3.923   4.859
12990TIP3    H138913   5.452   3.935   4.941
12990TIP3    H238914   5.440   3.843   4.822
12991TIP3   OH238915   5.364   6.227   1.865
12991TIP3    H138916   5.285   6.180   1.893
12991TIP3    H238917   5.332   6.313   1.838
12992TIP3   OH238918   2.501   1.996   0.291
12992TIP3    H138919   2.456   1.969   0.371
12992TIP3    H238920   2.593   2.005   0.317
12993TIP3   OH238921   8.204   3.361   2.364
12993TIP3    H138922   8.152   3.325   2.292
12993TIP3    H238923   8.290   3.322   2.354
12994TIP3   OH238924   5.539   2.108   4.697
12994TIP3    H138925   5.595   2.030   4.698
12994TIP3    H238926   5.599   2.180   4.679
12995TIP3   OH238927   7.874   6.695   3.735
12995TIP3    H138928   7.819   6.618   3.720
12995TIP3    H238929   7.963   6.665   3.717
12996TIP3   OH238930   0.721   2.823   1.326
12996TIP3    H138931   0.658   2.758   1.358
12996TIP3    H238932   0.755   2.864   1.406
12997TIP3   OH238933   3.445   3.922   2.147
12997TIP3    H138934   3.506   3.954   2.080
12997TIP3    H238935   3.501   3.881   2.212
12998TIP3   OH238936   7.948   0.130   6.320
12998TIP3    H138937   7.948   0.199   6.387
12998TIP3    H238938   7.898   0.166   6.248
12999TIP3   OH238939   8.281   3.977   1.399
12999TIP3    H138940   8.255   3.914   1.331
12999TIP3    H238941   8.202   4.029   1.415
13000TIP3   OH238942   4.474   3.930   1.470
13000TIP3    H138943   4.389   3.943   1.428
13000TIP3    H238944   4.504   4.019   1.489
13001TIP3   OH238945   7.867   4.860   1.851
13001TIP3    H138946   7.795   4.886   1.908
13001TIP3    H238947   7.926   4.935   1.850
13002TIP3   OH238948   4.913   5.930   5.308
13002TIP3    H138949   4.960   5.983   5.244
13002TIP3    H238950   4.903   5.845   5.266
13003TIP3   OH238951   6.472   6.676   0.963
13003TIP3    H138952   6.450   6.608   0.899
13003TIP3    H238953   6.481   6.755   0.910
13004TIP3   OH238954   4.882   2.326   5.391
13004TIP3    H138955   4.818   2.390   5.360
13004TIP3    H238956   4.834   2.243   5.389
13005TIP3   OH238957   7.375   7.315   3.978
13005TIP3    H138958   7.446   7.251   3.986
13005TIP3    H238959   7.339   7.300   3.891
13006TIP3   OH238960   0.944   2.615   6.672
13006TIP3    H138961   1.031   2.611   6.632
13006TIP3    H238962   0.914   2.704   6.656
13007TIP3   OH238963   5.619   6.228   4.265
13007TIP3    H138964   5.573   6.302   4.304
13007TIP3    H238965   5.549   6.175   4.225
13008TIP3   OH238966   0.963   2.315   2.481
13008TIP3    H138967   0.965   2.263   2.401
13008TIP3    H238968   0.940   2.403   2.452
13009TIP3   OH238969   6.896   4.771   3.975
13009TIP3    H138970   6.950   4.724   3.911
13009TIP3    H238971   6.944   4.853   3.990
13010TIP3   OH238972   0.619   2.223   0.433
13010TIP3    H138973   0.617   2.244   0.339
13010TIP3    H238974   0.620   2.128   0.436
13011TIP3   OH238975   5.955   2.007   0.734
13011TIP3    H138976   5.895   2.066   0.687
13011TIP3    H238977   5.982   2.058   0.811
13012TIP3   OH238978   2.920   3.001   0.357
13012TIP3    H138979   2.955   3.060   0.425
13012TIP3    H238980   2.932   2.913   0.393
13013TIP3   OH238981   3.461   3.475   1.539
13013TIP3    H138982   3.555   3.469   1.560
13013TIP3    H238983   3.459   3.495   1.445
13014TIP3   OH238984   3.380   1.883   0.951
13014TIP3    H138985   3.431   1.964   0.950
13014TIP3    H238986   3.350   1.874   1.041
13015TIP3   OH238987   6.622   7.051   5.822
13015TIP3    H138988   6.537   7.010   5.805
13015TIP3    H238989   6.603   7.144   5.832
13016TIP3   OH238990   5.096   1.355   3.314
13016TIP3    H138991   5.149   1.425   3.352
13016TIP3    H238992   5.006   1.388   3.318
13017TIP3   OH238993   0.294   1.158   3.221
13017TIP3    H138994   0.248   1.242   3.229
13017TIP3    H238995   0.241   1.107   3.160
13018TIP3   OH238996   5.616   7.318   5.676
13018TIP3    H138997   5.678   7.310   5.604
13018TIP3    H238998   5.667   7.295   5.754
13019TIP3   OH238999   7.583   7.147   0.713
13019TIP3    H139000   7.521   7.143   0.786
13019TIP3    H239001   7.636   7.225   0.730
13020TIP3   OH239002   6.686   0.270   5.584
13020TIP3    H139003   6.699   0.292   5.676
13020TIP3    H239004   6.712   0.178   5.577
13021TIP3   OH239005   6.260   0.124   0.538
13021TIP3    H139006   6.347   0.164   0.539
13021TIP3    H239007   6.243   0.103   0.630
13022TIP3   OH239008   1.858   7.763   1.527
13022TIP3    H139009   1.917   7.826   1.486
13022TIP3    H239010   1.771   7.791   1.499
13023TIP3   OH239011   4.276   7.534   1.550
13023TIP3    H139012   4.319   7.506   1.470
13023TIP3    H239013   4.188   7.560   1.523
13024TIP3   OH239014   6.044   0.909   2.573
13024TIP3    H139015   6.113   0.975   2.569
13024TIP3    H239016   6.047   0.877   2.663
13025TIP3   OH239017   4.326   6.443   3.444
13025TIP3    H139018   4.326   6.381   3.517
13025TIP3    H239019   4.318   6.529   3.486
13026TIP3   OH239020   4.181   1.919   1.744
13026TIP3    H139021   4.142   2.004   1.764
13026TIP3    H239022   4.241   1.937   1.672
13027TIP3   OH239023   7.097   4.911   6.618
13027TIP3    H139024   7.156   4.842   6.589
13027TIP3    H239025   7.012   4.868   6.627
13028TIP3   OH239026   3.296   5.822   1.345
13028TIP3    H139027   3.362   5.759   1.316
13028TIP3    H239028   3.301   5.821   1.440
13029TIP3   OH239029   3.710   5.105   4.160
13029TIP3    H139030   3.716   5.053   4.240
13029TIP3    H239031   3.708   5.195   4.190
13030TIP3   OH239032   2.422   3.439   6.052
13030TIP3    H139033   2.428   3.363   6.110
13030TIP3    H239034   2.355   3.495   6.093
13031TIP3   OH239035   1.017   3.642   2.872
13031TIP3    H139036   0.981   3.716   2.920
13031TIP3    H239037   1.108   3.636   2.903
13032TIP3   OH239038   4.424   5.628   6.378
13032TIP3    H139039   4.423   5.532   6.379
13032TIP3    H239040   4.347   5.652   6.326
13033TIP3   OH239041   7.167   3.591   3.774
13033TIP3    H139042   7.253   3.551   3.786
13033TIP3    H239043   7.156   3.649   3.849
13034TIP3   OH239044   7.809   5.637   0.100
13034TIP3    H139045   7.802   5.546   0.129
13034TIP3    H239046   7.728   5.678   0.131
13035TIP3   OH239047   3.549   2.265   1.482
13035TIP3    H139048   3.639   2.250   1.454
13035TIP3    H239049   3.519   2.338   1.428
13036TIP3   OH239050   1.107   7.586   3.646
13036TIP3    H139051   1.082   7.674   3.615
13036TIP3    H239052   1.040   7.528   3.611
13037TIP3   OH239053   3.680   0.851   5.163
13037TIP3    H139054   3.605   0.802   5.130
13037TIP3    H239055   3.668   0.939   5.128
13038TIP3   OH239056   7.442   2.585   2.393
13038TIP3    H139057   7.516   2.608   2.337
13038TIP3    H239058   7.437   2.490   2.388
13039TIP3   OH239059   6.781   4.860   5.976
13039TIP3    H139060   6.813   4.775   6.004
13039TIP3    H239061   6.733   4.895   6.051
13040TIP3   OH239062   2.679   2.063   3.975
13040TIP3    H139063   2.693   2.048   4.069
13040TIP3    H239064   2.672   1.976   3.937
13041TIP3   OH239065   5.449   1.661   5.173
13041TIP3    H139066   5.409   1.681   5.089
13041TIP3    H239067   5.528   1.613   5.151
13042TIP3   OH239068   2.229   0.814   6.111
13042TIP3    H139069   2.309   0.762   6.126
13042TIP3    H239070   2.239   0.847   6.022
13043TIP3   OH239071   8.096   6.010   3.571
13043TIP3    H139072   8.189   6.005   3.595
13043TIP3    H239073   8.068   6.096   3.603
13044TIP3   OH239074   7.539   2.372   4.248
13044TIP3    H139075   7.593   2.445   4.279
13044TIP3    H239076   7.458   2.413   4.220
13045TIP3   OH239077   1.855   3.527   4.447
13045TIP3    H139078   1.797   3.588   4.492
13045TIP3    H239079   1.811   3.442   4.452
13046TIP3   OH239080   5.151   6.419   0.513
13046TIP3    H139081   5.246   6.424   0.526
13046TIP3    H239082   5.123   6.351   0.573
13047TIP3   OH239083   1.949   4.229   2.219
13047TIP3    H139084   1.976   4.166   2.152
13047TIP3    H239085   1.976   4.189   2.301
13048TIP3   OH239086   4.115   3.579   4.940
13048TIP3    H139087   4.051   3.638   4.981
13048TIP3    H239088   4.098   3.588   4.846
13049TIP3   OH239089   3.467   4.149   4.546
13049TIP3    H139090   3.492   4.186   4.462
13049TIP3    H239091   3.473   4.054   4.533
13050TIP3   OH239092   7.419   5.060   0.758
13050TIP3    H139093   7.455   5.146   0.776
13050TIP3    H239094   7.384   5.029   0.842
13051TIP3   OH239095   4.315   7.797   3.813
13051TIP3    H139096   4.330   7.703   3.802
13051TIP3    H239097   4.222   7.808   3.793
13052TIP3   OH239098   5.161   3.566   6.426
13052TIP3    H139099   5.074   3.602   6.440
13052TIP3    H239100   5.192   3.607   6.345
13053TIP3   OH239101   4.059   1.444   4.113
13053TIP3    H139102   4.074   1.361   4.158
13053TIP3    H239103   4.018   1.419   4.030
13054TIP3   OH239104   2.319   0.948   4.831
13054TIP3    H139105   2.254   0.885   4.800
13054TIP3    H239106   2.267   1.021   4.865
13055TIP3   OH239107   8.037   0.845   3.336
13055TIP3    H139108   7.967   0.906   3.313
13055TIP3    H239109   8.117   0.897   3.328
13056TIP3   OH239110   6.419   5.506   5.335
13056TIP3    H139111   6.375   5.492   5.252
13056TIP3    H239112   6.511   5.485   5.317
13057TIP3   OH239113   1.169   5.504   2.172
13057TIP3    H139114   1.214   5.452   2.106
13057TIP3    H239115   1.127   5.440   2.229
13058TIP3   OH239116   0.534   4.530   4.867
13058TIP3    H139117   0.604   4.586   4.834
13058TIP3    H239118   0.454   4.570   4.834
13059TIP3   OH239119   1.728   3.757   1.771
13059TIP3    H139120   1.793   3.811   1.815
13059TIP3    H239121   1.675   3.819   1.720
13060TIP3   OH239122   3.293   3.541   2.095
13060TIP3    H139123   3.288   3.446   2.086
13060TIP3    H239124   3.285   3.574   2.005
13061TIP3   OH239125   0.227   7.746   0.270
13061TIP3    H139126   0.167   7.775   0.201
13061TIP3    H239127   0.174   7.691   0.327
13062TIP3   OH239128   6.873   7.025   5.902
13062TIP3    H139129   6.790   7.044   5.859
13062TIP3    H239130   6.858   7.047   5.994
13063TIP3   OH239131   7.553   7.693   6.729
13063TIP3    H139132   7.525   7.621   6.785
13063TIP3    H239133   7.646   7.704   6.750
13064TIP3   OH239134   5.236   3.635   2.126
13064TIP3    H139135   5.140   3.636   2.136
13064TIP3    H239136   5.270   3.615   2.213
13065TIP3   OH239137   4.728   0.070   5.931
13065TIP3    H139138   4.812   0.033   5.958
13065TIP3    H239139   4.708   0.135   5.999
13066TIP3   OH239140   7.669   5.029   4.924
13066TIP3    H139141   7.709   5.105   4.968
13066TIP3    H239142   7.660   4.964   4.992
13067TIP3   OH239143   5.734   4.314   6.718
13067TIP3    H139144   5.644   4.315   6.685
13067TIP3    H239145   5.788   4.341   6.644
13068TIP3   OH239146   2.788   6.189   1.793
13068TIP3    H139147   2.844   6.220   1.721
13068TIP3    H239148   2.763   6.269   1.840
13069TIP3   OH239149   8.050   4.424   6.029
13069TIP3    H139150   8.094   4.508   6.023
13069TIP3    H239151   8.120   4.362   6.050
13070TIP3   OH239152   7.505   5.623   6.247
13070TIP3    H139153   7.544   5.610   6.334
13070TIP3    H239154   7.427   5.676   6.264
13071TIP3   OH239155   3.297   4.172   1.254
13071TIP3    H139156   3.368   4.110   1.237
13071TIP3    H239157   3.250   4.179   1.170
13072TIP3   OH239158   3.609   1.762   1.264
13072TIP3    H139159   3.517   1.761   1.239
13072TIP3    H239160   3.621   1.848   1.305
13073TIP3   OH239161   2.391   3.124   2.451
13073TIP3    H139162   2.459   3.188   2.428
13073TIP3    H239163   2.320   3.176   2.486
13074TIP3   OH239164   4.791   3.800   4.062
13074TIP3    H139165   4.776   3.799   3.967
13074TIP3    H239166   4.705   3.785   4.100
13075TIP3   OH239167   6.675   3.057   3.620
13075TIP3    H139168   6.620   3.053   3.542
13075TIP3    H239169   6.721   3.141   3.613
13076TIP3   OH239170   3.254   1.570   2.588
13076TIP3    H139171   3.256   1.503   2.656
13076TIP3    H239172   3.346   1.581   2.563
13077TIP3   OH239173   5.432   5.393   4.717
13077TIP3    H139174   5.452   5.397   4.810
13077TIP3    H239175   5.414   5.301   4.700
13078TIP3   OH239176   2.153   6.018   1.706
13078TIP3    H139177   2.159   5.923   1.716
13078TIP3    H239178   2.096   6.046   1.778
13079TIP3   OH239179   7.417   0.851   3.901
13079TIP3    H139180   7.403   0.819   3.990
13079TIP3    H239181   7.510   0.874   3.898
13080TIP3   OH239182   1.131   3.051   1.486
13080TIP3    H139183   1.106   2.999   1.410
13080TIP3    H239184   1.169   3.131   1.450
13081TIP3   OH239185   0.754   3.841   0.703
13081TIP3    H139186   0.682   3.782   0.679
13081TIP3    H239187   0.756   3.838   0.799
13082TIP3   OH239188   6.392   0.132   2.098
13082TIP3    H139189   6.406   0.188   2.022
13082TIP3    H239190   6.435   0.050   2.075
13083TIP3   OH239191   3.570   4.831   2.749
13083TIP3    H139192   3.484   4.816   2.710
13083TIP3    H239193   3.557   4.820   2.843
13084TIP3   OH239194   5.399   0.931   0.112
13084TIP3    H139195   5.358   1.014   0.138
13084TIP3    H239196   5.491   0.954   0.097
13085TIP3   OH239197   3.180   4.730   2.108
13085TIP3    H139198   3.170   4.645   2.151
13085TIP3    H239199   3.091   4.755   2.084
13086TIP3   OH239200   0.750   2.877   6.451
13086TIP3    H139201   0.793   2.908   6.530
13086TIP3    H239202   0.761   2.782   6.453
13087TIP3   OH239203   6.120   2.353   5.585
13087TIP3    H139204   6.191   2.312   5.634
13087TIP3    H239205   6.041   2.307   5.615
13088TIP3   OH239206   2.426   7.756   0.615
13088TIP3    H139207   2.462   7.832   0.570
13088TIP3    H239208   2.474   7.753   0.698
13089TIP3   OH239209   5.277   1.576   5.333
13089TIP3    H139210   5.307   1.613   5.416
13089TIP3    H239211   5.345   1.600   5.271
13090TIP3   OH239212   8.143   2.689   2.735
13090TIP3    H139213   8.098   2.615   2.775
13090TIP3    H239214   8.113   2.688   2.644
13091TIP3   OH239215   5.677   2.190   3.629
13091TIP3    H139216   5.737   2.265   3.625
13091TIP3    H239217   5.714   2.125   3.570
13092TIP3   OH239218   5.961   7.652   4.717
13092TIP3    H139219   5.868   7.628   4.715
13092TIP3    H239220   5.979   7.668   4.810
13093TIP3   OH239221   6.597   7.530   2.622
13093TIP3    H139222   6.503   7.542   2.605
13093TIP3    H239223   6.609   7.565   2.711
13094TIP3   OH239224   4.316   7.323   2.854
13094TIP3    H139225   4.302   7.390   2.788
13094TIP3    H239226   4.400   7.283   2.831
13095TIP3   OH239227   7.892   3.525   3.298
13095TIP3    H139228   7.924   3.549   3.211
13095TIP3    H239229   7.946   3.450   3.324
13096TIP3   OH239230   3.897   5.951   4.329
13096TIP3    H139231   3.947   5.871   4.347
13096TIP3    H239232   3.823   5.921   4.275
13097TIP3   OH239233   1.233   2.056   3.131
13097TIP3    H139234   1.159   2.064   3.190
13097TIP3    H239235   1.206   1.991   3.066
13098TIP3   OH239236   6.815   5.510   2.814
13098TIP3    H139237   6.747   5.560   2.768
13098TIP3    H239238   6.866   5.468   2.745
13099TIP3   OH239239   5.998   0.701   1.085
13099TIP3    H139240   6.005   0.796   1.093
13099TIP3    H239241   6.020   0.667   1.171
13100TIP3   OH239242   0.134   1.745   4.827
13100TIP3    H139243   0.047   1.710   4.807
13100TIP3    H239244   0.155   1.799   4.751
13101TIP3   OH239245   4.536   0.558   4.297
13101TIP3    H139246   4.498   0.490   4.352
13101TIP3    H239247   4.478   0.633   4.309
13102TIP3   OH239248   4.006   2.764   1.209
13102TIP3    H139249   4.100   2.781   1.205
13102TIP3    H239250   3.981   2.746   1.118
13103TIP3   OH239251   6.611   3.678   1.715
13103TIP3    H139252   6.690   3.649   1.669
13103TIP3    H239253   6.626   3.655   1.806
13104TIP3   OH239254   1.292   6.641   3.213
13104TIP3    H139255   1.374   6.654   3.167
13104TIP3    H239256   1.227   6.687   3.160
13105TIP3   OH239257   2.981   7.783   1.400
13105TIP3    H139258   3.013   7.693   1.412
13105TIP3    H239259   2.899   7.787   1.449
13106TIP3   OH239260   3.352   1.015   4.596
13106TIP3    H139261   3.359   1.031   4.690
13106TIP3    H239262   3.442   1.023   4.564
13107TIP3   OH239263   0.662   7.771   4.693
13107TIP3    H139264   0.663   7.736   4.604
13107TIP3    H239265   0.741   7.826   4.698
13108TIP3   OH239266   7.445   6.390   5.576
13108TIP3    H139267   7.523   6.338   5.588
13108TIP3    H239268   7.438   6.442   5.657
13109TIP3   OH239269   4.551   1.668   2.522
13109TIP3    H139270   4.577   1.582   2.555
13109TIP3    H239271   4.472   1.651   2.471
13110TIP3   OH239272   0.245   0.067   1.221
13110TIP3    H139273   0.195   0.073   1.140
13110TIP3    H239274   0.191   0.012   1.278
13111TIP3   OH239275   7.363   7.203   2.204
13111TIP3    H139276   7.324   7.127   2.248
13111TIP3    H239277   7.445   7.218   2.252
13112TIP3   OH239278   1.867   5.995   4.685
13112TIP3    H139279   1.815   6.011   4.606
13112TIP3    H239280   1.821   6.042   4.754
13113TIP3   OH239281   2.181   2.496   1.494
13113TIP3    H139282   2.204   2.404   1.482
13113TIP3    H239283   2.089   2.494   1.520
13114TIP3   OH239284   1.983   3.476   5.625
13114TIP3    H139285   1.970   3.383   5.608
13114TIP3    H239286   2.059   3.479   5.683
13115TIP3   OH239287   3.250   2.746   6.564
13115TIP3    H139288   3.190   2.696   6.509
13115TIP3    H239289   3.231   2.837   6.544
13116TIP3   OH239290   0.386   0.529   4.974
13116TIP3    H139291   0.465   0.584   4.976
13116TIP3    H239292   0.360   0.521   5.065
13117TIP3   OH239293   5.880   2.652   2.486
13117TIP3    H139294   5.965   2.690   2.507
13117TIP3    H239295   5.852   2.697   2.406
13118TIP3   OH239296   5.660   4.637   3.603
13118TIP3    H139297   5.589   4.603   3.548
13118TIP3    H239298   5.718   4.563   3.616
13119TIP3   OH239299   6.783   4.042   2.942
13119TIP3    H139300   6.872   4.072   2.925
13119TIP3    H239301   6.794   3.952   2.972
13120TIP3   OH239302   1.332   2.771   1.637
13120TIP3    H139303   1.290   2.843   1.591
13120TIP3    H239304   1.278   2.756   1.714
13121TIP3   OH239305   2.214   3.249   5.258
13121TIP3    H139306   2.259   3.221   5.178
13121TIP3    H239307   2.270   3.318   5.294
13122TIP3   OH239308   0.982   2.545   3.134
13122TIP3    H139309   0.963   2.620   3.077
13122TIP3    H239310   1.019   2.479   3.075
13123TIP3   OH239311   7.187   6.623   4.666
13123TIP3    H139312   7.261   6.678   4.641
13123TIP3    H239313   7.115   6.684   4.680
13124TIP3   OH239314   6.305   4.654   0.983
13124TIP3    H139315   6.398   4.648   1.005
13124TIP3    H239316   6.260   4.631   1.065
13125TIP3   OH239317   3.273   5.228   5.754
13125TIP3    H139318   3.364   5.237   5.781
13125TIP3    H239319   3.272   5.149   5.699
13126TIP3   OH239320   6.022   3.067   2.683
13126TIP3    H139321   6.110   3.095   2.660
13126TIP3    H239322   6.001   3.114   2.763
13127TIP3   OH239323   1.525   6.492   3.056
13127TIP3    H139324   1.436   6.458   3.062
13127TIP3    H239325   1.563   6.450   2.979
13128TIP3   OH239326   0.976   4.504   6.380
13128TIP3    H139327   1.040   4.445   6.422
13128TIP3    H239328   0.973   4.580   6.437
13129TIP3   OH239329   1.295   7.292   3.265
13129TIP3    H139330   1.214   7.270   3.219
13129TIP3    H239331   1.347   7.212   3.262
13130TIP3   OH239332   7.290   3.455   1.171
13130TIP3    H139333   7.306   3.505   1.091
13130TIP3    H239334   7.316   3.514   1.242
13131TIP3   OH239335   1.382   6.911   2.844
13131TIP3    H139336   1.432   6.954   2.774
13131TIP3    H239337   1.448   6.885   2.908
13132TIP3   OH239338   5.422   5.371   2.855
13132TIP3    H139339   5.397   5.312   2.926
13132TIP3    H239340   5.341   5.416   2.831
13133TIP3   OH239341   2.093   3.435   4.013
13133TIP3    H139342   2.132   3.350   3.995
13133TIP3    H239343   2.141   3.468   4.089
13134TIP3   OH239344   0.676   1.320   0.989
13134TIP3    H139345   0.700   1.366   0.909
13134TIP3    H239346   0.601   1.265   0.963
13135TIP3   OH239347   8.075   2.871   1.569
13135TIP3    H139348   8.057   2.823   1.488
13135TIP3    H239349   8.132   2.813   1.619
13136TIP3   OH239350   1.711   4.741   5.649
13136TIP3    H139351   1.656   4.722   5.574
13136TIP3    H239352   1.698   4.834   5.665
13137TIP3   OH239353   1.029   6.062   3.341
13137TIP3    H139354   0.975   6.008   3.283
13137TIP3    H239355   1.001   6.152   3.322
13138TIP3   OH239356   1.192   5.406   2.549
13138TIP3    H139357   1.212   5.463   2.623
13138TIP3    H239358   1.277   5.374   2.519
13139TIP3   OH239359   1.800   2.201   6.384
13139TIP3    H139360   1.858   2.134   6.347
13139TIP3    H239361   1.784   2.173   6.474
13140TIP3   OH239362   3.943   5.904   5.546
13140TIP3    H139363   3.895   5.982   5.518
13140TIP3    H239364   4.005   5.936   5.612
13141TIP3   OH239365   3.409   5.070   2.839
13141TIP3    H139366   3.388   4.980   2.864
13141TIP3    H239367   3.445   5.109   2.919
13142TIP3   OH239368   0.221   4.689   0.747
13142TIP3    H139369   0.211   4.651   0.834
13142TIP3    H239370   0.164   4.766   0.747
13143TIP3   OH239371   4.464   4.384   2.002
13143TIP3    H139372   4.521   4.339   2.064
13143TIP3    H239373   4.484   4.343   1.917
13144TIP3   OH239374   0.416   4.805   4.877
13144TIP3    H139375   0.463   4.854   4.810
13144TIP3    H239376   0.463   4.824   4.958
13145TIP3   OH239377   1.415   7.783   4.638
13145TIP3    H139378   1.405   7.876   4.619
13145TIP3    H239379   1.421   7.779   4.733
13146TIP3   OH239380   6.150   0.652   6.669
13146TIP3    H139381   6.103   0.699   6.600
13146TIP3    H239382   6.237   0.636   6.632
13147TIP3   OH239383   7.434   0.153   3.010
13147TIP3    H139384   7.484   0.107   2.943
13147TIP3    H239385   7.389   0.223   2.963
13148TIP3   OH239386   3.389   5.381   2.086
13148TIP3    H139387   3.374   5.471   2.117
13148TIP3    H239388   3.423   5.392   1.998
13149TIP3   OH239389   1.893   7.357   3.525
13149TIP3    H139390   1.914   7.445   3.557
13149TIP3    H239391   1.804   7.341   3.555
13150TIP3   OH239392   0.666   4.270   3.495
13150TIP3    H139393   0.755   4.287   3.525
13150TIP3    H239394   0.644   4.185   3.532
13151TIP3   OH239395   2.279   1.319   3.652
13151TIP3    H139396   2.236   1.249   3.604
13151TIP3    H239397   2.316   1.276   3.730
13152TIP3   OH239398   0.087   6.213   2.987
13152TIP3    H139399   0.106   6.279   2.920
13152TIP3    H239400   0.025   6.153   2.945
13153TIP3   OH239401   2.431   2.845   0.118
13153TIP3    H139402   2.379   2.797   0.183
13153TIP3    H239403   2.368   2.901   0.073
13154TIP3   OH239404   0.910   0.033   1.390
13154TIP3    H139405   0.881   0.108   1.442
13154TIP3    H239406   0.907   0.065   1.299
13155TIP3   OH239407   3.321   0.661   1.496
13155TIP3    H139408   3.257   0.698   1.436
13155TIP3    H239409   3.363   0.736   1.537
13156TIP3   OH239410   7.388   2.247   4.468
13156TIP3    H139411   7.419   2.269   4.380
13156TIP3    H239412   7.391   2.152   4.472
13157TIP3   OH239413   0.815   4.514   0.769
13157TIP3    H139414   0.879   4.467   0.823
13157TIP3    H239415   0.736   4.518   0.824
13158TIP3   OH239416   7.266   1.689   4.579
13158TIP3    H139417   7.296   1.752   4.645
13158TIP3    H239418   7.222   1.621   4.629
13159TIP3   OH239419   4.315   5.638   0.128
13159TIP3    H139420   4.397   5.687   0.131
13159TIP3    H239421   4.298   5.615   0.220
13160TIP3   OH239422   5.747   0.418   0.549
13160TIP3    H139423   5.681   0.397   0.483
13160TIP3    H239424   5.751   0.514   0.549
13161TIP3   OH239425   3.988   7.055   0.552
13161TIP3    H139426   4.018   6.977   0.598
13161TIP3    H239427   4.049   7.064   0.478
13162TIP3   OH239428   5.879   0.259   2.863
13162TIP3    H139429   5.832   0.325   2.812
13162TIP3    H239430   5.813   0.223   2.923
13163TIP3   OH239431   0.132   5.427   2.245
13163TIP3    H139432   0.160   5.388   2.328
13163TIP3    H239433   0.192   5.390   2.180
13164TIP3   OH239434   3.368   4.092   0.468
13164TIP3    H139435   3.333   4.181   0.464
13164TIP3    H239436   3.460   4.104   0.491
13165TIP3   OH239437   6.267   2.149   3.839
13165TIP3    H139438   6.208   2.225   3.844
13165TIP3    H239439   6.256   2.105   3.923
13166TIP3   OH239440   7.400   2.611   1.839
13166TIP3    H139441   7.484   2.641   1.805
13166TIP3    H239442   7.358   2.691   1.870
13167TIP3   OH239443   2.829   0.927   5.377
13167TIP3    H139444   2.810   0.980   5.299
13167TIP3    H239445   2.754   0.869   5.385
13168TIP3   OH239446   2.775   7.679   3.707
13168TIP3    H139447   2.836   7.663   3.634
13168TIP3    H239448   2.814   7.633   3.781
13169TIP3   OH239449   1.875   6.676   6.049
13169TIP3    H139450   1.804   6.660   6.110
13169TIP3    H239451   1.852   6.757   6.005
13170TIP3   OH239452   6.172   6.821   2.748
13170TIP3    H139453   6.256   6.778   2.732
13170TIP3    H239454   6.175   6.900   2.695
13171TIP3   OH239455   7.523   4.674   1.289
13171TIP3    H139456   7.608   4.684   1.331
13171TIP3    H239457   7.517   4.580   1.269
13172TIP3   OH239458   1.001   4.983   6.137
13172TIP3    H139459   1.032   5.044   6.204
13172TIP3    H239460   0.982   4.902   6.184
13173TIP3   OH239461   6.769   5.698   1.348
13173TIP3    H139462   6.677   5.696   1.323
13173TIP3    H239463   6.816   5.682   1.266
13174TIP3   OH239464   6.048   2.641   4.520
13174TIP3    H139465   5.998   2.578   4.572
13174TIP3    H239466   6.139   2.619   4.535
13175TIP3   OH239467   3.577   4.891   1.852
13175TIP3    H139468   3.521   4.967   1.840
13175TIP3    H239469   3.518   4.821   1.878
13176TIP3   OH239470   7.051   4.806   5.036
13176TIP3    H139471   6.989   4.735   5.052
13176TIP3    H239472   7.099   4.779   4.958
13177TIP3   OH239473   7.351   0.758   0.370
13177TIP3    H139474   7.309   0.680   0.407
13177TIP3    H239475   7.300   0.831   0.405
13178TIP3   OH239476   4.372   3.836   0.974
13178TIP3    H139477   4.453   3.842   0.924
13178TIP3    H239478   4.313   3.786   0.918
13179TIP3   OH239479   0.525   6.537   5.496
13179TIP3    H139480   0.606   6.545   5.545
13179TIP3    H239481   0.518   6.443   5.476
13180TIP3   OH239482   5.953   4.905   3.143
13180TIP3    H139483   5.880   4.852   3.176
13180TIP3    H239484   6.030   4.850   3.156
13181TIP3   OH239485   1.621   1.497   4.962
13181TIP3    H139486   1.555   1.552   5.005
13181TIP3    H239487   1.697   1.500   5.020
13182TIP3   OH239488   5.971   5.397   1.221
13182TIP3    H139489   6.010   5.319   1.260
13182TIP3    H239490   5.884   5.369   1.192
13183TIP3   OH239491   3.856   1.694   3.006
13183TIP3    H139492   3.894   1.681   2.919
13183TIP3    H239493   3.815   1.610   3.026
13184TIP3   OH239494   7.400  -0.014   0.190
13184TIP3    H139495   7.483   0.030   0.207
13184TIP3    H239496   7.337   0.034   0.243
13185TIP3   OH239497   1.776   0.349   5.835
13185TIP3    H139498   1.711   0.398   5.885
13185TIP3    H239499   1.830   0.306   5.901
13186TIP3   OH239500   0.701   4.581   0.257
13186TIP3    H139501   0.634   4.513   0.259
13186TIP3    H239502   0.674   4.643   0.325
13187TIP3   OH239503   3.804   1.770   3.645
13187TIP3    H139504   3.797   1.712   3.721
13187TIP3    H239505   3.884   1.742   3.601
13188TIP3   OH239506   8.309   7.762   2.923
13188TIP3    H139507   8.312   7.666   2.924
13188TIP3    H239508   8.216   7.784   2.926
13189TIP3   OH239509   5.356   1.081   4.222
13189TIP3    H139510   5.435   1.066   4.274
13189TIP3    H239511   5.284   1.057   4.281
13190TIP3   OH239512   0.760   2.493   5.154
13190TIP3    H139513   0.723   2.562   5.099
13190TIP3    H239514   0.757   2.415   5.098
13191TIP3   OH239515   0.996   0.490   0.598
13191TIP3    H139516   1.048   0.565   0.627
13191TIP3    H239517   0.914   0.498   0.648
13192TIP3   OH239518   7.973   5.101   3.779
13192TIP3    H139519   8.013   5.080   3.694
13192TIP3    H239520   7.891   5.145   3.757
13193TIP3   OH239521   4.125   3.498   2.733
13193TIP3    H139522   4.076   3.577   2.712
13193TIP3    H239523   4.115   3.486   2.827
13194TIP3   OH239524   7.469   7.078   4.186
13194TIP3    H139525   7.397   7.033   4.231
13194TIP3    H239526   7.474   7.163   4.228
13195TIP3   OH239527   7.957   1.065   1.462
13195TIP3    H139528   7.946   0.977   1.427
13195TIP3    H239529   7.871   1.106   1.450
13196TIP3   OH239530   7.775   5.511   2.786
13196TIP3    H139531   7.823   5.583   2.827
13196TIP3    H239532   7.830   5.434   2.801
13197TIP3   OH239533   2.686   6.161   3.409
13197TIP3    H139534   2.739   6.084   3.393
13197TIP3    H239535   2.658   6.190   3.322
13198TIP3   OH239536   6.768   6.482   4.320
13198TIP3    H139537   6.745   6.572   4.344
13198TIP3    H239538   6.808   6.445   4.399
13199TIP3   OH239539   1.206   2.925   0.662
13199TIP3    H139540   1.263   2.920   0.585
13199TIP3    H239541   1.258   2.887   0.733
13200TIP3   OH239542   7.173   0.686   6.410
13200TIP3    H139543   7.104   0.633   6.451
13200TIP3    H239544   7.232   0.622   6.370
13201TIP3   OH239545   6.257   0.980   4.404
13201TIP3    H139546   6.228   1.021   4.323
13201TIP3    H239547   6.284   0.892   4.378
13202TIP3   OH239548   5.112   1.088   6.644
13202TIP3    H139549   5.031   1.046   6.671
13202TIP3    H239550   5.165   1.091   6.723
13203TIP3   OH239551   7.285   3.103   4.977
13203TIP3    H139552   7.227   3.041   5.021
13203TIP3    H239553   7.359   3.115   5.037
13204TIP3   OH239554   0.015   1.787   4.399
13204TIP3    H139555   0.071   1.725   4.351
13204TIP3    H239556   0.046   1.873   4.371
13205TIP3   OH239557   2.051   4.787   2.912
13205TIP3    H139558   2.045   4.881   2.928
13205TIP3    H239559   2.139   4.762   2.941
13206TIP3   OH239560   1.733   2.726   1.994
13206TIP3    H139561   1.791   2.660   1.957
13206TIP3    H239562   1.648   2.684   2.001
13207TIP3   OH239563   2.980   3.524   4.435
13207TIP3    H139564   2.903   3.502   4.487
13207TIP3    H239565   2.948   3.584   4.368
13208TIP3   OH239566   3.074   2.261   3.405
13208TIP3    H139567   3.037   2.193   3.462
13208TIP3    H239568   3.166   2.265   3.430
13209TIP3   OH239569   4.382   1.788   0.606
13209TIP3    H139570   4.400   1.862   0.665
13209TIP3    H239571   4.437   1.805   0.530
13210TIP3   OH239572   4.245   6.062   0.551
13210TIP3    H139573   4.223   6.107   0.469
13210TIP3    H239574   4.175   6.087   0.611
13211TIP3   OH239575   2.046   7.555   1.406
13211TIP3    H139576   2.121   7.600   1.367
13211TIP3    H239577   1.983   7.625   1.425
13212TIP3   OH239578   0.078   6.210   0.316
13212TIP3    H139579   0.036   6.176   0.237
13212TIP3    H239580   0.132   6.137   0.348
13213TIP3   OH239581   3.768   3.731   0.410
13213TIP3    H139582   3.761   3.787   0.333
13213TIP3    H239583   3.679   3.724   0.444
13214TIP3   OH239584   3.144   6.013   0.815
13214TIP3    H139585   3.110   6.060   0.739
13214TIP3    H239586   3.178   5.931   0.779
13215TIP3   OH239587  -0.034   4.610   5.953
13215TIP3    H139588  -0.019   4.665   5.876
13215TIP3    H239589   0.054   4.597   5.991
13216TIP3   OH239590   4.267   3.962   3.485
13216TIP3    H139591   4.245   3.885   3.431
13216TIP3    H239592   4.296   3.926   3.568
13217TIP3   OH239593   3.839  -0.008   3.386
13217TIP3    H139594   3.839   0.063   3.451
13217TIP3    H239595   3.749  -0.013   3.356
13218TIP3   OH239596   6.540   1.497   1.920
13218TIP3    H139597   6.519   1.540   1.837
13218TIP3    H239598   6.461   1.510   1.973
13219TIP3   OH239599   7.603   3.854   0.495
13219TIP3    H139600   7.641   3.869   0.408
13219TIP3    H239601   7.561   3.937   0.518
13220TIP3   OH239602   3.107   1.331   1.637
13220TIP3    H139603   3.146   1.244   1.641
13220TIP3    H239604   3.170   1.383   1.586
13221TIP3   OH239605   7.933   4.481   0.521
13221TIP3    H139606   7.887   4.539   0.581
13221TIP3    H239607   7.883   4.399   0.524
13222TIP3   OH239608   5.277   5.841   3.003
13222TIP3    H139609   5.312   5.928   2.988
13222TIP3    H239610   5.231   5.819   2.921
13223TIP3   OH239611   8.015   7.827   5.173
13223TIP3    H139612   8.110   7.823   5.163
13223TIP3    H239613   7.995   7.761   5.239
13224TIP3   OH239614   0.179   6.197   4.831
13224TIP3    H139615   0.127   6.220   4.907
13224TIP3    H239616   0.121   6.214   4.756
13225TIP3   OH239617   3.904   3.065   1.448
13225TIP3    H139618   3.950   3.114   1.517
13225TIP3    H239619   3.910   2.974   1.475
13226TIP3   OH239620   2.194   6.097   3.521
13226TIP3    H139621   2.243   6.087   3.603
13226TIP3    H239622   2.222   6.023   3.467
13227TIP3   OH239623   1.340   4.993   2.613
13227TIP3    H139624   1.302   5.065   2.562
13227TIP3    H239625   1.292   4.995   2.696
13228TIP3   OH239626   0.287   7.264   0.261
13228TIP3    H139627   0.330   7.310   0.189
13228TIP3    H239628   0.357   7.252   0.326
13229TIP3   OH239629   1.253   4.863   6.704
13229TIP3    H139630   1.256   4.783   6.756
13229TIP3    H239631   1.193   4.920   6.751
13230TIP3   OH239632   5.870   4.786   3.482
13230TIP3    H139633   5.800   4.813   3.542
13230TIP3    H239634   5.846   4.698   3.455
13231TIP3   OH239635   4.297   0.611   3.165
13231TIP3    H139636   4.389   0.630   3.149
13231TIP3    H239637   4.294   0.517   3.181
13232TIP3   OH239638   7.696   6.907   6.554
13232TIP3    H139639   7.692   6.813   6.570
13232TIP3    H239640   7.734   6.915   6.467
13233TIP3   OH239641   4.074   4.549   6.067
13233TIP3    H139642   4.124   4.615   6.116
13233TIP3    H239643   4.003   4.523   6.127
13234TIP3   OH239644   1.452   4.728   4.500
13234TIP3    H139645   1.375   4.775   4.469
13234TIP3    H239646   1.482   4.778   4.576
13235TIP3   OH239647   6.385   0.681   6.354
13235TIP3    H139648   6.368   0.618   6.283
13235TIP3    H239649   6.427   0.629   6.422
13236TIP3   OH239650   7.727   7.552   2.019
13236TIP3    H139651   7.671   7.543   2.097
13236TIP3    H239652   7.731   7.463   1.984
13237TIP3   OH239653   5.294   7.147   0.198
13237TIP3    H139654   5.219   7.129   0.141
13237TIP3    H239655   5.340   7.220   0.155
13238TIP3   OH239656   0.030   5.020   3.908
13238TIP3    H139657   0.029   4.929   3.878
13238TIP3    H239658   0.003   5.014   4.000
13239TIP3   OH239659   4.175   0.787   3.943
13239TIP3    H139660   4.157   0.831   3.860
13239TIP3    H239661   4.249   0.730   3.925
13240TIP3   OH239662   1.885   0.222   2.831
13240TIP3    H139663   1.936   0.268   2.898
13240TIP3    H239664   1.905   0.269   2.750
13241TIP3   OH239665   3.152   1.482   3.249
13241TIP3    H139666   3.175   1.538   3.322
13241TIP3    H239667   3.203   1.515   3.175
13242TIP3   OH239668   1.621   7.312   6.614
13242TIP3    H139669   1.611   7.397   6.571
13242TIP3    H239670   1.694   7.325   6.675
13243TIP3   OH239671   7.188   6.920   3.258
13243TIP3    H139672   7.178   6.952   3.169
13243TIP3    H239673   7.183   6.998   3.313
13244TIP3   OH239674   4.244   0.301   3.263
13244TIP3    H139675   4.184   0.332   3.330
13244TIP3    H239676   4.250   0.207   3.277
13245TIP3   OH239677   4.820   0.629   4.499
13245TIP3    H139678   4.741   0.612   4.549
13245TIP3    H239679   4.815   0.722   4.477
13246TIP3   OH239680   1.326   0.846   2.501
13246TIP3    H139681   1.278   0.928   2.492
13246TIP3    H239682   1.404   0.859   2.447
13247TIP3   OH239683   1.004   7.044   2.858
13247TIP3    H139684   1.097   7.049   2.881
13247TIP3    H239685   1.001   6.980   2.786
13248TIP3   OH239686   0.273   3.346   0.736
13248TIP3    H139687   0.210   3.300   0.791
13248TIP3    H239688   0.294   3.284   0.666
13249TIP3   OH239689   7.546   6.296   6.284
13249TIP3    H139690   7.619   6.239   6.308
13249TIP3    H239691   7.473   6.265   6.337
13250TIP3   OH239692   4.462   0.730   6.059
13250TIP3    H139693   4.386   0.785   6.078
13250TIP3    H239694   4.446   0.650   6.109
13251TIP3   OH239695   5.916   5.344   3.163
13251TIP3    H139696   5.948   5.407   3.228
13251TIP3    H239697   5.987   5.282   3.153
13252TIP3   OH239698   7.170   0.140   3.419
13252TIP3    H139699   7.248   0.098   3.455
13252TIP3    H239700   7.140   0.080   3.351
13253TIP3   OH239701   2.136   5.240   3.962
13253TIP3    H139702   2.064   5.292   3.927
13253TIP3    H239703   2.199   5.304   3.995
13254TIP3   OH239704   4.874   4.089   3.894
13254TIP3    H139705   4.836   4.018   3.842
13254TIP3    H239706   4.798   4.134   3.931
13255TIP3   OH239707   5.016   4.735   5.368
13255TIP3    H139708   5.013   4.724   5.273
13255TIP3    H239709   5.107   4.756   5.387
13256TIP3   OH239710   0.533   1.271   2.010
13256TIP3    H139711   0.609   1.257   2.067
13256TIP3    H239712   0.569   1.308   1.930
13257TIP3   OH239713   7.745   7.152   6.661
13257TIP3    H139714   7.713   7.211   6.593
13257TIP3    H239715   7.726   7.064   6.628
13258TIP3   OH239716   0.669   0.692   5.312
13258TIP3    H139717   0.663   0.649   5.227
13258TIP3    H239718   0.599   0.652   5.364
13259TIP3   OH239719   1.874   3.644   6.554
13259TIP3    H139720   1.961   3.627   6.592
13259TIP3    H239721   1.839   3.717   6.606
13260TIP3   OH239722   1.396   3.531   5.483
13260TIP3    H139723   1.377   3.493   5.397
13260TIP3    H239724   1.450   3.466   5.527
13261TIP3   OH239725   2.167   5.949   6.544
13261TIP3    H139726   2.158   5.963   6.638
13261TIP3    H239727   2.250   5.902   6.534
13262TIP3   OH239728   1.246   5.876   6.412
13262TIP3    H139729   1.280   5.925   6.487
13262TIP3    H239730   1.300   5.903   6.338
13263TIP3   OH239731   4.653   6.957   4.563
13263TIP3    H139732   4.626   6.998   4.644
13263TIP3    H239733   4.748   6.945   4.572
13264TIP3   OH239734   7.138   1.982   1.647
13264TIP3    H139735   7.215   2.006   1.699
13264TIP3    H239736   7.130   1.887   1.657
13265TIP3   OH239737   4.674   0.485   4.674
13265TIP3    H139738   4.688   0.392   4.658
13265TIP3    H239739   4.680   0.494   4.769
13266TIP3   OH239740   0.937   6.074   2.151
13266TIP3    H139741   1.011   6.123   2.186
13266TIP3    H239742   0.861   6.129   2.169
13267TIP3   OH239743   5.933   2.918   5.230
13267TIP3    H139744   5.970   3.006   5.229
13267TIP3    H239745   5.852   2.927   5.279
13268TIP3   OH239746   5.270   0.226   2.024
13268TIP3    H139747   5.266   0.322   2.030
13268TIP3    H239748   5.237   0.206   1.937
13269TIP3   OH239749   4.825   7.436   4.667
13269TIP3    H139750   4.781   7.520   4.683
13269TIP3    H239751   4.893   7.456   4.603
13270TIP3   OH239752   7.101   0.913   3.089
13270TIP3    H139753   7.018   0.875   3.118
13270TIP3    H239754   7.076   0.975   3.020
13271TIP3   OH239755   3.598   5.223   1.201
13271TIP3    H139756   3.689   5.214   1.172
13271TIP3    H239757   3.550   5.160   1.148
13272TIP3   OH239758   0.666   6.537   3.440
13272TIP3    H139759   0.723   6.461   3.453
13272TIP3    H239760   0.676   6.560   3.348
13273TIP3   OH239761   1.146   6.475   6.233
13273TIP3    H139762   1.238   6.500   6.238
13273TIP3    H239763   1.115   6.514   6.151
13274TIP3   OH239764   8.172   1.958   5.993
13274TIP3    H139765   8.217   2.035   5.958
13274TIP3    H239766   8.105   1.994   6.052
13275TIP3   OH239767   1.724   6.508   0.070
13275TIP3    H139768   1.730   6.567   0.145
13275TIP3    H239769   1.767   6.555  -0.001
13276TIP3   OH239770   4.371   7.653   0.317
13276TIP3    H139771   4.323   7.609   0.247
13276TIP3    H239772   4.427   7.585   0.354
13277TIP3   OH239773   1.378   2.119   4.132
13277TIP3    H139774   1.332   2.183   4.188
13277TIP3    H239775   1.377   2.158   4.045
13278TIP3   OH239776   0.738   5.800   2.466
13278TIP3    H139777   0.793   5.829   2.539
13278TIP3    H239778   0.687   5.877   2.442
13279TIP3   OH239779   3.649   7.532   2.921
13279TIP3    H139780   3.557   7.534   2.945
13279TIP3    H239781   3.651   7.490   2.835
13280TIP3   OH239782   6.362   6.340   4.612
13280TIP3    H139783   6.285   6.283   4.609
13280TIP3    H239784   6.363   6.384   4.527
13281TIP3   OH239785   5.757   3.254   1.554
13281TIP3    H139786   5.791   3.182   1.608
13281TIP3    H239787   5.684   3.215   1.506
13282TIP3   OH239788   5.863   3.209   1.228
13282TIP3    H139789   5.799   3.139   1.211
13282TIP3    H239790   5.942   3.179   1.183
13283TIP3   OH239791   0.360   4.108   2.674
13283TIP3    H139792   0.386   4.024   2.711
13283TIP3    H239793   0.287   4.137   2.729
13284TIP3   OH239794   8.026   5.850   3.903
13284TIP3    H139795   7.998   5.759   3.911
13284TIP3    H239796   8.121   5.846   3.896
13285TIP3   OH239797   7.328   5.779   1.010
13285TIP3    H139798   7.414   5.817   0.993
13285TIP3    H239799   7.269   5.853   1.012
13286TIP3   OH239800   4.587   2.017   4.413
13286TIP3    H139801   4.680   1.995   4.419
13286TIP3    H239802   4.552   1.952   4.352
13287TIP3   OH239803   7.747   1.988   0.344
13287TIP3    H139804   7.672   2.020   0.394
13287TIP3    H239805   7.820   1.993   0.406
13288TIP3   OH239806   6.290   1.949   4.337
13288TIP3    H139807   6.355   2.009   4.301
13288TIP3    H239808   6.228   2.005   4.383
13289TIP3   OH239809   6.738   6.161   2.736
13289TIP3    H139810   6.737   6.242   2.684
13289TIP3    H239811   6.664   6.171   2.796
13290TIP3   OH239812   7.744   6.434   4.509
13290TIP3    H139813   7.673   6.458   4.450
13290TIP3    H239814   7.731   6.489   4.586
13291TIP3   OH239815   2.475   4.475   2.864
13291TIP3    H139816   2.395   4.425   2.849
13291TIP3    H239817   2.545   4.411   2.855
13292TIP3   OH239818   0.500   1.287   4.056
13292TIP3    H139819   0.444   1.276   4.133
13292TIP3    H239820   0.457   1.356   4.005
13293TIP3   OH239821   8.215   3.379   1.946
13293TIP3    H139822   8.211   3.463   1.991
13293TIP3    H239823   8.308   3.368   1.925
13294TIP3   OH239824   0.189   5.003   3.001
13294TIP3    H139825   0.133   4.933   3.034
13294TIP3    H239826   0.276   4.963   2.994
13295TIP3   OH239827   5.877   6.544   2.945
13295TIP3    H139828   5.785   6.559   2.968
13295TIP3    H239829   5.874   6.517   2.853
13296TIP3   OH239830   1.516   6.299   1.770
13296TIP3    H139831   1.491   6.321   1.860
13296TIP3    H239832   1.558   6.378   1.737
13297TIP3   OH239833   5.491   6.608   4.796
13297TIP3    H139834   5.570   6.626   4.847
13297TIP3    H239835   5.521   6.602   4.705
13298TIP3   OH239836   3.758   5.277   6.005
13298TIP3    H139837   3.799   5.360   5.980
13298TIP3    H239838   3.784   5.216   5.936
13299TIP3   OH239839   6.144   7.577   3.113
13299TIP3    H139840   6.238   7.599   3.118
13299TIP3    H239841   6.140   7.485   3.137
13300TIP3   OH239842   0.685   1.493   0.802
13300TIP3    H139843   0.721   1.537   0.725
13300TIP3    H239844   0.604   1.540   0.820
13301TIP3   OH239845   6.786   3.629   0.260
13301TIP3    H139846   6.764   3.670   0.343
13301TIP3    H239847   6.774   3.536   0.275
13302TIP3   OH239848   2.161   5.314   4.277
13302TIP3    H139849   2.078   5.356   4.299
13302TIP3    H239850   2.228   5.369   4.317
13303TIP3   OH239851   5.305   4.174   3.682
13303TIP3    H139852   5.350   4.174   3.598
13303TIP3    H239853   5.327   4.259   3.721
13304TIP3   OH239854   6.398   3.578   1.287
13304TIP3    H139855   6.413   3.495   1.332
13304TIP3    H239856   6.484   3.604   1.254
13305TIP3   OH239857   2.452   0.805   1.732
13305TIP3    H139858   2.480   0.820   1.642
13305TIP3    H239859   2.410   0.719   1.730
13306TIP3   OH239860   0.559   4.020   3.586
13306TIP3    H139861   0.486   4.042   3.527
13306TIP3    H239862   0.526   3.949   3.640
13307TIP3   OH239863   1.917   2.544   0.841
13307TIP3    H139864   2.006   2.573   0.864
13307TIP3    H239865   1.898   2.473   0.902
13308TIP3   OH239866   5.261   0.988   2.275
13308TIP3    H139867   5.176   0.944   2.279
13308TIP3    H239868   5.273   1.025   2.362
13309TIP3   OH239869   3.445   7.659   2.392
13309TIP3    H139870   3.528   7.620   2.420
13309TIP3    H239871   3.433   7.735   2.449
13310TIP3   OH239872   4.476   3.482   3.088
13310TIP3    H139873   4.534   3.407   3.102
13310TIP3    H239874   4.391   3.443   3.069
13311TIP3   OH239875   7.039   7.200   5.189
13311TIP3    H139876   7.127   7.183   5.155
13311TIP3    H239877   7.052   7.219   5.282
13312TIP3   OH239878   0.234   4.602   4.709
13312TIP3    H139879   0.237   4.587   4.614
13312TIP3    H239880   0.153   4.559   4.736
13313TIP3   OH239881   8.163   4.675   1.861
13313TIP3    H139882   8.170   4.580   1.854
13313TIP3    H239883   8.105   4.700   1.789
13314TIP3   OH239884   5.618   4.434   6.294
13314TIP3    H139885   5.695   4.483   6.264
13314TIP3    H239886   5.628   4.428   6.389
13315TIP3   OH239887   5.194   6.093   5.875
13315TIP3    H139888   5.285   6.082   5.901
13315TIP3    H239889   5.196   6.163   5.810
13316TIP3   OH239890   7.822   7.770  -0.016
13316TIP3    H139891   7.774   7.793   0.064
13316TIP3    H239892   7.912   7.796   0.002
13317TIP3   OH239893   4.815   3.022   2.160
13317TIP3    H139894   4.792   3.073   2.238
13317TIP3    H239895   4.755   3.054   2.092
13318TIP3   OH239896   1.108   0.843   3.861
13318TIP3    H139897   1.039   0.794   3.906
13318TIP3    H239898   1.107   0.929   3.903
13319TIP3   OH239899   0.043   3.692   0.395
13319TIP3    H139900   0.101   3.639   0.449
13319TIP3    H239901   0.081   3.780   0.399
13320TIP3   OH239902   7.514   4.618   0.976
13320TIP3    H139903   7.588   4.679   0.970
13320TIP3    H239904   7.458   4.654   1.045
13321TIP3   OH239905   5.168   4.755   4.119
13321TIP3    H139906   5.081   4.732   4.151
13321TIP3    H239907   5.223   4.681   4.145
13322TIP3   OH239908   5.616   6.581   3.492
13322TIP3    H139909   5.630   6.533   3.411
13322TIP3    H239910   5.533   6.547   3.525
13323TIP3   OH239911   5.253   0.458   1.643
13323TIP3    H139912   5.335   0.471   1.689
13323TIP3    H239913   5.239   0.363   1.645
13324TIP3   OH239914   4.952   1.614   4.716
13324TIP3    H139915   4.965   1.706   4.737
13324TIP3    H239916   4.924   1.614   4.624
13325TIP3   OH239917   1.677   5.435   3.184
13325TIP3    H139918   1.591   5.421   3.144
13325TIP3    H239919   1.739   5.412   3.116
13326TIP3   OH239920   2.081   3.085   3.484
13326TIP3    H139921   2.002   3.120   3.444
13326TIP3    H239922   2.103   3.009   3.430
13327TIP3   OH239923   1.236   1.388   0.409
13327TIP3    H139924   1.190   1.347   0.335
13327TIP3    H239925   1.170   1.443   0.450
13328TIP3   OH239926   2.851   5.338   6.301
13328TIP3    H139927   2.909   5.362   6.228
13328TIP3    H239928   2.849   5.416   6.357
13329TIP3   OH239929   8.071   5.100   6.652
13329TIP3    H139930   8.034   5.018   6.618
13329TIP3    H239931   8.025   5.169   6.604
13330TIP3   OH239932   0.760   5.994   5.596
13330TIP3    H139933   0.811   5.913   5.600
13330TIP3    H239934   0.670   5.964   5.581
13331TIP3   OH239935   3.056   5.807   3.997
13331TIP3    H139936   3.095   5.894   4.001
13331TIP3    H239937   3.033   5.786   4.088
13332TIP3   OH239938   6.543   6.435   3.188
13332TIP3    H139939   6.482   6.402   3.254
13332TIP3    H239940   6.608   6.365   3.179
13333TIP3   OH239941   3.730   5.920   4.703
13333TIP3    H139942   3.751   5.968   4.623
13333TIP3    H239943   3.637   5.940   4.719
13334TIP3   OH239944   0.894   2.548   3.557
13334TIP3    H139945   0.881   2.464   3.512
13334TIP3    H239946   0.883   2.614   3.489
13335TIP3   OH239947   3.189   4.494   2.245
13335TIP3    H139948   3.175   4.404   2.274
13335TIP3    H239949   3.265   4.523   2.295
13336TIP3   OH239950   8.047   6.833   6.185
13336TIP3    H139951   8.118   6.791   6.233
13336TIP3    H239952   7.996   6.760   6.149
13337TIP3   OH239953   7.730   4.080   4.472
13337TIP3    H139954   7.772   4.117   4.549
13337TIP3    H239955   7.636   4.096   4.486
13338TIP3   OH239956   6.413   4.679   1.267
13338TIP3    H139957   6.488   4.690   1.208
13338TIP3    H239958   6.440   4.723   1.347
13339TIP3   OH239959   5.609   2.440   4.861
13339TIP3    H139960   5.700   2.455   4.886
13339TIP3    H239961   5.567   2.408   4.941
13340TIP3   OH239962   4.815   7.045   2.495
13340TIP3    H139963   4.723   7.061   2.476
13340TIP3    H239964   4.863   7.094   2.428
13341TIP3   OH239965   1.737   1.456   0.573
13341TIP3    H139966   1.742   1.424   0.482
13341TIP3    H239967   1.664   1.517   0.573
13342TIP3   OH239968   6.096   5.090   4.574
13342TIP3    H139969   6.054   5.172   4.602
13342TIP3    H239970   6.186   5.098   4.603
13343TIP3   OH239971   4.653   6.420   0.598
13343TIP3    H139972   4.619   6.492   0.545
13343TIP3    H239973   4.580   6.359   0.607
13344TIP3   OH239974   4.071   0.435   2.487
13344TIP3    H139975   4.009   0.446   2.558
13344TIP3    H239976   4.051   0.350   2.450
13345TIP3   OH239977   6.566   1.041   1.724
13345TIP3    H139978   6.587   1.134   1.729
13345TIP3    H239979   6.630   0.999   1.783
13346TIP3   OH239980   2.190   5.220   0.968
13346TIP3    H139981   2.195   5.310   0.935
13346TIP3    H239982   2.142   5.173   0.900
13347TIP3   OH239983   0.351   0.734   3.894
13347TIP3    H139984   0.304   0.810   3.861
13347TIP3    H239985   0.298   0.659   3.866
13348TIP3   OH239986   6.563   7.640   2.305
13348TIP3    H139987   6.509   7.701   2.357
13348TIP3    H239988   6.608   7.696   2.242
13349TIP3   OH239989   6.325   5.281   6.049
13349TIP3    H139990   6.407   5.241   6.078
13349TIP3    H239991   6.306   5.239   5.965
13350TIP3   OH239992   1.729   6.145   5.185
13350TIP3    H139993   1.810   6.196   5.176
13350TIP3    H239994   1.700   6.163   5.275
13351TIP3   OH239995   3.047   3.964   0.695
13351TIP3    H139996   3.074   3.883   0.650
13351TIP3    H239997   3.122   4.023   0.683
13352TIP3   OH239998   8.145   3.400   6.521
13352TIP3    H139999   8.211   3.413   6.453
13352TIP3    H240000   8.062   3.401   6.473
13353TIP3   OH240001   2.462   4.046   6.780
13353TIP3    H140002   2.479   4.001   6.697
13353TIP3    H240003   2.386   4.101   6.762
13354TIP3   OH240004   1.642   1.001   0.593
13354TIP3    H140005   1.597   1.068   0.646
13354TIP3    H240006   1.610   1.015   0.504
13355TIP3   OH240007   5.559   2.271   6.667
13355TIP3    H140008   5.464   2.269   6.656
13355TIP3    H240009   5.582   2.364   6.663
13356TIP3   OH240010   1.748   7.233   0.599
13356TIP3    H140011   1.659   7.253   0.626
13356TIP3    H240012   1.745   7.233   0.503
13357TIP3   OH240013   6.805   1.242   4.901
13357TIP3    H140014   6.842   1.201   4.823
13357TIP3    H240015   6.737   1.182   4.930
13358TIP3   OH240016   0.884   3.306   6.198
13358TIP3    H140017   0.789   3.313   6.207
13358TIP3    H240018   0.914   3.283   6.286
13359TIP3   OH240019   1.053   0.640  -0.021
13359TIP3    H140020   1.095   0.719   0.013
13359TIP3    H240021   0.966   0.639   0.020
13360TIP3   OH240022   1.734   6.818   1.819
13360TIP3    H140023   1.800   6.882   1.795
13360TIP3    H240024   1.710   6.839   1.909
13361TIP3   OH240025   5.227   0.093   4.445
13361TIP3    H140026   5.317   0.103   4.414
13361TIP3    H240027   5.180   0.167   4.408
13362TIP3   OH240028   1.252   6.733   2.065
13362TIP3    H140029   1.280   6.819   2.032
13362TIP3    H240030   1.254   6.743   2.160
13363TIP3   OH240031   7.609   3.002   4.358
13363TIP3    H140032   7.525   3.023   4.317
13363TIP3    H240033   7.672   3.061   4.316
13364TIP3   OH240034   5.541   3.653   1.710
13364TIP3    H140035   5.616   3.601   1.740
13364TIP3    H240036   5.581   3.732   1.672
13365TIP3   OH240037   3.996   0.821   4.511
13365TIP3    H140038   4.022   0.854   4.597
13365TIP3    H240039   4.068   0.845   4.453
13366TIP3   OH240040   0.227   0.042   6.596
13366TIP3    H140041   0.141   0.085   6.595
13366TIP3    H240042   0.280   0.097   6.653
13367TIP3   OH240043   7.905   6.080   3.340
13367TIP3    H140044   7.942   6.027   3.411
13367TIP3    H240045   7.819   6.041   3.324
13368TIP3   OH240046   0.180   5.478   0.375
13368TIP3    H140047   0.252   5.487   0.437
13368TIP3    H240048   0.186   5.557   0.321
13369TIP3   OH240049   5.783   2.450   6.567
13369TIP3    H140050   5.723   2.521   6.589
13369TIP3    H240051   5.730   2.389   6.516
13370TIP3   OH240052   7.108   6.749   1.098
13370TIP3    H140053   7.107   6.826   1.154
13370TIP3    H240054   7.172   6.690   1.139
13371TIP3   OH240055   1.990   1.999   1.001
13371TIP3    H140056   1.999   2.092   0.980
13371TIP3    H240057   2.078   1.963   0.987
13372TIP3   OH240058   1.822   5.104   3.920
13372TIP3    H140059   1.889   5.085   3.856
13372TIP3    H240060   1.744   5.125   3.868
13373TIP3   OH240061   0.820   7.773   5.819
13373TIP3    H140062   0.893   7.770   5.757
13373TIP3    H240063   0.788   7.683   5.823
13374TIP3   OH240064   3.227   6.984   5.416
13374TIP3    H140065   3.244   7.078   5.408
13374TIP3    H240066   3.313   6.945   5.434
13375TIP3   OH240067   3.268   2.770   5.656
13375TIP3    H140068   3.280   2.860   5.684
13375TIP3    H240069   3.190   2.773   5.600
13376TIP3   OH240070   4.072   7.147   6.012
13376TIP3    H140071   4.088   7.212   5.944
13376TIP3    H240072   4.158   7.111   6.032
13377TIP3   OH240073   6.687   3.582   1.948
13377TIP3    H140074   6.665   3.491   1.930
13377TIP3    H240075   6.764   3.577   2.006
13378TIP3   OH240076   7.340   2.211   3.095
13378TIP3    H140077   7.286   2.133   3.102
13378TIP3    H240078   7.337   2.251   3.182
13379TIP3   OH240079   6.890   0.368   1.526
13379TIP3    H140080   6.869   0.293   1.582
13379TIP3    H240081   6.808   0.389   1.481
13380TIP3   OH240082   4.830   0.109   5.247
13380TIP3    H140083   4.822   0.148   5.160
13380TIP3    H240084   4.889   0.035   5.235
13381TIP3   OH240085   3.391   5.924   0.043
13381TIP3    H140086   3.326   5.971  -0.010
13381TIP3    H240087   3.462   5.904  -0.018
13382TIP3   OH240088   1.645   0.594   1.316
13382TIP3    H140089   1.549   0.592   1.325
13382TIP3    H240090   1.666   0.515   1.266
13383TIP3   OH240091   7.022   3.141   1.494
13383TIP3    H140092   6.990   3.090   1.420
13383TIP3    H240093   6.968   3.111   1.568
13384TIP3   OH240094   7.572   0.728   0.191
13384TIP3    H140095   7.500   0.720   0.254
13384TIP3    H240096   7.539   0.790   0.125
13385TIP3   OH240097   5.069   2.261   6.512
13385TIP3    H140098   4.980   2.234   6.490
13385TIP3    H240099   5.086   2.336   6.454
13386TIP3   OH240100   2.979   1.183   0.933
13386TIP3    H140101   2.987   1.204   1.026
13386TIP3    H240102   2.957   1.266   0.891
13387TIP3   OH240103   7.929   3.780   5.203
13387TIP3    H140104   7.900   3.848   5.142
13387TIP3    H240105   7.885   3.801   5.285
13388TIP3   OH240106   1.819   4.264   5.504
13388TIP3    H140107   1.874   4.223   5.571
13388TIP3    H240108   1.797   4.192   5.445
13389TIP3   OH240109   6.333   1.374   1.313
13389TIP3    H140110   6.405   1.365   1.250
13389TIP3    H240111   6.337   1.466   1.341
13390TIP3   OH240112   7.022   3.973   4.766
13390TIP3    H140113   7.048   3.926   4.687
13390TIP3    H240114   7.071   4.055   4.763
13391TIP3   OH240115   0.432   0.832   6.316
13391TIP3    H140116   0.402   0.852   6.227
13391TIP3    H240117   0.362   0.778   6.353
13392TIP3   OH240118   1.366   3.688   2.393
13392TIP3    H140119   1.337   3.599   2.374
13392TIP3    H240120   1.427   3.710   2.322
13393TIP3   OH240121   2.282   3.776   1.354
13393TIP3    H140122   2.354   3.807   1.299
13393TIP3    H240123   2.213   3.840   1.341
13394TIP3   OH240124   8.042   4.997   5.875
13394TIP3    H140125   8.047   5.086   5.842
13394TIP3    H240126   8.123   4.985   5.925
13395TIP3   OH240127   1.406   5.661   1.144
13395TIP3    H140128   1.486   5.685   1.192
13395TIP3    H240129   1.357   5.743   1.137
13396TIP3   OH240130   0.147   2.250   1.034
13396TIP3    H140131   0.225   2.211   1.074
13396TIP3    H240132   0.103   2.296   1.106
13397TIP3   OH240133   0.106   5.211   0.292
13397TIP3    H140134   0.112   5.305   0.303
13397TIP3    H240135   0.196   5.183   0.273
13398TIP3   OH240136   2.948   3.676   6.512
13398TIP3    H140137   2.937   3.747   6.449
13398TIP3    H240138   2.997   3.609   6.464
13399TIP3   OH240139   1.443   5.496   6.477
13399TIP3    H140140   1.348   5.506   6.470
13399TIP3    H240141   1.476   5.521   6.391
13400TIP3   OH240142   0.185   4.632   5.671
13400TIP3    H140143   0.182   4.723   5.641
13400TIP3    H240144   0.278   4.614   5.684
13401TIP3   OH240145   3.677   7.319   6.638
13401TIP3    H140146   3.711   7.267   6.711
13401TIP3    H240147   3.631   7.256   6.583
13402TIP3   OH240148   1.810   4.886   2.256
13402TIP3    H140149   1.736   4.938   2.286
13402TIP3    H240150   1.782   4.795   2.267
13403TIP3   OH240151   2.382   5.305   0.469
13403TIP3    H140152   2.291   5.286   0.448
13403TIP3    H240153   2.404   5.242   0.538
13404TIP3   OH240154   1.963   0.170   1.418
13404TIP3    H140155   1.888   0.227   1.403
13404TIP3    H240156   1.940   0.088   1.373
13405TIP3   OH240157   0.773   7.351   0.716
13405TIP3    H140158   0.846   7.326   0.772
13405TIP3    H240159   0.713   7.399   0.774
13406TIP3   OH240160   0.653   6.002   1.512
13406TIP3    H140161   0.730   6.052   1.538
13406TIP3    H240162   0.586   6.026   1.575
13407TIP3   OH240163   7.050   5.658   5.707
13407TIP3    H140164   7.081   5.642   5.618
13407TIP3    H240165   7.059   5.753   5.719
13408TIP3   OH240166   4.535   6.903   1.982
13408TIP3    H140167   4.586   6.841   1.930
13408TIP3    H240168   4.444   6.884   1.959
13409TIP3   OH240169   6.555   5.895   0.955
13409TIP3    H140170   6.613   5.868   1.026
13409TIP3    H240171   6.613   5.928   0.887
13410TIP3   OH240172   1.801   1.962   5.246
13410TIP3    H140173   1.846   2.044   5.267
13410TIP3    H240174   1.860   1.893   5.278
13411TIP3   OH240175   3.061   0.225   5.486
13411TIP3    H140176   3.144   0.180   5.503
13411TIP3    H240177   3.081   0.288   5.417
13412TIP3   OH240178   2.946   4.735   0.403
13412TIP3    H140179   3.001   4.659   0.420
13412TIP3    H240180   2.950   4.747   0.308
13413TIP3   OH240181   1.706   1.311   5.631
13413TIP3    H140182   1.666   1.224   5.633
13413TIP3    H240183   1.632   1.371   5.637
13414TIP3   OH240184   6.507   2.693   2.815
13414TIP3    H140185   6.593   2.717   2.782
13414TIP3    H240186   6.510   2.713   2.909
13415TIP3   OH240187   1.307   7.571   2.332
13415TIP3    H140188   1.279   7.605   2.246
13415TIP3    H240189   1.289   7.477   2.327
13416TIP3   OH240190   6.410   7.728   5.923
13416TIP3    H140191   6.402   7.632   5.926
13416TIP3    H240192   6.432   7.748   5.832
13417TIP3   OH240193   8.101   0.892   4.749
13417TIP3    H140194   8.193   0.891   4.775
13417TIP3    H240195   8.093   0.969   4.693
13418TIP3   OH240196   5.068   5.326   2.019
13418TIP3    H140197   5.057   5.411   1.975
13418TIP3    H240198   4.981   5.303   2.050
13419TIP3   OH240199   8.300   0.645   3.880
13419TIP3    H140200   8.217   0.680   3.847
13419TIP3    H240201   8.278   0.604   3.964
13420TIP3   OH240202   5.740   5.041   4.085
13420TIP3    H140203   5.667   4.981   4.073
13420TIP3    H240204   5.770   5.062   3.996
13421TIP3   OH240205   2.106   0.777   3.417
13421TIP3    H140206   2.048   0.853   3.411
13421TIP3    H240207   2.123   0.753   3.326
13422TIP3   OH240208   6.364   5.480   5.796
13422TIP3    H140209   6.439   5.461   5.852
13422TIP3    H240210   6.289   5.483   5.856
13423TIP3   OH240211   1.762   2.608   1.285
13423TIP3    H140212   1.692   2.552   1.251
13423TIP3    H240213   1.728   2.697   1.276
13424TIP3   OH240214   3.212   5.274   3.826
13424TIP3    H140215   3.231   5.358   3.784
13424TIP3    H240216   3.260   5.209   3.775
13425TIP3   OH240217   6.281   0.752   0.240
13425TIP3    H140218   6.199   0.719   0.278
13425TIP3    H240219   6.339   0.677   0.239
13426TIP3   OH240220   2.863   3.878   4.466
13426TIP3    H140221   2.814   3.823   4.526
13426TIP3    H240222   2.818   3.962   4.467
13427TIP3   OH240223   7.976   2.379   6.703
13427TIP3    H140224   8.020   2.394   6.787
13427TIP3    H240225   8.001   2.453   6.649
13428TIP3   OH240226   5.151   4.997   2.803
13428TIP3    H140227   5.243   4.969   2.799
13428TIP3    H240228   5.101   4.919   2.781
13429TIP3   OH240229   1.382   7.011   3.194
13429TIP3    H140230   1.350   7.008   3.284
13429TIP3    H240231   1.461   6.958   3.195
13430TIP3   OH240232   6.778   1.671   5.945
13430TIP3    H140233   6.765   1.763   5.920
13430TIP3    H240234   6.690   1.640   5.966
13431TIP3   OH240235   1.954   5.950   5.121
13431TIP3    H140236   1.877   5.983   5.074
13431TIP3    H240237   2.026   6.005   5.089
13432TIP3   OH240238   5.817   1.122   6.082
13432TIP3    H140239   5.821   1.051   6.146
13432TIP3    H240240   5.773   1.194   6.127
13433TIP3   OH240241   6.808   4.189   5.470
13433TIP3    H140242   6.755   4.114   5.442
13433TIP3    H240243   6.767   4.264   5.428
13434TIP3   OH240244   6.686   2.218   3.263
13434TIP3    H140245   6.774   2.251   3.246
13434TIP3    H240246   6.654   2.272   3.336
13435TIP3   OH240247   7.692   1.015   5.032
13435TIP3    H140248   7.694   1.004   5.127
13435TIP3    H240249   7.780   0.995   5.002
13436TIP3   OH240250   8.071   2.626   5.872
13436TIP3    H140251   8.013   2.597   5.943
13436TIP3    H240252   8.108   2.545   5.837
13437TIP3   OH240253   3.757   6.392   1.728
13437TIP3    H140254   3.673   6.406   1.683
13437TIP3    H240255   3.822   6.395   1.658
13438TIP3   OH240256   7.735   4.071   5.839
13438TIP3    H140257   7.648   4.034   5.826
13438TIP3    H240258   7.756   4.052   5.930
13439TIP3   OH240259   0.876   4.152   2.806
13439TIP3    H140260   0.901   4.226   2.750
13439TIP3    H240261   0.842   4.086   2.745
13440TIP3   OH240262   0.323   1.144   5.108
13440TIP3    H140263   0.263   1.101   5.170
13440TIP3    H240264   0.272   1.153   5.028
13441TIP3   OH240265   3.806   3.461   4.076
13441TIP3    H140266   3.899   3.477   4.062
13441TIP3    H240267   3.770   3.449   3.988
13442TIP3   OH240268   6.351   3.501   0.737
13442TIP3    H140269   6.412   3.532   0.804
13442TIP3    H240270   6.376   3.409   0.723
13443TIP3   OH240271   2.662   2.871   2.639
13443TIP3    H140272   2.738   2.821   2.669
13443TIP3    H240273   2.697   2.957   2.617
13444TIP3   OH240274   7.488   5.121   0.498
13444TIP3    H140275   7.401   5.150   0.470
13444TIP3    H240276   7.478   5.100   0.591
13445TIP3   OH240277   4.175   2.919   5.943
13445TIP3    H140278   4.172   2.845   6.003
13445TIP3    H240279   4.189   2.996   5.999
13446TIP3   OH240280   4.483   0.177   5.679
13446TIP3    H140281   4.558   0.169   5.621
13446TIP3    H240282   4.456   0.087   5.696
13447TIP3   OH240283   0.557   6.210   5.955
13447TIP3    H140284   0.541   6.257   5.873
13447TIP3    H240285   0.631   6.256   5.994
13448TIP3   OH240286   6.804   2.021   0.249
13448TIP3    H140287   6.843   2.015   0.336
13448TIP3    H240288   6.788   1.930   0.224
13449TIP3   OH240289   7.687   2.582   2.280
13449TIP3    H140290   7.729   2.541   2.357
13449TIP3    H240291   7.757   2.587   2.215
13450TIP3   OH240292   0.460   3.997   6.703
13450TIP3    H140293   0.534   3.955   6.746
13450TIP3    H240294   0.392   4.001   6.770
13451TIP3   OH240295   3.947   2.761   6.178
13451TIP3    H140296   4.012   2.719   6.121
13451TIP3    H240297   3.876   2.697   6.184
13452TIP3   OH240298   0.304   3.854   4.161
13452TIP3    H140299   0.209   3.845   4.169
13452TIP3    H240300   0.337   3.839   4.250
13453TIP3   OH240301   2.814   6.512   2.796
13453TIP3    H140302   2.797   6.487   2.887
13453TIP3    H240303   2.786   6.603   2.791
13454TIP3   OH240304   0.558   2.566   1.156
13454TIP3    H140305   0.569   2.563   1.251
13454TIP3    H240306   0.645   2.547   1.121
13455TIP3   OH240307   8.243   0.434   3.640
13455TIP3    H140308   8.152   0.409   3.657
13455TIP3    H240309   8.237   0.502   3.573
13456TIP3   OH240310   6.181   6.765   0.842
13456TIP3    H140311   6.230   6.724   0.771
13456TIP3    H240312   6.223   6.733   0.921
13457TIP3   OH240313   7.852   7.343   5.448
13457TIP3    H140314   7.935   7.316   5.408
13457TIP3    H240315   7.801   7.262   5.455
13458TIP3   OH240316   8.136   0.665   3.533
13458TIP3    H140317   8.089   0.710   3.463
13458TIP3    H240318   8.206   0.726   3.558
13459TIP3   OH240319   7.431   6.628   6.059
13459TIP3    H140320   7.365   6.570   6.097
13459TIP3    H240321   7.452   6.690   6.128
13460TIP3   OH240322   3.847   5.118   5.787
13460TIP3    H140323   3.869   5.168   5.708
13460TIP3    H240324   3.797   5.043   5.755
13461TIP3   OH240325   1.197   2.812   5.230
13461TIP3    H140326   1.185   2.874   5.158
13461TIP3    H240327   1.118   2.822   5.283
13462TIP3   OH240328   7.909   4.333   3.345
13462TIP3    H140329   7.940   4.273   3.277
13462TIP3    H240330   7.984   4.344   3.403
13463TIP3   OH240331   3.443   5.930   4.488
13463TIP3    H140332   3.413   6.008   4.535
13463TIP3    H240333   3.439   5.860   4.553
13464TIP3   OH240334   0.175   2.107   6.008
13464TIP3    H140335   0.126   2.176   6.053
13464TIP3    H240336   0.221   2.060   6.078
13465TIP3   OH240337   6.542   2.888   6.668
13465TIP3    H140338   6.460   2.914   6.627
13465TIP3    H240339   6.607   2.891   6.598
13466TIP3   OH240340   1.085   6.764   5.547
13466TIP3    H140341   1.031   6.693   5.512
13466TIP3    H240342   1.070   6.837   5.486
13467TIP3   OH240343   4.410   6.756   1.396
13467TIP3    H140344   4.397   6.838   1.443
13467TIP3    H240345   4.345   6.696   1.434
13468TIP3   OH240346   7.696   4.241   5.606
13468TIP3    H140347   7.750   4.217   5.682
13468TIP3    H240348   7.736   4.321   5.573
13469TIP3   OH240349   1.504   5.225   6.083
13469TIP3    H140350   1.548   5.303   6.119
13469TIP3    H240351   1.576   5.169   6.054
13470TIP3   OH240352   1.609   0.034   6.266
13470TIP3    H140353   1.550   0.030   6.340
13470TIP3    H240354   1.692  -0.001   6.299
13471TIP3   OH240355   1.486   7.204   4.942
13471TIP3    H140356   1.552   7.153   4.990
13471TIP3    H240357   1.462   7.149   4.868
13472TIP3   OH240358   5.806   0.901   1.215
13472TIP3    H140359   5.766   0.819   1.241
13472TIP3    H240360   5.789   0.908   1.121
13473TIP3   OH240361   7.020   1.023   6.280
13473TIP3    H140362   6.980   1.104   6.309
13473TIP3    H240363   7.065   0.989   6.357
13474TIP3   OH240364   2.974   6.914   0.191
13474TIP3    H140365   2.939   6.854   0.257
13474TIP3    H240366   2.897   6.942   0.141
13475TIP3   OH240367   8.021   5.459   2.642
13475TIP3    H140368   7.983   5.430   2.559
13475TIP3    H240369   8.114   5.436   2.635
13476TIP3   OH240370   3.711   7.775   0.819
13476TIP3    H140371   3.615   7.784   0.815
13476TIP3    H240372   3.732   7.710   0.752
13477TIP3   OH240373   2.150   0.382   4.436
13477TIP3    H140374   2.208   0.338   4.498
13477TIP3    H240375   2.184   0.359   4.350
13478TIP3   OH240376   2.897   1.796   3.431
13478TIP3    H140377   2.826   1.785   3.368
13478TIP3    H240378   2.873   1.740   3.505
13479TIP3   OH240379   7.711   3.626   0.382
13479TIP3    H140380   7.770   3.575   0.327
13479TIP3    H240381   7.733   3.717   0.363
13480TIP3   OH240382   6.894   1.763   4.649
13480TIP3    H140383   6.962   1.769   4.581
13480TIP3    H240384   6.824   1.821   4.617
13481TIP3   OH240385   4.667   5.789   2.617
13481TIP3    H140386   4.735   5.792   2.549
13481TIP3    H240387   4.629   5.876   2.617
13482TIP3   OH240388   2.081   1.443   6.155
13482TIP3    H140389   2.019   1.371   6.168
13482TIP3    H240390   2.029   1.522   6.168
13483TIP3   OH240391   4.068   5.360   0.496
13483TIP3    H140392   4.109   5.275   0.482
13483TIP3    H240393   3.991   5.359   0.439
13484TIP3   OH240394   3.484   3.632   6.021
13484TIP3    H140395   3.525   3.714   5.992
13484TIP3    H240396   3.408   3.660   6.072
13485TIP3   OH240397   3.616   6.189   1.928
13485TIP3    H140398   3.701   6.163   1.962
13485TIP3    H240399   3.622   6.284   1.918
13486TIP3   OH240400   2.628   2.436   5.575
13486TIP3    H140401   2.601   2.442   5.483
13486TIP3    H240402   2.556   2.390   5.618
13487TIP3   OH240403   1.633   3.788   0.386
13487TIP3    H140404   1.660   3.754   0.300
13487TIP3    H240405   1.577   3.863   0.366
13488TIP3   OH240406   4.570   3.314   5.735
13488TIP3    H140407   4.518   3.309   5.815
13488TIP3    H240408   4.660   3.323   5.765
13489TIP3   OH240409   5.560   7.495   0.522
13489TIP3    H140410   5.556   7.521   0.430
13489TIP3    H240411   5.643   7.448   0.530
13490TIP3   OH240412   3.950   0.329   3.472
13490TIP3    H140413   3.895   0.320   3.394
13490TIP3    H240414   3.930   0.416   3.505
13491TIP3   OH240415   6.366   2.094   1.656
13491TIP3    H140416   6.345   2.046   1.576
13491TIP3    H240417   6.391   2.027   1.719
13492TIP3   OH240418   6.009   4.257   3.091
13492TIP3    H140419   6.067   4.197   3.138
13492TIP3    H240420   5.921   4.229   3.115
13493TIP3   OH240421   2.756   7.601   0.637
13493TIP3    H140422   2.768   7.513   0.673
13493TIP3    H240423   2.694   7.644   0.696
13494TIP3   OH240424   1.717   6.818   4.217
13494TIP3    H140425   1.805   6.814   4.254
13494TIP3    H240426   1.686   6.906   4.237
13495TIP3   OH240427   2.048   0.377   1.938
13495TIP3    H140428   2.087   0.464   1.948
13495TIP3    H240429   1.957   0.389   1.966
13496TIP3   OH240430   1.065   2.679   1.164
13496TIP3    H140431   1.048   2.714   1.077
13496TIP3    H240432   1.045   2.585   1.157
13497TIP3   OH240433   7.181   3.376   5.475
13497TIP3    H140434   7.261   3.325   5.475
13497TIP3    H240435   7.141   3.359   5.389
13498TIP3   OH240436   6.673   5.522   4.927
13498TIP3    H140437   6.746   5.575   4.960
13498TIP3    H240438   6.713   5.466   4.861
13499TIP3   OH240439   2.629   7.039   3.899
13499TIP3    H140440   2.598   7.118   3.855
13499TIP3    H240441   2.667   6.986   3.829
13500TIP3   OH240442   6.634   5.743   6.640
13500TIP3    H140443   6.716   5.722   6.686
13500TIP3    H240444   6.622   5.670   6.580
13501TIP3   OH240445   2.980   1.848   2.448
13501TIP3    H140446   2.928   1.850   2.529
13501TIP3    H240447   3.029   1.929   2.448
13502TIP3   OH240448   6.037   0.329   2.153
13502TIP3    H140449   6.068   0.245   2.186
13502TIP3    H240450   6.086   0.343   2.073
13503TIP3   OH240451   4.051   4.452   2.507
13503TIP3    H140452   4.012   4.483   2.426
13503TIP3    H240453   4.055   4.529   2.563
13504TIP3   OH240454   0.767   6.339   1.257
13504TIP3    H140455   0.751   6.390   1.336
13504TIP3    H240456   0.782   6.250   1.288
13505TIP3   OH240457   4.400   2.118   3.445
13505TIP3    H140458   4.400   2.201   3.493
13505TIP3    H240459   4.326   2.069   3.480
13506TIP3   OH240460   4.492   4.975   1.724
13506TIP3    H140461   4.459   4.912   1.787
13506TIP3    H240462   4.415   5.024   1.695
13507TIP3   OH240463   3.117   1.408   2.054
13507TIP3    H140464   3.042   1.398   1.997
13507TIP3    H240465   3.134   1.503   2.054
13508TIP3   OH240466   1.927   1.152   5.320
13508TIP3    H140467   1.945   1.129   5.229
13508TIP3    H240468   2.003   1.204   5.347
13509TIP3   OH240469   3.803   5.679   0.120
13509TIP3    H140470   3.892   5.698   0.092
13509TIP3    H240471   3.784   5.593   0.082
13510TIP3   OH240472   2.272   2.130   1.938
13510TIP3    H140473   2.226   2.203   1.979
13510TIP3    H240474   2.333   2.172   1.877
13511TIP3   OH240475   7.752   3.611   3.835
13511TIP3    H140476   7.791   3.529   3.866
13511TIP3    H240477   7.791   3.625   3.749
13512TIP3   OH240478   1.556   2.205   2.268
13512TIP3    H140479   1.609   2.251   2.203
13512TIP3    H240480   1.573   2.250   2.351
13513TIP3   OH240481   4.270   2.444   1.431
13513TIP3    H140482   4.233   2.447   1.343
13513TIP3    H240483   4.203   2.400   1.483
13514TIP3   OH240484   3.807   6.686   0.230
13514TIP3    H140485   3.888   6.703   0.278
13514TIP3    H240486   3.768   6.773   0.218
13515TIP3   OH240487   6.719   0.505   2.831
13515TIP3    H140488   6.739   0.501   2.738
13515TIP3    H240489   6.643   0.447   2.842
13516TIP3   OH240490   5.099   4.387   6.479
13516TIP3    H140491   5.170   4.330   6.509
13516TIP3    H240492   5.019   4.343   6.507
13517TIP3   OH240493   5.317   3.443   1.945
13517TIP3    H140494   5.405   3.453   1.980
13517TIP3    H240495   5.270   3.522   1.971
13518TIP3   OH240496   1.899   7.689   3.838
13518TIP3    H140497   1.878   7.645   3.755
13518TIP3    H240498   1.988   7.723   3.825
13519TIP3   OH240499   7.801   3.857   5.430
13519TIP3    H140500   7.761   3.800   5.496
13519TIP3    H240501   7.802   3.943   5.470
13520TIP3   OH240502   0.460   7.229   0.629
13520TIP3    H140503   0.529   7.272   0.679
13520TIP3    H240504   0.493   7.226   0.540
13521TIP3   OH240505   6.629   1.981   3.194
13521TIP3    H140506   6.599   1.935   3.272
13521TIP3    H240507   6.627   2.073   3.218
13522TIP3   OH240508   0.094   4.687   1.286
13522TIP3    H140509   0.085   4.692   1.381
13522TIP3    H240510   0.151   4.612   1.271
13523TIP3   OH240511   3.742   2.713   5.613
13523TIP3    H140512   3.747   2.733   5.519
13523TIP3    H240513   3.691   2.632   5.616
13524TIP3   OH240514   4.407   2.396   5.440
13524TIP3    H140515   4.383   2.333   5.508
13524TIP3    H240516   4.347   2.469   5.453
13525TIP3   OH240517   2.772   1.259   4.756
13525TIP3    H140518   2.773   1.329   4.691
13525TIP3    H240519   2.864   1.235   4.767
13526TIP3   OH240520   3.601   0.614   0.097
13526TIP3    H140521   3.660   0.616   0.022
13526TIP3    H240522   3.642   0.551   0.157
13527TIP3   OH240523   2.144   5.352   2.700
13527TIP3    H140524   2.182   5.299   2.770
13527TIP3    H240525   2.049   5.344   2.714
13528TIP3   OH240526   1.885   3.867   5.183
13528TIP3    H140527   1.957   3.826   5.135
13528TIP3    H240528   1.811   3.864   5.123
13529TIP3   OH240529   5.185   2.067   6.110
13529TIP3    H140530   5.116   2.001   6.115
13529TIP3    H240531   5.214   2.079   6.201
13530TIP3   OH240532   2.347   0.827   3.554
13530TIP3    H140533   2.333   0.790   3.640
13530TIP3    H240534   2.273   0.798   3.502
13531TIP3   OH240535   1.153   6.105   2.364
13531TIP3    H140536   1.146   6.200   2.369
13531TIP3    H240537   1.189   6.079   2.448
13532TIP3   OH240538   6.261   5.243   2.744
13532TIP3    H140539   6.232   5.330   2.716
13532TIP3    H240540   6.335   5.223   2.687
13533TIP3   OH240541   0.543   1.909   4.342
13533TIP3    H140542   0.621   1.919   4.398
13533TIP3    H240543   0.502   1.996   4.344
13534TIP3   OH240544   3.640   6.649   0.505
13534TIP3    H140545   3.661   6.739   0.530
13534TIP3    H240546   3.546   6.642   0.518
13535TIP3   OH240547   7.438   5.098   4.022
13535TIP3    H140548   7.368   5.107   3.957
13535TIP3    H240549   7.438   5.182   4.068
13536TIP3   OH240550   7.403   3.790   3.867
13536TIP3    H140551   7.394   3.878   3.832
13536TIP3    H240552   7.439   3.739   3.794
13537TIP3   OH240553   7.183   6.324   1.310
13537TIP3    H140554   7.181   6.370   1.394
13537TIP3    H240555   7.160   6.234   1.332
13538TIP3   OH240556   4.490   1.301   5.707
13538TIP3    H140557   4.563   1.335   5.759
13538TIP3    H240558   4.520   1.309   5.616
13539TIP3   OH240559   0.053   1.465   0.151
13539TIP3    H140560   0.004   1.546   0.170
13539TIP3    H240561   0.001   1.421   0.084
13540TIP3   OH240562   4.118   1.508   6.346
13540TIP3    H140563   4.080   1.448   6.410
13540TIP3    H240564   4.134   1.455   6.268
13541TIP3   OH240565   3.862   0.039   2.559
13541TIP3    H140566   3.919   0.066   2.487
13541TIP3    H240567   3.812   0.118   2.580
13542TIP3   OH240568   1.459   5.760   2.881
13542TIP3    H140569   1.422   5.848   2.889
13542TIP3    H240570   1.424   5.712   2.956
13543TIP3   OH240571   0.260   5.939   2.457
13543TIP3    H140572   0.200   5.890   2.401
13543TIP3    H240573   0.209   6.014   2.487
13544TIP3   OH240574   3.488   2.980   1.518
13544TIP3    H140575   3.528   3.036   1.451
13544TIP3    H240576   3.394   2.999   1.511
13545TIP3   OH240577   5.070   1.504   3.842
13545TIP3    H140578   5.077   1.422   3.794
13545TIP3    H240579   4.996   1.549   3.801
13546TIP3   OH240580   3.836   2.464   0.469
13546TIP3    H140581   3.877   2.478   0.384
13546TIP3    H240582   3.854   2.373   0.490
13547TIP3   OH240583   4.517   0.997   0.970
13547TIP3    H140584   4.539   1.070   1.028
13547TIP3    H240585   4.433   0.965   1.002
13548TIP3   OH240586   4.012   2.029   1.368
13548TIP3    H140587   3.970   2.002   1.450
13548TIP3    H240588   4.087   1.969   1.359
13549TIP3   OH240589   0.271   1.905   4.623
13549TIP3    H140590   0.296   1.997   4.613
13549TIP3    H240591   0.217   1.886   4.545
13550TIP3   OH240592   8.042   6.329   6.680
13550TIP3    H140593   8.061   6.279   6.600
13550TIP3    H240594   8.029   6.419   6.649
13551TIP3   OH240595   2.365   3.240   4.197
13551TIP3    H140596   2.421   3.256   4.120
13551TIP3    H240597   2.426   3.211   4.265
13552TIP3   OH240598   7.007   1.072   1.536
13552TIP3    H140599   7.049   1.029   1.462
13552TIP3    H240600   6.916   1.083   1.509
13553TIP3   OH240601   6.621   7.478   4.193
13553TIP3    H140602   6.683   7.521   4.134
13553TIP3    H240603   6.658   7.490   4.280
13554TIP3   OH240604   7.230   7.024   2.403
13554TIP3    H140605   7.186   7.109   2.405
13554TIP3    H240606   7.269   7.015   2.490
13555TIP3   OH240607   1.384   7.541   3.334
13555TIP3    H140608   1.312   7.592   3.296
13555TIP3    H240609   1.365   7.451   3.310
13556TIP3   OH240610   4.203   1.566   1.265
13556TIP3    H140611   4.286   1.604   1.237
13556TIP3    H240612   4.206   1.570   1.361
13557TIP3   OH240613   1.412   2.954   6.323
13557TIP3    H140614   1.423   3.007   6.402
13557TIP3    H240615   1.373   3.013   6.259
13558TIP3   OH240616   6.640   3.511   0.573
13558TIP3    H140617   6.555   3.513   0.615
13558TIP3    H240618   6.699   3.554   0.635
13559TIP3   OH240619   4.829   0.766   2.421
13559TIP3    H140620   4.759   0.741   2.481
13559TIP3    H240621   4.882   0.828   2.471
13560TIP3   OH240622   7.569   4.133   0.444
13560TIP3    H140623   7.560   4.113   0.350
13560TIP3    H240624   7.481   4.160   0.471
13561TIP3   OH240625   5.810   2.862   2.311
13561TIP3    H140626   5.809   2.931   2.377
13561TIP3    H240627   5.748   2.891   2.245
13562TIP3   OH240628   1.088   0.473   4.373
13562TIP3    H140629   1.144   0.397   4.355
13562TIP3    H240630   1.148   0.545   4.386
13563TIP3   OH240631   5.960   6.531   5.541
13563TIP3    H140632   5.931   6.620   5.564
13563TIP3    H240633   6.054   6.540   5.527
13564TIP3   OH240634   4.294   4.829   4.693
13564TIP3    H140635   4.335   4.767   4.752
13564TIP3    H240636   4.350   4.829   4.615
13565TIP3   OH240637   6.083   1.227   2.534
13565TIP3    H140638   6.031   1.293   2.579
13565TIP3    H240639   6.128   1.179   2.604
13566TIP3   OH240640   0.514   7.188   5.606
13566TIP3    H140641   0.488   7.137   5.529
13566TIP3    H240642   0.531   7.123   5.674
13567TIP3   OH240643   7.123   2.192   1.446
13567TIP3    H140644   7.141   2.121   1.507
13567TIP3    H240645   7.065   2.251   1.493
13568TIP3   OH240646   6.081   1.401   1.204
13568TIP3    H140647   6.156   1.367   1.252
13568TIP3    H240648   6.058   1.332   1.142
13569TIP3   OH240649   1.093   1.512   3.698
13569TIP3    H140650   1.123   1.433   3.743
13569TIP3    H240651   1.007   1.489   3.664
13570TIP3   OH240652   1.166   3.585   4.512
13570TIP3    H140653   1.217   3.652   4.556
13570TIP3    H240654   1.111   3.548   4.582
13571TIP3   OH240655   5.164   1.423   0.056
13571TIP3    H140656   5.224   1.489   0.092
13571TIP3    H240657   5.212   1.340   0.064
13572TIP3   OH240658   2.597   5.777   0.785
13572TIP3    H140659   2.593   5.868   0.814
13572TIP3    H240660   2.615   5.727   0.864
13573TIP3   OH240661   0.538   2.969   5.803
13573TIP3    H140662   0.483   3.041   5.833
13573TIP3    H240663   0.481   2.918   5.746
13574TIP3   OH240664   2.393   4.385   6.636
13574TIP3    H140665   2.459   4.402   6.703
13574TIP3    H240666   2.313   4.426   6.669
13575TIP3   OH240667   0.083   6.458   6.586
13575TIP3    H140668   0.030   6.385   6.554
13575TIP3    H240669   0.172   6.437   6.558
13576TIP3   OH240670   5.912   1.593   5.843
13576TIP3    H140671   5.878   1.515   5.800
13576TIP3    H240672   5.889   1.665   5.783
13577TIP3   OH240673   0.572   1.847   1.711
13577TIP3    H140674   0.500   1.842   1.649
13577TIP3    H240675   0.604   1.757   1.718
13578TIP3   OH240676   4.062   2.619   5.568
13578TIP3    H140677   4.121   2.606   5.643
13578TIP3    H240678   4.004   2.544   5.570
13579TIP3   OH240679   4.081   3.292   2.348
13579TIP3    H140680   4.056   3.324   2.261
13579TIP3    H240681   4.170   3.326   2.361
13580TIP3   OH240682   7.796   2.139   6.386
13580TIP3    H140683   7.799   2.134   6.482
13580TIP3    H240684   7.718   2.191   6.367
13581TIP3   OH240685   0.942   3.095   0.289
13581TIP3    H140686   1.020   3.120   0.338
13581TIP3    H240687   0.915   3.011   0.327
13582TIP3   OH240688   6.306   4.428   5.464
13582TIP3    H140689   6.252   4.427   5.543
13582TIP3    H240690   6.374   4.492   5.482
13583TIP3   OH240691   6.533   0.300   2.878
13583TIP3    H140692   6.509   0.219   2.833
13583TIP3    H240693   6.515   0.282   2.970
13584TIP3   OH240694   1.268   2.182   5.008
13584TIP3    H140695   1.224   2.231   4.938
13584TIP3    H240696   1.334   2.130   4.963
13585TIP3   OH240697   1.654   5.780   4.177
13585TIP3    H140698   1.646   5.742   4.089
13585TIP3    H240699   1.670   5.705   4.234
13586TIP3   OH240700   5.758   7.212   6.215
13586TIP3    H140701   5.829   7.149   6.227
13586TIP3    H240702   5.678   7.162   6.229
13587TIP3   OH240703   6.212   0.888   5.794
13587TIP3    H140704   6.230   0.808   5.745
13587TIP3    H240705   6.182   0.950   5.728
13588TIP3   OH240706   5.063   3.762   3.605
13588TIP3    H140707   5.145   3.803   3.578
13588TIP3    H240708   5.042   3.803   3.690
13589TIP3   OH240709   6.096   7.554   2.153
13589TIP3    H140710   6.171   7.564   2.094
13589TIP3    H240711   6.019   7.562   2.096
13590TIP3   OH240712   5.239   6.798   1.406
13590TIP3    H140713   5.244   6.849   1.487
13590TIP3    H240714   5.251   6.863   1.337
13591TIP3   OH240715   2.095   7.501   6.366
13591TIP3    H140716   2.132   7.412   6.364
13591TIP3    H240717   2.089   7.526   6.274
13592TIP3   OH240718   2.137   4.185   6.429
13592TIP3    H140719   2.219   4.214   6.389
13592TIP3    H240720   2.071   4.194   6.360
13593TIP3   OH240721   0.471   7.379   0.108
13593TIP3    H140722   0.466   7.473   0.092
13593TIP3    H240723   0.550   7.368   0.161
13594TIP3   OH240724   7.590   5.989   3.276
13594TIP3    H140725   7.577   5.927   3.348
13594TIP3    H240726   7.654   5.946   3.219
13595TIP3   OH240727   4.550   6.772   1.734
13595TIP3    H140728   4.497   6.816   1.667
13595TIP3    H240729   4.562   6.683   1.701
13596TIP3   OH240730   2.677   3.325   2.542
13596TIP3    H140731   2.602   3.317   2.601
13596TIP3    H240732   2.638   3.349   2.457
13597TIP3   OH240733   4.782   3.403   5.978
13597TIP3    H140734   4.708   3.403   6.039
13597TIP3    H240735   4.839   3.472   6.010
13598TIP3   OH240736   0.997   1.242   4.884
13598TIP3    H140737   0.958   1.179   4.944
13598TIP3    H240738   1.070   1.195   4.844
13599TIP3   OH240739   2.609   0.088   0.520
13599TIP3    H140740   2.669   0.162   0.522
13599TIP3    H240741   2.544   0.109   0.587
13600TIP3   OH240742   3.777   1.140   6.515
13600TIP3    H140743   3.703   1.197   6.496
13600TIP3    H240744   3.737   1.057   6.541
13601TIP3   OH240745   3.192   6.422   2.390
13601TIP3    H140746   3.130   6.360   2.354
13601TIP3    H240747   3.151   6.453   2.470
13602TIP3   OH240748   5.861   7.504   0.251
13602TIP3    H140749   5.860   7.570   0.320
13602TIP3    H240750   5.841   7.552   0.171
13603TIP3   OH240751   0.887   4.640   2.231
13603TIP3    H140752   0.875   4.721   2.279
13603TIP3    H240753   0.852   4.572   2.289
13604TIP3   OH240754   6.402   2.499   3.726
13604TIP3    H140755   6.483   2.539   3.693
13604TIP3    H240756   6.422   2.406   3.731
13605TIP3   OH240757   1.656   0.376   3.521
13605TIP3    H140758   1.583   0.391   3.462
13605TIP3    H240759   1.727   0.430   3.486
13606TIP3   OH240760   4.539   3.265   4.714
13606TIP3    H140761   4.589   3.316   4.650
13606TIP3    H240762   4.606   3.223   4.768
13607TIP3   OH240763   5.760   5.678   1.991
13607TIP3    H140764   5.711   5.598   1.970
13607TIP3    H240765   5.842   5.668   1.944
13608TIP3   OH240766   7.626   2.179   4.751
13608TIP3    H140767   7.567   2.252   4.767
13608TIP3    H240768   7.698   2.217   4.701
13609TIP3   OH240769   7.327   5.010   1.625
13609TIP3    H140770   7.279   5.050   1.698
13609TIP3    H240771   7.269   4.941   1.593
13610TIP3   OH240772   5.700   2.937   5.403
13610TIP3    H140773   5.725   2.979   5.485
13610TIP3    H240774   5.680   3.010   5.344
13611TIP3   OH240775   6.058   3.079   4.590
13611TIP3    H140776   6.071   3.153   4.649
13611TIP3    H240777   5.968   3.088   4.560
13612TIP3   OH240778   2.317   0.450   4.744
13612TIP3    H140779   2.347   0.388   4.678
13612TIP3    H240780   2.306   0.533   4.696
13613TIP3   OH240781   0.230   4.617   3.242
13613TIP3    H140782   0.244   4.531   3.202
13613TIP3    H240783   0.244   4.602   3.336
13614TIP3   OH240784   7.243   2.816   1.247
13614TIP3    H140785   7.239   2.728   1.284
13614TIP3    H240786   7.178   2.866   1.295
13615TIP3   OH240787   5.534   2.023   2.700
13615TIP3    H140788   5.563   1.935   2.724
13615TIP3    H240789   5.584   2.044   2.621
13616TIP3   OH240790   2.659   5.638   1.025
13616TIP3    H140791   2.681   5.545   1.023
13616TIP3    H240792   2.728   5.678   1.078
13617TIP3   OH240793   5.165   6.772   6.262
13617TIP3    H140794   5.189   6.855   6.221
13617TIP3    H240795   5.088   6.742   6.213
13618TIP3   OH240796   5.760   7.039   6.608
13618TIP3    H140797   5.749   7.068   6.698
13618TIP3    H240798   5.780   7.119   6.559
13619TIP3   OH240799   0.109   3.694   3.915
13619TIP3    H140800   0.137   3.665   4.002
13619TIP3    H240801   0.184   3.675   3.858
13620TIP3   OH240802   8.028   0.812   6.655
13620TIP3    H140803   7.956   0.869   6.682
13620TIP3    H240804   8.005   0.726   6.689
13621TIP3   OH240805   0.049   2.737   6.271
13621TIP3    H140806   0.087   2.824   6.257
13621TIP3    H240807   0.058   2.693   6.186
13622TIP3   OH240808   2.498   3.420   2.340
13622TIP3    H140809   2.507   3.444   2.248
13622TIP3    H240810   2.459   3.496   2.381
13623TIP3   OH240811   5.692   6.518   4.641
13623TIP3    H140812   5.743   6.445   4.605
13623TIP3    H240813   5.724   6.527   4.731
13624TIP3   OH240814   1.638   2.626   0.997
13624TIP3    H140815   1.693   2.623   0.919
13624TIP3    H240816   1.609   2.717   1.002
13625TIP3   OH240817   3.363   7.172   3.564
13625TIP3    H140818   3.395   7.244   3.510
13625TIP3    H240819   3.378   7.093   3.513
13626TIP3   OH240820   6.443   6.261   6.183
13626TIP3    H140821   6.490   6.247   6.100
13626TIP3    H240822   6.380   6.190   6.187
13627TIP3   OH240823   6.145   4.363   5.259
13627TIP3    H140824   6.216   4.388   5.318
13627TIP3    H240825   6.149   4.427   5.188
13628TIP3   OH240826   2.973   3.766   5.053
13628TIP3    H140827   2.988   3.780   5.146
13628TIP3    H240828   3.036   3.824   5.010
13629TIP3   OH240829   2.883   4.050   5.282
13629TIP3    H140830   2.797   4.054   5.324
13629TIP3    H240831   2.940   4.010   5.347
13630TIP3   OH240832   2.929   7.494   0.135
13630TIP3    H140833   2.905   7.551   0.208
13630TIP3    H240834   2.902   7.406   0.162
13631TIP3   OH240835   3.107   2.226   5.765
13631TIP3    H140836   3.025   2.276   5.768
13631TIP3    H240837   3.112   2.183   5.850
13632TIP3   OH240838   8.176   4.147   0.488
13632TIP3    H140839   8.104   4.206   0.464
13632TIP3    H240840   8.255   4.197   0.468
13633TIP3   OH240841   2.408   0.095   0.721
13633TIP3    H140842   2.375   0.151   0.791
13633TIP3    H240843   2.345   0.023   0.717
13634TIP3   OH240844   7.055   3.742   3.967
13634TIP3    H140845   7.032   3.809   3.902
13634TIP3    H240846   6.970   3.706   3.994
13635TIP3   OH240847   0.340   2.000   3.312
13635TIP3    H140848   0.431   2.008   3.342
13635TIP3    H240849   0.332   2.067   3.245
13636TIP3   OH240850   6.569   4.222   5.897
13636TIP3    H140851   6.653   4.189   5.928
13636TIP3    H240852   6.566   4.313   5.926
13637TIP3   OH240853   2.051   1.910   3.050
13637TIP3    H140854   2.133   1.882   3.011
13637TIP3    H240855   2.055   1.880   3.140
13638TIP3   OH240856   0.516   6.238   3.527
13638TIP3    H140857   0.445   6.297   3.552
13638TIP3    H240858   0.596   6.288   3.542
13639TIP3   OH240859   4.503   3.254   2.731
13639TIP3    H140860   4.447   3.217   2.663
13639TIP3    H240861   4.464   3.225   2.814
13640TIP3   OH240862   2.010   1.454   2.372
13640TIP3    H140863   1.994   1.485   2.461
13640TIP3    H240864   2.089   1.399   2.380
13641TIP3   OH240865   0.882   1.952   5.811
13641TIP3    H140866   0.833   1.971   5.891
13641TIP3    H240867   0.864   1.860   5.793
13642TIP3   OH240868   0.334   6.804   2.913
13642TIP3    H140869   0.365   6.825   3.001
13642TIP3    H240870   0.413   6.791   2.861
13643TIP3   OH240871   0.198   2.856   4.397
13643TIP3    H140872   0.205   2.930   4.457
13643TIP3    H240873   0.275   2.863   4.340
13644TIP3   OH240874   5.892   3.204   6.372
13644TIP3    H140875   5.813   3.235   6.327
13644TIP3    H240876   5.891   3.248   6.456
13645TIP3   OH240877   1.000   7.271   6.017
13645TIP3    H140878   1.008   7.270   6.112
13645TIP3    H240879   0.915   7.230   6.000
13646TIP3   OH240880   1.622   3.435   6.182
13646TIP3    H140881   1.712   3.445   6.151
13646TIP3    H240882   1.627   3.451   6.276
13647TIP3   OH240883   0.302   2.602   0.227
13647TIP3    H140884   0.373   2.655   0.262
13647TIP3    H240885   0.334   2.512   0.232
13648TIP3   OH240886   2.205   6.888   1.636
13648TIP3    H140887   2.222   6.932   1.553
13648TIP3    H240888   2.253   6.805   1.629
13649TIP3   OH240889   7.244   5.330   1.050
13649TIP3    H140890   7.304   5.397   1.018
13649TIP3    H240891   7.192   5.374   1.117
13650TIP3   OH240892   0.150   7.378   1.454
13650TIP3    H140893   0.230   7.368   1.403
13650TIP3    H240894   0.178   7.362   1.544
13651TIP3   OH240895   2.557   4.291   3.821
13651TIP3    H140896   2.639   4.336   3.803
13651TIP3    H240897   2.546   4.298   3.916
13652TIP3   OH240898   8.274   0.298   5.118
13652TIP3    H140899   8.317   0.233   5.175
13652TIP3    H240900   8.233   0.359   5.179
13653TIP3   OH240901   4.152   5.093   4.016
13653TIP3    H140902   4.105   5.097   3.932
13653TIP3    H240903   4.133   5.177   4.057
13654TIP3   OH240904   1.115   3.594   4.199
13654TIP3    H140905   1.034   3.598   4.149
13654TIP3    H240906   1.088   3.574   4.289
13655TIP3   OH240907   2.210   2.580   0.926
13655TIP3    H140908   2.294   2.626   0.933
13655TIP3    H240909   2.201   2.532   1.008
13656TIP3   OH240910   2.725   1.999   4.547
13656TIP3    H140911   2.759   1.916   4.583
13656TIP3    H240912   2.740   2.063   4.617
13657TIP3   OH240913   6.901   4.778   5.746
13657TIP3    H140914   6.860   4.820   5.821
13657TIP3    H240915   6.983   4.742   5.779
13658TIP3   OH240916   3.824   5.449   5.440
13658TIP3    H140917   3.889   5.417   5.503
13658TIP3    H240918   3.781   5.369   5.408
13659TIP3   OH240919   3.234   1.923   3.406
13659TIP3    H140920   3.272   1.966   3.329
13659TIP3    H240921   3.153   1.972   3.423
13660TIP3   OH240922   5.910   4.070   1.534
13660TIP3    H140923   5.916   3.977   1.554
13660TIP3    H240924   5.985   4.086   1.476
13661TIP3   OH240925   7.999   6.692   4.858
13661TIP3    H140926   8.043   6.612   4.885
13661TIP3    H240927   7.907   6.667   4.846
13662TIP3   OH240928   5.929   3.746   6.350
13662TIP3    H140929   5.911   3.783   6.264
13662TIP3    H240930   5.851   3.765   6.402
13663TIP3   OH240931   7.122   7.564   3.097
13663TIP3    H140932   7.060   7.551   3.168
13663TIP3    H240933   7.106   7.491   3.037
13664TIP3   OH240934   3.525   6.757   1.367
13664TIP3    H140935   3.557   6.847   1.374
13664TIP3    H240936   3.437   6.765   1.330
13665TIP3   OH240937   3.238   1.656   5.702
13665TIP3    H140938   3.256   1.562   5.690
13665TIP3    H240939   3.200   1.684   5.619
13666TIP3   OH240940   7.563   7.648   5.164
13666TIP3    H140941   7.567   7.578   5.099
13666TIP3    H240942   7.504   7.615   5.231
13667TIP3   OH240943   8.243   2.666   1.369
13667TIP3    H140944   8.291   2.694   1.447
13667TIP3    H240945   8.277   2.721   1.299
13668TIP3   OH240946   2.658   1.270   1.818
13668TIP3    H140947   2.626   1.294   1.905
13668TIP3    H240948   2.592   1.211   1.783
13669TIP3   OH240949   7.256   0.194   2.230
13669TIP3    H140950   7.244   0.286   2.255
13669TIP3    H240951   7.221   0.189   2.141
13670TIP3   OH240952   2.533   0.981   5.188
13670TIP3    H140953   2.500   0.934   5.264
13670TIP3    H240954   2.506   0.928   5.112
13671TIP3   OH240955   0.480   5.101   1.922
13671TIP3    H140956   0.398   5.057   1.942
13671TIP3    H240957   0.548   5.041   1.954
13672TIP3   OH240958   7.726   0.425   5.135
13672TIP3    H140959   7.634   0.403   5.141
13672TIP3    H240960   7.730   0.499   5.074
13673TIP3   OH240961   7.799   3.998   6.109
13673TIP3    H140962   7.749   4.031   6.183
13673TIP3    H240963   7.798   3.903   6.120
13674TIP3   OH240964   0.215   2.223   5.386
13674TIP3    H140965   0.303   2.194   5.407
13674TIP3    H240966   0.226   2.311   5.351
13675TIP3   OH240967   1.719   0.476   2.955
13675TIP3    H140968   1.652   0.536   2.987
13675TIP3    H240969   1.698   0.392   2.996
13676TIP3   OH240970   7.857   4.338   1.340
13676TIP3    H140971   7.779   4.352   1.394
13676TIP3    H240972   7.929   4.370   1.394
13677TIP3   OH240973   7.328   2.873   5.474
13677TIP3    H140974   7.415   2.902   5.450
13677TIP3    H240975   7.302   2.814   5.403
13678TIP3   OH240976   7.992   0.489   5.984
13678TIP3    H140977   7.982   0.566   6.039
13678TIP3    H240978   8.072   0.447   6.016
13679TIP3   OH240979   7.262   7.523   6.236
13679TIP3    H140980   7.300   7.573   6.165
13679TIP3    H240981   7.173   7.503   6.208
13680TIP3   OH240982   3.694   5.418   0.055
13680TIP3    H140983   3.728   5.341   0.011
13680TIP3    H240984   3.599   5.406   0.057
13681TIP3   OH240985   7.975   0.376   5.730
13681TIP3    H140986   7.962   0.370   5.825
13681TIP3    H240987   7.986   0.469   5.713
13682TIP3   OH240988   2.371   3.615   3.278
13682TIP3    H140989   2.457   3.657   3.287
13682TIP3    H240990   2.386   3.543   3.217
13683TIP3   OH240991   6.015   2.111   3.135
13683TIP3    H140992   6.101   2.149   3.116
13683TIP3    H240993   6.034   2.037   3.192
13684TIP3   OH240994   3.852   3.481   0.523
13684TIP3    H140995   3.820   3.570   0.505
13684TIP3    H240996   3.794   3.425   0.471
13685TIP3   OH240997   6.298   5.388   6.498
13685TIP3    H140998   6.218   5.421   6.456
13685TIP3    H240999   6.289   5.413   6.590
13686TIP3   OH241000   0.877   0.573   3.476
13686TIP3    H141001   0.816   0.560   3.548
13686TIP3    H241002   0.955   0.610   3.516
13687TIP3   OH241003   1.105   1.405   2.343
13687TIP3    H141004   1.073   1.491   2.317
13687TIP3    H241005   1.174   1.424   2.408
13688TIP3   OH241006   4.646   5.953   3.343
13688TIP3    H141007   4.717   5.900   3.377
13688TIP3    H241008   4.635   5.924   3.252
13689TIP3   OH241009   7.445   1.761   4.846
13689TIP3    H141010   7.361   1.765   4.892
13689TIP3    H241011   7.500   1.825   4.891
13690TIP3   OH241012   2.341   6.895   5.045
13690TIP3    H141013   2.295   6.896   5.129
13690TIP3    H241014   2.298   6.826   4.995
13691TIP3   OH241015   6.531   2.088   0.297
13691TIP3    H141016   6.526   2.176   0.259
13691TIP3    H241017   6.625   2.071   0.305
13692TIP3   OH241018   3.496   7.696   6.650
13692TIP3    H141019   3.508   7.626   6.713
13692TIP3    H241020   3.575   7.750   6.658
13693TIP3   OH241021   7.706   4.158   2.032
13693TIP3    H141022   7.733   4.250   2.031
13693TIP3    H241023   7.620   4.158   2.074
13694TIP3   OH241024   5.184   3.825   1.711
13694TIP3    H141025   5.211   3.900   1.657
13694TIP3    H241026   5.225   3.750   1.668
13695TIP3   OH241027   4.584   2.723   0.559
13695TIP3    H141028   4.544   2.677   0.485
13695TIP3    H241029   4.574   2.816   0.537
13696TIP3   OH241030   1.768   6.381   1.410
13696TIP3    H141031   1.853   6.417   1.434
13696TIP3    H241032   1.709   6.457   1.406
13697TIP3   OH241033   5.950   4.490   0.166
13697TIP3    H141034   5.920   4.481   0.076
13697TIP3    H241035   6.010   4.416   0.178
13698TIP3   OH241036   3.981   6.648   5.967
13698TIP3    H141037   3.961   6.663   5.874
13698TIP3    H241038   4.025   6.728   5.995
13699TIP3   OH241039   4.401   5.970   6.105
13699TIP3    H141040   4.472   6.034   6.110
13699TIP3    H241041   4.446   5.885   6.112
13700TIP3   OH241042   2.382   6.797   6.467
13700TIP3    H141043   2.418   6.873   6.421
13700TIP3    H241044   2.445   6.727   6.449
13701TIP3   OH241045   2.885   1.006   3.196
13701TIP3    H141046   2.877   1.101   3.188
13701TIP3    H241047   2.978   0.988   3.184
13702TIP3   OH241048   3.313   2.311   0.890
13702TIP3    H141049   3.359   2.240   0.846
13702TIP3    H241050   3.376   2.346   0.953
13703TIP3   OH241051   2.486   1.212   5.604
13703TIP3    H141052   2.530   1.287   5.644
13703TIP3    H241053   2.554   1.145   5.599
13704TIP3   OH241054   1.770   3.443   3.826
13704TIP3    H141055   1.784   3.399   3.910
13704TIP3    H241056   1.675   3.447   3.816
13705TIP3   OH241057   1.290   4.838   6.439
13705TIP3    H141058   1.382   4.815   6.450
13705TIP3    H241059   1.258   4.848   6.529
13706TIP3   OH241060   7.557   5.929   1.014
13706TIP3    H141061   7.610   5.928   1.093
13706TIP3    H241062   7.512   6.013   1.016
13707TIP3   OH241063   4.307   4.918   3.144
13707TIP3    H141064   4.334   4.877   3.226
13707TIP3    H241065   4.342   4.859   3.076
13708TIP3   OH241066   7.923   3.071   5.218
13708TIP3    H141067   7.994   3.121   5.179
13708TIP3    H241068   7.903   3.116   5.300
13709TIP3   OH241069   8.100   4.901   4.405
13709TIP3    H141070   8.156   4.908   4.482
13709TIP3    H241071   8.051   4.984   4.404
13710TIP3   OH241072   5.563   3.968   0.564
13710TIP3    H141073   5.607   4.048   0.537
13710TIP3    H241074   5.527   3.931   0.484
13711TIP3   OH241075   4.136   1.138   1.925
13711TIP3    H141076   4.207   1.080   1.953
13711TIP3    H241077   4.091   1.089   1.857
13712TIP3   OH241078   7.009   4.155   1.663
13712TIP3    H141079   6.972   4.067   1.672
13712TIP3    H241080   7.084   4.144   1.606
13713TIP3   OH241081   3.244   7.270   5.371
13713TIP3    H141082   3.180   7.323   5.418
13713TIP3    H241083   3.329   7.307   5.395
13714TIP3   OH241084   6.517   2.474   6.640
13714TIP3    H141085   6.433   2.509   6.670
13714TIP3    H241086   6.508   2.469   6.545
13715TIP3   OH241087   8.195   5.808   6.359
13715TIP3    H141088   8.211   5.765   6.274
13715TIP3    H241089   8.268   5.869   6.369
13716TIP3   OH241090   1.941   5.461   5.681
13716TIP3    H141091   1.988   5.493   5.758
13716TIP3    H241092   1.930   5.367   5.697
13717TIP3   OH241093   8.228   7.433   0.052
13717TIP3    H141094   8.188   7.488  -0.014
13717TIP3    H241095   8.259   7.356   0.005
13718TIP3   OH241096   4.231   5.349   2.908
13718TIP3    H141097   4.258   5.317   2.994
13718TIP3    H241098   4.286   5.300   2.846
13719TIP3   OH241099   1.668   3.764   6.321
13719TIP3    H141100   1.641   3.740   6.233
13719TIP3    H241101   1.679   3.680   6.366
13720TIP3   OH241102   3.998   3.208   0.230
13720TIP3    H141103   4.028   3.188   0.319
13720TIP3    H241104   4.044   3.144   0.175
13721TIP3   OH241105   1.617   4.002   5.487
13721TIP3    H141106   1.560   3.930   5.514
13721TIP3    H241107   1.672   3.966   5.418
13722TIP3   OH241108   6.544   1.135   3.434
13722TIP3    H141109   6.459   1.098   3.409
13722TIP3    H241110   6.537   1.228   3.412
13723TIP3   OH241111   1.768   1.533   5.983
13723TIP3    H141112   1.759   1.438   5.976
13723TIP3    H241113   1.723   1.567   5.905
13724TIP3   OH241114   0.935   3.084   5.974
13724TIP3    H141115   1.014   3.137   5.985
13724TIP3    H241116   0.900   3.075   6.063
13725TIP3   OH241117   8.293   5.255   4.339
13725TIP3    H141118   8.235   5.242   4.414
13725TIP3    H241119   8.254   5.203   4.269
13726TIP3   OH241120   7.877   4.680   2.076
13726TIP3    H141121   7.885   4.731   1.995
13726TIP3    H241122   7.964   4.681   2.114
13727TIP3   OH241123   4.315   7.133   3.737
13727TIP3    H141124   4.246   7.108   3.675
13727TIP3    H241125   4.303   7.074   3.811
13728TIP3   OH241126   0.354   3.365   3.524
13728TIP3    H141127   0.435   3.404   3.491
13728TIP3    H241128   0.299   3.352   3.447
13729TIP3   OH241129   2.066   4.684   1.978
13729TIP3    H141130   2.072   4.602   2.026
13729TIP3    H241131   2.054   4.751   2.046
13730TIP3   OH241132   1.252   1.789   3.497
13730TIP3    H141133   1.281   1.851   3.564
13730TIP3    H241134   1.309   1.805   3.423
13731TIP3   OH241135   2.604   3.751   2.226
13731TIP3    H141136   2.620   3.845   2.223
13731TIP3    H241137   2.510   3.742   2.211
13732TIP3   OH241138   3.682   3.392   1.298
13732TIP3    H141139   3.597   3.415   1.262
13732TIP3    H241140   3.699   3.460   1.364
13733TIP3   OH241141   2.343   5.952   0.121
13733TIP3    H141142   2.422   6.003   0.102
13733TIP3    H241143   2.321   5.909   0.038
13734TIP3   OH241144   3.258   4.241   3.962
13734TIP3    H141145   3.270   4.312   3.898
13734TIP3    H241146   3.164   4.239   3.979
13735TIP3   OH241147   2.913   1.154   4.443
13735TIP3    H141148   2.978   1.203   4.392
13735TIP3    H241149   2.903   1.205   4.523
13736TIP3   OH241150   6.921   6.676   0.596
13736TIP3    H141151   6.886   6.727   0.669
13736TIP3    H241152   6.867   6.702   0.521
13737TIP3   OH241153   1.959   4.774   1.434
13737TIP3    H141154   1.922   4.854   1.470
13737TIP3    H241155   2.002   4.731   1.508
13738TIP3   OH241156   6.045   1.292   1.982
13738TIP3    H141157   5.997   1.212   1.958
13738TIP3    H241158   6.014   1.358   1.921
13739TIP3   OH241159   5.921   6.860   0.912
13739TIP3    H141160   5.862   6.848   0.838
13739TIP3    H241161   6.002   6.816   0.885
13740TIP3   OH241162   4.958   3.628   0.344
13740TIP3    H141163   4.932   3.544   0.307
13740TIP3    H241164   5.020   3.606   0.413
13741TIP3   OH241165   7.008   4.500   3.369
13741TIP3    H141166   7.034   4.562   3.438
13741TIP3    H241167   6.998   4.555   3.291
13742TIP3   OH241168   5.476   6.472   6.764
13742TIP3    H141169   5.434   6.515   6.690
13742TIP3    H241170   5.525   6.399   6.726
13743TIP3   OH241171   7.121   0.626   4.575
13743TIP3    H141172   7.144   0.556   4.636
13743TIP3    H241173   7.032   0.651   4.601
13744TIP3   OH241174   0.078   1.384   5.359
13744TIP3    H141175   0.169   1.361   5.381
13744TIP3    H241176   0.076   1.479   5.361
13745TIP3   OH241177   6.174   6.583   5.300
13745TIP3    H141178   6.221   6.524   5.241
13745TIP3    H241179   6.212   6.565   5.387
13746TIP3   OH241180   7.321   4.655   0.069
13746TIP3    H141181   7.274   4.571   0.062
13746TIP3    H241182   7.408   4.636   0.036
13747TIP3   OH241183   7.326   4.818   5.685
13747TIP3    H141184   7.310   4.906   5.650
13747TIP3    H241185   7.388   4.832   5.757
13748TIP3   OH241186   4.185   5.880   5.241
13748TIP3    H141187   4.228   5.882   5.156
13748TIP3    H241188   4.106   5.828   5.227
13749TIP3   OH241189   4.394   6.397   2.388
13749TIP3    H141190   4.308   6.426   2.358
13749TIP3    H241191   4.384   6.389   2.483
13750TIP3   OH241192   2.239   4.952   4.230
13750TIP3    H141193   2.318   4.998   4.201
13750TIP3    H241194   2.172   4.977   4.167
13751TIP3   OH241195   0.246   2.504   5.300
13751TIP3    H141196   0.264   2.524   5.392
13751TIP3    H241197   0.274   2.582   5.252
13752TIP3   OH241198   7.770   5.287   5.547
13752TIP3    H141199   7.714   5.225   5.595
13752TIP3    H241200   7.821   5.331   5.615
13753TIP3   OH241201   4.108   2.985   4.189
13753TIP3    H141202   4.066   3.071   4.185
13753TIP3    H241203   4.073   2.938   4.113
13754TIP3   OH241204   3.588   0.237   3.678
13754TIP3    H141205   3.548   0.252   3.764
13754TIP3    H241206   3.626   0.150   3.684
13755TIP3   OH241207   7.665   7.146   2.002
13755TIP3    H141208   7.714   7.140   2.085
13755TIP3    H241209   7.721   7.101   1.938
13756TIP3   OH241210   6.495   4.367   4.153
13756TIP3    H141211   6.417   4.317   4.127
13756TIP3    H241212   6.532   4.398   4.070
13757TIP3   OH241213   5.055   7.697   4.203
13757TIP3    H141214   5.078   7.771   4.258
13757TIP3    H241215   4.974   7.723   4.160
13758TIP3   OH241216   8.176   1.840   1.252
13758TIP3    H141217   8.227   1.759   1.266
13758TIP3    H241218   8.145   1.832   1.162
13759TIP3   OH241219   6.247   2.005   1.419
13759TIP3    H141220   6.282   2.030   1.333
13759TIP3    H241221   6.153   2.014   1.409
13760TIP3   OH241222   8.294   6.587   4.615
13760TIP3    H141223   8.208   6.605   4.652
13760TIP3    H241224   8.337   6.672   4.611
13761TIP3   OH241225   2.977   4.260   1.573
13761TIP3    H141226   2.946   4.236   1.660
13761TIP3    H241227   2.925   4.207   1.513
13762TIP3   OH241228   3.807   4.276   1.991
13762TIP3    H141229   3.864   4.276   2.068
13762TIP3    H241230   3.854   4.223   1.926
13763TIP3   OH241231   0.979   4.073   5.784
13763TIP3    H141232   0.989   4.093   5.877
13763TIP3    H241233   0.897   4.023   5.779
13764TIP3   OH241234   5.828   3.645   0.358
13764TIP3    H141235   5.859   3.735   0.369
13764TIP3    H241236   5.871   3.615   0.278
13765TIP3   OH241237   0.859   1.075   0.714
13765TIP3    H141238   0.825   1.076   0.804
13765TIP3    H241239   0.857   0.982   0.689
13766TIP3   OH241240   4.009   2.695   5.288
13766TIP3    H141241   3.937   2.721   5.231
13766TIP3    H241242   3.967   2.656   5.365
13767TIP3   OH241243   7.944   5.255   2.054
13767TIP3    H141244   7.880   5.323   2.033
13767TIP3    H241245   8.014   5.301   2.099
13768TIP3   OH241246   3.489   3.948   3.516
13768TIP3    H141247   3.504   3.991   3.600
13768TIP3    H241248   3.492   4.019   3.452
13769TIP3   OH241249   6.603   4.400   6.680
13769TIP3    H141250   6.674   4.464   6.686
13769TIP3    H241251   6.638   4.323   6.726
13770TIP3   OH241252   7.432   1.156   1.607
13770TIP3    H141253   7.479   1.074   1.596
13770TIP3    H241254   7.498   1.219   1.635
13771TIP3   OH241255   0.888   3.142   1.282
13771TIP3    H141256   0.845   3.140   1.196
13771TIP3    H241257   0.974   3.101   1.266
13772TIP3   OH241258   4.089   4.541   1.597
13772TIP3    H141259   4.143   4.617   1.574
13772TIP3    H241260   4.112   4.522   1.688
13773TIP3   OH241261   5.056   0.666   1.211
13773TIP3    H141262   5.088   0.752   1.238
13773TIP3    H241263   4.986   0.647   1.273
13774TIP3   OH241264   0.060   7.538   6.190
13774TIP3    H141265  -0.035   7.535   6.179
13774TIP3    H241266   0.079   7.631   6.205
13775TIP3   OH241267   4.829   4.346   0.237
13775TIP3    H141268   4.771   4.407   0.191
13775TIP3    H241269   4.899   4.401   0.271
13776TIP3   OH241270   5.013   3.252   4.668
13776TIP3    H141271   5.053   3.166   4.653
13776TIP3    H241272   5.086   3.313   4.669
13777TIP3   OH241273   5.165   6.994   2.965
13777TIP3    H141274   5.096   6.996   3.030
13777TIP3    H241275   5.216   6.916   2.986
13778TIP3   OH241276   6.847   6.972   4.173
13778TIP3    H141277   6.915   6.937   4.116
13778TIP3    H241278   6.770   6.981   4.116
13779TIP3   OH241279   7.883   1.427   1.989
13779TIP3    H141280   7.838   1.497   1.943
13779TIP3    H241281   7.974   1.435   1.960
13780TIP3   OH241282   4.318   3.171   2.540
13780TIP3    H141283   4.347   3.112   2.471
13780TIP3    H241284   4.224   3.153   2.548
13781TIP3   OH241285   4.808   6.575   0.737
13781TIP3    H141286   4.779   6.647   0.681
13781TIP3    H241287   4.760   6.499   0.705
13782TIP3   OH241288   0.384   5.038   0.914
13782TIP3    H141289   0.332   4.988   0.976
13782TIP3    H241290   0.466   5.057   0.961
13783TIP3   OH241291   4.501   1.089   5.905
13783TIP3    H141292   4.465   1.131   5.827
13783TIP3    H241293   4.560   1.154   5.942
13784TIP3   OH241294   2.561   1.705   1.399
13784TIP3    H141295   2.585   1.614   1.418
13784TIP3    H241296   2.640   1.743   1.360
13785TIP3   OH241297   1.918   0.002   3.263
13785TIP3    H141298   1.838   0.026   3.309
13785TIP3    H241299   1.903   0.028   3.172
13786TIP3   OH241300   5.604   5.645   0.899
13786TIP3    H141301   5.699   5.645   0.892
13786TIP3    H241302   5.575   5.579   0.836
13787TIP3   OH241303   6.576   1.597   5.590
13787TIP3    H141304   6.570   1.569   5.682
13787TIP3    H241305   6.652   1.655   5.588
13788TIP3   OH241306   7.556   2.131   3.967
13788TIP3    H141307   7.603   2.161   4.044
13788TIP3    H241308   7.493   2.067   4.001
13789TIP3   OH241309   2.389   6.777   1.820
13789TIP3    H141310   2.449   6.737   1.758
13789TIP3    H241311   2.437   6.853   1.854
13790TIP3   OH241312   5.735   7.497   1.397
13790TIP3    H141313   5.819   7.535   1.423
13790TIP3    H241314   5.741   7.490   1.302
13791TIP3   OH241315   3.117   3.942   0.162
13791TIP3    H141316   3.095   3.864   0.111
13791TIP3    H241317   3.204   3.923   0.198
13792TIP3   OH241318   5.363   6.666   5.975
13792TIP3    H141319   5.303   6.611   6.025
13792TIP3    H241320   5.365   6.627   5.888
13793TIP3   OH241321   4.381   0.336   4.650
13793TIP3    H141322   4.400   0.314   4.559
13793TIP3    H241323   4.468   0.352   4.689
13794TIP3   OH241324   7.247   7.420   0.295
13794TIP3    H141325   7.178   7.483   0.275
13794TIP3    H241326   7.265   7.377   0.212
13795TIP3   OH241327   6.126   0.645   3.354
13795TIP3    H141328   6.139   0.553   3.376
13795TIP3    H241329   6.212   0.676   3.327
13796TIP3   OH241330   1.417   0.137   5.967
13796TIP3    H141331   1.422   0.195   6.043
13796TIP3    H241332   1.423   0.049   6.004
13797TIP3   OH241333   5.391   0.571   3.162
13797TIP3    H141334   5.440   0.520   3.227
13797TIP3    H241335   5.404   0.524   3.080
13798TIP3   OH241336   1.242   2.298   1.047
13798TIP3    H141337   1.326   2.286   1.004
13798TIP3    H241338   1.263   2.305   1.140
13799TIP3   OH241339   4.984   0.114   4.566
13799TIP3    H141340   5.079   0.116   4.564
13799TIP3    H241341   4.958   0.205   4.549
13800TIP3   OH241342   7.682   6.792   4.971
13800TIP3    H141343   7.741   6.741   5.027
13800TIP3    H241344   7.681   6.879   5.011
13801TIP3   OH241345   4.314   7.477   3.422
13801TIP3    H141346   4.220   7.481   3.442
13801TIP3    H241347   4.329   7.386   3.395
13802TIP3   OH241348   5.797   2.237   4.023
13802TIP3    H141349   5.795   2.167   3.958
13802TIP3    H241350   5.800   2.192   4.107
13803TIP3   OH241351   0.462   2.971   1.575
13803TIP3    H141352   0.443   2.878   1.587
13803TIP3    H241353   0.555   2.980   1.595
13804TIP3   OH241354   5.363   2.611   6.228
13804TIP3    H141355   5.441   2.567   6.195
13804TIP3    H241356   5.298   2.599   6.159
13805TIP3   OH241357   3.223   2.943   4.116
13805TIP3    H141358   3.216   2.992   4.198
13805TIP3    H241359   3.215   2.851   4.141
13806TIP3   OH241360   4.600   6.796   6.330
13806TIP3    H141361   4.553   6.745   6.397
13806TIP3    H241362   4.560   6.883   6.334
13807TIP3   OH241363   3.134   2.296   3.752
13807TIP3    H141364   3.180   2.255   3.679
13807TIP3    H241365   3.051   2.326   3.715
13808TIP3   OH241366   3.405   2.248   4.680
13808TIP3    H141367   3.455   2.217   4.604
13808TIP3    H241368   3.462   2.314   4.721
13809TIP3   OH241369   1.180   2.144   5.945
13809TIP3    H141370   1.139   2.075   5.997
13809TIP3    H241371   1.203   2.101   5.863
13810TIP3   OH241372   6.717   2.375   2.764
13810TIP3    H141373   6.803   2.341   2.737
13810TIP3    H241374   6.666   2.297   2.786
13811TIP3   OH241375   7.550   4.325   3.166
13811TIP3    H141376   7.477   4.281   3.211
13811TIP3    H241377   7.537   4.418   3.185
13812TIP3   OH241378   0.700   4.324   1.889
13812TIP3    H141379   0.664   4.385   1.824
13812TIP3    H241380   0.643   4.333   1.965
13813TIP3   OH241381   0.877   4.017   2.243
13813TIP3    H141382   0.916   4.097   2.209
13813TIP3    H241383   0.806   3.996   2.182
13814TIP3   OH241384   6.783   7.572   6.549
13814TIP3    H141385   6.717   7.519   6.503
13814TIP3    H241386   6.865   7.551   6.505
13815TIP3   OH241387   0.118   6.450   5.746
13815TIP3    H141388   0.114   6.545   5.745
13815TIP3    H241389   0.171   6.428   5.823
13816TIP3   OH241390   0.525   1.814   5.737
13816TIP3    H141391   0.432   1.828   5.717
13816TIP3    H241392   0.554   1.897   5.775
13817TIP3   OH241393   0.837   3.596   4.132
13817TIP3    H141394   0.842   3.628   4.222
13817TIP3    H241395   0.763   3.536   4.132
13818TIP3   OH241396   1.336   1.516   1.184
13818TIP3    H141397   1.411   1.536   1.128
13818TIP3    H241398   1.311   1.599   1.222
13819TIP3   OH241399   3.967   3.597   2.114
13819TIP3    H141400   3.923   3.635   2.038
13819TIP3    H241401   4.053   3.572   2.082
13820TIP3   OH241402   4.767   6.397   4.126
13820TIP3    H141403   4.837   6.331   4.123
13820TIP3    H241404   4.689   6.348   4.152
13821TIP3   OH241405   0.296   2.189   6.312
13821TIP3    H141406   0.275   2.105   6.271
13821TIP3    H241407   0.235   2.251   6.273
13822TIP3   OH241408   7.759   7.055   2.577
13822TIP3    H141409   7.752   7.143   2.613
13822TIP3    H241410   7.779   6.999   2.652
13823TIP3   OH241411   5.050   2.192   0.060
13823TIP3    H141412   4.968   2.229   0.027
13823TIP3    H241413   5.104   2.269   0.080
13824TIP3   OH241414   6.083   0.461   0.629
13824TIP3    H141415   6.178   0.467   0.630
13824TIP3    H241416   6.054   0.530   0.689
13825TIP3   OH241417   0.967   6.476   6.432
13825TIP3    H141418   1.019   6.473   6.351
13825TIP3    H241419   0.931   6.388   6.440
13826TIP3   OH241420   7.347   2.343   6.367
13826TIP3    H141421   7.346   2.356   6.462
13826TIP3    H241422   7.435   2.311   6.348
13827TIP3   OH241423   5.598   1.710   1.953
13827TIP3    H141424   5.522   1.705   2.010
13827TIP3    H241425   5.568   1.673   1.870
13828TIP3   OH241426   7.914   0.171   1.041
13828TIP3    H141427   7.870   0.087   1.046
13828TIP3    H241428   8.002   0.150   1.011
13829TIP3   OH241429   3.410   4.447   1.455
13829TIP3    H141430   3.392   4.515   1.520
13829TIP3    H241431   3.361   4.370   1.486
13830TIP3   OH241432   0.571   3.942   4.252
13830TIP3    H141433   0.536   3.867   4.301
13830TIP3    H241434   0.561   3.918   4.160
13831TIP3   OH241435   3.368   2.877   1.160
13831TIP3    H141436   3.363   2.883   1.255
13831TIP3    H241437   3.348   2.965   1.129
13832TIP3   OH241438   0.906   3.578   3.457
13832TIP3    H141439   0.975   3.597   3.393
13832TIP3    H241440   0.899   3.483   3.457
13833TIP3   OH241441   3.536   5.870   4.211
13833TIP3    H141442   3.610   5.930   4.223
13833TIP3    H241443   3.498   5.862   4.299
13834TIP3   OH241444   1.867   7.621   3.580
13834TIP3    H141445   1.775   7.646   3.574
13834TIP3    H241446   1.904   7.647   3.496
13835TIP3   OH241447   4.233   7.547   5.378
13835TIP3    H141448   4.224   7.636   5.410
13835TIP3    H241449   4.321   7.520   5.404
13836TIP3   OH241450   7.898   2.661   0.449
13836TIP3    H141451   7.822   2.654   0.391
13836TIP3    H241452   7.928   2.752   0.438
13837TIP3   OH241453   1.386   2.435   0.490
13837TIP3    H141454   1.354   2.525   0.484
13837TIP3    H241455   1.329   2.393   0.554
13838TIP3   OH241456   3.993   2.111   2.292
13838TIP3    H141457   3.899   2.118   2.307
13838TIP3    H241458   4.031   2.178   2.349
13839TIP3   OH241459   3.237   4.127   4.748
13839TIP3    H141460   3.298   4.083   4.690
13839TIP3    H241461   3.246   4.220   4.728
13840TIP3   OH241462   1.423   2.123   0.092
13840TIP3    H141463   1.439   2.189   0.024
13840TIP3    H241464   1.508   2.080   0.104
13841TIP3   OH241465   5.456   1.304   4.412
13841TIP3    H141466   5.417   1.219   4.435
13841TIP3    H241467   5.386   1.350   4.366
13842TIP3   OH241468   5.444   2.909   6.757
13842TIP3    H141469   5.388   2.910   6.679
13842TIP3    H241470   5.401   2.848   6.817
13843TIP3   OH241471   4.814   3.154   6.210
13843TIP3    H141472   4.723   3.163   6.239
13843TIP3    H241473   4.865   3.191   6.281
13844TIP3   OH241474   6.369   5.812   3.571
13844TIP3    H141475   6.291   5.864   3.589
13844TIP3    H241476   6.370   5.744   3.638
13845TIP3   OH241477   0.750   3.370   2.746
13845TIP3    H141478   0.659   3.400   2.749
13845TIP3    H241479   0.764   3.326   2.830
13846TIP3   OH241480   0.268   4.949   1.975
13846TIP3    H141481   0.181   4.969   1.940
13846TIP3    H241482   0.257   4.863   2.017
13847TIP3   OH241483   2.770   4.424   2.948
13847TIP3    H141484   2.837   4.402   2.883
13847TIP3    H241485   2.774   4.519   2.956
13848TIP3   OH241486   4.627   0.982   1.503
13848TIP3    H141487   4.588   1.045   1.565
13848TIP3    H241488   4.584   1.000   1.420
13849TIP3   OH241489   1.683   2.628   3.300
13849TIP3    H141490   1.744   2.585   3.361
13849TIP3    H241491   1.637   2.692   3.354
13850TIP3   OH241492   7.826   6.787   2.304
13850TIP3    H141493   7.895   6.809   2.241
13850TIP3    H241494   7.769   6.864   2.304
13851TIP3   OH241495   7.639   7.399   3.757
13851TIP3    H141496   7.660   7.310   3.728
13851TIP3    H241497   7.661   7.454   3.681
13852TIP3   OH241498   5.042   2.314   6.205
13852TIP3    H141499   5.073   2.243   6.149
13852TIP3    H241500   4.961   2.281   6.243
13853TIP3   OH241501   2.592   7.698   5.085
13853TIP3    H141502   2.625   7.614   5.116
13853TIP3    H241503   2.634   7.763   5.142
13854TIP3   OH241504   5.360   7.602   5.249
13854TIP3    H141505   5.285   7.584   5.193
13854TIP3    H241506   5.397   7.683   5.213
13855TIP3   OH241507   4.173   7.481   4.241
13855TIP3    H141508   4.164   7.573   4.266
13855TIP3    H241509   4.197   7.437   4.323
13856TIP3   OH241510   5.885   3.036   0.859
13856TIP3    H141511   5.825   3.110   0.848
13856TIP3    H241512   5.831   2.967   0.897
13857TIP3   OH241513   6.851   5.515   5.824
13857TIP3    H141514   6.940   5.509   5.859
13857TIP3    H241515   6.852   5.593   5.769
13858TIP3   OH241516   2.449   3.031   1.117
13858TIP3    H141517   2.469   3.061   1.029
13858TIP3    H241518   2.527   3.053   1.168
13859TIP3   OH241519   2.726   2.346   4.485
13859TIP3    H141520   2.754   2.279   4.548
13859TIP3    H241521   2.636   2.367   4.510
13860TIP3   OH241522   1.558   3.588   3.039
13860TIP3    H141523   1.629   3.525   3.026
13860TIP3    H241524   1.603   3.673   3.047
13861TIP3   OH241525   6.353   7.328   0.924
13861TIP3    H141526   6.412   7.348   0.851
13861TIP3    H241527   6.318   7.241   0.904
13862TIP3   OH241528   5.596   4.560   0.069
13862TIP3    H141529   5.564   4.478   0.031
13862TIP3    H241530   5.686   4.569   0.038
13863TIP3   OH241531   6.358   1.697   1.752
13863TIP3    H141532   6.306   1.626   1.789
13863TIP3    H241533   6.325   1.706   1.663
13864TIP3   OH241534   3.859   2.700   2.339
13864TIP3    H141535   3.852   2.742   2.254
13864TIP3    H241536   3.770   2.705   2.376
13865TIP3   OH241537   5.049   7.330   6.465
13865TIP3    H141538   5.037   7.235   6.458
13865TIP3    H241539   5.126   7.348   6.410
13866TIP3   OH241540   2.747   5.709   5.185
13866TIP3    H141541   2.752   5.639   5.120
13866TIP3    H241542   2.760   5.665   5.269
13867TIP3   OH241543   4.557   7.271   3.712
13867TIP3    H141544   4.507   7.349   3.687
13867TIP3    H241545   4.491   7.203   3.724
13868TIP3   OH241546   6.703   1.806   1.125
13868TIP3    H141547   6.782   1.759   1.152
13868TIP3    H241548   6.709   1.811   1.029
13869TIP3   OH241549   1.723   3.244   2.474
13869TIP3    H141550   1.638   3.250   2.516
13869TIP3    H241551   1.785   3.240   2.547
13870TIP3   OH241552   7.688   1.478   6.357
13870TIP3    H141553   7.598   1.445   6.364
13870TIP3    H241554   7.694   1.545   6.425
13871TIP3   OH241555   3.132   0.024   2.247
13871TIP3    H141556   3.101   0.114   2.234
13871TIP3    H241557   3.200   0.031   2.313
13872TIP3   OH241558   6.560   3.114   1.881
13872TIP3    H141559   6.571   3.042   1.942
13872TIP3    H241560   6.566   3.073   1.794
13873TIP3   OH241561   1.522   4.906   2.352
13873TIP3    H141562   1.541   4.895   2.445
13873TIP3    H241563   1.509   4.817   2.320
13874TIP3   OH241564   3.156   0.195   2.688
13874TIP3    H141565   3.210   0.264   2.727
13874TIP3    H241566   3.216   0.146   2.633
13875TIP3   OH241567   1.056   3.095   3.599
13875TIP3    H141568   1.141   3.066   3.566
13875TIP3    H241569   1.007   3.014   3.616
13876TIP3   OH241570   6.771   3.790   0.025
13876TIP3    H141571   6.799   3.825  -0.060
13876TIP3    H241572   6.841   3.814   0.085
13877TIP3   OH241573   5.099   0.197   0.405
13877TIP3    H141574   5.155   0.161   0.337
13877TIP3    H241575   5.024   0.138   0.410
13878TIP3   OH241576   6.178   1.730   3.464
13878TIP3    H141577   6.136   1.657   3.511
13878TIP3    H241578   6.252   1.754   3.520
13879TIP3   OH241579   5.114   6.882   3.457
13879TIP3    H141580   5.070   6.892   3.541
13879TIP3    H241581   5.043   6.867   3.394
13880TIP3   OH241582   1.336   4.700   4.071
13880TIP3    H141583   1.362   4.740   4.155
13880TIP3    H241584   1.241   4.696   4.075
13881TIP3   OH241585   3.573   6.673   4.897
13881TIP3    H141586   3.664   6.655   4.921
13881TIP3    H241587   3.551   6.607   4.832
13882TIP3   OH241588   1.803   6.390   1.047
13882TIP3    H141589   1.845   6.414   0.965
13882TIP3    H241590   1.824   6.298   1.060
13883TIP3   OH241591   5.395   6.409   3.650
13883TIP3    H141592   5.415   6.334   3.594
13883TIP3    H241593   5.316   6.384   3.698
13884TIP3   OH241594   3.781   4.027   3.196
13884TIP3    H141595   3.767   3.934   3.210
13884TIP3    H241596   3.862   4.032   3.145
13885TIP3   OH241597   7.439   7.076   3.665
13885TIP3    H141598   7.421   6.986   3.636
13885TIP3    H241599   7.453   7.069   3.759
13886TIP3   OH241600   3.258   4.782   6.710
13886TIP3    H141601   3.295   4.695   6.722
13886TIP3    H241602   3.239   4.787   6.616
13887TIP3   OH241603   2.321   5.185   1.931
13887TIP3    H141604   2.394   5.217   1.879
13887TIP3    H241605   2.302   5.098   1.896
13888TIP3   OH241606   7.101   3.259   0.221
13888TIP3    H141607   7.126   3.310   0.298
13888TIP3    H241608   7.064   3.323   0.161
13889TIP3   OH241609   0.754   5.285   5.437
13889TIP3    H141610   0.722   5.274   5.526
13889TIP3    H241611   0.777   5.196   5.409
13890TIP3   OH241612   4.218   5.281   2.003
13890TIP3    H141613   4.287   5.215   2.008
13890TIP3    H241614   4.137   5.232   2.006
13891TIP3   OH241615   1.090   3.707   0.633
13891TIP3    H141616   1.114   3.781   0.688
13891TIP3    H241617   1.165   3.694   0.575
13892TIP3   OH241618   7.569   2.824   1.748
13892TIP3    H141619   7.635   2.875   1.701
13892TIP3    H241620   7.619   2.763   1.803
13893TIP3   OH241621   2.345   7.227   2.473
13893TIP3    H141622   2.404   7.197   2.404
13893TIP3    H241623   2.315   7.313   2.442
13894TIP3   OH241624   5.087   2.242   2.780
13894TIP3    H141625   5.101   2.245   2.875
13894TIP3    H241626   5.086   2.149   2.759
13895TIP3   OH241627   5.868   4.345   0.477
13895TIP3    H141628   5.951   4.387   0.498
13895TIP3    H241629   5.802   4.405   0.511
13896TIP3   OH241630   7.238   3.979   5.711
13896TIP3    H141631   7.276   4.067   5.719
13896TIP3    H241632   7.279   3.942   5.633
13897TIP3   OH241633   0.467   3.062   4.957
13897TIP3    H141634   0.422   3.094   5.035
13897TIP3    H241635   0.396   3.035   4.898
13898TIP3   OH241636   7.902   3.140   1.194
13898TIP3    H141637   7.876   3.048   1.198
13898TIP3    H241638   7.932   3.160   1.283
13899TIP3   OH241639   2.860   1.481   3.690
13899TIP3    H141640   2.778   1.515   3.655
13899TIP3    H241641   2.927   1.513   3.630
13900TIP3   OH241642   6.750   5.262   1.232
13900TIP3    H141643   6.813   5.282   1.302
13900TIP3    H241644   6.781   5.312   1.157
13901TIP3   OH241645   2.042   3.034   4.265
13901TIP3    H141646   1.989   3.106   4.301
13901TIP3    H241647   2.130   3.071   4.257
13902TIP3   OH241648   3.264   1.625   0.838
13902TIP3    H141649   3.284   1.706   0.886
13902TIP3    H241650   3.326   1.624   0.765
13903TIP3   OH241651   7.242   0.006   1.994
13903TIP3    H141652   7.210  -0.055   1.928
13903TIP3    H241653   7.275   0.080   1.944
13904TIP3   OH241654   6.585   3.316   6.738
13904TIP3    H141655   6.499   3.346   6.707
13904TIP3    H241656   6.644   3.336   6.666
13905TIP3   OH241657   2.948   2.231   2.702
13905TIP3    H141658   2.949   2.300   2.768
13905TIP3    H241659   2.874   2.252   2.646
13906TIP3   OH241660   3.770   2.919   2.032
13906TIP3    H141661   3.715   2.923   1.954
13906TIP3    H241662   3.856   2.894   1.999
13907TIP3   OH241663   7.812   3.822   2.437
13907TIP3    H141664   7.759   3.900   2.424
13907TIP3    H241665   7.834   3.792   2.349
13908TIP3   OH241666   2.963   4.340   6.265
13908TIP3    H141667   2.908   4.380   6.333
13908TIP3    H241668   2.977   4.410   6.201
13909TIP3   OH241669   8.203   4.148   3.023
13909TIP3    H141670   8.194   4.193   3.107
13909TIP3    H241671   8.185   4.216   2.958
13910TIP3   OH241672   0.706   7.395   6.400
13910TIP3    H141673   0.688   7.318   6.346
13910TIP3    H241674   0.746   7.458   6.340
13911TIP3   OH241675   1.421   4.748   0.679
13911TIP3    H141676   1.350   4.684   0.686
13911TIP3    H241677   1.390   4.823   0.730
13912TIP3   OH241678   2.045   6.058   2.932
13912TIP3    H141679   1.999   6.014   3.003
13912TIP3    H241680   1.976   6.086   2.872
13913TIP3   OH241681   6.302   7.428   1.530
13913TIP3    H141682   6.338   7.503   1.484
13913TIP3    H241683   6.329   7.352   1.478
13914TIP3   OH241684   1.628   6.047   1.710
13914TIP3    H141685   1.593   6.137   1.714
13914TIP3    H241686   1.592   6.004   1.787
13915TIP3   OH241687   7.073   7.232   4.422
13915TIP3    H141688   7.161   7.266   4.439
13915TIP3    H241689   7.028   7.239   4.506
13916TIP3   OH241690   0.398   5.748   1.768
13916TIP3    H141691   0.358   5.833   1.753
13916TIP3    H241692   0.469   5.743   1.704
13917TIP3   OH241693   7.277   7.328   1.080
13917TIP3    H141694   7.224   7.290   1.010
13917TIP3    H241695   7.217   7.338   1.153
13918TIP3   OH241696   5.640   1.388   0.628
13918TIP3    H141697   5.647   1.404   0.534
13918TIP3    H241698   5.731   1.394   0.660
13919TIP3   OH241699   7.639   0.480   6.022
13919TIP3    H141700   7.679   0.566   6.032
13919TIP3    H241701   7.703   0.419   6.058
13920TIP3   OH241702   0.145   6.967   5.961
13920TIP3    H141703   0.189   7.036   5.910
13920TIP3    H241704   0.189   6.968   6.046
13921TIP3   OH241705   7.441   6.570   1.467
13921TIP3    H141706   7.508   6.618   1.516
13921TIP3    H241707   7.440   6.483   1.507
13922TIP3   OH241708   6.472   7.510   0.253
13922TIP3    H141709   6.485   7.603   0.270
13922TIP3    H241710   6.379   7.502   0.233
13923TIP3   OH241711   7.127   2.960   5.632
13923TIP3    H141712   7.170   3.026   5.688
13923TIP3    H241713   7.199   2.923   5.580
13924TIP3   OH241714   1.081   5.132   0.277
13924TIP3    H141715   1.128   5.054   0.248
13924TIP3    H241716   0.989   5.113   0.257
13925TIP3   OH241717   5.833   0.899   6.275
13925TIP3    H141718   5.851   0.807   6.256
13925TIP3    H241719   5.748   0.899   6.318
13926TIP3   OH241720   0.533   6.563   2.835
13926TIP3    H141721   0.562   6.486   2.786
13926TIP3    H241722   0.536   6.535   2.927
13927TIP3   OH241723   4.634   3.345   1.184
13927TIP3    H141724   4.674   3.262   1.162
13927TIP3    H241725   4.544   3.323   1.208
13928TIP3   OH241726   6.108   3.968   2.327
13928TIP3    H141727   6.166   4.044   2.326
13928TIP3    H241728   6.028   3.998   2.283
13929TIP3   OH241729   4.230   3.641   0.799
13929TIP3    H141730   4.283   3.588   0.859
13929TIP3    H241731   4.150   3.589   0.785
13930TIP3   OH241732   5.253   1.417   2.344
13930TIP3    H141733   5.248   1.341   2.402
13930TIP3    H241734   5.307   1.388   2.271
13931TIP3   OH241735   7.288   7.399   6.736
13931TIP3    H141736   7.338   7.372   6.813
13931TIP3    H241737   7.217   7.335   6.729
13932TIP3   OH241738   4.020   6.238   2.613
13932TIP3    H141739   3.948   6.299   2.627
13932TIP3    H241740   4.082   6.258   2.683
13933TIP3   OH241741   4.059   2.956   2.206
13933TIP3    H141742   4.069   2.873   2.160
13933TIP3    H241743   3.971   2.986   2.183
13934TIP3   OH241744   0.591   3.385   3.371
13934TIP3    H141745   0.660   3.324   3.399
13934TIP3    H241746   0.615   3.410   3.282
13935TIP3   OH241747   5.233   1.689   3.989
13935TIP3    H141748   5.196   1.640   3.915
13935TIP3    H241749   5.175   1.670   4.062
13936TIP3   OH241750   5.331   7.706   1.595
13936TIP3    H141751   5.251   7.656   1.576
13936TIP3    H241752   5.379   7.707   1.512
13937TIP3   OH241753   2.732   0.920   2.985
13937TIP3    H141754   2.792   0.935   3.058
13937TIP3    H241755   2.789   0.906   2.910
13938TIP3   OH241756   5.267   4.586   6.717
13938TIP3    H141757   5.289   4.663   6.769
13938TIP3    H241758   5.197   4.616   6.659
13939TIP3   OH241759   1.959   7.159   6.148
13939TIP3    H141760   2.054   7.150   6.150
13939TIP3    H241761   1.931   7.140   6.237
13940TIP3   OH241762   4.776   1.409   3.035
13940TIP3    H141763   4.809   1.489   2.994
13940TIP3    H241764   4.851   1.350   3.034
13941TIP3   OH241765   3.345   0.077   3.946
13941TIP3    H141766   3.282   0.106   4.011
13941TIP3    H241767   3.412   0.145   3.946
13942TIP3   OH241768   7.401   6.049   4.760
13942TIP3    H141769   7.410   5.955   4.772
13942TIP3    H241770   7.381   6.059   4.667
13943TIP3   OH241771   4.943   7.298   1.689
13943TIP3    H141772   4.888   7.327   1.762
13943TIP3    H241773   5.032   7.320   1.716
13944TIP3   OH241774   2.742   0.656   1.099
13944TIP3    H141775   2.701   0.573   1.127
13944TIP3    H241776   2.716   0.719   1.166
13945TIP3   OH241777   6.889   0.548   6.442
13945TIP3    H141778   6.893   0.490   6.366
13945TIP3    H241779   6.962   0.520   6.497
13946TIP3   OH241780   7.632   5.039   4.642
13946TIP3    H141781   7.651   4.953   4.604
13946TIP3    H241782   7.632   5.025   4.736
13947TIP3   OH241783   2.829   5.075   1.064
13947TIP3    H141784   2.813   4.998   1.118
13947TIP3    H241785   2.821   5.044   0.974
13948TIP3   OH241786   7.213   0.996   0.458
13948TIP3    H141787   7.222   1.033   0.370
13948TIP3    H241788   7.119   0.979   0.467
13949TIP3   OH241789   6.139   6.630   6.316
13949TIP3    H141790   6.088   6.591   6.386
13949TIP3    H241791   6.185   6.556   6.276
13950TIP3   OH241792   6.718   2.698   5.437
13950TIP3    H141793   6.710   2.714   5.343
13950TIP3    H241794   6.753   2.780   5.473
13951TIP3   OH241795   1.728   1.101   1.037
13951TIP3    H141796   1.799   1.097   0.973
13951TIP3    H241797   1.700   1.193   1.035
13952TIP3   OH241798   7.252   6.081   5.575
13952TIP3    H141799   7.272   6.136   5.499
13952TIP3    H241800   7.338   6.057   5.610
13953TIP3   OH241801   1.909   4.788   3.373
13953TIP3    H141802   1.822   4.816   3.402
13953TIP3    H241803   1.958   4.774   3.454
13954TIP3   OH241804   4.334   6.643   6.173
13954TIP3    H141805   4.403   6.619   6.111
13954TIP3    H241806   4.349   6.587   6.249
13955TIP3   OH241807   6.530   1.442   1.136
13955TIP3    H141808   6.508   1.400   1.053
13955TIP3    H241809   6.625   1.447   1.137
13956TIP3   OH241810   1.349   4.978   1.378
13956TIP3    H141811   1.256   4.959   1.367
13956TIP3    H241812   1.375   4.927   1.455
13957TIP3   OH241813   7.580   1.939   6.690
13957TIP3    H141814   7.667   1.961   6.723
13957TIP3    H241815   7.526   2.015   6.710
13958TIP3   OH241816   6.274   2.611   6.570
13958TIP3    H141817   6.178   2.604   6.567
13958TIP3    H241818   6.300   2.603   6.478
13959TIP3   OH241819   6.489   7.302   6.345
13959TIP3    H141820   6.441   7.384   6.343
13959TIP3    H241821   6.563   7.318   6.404
13960TIP3   OH241822   6.562   5.951   5.454
13960TIP3    H141823   6.525   5.920   5.371
13960TIP3    H241824   6.651   5.916   5.455
13961TIP3   OH241825   6.910   5.075   2.110
13961TIP3    H141826   6.974   5.106   2.045
13961TIP3    H241827   6.846   5.025   2.058
13962TIP3   OH241828   0.358   1.894   5.344
13962TIP3    H141829   0.336   1.943   5.265
13962TIP3    H241830   0.378   1.806   5.313
13963TIP3   OH241831   6.699   4.426   5.380
13963TIP3    H141832   6.616   4.448   5.423
13963TIP3    H241833   6.719   4.502   5.326
13964TIP3   OH241834   2.079   3.904   3.249
13964TIP3    H141835   2.120   3.927   3.165
13964TIP3    H241836   1.988   3.884   3.226
13965TIP3   OH241837   2.172   6.184   5.990
13965TIP3    H141838   2.267   6.176   5.997
13965TIP3    H241839   2.137   6.122   6.054
13966TIP3   OH241840   2.623   0.731   3.611
13966TIP3    H141841   2.677   0.800   3.574
13966TIP3    H241842   2.535   0.750   3.580
13967TIP3   OH241843   4.850   6.002   3.680
13967TIP3    H141844   4.768   6.051   3.681
13967TIP3    H241845   4.897   6.035   3.603
13968TIP3   OH241846   2.260   5.382   6.173
13968TIP3    H141847   2.207   5.303   6.187
13968TIP3    H241848   2.289   5.376   6.082
13969TIP3   OH241849   5.166   6.294   2.726
13969TIP3    H141850   5.125   6.357   2.667
13969TIP3    H241851   5.170   6.339   2.810
13970TIP3   OH241852   8.095   1.446   2.474
13970TIP3    H141853   8.092   1.494   2.391
13970TIP3    H241854   8.100   1.354   2.449
13971TIP3   OH241855   3.018   7.424   5.522
13971TIP3    H141856   2.986   7.471   5.445
13971TIP3    H241857   3.066   7.490   5.572
13972TIP3   OH241858   3.192   1.709   2.353
13972TIP3    H141859   3.115   1.767   2.347
13972TIP3    H241860   3.196   1.684   2.445
13973TIP3   OH241861   6.155   3.101   5.154
13973TIP3    H141862   6.245   3.098   5.122
13973TIP3    H241863   6.101   3.106   5.075
13974TIP3   OH241864   0.154   2.891   1.100
13974TIP3    H141865   0.097   2.958   1.137
13974TIP3    H241866   0.230   2.889   1.158
13975TIP3   OH241867   4.280   7.055   4.046
13975TIP3    H141868   4.333   6.979   4.067
13975TIP3    H241869   4.313   7.125   4.103
13976TIP3   OH241870   0.351   4.114   0.331
13976TIP3    H141871   0.426   4.080   0.282
13976TIP3    H241872   0.360   4.209   0.328
13977TIP3   OH241873   4.910   5.279   5.658
13977TIP3    H141874   4.954   5.364   5.649
13977TIP3    H241875   4.847   5.278   5.586
13978TIP3   OH241876   0.065   0.388   2.294
13978TIP3    H141877   0.083   0.430   2.210
13978TIP3    H241878   0.142   0.409   2.348
13979TIP3   OH241879   1.085   2.418   3.797
13979TIP3    H141880   1.073   2.449   3.707
13979TIP3    H241881   1.180   2.416   3.809
13980TIP3   OH241882   2.370   1.118   6.016
13980TIP3    H141883   2.326   1.055   5.959
13980TIP3    H241884   2.343   1.203   5.983
13981TIP3   OH241885   3.928   4.488   5.542
13981TIP3    H141886   3.955   4.576   5.516
13981TIP3    H241887   4.004   4.451   5.587
13982TIP3   OH241888   7.624   3.127   3.248
13982TIP3    H141889   7.701   3.091   3.293
13982TIP3    H241890   7.638   3.221   3.248
13983TIP3   OH241891   1.741   1.552   2.018
13983TIP3    H141892   1.677   1.615   2.051
13983TIP3    H241893   1.756   1.579   1.927
13984TIP3   OH241894   4.444   2.683   6.052
13984TIP3    H141895   4.505   2.755   6.064
13984TIP3    H241896   4.466   2.647   5.966
13985TIP3   OH241897   1.931   3.570   5.358
13985TIP3    H141898   1.862   3.504   5.353
13985TIP3    H241899   1.953   3.574   5.451
13986TIP3   OH241900   2.330   4.272   3.181
13986TIP3    H141901   2.424   4.272   3.160
13986TIP3    H241902   2.292   4.336   3.121
13987TIP3   OH241903   0.800   0.059   2.420
13987TIP3    H141904   0.826   0.141   2.462
13987TIP3    H241905   0.810  -0.007   2.489
13988TIP3   OH241906   1.399   0.497   1.284
13988TIP3    H141907   1.439   0.413   1.309
13988TIP3    H241908   1.331   0.473   1.221
13989TIP3   OH241909   4.225   0.893   1.999
13989TIP3    H141910   4.152   0.884   2.061
13989TIP3    H241911   4.274   0.811   2.007
13990TIP3   OH241912   7.061   6.131   1.962
13990TIP3    H141913   7.083   6.221   1.986
13990TIP3    H241914   6.994   6.140   1.893
13991TIP3   OH241915   4.107   6.968   6.585
13991TIP3    H141916   4.200   6.970   6.565
13991TIP3    H241917   4.064   6.975   6.500
13992TIP3   OH241918   4.039   1.712   4.206
13992TIP3    H141919   4.061   1.620   4.197
13992TIP3    H241920   4.076   1.753   4.128
13993TIP3   OH241921   6.945   5.401   4.702
13993TIP3    H141922   6.898   5.485   4.700
13993TIP3    H241923   7.029   5.422   4.744
13994TIP3   OH241924   0.491   1.645   4.203
13994TIP3    H141925   0.406   1.649   4.159
13994TIP3    H241926   0.517   1.737   4.212
13995TIP3   OH241927   2.382   5.075   0.087
13995TIP3    H141928   2.359   5.168   0.080
13995TIP3    H241929   2.462   5.066   0.036
13996TIP3   OH241930   6.143   3.716   3.336
13996TIP3    H141931   6.137   3.736   3.243
13996TIP3    H241932   6.198   3.787   3.371
13997TIP3   OH241933   6.486   7.653   3.478
13997TIP3    H141934   6.458   7.719   3.416
13997TIP3    H241935   6.504   7.702   3.559
13998TIP3   OH241936   2.713   5.195   0.661
13998TIP3    H141937   2.663   5.130   0.611
13998TIP3    H241938   2.651   5.267   0.675
13999TIP3   OH241939   4.463   2.742   1.458
13999TIP3    H141940   4.527   2.782   1.516
13999TIP3    H241941   4.455   2.651   1.489
14000TIP3   OH241942   1.711   0.334   1.217
14000TIP3    H141943   1.669   0.354   1.133
14000TIP3    H241944   1.690   0.242   1.232
14001TIP3   OH241945   5.107   0.812   5.101
14001TIP3    H141946   5.031   0.759   5.124
14001TIP3    H241947   5.106   0.884   5.165
14002TIP3   OH241948   4.363   6.003   4.690
14002TIP3    H141949   4.369   6.091   4.728
14002TIP3    H241950   4.272   5.995   4.663
14003TIP3   OH241951   3.940   0.301   5.671
14003TIP3    H141952   3.966   0.393   5.668
14003TIP3    H241953   3.967   0.270   5.758
14004TIP3   OH241954   6.969   7.616   3.804
14004TIP3    H141955   6.983   7.560   3.880
14004TIP3    H241956   6.989   7.560   3.729
14005TIP3   OH241957   1.951   5.959   3.524
14005TIP3    H141958   2.042   5.986   3.511
14005TIP3    H241959   1.899   6.026   3.478
14006TIP3   OH241960   0.555   2.263   4.094
14006TIP3    H141961   0.637   2.270   4.044
14006TIP3    H241962   0.489   2.301   4.037
14007TIP3   OH241963   5.215   0.139   2.989
14007TIP3    H141964   5.156   0.125   2.915
14007TIP3    H241965   5.229   0.234   2.990
14008TIP3   OH241966   2.941   5.404   3.836
14008TIP3    H141967   3.030   5.375   3.858
14008TIP3    H241968   2.897   5.414   3.921
14009TIP3   OH241969   4.174   0.009   4.899
14009TIP3    H141970   4.098  -0.020   4.950
14009TIP3    H241971   4.193   0.097   4.932
14010TIP3   OH241972   4.273   1.190   2.934
14010TIP3    H141973   4.367   1.193   2.950
14010TIP3    H241974   4.253   1.097   2.924
14011TIP3   OH241975   3.890   4.685   4.187
14011TIP3    H141976   3.875   4.633   4.266
14011TIP3    H241977   3.949   4.631   4.135
14012TIP3   OH241978   3.390   0.244   1.358
14012TIP3    H141979   3.303   0.210   1.335
14012TIP3    H241980   3.431   0.264   1.275
14013TIP3   OH241981   2.962   1.473   1.001
14013TIP3    H141982   2.915   1.530   0.940
14013TIP3    H241983   3.047   1.458   0.960
14014TIP3   OH241984   3.261   2.314   5.036
14014TIP3    H141985   3.353   2.318   5.059
14014TIP3    H241986   3.250   2.381   4.967
14015TIP3   OH241987   2.661   6.064   5.044
14015TIP3    H141988   2.744   6.036   5.081
14015TIP3    H241989   2.635   5.993   4.985
14016TIP3   OH241990   4.368   5.480   3.216
14016TIP3    H141991   4.377   5.404   3.157
14016TIP3    H241992   4.303   5.452   3.281
14017TIP3   OH241993   2.540   3.944   3.820
14017TIP3    H141994   2.488   4.000   3.762
14017TIP3    H241995   2.614   3.916   3.767
14018TIP3   OH241996   2.498   4.121   2.323
14018TIP3    H141997   2.500   4.148   2.415
14018TIP3    H241998   2.583   4.080   2.309
14019TIP3   OH241999   3.118   3.730   4.636
14019TIP3    H142000   3.081   3.665   4.577
14019TIP3    H242001   3.149   3.800   4.578
14020TIP3   OH242002   6.114   7.511   4.435
14020TIP3    H142003   6.171   7.547   4.366
14020TIP3    H242004   6.173   7.462   4.491
14021TIP3   OH242005   0.832   3.539   1.307
14021TIP3    H142006   0.764   3.600   1.280
14021TIP3    H242007   0.914   3.582   1.285
14022TIP3   OH242008   5.267   6.921   5.721
14022TIP3    H142009   5.205   6.912   5.648
14022TIP3    H242010   5.229   6.868   5.791
14023TIP3   OH242011   0.634   2.198   6.138
14023TIP3    H142012   0.674   2.156   6.214
14023TIP3    H242013   0.613   2.286   6.167
14024TIP3   OH242014   5.307   2.971   3.253
14024TIP3    H142015   5.348   2.917   3.320
14024TIP3    H242016   5.376   2.983   3.186
14025TIP3   OH242017   5.042   5.395   5.210
14025TIP3    H142018   5.030   5.480   5.253
14025TIP3    H242019   4.979   5.337   5.253
14026TIP3   OH242020   0.966   6.883   4.795
14026TIP3    H142021   0.886   6.876   4.848
14026TIP3    H242022   0.944   6.946   4.727
14027TIP3   OH242023   0.203   0.255   1.836
14027TIP3    H142024   0.135   0.203   1.794
14027TIP3    H242025   0.279   0.244   1.779
14028TIP3   OH242026   4.432   3.410   4.256
14028TIP3    H142027   4.373   3.382   4.326
14028TIP3    H242028   4.401   3.498   4.232
14029TIP3   OH242029   4.413   7.765   1.323
14029TIP3    H142030   4.365   7.801   1.397
14029TIP3    H242031   4.366   7.796   1.246
14030TIP3   OH242032   1.471   1.960   2.616
14030TIP3    H142033   1.515   2.013   2.682
14030TIP3    H242034   1.448   1.879   2.663
14031TIP3   OH242035   1.551   0.912   3.954
14031TIP3    H142036   1.632   0.958   3.978
14031TIP3    H242037   1.490   0.981   3.932
14032TIP3   OH242038   4.943   1.308   0.817
14032TIP3    H142039   5.015   1.254   0.784
14032TIP3    H242040   4.965   1.397   0.789
14033TIP3   OH242041   7.066   2.346   0.251
14033TIP3    H142042   7.126   2.378   0.184
14033TIP3    H242043   7.072   2.250   0.245
14034TIP3   OH242044   7.726   7.281   4.556
14034TIP3    H142045   7.737   7.218   4.628
14034TIP3    H242046   7.737   7.228   4.477
14035TIP3   OH242047   5.541   6.032   1.738
14035TIP3    H142048   5.468   6.091   1.759
14035TIP3    H242049   5.556   6.043   1.645
14036TIP3   OH242050   5.937   7.392   4.892
14036TIP3    H142051   5.848   7.400   4.857
14036TIP3    H242052   5.929   7.418   4.984
14037TIP3   OH242053   2.535   0.694   6.462
14037TIP3    H142054   2.484   0.632   6.409
14037TIP3    H242055   2.506   0.780   6.432
14038TIP3   OH242056   8.062   7.337   3.736
14038TIP3    H142057   8.034   7.326   3.646
14038TIP3    H242058   8.084   7.248   3.765
14039TIP3   OH242059   6.519   1.605   4.659
14039TIP3    H142060   6.540   1.545   4.588
14039TIP3    H242061   6.557   1.564   4.737
14040TIP3   OH242062   6.497   4.664   3.783
14040TIP3    H142063   6.533   4.625   3.704
14040TIP3    H242064   6.435   4.730   3.751
14041TIP3   OH242065   3.216   3.420   4.483
14041TIP3    H142066   3.143   3.445   4.426
14041TIP3    H242067   3.174   3.384   4.561
14042TIP3   OH242068   6.102   4.797   4.549
14042TIP3    H142069   6.130   4.880   4.588
14042TIP3    H242070   6.172   4.774   4.488
14043TIP3   OH242071   2.408   5.000   2.624
14043TIP3    H142072   2.489   4.953   2.641
14043TIP3    H242073   2.365   4.949   2.554
14044TIP3   OH242074   3.505   4.887   5.114
14044TIP3    H142075   3.595   4.876   5.081
14044TIP3    H242076   3.450   4.876   5.037
14045TIP3   OH242077   1.690   6.029   4.318
14045TIP3    H142078   1.663   5.952   4.267
14045TIP3    H242079   1.778   6.006   4.349
14046TIP3   OH242080   4.637   4.412   4.379
14046TIP3    H142081   4.664   4.416   4.287
14046TIP3    H242082   4.704   4.359   4.421
14047TIP3   OH242083   6.311   3.945   3.418
14047TIP3    H142084   6.233   4.001   3.415
14047TIP3    H242085   6.361   3.979   3.492
14048TIP3   OH242086   0.004   5.181   2.146
14048TIP3    H142087   0.003   5.268   2.185
14048TIP3    H242088   0.018   5.197   2.052
14049TIP3   OH242089   0.204   5.707   3.216
14049TIP3    H142090   0.217   5.727   3.308
14049TIP3    H242091   0.224   5.789   3.170
14050TIP3   OH242092   0.140   7.207   5.615
14050TIP3    H142093   0.178   7.229   5.701
14050TIP3    H242094   0.082   7.133   5.633
14051TIP3   OH242095   4.243   2.274   5.674
14051TIP3    H142096   4.265   2.236   5.760
14051TIP3    H242097   4.180   2.343   5.694
14052TIP3   OH242098   8.238   0.961   5.990
14052TIP3    H142099   8.308   0.969   5.925
14052TIP3    H242100   8.264   0.885   6.043
14053TIP3   OH242101   1.266   7.565   0.614
14053TIP3    H142102   1.200   7.583   0.547
14053TIP3    H242103   1.349   7.593   0.575
14054TIP3   OH242104   3.581   2.947   0.825
14054TIP3    H142105   3.577   2.947   0.921
14054TIP3    H242106   3.614   3.033   0.802
14055TIP3   OH242107   1.233   5.194   1.566
14055TIP3    H142108   1.289   5.261   1.607
14055TIP3    H242109   1.245   5.116   1.620
14056TIP3   OH242110   6.998   5.036   4.338
14056TIP3    H142111   6.986   5.093   4.262
14056TIP3    H242112   6.995   5.096   4.413
14057TIP3   OH242113   5.453   7.784   0.525
14057TIP3    H142114   5.464   7.841   0.600
14057TIP3    H242115   5.530   7.799   0.471
14058TIP3   OH242116   3.668   4.952   0.361
14058TIP3    H142117   3.601   4.911   0.416
14058TIP3    H242118   3.750   4.940   0.409
14059TIP3   OH242119   0.087   5.917   5.877
14059TIP3    H142120   0.083   5.822   5.884
14059TIP3    H242121   0.074   5.935   5.784
14060TIP3   OH242122   6.230   2.468   5.354
14060TIP3    H142123   6.177   2.417   5.415
14060TIP3    H242124   6.317   2.470   5.393
14061TIP3   OH242125   4.295   5.041   0.571
14061TIP3    H142126   4.211   5.044   0.524
14061TIP3    H242127   4.271   5.012   0.659
14062TIP3   OH242128   0.077   4.941   0.294
14062TIP3    H142129   0.067   5.036   0.291
14062TIP3    H242130   0.016   4.908   0.229
14063TIP3   OH242131   6.039   4.370   4.891
14063TIP3    H142132   5.950   4.352   4.862
14063TIP3    H242133   6.076   4.284   4.910
14064TIP3   OH242134   3.009   4.994   2.968
14064TIP3    H142135   3.069   5.045   3.024
14064TIP3    H242136   3.025   5.027   2.880
14065TIP3   OH242137   4.341   3.811   0.565
14065TIP3    H142138   4.325   3.748   0.634
14065TIP3    H242139   4.259   3.815   0.517
14066TIP3   OH242140   5.766   1.252   6.759
14066TIP3    H142141   5.742   1.290   6.674
14066TIP3    H242142   5.845   1.299   6.785
14067TIP3   OH242143   7.791   2.936   5.740
14067TIP3    H142144   7.773   2.924   5.833
14067TIP3    H242145   7.886   2.929   5.733
14068TIP3   OH242146   4.314   0.082   3.421
14068TIP3    H142147   4.246   0.085   3.489
14068TIP3    H242148   4.308  -0.006   3.385
14069TIP3   OH242149   1.922   7.039   1.768
14069TIP3    H142150   2.001   6.986   1.781
14069TIP3    H242151   1.935   7.082   1.684
14070TIP3   OH242152   3.830   0.154   3.871
14070TIP3    H142153   3.919   0.121   3.879
14070TIP3    H242154   3.840   0.246   3.845
14071TIP3   OH242155   5.968   0.599   2.799
14071TIP3    H142156   6.017   0.682   2.799
14071TIP3    H242157   5.957   0.577   2.707
14072TIP3   OH242158   6.594   0.795   3.168
14072TIP3    H142159   6.574   0.723   3.108
14072TIP3    H242160   6.532   0.785   3.240
14073TIP3   OH242161   5.980   4.232  -0.021
14073TIP3    H142162   5.997   4.220   0.072
14073TIP3    H242163   5.885   4.231  -0.028
14074TIP3   OH242164   7.464   7.225   6.249
14074TIP3    H142165   7.450   7.146   6.197
14074TIP3    H242166   7.392   7.225   6.312
14075TIP3   OH242167   2.864   5.142   3.828
14075TIP3    H142168   2.784   5.158   3.879
14075TIP3    H242169   2.911   5.224   3.830
14076TIP3   OH242170   2.268   4.896   3.548
14076TIP3    H142171   2.279   4.981   3.590
14076TIP3    H242172   2.246   4.836   3.620
14077TIP3   OH242173   8.249   6.504   6.067
14077TIP3    H142174   8.178   6.564   6.043
14077TIP3    H242175   8.302   6.554   6.129
14078TIP3   OH242176   0.998   1.813   3.178
14078TIP3    H142177   0.920   1.806   3.122
14078TIP3    H242178   1.000   1.905   3.205
14079TIP3   OH242179   1.884   3.572   1.613
14079TIP3    H142180   1.928   3.599   1.533
14079TIP3    H242181   1.820   3.641   1.630
14080TIP3   OH242182   2.294   3.587   1.595
14080TIP3    H142183   2.324   3.576   1.504
14080TIP3    H242184   2.284   3.682   1.605
14081TIP3   OH242185   4.698   4.442   0.799
14081TIP3    H142186   4.712   4.454   0.892
14081TIP3    H242187   4.648   4.519   0.772
14082TIP3   OH242188   2.196   7.712   2.389
14082TIP3    H142189   2.221   7.800   2.364
14082TIP3    H242190   2.113   7.723   2.436
14083TIP3   OH242191   7.255   0.665   0.866
14083TIP3    H142192   7.162   0.679   0.848
14083TIP3    H242193   7.300   0.736   0.820
14084TIP3   OH242194   7.120   1.719   1.417
14084TIP3    H142195   7.139   1.638   1.370
14084TIP3    H242196   7.152   1.703   1.506
14085TIP3   OH242197   2.356   1.685   3.370
14085TIP3    H142198   2.360   1.601   3.323
14085TIP3    H242199   2.344   1.660   3.462
14086TIP3   OH242200   8.252   5.784   0.334
14086TIP3    H142201   8.343   5.784   0.304
14086TIP3    H242202   8.241   5.699   0.377
14087TIP3   OH242203   5.803   7.383   2.114
14087TIP3    H142204   5.810   7.338   2.030
14087TIP3    H242205   5.780   7.473   2.092
14088TIP3   OH242206   7.911   3.909   4.319
14088TIP3    H142207   7.872   3.971   4.381
14088TIP3    H242208   7.907   3.954   4.235
14089TIP3   OH242209   4.367   6.775   5.805
14089TIP3    H142210   4.399   6.853   5.850
14089TIP3    H242211   4.424   6.704   5.835
14090TIP3   OH242212   2.389   3.679   4.576
14090TIP3    H142213   2.444   3.676   4.654
14090TIP3    H242214   2.299   3.683   4.610
14091TIP3   OH242215   1.308   6.232   5.925
14091TIP3    H142216   1.276   6.247   5.836
14091TIP3    H242217   1.402   6.220   5.915
14092TIP3   OH242218   7.802   1.718   0.857
14092TIP3    H142219   7.781   1.810   0.873
14092TIP3    H242220   7.898   1.717   0.848
14093TIP3   OH242221   1.788   7.553   4.708
14093TIP3    H142222   1.868   7.520   4.749
14093TIP3    H242223   1.719   7.497   4.743
14094TIP3   OH242224   7.386   2.827   6.715
14094TIP3    H142225   7.477   2.837   6.742
14094TIP3    H242226   7.353   2.917   6.709
14095TIP3   OH242227   4.554   7.606   4.774
14095TIP3    H142228   4.592   7.667   4.710
14095TIP3    H242229   4.470   7.645   4.797
14096TIP3   OH242230   1.150   4.853   0.581
14096TIP3    H142231   1.157   4.874   0.674
14096TIP3    H242232   1.119   4.762   0.580
14097TIP3   OH242233   2.619   6.456   1.863
14097TIP3    H142234   2.704   6.497   1.882
14097TIP3    H242235   2.605   6.397   1.936
14098TIP3   OH242236   3.301   4.358   4.218
14098TIP3    H142237   3.361   4.298   4.262
14098TIP3    H242238   3.290   4.321   4.130
14099TIP3   OH242239   5.186   1.054   5.978
14099TIP3    H142240   5.113   0.997   6.001
14099TIP3    H242241   5.238   1.061   6.058
14100TIP3   OH242242   1.947   7.329   4.803
14100TIP3    H142243   2.019   7.313   4.863
14100TIP3    H242244   1.935   7.245   4.758
14101TIP3   OH242245   5.676   6.775   0.608
14101TIP3    H142246   5.595   6.766   0.658
14101TIP3    H242247   5.694   6.869   0.609
14102TIP3   OH242248   2.319   1.054   2.907
14102TIP3    H142249   2.329   1.090   2.819
14102TIP3    H242250   2.246   1.102   2.945
14103TIP3   OH242251   3.900   7.401   1.396
14103TIP3    H142252   3.932   7.327   1.448
14103TIP3    H242253   3.805   7.401   1.410
14104TIP3   OH242254   2.392   2.639   3.206
14104TIP3    H142255   2.452   2.564   3.205
14104TIP3    H242256   2.406   2.679   3.292
14105TIP3   OH242257   7.748   6.758   1.306
14105TIP3    H142258   7.688   6.793   1.240
14105TIP3    H242259   7.802   6.834   1.331
14106TIP3   OH242260   2.534   2.782   0.409
14106TIP3    H142261   2.588   2.859   0.396
14106TIP3    H242262   2.576   2.714   0.357
14107TIP3   OH242263   0.744   6.796   1.346
14107TIP3    H142264   0.761   6.855   1.419
14107TIP3    H242265   0.830   6.762   1.322
14108TIP3   OH242266   5.179   0.211   1.740
14108TIP3    H142267   5.086   0.199   1.719
14108TIP3    H242268   5.222   0.133   1.706
14109TIP3   OH242269   2.079   6.022   6.183
14109TIP3    H142270   2.123   6.074   6.250
14109TIP3    H242271   1.986   6.026   6.206
14110TIP3   OH242272   7.763   4.269   1.092
14110TIP3    H142273   7.789   4.320   1.169
14110TIP3    H242274   7.755   4.179   1.125
14111TIP3   OH242275   6.314   4.461   6.271
14111TIP3    H142276   6.268   4.520   6.211
14111TIP3    H242277   6.354   4.519   6.336
14112TIP3   OH242278   7.039   2.649   3.084
14112TIP3    H142279   6.975   2.709   3.122
14112TIP3    H242280   7.090   2.703   3.024
14113TIP3   OH242281   6.860   2.820   0.720
14113TIP3    H142282   6.946   2.777   0.720
14113TIP3    H242283   6.875   2.902   0.673
14114TIP3   OH242284   7.067   1.537   5.351
14114TIP3    H142285   6.990   1.587   5.323
14114TIP3    H242286   7.036   1.484   5.424
14115TIP3   OH242287   1.340   2.884   1.012
14115TIP3    H142288   1.429   2.919   1.005
14115TIP3    H242289   1.344   2.822   1.085
14116TIP3   OH242290   1.626   3.640   1.982
14116TIP3    H142291   1.633   3.680   1.895
14116TIP3    H242292   1.573   3.561   1.968
14117TIP3   OH242293   8.007   1.479   5.529
14117TIP3    H142294   7.912   1.463   5.527
14117TIP3    H242295   8.023   1.518   5.615
14118TIP3   OH242296   4.397   4.303   5.510
14118TIP3    H142297   4.438   4.382   5.474
14118TIP3    H242298   4.469   4.257   5.554
14119TIP3   OH242299   7.841   5.995   1.392
14119TIP3    H142300   7.814   6.044   1.314
14119TIP3    H242301   7.894   5.923   1.357
14120TIP3   OH242302   1.018   5.342   5.377
14120TIP3    H142303   0.934   5.312   5.412
14120TIP3    H242304   1.006   5.340   5.282
14121TIP3   OH242305   6.393   6.895   3.281
14121TIP3    H142306   6.469   6.919   3.229
14121TIP3    H242307   6.406   6.803   3.304
14122TIP3   OH242308   4.686   3.707   5.875
14122TIP3    H142309   4.742   3.727   5.800
14122TIP3    H242310   4.632   3.633   5.846
14123TIP3   OH242311   0.916   2.503   5.372
14123TIP3    H142312   0.857   2.507   5.297
14123TIP3    H242313   0.948   2.412   5.372
14124TIP3   OH242314   0.653   3.732   1.212
14124TIP3    H142315   0.573   3.723   1.161
14124TIP3    H242316   0.657   3.826   1.233
14125TIP3   OH242317   4.502   1.408   0.121
14125TIP3    H142318   4.423   1.414   0.174
14125TIP3    H242319   4.486   1.335   0.062
14126TIP3   OH242320   6.399   2.513   0.606
14126TIP3    H142321   6.459   2.438   0.614
14126TIP3    H242322   6.454   2.589   0.621
14127TIP3   OH242323   2.277   5.094   5.502
14127TIP3    H142324   2.370   5.074   5.485
14127TIP3    H242325   2.251   5.150   5.428
14128TIP3   OH242326   7.368   4.534   2.213
14128TIP3    H142327   7.277   4.560   2.227
14128TIP3    H242328   7.382   4.460   2.272
14129TIP3   OH242329   7.440   7.543   6.434
14129TIP3    H142330   7.376   7.530   6.364
14129TIP3    H242331   7.388   7.568   6.510
14130TIP3   OH242332   1.525   0.323   5.732
14130TIP3    H142333   1.518   0.273   5.814
14130TIP3    H242334   1.501   0.259   5.664
14131TIP3   OH242335   1.012   3.727   5.806
14131TIP3    H142336   1.093   3.772   5.780
14131TIP3    H242337   0.973   3.784   5.872
14132TIP3   OH242338   3.150   6.929   0.703
14132TIP3    H142339   3.196   6.860   0.751
14132TIP3    H242340   3.120   6.990   0.771
14133TIP3   OH242341   6.633   0.430   2.335
14133TIP3    H142342   6.545   0.458   2.358
14133TIP3    H242343   6.625   0.336   2.318
14134TIP3   OH242344   4.636   5.579   2.344
14134TIP3    H142345   4.660   5.554   2.434
14134TIP3    H242346   4.716   5.619   2.309
14135TIP3   OH242347   5.380   3.059   2.448
14135TIP3    H142348   5.444   3.129   2.466
14135TIP3    H242349   5.359   3.024   2.534
14136TIP3   OH242350   1.900   5.315   2.031
14136TIP3    H142351   1.861   5.361   2.105
14136TIP3    H242352   1.979   5.275   2.068
14137TIP3   OH242353   8.049   1.858   2.823
14137TIP3    H142354   8.040   1.949   2.794
14137TIP3    H242355   8.061   1.808   2.743
14138TIP3   OH242356   6.026   7.498   2.752
14138TIP3    H142357   6.078   7.428   2.791
14138TIP3    H242358   6.046   7.494   2.659
14139TIP3   OH242359   7.900   7.783   2.017
14139TIP3    H142360   7.934   7.827   1.939
14139TIP3    H242361   7.852   7.707   1.982
14140TIP3   OH242362   7.601   0.226   3.960
14140TIP3    H142363   7.564   0.312   3.982
14140TIP3    H242364   7.551   0.197   3.884
14141TIP3   OH242365   6.964   6.719   2.663
14141TIP3    H142366   6.977   6.649   2.727
14141TIP3    H242367   6.915   6.677   2.592
14142TIP3   OH242368   7.433   7.531   0.058
14142TIP3    H142369   7.508   7.538   0.117
14142TIP3    H242370   7.470   7.497  -0.023
14143TIP3   OH242371   5.298   5.815   1.382
14143TIP3    H142372   5.296   5.910   1.369
14143TIP3    H242373   5.244   5.781   1.310
14144TIP3   OH242374   4.549   7.570   5.070
14144TIP3    H142375   4.559   7.556   4.976
14144TIP3    H242376   4.466   7.530   5.092
14145TIP3   OH242377   1.201   3.908   1.086
14145TIP3    H142378   1.216   3.814   1.073
14145TIP3    H242379   1.276   3.938   1.137
14146TIP3   OH242380   0.019   5.553   5.572
14146TIP3    H142381   0.011   5.460   5.554
14146TIP3    H242382   0.114   5.569   5.571
14147TIP3   OH242383   7.071   0.982   2.568
14147TIP3    H142384   7.155   1.016   2.599
14147TIP3    H242385   7.040   1.048   2.506
14148TIP3   OH242386   0.980   5.985   0.853
14148TIP3    H142387   0.931   6.041   0.912
14148TIP3    H242388   0.930   5.903   0.850
14149TIP3   OH242389   1.565   2.437   1.163
14149TIP3    H142390   1.610   2.480   1.090
14149TIP3    H242391   1.537   2.353   1.128
14150TIP3   OH242392   0.679   1.479   3.073
14150TIP3    H142393   0.632   1.557   3.105
14150TIP3    H242394   0.610   1.416   3.056
14151TIP3   OH242395   3.207   3.515   5.757
14151TIP3    H142396   3.275   3.488   5.819
14151TIP3    H242397   3.128   3.472   5.787
14152TIP3   OH242398   5.897   6.284   3.267
14152TIP3    H142399   5.880   6.204   3.217
14152TIP3    H242400   5.974   6.263   3.321
14153TIP3   OH242401   0.237   5.972   3.121
14153TIP3    H142402   0.320   5.975   3.168
14153TIP3    H242403   0.240   6.049   3.063
14154TIP3   OH242404   2.381   0.811   5.340
14154TIP3    H142405   2.323   0.746   5.378
14154TIP3    H242406   2.466   0.767   5.334
14155TIP3   OH242407   4.514   3.872   1.998
14155TIP3    H142408   4.560   3.817   2.061
14155TIP3    H242409   4.532   3.830   1.913
14156TIP3   OH242410   0.836   0.056   5.127
14156TIP3    H142411   0.918   0.077   5.082
14156TIP3    H242412   0.862   0.031   5.215
14157TIP3   OH242413   7.101   7.413   1.255
14157TIP3    H142414   7.006   7.423   1.253
14157TIP3    H242415   7.134   7.499   1.281
14158TIP3   OH242416   7.659   2.226   3.371
14158TIP3    H142417   7.644   2.158   3.437
14158TIP3    H242418   7.637   2.185   3.288
14159TIP3   OH242419   0.072   4.984   5.473
14159TIP3    H142420   0.144   4.951   5.420
14159TIP3    H242421   0.099   4.966   5.563
14160TIP3   OH242422   5.682   1.316   3.959
14160TIP3    H142423   5.609   1.279   3.908
14160TIP3    H242424   5.645   1.392   4.003
14161TIP3   OH242425   5.151   6.364   4.655
14161TIP3    H142426   5.238   6.374   4.694
14161TIP3    H242427   5.120   6.453   4.642
14162TIP3   OH242428   5.799   0.826   2.489
14162TIP3    H142429   5.879   0.874   2.512
14162TIP3    H242430   5.821   0.734   2.504
14163TIP3   OH242431   3.595   0.414   4.220
14163TIP3    H142432   3.679   0.393   4.180
14163TIP3    H242433   3.584   0.348   4.289
14164TIP3   OH242434   7.001   0.027   0.543
14164TIP3    H142435   6.987   0.081   0.620
14164TIP3    H242436   7.056   0.081   0.485
14165TIP3   OH242437   4.790   5.230   4.858
14165TIP3    H142438   4.876   5.203   4.827
14165TIP3    H242439   4.737   5.240   4.779
14166TIP3   OH242440   1.296   3.428   2.732
14166TIP3    H142441   1.357   3.392   2.667
14166TIP3    H242442   1.211   3.430   2.686
14167TIP3   OH242443   5.278   0.910   3.061
14167TIP3    H142444   5.215   0.842   3.082
14167TIP3    H242445   5.234   0.992   3.083
14168TIP3   OH242446   8.049   2.563   6.511
14168TIP3    H142447   8.091   2.647   6.493
14168TIP3    H242448   7.956   2.578   6.496
14169TIP3   OH242449   3.597   7.643   3.705
14169TIP3    H142450   3.590   7.556   3.744
14169TIP3    H242451   3.507   7.676   3.705
14170TIP3   OH242452   7.141   3.678   3.210
14170TIP3    H142453   7.085   3.620   3.262
14170TIP3    H242454   7.127   3.765   3.248
14171TIP3   OH242455   0.999   2.443   1.029
14171TIP3    H142456   0.952   2.366   0.995
14171TIP3    H242457   1.091   2.422   1.015
14172TIP3   OH242458   4.028   0.061   2.988
14172TIP3    H142459   3.937   0.040   3.009
14172TIP3    H242460   4.041   0.023   2.901
14173TIP3   OH242461   2.574   7.797   2.161
14173TIP3    H142462   2.551   7.883   2.126
14173TIP3    H242463   2.499   7.741   2.138
14174TIP3   OH242464   0.569   0.633   1.614
14174TIP3    H142465   0.618   0.681   1.546
14174TIP3    H242466   0.504   0.582   1.565
14175TIP3   OH242467   0.329   7.157   4.966
14175TIP3    H142468   0.352   7.228   5.026
14175TIP3    H242469   0.391   7.087   4.987
14176TIP3   OH242470   4.487   1.435   1.778
14176TIP3    H142471   4.401   1.469   1.802
14176TIP3    H242472   4.517   1.390   1.857
14177TIP3   OH242473   8.301   7.492   5.129
14177TIP3    H142474   8.207   7.495   5.149
14177TIP3    H242475   8.335   7.425   5.187
14178TIP3   OH242476   4.503   6.534   5.569
14178TIP3    H142477   4.555   6.480   5.509
14178TIP3    H242478   4.567   6.568   5.631
14179TIP3   OH242479   4.713   5.545   1.901
14179TIP3    H142480   4.640   5.547   1.963
14179TIP3    H242481   4.791   5.550   1.956
14180TIP3   OH242482   5.673   0.770   2.056
14180TIP3    H142483   5.627   0.738   2.134
14180TIP3    H242484   5.735   0.834   2.089
14181TIP3   OH242485   2.490   7.657   4.252
14181TIP3    H142486   2.405   7.698   4.233
14181TIP3    H242487   2.554   7.724   4.228
14182TIP3   OH242488   3.207   2.859   5.370
14182TIP3    H142489   3.290   2.907   5.363
14182TIP3    H242490   3.142   2.927   5.386
14183TIP3   OH242491   4.905   6.733   6.146
14183TIP3    H142492   4.830   6.673   6.152
14183TIP3    H242493   4.876   6.813   6.191
14184TIP3   OH242494   4.290   2.814   6.332
14184TIP3    H142495   4.221   2.755   6.364
14184TIP3    H242496   4.371   2.765   6.346
14185TIP3   OH242497   7.222   0.515   0.301
14185TIP3    H142498   7.303   0.480   0.338
14185TIP3    H242499   7.230   0.501   0.207
14186TIP3   OH242500   2.864   3.734   3.128
14186TIP3    H142501   2.791   3.763   3.073
14186TIP3    H242502   2.926   3.696   3.066
14187TIP3   OH242503   4.497   6.422   0.893
14187TIP3    H142504   4.424   6.360   0.896
14187TIP3    H242505   4.485   6.469   0.810
14188TIP3   OH242506   3.807   2.526   3.634
14188TIP3    H142507   3.860   2.591   3.587
14188TIP3    H242508   3.787   2.459   3.568
14189TIP3   OH242509   5.614   0.214   2.453
14189TIP3    H142510   5.575   0.294   2.419
14189TIP3    H242511   5.539   0.154   2.462
14190TIP3   OH242512   5.159   4.115   1.297
14190TIP3    H142513   5.073   4.148   1.269
14190TIP3    H242514   5.168   4.031   1.251
14191TIP3   OH242515   5.845   5.693   5.146
14191TIP3    H142516   5.762   5.724   5.110
14191TIP3    H242517   5.885   5.771   5.184
14192TIP3   OH242518   7.481   4.835   2.956
14192TIP3    H142519   7.480   4.930   2.964
14192TIP3    H242520   7.402   4.806   3.002
14193TIP3   OH242521   6.837   1.190   1.289
14193TIP3    H142522   6.855   1.283   1.305
14193TIP3    H242523   6.923   1.152   1.274
14194TIP3   OH242524   3.646   2.617   3.921
14194TIP3    H142525   3.643   2.596   4.014
14194TIP3    H242526   3.569   2.671   3.905
14195TIP3   OH242527   7.243   2.698   2.545
14195TIP3    H142528   7.298   2.763   2.589
14195TIP3    H242529   7.304   2.644   2.496
14196TIP3   OH242530   5.709   3.915   1.123
14196TIP3    H142531   5.741   3.922   1.213
14196TIP3    H242532   5.778   3.869   1.076
14197TIP3   OH242533   0.858   7.006   5.764
14197TIP3    H142534   0.814   6.969   5.687
14197TIP3    H242535   0.807   6.975   5.838
14198TIP3   OH242536   4.143   5.389   1.625
14198TIP3    H142537   4.158   5.443   1.703
14198TIP3    H242538   4.114   5.451   1.558
14199TIP3   OH242539   1.801   3.223   5.831
14199TIP3    H142540   1.728   3.161   5.828
14199TIP3    H242541   1.841   3.218   5.745
14200TIP3   OH242542   0.184   7.719   2.402
14200TIP3    H142543   0.227   7.783   2.346
14200TIP3    H242544   0.111   7.767   2.441
14201TIP3   OH242545   4.383   0.779   4.318
14201TIP3    H142546   4.345   0.813   4.237
14201TIP3    H242547   4.424   0.856   4.359
14202TIP3   OH242548   4.877  -0.019   4.355
14202TIP3    H142549   4.901   0.049   4.293
14202TIP3    H242550   4.896   0.018   4.441
14203TIP3   OH242551   2.559   6.029   0.907
14203TIP3    H142552   2.598   6.059   0.989
14203TIP3    H242553   2.561   6.106   0.850
14204TIP3   OH242554   8.074   5.293   1.420
14204TIP3    H142555   8.153   5.337   1.388
14204TIP3    H242556   8.082   5.203   1.389
14205TIP3   OH242557   0.281   4.093   0.915
14205TIP3    H142558   0.348   4.044   0.964
14205TIP3    H242559   0.202   4.040   0.923
14206TIP3   OH242560   5.106   7.115   4.751
14206TIP3    H142561   5.033   7.114   4.689
14206TIP3    H242562   5.095   7.195   4.801
14207TIP3   OH242563   5.643   2.987   2.117
14207TIP3    H142564   5.699   3.001   2.041
14207TIP3    H242565   5.556   3.018   2.090
14208TIP3   OH242566   3.995   4.638   2.780
14208TIP3    H142567   3.968   4.709   2.838
14208TIP3    H242568   3.924   4.574   2.786
14209TIP3   OH242569   0.965   1.622   0.411
14209TIP3    H142570   0.928   1.578   0.334
14209TIP3    H242571   1.018   1.693   0.375
14210TIP3   OH242572   3.635   5.135   4.657
14210TIP3    H142573   3.605   5.224   4.634
14210TIP3    H242574   3.582   5.077   4.602
14211TIP3   OH242575   0.801   1.731   6.572
14211TIP3    H142576   0.722   1.677   6.564
14211TIP3    H242577   0.870   1.677   6.533
14212TIP3   OH242578   1.463   3.669   0.755
14212TIP3    H142579   1.463   3.723   0.834
14212TIP3    H242580   1.431   3.584   0.784
14213TIP3   OH242581   3.090   2.608   6.393
14213TIP3    H142582   2.997   2.607   6.369
14213TIP3    H242583   3.136   2.618   6.310
14214TIP3   OH242584   2.024   0.626   1.590
14214TIP3    H142585   2.034   0.538   1.626
14214TIP3    H242586   2.041   0.616   1.496
14215TIP3   OH242587   3.824   2.439   3.023
14215TIP3    H142588   3.900   2.493   3.046
14215TIP3    H242589   3.861   2.354   3.002
14216TIP3   OH242590   1.545   2.506   4.410
14216TIP3    H142591   1.521   2.532   4.321
14216TIP3    H242592   1.494   2.427   4.427
14217TIP3   OH242593   7.755   3.630   6.407
14217TIP3    H142594   7.835   3.655   6.454
14217TIP3    H242595   7.732   3.708   6.357
14218TIP3   OH242596   2.543   3.724   4.808
14218TIP3    H142597   2.629   3.685   4.823
14218TIP3    H242598   2.550   3.812   4.845
14219TIP3   OH242599   3.065   6.509   4.019
14219TIP3    H142600   2.996   6.443   4.031
14219TIP3    H242601   3.073   6.517   3.924
14220TIP3   OH242602   5.019   3.568   0.900
14220TIP3    H142603   5.089   3.524   0.852
14220TIP3    H242604   4.996   3.644   0.846
14221TIP3   OH242605   8.218   1.088   1.363
14221TIP3    H142606   8.276   1.095   1.439
14221TIP3    H242607   8.131   1.074   1.400
14222TIP3   OH242608   1.889   7.311   5.916
14222TIP3    H142609   1.902   7.256   5.993
14222TIP3    H242610   1.837   7.385   5.948
14223TIP3   OH242611   6.141   0.644   4.483
14223TIP3    H142612   6.138   0.563   4.432
14223TIP3    H242613   6.074   0.699   4.443
14224TIP3   OH242614   2.125   5.201   2.119
14224TIP3    H142615   2.175   5.198   2.201
14224TIP3    H242616   2.188   5.229   2.053
14225TIP3   OH242617   1.898   6.378   1.866
14225TIP3    H142618   1.892   6.470   1.840
14225TIP3    H242619   1.885   6.329   1.784
14226TIP3   OH242620   7.197   2.399   3.600
14226TIP3    H142621   7.118   2.443   3.570
14226TIP3    H242622   7.227   2.452   3.674
14227TIP3   OH242623   3.174   3.943   2.194
14227TIP3    H142624   3.158   3.900   2.278
14227TIP3    H242625   3.268   3.935   2.180
14228TIP3   OH242626   5.194   5.540   2.856
14228TIP3    H142627   5.142   5.618   2.836
14228TIP3    H242628   5.158   5.508   2.939
14229TIP3   OH242629   2.037   6.577   5.520
14229TIP3    H142630   2.016   6.500   5.467
14229TIP3    H242631   2.133   6.580   5.520
14230TIP3   OH242632   0.182   4.211   4.289
14230TIP3    H142633   0.269   4.211   4.249
14230TIP3    H242634   0.200   4.225   4.382
14231TIP3   OH242635   7.211   1.567   0.929
14231TIP3    H142636   7.174   1.653   0.911
14231TIP3    H242637   7.276   1.553   0.860
14232TIP3   OH242638   0.533   5.830   5.946
14232TIP3    H142639   0.534   5.857   6.037
14232TIP3    H242640   0.620   5.851   5.913
14233TIP3   OH242641   4.709   4.932   1.924
14233TIP3    H142642   4.623   4.941   1.964
14233TIP3    H242643   4.736   5.022   1.905
14234TIP3   OH242644   0.722   0.516   0.661
14234TIP3    H142645   0.665   0.461   0.714
14234TIP3    H242646   0.685   0.512   0.573
14235TIP3   OH242647   6.475   4.693   5.688
14235TIP3    H142648   6.556   4.643   5.696
14235TIP3    H242649   6.474   4.723   5.597
14236TIP3   OH242650   0.680   2.642   3.048
14236TIP3    H142651   0.674   2.547   3.062
14236TIP3    H242652   0.763   2.654   3.002
14237TIP3   OH242653   6.076   7.595   6.214
14237TIP3    H142654   6.138   7.666   6.229
14237TIP3    H242655   6.001   7.617   6.270
14238TIP3   OH242656   3.003   7.368   6.605
14238TIP3    H142657   2.941   7.310   6.559
14238TIP3    H242658   3.059   7.309   6.654
14239TIP3   OH242659   5.859   0.159   1.745
14239TIP3    H142660   5.849   0.092   1.812
14239TIP3    H242661   5.777   0.208   1.747
14240TIP3   OH242662   7.967   0.740   1.673
14240TIP3    H142663   8.020   0.666   1.645
14240TIP3    H242664   8.015   0.817   1.642
14241TIP3   OH242665   1.001   7.598   4.877
14241TIP3    H142666   0.929   7.652   4.912
14241TIP3    H242667   0.977   7.583   4.785
14242TIP3   OH242668   3.048   6.479   1.083
14242TIP3    H142669   2.955   6.454   1.088
14242TIP3    H242670   3.075   6.487   1.175
14243TIP3   OH242671   7.387   0.750   2.718
14243TIP3    H142672   7.344   0.743   2.632
14243TIP3    H242673   7.316   0.736   2.781
14244TIP3   OH242674   7.509   2.182   1.922
14244TIP3    H142675   7.509   2.270   1.959
14244TIP3    H242676   7.542   2.126   1.992
14245TIP3   OH242677   5.846   5.897   4.649
14245TIP3    H142678   5.855   5.819   4.594
14245TIP3    H242679   5.787   5.870   4.719
14246TIP3   OH242680   5.330   4.280   2.344
14246TIP3    H142681   5.354   4.203   2.394
14246TIP3    H242682   5.412   4.308   2.303
14247TIP3   OH242683   3.893   3.851   1.977
14247TIP3    H142684   3.836   3.881   2.048
14247TIP3    H242685   3.981   3.877   2.005
14248TIP3   OH242686   3.094   6.379   5.547
14248TIP3    H142687   3.092   6.471   5.574
14248TIP3    H242688   3.002   6.356   5.534
14249TIP3   OH242689   3.915   3.932   2.265
14249TIP3    H142690   3.897   4.025   2.254
14249TIP3    H242691   3.994   3.928   2.319
14250TIP3   OH242692   1.284   1.614   4.053
14250TIP3    H142693   1.247   1.678   3.992
14250TIP3    H242694   1.234   1.625   4.133
14251TIP3   OH242695   0.732   3.008   3.122
14251TIP3    H142696   0.650   2.985   3.166
14251TIP3    H242697   0.727   2.967   3.036
14252TIP3   OH242698   4.441   7.766   5.470
14252TIP3    H142699   4.380   7.809   5.411
14252TIP3    H242700   4.514   7.740   5.414
14253TIP3   OH242701   4.472   2.570   5.808
14253TIP3    H142702   4.497   2.637   5.744
14253TIP3    H242703   4.523   2.493   5.782
14254TIP3   OH242704   6.447   3.305   4.709
14254TIP3    H142705   6.378   3.334   4.768
14254TIP3    H242706   6.525   3.351   4.739
14255TIP3   OH242707   3.243   3.869   1.906
14255TIP3    H142708   3.329   3.828   1.894
14255TIP3    H242709   3.236   3.882   2.000
14256TIP3   OH242710   4.375   7.484   3.094
14256TIP3    H142711   4.328   7.443   3.020
14256TIP3    H242712   4.410   7.564   3.057
14257TIP3   OH242713   2.774   4.616   2.465
14257TIP3    H142714   2.864   4.648   2.475
14257TIP3    H242715   2.783   4.526   2.436
14258TIP3   OH242716   7.870   2.223   0.013
14258TIP3    H142717   7.921   2.213   0.093
14258TIP3    H242718   7.804   2.154   0.018
14259TIP3   OH242719   5.738   7.529   5.068
14259TIP3    H142720   5.677   7.583   5.018
14259TIP3    H242721   5.685   7.494   5.141
14260TIP3   OH242722   5.541   6.888   5.927
14260TIP3    H142723   5.499   6.812   5.966
14260TIP3    H242724   5.526   6.879   5.833
14261TIP3   OH242725   4.150   6.035   1.436
14261TIP3    H142726   4.119   6.035   1.346
14261TIP3    H242727   4.117   6.118   1.472
14262TIP3   OH242728   5.914   1.497   1.845
14262TIP3    H142729   5.978   1.541   1.790
14262TIP3    H242730   5.890   1.563   1.911
14263TIP3   OH242731   5.053   1.803   0.545
14263TIP3    H142732   5.130   1.795   0.601
14263TIP3    H242733   4.983   1.833   0.603
14264TIP3   OH242734   7.989   4.955   1.362
14264TIP3    H142735   7.897   4.963   1.385
14264TIP3    H242736   8.000   5.012   1.286
14265TIP3   OH242737   1.413   0.091   6.443
14265TIP3    H142738   1.439   0.183   6.436
14265TIP3    H242739   1.320   0.094   6.464
14266TIP3   OH242740   7.532   6.594   3.483
14266TIP3    H142741   7.609   6.624   3.435
14266TIP3    H242742   7.567   6.532   3.548
14267TIP3   OH242743   1.496   2.496   5.304
14267TIP3    H142744   1.518   2.482   5.396
14267TIP3    H242745   1.451   2.581   5.302
14268TIP3   OH242746   7.113   2.676   5.570
14268TIP3    H142747   7.106   2.770   5.584
14268TIP3    H242748   7.131   2.640   5.657
14269TIP3   OH242749   3.497   0.997  -0.010
14269TIP3    H142750   3.508   0.969   0.081
14269TIP3    H242751   3.557   0.941  -0.060
14270TIP3   OH242752   2.376   5.105   1.202
14270TIP3    H142753   2.301   5.055   1.170
14270TIP3    H242754   2.388   5.174   1.137
14271TIP3   OH242755   6.568   1.344   6.051
14271TIP3    H142756   6.479   1.318   6.075
14271TIP3    H242757   6.585   1.299   5.968
14272TIP3   OH242758   6.959   2.257   2.721
14272TIP3    H142759   7.040   2.282   2.677
14272TIP3    H242760   6.972   2.166   2.746
14273TIP3   OH242761   2.216   5.265   5.291
14273TIP3    H142762   2.130   5.282   5.252
14273TIP3    H242763   2.270   5.338   5.262
14274TIP3   OH242764   6.434   4.173   3.245
14274TIP3    H142765   6.403   4.125   3.321
14274TIP3    H242766   6.523   4.142   3.231
14275TIP3   OH242767   5.691   3.899   1.738
14275TIP3    H142768   5.615   3.954   1.756
14275TIP3    H242769   5.763   3.940   1.785
14276TIP3   OH242770   8.055   4.807   6.583
14276TIP3    H142771   8.071   4.779   6.493
14276TIP3    H242772   8.140   4.799   6.626
14277TIP3   OH242773   5.073   7.254   4.271
14277TIP3    H142774   4.990   7.262   4.224
14277TIP3    H242775   5.138   7.241   4.202
14278TIP3   OH242776   5.543   4.813   4.394
14278TIP3    H142777   5.629   4.805   4.436
14278TIP3    H242778   5.559   4.863   4.314
14279TIP3   OH242779   6.059   2.171   0.442
14279TIP3    H142780   6.136   2.113   0.439
14279TIP3    H242781   6.044   2.195   0.351
14280TIP3   OH242782   8.156   6.346   3.960
14280TIP3    H142783   8.065   6.360   3.931
14280TIP3    H242784   8.158   6.380   4.050
14281TIP3   OH242785   6.144   3.298   3.254
14281TIP3    H142786   6.217   3.286   3.193
14281TIP3    H242787   6.180   3.350   3.325
14282TIP3   OH242788   4.125   1.421   3.023
14282TIP3    H142789   4.164   1.502   2.993
14282TIP3    H242790   4.180   1.352   2.985
14283TIP3   OH242791   7.090   1.539   0.197
14283TIP3    H142792   7.108   1.462   0.143
14283TIP3    H242793   7.008   1.574   0.163
14284TIP3   OH242794   5.377   5.179   3.893
14284TIP3    H142795   5.287   5.207   3.913
14284TIP3    H242796   5.383   5.091   3.929
14285TIP3   OH242797   4.906   0.102   4.816
14285TIP3    H142798   4.912   0.094   4.721
14285TIP3    H242799   4.898   0.012   4.847
14286TIP3   OH242800   2.121   1.922   4.460
14286TIP3    H142801   2.168   1.998   4.497
14286TIP3    H242802   2.143   1.924   4.367
14287TIP3   OH242803   0.959   5.640   0.484
14287TIP3    H142804   1.054   5.646   0.467
14287TIP3    H242805   0.953   5.593   0.567
14288TIP3   OH242806   0.122   6.159   1.089
14288TIP3    H142807   0.060   6.221   1.054
14288TIP3    H242808   0.069   6.095   1.137
14289TIP3   OH242809   0.871   6.641   5.950
14289TIP3    H142810   0.944   6.685   5.994
14289TIP3    H242811   0.912   6.593   5.878
14290TIP3   OH242812   3.414   2.104   3.942
14290TIP3    H142813   3.505   2.082   3.924
14290TIP3    H242814   3.368   2.089   3.859
14291TIP3   OH242815   0.213   2.714   6.558
14291TIP3    H142816   0.140   2.674   6.510
14291TIP3    H242817   0.287   2.709   6.498
14292TIP3   OH242818   5.208   3.797   1.216
14292TIP3    H142819   5.275   3.759   1.272
14292TIP3    H242820   5.204   3.739   1.140
14293TIP3   OH242821   7.689   4.141   4.219
14293TIP3    H142822   7.691   4.119   4.312
14293TIP3    H242823   7.599   4.123   4.192
14294TIP3   OH242824   0.747   3.951   1.384
14294TIP3    H142825   0.803   3.918   1.454
14294TIP3    H242826   0.808   3.970   1.313
14295TIP3   OH242827   7.803   6.925   6.307
14295TIP3    H142828   7.783   7.000   6.252
14295TIP3    H242829   7.883   6.888   6.269
14296TIP3   OH242830   7.967   6.122   0.506
14296TIP3    H142831   8.026   6.084   0.441
14296TIP3    H242832   7.999   6.088   0.590
14297TIP3   OH242833   6.479   5.231   1.320
14297TIP3    H142834   6.554   5.291   1.313
14297TIP3    H242835   6.496   5.164   1.254
14298TIP3   OH242836   3.127   4.556   4.275
14298TIP3    H142837   3.189   4.484   4.263
14298TIP3    H242838   3.069   4.551   4.198
14299TIP3   OH242839   7.671   0.961   3.926
14299TIP3    H142840   7.607   1.012   3.976
14299TIP3    H242841   7.754   1.005   3.943
14300TIP3   OH242842   4.669   0.052   2.090
14300TIP3    H142843   4.637  -0.028   2.132
14300TIP3    H242844   4.674   0.030   1.997
14301TIP3   OH242845   6.227   1.745   1.528
14301TIP3    H142846   6.234   1.840   1.523
14301TIP3    H242847   6.183   1.720   1.447
14302TIP3   OH242848   6.337   3.229   6.523
14302TIP3    H142849   6.350   3.168   6.450
14302TIP3    H242850   6.289   3.177   6.588
14303TIP3   OH242851   0.918   0.475   3.801
14303TIP3    H142852   1.004   0.484   3.760
14303TIP3    H242853   0.857   0.468   3.727
14304TIP3   OH242854   7.593   6.930   0.540
14304TIP3    H142855   7.677   6.965   0.510
14304TIP3    H242856   7.558   6.998   0.598
14305TIP3   OH242857   2.675   4.233   5.394
14305TIP3    H142858   2.582   4.245   5.376
14305TIP3    H242859   2.719   4.281   5.323
14306TIP3   OH242860   0.749   6.257   5.463
14306TIP3    H142861   0.662   6.247   5.424
14306TIP3    H242862   0.761   6.177   5.514
14307TIP3   OH242863   2.417   2.983   1.573
14307TIP3    H142864   2.323   2.973   1.588
14307TIP3    H242865   2.459   2.926   1.637
14308TIP3   OH242866   1.635   4.618   6.370
14308TIP3    H142867   1.692   4.553   6.330
14308TIP3    H242868   1.546   4.592   6.344
14309TIP3   OH242869   2.609   3.391   6.289
14309TIP3    H142870   2.678   3.331   6.260
14309TIP3    H242871   2.529   3.338   6.285
14310TIP3   OH242872   4.157   4.884   1.631
14310TIP3    H142873   4.197   4.972   1.626
14310TIP3    H242874   4.197   4.844   1.709
14311TIP3   OH242875   7.657   7.291   5.868
14311TIP3    H142876   7.716   7.341   5.811
14311TIP3    H242877   7.655   7.204   5.829
14312TIP3   OH242878   7.313   6.225   5.083
14312TIP3    H142879   7.329   6.253   5.173
14312TIP3    H242880   7.337   6.132   5.083
14313TIP3   OH242881   1.662   2.773   4.615
14313TIP3    H142882   1.755   2.752   4.620
14313TIP3    H242883   1.634   2.737   4.531
14314TIP3   OH242884   7.869   0.752   4.762
14314TIP3    H142885   7.841   0.757   4.853
14314TIP3    H242886   7.954   0.797   4.761
14315TIP3   OH242887   6.363   6.744   4.714
14315TIP3    H142888   6.276   6.777   4.689
14315TIP3    H242889   6.423   6.815   4.692
14316TIP3   OH242890  -0.022   4.213   4.872
14316TIP3    H142891  -0.039   4.131   4.826
14316TIP3    H242892   0.073   4.220   4.874
14317TIP3   OH242893   3.808   6.378   6.297
14317TIP3    H142894   3.740   6.393   6.363
14317TIP3    H242895   3.868   6.451   6.308
14318TIP3   OH242896   6.699   4.977   3.262
14318TIP3    H142897   6.638   4.972   3.189
14318TIP3    H242898   6.708   5.071   3.280
14319TIP3   OH242899   5.776   6.252   1.040
14319TIP3    H142900   5.839   6.228   1.109
14319TIP3    H242901   5.699   6.284   1.088
14320TIP3   OH242902   6.700   7.064   1.536
14320TIP3    H142903   6.775   7.040   1.590
14320TIP3    H242904   6.738   7.105   1.458
14321TIP3   OH242905   6.975   4.097   4.371
14321TIP3    H142906   6.915   4.168   4.347
14321TIP3    H242907   7.008   4.065   4.287
14322TIP3   OH242908   7.086   2.667   5.299
14322TIP3    H142909   7.098   2.676   5.393
14322TIP3    H242910   7.023   2.595   5.289
14323TIP3   OH242911   5.896   0.819   5.883
14323TIP3    H142912   5.831   0.762   5.923
14323TIP3    H242913   5.902   0.789   5.792
14324TIP3   OH242914   7.636   0.136   1.895
14324TIP3    H142915   7.547   0.115   1.869
14324TIP3    H242916   7.652   0.081   1.972
14325TIP3   OH242917   7.768   2.378   3.674
14325TIP3    H142918   7.729   2.351   3.590
14325TIP3    H242919   7.811   2.461   3.656
14326TIP3   OH242920   4.575   2.071   0.133
14326TIP3    H142921   4.636   2.138   0.101
14326TIP3    H242922   4.490   2.115   0.134
14327TIP3   OH242923   1.703   4.842   0.883
14327TIP3    H142924   1.717   4.855   0.789
14327TIP3    H242925   1.636   4.905   0.907
14328TIP3   OH242926   1.949   5.452   3.311
14328TIP3    H142927   1.868   5.425   3.267
14328TIP3    H242928   1.931   5.540   3.344
14329TIP3   OH242929   3.045   1.530   4.376
14329TIP3    H142930   3.064   1.509   4.284
14329TIP3    H242931   2.985   1.604   4.371
14330TIP3   OH242932   1.439   6.250   2.093
14330TIP3    H142933   1.401   6.337   2.087
14330TIP3    H242934   1.513   6.260   2.153
14331TIP3   OH242935   6.890   0.714   3.747
14331TIP3    H142936   6.917   0.749   3.832
14331TIP3    H242937   6.919   0.780   3.684
14332TIP3   OH242938   7.280   0.391   1.064
14332TIP3    H142939   7.324   0.467   1.100
14332TIP3    H242940   7.276   0.407   0.969
14333TIP3   OH242941   2.132   1.468   3.123
14333TIP3    H142942   2.199   1.459   3.191
14333TIP3    H242943   2.063   1.521   3.164
14334TIP3   OH242944   5.286   6.622   3.271
14334TIP3    H142945   5.241   6.678   3.208
14334TIP3    H242946   5.218   6.594   3.332
14335TIP3   OH242947   5.971   7.786   3.164
14335TIP3    H142948   6.048   7.743   3.126
14335TIP3    H242949   5.984   7.779   3.259
14336TIP3   OH242950   3.735   3.846   1.374
14336TIP3    H142951   3.808   3.787   1.355
14336TIP3    H242952   3.759   3.928   1.332
14337TIP3   OH242953   7.017   4.538   4.154
14337TIP3    H142954   7.031   4.629   4.128
14337TIP3    H242955   6.947   4.541   4.219
14338TIP3   OH242956   3.078   3.162   3.947
14338TIP3    H142957   3.123   3.089   3.990
14338TIP3    H242958   3.033   3.122   3.873
14339TIP3   OH242959   3.443   0.522   3.773
14339TIP3    H142960   3.536   0.527   3.794
14339TIP3    H242961   3.439   0.546   3.680
14340TIP3   OH242962   2.504   7.058   6.029
14340TIP3    H142963   2.578   7.104   5.990
14340TIP3    H242964   2.537   6.971   6.049
14341TIP3   OH242965   1.990   6.029   4.323
14341TIP3    H142966   2.015   6.121   4.325
14341TIP3    H242967   1.954   6.016   4.235
14342TIP3   OH242968   2.239   1.522   0.676
14342TIP3    H142969   2.146   1.544   0.673
14342TIP3    H242970   2.260   1.489   0.589
14343TIP3   OH242971   1.406   0.853   1.672
14343TIP3    H142972   1.399   0.865   1.578
14343TIP3    H242973   1.350   0.778   1.692
14344TIP3   OH242974   6.225   4.012   4.303
14344TIP3    H142975   6.147   4.009   4.359
14344TIP3    H242976   6.287   4.068   4.351
14345TIP3   OH242977   4.641   6.244   1.464
14345TIP3    H142978   4.679   6.225   1.378
14345TIP3    H242979   4.686   6.185   1.524
14346TIP3   OH242980   0.374   3.567   3.177
14346TIP3    H142981   0.338   3.538   3.093
14346TIP3    H242982   0.354   3.495   3.238
14347TIP3   OH242983   5.586   7.414   5.307
14347TIP3    H142984   5.645   7.409   5.382
14347TIP3    H242985   5.519   7.477   5.333
14348TIP3   OH242986   8.063   2.011   1.706
14348TIP3    H142987   8.104   1.979   1.626
14348TIP3    H242988   8.101   2.098   1.719
14349TIP3   OH242989   5.271   1.563   1.068
14349TIP3    H142990   5.344   1.502   1.076
14349TIP3    H242991   5.232   1.566   1.155
14350TIP3   OH242992   3.561   4.529   3.190
14350TIP3    H142993   3.648   4.518   3.228
14350TIP3    H242994   3.557   4.465   3.119
14351TIP3   OH242995   5.748   2.626   2.710
14351TIP3    H142996   5.780   2.613   2.620
14351TIP3    H242997   5.789   2.707   2.738
14352TIP3   OH242998   2.929   5.913   5.097
14352TIP3    H142999   3.002   5.864   5.060
14352TIP3    H243000   2.860   5.848   5.111
14353TIP3   OH243001   6.306   2.841   4.083
14353TIP3    H143002   6.278   2.795   4.163
14353TIP3    H243003   6.394   2.808   4.066
14354TIP3   OH243004   6.838   5.580   4.395
14354TIP3    H143005   6.831   5.589   4.490
14354TIP3    H243006   6.760   5.622   4.360
14355TIP3   OH243007   3.476   3.832   1.435
14355TIP3    H143008   3.451   3.800   1.522
14355TIP3    H243009   3.572   3.833   1.437
14356TIP3   OH243010   1.262   0.614   1.488
14356TIP3    H143011   1.293   0.545   1.547
14356TIP3    H243012   1.302   0.592   1.404
14357TIP3   OH243013   3.039   5.979   2.608
14357TIP3    H143014   3.134   5.966   2.600
14357TIP3    H243015   3.003   5.891   2.602
14358TIP3   OH243016   8.045   7.543   3.093
14358TIP3    H143017   8.117   7.488   3.062
14358TIP3    H243018   8.089   7.614   3.141
14359TIP3   OH243019   7.474   6.195   3.078
14359TIP3    H143020   7.502   6.170   3.166
14359TIP3    H243021   7.529   6.270   3.056
14360TIP3   OH243022   4.814   0.642   5.849
14360TIP3    H143023   4.835   0.698   5.924
14360TIP3    H243024   4.736   0.681   5.810
14361TIP3   OH243025   6.714   4.576   5.623
14361TIP3    H143026   6.747   4.531   5.545
14361TIP3    H243027   6.776   4.649   5.637
14362TIP3   OH243028   0.050   2.565   3.435
14362TIP3    H143029   0.063   2.657   3.413
14362TIP3    H243030   0.079   2.517   3.357
14363TIP3   OH243031   1.644   6.990   5.049
14363TIP3    H143032   1.721   7.016   4.998
14363TIP3    H243033   1.675   6.991   5.140
14364TIP3   OH243034   5.076   5.228   0.373
14364TIP3    H143035   5.012   5.166   0.338
14364TIP3    H243036   5.160   5.197   0.340
14365TIP3   OH243037   6.969   0.455   4.128
14365TIP3    H143038   6.950   0.514   4.200
14365TIP3    H243039   7.059   0.477   4.102
14366TIP3   OH243040   0.372   1.327   1.446
14366TIP3    H143041   0.389   1.298   1.535
14366TIP3    H243042   0.290   1.375   1.451
14367TIP3   OH243043   0.369   1.813   1.524
14367TIP3    H143044   0.318   1.732   1.520
14367TIP3    H243045   0.402   1.825   1.435
14368TIP3   OH243046   7.169   5.256   2.331
14368TIP3    H143047   7.259   5.270   2.361
14368TIP3    H243048   7.119   5.327   2.372
14369TIP3   OH243049   0.806   5.733   5.638
14369TIP3    H143050   0.847   5.699   5.559
14369TIP3    H243051   0.834   5.674   5.708
14370TIP3   OH243052   4.310   0.212   1.350
14370TIP3    H143053   4.397   0.249   1.364
14370TIP3    H243054   4.254   0.260   1.411
14371TIP3   OH243055   4.946   3.749   2.885
14371TIP3    H143056   4.876   3.766   2.949
14371TIP3    H243057   4.935   3.657   2.862
14372TIP3   OH243058   6.880  -0.003   5.038
14372TIP3    H143059   6.857   0.089   5.051
14372TIP3    H243060   6.861  -0.045   5.123
14373TIP3   OH243061   2.557   5.472   5.241
14373TIP3    H143062   2.472   5.516   5.235
14373TIP3    H243063   2.601   5.494   5.159
14374TIP3   OH243064   2.350   0.897   0.064
14374TIP3    H143065   2.413   0.946   0.011
14374TIP3    H243066   2.388   0.895   0.151
14375TIP3   OH243067   4.500   1.836   0.305
14375TIP3    H143068   4.485   1.754   0.257
14375TIP3    H243069   4.592   1.856   0.289
14376TIP3   OH243070   5.736   3.866   4.572
14376TIP3    H143071   5.776   3.933   4.628
14376TIP3    H243072   5.647   3.856   4.606
14377TIP3   OH243073   6.305   5.364   1.099
14377TIP3    H143074   6.380   5.411   1.064
14377TIP3    H243075   6.341   5.309   1.169
14378TIP3   OH243076   1.973   1.248   1.892
14378TIP3    H143077   1.910   1.234   1.822
14378TIP3    H243078   2.051   1.280   1.847
14379TIP3   OH243079   4.974   4.393   1.231
14379TIP3    H143080   4.913   4.324   1.259
14379TIP3    H243081   4.970   4.458   1.301
14380TIP3   OH243082   4.985   6.915   3.727
14380TIP3    H143083   4.898   6.950   3.745
14380TIP3    H243084   4.991   6.836   3.781
14381TIP3   OH243085   0.397   2.133   1.073
14381TIP3    H143086   0.473   2.154   1.126
14381TIP3    H243087   0.370   2.046   1.102
14382TIP3   OH243088   3.116   4.378   5.943
14382TIP3    H143089   3.153   4.355   6.029
14382TIP3    H243090   3.036   4.427   5.963
14383TIP3   OH243091   2.632   2.807   4.386
14383TIP3    H143092   2.718   2.791   4.346
14383TIP3    H243093   2.587   2.723   4.382
14384TIP3   OH243094   3.792   1.763   1.821
14384TIP3    H143095   3.791   1.778   1.916
14384TIP3    H243096   3.702   1.781   1.793
14385TIP3   OH243097   7.463   0.990   6.629
14385TIP3    H143098   7.451   0.918   6.567
14385TIP3    H243099   7.512   0.951   6.702
14386TIP3   OH243100   1.563   1.246   6.085
14386TIP3    H143101   1.641   1.258   6.032
14386TIP3    H243102   1.592   1.192   6.158
14387TIP3   OH243103   2.983   2.392   6.192
14387TIP3    H143104   2.946   2.413   6.107
14387TIP3    H243105   3.076   2.416   6.185
14388TIP3   OH243106   4.372   7.121   1.827
14388TIP3    H143107   4.377   7.056   1.897
14388TIP3    H243108   4.463   7.146   1.811
14389TIP3   OH243109   0.640   5.264   4.824
14389TIP3    H143110   0.631   5.291   4.733
14389TIP3    H243111   0.601   5.337   4.874
14390TIP3   OH243112   0.055   0.715   6.119
14390TIP3    H143113   0.136   0.701   6.166
14390TIP3    H243114   0.006   0.633   6.130
14391TIP3   OH243115   4.399   4.409   4.507
14391TIP3    H143116   4.491   4.412   4.482
14391TIP3    H243117   4.399   4.369   4.594
14392TIP3   OH243118   7.658   2.011   4.536
14392TIP3    H143119   7.718   1.948   4.574
14392TIP3    H243120   7.624   2.060   4.611
14393TIP3   OH243121   7.905   2.612   3.578
14393TIP3    H143122   7.915   2.548   3.507
14393TIP3    H243123   7.985   2.603   3.630
14394TIP3   OH243124   4.655   3.642   1.067
14394TIP3    H143125   4.692   3.558   1.040
14394TIP3    H243126   4.645   3.691   0.985
14395TIP3   OH243127   5.294   5.910   2.545
14395TIP3    H143128   5.306   6.005   2.542
14395TIP3    H243129   5.355   5.877   2.479
14396TIP3   OH243130   2.019   4.442   1.536
14396TIP3    H143131   2.074   4.422   1.612
14396TIP3    H243132   1.952   4.501   1.569
14397TIP3   OH243133   7.965   0.304   5.097
14397TIP3    H143134   8.016   0.384   5.096
14397TIP3    H243135   7.874   0.333   5.088
14398TIP3   OH243136   7.115   1.192   6.611
14398TIP3    H143137   7.147   1.102   6.615
14398TIP3    H243138   7.084   1.211   6.699
14399TIP3   OH243139   7.216   3.990   6.573
14399TIP3    H143140   7.151   4.023   6.636
14399TIP3    H243141   7.197   3.897   6.566
14400TIP3   OH243142   1.871   0.106   0.861
14400TIP3    H143143   1.920   0.026   0.844
14400TIP3    H243144   1.783   0.076   0.884
14401TIP3   OH243145   3.289   3.228   0.429
14401TIP3    H143146   3.324   3.209   0.342
14401TIP3    H243147   3.211   3.174   0.436
14402TIP3   OH243148   1.834   4.549   5.472
14402TIP3    H143149   1.859   4.468   5.516
14402TIP3    H243150   1.818   4.610   5.544
14403TIP3   OH243151   5.561   7.298   0.743
14403TIP3    H143152   5.560   7.364   0.673
14403TIP3    H243153   5.505   7.227   0.710
14404TIP3   OH243154   7.457   1.311   6.359
14404TIP3    H143155   7.373   1.299   6.314
14404TIP3    H243156   7.436   1.301   6.452
14405TIP3   OH243157   7.689   1.544   6.065
14405TIP3    H143158   7.699   1.532   6.159
14405TIP3    H243159   7.778   1.553   6.032
14406TIP3   OH243160   6.747   7.648   4.041
14406TIP3    H143161   6.691   7.724   4.029
14406TIP3    H243162   6.833   7.684   4.064
14407TIP3   OH243163   1.166   3.691   5.457
14407TIP3    H143164   1.084   3.643   5.465
14407TIP3    H243165   1.234   3.628   5.482
14408TIP3   OH243166   5.566   2.574   6.731
14408TIP3    H143167   5.537   2.661   6.757
14408TIP3    H243168   5.542   2.517   6.805
14409TIP3   OH243169   6.938   0.277   4.505
14409TIP3    H143170   6.948   0.370   4.526
14409TIP3    H243171   6.858   0.250   4.551
14410TIP3   OH243172   8.090   6.539   5.407
14410TIP3    H143173   8.028   6.505   5.472
14410TIP3    H243174   8.168   6.483   5.417
14411TIP3   OH243175   4.532   6.259   4.223
14411TIP3    H143176   4.449   6.286   4.183
14411TIP3    H243177   4.507   6.219   4.306
14412TIP3   OH243178   1.291   4.826   5.950
14412TIP3    H143179   1.300   4.777   6.032
14412TIP3    H243180   1.269   4.915   5.976
14413TIP3   OH243181   5.476   0.429   0.812
14413TIP3    H143182   5.432   0.491   0.754
14413TIP3    H243183   5.518   0.483   0.878
14414TIP3   OH243184   2.965   0.687   6.230
14414TIP3    H143185   3.032   0.619   6.225
14414TIP3    H243186   3.005   0.757   6.280
14415TIP3   OH243187   2.030   2.364   5.623
14415TIP3    H143188   2.066   2.316   5.549
14415TIP3    H243189   2.107   2.390   5.675
14416TIP3   OH243190   7.352   6.260   5.350
14416TIP3    H143191   7.338   6.319   5.424
14416TIP3    H243192   7.443   6.232   5.358
14417TIP3   OH243193   6.252   3.089   0.035
14417TIP3    H143194   6.162   3.070   0.063
14417TIP3    H243195   6.307   3.056   0.107
14418TIP3   OH243196   3.498   3.454   3.231
14418TIP3    H143197   3.541   3.533   3.263
14418TIP3    H243198   3.435   3.486   3.167
14419TIP3   OH243199   1.661   5.323   4.379
14419TIP3    H143200   1.729   5.379   4.343
14419TIP3    H243201   1.582   5.377   4.377
14420TIP3   OH243202   1.971   3.157   3.061
14420TIP3    H143203   2.052   3.196   3.095
14420TIP3    H243204   1.902   3.194   3.116
14421TIP3   OH243205   2.686   4.298   0.539
14421TIP3    H143206   2.670   4.389   0.514
14421TIP3    H243207   2.633   4.286   0.618
14422TIP3   OH243208   0.384   0.373   2.216
14422TIP3    H143209   0.399   0.292   2.265
14422TIP3    H243210   0.462   0.384   2.162
14423TIP3   OH243211   2.197   3.380   1.074
14423TIP3    H143212   2.238   3.388   0.988
14423TIP3    H243213   2.104   3.373   1.056
14424TIP3   OH243214   7.515   4.911   4.193
14424TIP3    H143215   7.463   4.936   4.270
14424TIP3    H243216   7.487   4.971   4.124
14425TIP3   OH243217   7.189   5.084   2.788
14425TIP3    H143218   7.220   4.998   2.758
14425TIP3    H243219   7.177   5.073   2.883
14426TIP3   OH243220   3.782   1.448   0.404
14426TIP3    H143221   3.753   1.360   0.428
14426TIP3    H243222   3.746   1.461   0.316
14427TIP3   OH243223   3.080   7.337   2.668
14427TIP3    H143224   3.136   7.261   2.651
14427TIP3    H243225   3.139   7.412   2.660
14428TIP3   OH243226   2.150   1.124   3.502
14428TIP3    H143227   2.116   1.086   3.583
14428TIP3    H243228   2.074   1.129   3.444
14429TIP3   OH243229   0.969   7.358   0.232
14429TIP3    H143230   1.055   7.366   0.273
14429TIP3    H243231   0.987   7.341   0.140
14430TIP3   OH243232   8.091   7.153   3.146
14430TIP3    H143233   8.115   7.193   3.063
14430TIP3    H243234   8.139   7.204   3.212
14431TIP3   OH243235   6.801   0.093   6.483
14431TIP3    H143236   6.773   0.180   6.455
14431TIP3    H243237   6.741   0.069   6.554
14432TIP3   OH243238   4.425   7.460   6.599
14432TIP3    H143239   4.369   7.385   6.619
14432TIP3    H243240   4.514   7.427   6.607
14433TIP3   OH243241   1.861   5.946   5.602
14433TIP3    H143242   1.825   5.878   5.544
14433TIP3    H243243   1.925   5.991   5.548
14434TIP3   OH243244   0.695   4.674   2.860
14434TIP3    H143245   0.703   4.629   2.777
14434TIP3    H243246   0.776   4.724   2.868
14435TIP3   OH243247   6.572   3.474   6.050
14435TIP3    H143248   6.504   3.535   6.079
14435TIP3    H243249   6.628   3.525   5.992
14436TIP3   OH243250   7.345   3.755   4.364
14436TIP3    H143251   7.318   3.797   4.283
14436TIP3    H243252   7.268   3.706   4.392
14437TIP3   OH243253   3.245   3.685   1.040
14437TIP3    H143254   3.321   3.743   1.034
14437TIP3    H243255   3.232   3.673   1.134
14438TIP3   OH243256   2.313   0.882   3.923
14438TIP3    H143257   2.306   0.790   3.896
14438TIP3    H243258   2.406   0.901   3.920
14439TIP3   OH243259   4.250   1.882   5.821
14439TIP3    H143260   4.252   1.844   5.909
14439TIP3    H243261   4.317   1.951   5.823
14440TIP3   OH243262   7.493   4.192   4.857
14440TIP3    H143263   7.551   4.229   4.924
14440TIP3    H243264   7.535   4.110   4.832
14441TIP3   OH243265   2.883   1.377   0.204
14441TIP3    H143266   2.972   1.410   0.207
14441TIP3    H243267   2.836   1.426   0.272
14442TIP3   OH243268   6.940   1.355   4.452
14442TIP3    H143269   6.957   1.386   4.363
14442TIP3    H243270   6.855   1.311   4.447
14443TIP3   OH243271   4.384   2.387   3.519
14443TIP3    H143272   4.317   2.409   3.454
14443TIP3    H243273   4.358   2.434   3.598
14444TIP3   OH243274   5.149   5.607   4.854
14444TIP3    H143275   5.195   5.555   4.920
14444TIP3    H243276   5.068   5.559   4.837
14445TIP3   OH243277   5.029   4.420   5.848
14445TIP3    H143278   5.063   4.383   5.929
14445TIP3    H243279   4.936   4.433   5.865
14446TIP3   OH243280   2.925   5.957   5.808
14446TIP3    H143281   3.015   5.969   5.839
14446TIP3    H243282   2.885   6.044   5.818
14447TIP3   OH243283   4.260   5.980   4.200
14447TIP3    H143284   4.222   5.948   4.118
14447TIP3    H243285   4.354   5.975   4.186
14448TIP3   OH243286   5.684   4.349   5.919
14448TIP3    H143287   5.630   4.402   5.860
14448TIP3    H243288   5.645   4.262   5.915
14449TIP3   OH243289   7.042   2.343   1.760
14449TIP3    H143290   7.016   2.351   1.852
14449TIP3    H243291   6.985   2.275   1.725
14450TIP3   OH243292   6.411   0.107   3.380
14450TIP3    H143293   6.470   0.118   3.455
14450TIP3    H243294   6.323   0.117   3.417
14451TIP3   OH243295   7.993   3.279   4.176
14451TIP3    H143296   7.962   3.368   4.163
14451TIP3    H243297   8.083   3.288   4.208
14452TIP3   OH243298   3.174   1.005   3.940
14452TIP3    H143299   3.149   1.028   3.850
14452TIP3    H243300   3.227   0.926   3.931
14453TIP3   OH243301   0.967   2.935   2.576
14453TIP3    H143302   1.014   2.973   2.503
14453TIP3    H243303   0.919   2.861   2.538
14454TIP3   OH243304   3.451   7.355   3.760
14454TIP3    H143305   3.482   7.311   3.839
14454TIP3    H243306   3.415   7.285   3.706
14455TIP3   OH243307   5.153   2.204   0.756
14455TIP3    H143308   5.097   2.282   0.752
14455TIP3    H243309   5.092   2.131   0.763
14456TIP3   OH243310   3.847   6.733   6.479
14456TIP3    H143311   3.899   6.797   6.429
14456TIP3    H243312   3.827   6.777   6.562
14457TIP3   OH243313   7.245   3.361   4.890
14457TIP3    H143314   7.229   3.418   4.965
14457TIP3    H243315   7.229   3.273   4.922
14458TIP3   OH243316   5.889   2.133   6.420
14458TIP3    H143317   5.826   2.198   6.388
14458TIP3    H243318   5.890   2.066   6.352
14459TIP3   OH243319   4.692   0.142   0.827
14459TIP3    H143320   4.686   0.158   0.921
14459TIP3    H243321   4.779   0.102   0.815
14460TIP3   OH243322   3.004   5.024   4.976
14460TIP3    H143323   3.004   4.966   5.053
14460TIP3    H243324   3.067   5.093   4.998
14461TIP3   OH243325   4.645   0.397   2.565
14461TIP3    H143326   4.689   0.340   2.502
14461TIP3    H243327   4.601   0.336   2.625
14462TIP3   OH243328   6.712   6.551   3.644
14462TIP3    H143329   6.772   6.581   3.576
14462TIP3    H243330   6.660   6.628   3.666
14463TIP3   OH243331   5.908   2.688   0.137
14463TIP3    H143332   5.823   2.700   0.180
14463TIP3    H243333   5.942   2.607   0.176
14464TIP3   OH243334   4.003   5.976   2.665
14464TIP3    H143335   4.093   5.949   2.684
14464TIP3    H243336   4.005   6.071   2.671
14465TIP3   OH243337   6.083   2.145   1.707
14465TIP3    H143338   6.176   2.122   1.713
14465TIP3    H243339   6.067   2.198   1.785
14466TIP3   OH243340   6.302   7.649   2.867
14466TIP3    H143341   6.285   7.570   2.918
14466TIP3    H243342   6.221   7.700   2.871
14467TIP3   OH243343   3.978   4.369   4.608
14467TIP3    H143344   4.054   4.375   4.665
14467TIP3    H243345   3.989   4.287   4.561
14468TIP3   OH243346   1.523   1.951   5.612
14468TIP3    H143347   1.521   1.892   5.687
14468TIP3    H243348   1.616   1.960   5.591
14469TIP3   OH243349   2.371   7.492   1.471
14469TIP3    H143350   2.292   7.458   1.512
14469TIP3    H243351   2.340   7.549   1.400
14470TIP3   OH243352   3.036   6.060   0.578
14470TIP3    H143353   3.055   6.145   0.538
14470TIP3    H243354   3.019   6.001   0.504
14471TIP3   OH243355   3.518   2.295   2.173
14471TIP3    H143356   3.533   2.341   2.090
14471TIP3    H243357   3.423   2.287   2.179
14472TIP3   OH243358   0.916   7.561   2.708
14472TIP3    H143359   0.912   7.469   2.734
14472TIP3    H243360   0.985   7.565   2.642
14473TIP3   OH243361   1.422   4.232   3.484
14473TIP3    H143362   1.361   4.306   3.482
14473TIP3    H243363   1.395   4.180   3.560
14474TIP3   OH243364   3.497   6.262   4.294
14474TIP3    H143365   3.556   6.337   4.301
14474TIP3    H243366   3.488   6.247   4.200
14475TIP3   OH243367   4.470   5.583   2.085
14475TIP3    H143368   4.384   5.624   2.090
14475TIP3    H243369   4.489   5.556   2.175
14476TIP3   OH243370   5.440   1.694   3.673
14476TIP3    H143371   5.527   1.688   3.713
14476TIP3    H243372   5.402   1.607   3.684
14477TIP3   OH243373   0.492   5.863   4.949
14477TIP3    H143374   0.468   5.854   4.856
14477TIP3    H243375   0.409   5.879   4.993
14478TIP3   OH243376   7.176   0.960   1.004
14478TIP3    H143377   7.150   1.001   0.921
14478TIP3    H243378   7.122   0.881   1.010
14479TIP3   OH243379   0.883   1.076   3.839
14479TIP3    H143380   0.789   1.073   3.856
14479TIP3    H243381   0.923   1.051   3.922
14480TIP3   OH243382   6.094   1.855   6.583
14480TIP3    H143383   6.185   1.885   6.582
14480TIP3    H243384   6.044   1.930   6.617
14481TIP3   OH243385   4.376   6.165   1.611
14481TIP3    H143386   4.297   6.190   1.564
14481TIP3    H243387   4.448   6.204   1.561
14482TIP3   OH243388   0.140   5.259   2.902
14482TIP3    H143389   0.225   5.291   2.932
14482TIP3    H243390   0.137   5.168   2.930
14483TIP3   OH243391   2.569   0.318   3.230
14483TIP3    H143392   2.663   0.305   3.240
14483TIP3    H243393   2.532   0.230   3.230
14484TIP3   OH243394   2.869   1.391   0.712
14484TIP3    H143395   2.854   1.439   0.631
14484TIP3    H243396   2.798   1.327   0.716
14485TIP3   OH243397   1.072   3.771   6.659
14485TIP3    H143398   0.980   3.743   6.654
14485TIP3    H243399   1.084   3.827   6.582
14486TIP3   OH243400   4.767   4.548   3.844
14486TIP3    H143401   4.840   4.491   3.821
14486TIP3    H243402   4.689   4.504   3.810
14487TIP3   OH243403   2.665   1.695   1.685
14487TIP3    H143404   2.758   1.717   1.681
14487TIP3    H243405   2.626   1.741   1.612
14488TIP3   OH243406   6.809   2.332   0.124
14488TIP3    H143407   6.895   2.360   0.155
14488TIP3    H243408   6.798   2.244   0.159
14489TIP3   OH243409   6.218   5.608   4.850
14489TIP3    H143410   6.211   5.532   4.793
14489TIP3    H243411   6.131   5.618   4.888
14490TIP3   OH243412   3.736   0.839   4.241
14490TIP3    H143413   3.749   0.895   4.317
14490TIP3    H243414   3.820   0.840   4.195
14491TIP3   OH243415   5.587   1.487   3.252
14491TIP3    H143416   5.581   1.445   3.338
14491TIP3    H243417   5.659   1.549   3.261
14492TIP3   OH243418   3.334   3.573   1.835
14492TIP3    H143419   3.389   3.637   1.789
14492TIP3    H243420   3.312   3.508   1.768
14493TIP3   OH243421   5.555   3.604   4.854
14493TIP3    H143422   5.608   3.543   4.904
14493TIP3    H243423   5.465   3.579   4.873
14494TIP3   OH243424   7.470   2.817   4.162
14494TIP3    H143425   7.440   2.904   4.189
14494TIP3    H243426   7.479   2.824   4.067
14495TIP3   OH243427   2.339   2.335   0.151
14495TIP3    H143428   2.297   2.298   0.228
14495TIP3    H243429   2.414   2.277   0.134
14496TIP3   OH243430   7.686   5.172   2.741
14496TIP3    H143431   7.758   5.233   2.758
14496TIP3    H243432   7.697   5.103   2.806
14497TIP3   OH243433   2.417   2.751   3.684
14497TIP3    H143434   2.419   2.776   3.776
14497TIP3    H243435   2.452   2.662   3.682
14498TIP3   OH243436   2.256   7.109   5.838
14498TIP3    H143437   2.335   7.073   5.797
14498TIP3    H243438   2.200   7.032   5.853
14499TIP3   OH243439   1.721   3.176   3.580
14499TIP3    H143440   1.712   3.134   3.665
14499TIP3    H243441   1.631   3.197   3.554
14500TIP3   OH243442   6.525   1.944   6.159
14500TIP3    H143443   6.472   1.879   6.207
14500TIP3    H243444   6.614   1.929   6.191
14501TIP3   OH243445   2.611   5.207   4.946
14501TIP3    H143446   2.635   5.215   5.038
14501TIP3    H243447   2.614   5.113   4.928
14502TIP3   OH243448   1.146   6.465   4.259
14502TIP3    H143449   1.120   6.415   4.182
14502TIP3    H243450   1.105   6.420   4.333
14503TIP3   OH243451   4.637   4.905   0.315
14503TIP3    H143452   4.551   4.937   0.288
14503TIP3    H243453   4.629   4.890   0.410
14504TIP3   OH243454   6.084   4.589   2.821
14504TIP3    H143455   6.056   4.498   2.825
14504TIP3    H243456   6.139   4.601   2.899
14505TIP3   OH243457   3.726   2.325   3.986
14505TIP3    H143458   3.679   2.265   3.929
14505TIP3    H243459   3.811   2.338   3.943
14506TIP3   OH243460   2.078   5.590   4.363
14506TIP3    H143461   2.129   5.670   4.376
14506TIP3    H243462   2.003   5.618   4.311
14507TIP3   OH243463   8.220   5.207   0.010
14507TIP3    H143464   8.288   5.187   0.074
14507TIP3    H243465   8.243   5.294  -0.022
14508TIP3   OH243466   5.990   3.364   1.859
14508TIP3    H143467   5.987   3.339   1.952
14508TIP3    H243468   6.015   3.283   1.814
14509TIP3   OH243469   4.909   0.961   5.674
14509TIP3    H143470   4.895   0.993   5.763
14509TIP3    H243471   4.947   1.035   5.627
14510TIP3   OH243472   0.051   1.936   3.551
14510TIP3    H143473   0.023   1.926   3.460
14510TIP3    H243474   0.069   2.029   3.561
14511TIP3   OH243475   7.412   1.213   2.915
14511TIP3    H143476   7.438   1.220   3.007
14511TIP3    H243477   7.412   1.304   2.884
14512TIP3   OH243478   0.034   6.194   4.572
14512TIP3    H143479   0.076   6.257   4.512
14512TIP3    H243480  -0.027   6.146   4.516
14513TIP3   OH243481   7.775   4.077   1.773
14513TIP3    H143482   7.757   4.097   1.865
14513TIP3    H243483   7.818   3.991   1.775
14514TIP3   OH243484   1.035   1.577   4.586
14514TIP3    H143485   1.005   1.624   4.509
14514TIP3    H243486   1.058   1.490   4.553
14515TIP3   OH243487   1.170   3.546   3.304
14515TIP3    H143488   1.248   3.600   3.287
14515TIP3    H243489   1.158   3.496   3.224
14516TIP3   OH243490   3.459   7.027   6.182
14516TIP3    H143491   3.413   7.025   6.098
14516TIP3    H243492   3.482   7.119   6.194
14517TIP3   OH243493   7.804   7.071   3.310
14517TIP3    H143494   7.869   7.006   3.337
14517TIP3    H243495   7.720   7.035   3.339
14518TIP3   OH243496   1.258   3.409   4.035
14518TIP3    H143497   1.252   3.498   3.999
14518TIP3    H243498   1.221   3.416   4.122
14519TIP3   OH243499   7.405   0.647   1.085
14519TIP3    H143500   7.438   0.729   1.122
14519TIP3    H243501   7.351   0.675   1.010
14520TIP3   OH243502   6.195   2.298   1.170
14520TIP3    H143503   6.164   2.347   1.247
14520TIP3    H243504   6.288   2.281   1.189
14521TIP3   OH243505   1.086   5.979   0.223
14521TIP3    H143506   1.007   5.942   0.263
14521TIP3    H243507   1.054   6.051   0.169
14522TIP3   OH243508   4.061   4.682   5.796
14522TIP3    H143509   4.038   4.619   5.864
14522TIP3    H243510   4.032   4.766   5.830
14523TIP3   OH243511   0.551   2.012   3.861
14523TIP3    H143512   0.582   2.046   3.945
14523TIP3    H243513   0.462   2.046   3.853
14524TIP3   OH243514   4.605   0.721   6.318
14524TIP3    H143515   4.576   0.768   6.240
14524TIP3    H243516   4.535   0.733   6.382
14525TIP3   OH243517   6.084   5.292   0.956
14525TIP3    H143518   6.159   5.321   1.008
14525TIP3    H243519   6.059   5.369   0.904
14526TIP3   OH243520   5.874   6.717   0.315
14526TIP3    H143521   5.913   6.709   0.228
14526TIP3    H243522   5.850   6.810   0.321
14527TIP3   OH243523   2.326   1.174   2.669
14527TIP3    H143524   2.260   1.207   2.607
14527TIP3    H243525   2.378   1.113   2.617
14528TIP3   OH243526   2.378   3.684   5.397
14528TIP3    H143527   2.354   3.644   5.481
14528TIP3    H243528   2.461   3.642   5.374
14529TIP3   OH243529   7.466   6.351   1.616
14529TIP3    H143530   7.427   6.350   1.703
14529TIP3    H243531   7.483   6.259   1.596
14530TIP3   OH243532   1.748   2.457   2.783
14530TIP3    H143533   1.674   2.496   2.830
14530TIP3    H243534   1.822   2.466   2.843
14531TIP3   OH243535   5.234   0.549   6.441
14531TIP3    H143536   5.219   0.551   6.536
14531TIP3    H243537   5.169   0.488   6.408
14532TIP3   OH243538   2.804   7.044   4.117
14532TIP3    H143539   2.756   7.024   4.037
14532TIP3    H243540   2.811   7.139   4.117
14533TIP3   OH243541   4.782   4.925   5.404
14533TIP3    H143542   4.719   4.990   5.435
14533TIP3    H243543   4.747   4.897   5.319
14534TIP3   OH243544   2.404   4.335   4.700
14534TIP3    H143545   2.353   4.255   4.707
14534TIP3    H243546   2.357   4.399   4.753
14535TIP3   OH243547   8.118   7.250   4.094
14535TIP3    H143548   8.140   7.212   4.009
14535TIP3    H243549   8.200   7.247   4.144
14536TIP3   OH243550   5.813   3.319   4.849
14536TIP3    H143551   5.792   3.378   4.776
14536TIP3    H243552   5.740   3.331   4.911
14537TIP3   OH243553   7.259   5.048   1.000
14537TIP3    H143554   7.237   5.135   1.034
14537TIP3    H243555   7.178   5.017   0.959
14538TIP3   OH243556   1.095   7.076   4.176
14538TIP3    H143557   1.057   7.013   4.236
14538TIP3    H243558   1.031   7.147   4.172
14539TIP3   OH243559   7.861   6.312   5.301
14539TIP3    H143560   7.845   6.224   5.337
14539TIP3    H243561   7.868   6.368   5.378
14540TIP3   OH243562   8.131   6.157   5.243
14540TIP3    H143563   8.058   6.217   5.262
14540TIP3    H243564   8.121   6.137   5.150
14541TIP3   OH243565   4.342   7.792   4.315
14541TIP3    H143566   4.362   7.862   4.254
14541TIP3    H243567   4.251   7.770   4.297
14542TIP3   OH243568   0.207   1.877   0.575
14542TIP3    H143569   0.301   1.867   0.591
14542TIP3    H243570   0.187   1.813   0.507
14543TIP3   OH243571   7.001   0.446   3.772
14543TIP3    H143572   7.001   0.541   3.764
14543TIP3    H243573   7.074   0.426   3.830
14544TIP3   OH243574   5.668   2.583   2.122
14544TIP3    H143575   5.606   2.566   2.193
14544TIP3    H243576   5.613   2.618   2.051
14545TIP3   OH243577   1.302   0.370   1.671
14545TIP3    H143578   1.378   0.325   1.633
14545TIP3    H243579   1.337   0.453   1.704
14546TIP3   OH243580   7.948   5.528   3.520
14546TIP3    H143581   8.027   5.517   3.573
14546TIP3    H243582   7.905   5.604   3.559
14547TIP3   OH243583   7.935   0.921   4.996
14547TIP3    H143584   7.975   0.870   5.067
14547TIP3    H243585   8.003   0.928   4.929
14548TIP3   OH243586   2.367   1.542   2.270
14548TIP3    H143587   2.392   1.630   2.298
14548TIP3    H243588   2.323   1.556   2.186
14549TIP3   OH243589   0.050   0.414   1.999
14549TIP3    H143590   0.128   0.386   1.950
14549TIP3    H243591   0.003   0.333   2.019
14550TIP3   OH243592   0.478   5.566   4.417
14550TIP3    H143593   0.426   5.634   4.459
14550TIP3    H243594   0.563   5.607   4.401
14551TIP3   OH243595   0.019   4.282   3.712
14551TIP3    H143596   0.069   4.233   3.777
14551TIP3    H243597   0.039   4.374   3.729
14552TIP3   OH243598   4.722   6.238   0.911
14552TIP3    H143599   4.805   6.280   0.933
14552TIP3    H243600   4.655   6.298   0.943
14553TIP3   OH243601   4.373   5.038   0.216
14553TIP3    H143602   4.318   5.115   0.230
14553TIP3    H243603   4.409   5.051   0.128
14554TIP3   OH243604   3.734   6.434   4.295
14554TIP3    H143605   3.827   6.414   4.302
14554TIP3    H243606   3.718   6.501   4.361
14555TIP3   OH243607   4.543   5.044   4.710
14555TIP3    H143608   4.607   5.096   4.661
14555TIP3    H243609   4.549   4.957   4.671
14556TIP3   OH243610   5.601   6.020   0.283
14556TIP3    H143611   5.691   6.052   0.289
14556TIP3    H243612   5.586   6.008   0.189
14557TIP3   OH243613   2.897   1.814   0.367
14557TIP3    H143614   2.860   1.738   0.323
14557TIP3    H243615   2.847   1.888   0.334
14558TIP3   OH243616   1.493   3.780   2.651
14558TIP3    H143617   1.551   3.705   2.656
14558TIP3    H243618   1.440   3.764   2.573
14559TIP3   OH243619   3.506   4.091   3.954
14559TIP3    H143620   3.523   4.025   3.887
14559TIP3    H243621   3.412   4.108   3.949
14560TIP3   OH243622   2.763   1.949   0.593
14560TIP3    H143623   2.775   1.947   0.498
14560TIP3    H243624   2.747   1.858   0.617
14561TIP3   OH243625   3.894   6.882   5.767
14561TIP3    H143626   3.930   6.963   5.731
14561TIP3    H243627   3.815   6.909   5.814
14562TIP3   OH243628   0.523   7.434   2.649
14562TIP3    H143629   0.444   7.468   2.606
14562TIP3    H243630   0.591   7.443   2.583
14563TIP3   OH243631   8.084   3.509   6.210
14563TIP3    H143632   8.116   3.516   6.120
14563TIP3    H243633   8.159   3.476   6.259
14564TIP3   OH243634   7.805   5.846   2.744
14564TIP3    H143635   7.805   5.918   2.808
14564TIP3    H243636   7.811   5.767   2.798
14565TIP3   OH243637   3.011   4.687   0.140
14565TIP3    H143638   2.939   4.695   0.078
14565TIP3    H243639   3.031   4.593   0.140
14566TIP3   OH243640   8.086   3.485   6.766
14566TIP3    H143641   8.018   3.541   6.729
14566TIP3    H243642   8.121   3.436   6.692
14567TIP3   OH243643   6.262   6.047   1.704
14567TIP3    H143644   6.317   6.013   1.634
14567TIP3    H243645   6.314   6.118   1.742
14568TIP3   OH243646   1.993  -0.006   2.888
14568TIP3    H143647   2.085   0.013   2.872
14568TIP3    H243648   1.948   0.076   2.870
14569TIP3   OH243649   6.548   5.302   5.033
14569TIP3    H143650   6.571   5.391   5.005
14569TIP3    H243651   6.611   5.246   4.988
14570TIP3   OH243652   3.206   2.997   3.686
14570TIP3    H143653   3.158   3.005   3.603
14570TIP3    H243654   3.180   2.911   3.720
14571TIP3   OH243655   6.617   4.942   6.209
14571TIP3    H143656   6.541   4.884   6.220
14571TIP3    H243657   6.663   4.938   6.292
14572TIP3   OH243658   5.913   0.381   5.046
14572TIP3    H143659   5.826   0.380   5.006
14572TIP3    H243660   5.956   0.457   5.007
14573TIP3   OH243661   2.626   6.932   1.874
14573TIP3    H143662   2.657   6.895   1.791
14573TIP3    H243663   2.706   6.952   1.923
14574TIP3   OH243664   7.099   3.701   0.522
14574TIP3    H143665   7.193   3.687   0.533
14574TIP3    H243666   7.089   3.796   0.520
14575TIP3   OH243667   3.078   7.069   4.145
14575TIP3    H143668   2.988   7.055   4.116
14575TIP3    H243669   3.123   6.988   4.122
14576TIP3   OH243670   5.352   7.265   5.715
14576TIP3    H143671   5.355   7.241   5.622
14576TIP3    H243672   5.442   7.285   5.738
14577TIP3   OH243673   1.905   0.432   5.038
14577TIP3    H143674   1.970   0.422   4.969
14577TIP3    H243675   1.855   0.350   5.036
14578TIP3   OH243676   2.179   1.688   4.173
14578TIP3    H143677   2.242   1.666   4.105
14578TIP3    H243678   2.215   1.651   4.254
14579TIP3   OH243679   2.736   1.924   5.890
14579TIP3    H143680   2.758   1.871   5.966
14579TIP3    H243681   2.797   1.998   5.894
14580TIP3   OH243682   0.634   5.341   4.528
14580TIP3    H143683   0.640   5.319   4.435
14580TIP3    H243684   0.565   5.407   4.533
14581TIP3   OH243685   5.103   5.186   2.274
14581TIP3    H143686   5.176   5.212   2.330
14581TIP3    H243687   5.098   5.256   2.208
14582TIP3   OH243688   1.463   4.664   2.189
14582TIP3    H143689   1.413   4.601   2.239
14582TIP3    H243690   1.554   4.652   2.219
14583TIP3   OH243691   0.670   2.213   3.600
14583TIP3    H143692   0.584   2.209   3.559
14583TIP3    H243693   0.715   2.134   3.569
14584TIP3   OH243694   5.599   7.082   0.172
14584TIP3    H143695   5.666   7.047   0.232
14584TIP3    H243696   5.537   7.127   0.230
14585TIP3   OH243697   0.236   1.689   5.973
14585TIP3    H143698   0.324   1.655   5.988
14585TIP3    H243699   0.245   1.746   5.897
14586TIP3   OH243700   2.385   7.503   2.396
14586TIP3    H143701   2.477   7.494   2.371
14586TIP3    H243702   2.368   7.597   2.392
14587TIP3   OH243703   1.643   2.135   4.231
14587TIP3    H143704   1.550   2.133   4.206
14587TIP3    H243705   1.673   2.045   4.217
14588TIP3   OH243706   3.201   1.211   2.213
14588TIP3    H143707   3.185   1.208   2.307
14588TIP3    H243708   3.145   1.282   2.181
14589TIP3   OH243709   7.623   2.922   3.539
14589TIP3    H143710   7.646   2.863   3.611
14589TIP3    H243711   7.705   2.937   3.492
14590TIP3   OH243712   0.299   7.204   5.856
14590TIP3    H143713   0.298   7.287   5.903
14590TIP3    H243714   0.391   7.177   5.857
14591TIP3   OH243715   7.481   4.631   3.510
14591TIP3    H143716   7.491   4.726   3.505
14591TIP3    H243717   7.569   4.597   3.491
14592TIP3   OH243718   4.139   1.817   6.588
14592TIP3    H143719   4.128   1.846   6.497
14592TIP3    H243720   4.193   1.885   6.629
14593TIP3   OH243721   8.271   6.597   3.839
14593TIP3    H143722   8.343   6.540   3.867
14593TIP3    H243723   8.199   6.576   3.898
14594TIP3   OH243724   5.836   7.506   2.415
14594TIP3    H143725   5.802   7.418   2.432
14594TIP3    H243726   5.763   7.564   2.435
14595TIP3   OH243727   2.489   1.028   0.287
14595TIP3    H143728   2.489   1.007   0.380
14595TIP3    H243729   2.528   1.115   0.282
14596TIP3   OH243730   5.404   5.828   5.248
14596TIP3    H143731   5.355   5.751   5.275
14596TIP3    H243732   5.383   5.895   5.314
14597TIP3   OH243733   6.436   0.851   6.644
14597TIP3    H143734   6.446   0.769   6.597
14597TIP3    H243735   6.464   0.831   6.734
14598TIP3   OH243736   4.250   5.929   0.285
14598TIP3    H143737   4.240   6.021   0.309
14598TIP3    H243738   4.315   5.895   0.346
14599TIP3   OH243739   0.320   3.100   5.914
14599TIP3    H143740   0.326   3.078   6.007
14599TIP3    H243741   0.246   3.048   5.882
14600TIP3   OH243742   5.492   5.643   6.296
14600TIP3    H143743   5.409   5.670   6.335
14600TIP3    H243744   5.509   5.556   6.332
14601TIP3   OH243745   1.153   7.425   4.583
14601TIP3    H143746   1.240   7.455   4.607
14601TIP3    H243747   1.157   7.413   4.489
14602TIP3   OH243748   8.159   2.757   5.248
14602TIP3    H143749   8.066   2.740   5.237
14602TIP3    H243750   8.184   2.704   5.324
14603TIP3   OH243751   5.932   6.060   6.573
14603TIP3    H143752   5.975   6.136   6.612
14603TIP3    H243753   5.892   6.015   6.647
14604TIP3   OH243754   5.906   3.233   2.383
14604TIP3    H143755   5.919   3.313   2.434
14604TIP3    H243756   5.884   3.167   2.448
14605TIP3   OH243757   1.757   1.044   4.029
14605TIP3    H143758   1.847   1.018   4.049
14605TIP3    H243759   1.758   1.140   4.030
14606TIP3   OH243760   2.323   4.955   0.767
14606TIP3    H143761   2.296   4.887   0.828
14606TIP3    H243762   2.265   4.945   0.692
14607TIP3   OH243763  -0.012   6.703   0.298
14607TIP3    H143764   0.036   6.625   0.272
14607TIP3    H243765   0.055   6.770   0.309
14608TIP3   OH243766   1.566   2.554   2.189
14608TIP3    H143767   1.473   2.547   2.210
14608TIP3    H243768   1.588   2.645   2.208
14609TIP3   OH243769   1.119   3.045   1.896
14609TIP3    H143770   1.113   3.051   1.991
14609TIP3    H243771   1.155   2.957   1.880
14610TIP3   OH243772   7.232   6.812   4.038
14610TIP3    H143773   7.233   6.849   4.126
14610TIP3    H243774   7.170   6.739   4.043
14611TIP3   OH243775   0.213   3.563   6.625
14611TIP3    H143776   0.170   3.567   6.710
14611TIP3    H243777   0.238   3.653   6.606
14612TIP3   OH243778   6.980   3.558   1.269
14612TIP3    H143779   7.037   3.485   1.292
14612TIP3    H243780   7.022   3.635   1.309
14613TIP3   OH243781   5.335   1.863   4.348
14613TIP3    H143782   5.339   1.902   4.436
14613TIP3    H243783   5.279   1.923   4.298
14614TIP3   OH243784   1.456   3.419   2.472
14614TIP3    H143785   1.499   3.385   2.394
14614TIP3    H243786   1.479   3.512   2.474
14615TIP3   OH243787   0.607   6.408   6.517
14615TIP3    H143788   0.667   6.436   6.586
14615TIP3    H243789   0.662   6.359   6.456
14616TIP3   OH243790   7.434   2.272   0.666
14616TIP3    H143791   7.479   2.339   0.615
14616TIP3    H243792   7.342   2.278   0.638
14617TIP3   OH243793   1.855   6.227   3.548
14617TIP3    H143794   1.927   6.289   3.565
14617TIP3    H243795   1.778   6.270   3.584
14618TIP3   OH243796   5.898   7.727   6.393
14618TIP3    H143797   5.846   7.786   6.447
14618TIP3    H243798   5.988   7.740   6.422
14619TIP3   OH243799   1.106   1.675   2.707
14619TIP3    H143800   1.017   1.640   2.711
14619TIP3    H243801   1.099   1.765   2.738
14620TIP3   OH243802   5.038   1.271   1.848
14620TIP3    H143803   5.052   1.315   1.931
14620TIP3    H243804   5.124   1.265   1.808
14621TIP3   OH243805   6.724   6.500   6.571
14621TIP3    H143806   6.656   6.486   6.637
14621TIP3    H243807   6.693   6.452   6.494
14622TIP3   OH243808   4.932   0.087   0.700
14622TIP3    H143809   4.860   0.034   0.666
14622TIP3    H243810   5.011   0.046   0.665
14623TIP3   OH243811   7.094   3.661   4.874
14623TIP3    H143812   7.119   3.609   4.951
14623TIP3    H243813   7.010   3.699   4.897
14624TIP3   OH243814   7.528   4.482   4.700
14624TIP3    H143815   7.441   4.491   4.740
14624TIP3    H243816   7.562   4.400   4.735
14625TIP3   OH243817   0.602   4.995   0.401
14625TIP3    H143818   0.562   5.066   0.452
14625TIP3    H243819   0.537   4.973   0.335
14626TIP3   OH243820   1.284   5.078   6.080
14626TIP3    H143821   1.282   5.087   6.175
14626TIP3    H243822   1.361   5.128   6.053
14627TIP3   OH243823   0.033   2.498   6.485
14627TIP3    H143824  -0.059   2.475   6.500
14627TIP3    H243825   0.054   2.459   6.400
14628TIP3   OH243826   4.165   7.806   6.065
14628TIP3    H143827   4.227   7.740   6.033
14628TIP3    H243828   4.150   7.782   6.156
14629TIP3   OH243829   1.410   1.660   0.084
14629TIP3    H143830   1.354   1.734   0.059
14629TIP3    H243831   1.477   1.656   0.016
14630TIP3   OH243832   4.771   5.220   3.381
14630TIP3    H143833   4.820   5.224   3.463
14630TIP3    H243834   4.698   5.281   3.394
14631TIP3   OH243835   7.923   0.839   0.595
14631TIP3    H143836   7.906   0.924   0.637
14631TIP3    H243837   7.880   0.847   0.510
14632TIP3   OH243838   4.276   1.319   3.763
14632TIP3    H143839   4.256   1.307   3.670
14632TIP3    H243840   4.224   1.394   3.790
14633TIP3   OH243841   7.731   5.917   4.831
14633TIP3    H143842   7.648   5.874   4.854
14633TIP3    H243843   7.794   5.882   4.894
14634TIP3   OH243844   3.433   4.903   1.214
14634TIP3    H143845   3.356   4.859   1.251
14634TIP3    H243846   3.507   4.859   1.255
14635TIP3   OH243847   3.815   1.226   2.032
14635TIP3    H143848   3.866   1.251   2.109
14635TIP3    H243849   3.853   1.142   2.005
14636TIP3   OH243850   0.922   1.210   3.418
14636TIP3    H143851   0.924   1.183   3.326
14636TIP3    H243852   0.834   1.245   3.430
14637TIP3   OH243853   7.815   4.277   0.837
14637TIP3    H143854   7.911   4.278   0.825
14637TIP3    H243855   7.802   4.288   0.931
14638TIP3   OH243856   4.174   0.528   5.206
14638TIP3    H143857   4.157   0.460   5.271
14638TIP3    H243858   4.267   0.518   5.185
14639TIP3   OH243859   4.402   7.066   0.328
14639TIP3    H143860   4.311   7.057   0.298
14639TIP3    H243861   4.420   7.160   0.323
14640TIP3   OH243862   3.221   0.954  -0.005
14640TIP3    H143863   3.316   0.967  -0.009
14640TIP3    H243864   3.204   0.932   0.087
14641TIP3   OH243865   6.065   6.711   4.555
14641TIP3    H143866   6.137   6.740   4.498
14641TIP3    H243867   6.026   6.638   4.507
14642TIP3   OH243868   0.823   4.945   0.568
14642TIP3    H143869   0.741   4.958   0.521
14642TIP3    H243870   0.843   4.852   0.555
14643TIP3   OH243871   5.956   0.803   1.449
14643TIP3    H143872   5.998   0.733   1.400
14643TIP3    H243873   5.905   0.851   1.384
14644TIP3   OH243874   5.403   5.791   4.293
14644TIP3    H143875   5.415   5.712   4.241
14644TIP3    H243876   5.453   5.776   4.372
14645TIP3   OH243877   7.400   2.020   1.700
14645TIP3    H143878   7.446   2.074   1.764
14645TIP3    H243879   7.433   2.049   1.615
14646TIP3   OH243880   5.671   1.001   5.816
14646TIP3    H143881   5.698   0.919   5.775
14646TIP3    H243882   5.743   1.024   5.875
14647TIP3   OH243883   2.273   1.492   5.260
14647TIP3    H143884   2.207   1.500   5.191
14647TIP3    H243885   2.357   1.498   5.212
14648TIP3   OH243886   6.062   5.085   4.292
14648TIP3    H143887   6.100   5.057   4.375
14648TIP3    H243888   6.046   5.004   4.243
14649TIP3   OH243889   3.767   7.674   5.481
14649TIP3    H143890   3.717   7.755   5.483
14649TIP3    H243891   3.716   7.614   5.427
14650TIP3   OH243892   4.377   6.469   2.088
14650TIP3    H143893   4.406   6.378   2.095
14650TIP3    H243894   4.305   6.477   2.150
14651TIP3   OH243895   4.879   6.993   1.946
14651TIP3    H143896   4.955   7.029   1.900
14651TIP3    H243897   4.816   6.972   1.877
14652TIP3   OH243898   3.157   1.545   4.630
14652TIP3    H143899   3.116   1.538   4.543
14652TIP3    H243900   3.217   1.470   4.634
14653TIP3   OH243901   2.579   7.735   0.834
14653TIP3    H143902   2.543   7.689   0.909
14653TIP3    H243903   2.610   7.819   0.869
14654TIP3   OH243904   7.160   7.415   4.715
14654TIP3    H143905   7.067   7.432   4.706
14654TIP3    H243906   7.171   7.381   4.804
14655TIP3   OH243907   7.407   2.139   2.689
14655TIP3    H143908   7.346   2.204   2.724
14655TIP3    H243909   7.480   2.140   2.751
14656TIP3   OH243910   2.275   0.183   1.404
14656TIP3    H143911   2.195   0.148   1.443
14656TIP3    H243912   2.246   0.228   1.325
14657TIP3   OH243913   5.684   7.709   4.196
14657TIP3    H143914   5.743   7.720   4.121
14657TIP3    H243915   5.630   7.633   4.174
14658TIP3   OH243916   3.732   5.780   6.312
14658TIP3    H143917   3.795   5.851   6.325
14658TIP3    H243918   3.659   5.803   6.370
14659TIP3   OH243919   2.906   4.919   1.561
14659TIP3    H143920   2.971   4.852   1.581
14659TIP3    H243921   2.956   5.001   1.559
14660TIP3   OH243922   2.175   2.183   5.910
14660TIP3    H143923   2.231   2.241   5.962
14660TIP3    H243924   2.236   2.139   5.851
14661TIP3   OH243925   4.925   1.974   4.141
14661TIP3    H143926   4.830   1.959   4.134
14661TIP3    H243927   4.936   2.067   4.126
14662TIP3   OH243928   6.219   7.701   4.663
14662TIP3    H143929   6.221   7.649   4.744
14662TIP3    H243930   6.246   7.789   4.689
14663TIP3   OH243931   7.241   3.836   2.274
14663TIP3    H143932   7.199   3.750   2.273
14663TIP3    H243933   7.331   3.820   2.245
14664TIP3   OH243934   4.682   2.205   1.660
14664TIP3    H143935   4.750   2.268   1.685
14664TIP3    H243936   4.647   2.173   1.744
14665TIP3   OH243937   6.959   1.021   3.683
14665TIP3    H143938   6.948   1.097   3.740
14665TIP3    H243939   7.053   1.002   3.686
14666TIP3   OH243940   6.572   2.118   5.661
14666TIP3    H143941   6.604   2.103   5.571
14666TIP3    H243942   6.616   2.198   5.689
14667TIP3   OH243943   4.309   1.065   3.851
14667TIP3    H143944   4.308   1.047   3.757
14667TIP3    H243945   4.290   1.158   3.858
14668TIP3   OH243946   1.737   2.166   2.600
14668TIP3    H143947   1.701   2.143   2.686
14668TIP3    H243948   1.673   2.225   2.562
14669TIP3   OH243949   5.410   1.368   6.301
14669TIP3    H143950   5.411   1.285   6.348
14669TIP3    H243951   5.465   1.426   6.353
14670TIP3   OH243952   4.685   5.111   0.574
14670TIP3    H143953   4.668   5.165   0.652
14670TIP3    H243954   4.630   5.034   0.587
14671TIP3   OH243955   7.949   2.566   5.391
14671TIP3    H143956   7.902   2.629   5.335
14671TIP3    H243957   7.881   2.524   5.442
14672TIP3   OH243958   7.986   0.862   2.699
14672TIP3    H143959   7.895   0.871   2.668
14672TIP3    H243960   8.036   0.923   2.644
14673TIP3   OH243961   1.913   2.475   2.564
14673TIP3    H143962   1.887   2.567   2.555
14673TIP3    H243963   1.857   2.441   2.633
14674TIP3   OH243964   6.143   4.048   4.788
14674TIP3    H143965   6.205   4.089   4.848
14674TIP3    H243966   6.198   4.002   4.725
14675TIP3   OH243967   1.567   4.855   6.476
14675TIP3    H143968   1.610   4.770   6.469
14675TIP3    H243969   1.588   4.900   6.395
14676TIP3   OH243970   7.568   4.273   5.318
14676TIP3    H143971   7.559   4.301   5.226
14676TIP3    H243972   7.531   4.345   5.368
14677TIP3   OH243973   3.786   1.109   0.215
14677TIP3    H143974   3.709   1.053   0.227
14677TIP3    H243975   3.860   1.050   0.232
14678TIP3   OH243976   7.482   0.327   5.398
14678TIP3    H143977   7.522   0.243   5.423
14678TIP3    H243978   7.465   0.371   5.481
14679TIP3   OH243979   6.704   5.491   5.263
14679TIP3    H143980   6.733   5.416   5.211
14679TIP3    H243981   6.736   5.472   5.351
14680TIP3   OH243982   7.523   4.286   6.679
14680TIP3    H143983   7.499   4.347   6.609
14680TIP3    H243984   7.476   4.317   6.756
14681TIP3   OH243985   5.096   2.546   3.171
14681TIP3    H143986   5.176   2.587   3.138
14681TIP3    H243987   5.116   2.521   3.261
14682TIP3   OH243988   6.607   1.298   3.927
14682TIP3    H143989   6.656   1.305   4.009
14682TIP3    H243990   6.661   1.243   3.871
14683TIP3   OH243991   2.748   3.557   0.709
14683TIP3    H143992   2.724   3.646   0.736
14683TIP3    H243993   2.670   3.525   0.663
14684TIP3   OH243994   0.860   4.362   6.140
14684TIP3    H143995   0.865   4.417   6.218
14684TIP3    H243996   0.772   4.378   6.106
14685TIP3   OH243997   1.905   0.029   4.768
14685TIP3    H143998   1.942   0.046   4.681
14685TIP3    H243999   1.828  -0.024   4.752
14686TIP3   OH244000   2.028   3.019   6.236
14686TIP3    H144001   1.945   2.979   6.260
14686TIP3    H244002   2.082   2.947   6.205
14687TIP3   OH244003   1.446   5.983   6.246
14687TIP3    H144004   1.495   6.064   6.261
14687TIP3    H244005   1.510   5.913   6.262
14688TIP3   OH244006   2.664   5.001   3.455
14688TIP3    H144007   2.668   5.062   3.529
14688TIP3    H244008   2.638   4.917   3.494
14689TIP3   OH244009   1.414   0.050   1.149
14689TIP3    H144010   1.346  -0.007   1.186
14689TIP3    H244011   1.366   0.115   1.099
14690TIP3   OH244012   6.094   5.837   3.268
14690TIP3    H144013   6.160   5.867   3.205
14690TIP3    H244014   6.052   5.762   3.226
14691TIP3   OH244015   8.089   0.646   0.298
14691TIP3    H144016   8.136   0.729   0.303
14691TIP3    H244017   8.059   0.630   0.388
14692TIP3   OH244018   7.624   5.706   5.812
14692TIP3    H144019   7.673   5.724   5.892
14692TIP3    H244020   7.689   5.673   5.751
14693TIP3   OH244021  -0.031   6.244   6.404
14693TIP3    H144022   0.054   6.254   6.363
14693TIP3    H244023  -0.017   6.179   6.474
14694TIP3   OH244024   2.752   4.765   4.275
14694TIP3    H144025   2.751   4.733   4.365
14694TIP3    H244026   2.842   4.793   4.260
14695TIP3   OH244027   1.783   0.662   4.980
14695TIP3    H144028   1.779   0.746   5.025
14695TIP3    H244029   1.836   0.606   5.037
14696TIP3   OH244030   3.745   2.321   3.468
14696TIP3    H144031   3.670   2.335   3.526
14696TIP3    H244032   3.781   2.237   3.496
14697TIP3   OH244033   3.218   6.089   5.431
14697TIP3    H144034   3.191   6.172   5.470
14697TIP3    H244035   3.308   6.103   5.403
14698TIP3   OH244036   3.387   5.866   6.303
14698TIP3    H144037   3.418   5.935   6.361
14698TIP3    H244038   3.440   5.876   6.224
14699TIP3   OH244039   5.753   1.973   2.171
14699TIP3    H144040   5.831   2.021   2.200
14699TIP3    H244041   5.768   1.884   2.202
14700TIP3   OH244042   5.174   3.225   6.496
14700TIP3    H144043   5.173   3.235   6.401
14700TIP3    H244044   5.143   3.309   6.530
14701TIP3   OH244045   0.188   3.076   3.278
14701TIP3    H144046   0.248   3.032   3.218
14701TIP3    H244047   0.150   3.005   3.330
14702TIP3   OH244048   2.401   7.683   2.755
14702TIP3    H144049   2.338   7.755   2.752
14702TIP3    H244050   2.486   7.725   2.764
14703TIP3   OH244051   7.500   3.793   5.698
14703TIP3    H144052   7.494   3.735   5.623
14703TIP3    H244053   7.517   3.879   5.661
14704TIP3   OH244054   3.135   6.072   4.033
14704TIP3    H144055   3.071   6.134   4.068
14704TIP3    H244056   3.213   6.083   4.087
14705TIP3   OH244057   3.411   3.506   0.141
14705TIP3    H144058   3.425   3.506   0.047
14705TIP3    H244059   3.481   3.452   0.176
14706TIP3   OH244060   1.498   3.388   3.782
14706TIP3    H144061   1.483   3.483   3.779
14706TIP3    H244062   1.425   3.355   3.834
14707TIP3   OH244063   6.673   4.536   6.108
14707TIP3    H144064   6.599   4.519   6.049
14707TIP3    H244065   6.640   4.509   6.194
14708TIP3   OH244066   6.446   1.916   5.892
14708TIP3    H144067   6.470   1.939   5.982
14708TIP3    H244068   6.371   1.857   5.901
14709TIP3   OH244069   3.990   5.491   2.142
14709TIP3    H144070   4.006   5.399   2.121
14709TIP3    H244071   3.910   5.490   2.194
14710TIP3   OH244072   2.747   6.852   5.516
14710TIP3    H144073   2.695   6.790   5.567
14710TIP3    H244074   2.835   6.848   5.553
14711TIP3   OH244075   4.553   6.805   0.763
14711TIP3    H144076   4.624   6.814   0.827
14711TIP3    H244077   4.555   6.887   0.714
14712TIP3   OH244078   5.115   3.983   3.805
14712TIP3    H144079   5.046   4.033   3.848
14712TIP3    H244080   5.140   4.037   3.730
14713TIP3   OH244081   1.560   6.396   3.916
14713TIP3    H144082   1.590   6.383   3.826
14713TIP3    H244083   1.622   6.458   3.954
14714TIP3   OH244084   7.905   0.819   1.332
14714TIP3    H144085   7.842   0.812   1.260
14714TIP3    H244086   7.970   0.751   1.314
14715TIP3   OH244087   0.670   2.271   0.139
14715TIP3    H144088   0.759   2.236   0.144
14715TIP3    H244089   0.683   2.366   0.139
14716TIP3   OH244090   1.958   5.408   4.984
14716TIP3    H144091   2.052   5.419   5.003
14716TIP3    H244092   1.949   5.436   4.893
14717TIP3   OH244093   7.854   5.676   1.590
14717TIP3    H144094   7.805   5.748   1.550
14717TIP3    H244095   7.905   5.638   1.518
14718TIP3   OH244096   1.598   0.301   4.635
14718TIP3    H144097   1.688   0.321   4.611
14718TIP3    H244098   1.591   0.206   4.624
14719TIP3   OH244099   6.536   0.233   0.532
14719TIP3    H144100   6.608   0.282   0.492
14719TIP3    H244101   6.579   0.158   0.573
14720TIP3   OH244102   6.949   0.584   2.986
14720TIP3    H144103   6.875   0.574   2.927
14720TIP3    H244104   6.909   0.586   3.073
14721TIP3   OH244105   3.269   7.020   3.853
14721TIP3    H144106   3.294   7.061   3.936
14721TIP3    H244107   3.209   7.082   3.813
14722TIP3   OH244108   1.225   3.365   3.509
14722TIP3    H144109   1.205   3.451   3.472
14722TIP3    H244110   1.186   3.367   3.596
14723TIP3   OH244111   7.432   0.369   2.522
14723TIP3    H144112   7.468   0.442   2.471
14723TIP3    H244113   7.484   0.369   2.603
14724TIP3   OH244114   0.680   3.185   1.513
14724TIP3    H144115   0.750   3.151   1.457
14724TIP3    H244116   0.610   3.208   1.452
14725TIP3   OH244117   0.521   1.497   3.874
14725TIP3    H144118   0.573   1.419   3.892
14725TIP3    H244119   0.579   1.553   3.822
14726TIP3   OH244120   4.780   2.231   2.166
14726TIP3    H144121   4.745   2.318   2.148
14726TIP3    H244122   4.868   2.232   2.128
14727TIP3   OH244123   0.722   3.285   3.142
14727TIP3    H144124   0.773   3.338   3.081
14727TIP3    H244125   0.756   3.197   3.131
14728TIP3   OH244126   2.362   6.131   3.762
14728TIP3    H144127   2.349   6.105   3.853
14728TIP3    H244128   2.457   6.126   3.749
14729TIP3   OH244129   5.995   1.183   5.020
14729TIP3    H144130   6.019   1.097   5.056
14729TIP3    H244131   5.965   1.233   5.096
14730TIP3   OH244132   6.612   3.963   4.300
14730TIP3    H144133   6.625   4.058   4.297
14730TIP3    H244134   6.587   3.940   4.211
14731TIP3   OH244135   7.163   7.179   6.253
14731TIP3    H144136   7.146   7.262   6.208
14731TIP3    H244137   7.155   7.199   6.346
14732TIP3   OH244138   6.341   1.551   2.091
14732TIP3    H144139   6.392   1.620   2.133
14732TIP3    H244140   6.252   1.561   2.127
14733TIP3   OH244141   0.972   1.523   4.239
14733TIP3    H144142   1.046   1.559   4.288
14733TIP3    H244143   0.897   1.575   4.266
14734TIP3   OH244144   0.643   7.059   4.943
14734TIP3    H144145   0.579   7.123   4.911
14734TIP3    H244146   0.719   7.112   4.966
14735TIP3   OH244147   3.244   4.198   3.589
14735TIP3    H144148   3.260   4.239   3.674
14735TIP3    H244149   3.299   4.247   3.528
14736TIP3   OH244150   4.983   3.967   6.521
14736TIP3    H144151   5.000   3.917   6.600
14736TIP3    H244152   4.928   4.040   6.550
14737TIP3   OH244153   5.641   6.330   1.654
14737TIP3    H144154   5.660   6.363   1.566
14737TIP3    H244155   5.684   6.245   1.657
14738TIP3   OH244156   1.216   2.861   2.150
14738TIP3    H144157   1.179   2.773   2.152
14738TIP3    H244158   1.307   2.849   2.123
14739TIP3   OH244159   6.817   0.811   6.423
14739TIP3    H144160   6.817   0.716   6.428
14739TIP3    H244161   6.841   0.830   6.332
14740TIP3   OH244162   2.692   6.717   1.278
14740TIP3    H144163   2.660   6.628   1.263
14740TIP3    H244164   2.782   6.717   1.244
14741TIP3   OH244165   3.856   5.345   6.479
14741TIP3    H144166   3.932   5.395   6.510
14741TIP3    H244167   3.821   5.397   6.407
14742TIP3   OH244168   2.786   6.576   3.614
14742TIP3    H144169   2.856   6.547   3.556
14742TIP3    H244170   2.716   6.511   3.602
14743TIP3   OH244171   4.051   0.765   5.392
14743TIP3    H144172   4.130   0.807   5.358
14743TIP3    H244173   4.033   0.693   5.331
14744TIP3   OH244174   6.642   7.471   3.852
14744TIP3    H144175   6.683   7.539   3.905
14744TIP3    H244176   6.650   7.391   3.904
14745TIP3   OH244177   6.348   4.953   5.711
14745TIP3    H144178   6.256   4.936   5.730
14745TIP3    H244179   6.396   4.883   5.755
14746TIP3   OH244180   6.372   2.544   6.326
14746TIP3    H144181   6.446   2.498   6.286
14746TIP3    H244182   6.307   2.548   6.255
14747TIP3   OH244183   3.646   7.330   0.037
14747TIP3    H144184   3.643   7.276   0.116
14747TIP3    H244185   3.652   7.268  -0.035
14748TIP3   OH244186   5.829   1.775   4.099
14748TIP3    H144187   5.755   1.759   4.157
14748TIP3    H244188   5.903   1.729   4.140
14749TIP3   OH244189   4.944   4.826   4.856
14749TIP3    H144190   4.853   4.808   4.881
14749TIP3    H244191   4.946   4.808   4.762
14750TIP3   OH244192   4.384   2.384   6.470
14750TIP3    H144193   4.450   2.327   6.510
14750TIP3    H244194   4.388   2.365   6.377
14751TIP3   OH244195   3.069   3.071   5.868
14751TIP3    H144196   3.060   3.164   5.850
14751TIP3    H244197   3.117   3.036   5.793
14752TIP3   OH244198   4.091   6.000   4.606
14752TIP3    H144199   4.018   6.051   4.642
14752TIP3    H244200   4.112   6.044   4.524
14753TIP3   OH244201   0.211   3.097   4.547
14753TIP3    H144202   0.284   3.119   4.489
14753TIP3    H244203   0.171   3.182   4.569
14754TIP3   OH244204   4.981   3.066   5.564
14754TIP3    H144205   4.895   3.052   5.605
14754TIP3    H244206   5.044   3.055   5.635
14755TIP3   OH244207   4.580   0.469   3.191
14755TIP3    H144208   4.671   0.440   3.199
14755TIP3    H244209   4.551   0.435   3.106
14756TIP3   OH244210   7.863   6.426   5.536
14756TIP3    H144211   7.890   6.402   5.625
14756TIP3    H244212   7.798   6.495   5.548
14757TIP3   OH244213   7.845   3.156   1.821
14757TIP3    H144214   7.916   3.191   1.767
14757TIP3    H244215   7.850   3.061   1.807
14758TIP3   OH244216   7.999   5.839   6.015
14758TIP3    H144217   7.961   5.752   6.009
14758TIP3    H244218   8.091   5.824   6.036
14759TIP3   OH244219   5.805   2.987   5.917
14759TIP3    H144220   5.862   2.965   5.844
14759TIP3    H244221   5.808   3.083   5.923
14760TIP3   OH244222  -0.009   2.733   4.270
14760TIP3    H144223   0.014   2.662   4.210
14760TIP3    H244224   0.075   2.773   4.292
14761TIP3   OH244225   0.408   2.858   1.243
14761TIP3    H144226   0.449   2.860   1.329
14761TIP3    H244227   0.403   2.950   1.216
14762TIP3   OH244228   7.099   0.464   2.503
14762TIP3    H144229   7.172   0.446   2.445
14762TIP3    H244230   7.087   0.559   2.498
14763TIP3   OH244231   3.257   4.634   6.163
14763TIP3    H144232   3.315   4.562   6.136
14763TIP3    H244233   3.315   4.710   6.170
14764TIP3   OH244234   6.979   7.336   2.930
14764TIP3    H144235   7.004   7.385   2.852
14764TIP3    H244236   6.900   7.379   2.961
14765TIP3   OH244237   6.402   2.505   2.055
14765TIP3    H144238   6.339   2.451   2.104
14765TIP3    H244239   6.404   2.588   2.103
14766TIP3   OH244240   1.137   1.743   3.835
14766TIP3    H144241   1.125   1.663   3.785
14766TIP3    H244242   1.054   1.753   3.883
14767TIP3   OH244243   0.596   4.597   6.174
14767TIP3    H144244   0.548   4.634   6.248
14767TIP3    H244245   0.529   4.580   6.108
14768TIP3   OH244246   5.800   2.427   1.847
14768TIP3    H144247   5.731   2.398   1.787
14768TIP3    H244248   5.804   2.522   1.834
14769TIP3   OH244249   3.066   2.004   0.004
14769TIP3    H144250   3.097   1.953   0.079
14769TIP3    H244251   3.052   1.939  -0.066
14770TIP3   OH244252   4.944   7.130   0.543
14770TIP3    H144253   4.861   7.167   0.512
14770TIP3    H244254   5.007   7.202   0.532
14771TIP3   OH244255   2.367   7.542   3.773
14771TIP3    H144256   2.406   7.537   3.860
14771TIP3    H244257   2.405   7.621   3.734
14772TIP3   OH244258   3.904   3.230   5.952
14772TIP3    H144259   3.853   3.265   6.025
14772TIP3    H244260   3.852   3.156   5.919
14773TIP3   OH244261   7.527   5.371   3.380
14773TIP3    H144262   7.496   5.392   3.469
14773TIP3    H244263   7.589   5.441   3.359
14774TIP3   OH244264   5.307   3.534   4.899
14774TIP3    H144265   5.314   3.448   4.941
14774TIP3    H244266   5.284   3.515   4.808
14775TIP3   OH244267   7.354   1.749   0.756
14775TIP3    H144268   7.325   1.835   0.726
14775TIP3    H244269   7.342   1.692   0.680
14776TIP3   OH244270   2.906   0.889   1.072
14776TIP3    H144271   2.906   0.978   1.035
14776TIP3    H244272   2.817   0.857   1.057
14777TIP3   OH244273   5.895   1.811   0.926
14777TIP3    H144274   5.910   1.865   0.848
14777TIP3    H244275   5.935   1.727   0.905
14778TIP3   OH244276   1.915   2.981   1.083
14778TIP3    H144277   2.001   2.948   1.055
14778TIP3    H244278   1.925   2.998   1.177
14779TIP3   OH244279   7.719   0.641   1.616
14779TIP3    H144280   7.726   0.612   1.707
14779TIP3    H244281   7.804   0.682   1.598
14780TIP3   OH244282   7.895   7.188   5.054
14780TIP3    H144283   7.966   7.201   5.116
14780TIP3    H244284   7.829   7.139   5.103
14781TIP3   OH244285   4.404   7.540   4.470
14781TIP3    H144286   4.485   7.492   4.483
14781TIP3    H244287   4.426   7.607   4.405
14782TIP3   OH244288   2.899   3.047   2.906
14782TIP3    H144289   2.876   3.078   2.818
14782TIP3    H244290   2.954   2.970   2.891
14783TIP3   OH244291   4.771   7.556   5.637
14783TIP3    H144292   4.738   7.600   5.716
14783TIP3    H244293   4.859   7.591   5.626
14784TIP3   OH244294   4.214   4.189   2.305
14784TIP3    H144295   4.270   4.176   2.229
14784TIP3    H244296   4.273   4.217   2.374
14785TIP3   OH244297   6.395   0.615   4.629
14785TIP3    H144298   6.375   0.593   4.720
14785TIP3    H244299   6.310   0.635   4.590
14786TIP3   OH244300   5.569   1.643   5.584
14786TIP3    H144301   5.638   1.580   5.605
14786TIP3    H244302   5.600   1.686   5.504
14787TIP3   OH244303   2.019   3.607   0.895
14787TIP3    H144304   1.988   3.556   0.970
14787TIP3    H244305   2.017   3.545   0.822
14788TIP3   OH244306   0.911   3.237   4.975
14788TIP3    H144307   0.866   3.314   5.011
14788TIP3    H244308   1.000   3.243   5.010
14789TIP3   OH244309   5.815   6.160  -0.024
14789TIP3    H144310   5.820   6.121   0.063
14789TIP3    H244311   5.814   6.254  -0.009
14790TIP3   OH244312   2.482   7.035   6.335
14790TIP3    H144313   2.439   7.119   6.314
14790TIP3    H244314   2.534   7.015   6.257
14791TIP3   OH244315   0.603   0.687   4.977
14791TIP3    H144316   0.645   0.769   5.000
14791TIP3    H244317   0.667   0.640   4.924
14792TIP3   OH244318   7.670   5.489   4.368
14792TIP3    H144319   7.737   5.422   4.353
14792TIP3    H244320   7.590   5.452   4.331
14793TIP3   OH244321   6.662   6.036   0.263
14793TIP3    H144322   6.736   6.012   0.208
14793TIP3    H244323   6.696   6.102   0.322
14794TIP3   OH244324   6.598   2.042   0.746
14794TIP3    H144325   6.552   2.048   0.830
14794TIP3    H244326   6.652   1.963   0.755
14795TIP3   OH244327   7.431   3.372   1.840
14795TIP3    H144328   7.418   3.281   1.868
14795TIP3    H244329   7.456   3.365   1.748
14796TIP3   OH244330   0.133   0.191   0.202
14796TIP3    H144331   0.048   0.233   0.217
14796TIP3    H244332   0.143   0.192   0.107
14797TIP3   OH244333   8.068   7.234   1.316
14797TIP3    H144334   8.101   7.207   1.230
14797TIP3    H244335   8.104   7.171   1.377
14798TIP3   OH244336   0.472   3.511   0.863
14798TIP3    H144337   0.429   3.436   0.822
14798TIP3    H244338   0.533   3.543   0.796
14799TIP3   OH244339   1.465   1.120   1.618
14799TIP3    H144340   1.510   1.108   1.534
14799TIP3    H244341   1.452   1.031   1.651
14800TIP3   OH244342   4.601   3.591   4.754
14800TIP3    H144343   4.665   3.535   4.711
14800TIP3    H244344   4.520   3.578   4.705
14801TIP3   OH244345   1.554   5.874   5.878
14801TIP3    H144346   1.602   5.791   5.877
14801TIP3    H244347   1.545   5.898   5.786
14802TIP3   OH244348   4.233   3.355   3.083
14802TIP3    H144349   4.235   3.359   3.178
14802TIP3    H244350   4.143   3.328   3.063
14803TIP3   OH244351   0.330   3.402   5.896
14803TIP3    H144352   0.416   3.418   5.859
14803TIP3    H244353   0.338   3.318   5.942
14804TIP3   OH244354   2.642   3.567   5.392
14804TIP3    H144355   2.636   3.473   5.373
14804TIP3    H244356   2.643   3.571   5.488
14805TIP3   OH244357   6.530   5.167   5.623
14805TIP3    H144358   6.603   5.202   5.675
14805TIP3    H244359   6.495   5.096   5.676
14806TIP3   OH244360   0.607   6.440   0.239
14806TIP3    H144361   0.517   6.470   0.226
14806TIP3    H244362   0.657   6.484   0.170
14807TIP3   OH244363   2.432   1.524   0.437
14807TIP3    H144364   2.346   1.523   0.395
14807TIP3    H244365   2.491   1.555   0.369
14808TIP3   OH244366   2.702   0.066   0.245
14808TIP3    H144367   2.671   0.020   0.323
14808TIP3    H244368   2.710   0.158   0.273
14809TIP3   OH244369   5.587  -0.013   4.751
14809TIP3    H144370   5.652   0.046   4.713
14809TIP3    H244371   5.526   0.045   4.796
14810TIP3   OH244372   5.366   2.863   3.502
14810TIP3    H144373   5.421   2.785   3.504
14810TIP3    H244374   5.403   2.920   3.569
14811TIP3   OH244375   2.445   2.772   3.940
14811TIP3    H144376   2.437   2.685   3.980
14811TIP3    H244377   2.402   2.831   4.002
14812TIP3   OH244378   4.539   3.503   1.569
14812TIP3    H144379   4.503   3.576   1.620
14812TIP3    H244380   4.620   3.538   1.532
14813TIP3   OH244381   4.104   7.050   0.307
14813TIP3    H144382   4.061   6.965   0.312
14813TIP3    H244383   4.090   7.079   0.216
14814TIP3   OH244384   1.865   7.808   1.802
14814TIP3    H144385   1.878   7.716   1.825
14814TIP3    H244386   1.859   7.809   1.707
14815TIP3   OH244387   7.290   3.282   6.482
14815TIP3    H144388   7.256   3.192   6.479
14815TIP3    H244389   7.296   3.309   6.391
14816TIP3   OH244390   6.214   0.860   6.244
14816TIP3    H144391   6.285   0.808   6.283
14816TIP3    H244392   6.189   0.810   6.166
14817TIP3   OH244393   0.116   3.976   0.261
14817TIP3    H144394   0.043   4.038   0.258
14817TIP3    H244395   0.183   4.020   0.313
14818TIP3   OH244396   3.072   3.623   2.970
14818TIP3    H144397   3.057   3.533   2.941
14818TIP3    H244398   3.167   3.634   2.966
14819TIP3   OH244399   0.223   6.747   6.484
14819TIP3    H144400   0.197   6.690   6.557
14819TIP3    H244401   0.219   6.835   6.521
14820TIP3   OH244402   0.116   1.976   5.531
14820TIP3    H144403   0.139   2.063   5.498
14820TIP3    H244404   0.157   1.916   5.469
14821TIP3   OH244405   1.531   5.747   5.030
14821TIP3    H144406   1.451   5.724   5.076
14821TIP3    H244407   1.600   5.697   5.075
14822TIP3   OH244408   2.577   4.908   5.482
14822TIP3    H144409   2.525   4.835   5.516
14822TIP3    H244410   2.597   4.884   5.391
14823TIP3   OH244411   1.655   6.952   2.078
14823TIP3    H144412   1.630   6.864   2.104
14823TIP3    H244413   1.574   7.003   2.083
14824TIP3   OH244414   0.693   1.147   4.584
14824TIP3    H144415   0.683   1.235   4.548
14824TIP3    H244416   0.785   1.142   4.611
14825TIP3   OH244417   5.428   7.379   1.047
14825TIP3    H144418   5.508   7.330   1.027
14825TIP3    H244419   5.368   7.314   1.084
14826TIP3   OH244420   1.195   0.479   5.690
14826TIP3    H144421   1.262   0.520   5.744
14826TIP3    H244422   1.140   0.432   5.752
14827TIP3   OH244423   0.099   3.334   4.280
14827TIP3    H144424   0.025   3.382   4.316
14827TIP3    H244425   0.080   3.242   4.298
14828TIP3   OH244426   8.098   0.486   2.237
14828TIP3    H144427   8.170   0.424   2.245
14828TIP3    H244428   8.096   0.532   2.322
14829TIP3   OH244429   0.255   5.309   5.663
14829TIP3    H144430   0.247   5.274   5.574
14829TIP3    H244431   0.329   5.263   5.701
14830TIP3   OH244432   7.851   4.902   4.008
14830TIP3    H144433   7.881   4.981   3.963
14830TIP3    H244434   7.856   4.833   3.942
   8.28964   7.81555   6.76846   0.00000   0.00000  -2.76321   0.00000  -2.76321  -3.90777
