Title
46055
    1GLY      N    1   6.404   4.657   3.723
    1GLY    HT1    2   6.506   4.637   3.727
    1GLY    HT2    3   6.379   4.720   3.802
    1GLY    HT3    4   6.385   4.706   3.634
    1GLY     CA    5   6.325   4.530   3.733
    1GLY    HA1    6   6.333   4.494   3.835
    1GLY    HA2    7   6.364   4.462   3.659
    1GLY      C    8   6.179   4.548   3.704
    1GLY      O    9   6.135   4.662   3.697
    2PRO      N   10   6.102   4.441   3.683
    2PRO     CD   11   6.140   4.304   3.722
    2PRO    HD1   12   6.196   4.302   3.818
    2PRO    HD2   13   6.201   4.259   3.640
    2PRO     CA   14   5.958   4.451   3.663
    2PRO     HA   15   5.940   4.512   3.576
    2PRO     CB   16   5.913   4.305   3.646
    2PRO    HB1   17   5.930   4.275   3.541
    2PRO    HB2   18   5.806   4.289   3.672
    2PRO     CG   19   6.008   4.228   3.738
    2PRO    HG1   20   5.972   4.238   3.843
    2PRO    HG2   21   6.015   4.120   3.713
    2PRO      C   22   5.889   4.521   3.780
    2PRO      O   23   5.936   4.515   3.892
    3GLY      N   24   5.778   4.591   3.751
    3GLY     HN   25   5.749   4.599   3.656
    3GLY     CA   26   5.692   4.648   3.854
    3GLY    HA1   27   5.604   4.685   3.803
    3GLY    HA2   28   5.748   4.726   3.904
    3GLY      C   29   5.643   4.551   3.959
    3GLY      O   30   5.646   4.429   3.942
    4ALA      N   31   5.592   4.602   4.072
    4ALA     HN   32   5.599   4.699   4.094
    4ALA     CA   33   5.509   4.522   4.160
    4ALA     HA   34   5.567   4.435   4.186
    4ALA     CB   35   5.476   4.599   4.289
    4ALA    HB1   36   5.414   4.688   4.267
    4ALA    HB2   37   5.570   4.632   4.338
    4ALA    HB3   38   5.421   4.534   4.360
    4ALA      C   39   5.379   4.478   4.089
    4ALA      O   40   5.330   4.554   4.005
    5PRO      N   41   5.322   4.360   4.115
    5PRO     CD   42   5.383   4.256   4.197
    5PRO    HD1   43   5.380   4.287   4.304
    5PRO    HD2   44   5.488   4.235   4.166
    5PRO     CA   45   5.186   4.326   4.077
    5PRO     HA   46   5.188   4.314   3.970
    5PRO     CB   47   5.156   4.194   4.150
    5PRO    HB1   48   5.091   4.127   4.091
    5PRO    HB2   49   5.108   4.213   4.248
    5PRO     CG   50   5.295   4.134   4.174
    5PRO    HG1   51   5.297   4.065   4.260
    5PRO    HG2   52   5.329   4.081   4.082
    5PRO      C   53   5.082   4.432   4.107
    5PRO      O   54   5.094   4.502   4.208
    6GLY      N   55   4.978   4.446   4.021
    6GLY     HN   56   4.969   4.386   3.942
    6GLY     CA   57   4.866   4.536   4.046
    6GLY    HA1   58   4.797   4.526   3.964
    6GLY    HA2   59   4.908   4.635   4.056
    6GLY      C   60   4.790   4.503   4.173
    6GLY      O   61   4.805   4.394   4.227
    7PRO      N   62   4.707   4.593   4.224
    7PRO     CD   63   4.673   4.720   4.159
    7PRO    HD1   64   4.666   4.710   4.048
    7PRO    HD2   65   4.750   4.795   4.184
    7PRO     CA   66   4.611   4.560   4.329
    7PRO     HA   67   4.666   4.525   4.416
    7PRO     CB   68   4.537   4.692   4.354
    7PRO    HB1   69   4.597   4.754   4.425
    7PRO    HB2   70   4.435   4.678   4.396
    7PRO     CG   71   4.537   4.760   4.217
    7PRO    HG1   72   4.456   4.717   4.154
    7PRO    HG2   73   4.524   4.870   4.224
    7PRO      C   74   4.517   4.446   4.291
    7PRO      O   75   4.486   4.427   4.174
    8GLY      N   76   4.471   4.368   4.392
    8GLY     HN   77   4.503   4.385   4.485
    8GLY     CA   78   4.371   4.264   4.374
    8GLY    HA1   79   4.352   4.219   4.470
    8GLY    HA2   80   4.410   4.193   4.302
    8GLY      C   81   4.238   4.313   4.321
    8GLY      O   82   4.198   4.429   4.339
    9ALA      N   83   4.162   4.222   4.257
    9ALA     HN   84   4.195   4.129   4.245
    9ALA     CA   85   4.029   4.249   4.207
    9ALA     HA   86   4.042   4.331   4.137
    9ALA     CB   87   3.978   4.126   4.130
    9ALA    HB1   88   3.968   4.039   4.198
    9ALA    HB2   89   4.048   4.099   4.049
    9ALA    HB3   90   3.878   4.146   4.085
    9ALA      C   91   3.930   4.291   4.316
    9ALA      O   92   3.944   4.247   4.431
   10PRO      N   93   3.831   4.378   4.290
   10PRO     CD   94   3.799   4.429   4.156
   10PRO    HD1   95   3.752   4.347   4.097
   10PRO    HD2   96   3.889   4.468   4.103
   10PRO     CA   97   3.720   4.403   4.382
   10PRO     HA   98   3.762   4.452   4.469
   10PRO     CB   99   3.621   4.492   4.304
   10PRO    HB1  100   3.584   4.577   4.366
   10PRO    HB2  101   3.533   4.434   4.269
   10PRO     CG  102   3.698   4.540   4.180
   10PRO    HG1  103   3.632   4.558   4.093
   10PRO    HG2  104   3.753   4.634   4.204
   10PRO      C  105   3.652   4.276   4.433
   10PRO      O  106   3.633   4.183   4.355
   11GLY      N  107   3.614   4.272   4.563
   11GLY     HN  108   3.634   4.349   4.622
   11GLY     CA  109   3.537   4.161   4.620
   11GLY    HA1  110   3.516   4.188   4.723
   11GLY    HA2  111   3.599   4.073   4.611
   11GLY      C  112   3.404   4.133   4.553
   11GLY      O  113   3.356   4.215   4.474
   12PRO      N  114   3.338   4.021   4.579
   12PRO     CD  115   3.376   3.929   4.687
   12PRO    HD1  116   3.407   3.983   4.779
   12PRO    HD2  117   3.458   3.864   4.652
   12PRO     CA  118   3.200   3.999   4.536
   12PRO     HA  119   3.196   4.006   4.428
   12PRO     CB  120   3.170   3.857   4.585
   12PRO    HB1  121   3.209   3.784   4.512
   12PRO    HB2  122   3.061   3.838   4.601
   12PRO     CG  123   3.250   3.846   4.715
   12PRO    HG1  124   3.191   3.892   4.797
   12PRO    HG2  125   3.275   3.741   4.742
   12PRO      C  126   3.102   4.104   4.586
   12PRO      O  127   3.120   4.157   4.696
   13GLY      N  128   3.000   4.139   4.505
   13GLY     HN  129   2.991   4.098   4.415
   13GLY     CA  130   2.886   4.220   4.551
   13GLY    HA1  131   2.822   4.237   4.466
   13GLY    HA2  132   2.924   4.310   4.595
   13GLY      C  133   2.803   4.148   4.654
   13GLY      O  134   2.803   4.026   4.662
   14ALA      N  135   2.728   4.225   4.736
   14ALA     HN  136   2.725   4.324   4.727
   14ALA     CA  137   2.645   4.170   4.841
   14ALA     HA  138   2.713   4.115   4.904
   14ALA     CB  139   2.586   4.285   4.925
   14ALA    HB1  140   2.519   4.348   4.862
   14ALA    HB2  141   2.668   4.349   4.964
   14ALA    HB3  142   2.528   4.246   5.011
   14ALA      C  143   2.532   4.076   4.793
   14ALA      O  144   2.471   4.103   4.690
   15PRO      N  145   2.502   3.965   4.863
   15PRO     CD  146   2.586   3.910   4.969
   15PRO    HD1  147   2.590   3.981   5.055
   15PRO    HD2  148   2.689   3.893   4.930
   15PRO     CA  149   2.385   3.883   4.835
   15PRO     HA  150   2.369   3.876   4.728
   15PRO     CB  151   2.425   3.746   4.896
   15PRO    HB1  152   2.478   3.688   4.818
   15PRO    HB2  153   2.337   3.687   4.930
   15PRO     CG  154   2.522   3.778   5.010
   15PRO    HG1  155   2.466   3.792   5.105
   15PRO    HG2  156   2.598   3.698   5.024
   15PRO      C  157   2.257   3.936   4.897
   15PRO    OT1  158   2.253   4.050   4.950
   15PRO    OT2  159   2.154   3.862   4.894
   16LIT    LIT  160   3.150   1.957   5.487
   17LIT    LIT  161   2.395   0.022   0.732
   18LIT    LIT  162   2.610   1.271   4.689
   19LIT    LIT  163   3.200   0.780   4.149
   20LIT    LIT  164   8.014   7.182   1.395
   21LIT    LIT  165   5.211   6.564   1.611
   22LIT    LIT  166   8.418   0.278   1.141
   23LIT    LIT  167   2.678   2.505   3.215
   24LIT    LIT  168   2.442   1.098   2.559
   25LIT    LIT  169   4.609   7.822   6.590
   26LIT    LIT  170   5.250   1.911   1.090
   27LIT    LIT  171   6.754   4.618   0.626
   28LIT    LIT  172   2.712   8.089   5.194
   29LIT    LIT  173   7.813   4.322   4.738
   30LIT    LIT  174   4.323   1.412   6.134
   31LIT    LIT  175   5.667   7.022   4.782
   32LIT    LIT  176   2.273   3.639   6.307
   33LIT    LIT  177   5.364   5.985   0.646
   34LIT    LIT  178   7.612   5.825   5.772
   35LIT    LIT  179   5.124   4.098   6.034
   36LIT    LIT  180   0.949   6.381   6.722
   37LIT    LIT  181   2.117   1.734   1.835
   38LIT    LIT  182   2.034   1.103   5.029
   39LIT    LIT  183   0.386   2.419   5.859
   40LIT    LIT  184   8.475   5.562   5.749
   41LIT    LIT  185   6.020   6.162   5.675
   42LIT    LIT  186   1.054   1.787   6.123
   43LIT    LIT  187   5.412   7.813   5.597
   44LIT    LIT  188   7.471   5.726   1.710
   45LIT    LIT  189   2.470   7.723   2.068
   46LIT    LIT  190   0.562   2.167   1.584
   47LIT    LIT  191   5.329   0.326   3.924
   48LIT    LIT  192   2.355   6.420   1.868
   49LIT    LIT  193   3.133   7.490   0.728
   50LIT    LIT  194   0.795   4.211   3.489
   51LIT    LIT  195   0.619   2.599   0.298
   52LIT    LIT  196   6.770   1.389   4.940
   53LIT    LIT  197   2.443   0.311   5.855
   54LIT    LIT  198   4.631   0.778   3.495
   55LIT    LIT  199   5.768   3.025   0.280
   56LIT    LIT  200   6.214   7.557   6.209
   57LIT    LIT  201   3.907   4.299   6.680
   58LIT    LIT  202   0.026   6.121   2.978
   59CLA    CLA  203   5.690   0.047   2.419
   60CLA    CLA  204   7.090   7.003   0.925
   61CLA    CLA  205   4.881   4.125   6.361
   62CLA    CLA  206   4.295   2.840   4.782
   63CLA    CLA  207   3.198   3.109   0.060
   64CLA    CLA  208   2.500   1.659   1.164
   65CLA    CLA  209   3.366   1.534   6.994
   66CLA    CLA  210   7.470   6.339   2.169
   67CLA    CLA  211   5.893   2.643   0.497
   68CLA    CLA  212   5.174   6.201   5.382
   69CLA    CLA  213   5.256   4.466   1.000
   70CLA    CLA  214   4.927   0.798   6.746
   71CLA    CLA  215   4.866   1.201   1.584
   72CLA    CLA  216   8.278   4.730   3.427
   73CLA    CLA  217   1.952   4.117   4.385
   74CLA    CLA  218   5.698   7.679   1.640
   75CLA    CLA  219   7.578   6.021   5.669
   76CLA    CLA  220   8.099   2.196   4.455
   77CLA    CLA  221   3.277   4.572   2.459
   78CLA    CLA  222   0.792   1.436   0.206
   79CLA    CLA  223   6.071   3.467   6.690
   80CLA    CLA  224   2.612   2.277   6.801
   81CLA    CLA  225   0.030   6.249   4.012
   82CLA    CLA  226   2.933   4.112   5.867
   83CLA    CLA  227   2.423   1.338   4.789
   84CLA    CLA  228   0.751   6.378   5.563
   85CLA    CLA  229   7.237   7.061   0.051
   86CLA    CLA  230   0.412   6.809   3.294
   87CLA    CLA  231   5.567   7.728   5.461
   88CLA    CLA  232   1.589   6.753   3.884
   89CLA    CLA  233   6.482   7.321   3.971
   90CLA    CLA  234   2.466   0.442   1.212
   91CLA    CLA  235   1.014   5.718   1.030
   92CLA    CLA  236   7.870   3.097   6.956
   93CLA    CLA  237   2.202   3.735   0.836
   94CLA    CLA  238   5.840   5.949   4.709
   95CLA    CLA  239   2.774   7.119   0.939
   96CLA    CLA  240   0.449   1.766   5.426
   97CLA    CLA  241   6.775   5.051   3.494
   98CLA    CLA  242   4.207   4.885   5.012
   99CLA    CLA  243   2.091   0.890   5.020
  100CLA    CLA  244   6.788   1.430   0.181
  101CLA    CLA  245   5.171   7.231   3.528
  102TIP3   OH2  246   3.268   0.351   2.286
  102TIP3    H1  247   3.256   0.256   2.281
  102TIP3    H2  248   3.185   0.384   2.321
  103TIP3   OH2  249   2.952   0.708   2.355
  103TIP3    H1  250   2.948   0.712   2.260
  103TIP3    H2  251   3.036   0.748   2.378
  104TIP3   OH2  252   3.245   0.065   2.293
  104TIP3    H1  253   3.169   0.065   2.352
  104TIP3    H2  254   3.227  -0.005   2.231
  105TIP3   OH2  255   2.689   0.261   2.616
  105TIP3    H1  256   2.733   0.180   2.640
  105TIP3    H2  257   2.759   0.326   2.612
  106TIP3   OH2  258   3.061   0.429   2.043
  106TIP3    H1  259   3.019   0.363   1.987
  106TIP3    H2  260   3.155   0.412   2.033
  107TIP3   OH2  261   3.114   0.147   2.586
  107TIP3    H1  262   3.049   0.147   2.657
  107TIP3    H2  263   3.165   0.227   2.599
  108TIP3   OH2  264   3.013   0.434   2.366
  108TIP3    H1  265   2.968   0.407   2.286
  108TIP3    H2  266   2.991   0.527   2.375
  109TIP3   OH2  267   1.336   7.708   1.554
  109TIP3    H1  268   1.379   7.790   1.577
  109TIP3    H2  269   1.373   7.685   1.468
  110TIP3   OH2  270   4.619   0.073   1.258
  110TIP3    H1  271   4.546   0.066   1.319
  110TIP3    H2  272   4.681   0.132   1.301
  111TIP3   OH2  273   4.016   0.434   1.173
  111TIP3    H1  274   4.096   0.420   1.122
  111TIP3    H2  275   4.036   0.509   1.229
  112TIP3   OH2  276   4.065   0.106   1.611
  112TIP3    H1  277   4.085   0.033   1.553
  112TIP3    H2  278   4.150   0.140   1.638
  113TIP3   OH2  279   3.944   0.007   1.840
  113TIP3    H1  280   3.852   0.034   1.833
  113TIP3    H2  281   3.986   0.046   1.762
  114TIP3   OH2  282   3.704   0.150   1.852
  114TIP3    H1  283   3.709   0.242   1.828
  114TIP3    H2  284   3.643   0.148   1.926
  115TIP3   OH2  285   4.658   0.302   1.421
  115TIP3    H1  286   4.570   0.301   1.460
  115TIP3    H2  287   4.645   0.335   1.333
  116TIP3   OH2  288   4.266   0.373   1.062
  116TIP3    H1  289   4.338   0.315   1.038
  116TIP3    H2  290   4.266   0.440   0.993
  117TIP3   OH2  291   4.823   0.252   1.720
  117TIP3    H1  292   4.827   0.185   1.651
  117TIP3    H2  293   4.809   0.334   1.673
  118TIP3   OH2  294   1.797   7.925   1.870
  118TIP3    H1  295   1.781   8.019   1.876
  118TIP3    H2  296   1.732   7.893   1.807
  119TIP3   OH2  297   4.411   0.375   1.522
  119TIP3    H1  298   4.398   0.470   1.514
  119TIP3    H2  299   4.407   0.359   1.616
  120TIP3   OH2  300   3.958   0.255   2.011
  120TIP3    H1  301   3.890   0.308   2.052
  120TIP3    H2  302   3.911   0.190   1.959
  121TIP3   OH2  303   0.852   7.922   2.142
  121TIP3    H1  304   0.835   8.013   2.164
  121TIP3    H2  305   0.797   7.905   2.066
  122TIP3   OH2  306   3.758   0.407   2.122
  122TIP3    H1  307   3.734   0.423   2.031
  122TIP3    H2  308   3.674   0.395   2.167
  123TIP3   OH2  309   5.053   0.636   1.754
  123TIP3    H1  310   5.053   0.540   1.756
  123TIP3    H2  311   4.970   0.661   1.795
  124TIP3   OH2  312   4.170   0.388   1.900
  124TIP3    H1  313   4.151   0.482   1.911
  124TIP3    H2  314   4.089   0.344   1.927
  125TIP3   OH2  315   2.035   7.869   2.018
  125TIP3    H1  316   1.976   7.939   1.988
  125TIP3    H2  317   1.999   7.789   1.980
  126TIP3   OH2  318   3.525   0.164   2.060
  126TIP3    H1  319   3.590   0.152   2.129
  126TIP3    H2  320   3.450   0.112   2.088
  127TIP3   OH2  321   1.930   7.629   1.933
  127TIP3    H1  322   1.855   7.618   1.991
  127TIP3    H2  323   1.893   7.633   1.845
  128TIP3   OH2  324   1.531   7.885   2.134
  128TIP3    H1  325   1.554   7.813   2.193
  128TIP3    H2  326   1.611   7.937   2.128
  129TIP3   OH2  327   1.570   7.827   1.736
  129TIP3    H1  328   1.621   7.753   1.702
  129TIP3    H2  329   1.523   7.791   1.811
  130TIP3   OH2  330   4.749   0.983   1.822
  130TIP3    H1  331   4.734   1.023   1.737
  130TIP3    H2  332   4.833   1.019   1.851
  131TIP3   OH2  333   3.696   0.073   2.262
  131TIP3    H1  334   3.780   0.089   2.305
  131TIP3    H2  335   3.632   0.082   2.332
  132TIP3   OH2  336   4.844   0.041   1.557
  132TIP3    H1  337   4.867   0.066   1.468
  132TIP3    H2  338   4.768  -0.017   1.547
  133TIP3   OH2  339   4.274   0.127   1.966
  133TIP3    H1  340   4.323   0.115   2.047
  133TIP3    H2  341   4.240   0.217   1.971
  134TIP3   OH2  342   1.284   7.984   2.204
  134TIP3    H1  343   1.220   7.924   2.168
  134TIP3    H2  344   1.367   7.958   2.165
  135TIP3   OH2  345   4.426   0.421   1.806
  135TIP3    H1  346   4.333   0.402   1.820
  135TIP3    H2  347   4.453   0.471   1.883
  136TIP3   OH2  348   5.073   0.356   1.764
  136TIP3    H1  349   4.983   0.330   1.780
  136TIP3    H2  350   5.096   0.313   1.681
  137TIP3   OH2  351   1.746   8.003   1.528
  137TIP3    H1  352   1.674   8.060   1.499
  137TIP3    H2  353   1.725   7.917   1.492
  138TIP3   OH2  354   3.947   0.447   1.677
  138TIP3    H1  355   3.986   0.534   1.688
  138TIP3    H2  356   4.017   0.394   1.641
  139TIP3   OH2  357   4.327   0.151   1.700
  139TIP3    H1  358   4.287   0.137   1.786
  139TIP3    H2  359   4.421   0.146   1.717
  140TIP3   OH2  360   4.584   0.651   1.689
  140TIP3    H1  361   4.506   0.597   1.689
  140TIP3    H2  362   4.566   0.720   1.624
  141TIP3   OH2  363   3.321   0.380   1.949
  141TIP3    H1  364   3.394   0.323   1.971
  141TIP3    H2  365   3.362   0.464   1.927
  142TIP3   OH2  366   1.456   7.701   1.945
  142TIP3    H1  367   1.464   7.766   2.015
  142TIP3    H2  368   1.507   7.626   1.975
  143TIP3   OH2  369   4.631   0.642   1.333
  143TIP3    H1  370   4.582   0.676   1.259
  143TIP3    H2  371   4.722   0.662   1.313
  144TIP3   OH2  372   3.379   0.659   2.244
  144TIP3    H1  373   3.462   0.659   2.291
  144TIP3    H2  374   3.359   0.566   2.230
  145TIP3   OH2  375   3.853   0.588   2.305
  145TIP3    H1  376   3.949   0.581   2.307
  145TIP3    H2  377   3.826   0.526   2.237
  146TIP3   OH2  378   4.479   0.530   2.052
  146TIP3    H1  379   4.491   0.459   2.114
  146TIP3    H2  380   4.554   0.588   2.065
  147TIP3   OH2  381   3.480   0.074   2.441
  147TIP3    H1  382   3.505  -0.019   2.446
  147TIP3    H2  383   3.401   0.075   2.388
  148TIP3   OH2  384   4.101   0.151   2.218
  148TIP3    H1  385   4.059   0.179   2.137
  148TIP3    H2  386   4.128   0.060   2.202
  149TIP3   OH2  387   4.577   0.191   1.822
  149TIP3    H1  388   4.661   0.214   1.783
  149TIP3    H2  389   4.528   0.274   1.823
  150TIP3   OH2  390   0.706   7.924   2.425
  150TIP3    H1  391   0.764   7.882   2.362
  150TIP3    H2  392   0.763   7.948   2.499
  151TIP3   OH2  393   1.092   7.803   2.101
  151TIP3    H1  394   1.012   7.853   2.117
  151TIP3    H2  395   1.117   7.826   2.012
  152TIP3   OH2  396   4.467   0.077   2.197
  152TIP3    H1  397   4.548   0.057   2.149
  152TIP3    H2  398   4.476   0.030   2.280
  153TIP3   OH2  399   1.219   7.556   2.126
  153TIP3    H1  400   1.180   7.490   2.069
  153TIP3    H2  401   1.172   7.636   2.107
  154TIP3   OH2  402   1.186   7.865   1.854
  154TIP3    H1  403   1.279   7.873   1.833
  154TIP3    H2  404   1.151   7.953   1.844
  155TIP3   OH2  405   1.830   7.941   2.253
  155TIP3    H1  406   1.830   7.874   2.322
  155TIP3    H2  407   1.920   7.972   2.250
  156TIP3   OH2  408   4.692   0.067   2.034
  156TIP3    H1  409   4.637   0.113   1.970
  156TIP3    H2  410   4.778   0.061   1.991
  157TIP3   OH2  411   1.070   7.733   2.443
  157TIP3    H1  412   1.029   7.649   2.426
  157TIP3    H2  413   1.108   7.759   2.359
  158TIP3   OH2  414   1.469   7.606   2.234
  158TIP3    H1  415   1.489   7.531   2.290
  158TIP3    H2  416   1.384   7.585   2.195
  159TIP3   OH2  417   4.873   0.726   1.234
  159TIP3    H1  418   4.911   0.719   1.321
  159TIP3    H2  419   4.870   0.820   1.217
  160TIP3   OH2  420   4.941   0.678   1.492
  160TIP3    H1  421   4.883   0.607   1.520
  160TIP3    H2  422   4.993   0.699   1.570
  161TIP3   OH2  423   4.930   0.418   2.084
  161TIP3    H1  424   4.863   0.424   2.151
  161TIP3    H2  425   4.975   0.503   2.088
  162TIP3   OH2  426   4.946   0.151   1.322
  162TIP3    H1  427   4.953   0.100   1.241
  162TIP3    H2  428   4.944   0.242   1.293
  163TIP3   OH2  429   4.776   0.482   1.584
  163TIP3    H1  430   4.705   0.539   1.613
  163TIP3    H2  431   4.736   0.429   1.515
  164TIP3   OH2  432   4.929   0.062   1.896
  164TIP3    H1  433   4.993   0.002   1.858
  164TIP3    H2  434   4.900   0.116   1.823
  165TIP3   OH2  435   2.306   8.024   1.922
  165TIP3    H1  436   2.267   8.034   2.009
  165TIP3    H2  437   2.387   8.075   1.925
  166TIP3   OH2  438   4.481   0.528   0.924
  166TIP3    H1  439   4.536   0.473   0.868
  166TIP3    H2  440   4.542   0.565   0.988
  167TIP3   OH2  441   3.536   0.386   2.281
  167TIP3    H1  442   3.442   0.368   2.275
  167TIP3    H2  443   3.555   0.385   2.374
  168TIP3   OH2  444   3.737   0.429   1.854
  168TIP3    H1  445   3.692   0.509   1.827
  168TIP3    H2  446   3.813   0.423   1.796
  169TIP3   OH2  447   4.142   0.660   1.958
  169TIP3    H1  448   4.184   0.654   2.043
  169TIP3    H2  449   4.203   0.710   1.904
  170TIP3   OH2  450   4.332   0.816   1.833
  170TIP3    H1  451   4.389   0.776   1.767
  170TIP3    H2  452   4.392   0.869   1.886
  171TIP3   OH2  453   3.394   0.640   1.887
  171TIP3    H1  454   3.358   0.665   1.802
  171TIP3    H2  455   3.360   0.706   1.948
  172TIP3   OH2  456   3.647   0.678   1.781
  172TIP3    H1  457   3.564   0.667   1.828
  172TIP3    H2  458   3.622   0.711   1.695
  173TIP3   OH2  459   4.076   0.692   1.626
  173TIP3    H1  460   3.995   0.706   1.575
  173TIP3    H2  461   4.096   0.779   1.661
  174TIP3   OH2  462   4.331   0.628   1.570
  174TIP3    H1  463   4.240   0.647   1.589
  174TIP3    H2  464   4.364   0.706   1.526
  175TIP3   OH2  465   4.502   0.824   1.487
  175TIP3    H1  466   4.506   0.907   1.439
  175TIP3    H2  467   4.549   0.762   1.432
  176TIP3   OH2  468   3.843   0.463   1.405
  176TIP3    H1  469   3.848   0.384   1.351
  176TIP3    H2  470   3.909   0.449   1.473
  177TIP3   OH2  471   4.802   0.709   1.848
  177TIP3    H1  472   4.730   0.673   1.797
  177TIP3    H2  473   4.790   0.804   1.843
  178TIP3   OH2  474   5.550   0.421   1.353
  178TIP3    H1  475   5.531   0.506   1.315
  178TIP3    H2  476   5.470   0.399   1.403
  179TIP3   OH2  477   5.749   0.528   1.507
  179TIP3    H1  478   5.687   0.592   1.544
  179TIP3    H2  479   5.696   0.477   1.446
  180TIP3   OH2  480   5.540   0.689   1.584
  180TIP3    H1  481   5.513   0.694   1.493
  180TIP3    H2  482   5.460   0.666   1.631
  181TIP3   OH2  483   5.128   0.208   1.537
  181TIP3    H1  484   5.065   0.188   1.467
  181TIP3    H2  485   5.163   0.123   1.563
  182TIP3   OH2  486   4.961   0.410   1.228
  182TIP3    H1  487   5.043   0.422   1.181
  182TIP3    H2  488   4.948   0.493   1.274
  183TIP3   OH2  489   5.927   0.676   1.349
  183TIP3    H1  490   5.931   0.762   1.390
  183TIP3    H2  491   5.875   0.623   1.410
  184TIP3   OH2  492   5.325   0.403   1.513
  184TIP3    H1  493   5.377   0.392   1.593
  184TIP3    H2  494   5.258   0.335   1.519
  185TIP3   OH2  495   6.543   1.190   1.350
  185TIP3    H1  496   6.548   1.254   1.279
  185TIP3    H2  497   6.620   1.208   1.404
  186TIP3   OH2  498   5.484   0.335   1.751
  186TIP3    H1  499   5.567   0.356   1.793
  186TIP3    H2  500   5.417   0.354   1.817
  187TIP3   OH2  501   2.375   8.093   1.656
  187TIP3    H1  502   2.433   8.132   1.720
  187TIP3    H2  503   2.320   8.033   1.706
  188TIP3   OH2  504   5.736   0.740   1.162
  188TIP3    H1  505   5.768   0.802   1.098
  188TIP3    H2  506   5.814   0.714   1.212
  189TIP3   OH2  507   5.197   0.593   1.331
  189TIP3    H1  508   5.241   0.527   1.385
  189TIP3    H2  509   5.195   0.671   1.387
  190TIP3   OH2  510   5.179   0.918   1.736
  190TIP3    H1  511   5.263   0.919   1.781
  190TIP3    H2  512   5.154   0.826   1.733
  191TIP3   OH2  513   5.650   0.843   1.783
  191TIP3    H1  514   5.744   0.825   1.782
  191TIP3    H2  515   5.615   0.794   1.709
  192TIP3   OH2  516   6.274   0.802   1.557
  192TIP3    H1  517   6.288   0.718   1.600
  192TIP3    H2  518   6.361   0.842   1.553
  193TIP3   OH2  519   5.280   0.340   1.941
  193TIP3    H1  520   5.295   0.246   1.947
  193TIP3    H2  521   5.202   0.348   1.886
  194TIP3   OH2  522   5.891   0.398   1.694
  194TIP3    H1  523   5.842   0.442   1.624
  194TIP3    H2  524   5.927   0.320   1.652
  195TIP3   OH2  525   5.393   0.078   1.901
  195TIP3    H1  526   5.467   0.099   1.843
  195TIP3    H2  527   5.426   0.097   1.989
  196TIP3   OH2  528   4.728   0.709   0.799
  196TIP3    H1  529   4.725   0.664   0.714
  196TIP3    H2  530   4.820   0.703   0.825
  197TIP3   OH2  531   4.968   0.660   0.906
  197TIP3    H1  532   4.976   0.566   0.894
  197TIP3    H2  533   5.027   0.679   0.980
  198TIP3   OH2  534   5.328   0.638   1.753
  198TIP3    H1  535   5.233   0.627   1.745
  198TIP3    H2  536   5.344   0.638   1.847
  199TIP3   OH2  537   5.511   0.693   1.306
  199TIP3    H1  538   5.460   0.768   1.274
  199TIP3    H2  539   5.594   0.699   1.259
  200TIP3   OH2  540   5.933   0.937   1.451
  200TIP3    H1  541   5.975   0.927   1.536
  200TIP3    H2  542   5.999   0.979   1.396
  201TIP3   OH2  543   6.126   1.068   1.304
  201TIP3    H1  544   6.190   1.008   1.265
  201TIP3    H2  545   6.178   1.124   1.361
  202TIP3   OH2  546   5.174   0.952   1.337
  202TIP3    H1  547   5.079   0.959   1.327
  202TIP3    H2  548   5.196   1.014   1.407
  203TIP3   OH2  549   5.407   0.922   1.195
  203TIP3    H1  550   5.324   0.933   1.241
  203TIP3    H2  551   5.389   0.951   1.106
  204TIP3   OH2  552   5.823   0.938   0.988
  204TIP3    H1  553   5.761   0.980   0.927
  204TIP3    H2  554   5.862   1.011   1.036
  205TIP3   OH2  555   5.165   0.719   1.087
  205TIP3    H1  556   5.154   0.688   1.176
  205TIP3    H2  557   5.257   0.701   1.067
  206TIP3   OH2  558   0.773   2.325   2.461
  206TIP3    H1  559   0.700   2.284   2.508
  206TIP3    H2  560   0.843   2.331   2.526
  207TIP3   OH2  561   1.155   1.705   2.677
  207TIP3    H1  562   1.083   1.643   2.662
  207TIP3    H2  563   1.111   1.788   2.698
  208TIP3   OH2  564   2.018   1.948   1.321
  208TIP3    H1  565   2.078   1.941   1.247
  208TIP3    H2  566   2.066   1.910   1.395
  209TIP3   OH2  567   2.998   0.915   1.752
  209TIP3    H1  568   3.015   1.003   1.785
  209TIP3    H2  569   3.039   0.914   1.665
  210TIP3   OH2  570   3.023   1.144   1.906
  210TIP3    H1  571   2.945   1.198   1.889
  210TIP3    H2  572   3.068   1.191   1.976
  211TIP3   OH2  573   2.260   1.794   1.364
  211TIP3    H1  574   2.244   1.833   1.450
  211TIP3    H2  575   2.342   1.746   1.375
  212TIP3   OH2  576   2.631   1.824   1.882
  212TIP3    H1  577   2.669   1.756   1.825
  212TIP3    H2  578   2.656   1.906   1.840
  213TIP3   OH2  579   2.885   1.447   1.740
  213TIP3    H1  580   2.814   1.511   1.741
  213TIP3    H2  581   2.915   1.446   1.649
  214TIP3   OH2  582   2.474   1.334   2.007
  214TIP3    H1  583   2.514   1.403   2.061
  214TIP3    H2  584   2.451   1.378   1.925
  215TIP3   OH2  585   2.170   1.935   1.580
  215TIP3    H1  586   2.178   2.027   1.606
  215TIP3    H2  587   2.233   1.889   1.635
  216TIP3   OH2  588   1.777   1.802   2.178
  216TIP3    H1  589   1.729   1.871   2.225
  216TIP3    H2  590   1.712   1.761   2.122
  217TIP3   OH2  591   1.589   1.984   2.266
  217TIP3    H1  592   1.565   1.985   2.174
  217TIP3    H2  593   1.506   1.970   2.312
  218TIP3   OH2  594   2.904   2.201   1.928
  218TIP3    H1  595   2.908   2.106   1.931
  218TIP3    H2  596   2.818   2.222   1.966
  219TIP3   OH2  597   1.964   1.935   2.022
  219TIP3    H1  598   1.959   2.027   2.046
  219TIP3    H2  599   1.900   1.892   2.080
  220TIP3   OH2  600   2.787   1.280   2.184
  220TIP3    H1  601   2.761   1.284   2.092
  220TIP3    H2  602   2.803   1.187   2.200
  221TIP3   OH2  603   2.547   1.087   2.102
  221TIP3    H1  604   2.539   1.121   2.191
  221TIP3    H2  605   2.519   1.159   2.046
  222TIP3   OH2  606   2.274   1.337   2.362
  222TIP3    H1  607   2.247   1.258   2.409
  222TIP3    H2  608   2.338   1.307   2.298
  223TIP3   OH2  609   2.595   2.520   1.996
  223TIP3    H1  610   2.586   2.542   1.903
  223TIP3    H2  611   2.675   2.566   2.023
  224TIP3   OH2  612   1.504   1.706   2.490
  224TIP3    H1  613   1.597   1.701   2.511
  224TIP3    H2  614   1.470   1.618   2.506
  225TIP3   OH2  615   2.647   1.597   1.703
  225TIP3    H1  616   2.703   1.641   1.639
  225TIP3    H2  617   2.629   1.511   1.665
  226TIP3   OH2  618   2.016   1.443   2.351
  226TIP3    H1  619   1.962   1.382   2.302
  226TIP3    H2  620   2.106   1.413   2.337
  227TIP3   OH2  621   2.220   1.897   1.971
  227TIP3    H1  622   2.131   1.921   1.994
  227TIP3    H2  623   2.275   1.962   2.015
  228TIP3   OH2  624   2.901   1.929   1.973
  228TIP3    H1  625   2.824   1.921   2.029
  228TIP3    H2  626   2.880   1.876   1.896
  229TIP3   OH2  627   1.757   2.070   1.873
  229TIP3    H1  628   1.792   2.145   1.826
  229TIP3    H2  629   1.827   2.005   1.872
  230TIP3   OH2  630   2.407   2.199   1.867
  230TIP3    H1  631   2.367   2.124   1.823
  230TIP3    H2  632   2.418   2.264   1.798
  231TIP3   OH2  633   2.218   1.063   2.202
  231TIP3    H1  634   2.204   1.136   2.142
  231TIP3    H2  635   2.198   0.985   2.151
  232TIP3   OH2  636   2.812   1.009   2.088
  232TIP3    H1  637   2.716   1.014   2.086
  232TIP3    H2  638   2.840   1.033   2.000
  233TIP3   OH2  639   2.408   2.170   1.449
  233TIP3    H1  640   2.405   2.242   1.385
  233TIP3    H2  641   2.475   2.111   1.415
  234TIP3   OH2  642   1.242   2.213   2.379
  234TIP3    H1  643   1.315   2.240   2.436
  234TIP3    H2  644   1.242   2.118   2.384
  235TIP3   OH2  645   1.689   2.153   2.459
  235TIP3    H1  646   1.784   2.146   2.461
  235TIP3    H2  647   1.663   2.096   2.387
  236TIP3   OH2  648   2.318   2.068   2.177
  236TIP3    H1  649   2.327   2.006   2.249
  236TIP3    H2  650   2.390   2.130   2.191
  237TIP3   OH2  651   1.947   1.715   2.377
  237TIP3    H1  652   1.897   1.735   2.298
  237TIP3    H2  653   1.983   1.627   2.361
  238TIP3   OH2  654   2.413   1.704   1.978
  238TIP3    H1  655   2.493   1.749   1.949
  238TIP3    H2  656   2.351   1.774   1.996
  239TIP3   OH2  657   2.322   1.631   2.356
  239TIP3    H1  658   2.416   1.634   2.337
  239TIP3    H2  659   2.301   1.538   2.357
  240TIP3   OH2  660   2.565   1.556   2.147
  240TIP3    H1  661   2.505   1.610   2.096
  240TIP3    H2  662   2.652   1.578   2.113
  241TIP3   OH2  663   2.195   1.109   2.513
  241TIP3    H1  664   2.135   1.083   2.582
  241TIP3    H2  665   2.169   1.058   2.436
  242TIP3   OH2  666   2.440   1.049   2.368
  242TIP3    H1  667   2.365   1.045   2.309
  242TIP3    H2  668   2.498   0.979   2.339
  243TIP3   OH2  669   2.600   0.997   2.609
  243TIP3    H1  670   2.628   0.912   2.574
  243TIP3    H2  671   2.676   1.029   2.658
  244TIP3   OH2  672   2.192   0.790   2.649
  244TIP3    H1  673   2.146   0.714   2.615
  244TIP3    H2  674   2.123   0.856   2.663
  245TIP3   OH2  675   2.769   2.210   1.471
  245TIP3    H1  676   2.774   2.266   1.548
  245TIP3    H2  677   2.841   2.239   1.415
  246TIP3   OH2  678   2.745   2.315   1.724
  246TIP3    H1  679   2.704   2.229   1.737
  246TIP3    H2  680   2.826   2.310   1.775
  247TIP3   OH2  681   2.769   1.966   2.231
  247TIP3    H1  682   2.701   1.974   2.299
  247TIP3    H2  683   2.817   2.049   2.236
  248TIP3   OH2  684   2.780   1.716   1.492
  248TIP3    H1  685   2.780   1.649   1.424
  248TIP3    H2  686   2.807   1.796   1.446
  249TIP3   OH2  687   2.684   2.045   1.720
  249TIP3    H1  688   2.589   2.033   1.710
  249TIP3    H2  689   2.717   2.050   1.630
  250TIP3   OH2  690   2.816   1.619   2.048
  250TIP3    H1  691   2.885   1.553   2.048
  250TIP3    H2  692   2.827   1.666   1.966
  251TIP3   OH2  693   3.000   1.422   2.089
  251TIP3    H1  694   2.928   1.376   2.131
  251TIP3    H2  695   3.078   1.370   2.110
  252TIP3   OH2  696   7.734   6.027   6.536
  252TIP3    H1  697   7.742   6.081   6.457
  252TIP3    H2  698   7.660   6.065   6.583
  253TIP3   OH2  699   2.766   1.270   1.908
  253TIP3    H1  700   2.688   1.240   1.861
  253TIP3    H2  701   2.808   1.332   1.848
  254TIP3   OH2  702   3.207   0.830   2.370
  254TIP3    H1  703   3.270   0.773   2.326
  254TIP3    H2  704   3.171   0.884   2.300
  255TIP3   OH2  705   3.071   0.961   2.173
  255TIP3    H1  706   2.977   0.973   2.159
  255TIP3    H2  707   3.101   0.911   2.098
  256TIP3   OH2  708   1.368   1.948   2.435
  256TIP3    H1  709   1.393   1.856   2.441
  256TIP3    H2  710   1.392   1.985   2.520
  257TIP3   OH2  711   1.540   1.966   1.999
  257TIP3    H1  712   1.466   2.003   1.951
  257TIP3    H2  713   1.617   2.004   1.958
  258TIP3   OH2  714   1.988   2.203   2.103
  258TIP3    H1  715   2.029   2.202   2.189
  258TIP3    H2  716   2.049   2.252   2.048
  259TIP3   OH2  717   2.182   2.354   1.976
  259TIP3    H1  718   2.248   2.298   1.935
  259TIP3    H2  719   2.233   2.416   2.028
  260TIP3   OH2  720   2.946   0.673   2.077
  260TIP3    H1  721   2.867   0.674   2.023
  260TIP3    H2  722   2.982   0.585   2.067
  261TIP3   OH2  723   1.247   2.222   2.078
  261TIP3    H1  724   1.247   2.315   2.101
  261TIP3    H2  725   1.242   2.177   2.162
  262TIP3   OH2  726   1.475   2.255   1.926
  262TIP3    H1  727   1.402   2.243   1.986
  262TIP3    H2  728   1.444   2.218   1.843
  263TIP3   OH2  729   1.893   2.254   1.715
  263TIP3    H1  730   1.866   2.255   1.623
  263TIP3    H2  731   1.907   2.345   1.737
  264TIP3   OH2  732   2.156   2.174   1.702
  264TIP3    H1  733   2.065   2.189   1.727
  264TIP3    H2  734   2.183   2.255   1.658
  265TIP3   OH2  735   2.426   2.359   1.651
  265TIP3    H1  736   2.350   2.411   1.627
  265TIP3    H2  737   2.440   2.300   1.576
  266TIP3   OH2  738   2.730   0.774   2.514
  266TIP3    H1  739   2.738   0.719   2.592
  266TIP3    H2  740   2.798   0.742   2.455
  267TIP3   OH2  741   2.641   2.248   2.009
  267TIP3    H1  742   2.565   2.213   1.964
  267TIP3    H2  743   2.628   2.343   2.009
  268TIP3   OH2  744   3.945   1.587   0.852
  268TIP3    H1  745   3.933   1.675   0.816
  268TIP3    H2  746   3.856   1.551   0.857
  269TIP3   OH2  747   3.934   1.661   1.172
  269TIP3    H1  748   3.976   1.640   1.255
  269TIP3    H2  749   3.898   1.578   1.141
  270TIP3   OH2  750   3.188   1.458   1.635
  270TIP3    H1  751   3.238   1.395   1.687
  270TIP3    H2  752   3.215   1.543   1.669
  271TIP3   OH2  753   4.189   1.926   0.849
  271TIP3    H1  754   4.175   1.864   0.921
  271TIP3    H2  755   4.207   2.009   0.892
  272TIP3   OH2  756   3.142   1.932   1.369
  272TIP3    H1  757   3.129   1.860   1.306
  272TIP3    H2  758   3.214   1.983   1.333
  273TIP3   OH2  759   2.964   1.417   1.197
  273TIP3    H1  760   2.992   1.334   1.159
  273TIP3    H2  761   2.980   1.482   1.129
  274TIP3   OH2  762   3.799   2.403   0.849
  274TIP3    H1  763   3.855   2.339   0.805
  274TIP3    H2  764   3.793   2.371   0.939
  275TIP3   OH2  765   3.751   1.857   1.143
  275TIP3    H1  766   3.807   1.780   1.148
  275TIP3    H2  767   3.801   1.927   1.185
  276TIP3   OH2  768   4.734   1.169   1.175
  276TIP3    H1  769   4.753   1.245   1.231
  276TIP3    H2  770   4.774   1.191   1.091
  277TIP3   OH2  771   4.192   1.368   1.241
  277TIP3    H1  772   4.217   1.281   1.270
  277TIP3    H2  773   4.150   1.355   1.156
  278TIP3   OH2  774   3.472   0.981   1.135
  278TIP3    H1  775   3.435   1.061   1.172
  278TIP3    H2  776   3.397   0.934   1.099
  279TIP3   OH2  777   4.184   1.162   0.841
  279TIP3    H1  778   4.258   1.120   0.884
  279TIP3    H2  779   4.215   1.179   0.751
  280TIP3   OH2  780   3.135   1.215   1.125
  280TIP3    H1  781   3.132   1.167   1.207
  280TIP3    H2  782   3.112   1.150   1.058
  281TIP3   OH2  783   3.586   1.475   1.123
  281TIP3    H1  784   3.682   1.473   1.121
  281TIP3    H2  785   3.560   1.394   1.080
  282TIP3   OH2  786   4.793   1.377   1.343
  282TIP3    H1  787   4.708   1.420   1.351
  282TIP3    H2  788   4.803   1.327   1.424
  283TIP3   OH2  789   3.462   0.993   1.689
  283TIP3    H1  790   3.425   1.044   1.618
  283TIP3    H2  791   3.411   1.017   1.766
  284TIP3   OH2  792   3.927   1.814   0.692
  284TIP3    H1  793   3.871   1.863   0.632
  284TIP3    H2  794   3.999   1.874   0.712
  285TIP3   OH2  795   3.587   1.779   1.434
  285TIP3    H1  796   3.523   1.842   1.467
  285TIP3    H2  797   3.586   1.790   1.339
  286TIP3   OH2  798   4.380   1.097   1.017
  286TIP3    H1  799   4.346   1.058   1.097
  286TIP3    H2  800   4.427   1.175   1.045
  287TIP3   OH2  801   3.282   1.088   1.501
  287TIP3    H1  802   3.320   1.174   1.516
  287TIP3    H2  803   3.343   1.044   1.442
  288TIP3   OH2  804   3.406   1.974   1.508
  288TIP3    H1  805   3.395   2.061   1.471
  288TIP3    H2  806   3.329   1.961   1.563
  289TIP3   OH2  807   4.221   2.175   0.969
  289TIP3    H1  808   4.136   2.166   1.011
  289TIP3    H2  809   4.217   2.259   0.923
  290TIP3   OH2  810   4.520   1.032   1.310
  290TIP3    H1  811   4.440   1.082   1.299
  290TIP3    H2  812   4.586   1.080   1.259
  291TIP3   OH2  813   3.843   0.718   1.494
  291TIP3    H1  814   3.837   0.629   1.460
  291TIP3    H2  815   3.752   0.745   1.507
  292TIP3   OH2  816   3.936   2.230   0.689
  292TIP3    H1  817   3.982   2.147   0.674
  292TIP3    H2  818   3.994   2.297   0.652
  293TIP3   OH2  819   4.095   2.027   0.618
  293TIP3    H1  820   4.128   1.986   0.538
  293TIP3    H2  821   4.151   1.992   0.687
  294TIP3   OH2  822   4.452   2.073   1.326
  294TIP3    H1  823   4.437   1.998   1.269
  294TIP3    H2  824   4.433   2.149   1.270
  295TIP3   OH2  825   3.701   1.456   0.528
  295TIP3    H1  826   3.682   1.539   0.571
  295TIP3    H2  827   3.766   1.477   0.461
  296TIP3   OH2  828   4.638   1.721   1.170
  296TIP3    H1  829   4.555   1.767   1.176
  296TIP3    H2  830   4.666   1.733   1.080
  297TIP3   OH2  831   4.240   1.651   0.560
  297TIP3    H1  832   4.151   1.626   0.585
  297TIP3    H2  833   4.292   1.634   0.638
  298TIP3   OH2  834   4.330   1.590   1.489
  298TIP3    H1  835   4.330   1.668   1.544
  298TIP3    H2  836   4.246   1.594   1.443
  299TIP3   OH2  837   3.282   1.526   1.145
  299TIP3    H1  838   3.220   1.534   1.072
  299TIP3    H2  839   3.351   1.469   1.111
  300TIP3   OH2  840   3.528   2.015   1.098
  300TIP3    H1  841   3.517   1.999   1.004
  300TIP3    H2  842   3.599   1.956   1.124
  301TIP3   OH2  843   3.532   1.502   1.389
  301TIP3    H1  844   3.544   1.507   1.294
  301TIP3    H2  845   3.537   1.592   1.419
  302TIP3   OH2  846   3.989   2.165   1.105
  302TIP3    H1  847   3.972   2.247   1.151
  302TIP3    H2  848   3.978   2.097   1.171
  303TIP3   OH2  849   3.610   2.076   1.659
  303TIP3    H1  850   3.551   2.137   1.704
  303TIP3    H2  851   3.553   2.023   1.604
  304TIP3   OH2  852   3.885   1.451   0.333
  304TIP3    H1  853   3.951   1.477   0.397
  304TIP3    H2  854   3.933   1.442   0.251
  305TIP3   OH2  855   3.336   1.651   1.779
  305TIP3    H1  856   3.359   1.740   1.808
  305TIP3    H2  857   3.256   1.631   1.826
  306TIP3   OH2  858   3.693   2.112   0.778
  306TIP3    H1  859   3.775   2.159   0.762
  306TIP3    H2  860   3.625   2.172   0.747
  307TIP3   OH2  861   3.397   2.235   1.734
  307TIP3    H1  862   3.372   2.243   1.642
  307TIP3    H2  863   3.316   2.214   1.780
  308TIP3   OH2  864   4.298   2.012   0.058
  308TIP3    H1  865   4.245   2.022  -0.021
  308TIP3    H2  866   4.387   1.997   0.027
  309TIP3   OH2  867   2.884   1.749   1.771
  309TIP3    H1  868   2.887   1.767   1.677
  309TIP3    H2  869   2.966   1.704   1.790
  310TIP3   OH2  870   2.868   1.961   1.397
  310TIP3    H1  871   2.963   1.968   1.393
  310TIP3    H2  872   2.838   2.049   1.420
  311TIP3   OH2  873   4.682   2.430   1.383
  311TIP3    H1  874   4.687   2.335   1.396
  311TIP3    H2  875   4.602   2.456   1.428
  312TIP3   OH2  876   3.795   2.211   1.511
  312TIP3    H1  877   3.788   2.303   1.538
  312TIP3    H2  878   3.728   2.166   1.562
  313TIP3   OH2  879   3.645   2.457   0.478
  313TIP3    H1  880   3.564   2.427   0.436
  313TIP3    H2  881   3.618   2.533   0.530
  314TIP3   OH2  882   2.982   2.219   0.798
  314TIP3    H1  883   3.066   2.174   0.797
  314TIP3    H2  884   2.917   2.148   0.809
  315TIP3   OH2  885   3.736   2.188   0.076
  315TIP3    H1  886   3.758   2.124   0.009
  315TIP3    H2  887   3.761   2.147   0.159
  316TIP3   OH2  888   3.848   2.277   0.416
  316TIP3    H1  889   3.800   2.358   0.433
  316TIP3    H2  890   3.906   2.267   0.491
  317TIP3   OH2  891   4.576   1.530   1.645
  317TIP3    H1  892   4.495   1.529   1.593
  317TIP3    H2  893   4.592   1.438   1.666
  318TIP3   OH2  894   3.197   1.966   1.686
  318TIP3    H1  895   3.242   1.953   1.770
  318TIP3    H2  896   3.145   1.886   1.674
  319TIP3   OH2  897   3.583   0.780   1.536
  319TIP3    H1  898   3.529   0.773   1.457
  319TIP3    H2  899   3.569   0.869   1.568
  320TIP3   OH2  900   4.119   0.950   1.721
  320TIP3    H1  901   4.191   0.917   1.774
  320TIP3    H2  902   4.040   0.922   1.767
  321TIP3   OH2  903   4.343   1.322   1.567
  321TIP3    H1  904   4.307   1.323   1.655
  321TIP3    H2  905   4.327   1.411   1.534
  322TIP3   OH2  906   4.022   1.463   0.096
  322TIP3    H1  907   3.944   1.470   0.040
  322TIP3    H2  908   4.071   1.543   0.078
  323TIP3   OH2  909   3.445   1.296   1.543
  323TIP3    H1  910   3.457   1.327   1.633
  323TIP3    H2  911   3.474   1.369   1.488
  324TIP3   OH2  912   3.364   1.059   0.856
  324TIP3    H1  913   3.291   1.119   0.863
  324TIP3    H2  914   3.440   1.114   0.835
  325TIP3   OH2  915   3.896   1.331   0.704
  325TIP3    H1  916   3.817   1.380   0.682
  325TIP3    H2  917   3.922   1.289   0.623
  326TIP3   OH2  918   4.065   1.547   1.822
  326TIP3    H1  919   4.035   1.474   1.876
  326TIP3    H2  920   4.159   1.553   1.841
  327TIP3   OH2  921   4.085   1.379   0.982
  327TIP3    H1  922   4.055   1.442   0.917
  327TIP3    H2  923   4.110   1.302   0.931
  328TIP3   OH2  924   3.333   1.311   1.810
  328TIP3    H1  925   3.416   1.346   1.842
  328TIP3    H2  926   3.329   1.223   1.847
  329TIP3   OH2  927   4.068   1.558   1.384
  329TIP3    H1  928   4.111   1.494   1.328
  329TIP3    H2  929   4.040   1.508   1.461
  330TIP3   OH2  930   3.757   0.948   1.097
  330TIP3    H1  931   3.682   0.964   1.156
  330TIP3    H2  932   3.827   0.921   1.156
  331TIP3   OH2  933   4.241   1.092   1.266
  331TIP3    H1  934   4.202   1.094   1.353
  331TIP3    H2  935   4.176   1.048   1.211
  332TIP3   OH2  936   4.391   2.772   1.475
  332TIP3    H1  937   4.387   2.792   1.382
  332TIP3    H2  938   4.470   2.818   1.506
  333TIP3   OH2  939   3.343   1.893   1.909
  333TIP3    H1  940   3.425   1.912   1.955
  333TIP3    H2  941   3.276   1.894   1.978
  334TIP3   OH2  942   3.857   1.406   1.129
  334TIP3    H1  943   3.940   1.401   1.082
  334TIP3    H2  944   3.865   1.340   1.198
  335TIP3   OH2  945   3.795   1.247   1.564
  335TIP3    H1  946   3.758   1.255   1.477
  335TIP3    H2  947   3.872   1.304   1.564
  336TIP3   OH2  948   3.443   1.480   0.641
  336TIP3    H1  949   3.404   1.523   0.565
  336TIP3    H2  950   3.502   1.545   0.678
  337TIP3   OH2  951   4.409   1.870   1.149
  337TIP3    H1  952   4.439   1.920   1.073
  337TIP3    H2  953   4.322   1.838   1.125
  338TIP3   OH2  954   3.915   1.944   1.552
  338TIP3    H1  955   3.962   1.937   1.636
  338TIP3    H2  956   3.874   2.030   1.556
  339TIP3   OH2  957   3.998   1.222   0.490
  339TIP3    H1  958   4.091   1.240   0.475
  339TIP3    H2  959   3.960   1.222   0.402
  340TIP3   OH2  960   3.071   1.697   1.253
  340TIP3    H1  961   3.069   1.661   1.164
  340TIP3    H2  962   3.151   1.662   1.292
  341TIP3   OH2  963   3.640   1.741   0.373
  341TIP3    H1  964   3.626   1.830   0.406
  341TIP3    H2  965   3.615   1.745   0.281
  342TIP3   OH2  966   3.083   1.592   1.875
  342TIP3    H1  967   3.108   1.559   1.961
  342TIP3    H2  968   3.035   1.520   1.834
  343TIP3   OH2  969   3.833   1.695   1.832
  343TIP3    H1  970   3.789   1.668   1.751
  343TIP3    H2  971   3.920   1.655   1.825
  344TIP3   OH2  972   4.065   2.227   1.431
  344TIP3    H1  973   3.970   2.212   1.436
  344TIP3    H2  974   4.087   2.267   1.515
  345TIP3   OH2  975   4.460   1.297   0.248
  345TIP3    H1  976   4.388   1.243   0.216
  345TIP3    H2  977   4.430   1.387   0.234
  346TIP3   OH2  978   4.701   2.147   1.409
  346TIP3    H1  979   4.606   2.135   1.410
  346TIP3    H2  980   4.728   2.113   1.324
  347TIP3   OH2  981   4.146   2.132   0.244
  347TIP3    H1  982   4.134   2.065   0.311
  347TIP3    H2  983   4.207   2.092   0.182
  348TIP3   OH2  984   4.169   1.761   1.068
  348TIP3    H1  985   4.081   1.732   1.090
  348TIP3    H2  986   4.217   1.680   1.049
  349TIP3   OH2  987   3.378   1.973   0.870
  349TIP3    H1  988   3.313   2.032   0.831
  349TIP3    H2  989   3.328   1.917   0.929
  350TIP3   OH2  990   3.331   1.742   0.708
  350TIP3    H1  991   3.321   1.816   0.769
  350TIP3    H2  992   3.320   1.664   0.762
  351TIP3   OH2  993   3.610   2.298   1.312
  351TIP3    H1  994   3.650   2.371   1.265
  351TIP3    H2  995   3.682   2.256   1.359
  352TIP3   OH2  996   3.238   2.150   0.724
  352TIP3    H1  997   3.189   2.217   0.675
  352TIP3    H2  998   3.330   2.176   0.714
  353TIP3   OH2  999   3.973   1.955   1.283
  353TIP3    H1 1000   3.955   1.944   1.377
  353TIP3    H2 1001   4.045   1.895   1.265
  354TIP3   OH2 1002   3.966   1.793   0.085
  354TIP3    H1 1003   3.980   1.818   0.176
  354TIP3    H2 1004   3.878   1.755   0.084
  355TIP3   OH2 1005   4.211   2.449   1.315
  355TIP3    H1 1006   4.139   2.388   1.327
  355TIP3    H2 1007   4.183   2.505   1.243
  356TIP3   OH2 1008   7.150   6.385   6.975
  356TIP3    H1 1009   7.220   6.443   6.945
  356TIP3    H2 1010   7.089   6.443   7.021
  357TIP3   OH2 1011   3.292   1.052   1.891
  357TIP3    H1 1012   3.198   1.069   1.895
  357TIP3    H2 1013   3.306   0.976   1.948
  358TIP3   OH2 1014   4.160   1.902   0.388
  358TIP3    H1 1015   4.088   1.839   0.378
  358TIP3    H2 1016   4.238   1.853   0.364
  359TIP3   OH2 1017   3.073   2.176   1.557
  359TIP3    H1 1018   3.118   2.105   1.602
  359TIP3    H2 1019   3.102   2.255   1.602
  360TIP3   OH2 1020   3.255   1.833   0.434
  360TIP3    H1 1021   3.309   1.756   0.451
  360TIP3    H2 1022   3.295   1.902   0.487
  361TIP3   OH2 1023   4.146   1.135   1.521
  361TIP3    H1 1024   4.228   1.181   1.539
  361TIP3    H2 1025   4.138   1.072   1.593
  362TIP3   OH2 1026   3.924   0.755   0.604
  362TIP3    H1 1027   3.889   0.762   0.515
  362TIP3    H2 1028   3.920   0.845   0.638
  363TIP3   OH2 1029   3.526   1.992   0.303
  363TIP3    H1 1030   3.547   2.063   0.364
  363TIP3    H2 1031   3.581   2.009   0.227
  364TIP3   OH2 1032   3.662   1.006   0.842
  364TIP3    H1 1033   3.668   1.099   0.864
  364TIP3    H2 1034   3.679   0.961   0.924
  365TIP3   OH2 1035   4.021   1.394   1.591
  365TIP3    H1 1036   4.045   1.434   1.675
  365TIP3    H2 1037   4.070   1.312   1.589
  366TIP3   OH2 1038   3.913   0.797   0.920
  366TIP3    H1 1039   3.859   0.849   0.979
  366TIP3    H2 1040   3.850   0.745   0.870
  367TIP3   OH2 1041   3.048   2.127   0.406
  367TIP3    H1 1042   3.054   2.165   0.318
  367TIP3    H2 1043   3.135   2.139   0.444
  368TIP3   OH2 1044   4.310   1.533   1.014
  368TIP3    H1 1045   4.231   1.480   1.006
  368TIP3    H2 1046   4.375   1.474   1.054
  369TIP3   OH2 1047   4.230   2.441   0.884
  369TIP3    H1 1048   4.187   2.494   0.817
  369TIP3    H2 1049   4.324   2.455   0.870
  370TIP3   OH2 1050   2.795   2.026   0.834
  370TIP3    H1 1051   2.780   1.952   0.893
  370TIP3    H2 1052   2.820   1.985   0.751
  371TIP3   OH2 1053   3.017   2.473   1.889
  371TIP3    H1 1054   3.102   2.480   1.934
  371TIP3    H2 1055   2.994   2.380   1.897
  372TIP3   OH2 1056   3.486   2.403   1.933
  372TIP3    H1 1057   3.581   2.388   1.941
  372TIP3    H2 1058   3.460   2.347   1.860
  373TIP3   OH2 1059   6.426   6.022   7.043
  373TIP3    H1 1060   6.334   5.999   7.054
  373TIP3    H2 1061   6.434   6.045   6.951
  374TIP3   OH2 1062   4.112   2.335   1.679
  374TIP3    H1 1063   4.122   2.264   1.743
  374TIP3    H2 1064   4.188   2.391   1.695
  375TIP3   OH2 1065   6.728   6.048   6.950
  375TIP3    H1 1066   6.767   5.982   7.007
  375TIP3    H2 1067   6.791   6.120   6.950
  376TIP3   OH2 1068   3.140   1.867   2.093
  376TIP3    H1 1069   3.148   1.772   2.094
  376TIP3    H2 1070   3.055   1.884   2.052
  377TIP3   OH2 1071   3.754   1.962   1.863
  377TIP3    H1 1072   3.713   1.985   1.779
  377TIP3    H2 1073   3.791   1.875   1.848
  378TIP3   OH2 1074   4.228   1.998   1.470
  378TIP3    H1 1075   4.307   2.031   1.427
  378TIP3    H2 1076   4.162   2.064   1.452
  379TIP3   OH2 1077   3.274   1.599   2.088
  379TIP3    H1 1078   3.359   1.581   2.049
  379TIP3    H2 1079   3.294   1.635   2.175
  380TIP3   OH2 1080   3.556   1.480   1.729
  380TIP3    H1 1081   3.489   1.546   1.742
  380TIP3    H2 1082   3.622   1.522   1.674
  381TIP3   OH2 1083   4.108   1.881   1.836
  381TIP3    H1 1084   4.175   1.842   1.780
  381TIP3    H2 1085   4.105   1.824   1.913
  382TIP3   OH2 1086   7.069   5.715   7.024
  382TIP3    H1 1087   7.068   5.725   6.929
  382TIP3    H2 1088   7.011   5.784   7.056
  383TIP3   OH2 1089   3.707   1.292   1.869
  383TIP3    H1 1090   3.718   1.208   1.825
  383TIP3    H2 1091   3.673   1.351   1.802
  384TIP3   OH2 1092   3.722   1.052   1.726
  384TIP3    H1 1093   3.746   1.118   1.660
  384TIP3    H2 1094   3.629   1.035   1.710
  385TIP3   OH2 1095   3.748   1.618   1.583
  385TIP3    H1 1096   3.827   1.599   1.533
  385TIP3    H2 1097   3.702   1.685   1.531
  386TIP3   OH2 1098   4.330   1.562   1.912
  386TIP3    H1 1099   4.367   1.473   1.912
  386TIP3    H2 1100   4.403   1.619   1.889
  387TIP3   OH2 1101   4.348   1.826   1.643
  387TIP3    H1 1102   4.295   1.885   1.590
  387TIP3    H2 1103   4.437   1.839   1.611
  388TIP3   OH2 1104   3.582   1.382   2.095
  388TIP3    H1 1105   3.524   1.308   2.116
  388TIP3    H2 1106   3.621   1.358   2.011
  389TIP3   OH2 1107   3.872   0.842   1.788
  389TIP3    H1 1108   3.820   0.919   1.766
  389TIP3    H2 1109   3.811   0.769   1.778
  390TIP3   OH2 1110   3.974   1.322   1.949
  390TIP3    H1 1111   3.971   1.307   2.043
  390TIP3    H2 1112   3.884   1.308   1.919
  391TIP3   OH2 1113   4.218   1.290   1.807
  391TIP3    H1 1114   4.139   1.280   1.861
  391TIP3    H2 1115   4.288   1.255   1.862
  392TIP3   OH2 1116   4.434   1.227   1.966
  392TIP3    H1 1117   4.454   1.134   1.972
  392TIP3    H2 1118   4.436   1.257   2.057
  393TIP3   OH2 1119   3.438   1.152   2.159
  393TIP3    H1 1120   3.437   1.066   2.118
  393TIP3    H2 1121   3.478   1.137   2.245
  394TIP3   OH2 1122   3.921   0.811   2.049
  394TIP3    H1 1123   3.989   0.744   2.043
  394TIP3    H2 1124   3.895   0.826   1.958
  395TIP3   OH2 1125   4.002   1.046   2.161
  395TIP3    H1 1126   3.975   0.967   2.115
  395TIP3    H2 1127   3.926   1.104   2.156
  396TIP3   OH2 1128   3.189   2.173   0.175
  396TIP3    H1 1129   3.276   2.204   0.149
  396TIP3    H2 1130   3.128   2.230   0.129
  397TIP3   OH2 1131   2.652   2.274   0.896
  397TIP3    H1 1132   2.616   2.228   0.820
  397TIP3    H2 1133   2.696   2.205   0.947
  398TIP3   OH2 1134   2.727   2.122   1.164
  398TIP3    H1 1135   2.750   2.043   1.116
  398TIP3    H2 1136   2.794   2.186   1.138
  399TIP3   OH2 1137   4.499   2.497   0.877
  399TIP3    H1 1138   4.517   2.525   0.967
  399TIP3    H2 1139   4.549   2.558   0.822
  400TIP3   OH2 1140   4.518   2.530   1.157
  400TIP3    H1 1141   4.472   2.446   1.155
  400TIP3    H2 1142   4.590   2.516   1.218
  401TIP3   OH2 1143   4.571   2.223   1.725
  401TIP3    H1 1144   4.500   2.230   1.789
  401TIP3    H2 1145   4.616   2.308   1.729
  402TIP3   OH2 1146   4.400   1.771   0.328
  402TIP3    H1 1147   4.461   1.837   0.297
  402TIP3    H2 1148   4.435   1.743   0.413
  403TIP3   OH2 1149   4.548   1.669   0.534
  403TIP3    H1 1150   4.484   1.633   0.595
  403TIP3    H2 1151   4.625   1.687   0.588
  404TIP3   OH2 1152   4.570   2.007   0.972
  404TIP3    H1 1153   4.607   1.939   0.916
  404TIP3    H2 1154   4.568   2.085   0.916
  405TIP3   OH2 1155   4.382   2.287   1.167
  405TIP3    H1 1156   4.315   2.331   1.218
  405TIP3    H2 1157   4.335   2.245   1.095
  406TIP3   OH2 1158   4.372   1.543   0.186
  406TIP3    H1 1159   4.304   1.561   0.121
  406TIP3    H2 1160   4.368   1.618   0.245
  407TIP3   OH2 1161   4.219   1.238   0.140
  407TIP3    H1 1162   4.225   1.300   0.067
  407TIP3    H2 1163   4.147   1.180   0.116
  408TIP3   OH2 1164   4.415   1.579   0.762
  408TIP3    H1 1165   4.425   1.484   0.754
  408TIP3    H2 1166   4.377   1.591   0.850
  409TIP3   OH2 1167   2.965   1.493   1.474
  409TIP3    H1 1168   2.964   1.485   1.379
  409TIP3    H2 1169   3.057   1.480   1.498
  410TIP3   OH2 1170   4.604   1.873   1.545
  410TIP3    H1 1171   4.671   1.806   1.532
  410TIP3    H2 1172   4.619   1.937   1.475
  411TIP3   OH2 1173   4.786   1.668   1.539
  411TIP3    H1 1174   4.712   1.618   1.570
  411TIP3    H2 1175   4.863   1.619   1.568
  412TIP3   OH2 1176   4.280   1.159   0.573
  412TIP3    H1 1177   4.353   1.102   0.549
  412TIP3    H2 1178   4.288   1.234   0.515
  413TIP3   OH2 1179   4.488   1.337   1.096
  413TIP3    H1 1180   4.571   1.357   1.054
  413TIP3    H2 1181   4.498   1.368   1.186
  414TIP3   OH2 1182   4.543   1.500   1.317
  414TIP3    H1 1183   4.466   1.527   1.366
  414TIP3    H2 1184   4.573   1.579   1.273
  415TIP3   OH2 1185   3.173   1.216   2.134
  415TIP3    H1 1186   3.268   1.205   2.138
  415TIP3    H2 1187   3.138   1.134   2.168
  416TIP3   OH2 1188   5.003   1.099   1.839
  416TIP3    H1 1189   5.066   1.036   1.803
  416TIP3    H2 1190   4.965   1.140   1.761
  417TIP3   OH2 1191   4.364   0.869   0.552
  417TIP3    H1 1192   4.394   0.857   0.642
  417TIP3    H2 1193   4.290   0.808   0.544
  418TIP3   OH2 1194   3.111   0.863   1.509
  418TIP3    H1 1195   3.096   0.807   1.433
  418TIP3    H2 1196   3.138   0.947   1.472
  419TIP3   OH2 1197   3.040   1.221   1.569
  419TIP3    H1 1198   3.104   1.169   1.521
  419TIP3    H2 1199   3.086   1.302   1.591
  420TIP3   OH2 1200   4.087   2.398   0.544
  420TIP3    H1 1201   4.132   2.397   0.460
  420TIP3    H2 1202   4.112   2.481   0.584
  421TIP3   OH2 1203   3.152   0.809   1.958
  421TIP3    H1 1204   3.091   0.745   1.996
  421TIP3    H2 1205   3.113   0.832   1.874
  422TIP3   OH2 1206   3.179   2.197   1.901
  422TIP3    H1 1207   3.084   2.187   1.903
  422TIP3    H2 1208   3.204   2.202   1.994
  423TIP3   OH2 1209   3.379   2.241   1.451
  423TIP3    H1 1210   3.325   2.313   1.418
  423TIP3    H2 1211   3.464   2.253   1.408
  424TIP3   OH2 1212   3.776   2.478   1.588
  424TIP3    H1 1213   3.813   2.471   1.676
  424TIP3    H2 1214   3.839   2.531   1.539
  425TIP3   OH2 1215   3.966   2.631   1.460
  425TIP3    H1 1216   4.030   2.579   1.411
  425TIP3    H2 1217   4.019   2.688   1.516
  426TIP3   OH2 1218   3.074   2.485   1.522
  426TIP3    H1 1219   2.980   2.485   1.503
  426TIP3    H2 1220   3.087   2.559   1.581
  427TIP3   OH2 1221   3.275   2.472   1.342
  427TIP3    H1 1222   3.200   2.480   1.400
  427TIP3    H2 1223   3.245   2.507   1.258
  428TIP3   OH2 1224   3.697   2.502   1.141
  428TIP3    H1 1225   3.625   2.519   1.081
  428TIP3    H2 1226   3.710   2.585   1.187
  429TIP3   OH2 1227   3.954   2.427   1.187
  429TIP3    H1 1228   3.862   2.449   1.172
  429TIP3    H2 1229   4.003   2.495   1.142
  430TIP3   OH2 1230   4.146   2.605   1.089
  430TIP3    H1 1231   4.140   2.692   1.051
  430TIP3    H2 1232   4.175   2.549   1.017
  431TIP3   OH2 1233   2.990   2.242   1.312
  431TIP3    H1 1234   3.038   2.226   1.393
  431TIP3    H2 1235   3.054   2.282   1.253
  432TIP3   OH2 1236   3.166   2.300   1.098
  432TIP3    H1 1237   3.192   2.208   1.107
  432TIP3    H2 1238   3.248   2.347   1.082
  433TIP3   OH2 1239   3.453   2.282   1.082
  433TIP3    H1 1240   3.451   2.187   1.070
  433TIP3    H2 1241   3.497   2.294   1.166
  434TIP3   OH2 1242   3.961   0.826   1.231
  434TIP3    H1 1243   4.012   0.763   1.282
  434TIP3    H2 1244   4.024   0.862   1.168
  435TIP3   OH2 1245   4.500   0.760   1.124
  435TIP3    H1 1246   4.566   0.817   1.084
  435TIP3    H2 1247   4.420   0.812   1.125
  436TIP3   OH2 1248   4.685   0.905   0.987
  436TIP3    H1 1249   4.698   0.845   0.914
  436TIP3    H2 1250   4.698   0.993   0.949
  437TIP3   OH2 1251   4.228   0.810   1.104
  437TIP3    H1 1252   4.217   0.850   1.018
  437TIP3    H2 1253   4.202   0.719   1.091
  438TIP3   OH2 1254   4.179   0.669   0.637
  438TIP3    H1 1255   4.099   0.722   0.632
  438TIP3    H2 1256   4.154   0.585   0.598
  439TIP3   OH2 1257   3.448   2.219   0.104
  439TIP3    H1 1258   3.510   2.291   0.110
  439TIP3    H2 1259   3.500   2.144   0.077
  440TIP3   OH2 1260   4.215   2.388   0.299
  440TIP3    H1 1261   4.194   2.296   0.283
  440TIP3    H2 1262   4.180   2.433   0.222
  441TIP3   OH2 1263   3.433   0.883   2.084
  441TIP3    H1 1264   3.401   0.807   2.134
  441TIP3    H2 1265   3.528   0.883   2.100
  442TIP3   OH2 1266   3.689   0.875   2.194
  442TIP3    H1 1267   3.769   0.852   2.147
  442TIP3    H2 1268   3.676   0.804   2.256
  443TIP3   OH2 1269   4.517   0.963   1.977
  443TIP3    H1 1270   4.539   0.934   2.065
  443TIP3    H2 1271   4.600   0.964   1.929
  444TIP3   OH2 1272   4.432   2.499   1.479
  444TIP3    H1 1273   4.357   2.469   1.428
  444TIP3    H2 1274   4.419   2.593   1.488
  445TIP3   OH2 1275   5.687   1.834   0.253
  445TIP3    H1 1276   5.711   1.926   0.241
  445TIP3    H2 1277   5.609   1.823   0.198
  446TIP3   OH2 1278   5.689   1.876   0.627
  446TIP3    H1 1279   5.724   1.847   0.711
  446TIP3    H2 1280   5.678   1.795   0.576
  447TIP3   OH2 1281   5.954   2.177   0.332
  447TIP3    H1 1282   5.945   2.107   0.397
  447TIP3    H2 1283   5.934   2.257   0.380
  448TIP3   OH2 1284   4.999   2.179   0.686
  448TIP3    H1 1285   4.982   2.087   0.666
  448TIP3    H2 1286   5.093   2.190   0.669
  449TIP3   OH2 1287   4.721   1.389   0.533
  449TIP3    H1 1288   4.710   1.436   0.451
  449TIP3    H2 1289   4.635   1.395   0.576
  450TIP3   OH2 1290   4.789   1.684   0.668
  450TIP3    H1 1291   4.821   1.600   0.700
  450TIP3    H2 1292   4.843   1.703   0.592
  451TIP3   OH2 1293   5.625   2.650   0.342
  451TIP3    H1 1294   5.635   2.569   0.292
  451TIP3    H2 1295   5.694   2.647   0.408
  452TIP3   OH2 1296   5.479   2.058   0.706
  452TIP3    H1 1297   5.521   1.988   0.656
  452TIP3    H2 1298   5.551   2.116   0.732
  453TIP3   OH2 1299   5.866   1.618   0.705
  453TIP3    H1 1300   5.897   1.529   0.720
  453TIP3    H2 1301   5.902   1.641   0.619
  454TIP3   OH2 1302   5.242   1.242   0.675
  454TIP3    H1 1303   5.237   1.298   0.598
  454TIP3    H2 1304   5.263   1.155   0.639
  455TIP3   OH2 1305   4.898   1.453   0.772
  455TIP3    H1 1306   4.981   1.432   0.815
  455TIP3    H2 1307   4.896   1.396   0.695
  456TIP3   OH2 1308   5.314   1.634   0.591
  456TIP3    H1 1309   5.408   1.619   0.599
  456TIP3    H2 1310   5.280   1.553   0.553
  457TIP3   OH2 1311   6.540   1.603   0.853
  457TIP3    H1 1312   6.466   1.660   0.833
  457TIP3    H2 1313   6.592   1.652   0.916
  458TIP3   OH2 1314   5.245   1.255   1.111
  458TIP3    H1 1315   5.195   1.298   1.043
  458TIP3    H2 1316   5.191   1.263   1.190
  459TIP3   OH2 1317   5.618   2.091   0.097
  459TIP3    H1 1318   5.580   2.066   0.013
  459TIP3    H2 1319   5.561   2.161   0.129
  460TIP3   OH2 1320   5.292   1.991   0.921
  460TIP3    H1 1321   5.254   2.079   0.921
  460TIP3    H2 1322   5.355   1.992   0.849
  461TIP3   OH2 1323   5.137   1.369   0.885
  461TIP3    H1 1324   5.202   1.437   0.903
  461TIP3    H2 1325   5.174   1.320   0.812
  462TIP3   OH2 1326   5.176   2.227   0.986
  462TIP3    H1 1327   5.170   2.313   0.945
  462TIP3    H2 1328   5.096   2.219   1.037
  463TIP3   OH2 1329   4.589   1.941   0.225
  463TIP3    H1 1330   4.563   1.969   0.138
  463TIP3    H2 1331   4.610   2.022   0.272
  464TIP3   OH2 1332   5.715   2.466   0.144
  464TIP3    H1 1333   5.766   2.387   0.128
  464TIP3    H2 1334   5.779   2.537   0.137
  465TIP3   OH2 1335   5.852   2.240   0.084
  465TIP3    H1 1336   5.781   2.177   0.074
  465TIP3    H2 1337   5.901   2.208   0.160
  466TIP3   OH2 1338   6.229   2.345   0.800
  466TIP3    H1 1339   6.210   2.270   0.743
  466TIP3    H2 1340   6.205   2.421   0.748
  467TIP3   OH2 1341   6.320   1.935   0.649
  467TIP3    H1 1342   6.267   2.014   0.637
  467TIP3    H2 1343   6.410   1.965   0.637
  468TIP3   OH2 1344   6.093   1.842   0.993
  468TIP3    H1 1345   6.101   1.925   1.042
  468TIP3    H2 1346   6.009   1.850   0.947
  469TIP3   OH2 1347   5.121   1.795   0.454
  469TIP3    H1 1348   5.081   1.731   0.395
  469TIP3    H2 1349   5.188   1.746   0.501
  470TIP3   OH2 1350   5.256   2.207   0.592
  470TIP3    H1 1351   5.249   2.186   0.499
  470TIP3    H2 1352   5.336   2.162   0.620
  471TIP3   OH2 1353   5.386   2.324   1.141
  471TIP3    H1 1354   5.332   2.386   1.189
  471TIP3    H2 1355   5.325   2.278   1.083
  472TIP3   OH2 1356   5.102   1.931   1.209
  472TIP3    H1 1357   5.109   2.004   1.271
  472TIP3    H2 1358   5.025   1.883   1.238
  473TIP3   OH2 1359   5.473   2.331   0.135
  473TIP3    H1 1360   5.552   2.383   0.149
  473TIP3    H2 1361   5.419   2.385   0.077
  474TIP3   OH2 1362   5.182   2.490   1.223
  474TIP3    H1 1363   5.157   2.501   1.131
  474TIP3    H2 1364   5.100   2.472   1.268
  475TIP3   OH2 1365   4.964   1.630   0.271
  475TIP3    H1 1366   4.919   1.700   0.223
  475TIP3    H2 1367   4.898   1.562   0.282
  476TIP3   OH2 1368   4.766   2.027   1.172
  476TIP3    H1 1369   4.695   2.019   1.108
  476TIP3    H2 1370   4.788   1.937   1.195
  477TIP3   OH2 1371   4.612   2.245   0.828
  477TIP3    H1 1372   4.701   2.273   0.849
  477TIP3    H2 1373   4.557   2.320   0.851
  478TIP3   OH2 1374   6.463   2.685   0.871
  478TIP3    H1 1375   6.472   2.590   0.873
  478TIP3    H2 1376   6.380   2.702   0.916
  479TIP3   OH2 1377   5.576   2.462   0.998
  479TIP3    H1 1378   5.570   2.555   1.022
  479TIP3    H2 1379   5.508   2.419   1.049
  480TIP3   OH2 1380   8.223   6.642   6.969
  480TIP3    H1 1381   8.155   6.590   6.925
  480TIP3    H2 1382   8.176   6.719   7.002
  481TIP3   OH2 1383   4.793   2.427   0.334
  481TIP3    H1 1384   4.840   2.422   0.417
  481TIP3    H2 1385   4.745   2.344   0.329
  482TIP3   OH2 1386   8.500   6.638   6.921
  482TIP3    H1 1387   8.405   6.642   6.916
  482TIP3    H2 1388   8.518   6.565   6.980
  483TIP3   OH2 1389   6.334   1.807   1.165
  483TIP3    H1 1390   6.258   1.797   1.108
  483TIP3    H2 1391   6.371   1.719   1.171
  484TIP3   OH2 1392   4.952   2.231   1.142
  484TIP3    H1 1393   4.991   2.241   1.229
  484TIP3    H2 1394   4.887   2.162   1.152
  485TIP3   OH2 1395   5.327   1.039   0.960
  485TIP3    H1 1396   5.244   1.006   0.927
  485TIP3    H2 1397   5.304   1.116   1.011
  486TIP3   OH2 1398   5.904   1.149   1.153
  486TIP3    H1 1399   5.976   1.121   1.210
  486TIP3    H2 1400   5.825   1.124   1.201
  487TIP3   OH2 1401   6.121   1.575   1.062
  487TIP3    H1 1402   6.083   1.569   1.150
  487TIP3    H2 1403   6.098   1.663   1.032
  488TIP3   OH2 1404   5.316   1.569   0.965
  488TIP3    H1 1405   5.258   1.582   1.041
  488TIP3    H2 1406   5.295   1.642   0.907
  489TIP3   OH2 1407   5.180   1.422   0.470
  489TIP3    H1 1408   5.095   1.380   0.482
  489TIP3    H2 1409   5.188   1.433   0.375
  490TIP3   OH2 1410   5.857   1.791   1.297
  490TIP3    H1 1411   5.830   1.721   1.355
  490TIP3    H2 1412   5.951   1.801   1.312
  491TIP3   OH2 1413   5.824   1.591   0.423
  491TIP3    H1 1414   5.778   1.647   0.360
  491TIP3    H2 1415   5.803   1.502   0.395
  492TIP3   OH2 1416   5.136   1.578   1.177
  492TIP3    H1 1417   5.082   1.636   1.229
  492TIP3    H2 1418   5.123   1.491   1.216
  493TIP3   OH2 1419   4.698   1.163   0.815
  493TIP3    H1 1420   4.777   1.179   0.866
  493TIP3    H2 1421   4.723   1.184   0.725
  494TIP3   OH2 1422   4.708   1.109   0.223
  494TIP3    H1 1423   4.796   1.138   0.247
  494TIP3    H2 1424   4.650   1.155   0.284
  495TIP3   OH2 1425   5.818   1.796   0.899
  495TIP3    H1 1426   5.845   1.739   0.827
  495TIP3    H2 1427   5.801   1.736   0.972
  496TIP3   OH2 1428   5.486   1.317   0.550
  496TIP3    H1 1429   5.447   1.290   0.633
  496TIP3    H2 1430   5.529   1.401   0.570
  497TIP3   OH2 1431   4.957   1.266   0.528
  497TIP3    H1 1432   4.875   1.314   0.518
  497TIP3    H2 1433   4.931   1.177   0.549
  498TIP3   OH2 1434   5.947   1.361   0.745
  498TIP3    H1 1435   5.926   1.362   0.838
  498TIP3    H2 1436   6.013   1.291   0.736
  499TIP3   OH2 1437   6.189   3.025   0.971
  499TIP3    H1 1438   6.187   3.043   0.877
  499TIP3    H2 1439   6.266   3.072   1.002
  500TIP3   OH2 1440   5.132   2.142   1.380
  500TIP3    H1 1441   5.214   2.161   1.427
  500TIP3    H2 1442   5.065   2.145   1.447
  501TIP3   OH2 1443   5.590   1.556   0.644
  501TIP3    H1 1444   5.683   1.568   0.622
  501TIP3    H2 1445   5.591   1.531   0.737
  502TIP3   OH2 1446   5.576   1.488   0.914
  502TIP3    H1 1447   5.489   1.522   0.939
  502TIP3    H2 1448   5.637   1.533   0.973
  503TIP3   OH2 1449   5.258   1.927   0.014
  503TIP3    H1 1450   5.229   1.836   0.017
  503TIP3    H2 1451   5.269   1.951   0.106
  504TIP3   OH2 1452   6.156   2.151   0.624
  504TIP3    H1 1453   6.179   2.208   0.551
  504TIP3    H2 1454   6.077   2.106   0.596
  505TIP3   OH2 1455   5.685   2.190   1.053
  505TIP3    H1 1456   5.757   2.198   1.117
  505TIP3    H2 1457   5.659   2.281   1.036
  506TIP3   OH2 1458   8.329   6.110   6.896
  506TIP3    H1 1459   8.289   6.191   6.866
  506TIP3    H2 1460   8.257   6.059   6.933
  507TIP3   OH2 1461   4.880   1.787   1.296
  507TIP3    H1 1462   4.882   1.770   1.390
  507TIP3    H2 1463   4.802   1.741   1.265
  508TIP3   OH2 1464   5.634   1.948   1.293
  508TIP3    H1 1465   5.618   1.954   1.198
  508TIP3    H2 1466   5.717   1.902   1.301
  509TIP3   OH2 1467   5.849   2.447   0.943
  509TIP3    H1 1468   5.755   2.457   0.932
  509TIP3    H2 1469   5.872   2.507   1.013
  510TIP3   OH2 1470   6.477   2.390   0.895
  510TIP3    H1 1471   6.383   2.392   0.882
  510TIP3    H2 1472   6.513   2.352   0.815
  511TIP3   OH2 1473   5.936   1.999   0.545
  511TIP3    H1 1474   5.846   1.976   0.569
  511TIP3    H2 1475   5.980   1.915   0.533
  512TIP3   OH2 1476   5.103   2.214   0.331
  512TIP3    H1 1477   5.107   2.294   0.279
  512TIP3    H2 1478   5.010   2.193   0.335
  513TIP3   OH2 1479   4.810   1.537  -0.017
  513TIP3    H1 1480   4.776   1.621   0.015
  513TIP3    H2 1481   4.747   1.472   0.014
  514TIP3   OH2 1482   5.242   1.981   0.282
  514TIP3    H1 1483   5.200   2.065   0.297
  514TIP3    H2 1484   5.202   1.922   0.345
  515TIP3   OH2 1485   5.387   2.525   0.791
  515TIP3    H1 1486   5.417   2.602   0.742
  515TIP3    H2 1487   5.467   2.493   0.835
  516TIP3   OH2 1488   5.020   2.446   0.185
  516TIP3    H1 1489   4.935   2.448   0.227
  516TIP3    H2 1490   5.052   2.536   0.190
  517TIP3   OH2 1491   5.726   2.161   0.779
  517TIP3    H1 1492   5.733   2.171   0.874
  517TIP3    H2 1493   5.815   2.176   0.747
  518TIP3   OH2 1494   5.970   2.740   0.795
  518TIP3    H1 1495   5.916   2.678   0.746
  518TIP3    H2 1496   5.983   2.814   0.735
  519TIP3   OH2 1497   5.069   1.333   1.312
  519TIP3    H1 1498   4.975   1.349   1.317
  519TIP3    H2 1499   5.088   1.279   1.389
  520TIP3   OH2 1500   4.817   2.428   0.950
  520TIP3    H1 1501   4.868   2.368   1.005
  520TIP3    H2 1502   4.834   2.514   0.986
  521TIP3   OH2 1503   8.003   6.186   6.666
  521TIP3    H1 1504   7.985   6.113   6.607
  521TIP3    H2 1505   7.961   6.160   6.748
  522TIP3   OH2 1506   7.923   6.129   6.924
  522TIP3    H1 1507   7.995   6.081   6.965
  522TIP3    H2 1508   7.936   6.220   6.952
  523TIP3   OH2 1509   4.805   1.799   0.128
  523TIP3    H1 1510   4.735   1.840   0.178
  523TIP3    H2 1511   4.819   1.858   0.054
  524TIP3   OH2 1512   5.919   1.387   1.017
  524TIP3    H1 1513   6.004   1.426   1.037
  524TIP3    H2 1514   5.917   1.306   1.068
  525TIP3   OH2 1515   8.175   6.333   6.825
  525TIP3    H1 1516   8.103   6.354   6.885
  525TIP3    H2 1517   8.132   6.291   6.750
  526TIP3   OH2 1518   5.763   1.607   1.088
  526TIP3    H1 1519   5.798   1.648   1.167
  526TIP3    H2 1520   5.816   1.529   1.075
  527TIP3   OH2 1521   7.948   6.398   6.964
  527TIP3    H1 1522   7.921   6.466   6.902
  527TIP3    H2 1523   7.924   6.433   7.049
  528TIP3   OH2 1524   6.391   1.536   1.077
  528TIP3    H1 1525   6.296   1.532   1.067
  528TIP3    H2 1526   6.425   1.543   0.988
  529TIP3   OH2 1527   6.050   1.747   0.511
  529TIP3    H1 1528   6.006   1.685   0.452
  529TIP3    H2 1529   6.139   1.715   0.518
  530TIP3   OH2 1530   7.674   6.027   6.930
  530TIP3    H1 1531   7.757   6.074   6.930
  530TIP3    H2 1532   7.689   5.953   6.871
  531TIP3   OH2 1533   5.071   0.934   0.930
  531TIP3    H1 1534   5.024   0.874   0.872
  531TIP3    H2 1535   5.101   0.879   1.002
  532TIP3   OH2 1536   4.633   2.196   0.326
  532TIP3    H1 1537   4.588   2.236   0.400
  532TIP3    H2 1538   4.590   2.234   0.249
  533TIP3   OH2 1539   4.813   2.733   1.369
  533TIP3    H1 1540   4.895   2.737   1.418
  533TIP3    H2 1541   4.792   2.640   1.364
  534TIP3   OH2 1542   5.281   2.659   1.418
  534TIP3    H1 1543   5.376   2.643   1.425
  534TIP3    H2 1544   5.254   2.602   1.346
  535TIP3   OH2 1545   5.904   2.593   1.170
  535TIP3    H1 1546   5.915   2.523   1.234
  535TIP3    H2 1547   5.980   2.650   1.185
  536TIP3   OH2 1548   4.928   2.128   1.567
  536TIP3    H1 1549   4.946   2.035   1.574
  536TIP3    H2 1550   4.841   2.133   1.526
  537TIP3   OH2 1551   7.735   5.806   6.788
  537TIP3    H1 1552   7.764   5.728   6.836
  537TIP3    H2 1553   7.770   5.794   6.700
  538TIP3   OH2 1554   5.547   2.221   1.342
  538TIP3    H1 1555   5.504   2.245   1.259
  538TIP3    H2 1556   5.593   2.139   1.322
  539TIP3   OH2 1557   6.016   2.235   0.947
  539TIP3    H1 1558   6.094   2.268   0.902
  539TIP3    H2 1559   5.954   2.307   0.944
  540TIP3   OH2 1560   5.056   1.869   1.558
  540TIP3    H1 1561   5.119   1.799   1.539
  540TIP3    H2 1562   5.079   1.899   1.646
  541TIP3   OH2 1563   5.154   1.674   0.058
  541TIP3    H1 1564   5.091   1.660   0.129
  541TIP3    H2 1565   5.162   1.588   0.017
  542TIP3   OH2 1566   5.392   1.812   1.171
  542TIP3    H1 1567   5.423   1.805   1.261
  542TIP3    H2 1568   5.471   1.825   1.119
  543TIP3   OH2 1569   5.905   2.135   1.321
  543TIP3    H1 1570   5.978   2.103   1.268
  543TIP3    H2 1571   5.904   2.079   1.398
  544TIP3   OH2 1572   5.498   1.533   1.318
  544TIP3    H1 1573   5.514   1.444   1.288
  544TIP3    H2 1574   5.456   1.577   1.243
  545TIP3   OH2 1575   5.512   1.315   1.142
  545TIP3    H1 1576   5.542   1.342   1.055
  545TIP3    H2 1577   5.421   1.290   1.129
  546TIP3   OH2 1578   5.593   1.916   1.017
  546TIP3    H1 1579   5.666   1.876   0.970
  546TIP3    H2 1580   5.599   2.009   0.995
  547TIP3   OH2 1581   6.123   1.814   1.387
  547TIP3    H1 1582   6.157   1.725   1.403
  547TIP3    H2 1583   6.195   1.859   1.342
  548TIP3   OH2 1584   6.130   2.084   1.139
  548TIP3    H1 1585   6.075   2.136   1.081
  548TIP3    H2 1586   6.220   2.101   1.109
  549TIP3   OH2 1587   5.382   1.624   1.559
  549TIP3    H1 1588   5.320   1.558   1.588
  549TIP3    H2 1589   5.414   1.592   1.475
  550TIP3   OH2 1590   5.639   1.086   1.236
  550TIP3    H1 1591   5.594   1.164   1.203
  550TIP3    H2 1592   5.578   1.015   1.219
  551TIP3   OH2 1593   5.757   1.576   1.431
  551TIP3    H1 1594   5.746   1.561   1.525
  551TIP3    H2 1595   5.671   1.558   1.393
  552TIP3   OH2 1596   6.009   1.532   1.304
  552TIP3    H1 1597   5.932   1.525   1.360
  552TIP3    H2 1598   6.081   1.502   1.358
  553TIP3   OH2 1599   6.238   1.481   1.453
  553TIP3    H1 1600   6.254   1.387   1.460
  553TIP3    H2 1601   6.236   1.512   1.543
  554TIP3   OH2 1602   5.237   1.399   1.637
  554TIP3    H1 1603   5.230   1.312   1.598
  554TIP3    H2 1604   5.273   1.384   1.724
  555TIP3   OH2 1605   5.702   1.082   1.501
  555TIP3    H1 1606   5.776   1.022   1.498
  555TIP3    H2 1607   5.671   1.086   1.411
  556TIP3   OH2 1608   5.792   1.301   1.642
  556TIP3    H1 1609   5.765   1.227   1.587
  556TIP3    H2 1610   5.717   1.361   1.640
  557TIP3   OH2 1611   7.911   6.594   6.777
  557TIP3    H1 1612   7.962   6.587   6.696
  557TIP3    H2 1613   7.839   6.653   6.754
  558TIP3   OH2 1614   7.410   6.014   6.976
  558TIP3    H1 1615   7.500   6.038   6.956
  558TIP3    H2 1616   7.381   5.962   6.901
  559TIP3   OH2 1617   4.433   2.521   0.387
  559TIP3    H1 1618   4.362   2.474   0.345
  559TIP3    H2 1619   4.474   2.457   0.445
  560TIP3   OH2 1620   4.565   2.347   0.558
  560TIP3    H1 1621   4.552   2.283   0.628
  560TIP3    H2 1622   4.617   2.416   0.599
  561TIP3   OH2 1623   6.249   2.765   0.368
  561TIP3    H1 1624   6.271   2.783   0.459
  561TIP3    H2 1625   6.306   2.823   0.317
  562TIP3   OH2 1626   6.320   2.782   0.648
  562TIP3    H1 1627   6.264   2.705   0.642
  562TIP3    H2 1628   6.389   2.757   0.710
  563TIP3   OH2 1629   6.367   2.479   1.218
  563TIP3    H1 1630   6.294   2.484   1.280
  563TIP3    H2 1631   6.405   2.567   1.219
  564TIP3   OH2 1632   6.297   2.320   0.460
  564TIP3    H1 1633   6.356   2.262   0.412
  564TIP3    H2 1634   6.295   2.401   0.408
  565TIP3   OH2 1635   6.150   2.567   0.658
  565TIP3    H1 1636   6.095   2.608   0.725
  565TIP3    H2 1637   6.094   2.563   0.580
  566TIP3   OH2 1638   4.741   1.783   0.920
  566TIP3    H1 1639   4.731   1.742   0.835
  566TIP3    H2 1640   4.828   1.823   0.918
  567TIP3   OH2 1641   6.374   2.157   1.037
  567TIP3    H1 1642   6.429   2.086   1.006
  567TIP3    H2 1643   6.395   2.230   0.979
  568TIP3   OH2 1644   6.523   1.936   1.008
  568TIP3    H1 1645   6.448   1.899   1.055
  568TIP3    H2 1646   6.594   1.874   1.024
  569TIP3   OH2 1647   6.308   1.630   0.558
  569TIP3    H1 1648   6.401   1.639   0.539
  569TIP3    H2 1649   6.300   1.647   0.652
  570TIP3   OH2 1650   6.304   1.741   0.828
  570TIP3    H1 1651   6.227   1.767   0.880
  570TIP3    H2 1652   6.313   1.810   0.763
  571TIP3   OH2 1653   4.979   1.496   1.634
  571TIP3    H1 1654   5.071   1.468   1.633
  571TIP3    H2 1655   4.929   1.414   1.630
  572TIP3   OH2 1656   6.821   1.337   1.349
  572TIP3    H1 1657   6.897   1.310   1.298
  572TIP3    H2 1658   6.753   1.358   1.284
  573TIP3   OH2 1659   4.936   1.177   0.942
  573TIP3    H1 1660   4.982   1.093   0.947
  573TIP3    H2 1661   5.005   1.242   0.934
  574TIP3   OH2 1662   4.722   1.430   0.991
  574TIP3    H1 1663   4.774   1.434   0.910
  574TIP3    H2 1664   4.751   1.505   1.042
  575TIP3   OH2 1665   6.597   1.392   1.182
  575TIP3    H1 1666   6.520   1.441   1.154
  575TIP3    H2 1667   6.651   1.385   1.103
  576TIP3   OH2 1668   4.773   1.058   0.535
  576TIP3    H1 1669   4.726   1.007   0.601
  576TIP3    H2 1670   4.710   1.068   0.463
  577TIP3   OH2 1671   0.146   6.723   7.049
  577TIP3    H1 1672   0.086   6.699   6.978
  577TIP3    H2 1673   0.228   6.679   7.026
  578TIP3   OH2 1674   4.901   1.005   1.326
  578TIP3    H1 1675   4.888   1.045   1.412
  578TIP3    H2 1676   4.838   1.050   1.269
  579TIP3   OH2 1677   4.959   2.440   1.382
  579TIP3    H1 1678   4.864   2.432   1.377
  579TIP3    H2 1679   4.979   2.439   1.476
  580TIP3   OH2 1680   5.161   2.500   0.940
  580TIP3    H1 1681   5.111   2.574   0.907
  580TIP3    H2 1682   5.245   2.504   0.895
  581TIP3   OH2 1683   5.570   2.731   1.073
  581TIP3    H1 1684   5.607   2.727   1.161
  581TIP3    H2 1685   5.635   2.780   1.022
  582TIP3   OH2 1686   5.766   2.875   0.943
  582TIP3    H1 1687   5.833   2.823   0.898
  582TIP3    H2 1688   5.816   2.936   0.998
  583TIP3   OH2 1689   4.822   2.737   0.982
  583TIP3    H1 1690   4.732   2.756   0.958
  583TIP3    H2 1691   4.844   2.804   1.047
  584TIP3   OH2 1692   5.054   2.729   0.832
  584TIP3    H1 1693   4.971   2.735   0.878
  584TIP3    H2 1694   5.035   2.757   0.742
  585TIP3   OH2 1695   5.450   2.739   0.639
  585TIP3    H1 1696   5.421   2.760   0.551
  585TIP3    H2 1697   5.494   2.818   0.670
  586TIP3   OH2 1698   5.985   2.922   0.577
  586TIP3    H1 1699   5.948   2.981   0.512
  586TIP3    H2 1700   5.963   2.834   0.545
  587TIP3   OH2 1701   4.735   2.526   0.700
  587TIP3    H1 1702   4.756   2.500   0.789
  587TIP3    H2 1703   4.810   2.496   0.648
  588TIP3   OH2 1704   4.942   2.417   0.564
  588TIP3    H1 1705   4.954   2.334   0.610
  588TIP3    H2 1706   5.030   2.456   0.562
  589TIP3   OH2 1707   5.210   2.495   0.575
  589TIP3    H1 1708   5.233   2.403   0.558
  589TIP3    H2 1709   5.262   2.519   0.652
  590TIP3   OH2 1710   4.518   2.306   0.108
  590TIP3    H1 1711   4.442   2.265   0.066
  590TIP3    H2 1712   4.515   2.397   0.079
  591TIP3   OH2 1713   5.237   1.129   1.551
  591TIP3    H1 1714   5.192   1.068   1.608
  591TIP3    H2 1715   5.327   1.130   1.581
  592TIP3   OH2 1716   5.484   1.132   1.677
  592TIP3    H1 1717   5.561   1.110   1.624
  592TIP3    H2 1718   5.477   1.060   1.740
  593TIP3   OH2 1719   7.487   6.438   6.799
  593TIP3    H1 1720   7.478   6.506   6.866
  593TIP3    H2 1721   7.568   6.392   6.823
  594TIP3   OH2 1722   6.298   1.210   1.471
  594TIP3    H1 1723   6.314   1.178   1.559
  594TIP3    H2 1724   6.381   1.196   1.425
  595TIP3   OH2 1725   6.209   2.750   0.964
  595TIP3    H1 1726   6.126   2.728   0.921
  595TIP3    H2 1727   6.205   2.845   0.976
  596TIP3   OH2 1728   6.862   2.052   0.533
  596TIP3    H1 1729   6.848   1.973   0.480
  596TIP3    H2 1730   6.928   2.101   0.484
  597TIP3   OH2 1731   6.793   2.454   0.157
  597TIP3    H1 1732   6.769   2.390   0.224
  597TIP3    H2 1733   6.838   2.523   0.205
  598TIP3   OH2 1734   7.030   2.204   0.390
  598TIP3    H1 1735   7.074   2.279   0.431
  598TIP3    H2 1736   7.086   2.182   0.315
  599TIP3   OH2 1737   6.987   2.453   0.518
  599TIP3    H1 1738   6.924   2.509   0.473
  599TIP3    H2 1739   6.934   2.387   0.561
  600TIP3   OH2 1740   7.133   2.540   0.730
  600TIP3    H1 1741   7.066   2.602   0.756
  600TIP3    H2 1742   7.089   2.482   0.667
  601TIP3   OH2 1743   6.849   2.295   0.688
  601TIP3    H1 1744   6.893   2.337   0.761
  601TIP3    H2 1745   6.791   2.230   0.729
  602TIP3   OH2 1746   6.959   2.744   0.775
  602TIP3    H1 1747   6.932   2.774   0.688
  602TIP3    H2 1748   6.878   2.740   0.825
  603TIP3   OH2 1749   6.542   2.291   0.641
  603TIP3    H1 1750   6.467   2.297   0.583
  603TIP3    H2 1751   6.563   2.198   0.645
  604TIP3   OH2 1752   6.385   2.535   0.298
  604TIP3    H1 1753   6.463   2.570   0.342
  604TIP3    H2 1754   6.317   2.600   0.314
  605TIP3   OH2 1755   7.425   2.748   0.463
  605TIP3    H1 1756   7.434   2.843   0.464
  605TIP3    H2 1757   7.367   2.728   0.537
  606TIP3   OH2 1758   6.683   2.529   0.716
  606TIP3    H1 1759   6.755   2.515   0.778
  606TIP3    H2 1760   6.646   2.441   0.702
  607TIP3   OH2 1761   6.790   1.804   0.688
  607TIP3    H1 1762   6.855   1.867   0.719
  607TIP3    H2 1763   6.835   1.719   0.693
  608TIP3   OH2 1764   6.886   2.475   0.902
  608TIP3    H1 1765   6.965   2.518   0.937
  608TIP3    H2 1766   6.822   2.480   0.973
  609TIP3   OH2 1767   7.484   2.481   0.489
  609TIP3    H1 1768   7.520   2.508   0.573
  609TIP3    H2 1769   7.452   2.562   0.450
  610TIP3   OH2 1770   6.674   2.120   0.850
  610TIP3    H1 1771   6.651   2.078   0.932
  610TIP3    H2 1772   6.635   2.065   0.782
  611TIP3   OH2 1773   7.439   2.146   0.763
  611TIP3    H1 1774   7.380   2.104   0.700
  611TIP3    H2 1775   7.523   2.103   0.750
  612TIP3   OH2 1776   7.701   2.734   0.476
  612TIP3    H1 1777   7.690   2.641   0.454
  612TIP3    H2 1778   7.616   2.773   0.453
  613TIP3   OH2 1779   7.199   2.806   0.251
  613TIP3    H1 1780   7.285   2.834   0.218
  613TIP3    H2 1781   7.219   2.764   0.335
  614TIP3   OH2 1782   6.549   2.747   0.437
  614TIP3    H1 1783   6.616   2.685   0.467
  614TIP3    H2 1784   6.564   2.825   0.489
  615TIP3   OH2 1785   6.609   3.000   0.856
  615TIP3    H1 1786   6.687   3.006   0.911
  615TIP3    H2 1787   6.593   2.906   0.847
  616TIP3   OH2 1788   7.064   2.943   0.935
  616TIP3    H1 1789   7.159   2.937   0.944
  616TIP3    H2 1790   7.040   2.872   0.875
  617TIP3   OH2 1791   6.690   2.403   1.079
  617TIP3    H1 1792   6.681   2.330   1.141
  617TIP3    H2 1793   6.611   2.398   1.024
  618TIP3   OH2 1794   7.400   2.411   0.775
  618TIP3    H1 1795   7.340   2.406   0.701
  618TIP3    H2 1796   7.433   2.321   0.785
  619TIP3   OH2 1797   6.778   2.070   1.126
  619TIP3    H1 1798   6.821   2.110   1.051
  619TIP3    H2 1799   6.798   2.128   1.200
  620TIP3   OH2 1800   7.228   2.051   0.616
  620TIP3    H1 1801   7.153   2.047   0.675
  620TIP3    H2 1802   7.209   1.984   0.550
  621TIP3   OH2 1803   7.166   1.845   1.118
  621TIP3    H1 1804   7.071   1.847   1.128
  621TIP3    H2 1805   7.184   1.912   1.052
  622TIP3   OH2 1806   7.519   1.863   0.836
  622TIP3    H1 1807   7.597   1.812   0.859
  622TIP3    H2 1808   7.445   1.809   0.862
  623TIP3   OH2 1809   7.037   1.628   0.975
  623TIP3    H1 1810   7.122   1.591   0.950
  623TIP3    H2 1811   7.050   1.660   1.064
  624TIP3   OH2 1812   6.274   2.693   0.042
  624TIP3    H1 1813   6.294   2.606   0.077
  624TIP3    H2 1814   6.327   2.753   0.095
  625TIP3   OH2 1815   6.478   2.155   0.352
  625TIP3    H1 1816   6.421   2.095   0.304
  625TIP3    H2 1817   6.553   2.100   0.377
  626TIP3   OH2 1818   6.661   1.716   1.082
  626TIP3    H1 1819   6.747   1.741   1.115
  626TIP3    H2 1820   6.637   1.639   1.135
  627TIP3   OH2 1821   6.729   2.739   0.926
  627TIP3    H1 1822   6.646   2.706   0.892
  627TIP3    H2 1823   6.719   2.737   1.021
  628TIP3   OH2 1824   6.912   2.812   0.516
  628TIP3    H1 1825   6.862   2.892   0.502
  628TIP3    H2 1826   6.931   2.780   0.428
  629TIP3   OH2 1827   7.462   3.002   0.557
  629TIP3    H1 1828   7.504   2.992   0.642
  629TIP3    H2 1829   7.471   3.095   0.537
  630TIP3   OH2 1830   7.492   3.272   0.516
  630TIP3    H1 1831   7.539   3.281   0.433
  630TIP3    H2 1832   7.554   3.306   0.582
  631TIP3   OH2 1833   6.600   3.017   0.497
  631TIP3    H1 1834   6.510   3.041   0.474
  631TIP3    H2 1835   6.629   3.086   0.557
  632TIP3   OH2 1836   6.776   2.944   0.306
  632TIP3    H1 1837   6.709   2.980   0.364
  632TIP3    H2 1838   6.813   3.020   0.262
  633TIP3   OH2 1839   6.462   2.837   0.199
  633TIP3    H1 1840   6.494   2.814   0.286
  633TIP3    H2 1841   6.516   2.784   0.140
  634TIP3   OH2 1842   6.644   2.690   0.065
  634TIP3    H1 1843   6.699   2.642   0.127
  634TIP3    H2 1844   6.693   2.770   0.046
  635TIP3   OH2 1845   7.073   2.650   0.059
  635TIP3    H1 1846   7.148   2.593   0.044
  635TIP3    H2 1847   7.100   2.708   0.131
  636TIP3   OH2 1848   0.866   2.645   2.034
  636TIP3    H1 1849   0.805   2.671   1.965
  636TIP3    H2 1850   0.861   2.716   2.098
  637TIP3   OH2 1851   0.497   3.382   1.936
  637TIP3    H1 1852   0.524   3.332   1.860
  637TIP3    H2 1853   0.462   3.464   1.901
  638TIP3   OH2 1854   0.727   3.011   1.816
  638TIP3    H1 1855   0.632   3.009   1.815
  638TIP3    H2 1856   0.753   2.976   1.731
  639TIP3   OH2 1857   0.725   3.724   2.050
  639TIP3    H1 1858   0.728   3.630   2.069
  639TIP3    H2 1859   0.644   3.754   2.092
  640TIP3   OH2 1860   8.463   3.475   2.190
  640TIP3    H1 1861   8.460   3.570   2.207
  640TIP3    H2 1862   8.377   3.444   2.218
  641TIP3   OH2 1863   0.612   2.861   2.326
  641TIP3    H1 1864   0.529   2.907   2.318
  641TIP3    H2 1865   0.591   2.780   2.371
  642TIP3   OH2 1866   0.101   2.860   2.506
  642TIP3    H1 1867   0.081   2.773   2.471
  642TIP3    H2 1868   0.197   2.861   2.513
  643TIP3   OH2 1869   0.439   4.072   2.143
  643TIP3    H1 1870   0.431   4.096   2.050
  643TIP3    H2 1871   0.517   4.119   2.173
  644TIP3   OH2 1872   0.127   3.506   2.106
  644TIP3    H1 1873   0.034   3.481   2.114
  644TIP3    H2 1874   0.144   3.558   2.185
  645TIP3   OH2 1875   0.732   3.436   2.080
  645TIP3    H1 1876   0.637   3.434   2.067
  645TIP3    H2 1877   0.769   3.413   1.995
  646TIP3   OH2 1878   0.239   3.759   1.989
  646TIP3    H1 1879   0.168   3.695   1.991
  646TIP3    H2 1880   0.216   3.818   1.917
  647TIP3   OH2 1881   0.294   3.735   1.589
  647TIP3    H1 1882   0.245   3.718   1.508
  647TIP3    H2 1883   0.382   3.757   1.560
  648TIP3   OH2 1884   8.073   3.786   2.514
  648TIP3    H1 1885   8.129   3.744   2.580
  648TIP3    H2 1886   7.984   3.778   2.548
  649TIP3   OH2 1887   0.164   3.642   2.345
  649TIP3    H1 1888   0.173   3.570   2.407
  649TIP3    H2 1889   0.242   3.696   2.360
  650TIP3   OH2 1890   8.448   3.247   2.486
  650TIP3    H1 1891   8.421   3.201   2.407
  650TIP3    H2 1892   8.541   3.226   2.495
  651TIP3   OH2 1893   0.304   3.290   2.126
  651TIP3    H1 1894   0.372   3.318   2.065
  651TIP3    H2 1895   0.236   3.358   2.120
  652TIP3   OH2 1896   0.115   3.185   2.519
  652TIP3    H1 1897   0.167   3.142   2.451
  652TIP3    H2 1898   0.133   3.134   2.598
  653TIP3   OH2 1899   0.375   2.876   2.572
  653TIP3    H1 1900   0.408   2.819   2.641
  653TIP3    H2 1901   0.437   2.949   2.570
  654TIP3   OH2 1902   0.418   3.112   2.302
  654TIP3    H1 1903   0.357   3.164   2.250
  654TIP3    H2 1904   0.505   3.134   2.267
  655TIP3   OH2 1905   0.537   2.519   2.656
  655TIP3    H1 1906   0.455   2.485   2.621
  655TIP3    H2 1907   0.511   2.589   2.716
  656TIP3   OH2 1908   0.554   3.800   1.542
  656TIP3    H1 1909   0.574   3.838   1.627
  656TIP3    H2 1910   0.607   3.849   1.480
  657TIP3   OH2 1911   0.570   3.836   1.825
  657TIP3    H1 1912   0.519   3.756   1.821
  657TIP3    H2 1913   0.641   3.816   1.886
  658TIP3   OH2 1914   0.618   3.523   2.388
  658TIP3    H1 1915   0.546   3.531   2.450
  658TIP3    H2 1916   0.664   3.607   2.393
  659TIP3   OH2 1917   0.642   3.302   1.641
  659TIP3    H1 1918   0.672   3.238   1.576
  659TIP3    H2 1919   0.638   3.385   1.593
  660TIP3   OH2 1920   0.403   3.613   1.819
  660TIP3    H1 1921   0.345   3.650   1.887
  660TIP3    H2 1922   0.358   3.633   1.737
  661TIP3   OH2 1923   0.664   3.185   2.204
  661TIP3    H1 1924   0.728   3.117   2.182
  661TIP3    H2 1925   0.690   3.260   2.151
  662TIP3   OH2 1926   0.828   2.966   2.194
  662TIP3    H1 1927   0.754   2.925   2.239
  662TIP3    H2 1928   0.905   2.919   2.226
  663TIP3   OH2 1929   1.077   2.408   2.511
  663TIP3    H1 1930   1.118   2.331   2.471
  663TIP3    H2 1931   1.031   2.451   2.439
  664TIP3   OH2 1932   0.908   2.550   2.337
  664TIP3    H1 1933   0.853   2.585   2.407
  664TIP3    H2 1934   0.860   2.474   2.304
  665TIP3   OH2 1935   8.456   3.747   2.254
  665TIP3    H1 1936   8.494   3.751   2.341
  665TIP3    H2 1937   8.519   3.794   2.199
  666TIP3   OH2 1938   0.030   3.916   2.130
  666TIP3    H1 1939   0.101   3.871   2.084
  666TIP3    H2 1940   0.074   3.980   2.185
  667TIP3   OH2 1941   8.581   3.770   1.854
  667TIP3    H1 1942   8.504   3.820   1.882
  667TIP3    H2 1943   8.636   3.833   1.809
  668TIP3   OH2 1944   0.199   3.925   1.766
  668TIP3    H1 1945   0.192   4.009   1.722
  668TIP3    H2 1946   0.229   3.864   1.698
  669TIP3   OH2 1947   0.596   2.249   2.660
  669TIP3    H1 1948   0.596   2.206   2.746
  669TIP3    H2 1949   0.586   2.342   2.679
  670TIP3   OH2 1950   0.475   3.799   2.140
  670TIP3    H1 1951   0.394   3.771   2.096
  670TIP3    H2 1952   0.465   3.894   2.150
  671TIP3   OH2 1953   1.769   3.111   1.013
  671TIP3    H1 1954   1.771   3.206   1.021
  671TIP3    H2 1955   1.683   3.091   0.974
  672TIP3   OH2 1956   1.717   3.186   1.398
  672TIP3    H1 1957   1.791   3.196   1.457
  672TIP3    H2 1958   1.731   3.101   1.356
  673TIP3   OH2 1959   1.017   3.022   1.723
  673TIP3    H1 1960   1.067   2.949   1.759
  673TIP3    H2 1961   0.968   3.057   1.798
  674TIP3   OH2 1962   2.045   3.500   1.040
  674TIP3    H1 1963   1.985   3.480   1.112
  674TIP3    H2 1964   2.062   3.594   1.050
  675TIP3   OH2 1965   0.975   3.466   1.507
  675TIP3    H1 1966   0.962   3.371   1.504
  675TIP3    H2 1967   1.068   3.478   1.487
  676TIP3   OH2 1968   1.713   3.973   1.045
  676TIP3    H1 1969   1.768   3.910   0.998
  676TIP3    H2 1970   1.680   3.925   1.121
  677TIP3   OH2 1971   1.573   3.459   1.393
  677TIP3    H1 1972   1.588   3.387   1.331
  677TIP3    H2 1973   1.661   3.492   1.413
  678TIP3   OH2 1974   2.671   2.725   1.376
  678TIP3    H1 1975   2.654   2.811   1.414
  678TIP3    H2 1976   2.695   2.743   1.285
  679TIP3   OH2 1977   1.976   2.886   1.404
  679TIP3    H1 1978   1.953   2.809   1.457
  679TIP3    H2 1979   1.972   2.855   1.314
  680TIP3   OH2 1980   1.933   2.627   0.962
  680TIP3    H1 1981   2.014   2.593   0.923
  680TIP3    H2 1982   1.911   2.704   0.910
  681TIP3   OH2 1983   1.463   2.780   1.235
  681TIP3    H1 1984   1.490   2.835   1.308
  681TIP3    H2 1985   1.370   2.799   1.223
  682TIP3   OH2 1986   2.671   2.965   1.528
  682TIP3    H1 1987   2.586   3.007   1.524
  682TIP3    H2 1988   2.712   3.001   1.607
  683TIP3   OH2 1989   1.288   2.569   1.777
  683TIP3    H1 1990   1.233   2.582   1.701
  683TIP3    H2 1991   1.232   2.591   1.852
  684TIP3   OH2 1992   1.746   3.355   0.691
  684TIP3    H1 1993   1.671   3.332   0.636
  684TIP3    H2 1994   1.710   3.416   0.756
  685TIP3   OH2 1995   1.462   3.377   1.635
  685TIP3    H1 1996   1.386   3.435   1.640
  685TIP3    H2 1997   1.527   3.427   1.585
  686TIP3   OH2 1998   2.192   2.578   1.107
  686TIP3    H1 1999   2.140   2.511   1.150
  686TIP3    H2 2000   2.278   2.573   1.149
  687TIP3   OH2 2001   1.236   3.532   1.653
  687TIP3    H1 2002   1.228   3.620   1.615
  687TIP3    H2 2003   1.159   3.523   1.709
  688TIP3   OH2 2004   2.072   3.745   1.152
  688TIP3    H1 2005   1.977   3.752   1.166
  688TIP3    H2 2006   2.088   3.800   1.075
  689TIP3   OH2 2007   2.433   2.655   1.532
  689TIP3    H1 2008   2.352   2.664   1.483
  689TIP3    H2 2009   2.502   2.680   1.470
  690TIP3   OH2 2010   1.854   3.794   0.898
  690TIP3    H1 2011   1.903   3.717   0.870
  690TIP3    H2 2012   1.830   3.838   0.816
  691TIP3   OH2 2013   1.958   3.570   0.761
  691TIP3    H1 2014   1.991   3.518   0.688
  691TIP3    H2 2015   2.037   3.607   0.802
  692TIP3   OH2 2016   2.290   3.644   1.477
  692TIP3    H1 2017   2.294   3.586   1.401
  692TIP3    H2 2018   2.269   3.730   1.441
  693TIP3   OH2 2019   2.475   3.317   1.364
  693TIP3    H1 2020   2.396   3.370   1.352
  693TIP3    H2 2021   2.515   3.313   1.277
  694TIP3   OH2 2022   1.914   3.138   0.734
  694TIP3    H1 2023   1.907   3.228   0.765
  694TIP3    H2 2024   2.004   3.113   0.753
  695TIP3   OH2 2025   2.171   3.156   1.672
  695TIP3    H1 2026   2.169   3.240   1.717
  695TIP3    H2 2027   2.090   3.154   1.621
  696TIP3   OH2 2028   1.206   3.481   1.311
  696TIP3    H1 2029   1.203   3.481   1.215
  696TIP3    H2 2030   1.255   3.402   1.333
  697TIP3   OH2 2031   1.206   3.021   1.416
  697TIP3    H1 2032   1.301   3.008   1.407
  697TIP3    H2 2033   1.194   3.049   1.506
  698TIP3   OH2 2034   1.811   3.736   1.251
  698TIP3    H1 2035   1.807   3.819   1.298
  698TIP3    H2 2036   1.816   3.669   1.320
  699TIP3   OH2 2037   1.439   3.642   1.811
  699TIP3    H1 2038   1.385   3.705   1.859
  699TIP3    H2 2039   1.376   3.589   1.762
  700TIP3   OH2 2040   1.192   3.198   1.925
  700TIP3    H1 2041   1.199   3.286   1.962
  700TIP3    H2 2042   1.103   3.170   1.945
  701TIP3   OH2 2043   1.544   3.771   0.877
  701TIP3    H1 2044   1.545   3.679   0.852
  701TIP3    H2 2045   1.452   3.795   0.878
  702TIP3   OH2 2046   1.224   3.795   1.888
  702TIP3    H1 2047   1.197   3.803   1.796
  702TIP3    H2 2048   1.142   3.776   1.935
  703TIP3   OH2 2049   2.094   3.585   0.165
  703TIP3    H1 2050   2.154   3.658   0.148
  703TIP3    H2 2051   2.149   3.507   0.156
  704TIP3   OH2 2052   0.823   3.338   1.845
  704TIP3    H1 2053   0.762   3.321   1.774
  704TIP3    H2 2054   0.854   3.252   1.873
  705TIP3   OH2 2055   0.668   3.538   1.493
  705TIP3    H1 2056   0.762   3.552   1.508
  705TIP3    H2 2057   0.627   3.621   1.521
  706TIP3   OH2 2058   2.527   3.985   1.532
  706TIP3    H1 2059   2.531   3.890   1.543
  706TIP3    H2 2060   2.444   4.011   1.573
  707TIP3   OH2 2061   1.635   3.766   1.664
  707TIP3    H1 2062   1.631   3.858   1.692
  707TIP3    H2 2063   1.568   3.723   1.716
  708TIP3   OH2 2064   1.378   3.979   0.613
  708TIP3    H1 2065   1.291   3.944   0.596
  708TIP3    H2 2066   1.363   4.052   0.673
  709TIP3   OH2 2067   0.799   3.819   1.016
  709TIP3    H1 2068   0.866   3.820   1.084
  709TIP3    H2 2069   0.780   3.727   1.002
  710TIP3   OH2 2070   1.507   3.652   0.208
  710TIP3    H1 2071   1.585   3.635   0.155
  710TIP3    H2 2072   1.526   3.614   0.293
  711TIP3   OH2 2073   1.567   3.836   0.479
  711TIP3    H1 2074   1.518   3.896   0.534
  711TIP3    H2 2075   1.652   3.827   0.523
  712TIP3   OH2 2076   2.412   3.108   1.826
  712TIP3    H1 2077   2.339   3.123   1.766
  712TIP3    H2 2078   2.433   3.015   1.816
  713TIP3   OH2 2079   1.027   3.521   1.822
  713TIP3    H1 2080   1.071   3.512   1.907
  713TIP3    H2 2081   0.952   3.463   1.828
  714TIP3   OH2 2082   1.966   2.485   1.851
  714TIP3    H1 2083   2.039   2.443   1.896
  714TIP3    H2 2084   1.888   2.453   1.896
  715TIP3   OH2 2085   2.163   2.885   1.729
  715TIP3    H1 2086   2.134   2.886   1.820
  715TIP3    H2 2087   2.163   2.977   1.702
  716TIP3   OH2 2088   1.324   2.889   1.654
  716TIP3    H1 2089   1.274   2.874   1.734
  716TIP3    H2 2090   1.274   2.845   1.585
  717TIP3   OH2 2091   1.892   3.101   1.966
  717TIP3    H1 2092   1.872   3.029   2.025
  717TIP3    H2 2093   1.986   3.117   1.978
  718TIP3   OH2 2094   1.957   2.831   1.140
  718TIP3    H1 2095   1.953   2.891   1.066
  718TIP3    H2 2096   1.963   2.744   1.101
  719TIP3   OH2 2097   1.171   2.856   1.879
  719TIP3    H1 2098   1.226   2.911   1.935
  719TIP3    H2 2099   1.158   2.776   1.931
  720TIP3   OH2 2100   1.927   3.103   1.557
  720TIP3    H1 2101   1.953   3.029   1.502
  720TIP3    H2 2102   1.880   3.064   1.630
  721TIP3   OH2 2103   1.978   2.587   1.497
  721TIP3    H1 2104   1.945   2.633   1.574
  721TIP3    H2 2105   1.902   2.542   1.461
  722TIP3   OH2 2106   2.232   4.329   1.625
  722TIP3    H1 2107   2.228   4.345   1.531
  722TIP3    H2 2108   2.310   4.376   1.654
  723TIP3   OH2 2109   1.179   3.444   2.051
  723TIP3    H1 2110   1.261   3.465   2.096
  723TIP3    H2 2111   1.112   3.450   2.118
  724TIP3   OH2 2112   1.712   2.944   1.279
  724TIP3    H1 2113   1.706   2.907   1.191
  724TIP3    H2 2114   1.733   2.870   1.335
  725TIP3   OH2 2115   1.585   2.805   1.667
  725TIP3    H1 2116   1.501   2.848   1.655
  725TIP3    H2 2117   1.647   2.876   1.683
  726TIP3   OH2 2118   2.287   3.496   1.250
  726TIP3    H1 2119   2.248   3.539   1.173
  726TIP3    H2 2120   2.228   3.423   1.269
  727TIP3   OH2 2121   1.760   3.494   1.713
  727TIP3    H1 2122   1.810   3.491   1.795
  727TIP3    H2 2123   1.730   3.585   1.707
  728TIP3   OH2 2124   0.959   3.191   1.443
  728TIP3    H1 2125   1.005   3.209   1.361
  728TIP3    H2 2126   1.029   3.177   1.507
  729TIP3   OH2 2127   0.928   3.113   1.975
  729TIP3    H1 2128   0.940   3.091   2.067
  729TIP3    H2 2129   0.851   3.062   1.949
  730TIP3   OH2 2130   1.652   3.241   1.991
  730TIP3    H1 2131   1.588   3.177   1.957
  730TIP3    H2 2132   1.737   3.205   1.966
  731TIP3   OH2 2133   1.906   3.785   1.586
  731TIP3    H1 2134   1.811   3.771   1.589
  731TIP3    H2 2135   1.926   3.829   1.669
  732TIP3   OH2 2136   2.223   2.793   0.457
  732TIP3    H1 2137   2.200   2.721   0.397
  732TIP3    H2 2138   2.227   2.870   0.400
  733TIP3   OH2 2139   2.545   3.697   1.553
  733TIP3    H1 2140   2.450   3.690   1.549
  733TIP3    H2 2141   2.576   3.667   1.468
  734TIP3   OH2 2142   2.023   3.639   0.421
  734TIP3    H1 2143   2.000   3.560   0.472
  734TIP3    H2 2144   2.054   3.605   0.337
  735TIP3   OH2 2145   2.168   3.270   1.343
  735TIP3    H1 2146   2.073   3.276   1.355
  735TIP3    H2 2147   2.179   3.207   1.271
  736TIP3   OH2 2148   1.134   3.577   1.030
  736TIP3    H1 2149   1.093   3.644   0.975
  736TIP3    H2 2150   1.071   3.505   1.031
  737TIP3   OH2 2151   1.209   3.265   0.843
  737TIP3    H1 2152   1.236   3.302   0.927
  737TIP3    H2 2153   1.185   3.175   0.864
  738TIP3   OH2 2154   1.435   3.892   1.495
  738TIP3    H1 2155   1.468   3.947   1.424
  738TIP3    H2 2156   1.512   3.846   1.527
  739TIP3   OH2 2157   1.015   3.756   0.854
  739TIP3    H1 2158   0.939   3.801   0.889
  739TIP3    H2 2159   1.081   3.825   0.843
  740TIP3   OH2 2160   1.826   3.531   1.437
  740TIP3    H1 2161   1.849   3.503   1.526
  740TIP3    H2 2162   1.875   3.471   1.380
  741TIP3   OH2 2163   2.042   4.023   1.474
  741TIP3    H1 2164   1.971   3.958   1.477
  741TIP3    H2 2165   2.020   4.079   1.400
  742TIP3   OH2 2166   2.164   3.856   0.147
  742TIP3    H1 2167   2.139   3.910   0.072
  742TIP3    H2 2168   2.122   3.898   0.222
  743TIP3   OH2 2169   1.136   2.605   2.003
  743TIP3    H1 2170   1.042   2.611   2.022
  743TIP3    H2 2171   1.174   2.563   2.080
  744TIP3   OH2 2172   1.961   3.407   0.538
  744TIP3    H1 2173   1.880   3.393   0.588
  744TIP3    H2 2174   1.973   3.326   0.490
  745TIP3   OH2 2175   0.866   3.731   1.610
  745TIP3    H1 2176   0.922   3.659   1.640
  745TIP3    H2 2177   0.890   3.805   1.665
  746TIP3   OH2 2178   1.939   2.725   1.725
  746TIP3    H1 2179   2.026   2.766   1.724
  746TIP3    H2 2180   1.950   2.647   1.779
  747TIP3   OH2 2181   1.800   2.961   1.749
  747TIP3    H1 2182   1.832   3.001   1.829
  747TIP3    H2 2183   1.841   2.874   1.748
  748TIP3   OH2 2184   2.432   2.842   1.736
  748TIP3    H1 2185   2.337   2.846   1.736
  748TIP3    H2 2186   2.453   2.779   1.666
  749TIP3   OH2 2187   2.163   3.140   1.068
  749TIP3    H1 2188   2.078   3.133   1.112
  749TIP3    H2 2189   2.213   3.065   1.100
  750TIP3   OH2 2190   2.084   4.017   1.057
  750TIP3    H1 2191   2.035   4.039   0.977
  750TIP3    H2 2192   2.175   4.034   1.035
  751TIP3   OH2 2193   0.862   4.036   2.033
  751TIP3    H1 2194   0.944   4.043   2.082
  751TIP3    H2 2195   0.847   3.942   2.023
  752TIP3   OH2 2196   1.327   3.961   2.082
  752TIP3    H1 2197   1.421   3.944   2.089
  752TIP3    H2 2198   1.298   3.905   2.010
  753TIP3   OH2 2199   1.950   3.897   1.832
  753TIP3    H1 2200   1.959   3.825   1.895
  753TIP3    H2 2201   2.028   3.951   1.847
  754TIP3   OH2 2202   1.725   3.613   0.046
  754TIP3    H1 2203   1.781   3.667   0.101
  754TIP3    H2 2204   1.734   3.652  -0.042
  755TIP3   OH2 2205   0.970   3.430   2.232
  755TIP3    H1 2206   0.989   3.337   2.240
  755TIP3    H2 2207   0.881   3.433   2.195
  756TIP3   OH2 2208   1.591   3.518   2.007
  756TIP3    H1 2209   1.551   3.543   1.924
  756TIP3    H2 2210   1.625   3.429   1.991
  757TIP3   OH2 2211   2.066   3.556   1.612
  757TIP3    H1 2212   2.147   3.582   1.567
  757TIP3    H2 2213   2.006   3.630   1.598
  758TIP3   OH2 2214   1.097   3.170   2.230
  758TIP3    H1 2215   1.180   3.148   2.187
  758TIP3    H2 2216   1.122   3.197   2.318
  759TIP3   OH2 2217   1.427   3.052   1.897
  759TIP3    H1 2218   1.350   3.109   1.904
  759TIP3    H2 2219   1.461   3.068   1.809
  760TIP3   OH2 2220   1.945   3.437   1.982
  760TIP3    H1 2221   2.021   3.408   1.932
  760TIP3    H2 2222   1.945   3.381   2.059
  761TIP3   OH2 2223   1.552   2.835   2.011
  761TIP3    H1 2224   1.550   2.756   1.958
  761TIP3    H2 2225   1.514   2.903   1.955
  762TIP3   OH2 2226   1.548   2.609   1.841
  762TIP3    H1 2227   1.571   2.672   1.773
  762TIP3    H2 2228   1.458   2.583   1.821
  763TIP3   OH2 2229   1.557   3.125   1.669
  763TIP3    H1 2230   1.653   3.130   1.663
  763TIP3    H2 2231   1.528   3.216   1.661
  764TIP3   OH2 2232   2.163   3.132   2.046
  764TIP3    H1 2233   2.191   3.041   2.036
  764TIP3    H2 2234   2.241   3.184   2.024
  765TIP3   OH2 2235   2.189   3.401   1.796
  765TIP3    H1 2236   2.134   3.456   1.740
  765TIP3    H2 2237   2.278   3.414   1.763
  766TIP3   OH2 2238   1.433   2.939   2.240
  766TIP3    H1 2239   1.369   2.871   2.263
  766TIP3    H2 2240   1.466   2.912   2.154
  767TIP3   OH2 2241   1.705   2.402   1.912
  767TIP3    H1 2242   1.656   2.482   1.891
  767TIP3    H2 2243   1.639   2.333   1.912
  768TIP3   OH2 2244   1.814   2.875   2.100
  768TIP3    H1 2245   1.806   2.863   2.195
  768TIP3    H2 2246   1.727   2.855   2.066
  769TIP3   OH2 2247   2.072   2.859   1.981
  769TIP3    H1 2248   1.991   2.843   2.030
  769TIP3    H2 2249   2.140   2.817   2.035
  770TIP3   OH2 2250   2.296   2.786   2.124
  770TIP3    H1 2251   2.307   2.691   2.130
  770TIP3    H2 2252   2.290   2.815   2.215
  771TIP3   OH2 2253   1.280   2.720   2.312
  771TIP3    H1 2254   1.280   2.631   2.276
  771TIP3    H2 2255   1.316   2.710   2.400
  772TIP3   OH2 2256   1.764   2.370   2.174
  772TIP3    H1 2257   1.832   2.302   2.167
  772TIP3    H2 2258   1.735   2.384   2.084
  773TIP3   OH2 2259   1.841   2.598   2.306
  773TIP3    H1 2260   1.816   2.524   2.252
  773TIP3    H2 2261   1.766   2.658   2.302
  774TIP3   OH2 2262   0.614   3.657   1.231
  774TIP3    H1 2263   0.623   3.594   1.303
  774TIP3    H2 2264   0.659   3.736   1.262
  775TIP3   OH2 2265   2.337   4.113   1.019
  775TIP3    H1 2266   2.371   4.114   1.108
  775TIP3    H2 2267   2.415   4.116   0.964
  776TIP3   OH2 2268   2.376   4.095   1.302
  776TIP3    H1 2269   2.325   4.015   1.301
  776TIP3    H2 2270   2.452   4.075   1.356
  777TIP3   OH2 2271   2.413   3.780   1.882
  777TIP3    H1 2272   2.342   3.789   1.946
  777TIP3    H2 2273   2.458   3.865   1.883
  778TIP3   OH2 2274   2.242   3.336   0.367
  778TIP3    H1 2275   2.265   3.429   0.376
  778TIP3    H2 2276   2.219   3.309   0.455
  779TIP3   OH2 2277   2.392   3.226   0.782
  779TIP3    H1 2278   2.325   3.269   0.835
  779TIP3    H2 2279   2.474   3.264   0.812
  780TIP3   OH2 2280   2.227   3.868   1.338
  780TIP3    H1 2281   2.158   3.915   1.384
  780TIP3    H2 2282   2.183   3.825   1.265
  781TIP3   OH2 2283   2.243   3.079   0.257
  781TIP3    H1 2284   2.172   3.029   0.217
  781TIP3    H2 2285   2.200   3.157   0.293
  782TIP3   OH2 2286   2.147   3.024   0.809
  782TIP3    H1 2287   2.155   2.934   0.840
  782TIP3    H2 2288   2.180   3.078   0.881
  783TIP3   OH2 2289   5.799   8.048   6.557
  783TIP3    H1 2290   5.720   7.998   6.537
  783TIP3    H2 2291   5.861   7.983   6.591
  784TIP3   OH2 2292   2.444   3.437   1.692
  784TIP3    H1 2293   2.510   3.370   1.678
  784TIP3    H2 2294   2.462   3.504   1.626
  785TIP3   OH2 2295   2.625   3.233   1.700
  785TIP3    H1 2296   2.552   3.186   1.741
  785TIP3    H2 2297   2.703   3.184   1.727
  786TIP3   OH2 2298   2.064   2.755   0.696
  786TIP3    H1 2299   2.091   2.673   0.737
  786TIP3    H2 2300   2.087   2.744   0.603
  787TIP3   OH2 2301   2.448   2.894   1.349
  787TIP3    H1 2302   2.509   2.949   1.300
  787TIP3    H2 2303   2.416   2.951   1.419
  788TIP3   OH2 2304   2.400   3.102   1.515
  788TIP3    H1 2305   2.314   3.125   1.551
  788TIP3    H2 2306   2.426   3.178   1.464
  789TIP3   OH2 2307   1.021   2.793   2.271
  789TIP3    H1 2308   1.116   2.781   2.282
  789TIP3    H2 2309   0.984   2.708   2.297
  790TIP3   OH2 2310   2.847   2.650   2.008
  790TIP3    H1 2311   2.907   2.591   1.962
  790TIP3    H2 2312   2.812   2.706   1.939
  791TIP3   OH2 2313   2.107   2.486   0.816
  791TIP3    H1 2314   2.153   2.424   0.873
  791TIP3    H2 2315   2.162   2.492   0.738
  792TIP3   OH2 2316   2.706   2.795   1.825
  792TIP3    H1 2317   2.624   2.832   1.859
  792TIP3    H2 2318   2.678   2.722   1.770
  793TIP3   OH2 2319   2.002   3.931   0.678
  793TIP3    H1 2320   2.065   3.875   0.723
  793TIP3    H2 2321   1.983   4.001   0.741
  794TIP3   OH2 2322   1.001   3.754   2.051
  794TIP3    H1 2323   0.907   3.735   2.045
  794TIP3    H2 2324   1.020   3.754   2.144
  795TIP3   OH2 2325   1.203   3.802   1.604
  795TIP3    H1 2326   1.146   3.868   1.566
  795TIP3    H2 2327   1.291   3.827   1.576
  796TIP3   OH2 2328   1.620   4.035   1.738
  796TIP3    H1 2329   1.657   4.031   1.826
  796TIP3    H2 2330   1.683   4.087   1.688
  797TIP3   OH2 2331   1.809   4.189   1.608
  797TIP3    H1 2332   1.873   4.138   1.560
  797TIP3    H2 2333   1.861   4.246   1.664
  798TIP3   OH2 2334   2.619   2.558   1.718
  798TIP3    H1 2335   2.542   2.567   1.662
  798TIP3    H2 2336   2.639   2.465   1.717
  799TIP3   OH2 2337   0.879   4.047   1.644
  799TIP3    H1 2338   0.787   4.060   1.623
  799TIP3    H2 2339   0.898   4.114   1.710
  800TIP3   OH2 2340   1.097   4.022   1.476
  800TIP3    H1 2341   1.020   4.033   1.531
  800TIP3    H2 2342   1.073   4.064   1.393
  801TIP3   OH2 2343   1.523   4.058   1.287
  801TIP3    H1 2344   1.456   4.078   1.222
  801TIP3    H2 2345   1.539   4.142   1.331
  802TIP3   OH2 2346   1.788   3.994   1.343
  802TIP3    H1 2347   1.696   4.015   1.326
  802TIP3    H2 2348   1.837   4.057   1.291
  803TIP3   OH2 2349   1.988   4.178   1.250
  803TIP3    H1 2350   1.982   4.264   1.208
  803TIP3    H2 2351   2.022   4.120   1.183
  804TIP3   OH2 2352   0.780   3.845   1.374
  804TIP3    H1 2353   0.806   3.814   1.460
  804TIP3    H2 2354   0.855   3.826   1.318
  805TIP3   OH2 2355   0.987   3.780   1.211
  805TIP3    H1 2356   0.993   3.685   1.215
  805TIP3    H2 2357   1.078   3.810   1.217
  806TIP3   OH2 2358   1.247   3.863   1.250
  806TIP3    H1 2359   1.313   3.794   1.258
  806TIP3    H2 2360   1.240   3.899   1.339
  807TIP3   OH2 2361   1.803   2.407   1.374
  807TIP3    H1 2362   1.751   2.451   1.306
  807TIP3    H2 2363   1.889   2.394   1.334
  808TIP3   OH2 2364   2.318   2.381   1.284
  808TIP3    H1 2365   2.403   2.407   1.247
  808TIP3    H2 2366   2.267   2.353   1.209
  809TIP3   OH2 2367   2.513   2.418   1.071
  809TIP3    H1 2368   2.563   2.376   1.001
  809TIP3    H2 2369   2.502   2.509   1.040
  810TIP3   OH2 2370   2.030   2.396   1.220
  810TIP3    H1 2371   1.986   2.361   1.142
  810TIP3    H2 2372   2.060   2.318   1.267
  811TIP3   OH2 2373   1.292   3.828   0.269
  811TIP3    H1 2374   1.366   3.769   0.258
  811TIP3    H2 2375   1.222   3.789   0.216
  812TIP3   OH2 2376   2.141   3.884   0.421
  812TIP3    H1 2377   2.103   3.801   0.448
  812TIP3    H2 2378   2.066   3.942   0.407
  813TIP3   OH2 2379   1.272   2.457   2.223
  813TIP3    H1 2380   1.240   2.393   2.286
  813TIP3    H2 2381   1.367   2.458   2.237
  814TIP3   OH2 2382   1.527   2.436   2.330
  814TIP3    H1 2383   1.607   2.413   2.282
  814TIP3    H2 2384   1.520   2.369   2.398
  815TIP3   OH2 2385   2.352   2.515   2.130
  815TIP3    H1 2386   2.371   2.486   2.219
  815TIP3    H2 2387   2.437   2.513   2.086
  816TIP3   OH2 2388   2.274   4.056   1.630
  816TIP3    H1 2389   2.196   4.028   1.581
  816TIP3    H2 2390   2.264   4.151   1.638
  817TIP3   OH2 2391   3.555   3.459   0.381
  817TIP3    H1 2392   3.527   3.547   0.357
  817TIP3    H2 2393   3.489   3.401   0.342
  818TIP3   OH2 2394   3.553   3.436   0.792
  818TIP3    H1 2395   3.601   3.419   0.873
  818TIP3    H2 2396   3.512   3.352   0.772
  819TIP3   OH2 2397   2.863   3.305   1.145
  819TIP3    H1 2398   2.897   3.251   1.216
  819TIP3    H2 2399   2.941   3.328   1.094
  820TIP3   OH2 2400   3.808   3.745   0.456
  820TIP3    H1 2401   3.795   3.677   0.522
  820TIP3    H2 2402   3.832   3.823   0.506
  821TIP3   OH2 2403   2.842   3.742   0.840
  821TIP3    H1 2404   2.826   3.649   0.851
  821TIP3    H2 2405   2.936   3.748   0.822
  822TIP3   OH2 2406   2.582   3.026   0.700
  822TIP3    H1 2407   2.567   3.117   0.728
  822TIP3    H2 2408   2.501   3.000   0.657
  823TIP3   OH2 2409   2.641   3.287   0.853
  823TIP3    H1 2410   2.689   3.212   0.888
  823TIP3    H2 2411   2.708   3.354   0.840
  824TIP3   OH2 2412   3.458   4.180   0.475
  824TIP3    H1 2413   3.491   4.110   0.419
  824TIP3    H2 2414   3.449   4.139   0.561
  825TIP3   OH2 2415   3.352   3.656   0.802
  825TIP3    H1 2416   3.393   3.576   0.769
  825TIP3    H2 2417   3.425   3.710   0.832
  826TIP3   OH2 2418   4.378   2.978   0.818
  826TIP3    H1 2419   4.399   3.061   0.863
  826TIP3    H2 2420   4.393   2.997   0.725
  827TIP3   OH2 2421   3.771   3.147   0.841
  827TIP3    H1 2422   3.807   3.061   0.865
  827TIP3    H2 2423   3.727   3.132   0.758
  828TIP3   OH2 2424   3.145   2.870   0.848
  828TIP3    H1 2425   3.127   2.935   0.781
  828TIP3    H2 2426   3.133   2.786   0.804
  829TIP3   OH2 2427   3.804   2.906   0.435
  829TIP3    H1 2428   3.869   2.891   0.504
  829TIP3    H2 2429   3.855   2.943   0.363
  830TIP3   OH2 2430   2.742   3.053   0.964
  830TIP3    H1 2431   2.823   3.046   1.015
  830TIP3    H2 2432   2.760   3.005   0.884
  831TIP3   OH2 2433   3.187   3.233   0.745
  831TIP3    H1 2434   3.281   3.222   0.757
  831TIP3    H2 2435   3.159   3.154   0.699
  832TIP3   OH2 2436   4.442   3.195   0.984
  832TIP3    H1 2437   4.354   3.233   0.977
  832TIP3    H2 2438   4.477   3.232   1.065
  833TIP3   OH2 2439   3.104   2.809   1.264
  833TIP3    H1 2440   3.052   2.842   1.191
  833TIP3    H2 2441   3.051   2.825   1.341
  834TIP3   OH2 2442   3.456   3.672   0.227
  834TIP3    H1 2443   3.412   3.631   0.153
  834TIP3    H2 2444   3.394   3.738   0.259
  835TIP3   OH2 2445   3.197   3.586   1.020
  835TIP3    H1 2446   3.140   3.655   1.054
  835TIP3    H2 2447   3.243   3.626   0.946
  836TIP3   OH2 2448   3.977   2.920   0.647
  836TIP3    H1 2449   3.938   2.898   0.731
  836TIP3    H2 2450   4.032   2.997   0.666
  837TIP3   OH2 2451   2.980   2.938   1.055
  837TIP3    H1 2452   3.038   3.009   1.083
  837TIP3    H2 2453   3.022   2.902   0.977
  838TIP3   OH2 2454   3.034   3.782   1.123
  838TIP3    H1 2455   3.015   3.870   1.090
  838TIP3    H2 2456   2.960   3.762   1.181
  839TIP3   OH2 2457   2.553   3.474   0.433
  839TIP3    H1 2458   2.474   3.513   0.396
  839TIP3    H2 2459   2.584   3.539   0.497
  840TIP3   OH2 2460   3.854   3.987   0.605
  840TIP3    H1 2461   3.769   3.977   0.647
  840TIP3    H2 2462   3.850   4.072   0.562
  841TIP3   OH2 2463   4.173   2.866   0.982
  841TIP3    H1 2464   4.086   2.887   0.949
  841TIP3    H2 2465   4.233   2.896   0.914
  842TIP3   OH2 2466   3.464   2.538   0.991
  842TIP3    H1 2467   3.458   2.445   1.014
  842TIP3    H2 2468   3.388   2.578   1.035
  843TIP3   OH2 2469   3.557   4.014   0.272
  843TIP3    H1 2470   3.608   3.934   0.259
  843TIP3    H2 2471   3.617   4.085   0.248
  844TIP3   OH2 2472   3.706   3.791   0.200
  844TIP3    H1 2473   3.628   3.735   0.202
  844TIP3    H2 2474   3.753   3.769   0.280
  845TIP3   OH2 2475   4.083   3.881   0.954
  845TIP3    H1 2476   4.068   3.805   0.897
  845TIP3    H2 2477   4.068   3.957   0.897
  846TIP3   OH2 2478   3.393   3.305   0.220
  846TIP3    H1 2479   3.302   3.295   0.191
  846TIP3    H2 2480   3.445   3.276   0.146
  847TIP3   OH2 2481   4.273   3.534   0.816
  847TIP3    H1 2482   4.189   3.579   0.818
  847TIP3    H2 2483   4.308   3.551   0.728
  848TIP3   OH2 2484   3.748   3.397   0.197
  848TIP3    H1 2485   3.690   3.421   0.269
  848TIP3    H2 2486   3.826   3.362   0.240
  849TIP3   OH2 2487   3.962   3.399   1.123
  849TIP3    H1 2488   3.960   3.483   1.170
  849TIP3    H2 2489   3.879   3.397   1.075
  850TIP3   OH2 2490   2.987   3.385   0.621
  850TIP3    H1 2491   2.942   3.339   0.550
  850TIP3    H2 2492   3.058   3.326   0.648
  851TIP3   OH2 2493   3.100   3.777   0.729
  851TIP3    H1 2494   3.076   3.756   0.639
  851TIP3    H2 2495   3.185   3.736   0.741
  852TIP3   OH2 2496   3.077   3.346   0.972
  852TIP3    H1 2497   3.114   3.312   0.891
  852TIP3    H2 2498   3.125   3.428   0.987
  853TIP3   OH2 2499   3.621   3.977   0.742
  853TIP3    H1 2500   3.604   4.057   0.792
  853TIP3    H2 2501   3.604   3.906   0.804
  854TIP3   OH2 2502   3.233   3.883   1.287
  854TIP3    H1 2503   3.174   3.942   1.334
  854TIP3    H2 2504   3.176   3.832   1.230
  855TIP3   OH2 2505   3.593   3.234   0.041
  855TIP3    H1 2506   3.647   3.303   0.079
  855TIP3    H2 2507   3.602   3.244  -0.053
  856TIP3   OH2 2508   2.997   3.432   1.427
  856TIP3    H1 2509   3.001   3.525   1.450
  856TIP3    H2 2510   2.903   3.413   1.422
  857TIP3   OH2 2511   3.305   3.897   0.286
  857TIP3    H1 2512   3.385   3.949   0.290
  857TIP3    H2 2513   3.246   3.948   0.230
  858TIP3   OH2 2514   3.025   4.043   1.373
  858TIP3    H1 2515   2.997   4.052   1.281
  858TIP3    H2 2516   2.944   4.025   1.421
  859TIP3   OH2 2517   4.112   2.501   0.073
  859TIP3    H1 2518   4.021   2.477   0.091
  859TIP3    H2 2519   4.106   2.570   0.007
  860TIP3   OH2 2520   2.842   3.295   0.409
  860TIP3    H1 2521   2.841   3.340   0.325
  860TIP3    H2 2522   2.750   3.274   0.426
  861TIP3   OH2 2523   2.626   3.583   1.317
  861TIP3    H1 2524   2.571   3.552   1.245
  861TIP3    H2 2525   2.666   3.504   1.352
  862TIP3   OH2 2526   4.318   4.239   1.018
  862TIP3    H1 2527   4.324   4.144   1.032
  862TIP3    H2 2528   4.239   4.266   1.064
  863TIP3   OH2 2529   3.422   4.022   1.144
  863TIP3    H1 2530   3.417   4.114   1.173
  863TIP3    H2 2531   3.355   3.977   1.195
  864TIP3   OH2 2532   3.192   4.135   0.097
  864TIP3    H1 2533   3.141   4.118   0.018
  864TIP3    H2 2534   3.159   4.218   0.130
  865TIP3   OH2 2535   2.644   3.999   0.494
  865TIP3    H1 2536   2.693   4.007   0.576
  865TIP3    H2 2537   2.606   3.911   0.497
  866TIP3   OH2 2538   6.275   8.053   6.787
  866TIP3    H1 2539   6.332   7.978   6.774
  866TIP3    H2 2540   6.300   8.088   6.873
  867TIP3   OH2 2541   3.449   4.091   0.020
  867TIP3    H1 2542   3.359   4.100   0.053
  867TIP3    H2 2543   3.498   4.058   0.095
  868TIP3   OH2 2544   4.207   3.356   1.291
  868TIP3    H1 2545   4.125   3.368   1.244
  868TIP3    H2 2546   4.225   3.263   1.284
  869TIP3   OH2 2547   2.828   3.771   1.302
  869TIP3    H1 2548   2.874   3.758   1.385
  869TIP3    H2 2549   2.754   3.710   1.307
  870TIP3   OH2 2550   3.224   2.612   1.109
  870TIP3    H1 2551   3.141   2.587   1.068
  870TIP3    H2 2552   3.203   2.689   1.161
  871TIP3   OH2 2553   3.749   2.715   1.304
  871TIP3    H1 2554   3.817   2.691   1.367
  871TIP3    H2 2555   3.667   2.698   1.351
  872TIP3   OH2 2556   3.967   3.136   1.215
  872TIP3    H1 2557   3.925   3.134   1.301
  872TIP3    H2 2558   3.950   3.225   1.183
  873TIP3   OH2 2559   6.502   7.310   6.797
  873TIP3    H1 2560   6.445   7.286   6.724
  873TIP3    H2 2561   6.578   7.352   6.756
  874TIP3   OH2 2562   3.261   2.670  -0.028
  874TIP3    H1 2563   3.313   2.690   0.050
  874TIP3    H2 2564   3.264   2.575  -0.035
  875TIP3   OH2 2565   3.157   3.133   1.129
  875TIP3    H1 2566   3.111   3.146   1.212
  875TIP3    H2 2567   3.137   3.212   1.078
  876TIP3   OH2 2568   3.091   3.017   0.614
  876TIP3    H1 2569   3.002   2.996   0.640
  876TIP3    H2 2570   3.088   3.024   0.518
  877TIP3   OH2 2571   3.507   3.103   0.369
  877TIP3    H1 2572   3.460   3.175   0.326
  877TIP3    H2 2573   3.565   3.069   0.301
  878TIP3   OH2 2574   3.687   3.346   1.433
  878TIP3    H1 2575   3.661   3.278   1.495
  878TIP3    H2 2576   3.779   3.363   1.454
  879TIP3   OH2 2577   3.671   3.097   0.590
  879TIP3    H1 2578   3.606   3.126   0.527
  879TIP3    H2 2579   3.714   3.022   0.549
  880TIP3   OH2 2580   2.979   3.140   1.339
  880TIP3    H1 2581   2.986   3.204   1.410
  880TIP3    H2 2582   2.959   3.057   1.383
  881TIP3   OH2 2583   2.956   2.593   0.019
  881TIP3    H1 2584   2.983   2.654   0.088
  881TIP3    H2 2585   2.916   2.649  -0.047
  882TIP3   OH2 2586   2.663   2.775   0.866
  882TIP3    H1 2587   2.689   2.776   0.958
  882TIP3    H2 2588   2.583   2.722   0.865
  883TIP3   OH2 2589   2.451   2.633   0.425
  883TIP3    H1 2590   2.501   2.564   0.380
  883TIP3    H2 2591   2.516   2.699   0.447
  884TIP3   OH2 2592   3.705   3.346   1.011
  884TIP3    H1 2593   3.733   3.280   0.948
  884TIP3    H2 2594   3.662   3.297   1.081
  885TIP3   OH2 2595   3.405   2.866   0.738
  885TIP3    H1 2596   3.328   2.870   0.794
  885TIP3    H2 2597   3.475   2.836   0.796
  886TIP3   OH2 2598   2.855   2.950   0.732
  886TIP3    H1 2599   2.771   2.979   0.698
  886TIP3    H2 2600   2.850   2.854   0.730
  887TIP3   OH2 2601   3.852   2.885   0.898
  887TIP3    H1 2602   3.828   2.906   0.988
  887TIP3    H2 2603   3.783   2.826   0.868
  888TIP3   OH2 2604   2.870   2.997   0.141
  888TIP3    H1 2605   2.804   2.937   0.177
  888TIP3    H2 2606   2.941   2.940   0.113
  889TIP3   OH2 2607   4.029   4.585   1.115
  889TIP3    H1 2608   4.026   4.604   1.021
  889TIP3    H2 2609   4.107   4.631   1.146
  890TIP3   OH2 2610   2.976   3.690   1.535
  890TIP3    H1 2611   3.056   3.715   1.581
  890TIP3    H2 2612   2.907   3.699   1.600
  891TIP3   OH2 2613   3.450   3.168   0.796
  891TIP3    H1 2614   3.499   3.107   0.740
  891TIP3    H2 2615   3.444   3.123   0.880
  892TIP3   OH2 2616   3.099   2.674   0.674
  892TIP3    H1 2617   3.007   2.685   0.651
  892TIP3    H2 2618   3.143   2.658   0.591
  893TIP3   OH2 2619   3.412   3.059   1.057
  893TIP3    H1 2620   3.325   3.091   1.080
  893TIP3    H2 2621   3.472   3.112   1.109
  894TIP3   OH2 2622   3.130   3.480   0.153
  894TIP3    H1 2623   3.070   3.406   0.140
  894TIP3    H2 2624   3.125   3.497   0.247
  895TIP3   OH2 2625   4.035   3.672   0.778
  895TIP3    H1 2626   4.068   3.721   0.703
  895TIP3    H2 2627   3.954   3.632   0.747
  896TIP3   OH2 2628   3.626   2.788   0.037
  896TIP3    H1 2629   3.564   2.795  -0.036
  896TIP3    H2 2630   3.637   2.877   0.068
  897TIP3   OH2 2631   3.546   3.756   1.181
  897TIP3    H1 2632   3.591   3.748   1.265
  897TIP3    H2 2633   3.504   3.842   1.186
  898TIP3   OH2 2634   3.685   3.017   0.169
  898TIP3    H1 2635   3.780   3.029   0.173
  898TIP3    H2 2636   3.653   3.091   0.118
  899TIP3   OH2 2637   2.852   3.461   0.843
  899TIP3    H1 2638   2.892   3.446   0.757
  899TIP3    H2 2639   2.916   3.427   0.906
  900TIP3   OH2 2640   6.169   7.652   6.997
  900TIP3    H1 2641   6.127   7.738   7.004
  900TIP3    H2 2642   6.117   7.595   7.054
  901TIP3   OH2 2643   2.729   3.369   1.465
  901TIP3    H1 2644   2.741   3.354   1.559
  901TIP3    H2 2645   2.648   3.324   1.443
  902TIP3   OH2 2646   3.452   3.498   1.475
  902TIP3    H1 2647   3.384   3.438   1.444
  902TIP3    H2 2648   3.534   3.459   1.444
  903TIP3   OH2 2649   3.694   4.037   1.066
  903TIP3    H1 2650   3.599   4.025   1.073
  903TIP3    H2 2651   3.719   4.077   1.149
  904TIP3   OH2 2652   6.960   7.146   6.991
  904TIP3    H1 2653   6.905   7.098   6.929
  904TIP3    H2 2654   6.959   7.236   6.960
  905TIP3   OH2 2655   4.330   3.955   1.047
  905TIP3    H1 2656   4.235   3.945   1.042
  905TIP3    H2 2657   4.362   3.925   0.961
  906TIP3   OH2 2658   6.638   7.926   6.949
  906TIP3    H1 2659   6.628   7.895   7.039
  906TIP3    H2 2660   6.585   7.865   6.898
  907TIP3   OH2 2661   3.804   3.540   0.675
  907TIP3    H1 2662   3.714   3.518   0.700
  907TIP3    H2 2663   3.839   3.458   0.640
  908TIP3   OH2 2664   2.943   3.777   0.483
  908TIP3    H1 2665   2.939   3.853   0.425
  908TIP3    H2 2666   2.853   3.763   0.512
  909TIP3   OH2 2667   2.548   3.071   0.183
  909TIP3    H1 2668   2.591   3.156   0.187
  909TIP3    H2 2669   2.454   3.090   0.187
  910TIP3   OH2 2670   3.069   3.543   0.409
  910TIP3    H1 2671   3.033   3.630   0.427
  910TIP3    H2 2672   3.047   3.492   0.487
  911TIP3   OH2 2673   3.232   4.100   0.942
  911TIP3    H1 2674   3.269   4.172   0.892
  911TIP3    H2 2675   3.306   4.065   0.992
  912TIP3   OH2 2676   2.864   4.005   0.329
  912TIP3    H1 2677   2.781   4.010   0.377
  912TIP3    H2 2678   2.899   4.094   0.334
  913TIP3   OH2 2679   3.591   3.754   0.909
  913TIP3    H1 2680   3.578   3.750   1.004
  913TIP3    H2 2681   3.666   3.697   0.893
  914TIP3   OH2 2682   6.452   7.727   6.828
  914TIP3    H1 2683   6.509   7.674   6.884
  914TIP3    H2 2684   6.364   7.691   6.842
  915TIP3   OH2 2685   3.844   4.260   0.952
  915TIP3    H1 2686   3.772   4.198   0.965
  915TIP3    H2 2687   3.815   4.316   0.880
  916TIP3   OH2 2688   2.933   2.886   1.468
  916TIP3    H1 2689   2.839   2.903   1.478
  916TIP3    H2 2690   2.953   2.825   1.540
  917TIP3   OH2 2691   6.632   7.599   6.987
  917TIP3    H1 2692   6.610   7.555   7.070
  917TIP3    H2 2693   6.726   7.614   6.992
  918TIP3   OH2 2694   2.664   3.968   1.100
  918TIP3    H1 2695   2.669   3.874   1.083
  918TIP3    H2 2696   2.724   3.981   1.174
  919TIP3   OH2 2697   5.831   7.677   6.834
  919TIP3    H1 2698   5.778   7.612   6.787
  919TIP3    H2 2699   5.808   7.665   6.926
  920TIP3   OH2 2700   2.897   3.627   0.085
  920TIP3    H1 2701   2.979   3.593   0.121
  920TIP3    H2 2702   2.906   3.722   0.092
  921TIP3   OH2 2703   2.637   3.342   0.203
  921TIP3    H1 2704   2.611   3.389   0.282
  921TIP3    H2 2705   2.639   3.408   0.134
  922TIP3   OH2 2706   3.775   2.946   1.155
  922TIP3    H1 2707   3.852   2.991   1.189
  922TIP3    H2 2708   3.766   2.869   1.211
  923TIP3   OH2 2709   3.634   2.730   0.305
  923TIP3    H1 2710   3.642   2.749   0.212
  923TIP3    H2 2711   3.684   2.799   0.349
  924TIP3   OH2 2712   6.033   7.886   7.022
  924TIP3    H1 2713   5.947   7.900   7.061
  924TIP3    H2 2714   6.043   7.959   6.960
  925TIP3   OH2 2715   3.347   2.897   0.454
  925TIP3    H1 2716   3.395   2.975   0.427
  925TIP3    H2 2717   3.331   2.909   0.547
  926TIP3   OH2 2718   3.612   3.181   1.210
  926TIP3    H1 2719   3.637   3.226   1.291
  926TIP3    H2 2720   3.663   3.100   1.211
  927TIP3   OH2 2721   3.514   2.683   0.559
  927TIP3    H1 2722   3.483   2.761   0.603
  927TIP3    H2 2723   3.543   2.713   0.473
  928TIP3   OH2 2724   2.912   3.900   0.081
  928TIP3    H1 2725   2.877   3.962   0.016
  928TIP3    H2 2726   2.892   3.940   0.165
  929TIP3   OH2 2727   3.016   2.566   0.304
  929TIP3    H1 2728   2.968   2.647   0.322
  929TIP3    H2 2729   3.099   2.576   0.351
  930TIP3   OH2 2730   4.232   3.086   1.199
  930TIP3    H1 2731   4.137   3.091   1.210
  930TIP3    H2 2732   4.244   3.036   1.118
  931TIP3   OH2 2733   3.894   3.281   0.589
  931TIP3    H1 2734   3.815   3.227   0.601
  931TIP3    H2 2735   3.960   3.239   0.644
  932TIP3   OH2 2736   2.646   3.560   0.009
  932TIP3    H1 2737   2.727   3.591   0.049
  932TIP3    H2 2738   2.672   3.486  -0.046
  933TIP3   OH2 2739   2.665   2.826   0.195
  933TIP3    H1 2740   2.625   2.913   0.205
  933TIP3    H2 2741   2.624   2.790   0.116
  934TIP3   OH2 2742   3.872   4.255   0.527
  934TIP3    H1 2743   3.829   4.306   0.458
  934TIP3    H2 2744   3.965   4.268   0.511
  935TIP3   OH2 2745   2.953   2.567   1.059
  935TIP3    H1 2746   2.929   2.549   0.968
  935TIP3    H2 2747   2.940   2.484   1.105
  936TIP3   OH2 2748   2.534   3.749   0.524
  936TIP3    H1 2749   2.487   3.781   0.601
  936TIP3    H2 2750   2.478   3.772   0.450
  937TIP3   OH2 2751   2.654   4.294   1.523
  937TIP3    H1 2752   2.737   4.297   1.572
  937TIP3    H2 2753   2.635   4.200   1.515
  938TIP3   OH2 2754   3.123   4.216   1.564
  938TIP3    H1 2755   3.216   4.195   1.575
  938TIP3    H2 2756   3.094   4.158   1.494
  939TIP3   OH2 2757   5.965   7.862   6.689
  939TIP3    H1 2758   5.910   7.804   6.742
  939TIP3    H2 2759   6.050   7.817   6.686
  940TIP3   OH2 2760   3.752   4.146   1.311
  940TIP3    H1 2761   3.759   4.077   1.377
  940TIP3    H2 2762   3.827   4.204   1.329
  941TIP3   OH2 2763   2.767   3.685   1.718
  941TIP3    H1 2764   2.783   3.591   1.727
  941TIP3    H2 2765   2.683   3.690   1.672
  942TIP3   OH2 2766   5.640   7.400   6.923
  942TIP3    H1 2767   5.702   7.384   6.995
  942TIP3    H2 2768   5.653   7.326   6.863
  943TIP3   OH2 2769   3.385   3.775   1.491
  943TIP3    H1 2770   3.340   3.797   1.409
  943TIP3    H2 2771   3.418   3.687   1.477
  944TIP3   OH2 2772   6.147   7.574   6.729
  944TIP3    H1 2773   6.146   7.605   6.819
  944TIP3    H2 2774   6.138   7.479   6.736
  945TIP3   OH2 2775   3.862   3.810   1.105
  945TIP3    H1 2776   3.939   3.842   1.058
  945TIP3    H2 2777   3.795   3.877   1.089
  946TIP3   OH2 2778   2.886   3.426   1.717
  946TIP3    H1 2779   2.964   3.417   1.662
  946TIP3    H2 2780   2.920   3.452   1.803
  947TIP3   OH2 2781   2.946   3.274   0.106
  947TIP3    H1 2782   2.890   3.204   0.139
  947TIP3    H2 2783   3.027   3.230   0.081
  948TIP3   OH2 2784   3.248   3.319   1.377
  948TIP3    H1 2785   3.163   3.362   1.387
  948TIP3    H2 2786   3.280   3.348   1.292
  949TIP3   OH2 2787   3.742   3.697   1.473
  949TIP3    H1 2788   3.811   3.658   1.419
  949TIP3    H2 2789   3.737   3.641   1.551
  950TIP3   OH2 2790   6.715   7.450   6.686
  950TIP3    H1 2791   6.736   7.457   6.593
  950TIP3    H2 2792   6.686   7.537   6.711
  951TIP3   OH2 2793   3.351   3.090   1.486
  951TIP3    H1 2794   3.356   3.018   1.422
  951TIP3    H2 2795   3.316   3.164   1.436
  952TIP3   OH2 2796   3.365   2.888   1.286
  952TIP3    H1 2797   3.389   2.927   1.202
  952TIP3    H2 2798   3.272   2.867   1.277
  953TIP3   OH2 2799   3.367   3.418   1.156
  953TIP3    H1 2800   3.456   3.445   1.136
  953TIP3    H2 2801   3.312   3.483   1.110
  954TIP3   OH2 2802   3.955   3.380   1.533
  954TIP3    H1 2803   4.000   3.296   1.540
  954TIP3    H2 2804   4.024   3.444   1.517
  955TIP3   OH2 2805   3.989   3.638   1.272
  955TIP3    H1 2806   3.934   3.698   1.222
  955TIP3    H2 2807   4.078   3.655   1.240
  956TIP3   OH2 2808   3.231   3.181   1.724
  956TIP3    H1 2809   3.163   3.116   1.744
  956TIP3    H2 2810   3.260   3.158   1.636
  957TIP3   OH2 2811   3.486   2.654   1.380
  957TIP3    H1 2812   3.444   2.734   1.348
  957TIP3    H2 2813   3.421   2.585   1.365
  958TIP3   OH2 2814   3.607   3.132   1.585
  958TIP3    H1 2815   3.596   3.122   1.680
  958TIP3    H2 2816   3.521   3.112   1.549
  959TIP3   OH2 2817   3.850   3.087   1.452
  959TIP3    H1 2818   3.771   3.088   1.507
  959TIP3    H2 2819   3.921   3.062   1.512
  960TIP3   OH2 2820   4.086   3.048   1.601
  960TIP3    H1 2821   4.099   2.953   1.610
  960TIP3    H2 2822   4.080   3.079   1.691
  961TIP3   OH2 2823   3.072   2.960   1.791
  961TIP3    H1 2824   3.073   2.872   1.754
  961TIP3    H2 2825   3.110   2.950   1.878
  962TIP3   OH2 2826   3.548   2.636   1.646
  962TIP3    H1 2827   3.618   2.571   1.640
  962TIP3    H2 2828   3.518   2.647   1.556
  963TIP3   OH2 2829   3.638   2.854   1.790
  963TIP3    H1 2830   3.608   2.783   1.733
  963TIP3    H2 2831   3.565   2.917   1.789
  964TIP3   OH2 2832   0.006   0.037   6.899
  964TIP3    H1 2833   0.099   0.033   6.875
  964TIP3    H2 2834  -0.040   0.038   6.816
  965TIP3   OH2 2835   2.362   3.559   0.014
  965TIP3    H1 2836   2.456   3.578   0.008
  965TIP3    H2 2837   2.358   3.467   0.039
  966TIP3   OH2 2838   2.280   4.084   0.544
  966TIP3    H1 2839   2.222   4.021   0.501
  966TIP3    H2 2840   2.326   4.034   0.611
  967TIP3   OH2 2841   2.413   3.916   0.713
  967TIP3    H1 2842   2.348   3.860   0.756
  967TIP3    H2 2843   2.455   3.963   0.784
  968TIP3   OH2 2844   4.144   4.307   0.515
  968TIP3    H1 2845   4.158   4.331   0.606
  968TIP3    H2 2846   4.196   4.370   0.465
  969TIP3   OH2 2847   4.160   4.339   0.794
  969TIP3    H1 2848   4.111   4.256   0.792
  969TIP3    H2 2849   4.230   4.323   0.857
  970TIP3   OH2 2850   4.207   4.036   1.364
  970TIP3    H1 2851   4.135   4.044   1.427
  970TIP3    H2 2852   4.252   4.120   1.368
  971TIP3   OH2 2853   4.040   3.553  -0.014
  971TIP3    H1 2854   4.104   3.619  -0.041
  971TIP3    H2 2855   4.078   3.512   0.063
  972TIP3   OH2 2856   4.161   3.409   0.185
  972TIP3    H1 2857   4.094   3.370   0.242
  972TIP3    H2 2858   4.226   3.446   0.246
  973TIP3   OH2 2859   4.207   3.812   0.609
  973TIP3    H1 2860   4.261   3.744   0.568
  973TIP3    H2 2861   4.207   3.883   0.545
  974TIP3   OH2 2862   4.018   4.101   0.801
  974TIP3    H1 2863   3.950   4.143   0.853
  974TIP3    H2 2864   3.970   4.059   0.730
  975TIP3   OH2 2865   6.930   7.383   6.853
  975TIP3    H1 2866   6.852   7.385   6.797
  975TIP3    H2 2867   6.920   7.459   6.910
  976TIP3   OH2 2868   6.808   7.043   6.791
  976TIP3    H1 2869   6.737   7.083   6.740
  976TIP3    H2 2870   6.803   6.950   6.769
  977TIP3   OH2 2871   3.964   3.272   0.323
  977TIP3    H1 2872   3.967   3.178   0.306
  977TIP3    H2 2873   3.943   3.279   0.416
  978TIP3   OH2 2874   2.596   3.327   1.124
  978TIP3    H1 2875   2.581   3.329   1.029
  978TIP3    H2 2876   2.691   3.328   1.133
  979TIP3   OH2 2877   4.245   3.691   1.178
  979TIP3    H1 2878   4.311   3.624   1.161
  979TIP3    H2 2879   4.265   3.760   1.114
  980TIP3   OH2 2880   4.420   3.479   1.171
  980TIP3    H1 2881   4.346   3.438   1.216
  980TIP3    H2 2882   4.495   3.423   1.191
  981TIP3   OH2 2883   6.806   6.765   6.770
  981TIP3    H1 2884   6.892   6.751   6.809
  981TIP3    H2 2885   6.745   6.727   6.833
  982TIP3   OH2 2886   3.967   3.006   0.212
  982TIP3    H1 2887   4.014   2.925   0.231
  982TIP3    H2 2888   4.009   3.041   0.133
  983TIP3   OH2 2889   4.108   3.155   0.723
  983TIP3    H1 2890   4.190   3.174   0.676
  983TIP3    H2 2891   4.120   3.194   0.809
  984TIP3   OH2 2892   4.183   3.307   0.949
  984TIP3    H1 2893   4.109   3.337   1.003
  984TIP3    H2 2894   4.214   3.387   0.906
  985TIP3   OH2 2895   2.813   3.040   1.759
  985TIP3    H1 2896   2.907   3.028   1.765
  985TIP3    H2 2897   2.776   2.959   1.794
  986TIP3   OH2 2898   4.642   2.908   1.493
  986TIP3    H1 2899   4.704   2.848   1.451
  986TIP3    H2 2900   4.605   2.959   1.421
  987TIP3   OH2 2901   4.086   2.763   0.270
  987TIP3    H1 2902   4.141   2.754   0.348
  987TIP3    H2 2903   4.012   2.704   0.287
  988TIP3   OH2 2904   2.773   2.764   1.121
  988TIP3    H1 2905   2.830   2.688   1.108
  988TIP3    H2 2906   2.829   2.839   1.106
  989TIP3   OH2 2907   2.596   3.056   1.199
  989TIP3    H1 2908   2.637   3.026   1.117
  989TIP3    H2 2909   2.582   3.150   1.186
  990TIP3   OH2 2910   4.495   3.028   1.299
  990TIP3    H1 2911   4.416   3.070   1.335
  990TIP3    H2 2912   4.461   2.959   1.242
  991TIP3   OH2 2913   7.050   6.721   6.880
  991TIP3    H1 2914   7.118   6.670   6.836
  991TIP3    H2 2915   7.093   6.804   6.901
  992TIP3   OH2 2916   2.555   2.556   0.680
  992TIP3    H1 2917   2.487   2.506   0.725
  992TIP3    H2 2918   2.507   2.606   0.613
  993TIP3   OH2 2919   3.714   4.207   0.172
  993TIP3    H1 2920   3.764   4.199   0.091
  993TIP3    H2 2921   3.748   4.287   0.214
  994TIP3   OH2 2922   2.811   2.534   1.507
  994TIP3    H1 2923   2.757   2.532   1.586
  994TIP3    H2 2924   2.764   2.592   1.448
  995TIP3   OH2 2925   2.803   4.009   1.540
  995TIP3    H1 2926   2.709   3.993   1.530
  995TIP3    H2 2927   2.818   4.005   1.634
  996TIP3   OH2 2928   3.001   4.056   1.089
  996TIP3    H1 2929   2.947   4.128   1.056
  996TIP3    H2 2930   3.086   4.068   1.046
  997TIP3   OH2 2931   3.413   4.289   1.222
  997TIP3    H1 2932   3.450   4.282   1.310
  997TIP3    H2 2933   3.477   4.343   1.174
  998TIP3   OH2 2934   3.603   4.445   1.094
  998TIP3    H1 2935   3.668   4.391   1.050
  998TIP3    H2 2936   3.655   4.503   1.151
  999TIP3   OH2 2937   4.401   2.785   1.183
  999TIP3    H1 2938   4.314   2.783   1.143
  999TIP3    H2 2939   4.432   2.695   1.177
 1000TIP3   OH2 2940   2.675   4.351   1.114
 1000TIP3    H1 2941   2.581   4.361   1.101
 1000TIP3    H2 2942   2.693   4.399   1.195
 1001TIP3   OH2 2943   2.900   4.287   0.976
 1001TIP3    H1 2944   2.820   4.305   1.025
 1001TIP3    H2 2945   2.879   4.311   0.886
 1002TIP3   OH2 2946   3.316   4.305   0.772
 1002TIP3    H1 2947   3.244   4.317   0.711
 1002TIP3    H2 2948   3.327   4.391   0.814
 1003TIP3   OH2 2949   3.581   4.241   0.823
 1003TIP3    H1 2950   3.489   4.261   0.804
 1003TIP3    H2 2951   3.630   4.311   0.778
 1004TIP3   OH2 2952   3.783   4.420   0.730
 1004TIP3    H1 2953   3.776   4.507   0.691
 1004TIP3    H2 2954   3.813   4.364   0.659
 1005TIP3   OH2 2955   2.577   4.088   0.870
 1005TIP3    H1 2956   2.603   4.062   0.959
 1005TIP3    H2 2957   2.647   4.055   0.814
 1006TIP3   OH2 2958   2.784   3.984   0.726
 1006TIP3    H1 2959   2.792   3.898   0.768
 1006TIP3    H2 2960   2.873   4.020   0.729
 1007TIP3   OH2 2961   3.054   4.055   0.732
 1007TIP3    H1 2962   3.072   3.962   0.716
 1007TIP3    H2 2963   3.105   4.076   0.810
 1008TIP3   OH2 2964   3.628   2.724   0.841
 1008TIP3    H1 2965   3.589   2.651   0.889
 1008TIP3    H2 2966   3.680   2.682   0.773
 1009TIP3   OH2 2967   4.112   2.621   0.714
 1009TIP3    H1 2968   4.156   2.669   0.644
 1009TIP3    H2 2969   4.020   2.649   0.709
 1010TIP3   OH2 2970   4.246   2.699   0.490
 1010TIP3    H1 2971   4.313   2.638   0.457
 1010TIP3    H2 2972   4.282   2.786   0.472
 1011TIP3   OH2 2973   2.855   2.453   0.827
 1011TIP3    H1 2974   2.769   2.411   0.826
 1011TIP3    H2 2975   2.913   2.387   0.789
 1012TIP3   OH2 2976   3.357   2.529   0.733
 1012TIP3    H1 2977   3.395   2.597   0.677
 1012TIP3    H2 2978   3.380   2.557   0.822
 1013TIP3   OH2 2979   3.828   2.615   0.675
 1013TIP3    H1 2980   3.842   2.584   0.585
 1013TIP3    H2 2981   3.820   2.535   0.727
 1014TIP3   OH2 2982   3.882   2.601   0.360
 1014TIP3    H1 2983   3.789   2.627   0.362
 1014TIP3    H2 2984   3.886   2.531   0.295
 1015TIP3   OH2 2985   2.397   3.869   0.314
 1015TIP3    H1 2986   2.302   3.876   0.323
 1015TIP3    H2 2987   2.430   3.958   0.326
 1016TIP3   OH2 2988   2.795   2.364   0.292
 1016TIP3    H1 2989   2.876   2.372   0.242
 1016TIP3    H2 2990   2.775   2.453   0.321
 1017TIP3   OH2 2991   3.239   2.624   0.447
 1017TIP3    H1 2992   3.304   2.553   0.451
 1017TIP3    H2 2993   3.290   2.703   0.435
 1018TIP3   OH2 2994   6.005   8.096   6.837
 1018TIP3    H1 2995   6.096   8.114   6.812
 1018TIP3    H2 2996   5.977   8.026   6.778
 1019TIP3   OH2 2997   0.974   0.089   6.950
 1019TIP3    H1 2998   0.961  -0.006   6.951
 1019TIP3    H2 2999   0.911   0.121   6.885
 1020TIP3   OH2 3000   3.077   2.690   1.715
 1020TIP3    H1 3001   3.039   2.620   1.768
 1020TIP3    H2 3002   3.168   2.694   1.743
 1021TIP3   OH2 3003   3.329   2.688   1.824
 1021TIP3    H1 3004   3.406   2.670   1.770
 1021TIP3    H2 3005   3.326   2.617   1.888
 1022TIP3   OH2 3006   5.482   7.875   6.920
 1022TIP3    H1 3007   5.414   7.915   6.973
 1022TIP3    H2 3008   5.497   7.790   6.961
 1023TIP3   OH2 3009   4.149   2.776   1.615
 1023TIP3    H1 3010   4.165   2.747   1.704
 1023TIP3    H2 3011   4.234   2.771   1.572
 1024TIP3   OH2 3012   4.069   4.311   1.113
 1024TIP3    H1 3013   3.992   4.281   1.064
 1024TIP3    H2 3014   4.055   4.405   1.125
 1025TIP3   OH2 3015   5.334   3.676   0.274
 1025TIP3    H1 3016   5.379   3.669   0.358
 1025TIP3    H2 3017   5.285   3.594   0.265
 1026TIP3   OH2 3018   4.638   3.569   0.639
 1026TIP3    H1 3019   4.670   3.500   0.698
 1026TIP3    H2 3020   4.710   3.631   0.633
 1027TIP3   OH2 3021   4.631   3.970   0.318
 1027TIP3    H1 3022   4.612   3.877   0.330
 1027TIP3    H2 3023   4.727   3.975   0.315
 1028TIP3   OH2 3024   4.323   3.194   0.104
 1028TIP3    H1 3025   4.280   3.275   0.132
 1028TIP3    H2 3026   4.252   3.141   0.068
 1029TIP3   OH2 3027   4.394   3.491   0.317
 1029TIP3    H1 3028   4.442   3.414   0.345
 1029TIP3    H2 3029   4.462   3.554   0.292
 1030TIP3   OH2 3030   5.155   3.906   0.308
 1030TIP3    H1 3031   5.188   3.829   0.261
 1030TIP3    H2 3032   5.233   3.943   0.350
 1031TIP3   OH2 3033   6.149   3.231   0.316
 1031TIP3    H1 3034   6.173   3.308   0.367
 1031TIP3    H2 3035   6.193   3.242   0.232
 1032TIP3   OH2 3036   5.574   3.390   0.350
 1032TIP3    H1 3037   5.592   3.300   0.374
 1032TIP3    H2 3038   5.532   3.384   0.264
 1033TIP3   OH2 3039   4.905   3.058   0.288
 1033TIP3    H1 3040   4.880   3.131   0.232
 1033TIP3    H2 3041   4.853   2.984   0.256
 1034TIP3   OH2 3042   8.460   7.238   6.982
 1034TIP3    H1 3043   8.533   7.217   7.040
 1034TIP3    H2 3044   8.489   7.209   6.895
 1035TIP3   OH2 3045   4.531   3.273   0.414
 1035TIP3    H1 3046   4.614   3.257   0.459
 1035TIP3    H2 3047   4.536   3.219   0.335
 1036TIP3   OH2 3048   4.964   3.470   0.208
 1036TIP3    H1 3049   5.056   3.449   0.224
 1036TIP3    H2 3050   4.924   3.387   0.182
 1037TIP3   OH2 3051   6.221   3.443   0.481
 1037TIP3    H1 3052   6.144   3.499   0.468
 1037TIP3    H2 3053   6.269   3.485   0.552
 1038TIP3   OH2 3054   4.890   3.063   0.738
 1038TIP3    H1 3055   4.838   3.099   0.666
 1038TIP3    H2 3056   4.836   3.078   0.815
 1039TIP3   OH2 3057   4.989   3.832   0.514
 1039TIP3    H1 3058   4.932   3.901   0.548
 1039TIP3    H2 3059   5.039   3.874   0.445
 1040TIP3   OH2 3060   5.820   3.147   0.124
 1040TIP3    H1 3061   5.896   3.108   0.082
 1040TIP3    H2 3062   5.848   3.235   0.148
 1041TIP3   OH2 3063   4.777   3.170   0.508
 1041TIP3    H1 3064   4.832   3.245   0.530
 1041TIP3    H2 3065   4.824   3.126   0.438
 1042TIP3   OH2 3066   4.822   4.025   0.615
 1042TIP3    H1 3067   4.807   4.115   0.587
 1042TIP3    H2 3068   4.746   4.004   0.669
 1043TIP3   OH2 3069   7.067   7.789   6.870
 1043TIP3    H1 3070   6.987   7.814   6.825
 1043TIP3    H2 3071   7.100   7.871   6.907
 1044TIP3   OH2 3072   5.624   4.166   0.111
 1044TIP3    H1 3073   5.545   4.128   0.150
 1044TIP3    H2 3074   5.592   4.234   0.052
 1045TIP3   OH2 3075   5.897   3.132   0.405
 1045TIP3    H1 3076   5.872   3.199   0.468
 1045TIP3    H2 3077   5.982   3.160   0.372
 1046TIP3   OH2 3078   5.220   2.760   0.448
 1046TIP3    H1 3079   5.226   2.671   0.483
 1046TIP3    H2 3080   5.149   2.800   0.498
 1047TIP3   OH2 3081   5.902   4.075   0.469
 1047TIP3    H1 3082   5.891   4.013   0.397
 1047TIP3    H2 3083   5.856   4.154   0.439
 1048TIP3   OH2 3084   6.060   3.769   0.300
 1048TIP3    H1 3085   5.987   3.829   0.283
 1048TIP3    H2 3086   6.074   3.725   0.217
 1049TIP3   OH2 3087   5.744   3.649   0.598
 1049TIP3    H1 3088   5.746   3.724   0.657
 1049TIP3    H2 3089   5.659   3.655   0.554
 1050TIP3   OH2 3090   4.754   3.610   0.089
 1050TIP3    H1 3091   4.705   3.549   0.035
 1050TIP3    H2 3092   4.829   3.559   0.120
 1051TIP3   OH2 3093   4.907   4.001   0.227
 1051TIP3    H1 3094   4.899   3.947   0.148
 1051TIP3    H2 3095   4.995   3.983   0.259
 1052TIP3   OH2 3096   4.873   3.596   0.440
 1052TIP3    H1 3097   4.911   3.568   0.357
 1052TIP3    H2 3098   4.919   3.678   0.461
 1053TIP3   OH2 3099   5.377   4.150   0.218
 1053TIP3    H1 3100   5.363   4.243   0.236
 1053TIP3    H2 3101   5.368   4.107   0.303
 1054TIP3   OH2 3102   5.030   4.128   0.770
 1054TIP3    H1 3103   4.979   4.187   0.825
 1054TIP3    H2 3104   4.964   4.077   0.722
 1055TIP3   OH2 3105   4.784   3.694   0.891
 1055TIP3    H1 3106   4.790   3.785   0.922
 1055TIP3    H2 3107   4.691   3.673   0.898
 1056TIP3   OH2 3108   4.827   4.296   0.867
 1056TIP3    H1 3109   4.798   4.300   0.776
 1056TIP3    H2 3110   4.746   4.284   0.917
 1057TIP3   OH2 3111   7.462   7.495   6.958
 1057TIP3    H1 3112   7.399   7.540   6.901
 1057TIP3    H2 3113   7.418   7.413   6.981
 1058TIP3   OH2 3114   4.405   3.848   0.808
 1058TIP3    H1 3115   4.336   3.830   0.744
 1058TIP3    H2 3116   4.439   3.761   0.831
 1059TIP3   OH2 3117   4.254   4.047   0.449
 1059TIP3    H1 3118   4.346   4.062   0.471
 1059TIP3    H2 3119   4.208   4.123   0.485
 1060TIP3   OH2 3120   6.141   4.567   0.419
 1060TIP3    H1 3121   6.173   4.491   0.370
 1060TIP3    H2 3122   6.121   4.533   0.506
 1061TIP3   OH2 3123   5.210   4.274   0.630
 1061TIP3    H1 3124   5.216   4.352   0.685
 1061TIP3    H2 3125   5.154   4.214   0.680
 1062TIP3   OH2 3126   4.393   4.224  -0.013
 1062TIP3    H1 3127   4.471   4.226   0.043
 1062TIP3    H2 3128   4.321   4.209   0.048
 1063TIP3   OH2 3129   6.005   3.618   0.806
 1063TIP3    H1 3130   5.918   3.630   0.768
 1063TIP3    H2 3131   6.018   3.523   0.807
 1064TIP3   OH2 3132   4.604   4.034   0.781
 1064TIP3    H1 3133   4.654   4.025   0.863
 1064TIP3    H2 3134   4.532   3.971   0.790
 1065TIP3   OH2 3135   4.995   2.851   0.591
 1065TIP3    H1 3136   4.911   2.818   0.559
 1065TIP3    H2 3137   4.973   2.930   0.640
 1066TIP3   OH2 3138   5.545   2.958   0.785
 1066TIP3    H1 3139   5.614   2.930   0.845
 1066TIP3    H2 3140   5.463   2.939   0.831
 1067TIP3   OH2 3141   5.770   3.389   0.688
 1067TIP3    H1 3142   5.726   3.382   0.773
 1067TIP3    H2 3143   5.746   3.475   0.656
 1068TIP3   OH2 3144   4.935   3.378   0.594
 1068TIP3    H1 3145   4.889   3.388   0.678
 1068TIP3    H2 3146   4.913   3.457   0.545
 1069TIP3   OH2 3147   4.816   3.253   0.121
 1069TIP3    H1 3148   4.726   3.233   0.149
 1069TIP3    H2 3149   4.820   3.220   0.031
 1070TIP3   OH2 3150   5.488   3.596   0.910
 1070TIP3    H1 3151   5.469   3.529   0.977
 1070TIP3    H2 3152   5.575   3.627   0.933
 1071TIP3   OH2 3153   5.462   3.378   0.100
 1071TIP3    H1 3154   5.423   3.437   0.036
 1071TIP3    H2 3155   5.499   3.306   0.047
 1072TIP3   OH2 3156   4.766   3.389   0.813
 1072TIP3    H1 3157   4.790   3.451   0.881
 1072TIP3    H2 3158   4.748   3.307   0.860
 1073TIP3   OH2 3159   4.360   2.920   0.389
 1073TIP3    H1 3160   4.433   2.953   0.441
 1073TIP3    H2 3161   4.399   2.890   0.307
 1074TIP3   OH2 3162   7.165   6.964   6.939
 1074TIP3    H1 3163   7.210   6.999   6.862
 1074TIP3    H2 3164   7.097   7.028   6.959
 1075TIP3   OH2 3165   5.484   3.601   0.496
 1075TIP3    H1 3166   5.522   3.532   0.443
 1075TIP3    H2 3167   5.444   3.556   0.570
 1076TIP3   OH2 3168   5.162   3.063   0.174
 1076TIP3    H1 3169   5.081   3.060   0.226
 1076TIP3    H2 3170   5.232   3.050   0.238
 1077TIP3   OH2 3171   4.578   3.131   0.183
 1077TIP3    H1 3172   4.489   3.137   0.148
 1077TIP3    H2 3173   4.605   3.041   0.163
 1078TIP3   OH2 3174   7.707   7.194   6.890
 1078TIP3    H1 3175   7.802   7.191   6.895
 1078TIP3    H2 3176   7.688   7.253   6.817
 1079TIP3   OH2 3177   5.607   3.103   0.369
 1079TIP3    H1 3178   5.601   3.124   0.463
 1079TIP3    H2 3179   5.521   3.065   0.348
 1080TIP3   OH2 3180   5.932   4.813   0.500
 1080TIP3    H1 3181   5.877   4.851   0.432
 1080TIP3    H2 3182   5.924   4.873   0.574
 1081TIP3   OH2 3183   4.767   3.950   1.011
 1081TIP3    H1 3184   4.848   3.974   1.057
 1081TIP3    H2 3185   4.699   3.956   1.078
 1082TIP3   OH2 3186   5.228   3.411   0.276
 1082TIP3    H1 3187   5.306   3.371   0.237
 1082TIP3    H2 3188   5.224   3.374   0.365
 1083TIP3   OH2 3189   4.727   2.886   0.154
 1083TIP3    H1 3190   4.700   2.810   0.205
 1083TIP3    H2 3191   4.747   2.852   0.067
 1084TIP3   OH2 3192   5.204   3.322   0.542
 1084TIP3    H1 3193   5.116   3.353   0.565
 1084TIP3    H2 3194   5.263   3.373   0.598
 1085TIP3   OH2 3195   5.839   3.927   0.244
 1085TIP3    H1 3196   5.825   3.981   0.166
 1085TIP3    H2 3197   5.757   3.878   0.254
 1086TIP3   OH2 3198   5.344   3.969   0.711
 1086TIP3    H1 3199   5.404   3.940   0.780
 1086TIP3    H2 3200   5.312   4.054   0.742
 1087TIP3   OH2 3201   4.625   3.683   0.322
 1087TIP3    H1 3202   4.666   3.669   0.237
 1087TIP3    H2 3203   4.688   3.648   0.386
 1088TIP3   OH2 3204   4.516   3.624   0.942
 1088TIP3    H1 3205   4.526   3.607   1.036
 1088TIP3    H2 3206   4.443   3.569   0.915
 1089TIP3   OH2 3207   5.248   3.728   0.961
 1089TIP3    H1 3208   5.184   3.666   0.925
 1089TIP3    H2 3209   5.332   3.696   0.929
 1090TIP3   OH2 3210   5.486   4.222   0.593
 1090TIP3    H1 3211   5.390   4.223   0.584
 1090TIP3    H2 3212   5.501   4.252   0.683
 1091TIP3   OH2 3213   6.142   4.168   0.587
 1091TIP3    H1 3214   6.049   4.151   0.593
 1091TIP3    H2 3215   6.155   4.202   0.499
 1092TIP3   OH2 3216   5.603   3.786   0.230
 1092TIP3    H1 3217   5.509   3.770   0.235
 1092TIP3    H2 3218   5.638   3.711   0.181
 1093TIP3   OH2 3219   1.836  -0.021   6.962
 1093TIP3    H1 3220   1.861   0.068   6.938
 1093TIP3    H2 3221   1.760  -0.010   7.020
 1094TIP3   OH2 3222   7.173   7.363   6.721
 1094TIP3    H1 3223   7.212   7.449   6.739
 1094TIP3    H2 3224   7.087   7.367   6.764
 1095TIP3   OH2 3225   4.886   3.840   0.007
 1095TIP3    H1 3226   4.820   3.896  -0.034
 1095TIP3    H2 3227   4.839   3.759   0.028
 1096TIP3   OH2 3228   5.012   4.315   0.431
 1096TIP3    H1 3229   5.059   4.361   0.361
 1096TIP3    H2 3230   5.079   4.295   0.496
 1097TIP3   OH2 3231   5.388   3.973   0.438
 1097TIP3    H1 3232   5.371   3.973   0.532
 1097TIP3    H2 3233   5.477   3.940   0.429
 1098TIP3   OH2 3234   5.552   4.460   0.410
 1098TIP3    H1 3235   5.457   4.469   0.409
 1098TIP3    H2 3236   5.585   4.550   0.415
 1099TIP3   OH2 3237   4.719   3.139   0.944
 1099TIP3    H1 3238   4.624   3.147   0.951
 1099TIP3    H2 3239   4.745   3.090   1.023
 1100TIP3   OH2 3240   4.461   4.230   0.591
 1100TIP3    H1 3241   4.512   4.168   0.643
 1100TIP3    H2 3242   4.470   4.313   0.638
 1101TIP3   OH2 3243   7.270   7.617   6.792
 1101TIP3    H1 3244   7.198   7.668   6.830
 1101TIP3    H2 3245   7.311   7.677   6.730
 1102TIP3   OH2 3246   5.589   3.178   0.627
 1102TIP3    H1 3247   5.653   3.233   0.671
 1102TIP3    H2 3248   5.572   3.107   0.688
 1103TIP3   OH2 3249   7.980   7.191   6.934
 1103TIP3    H1 3250   8.047   7.257   6.915
 1103TIP3    H2 3251   7.992   7.172   7.028
 1104TIP3   OH2 3252   5.406   3.433   0.701
 1104TIP3    H1 3253   5.429   3.490   0.775
 1104TIP3    H2 3254   5.456   3.353   0.716
 1105TIP3   OH2 3255   5.267   2.853   0.023
 1105TIP3    H1 3256   5.233   2.928   0.072
 1105TIP3    H2 3257   5.357   2.879   0.001
 1106TIP3   OH2 3258   7.649   6.917   6.849
 1106TIP3    H1 3259   7.640   7.012   6.861
 1106TIP3    H2 3260   7.744   6.903   6.841
 1107TIP3   OH2 3261   6.038   3.354   0.700
 1107TIP3    H1 3262   5.942   3.353   0.697
 1107TIP3    H2 3263   6.065   3.371   0.610
 1108TIP3   OH2 3264   5.693   3.556   0.105
 1108TIP3    H1 3265   5.622   3.492   0.114
 1108TIP3    H2 3266   5.771   3.508   0.132
 1109TIP3   OH2 3267   7.228   7.096   6.707
 1109TIP3    H1 3268   7.222   7.191   6.713
 1109TIP3    H2 3269   7.176   7.073   6.631
 1110TIP3   OH2 3270   4.737   2.762   0.546
 1110TIP3    H1 3271   4.709   2.730   0.460
 1110TIP3    H2 3272   4.726   2.687   0.604
 1111TIP3   OH2 3273   7.124   8.038   6.961
 1111TIP3    H1 3274   7.077   8.068   7.039
 1111TIP3    H2 3275   7.183   8.110   6.939
 1112TIP3   OH2 3276   4.459   4.552   1.012
 1112TIP3    H1 3277   4.542   4.554   1.060
 1112TIP3    H2 3278   4.439   4.458   1.002
 1113TIP3   OH2 3279   4.936   4.496   1.031
 1113TIP3    H1 3280   5.031   4.492   1.041
 1113TIP3    H2 3281   4.914   4.422   0.975
 1114TIP3   OH2 3282   5.489   4.319   0.846
 1114TIP3    H1 3283   5.421   4.345   0.908
 1114TIP3    H2 3284   5.532   4.401   0.822
 1115TIP3   OH2 3285   4.562   3.945   1.201
 1115TIP3    H1 3286   4.581   3.852   1.210
 1115TIP3    H2 3287   4.475   3.948   1.161
 1116TIP3   OH2 3288   5.148   3.987   0.981
 1116TIP3    H1 3289   5.126   4.027   0.897
 1116TIP3    H2 3290   5.194   3.906   0.958
 1117TIP3   OH2 3291   5.652   4.004   0.580
 1117TIP3    H1 3292   5.731   4.042   0.543
 1117TIP3    H2 3293   5.590   4.077   0.584
 1118TIP3   OH2 3294   4.683   3.686   1.201
 1118TIP3    H1 3295   4.764   3.671   1.152
 1118TIP3    H2 3296   4.712   3.711   1.289
 1119TIP3   OH2 3297   5.031   3.564   0.850
 1119TIP3    H1 3298   4.952   3.617   0.860
 1119TIP3    H2 3299   5.071   3.597   0.769
 1120TIP3   OH2 3300   5.509   3.929   0.932
 1120TIP3    H1 3301   5.565   4.005   0.947
 1120TIP3    H2 3302   5.509   3.883   1.016
 1121TIP3   OH2 3303   5.147   3.348   0.971
 1121TIP3    H1 3304   5.151   3.274   0.910
 1121TIP3    H2 3305   5.108   3.419   0.920
 1122TIP3   OH2 3306   5.151   3.145   0.770
 1122TIP3    H1 3307   5.176   3.183   0.686
 1122TIP3    H2 3308   5.059   3.120   0.758
 1123TIP3   OH2 3309   5.171   3.674   0.644
 1123TIP3    H1 3310   5.254   3.723   0.646
 1123TIP3    H2 3311   5.110   3.732   0.599
 1124TIP3   OH2 3312   5.750   3.635   1.026
 1124TIP3    H1 3313   5.806   3.559   1.041
 1124TIP3    H2 3314   5.811   3.706   1.005
 1125TIP3   OH2 3315   5.786   3.861   0.770
 1125TIP3    H1 3316   5.723   3.915   0.722
 1125TIP3    H2 3317   5.871   3.886   0.735
 1126TIP3   OH2 3318   5.025   3.436   1.210
 1126TIP3    H1 3319   4.956   3.372   1.230
 1126TIP3    H2 3320   5.056   3.411   1.123
 1127TIP3   OH2 3321   5.275   2.913   0.870
 1127TIP3    H1 3322   5.233   2.992   0.836
 1127TIP3    H2 3323   5.212   2.843   0.852
 1128TIP3   OH2 3324   5.409   3.384   1.066
 1128TIP3    H1 3325   5.403   3.376   1.162
 1128TIP3    H2 3326   5.321   3.367   1.035
 1129TIP3   OH2 3327   5.645   3.328   0.920
 1129TIP3    H1 3328   5.568   3.335   0.977
 1129TIP3    H2 3329   5.718   3.312   0.981
 1130TIP3   OH2 3330   5.878   3.303   1.081
 1130TIP3    H1 3331   5.890   3.209   1.091
 1130TIP3    H2 3332   5.871   3.336   1.171
 1131TIP3   OH2 3333   4.860   3.214   1.274
 1131TIP3    H1 3334   4.867   3.125   1.240
 1131TIP3    H2 3335   4.898   3.209   1.362
 1132TIP3   OH2 3336   5.345   2.893   1.133
 1132TIP3    H1 3337   5.415   2.828   1.126
 1132TIP3    H2 3338   5.313   2.905   1.044
 1133TIP3   OH2 3339   5.434   3.111   1.277
 1133TIP3    H1 3340   5.405   3.039   1.220
 1133TIP3    H2 3341   5.361   3.174   1.275
 1134TIP3   OH2 3342   4.044   4.311   0.015
 1134TIP3    H1 3343   3.980   4.253  -0.026
 1134TIP3    H2 3344   4.088   4.256   0.079
 1135TIP3   OH2 3345   4.210   4.167   0.190
 1135TIP3    H1 3346   4.196   4.094   0.251
 1135TIP3    H2 3347   4.252   4.234   0.243
 1136TIP3   OH2 3348   5.949   4.669   0.241
 1136TIP3    H1 3349   5.924   4.582   0.212
 1136TIP3    H2 3350   6.004   4.654   0.318
 1137TIP3   OH2 3351   5.964   4.266   0.871
 1137TIP3    H1 3352   5.892   4.274   0.933
 1137TIP3    H2 3353   6.006   4.352   0.872
 1138TIP3   OH2 3354   5.723   4.249   0.357
 1138TIP3    H1 3355   5.648   4.296   0.394
 1138TIP3    H2 3356   5.693   4.216   0.273
 1139TIP3   OH2 3357   4.376   3.596   0.569
 1139TIP3    H1 3358   4.369   3.562   0.480
 1139TIP3    H2 3359   4.470   3.594   0.587
 1140TIP3   OH2 3360   6.032   3.914   0.671
 1140TIP3    H1 3361   6.103   3.852   0.652
 1140TIP3    H2 3362   6.024   3.965   0.590
 1141TIP3   OH2 3363   6.212   3.708   0.655
 1141TIP3    H1 3364   6.144   3.678   0.715
 1141TIP3    H2 3365   6.290   3.658   0.679
 1142TIP3   OH2 3366   5.910   3.409   0.207
 1142TIP3    H1 3367   5.995   3.440   0.177
 1142TIP3    H2 3368   5.903   3.442   0.297
 1143TIP3   OH2 3369   5.965   3.556   0.450
 1143TIP3    H1 3370   5.889   3.585   0.500
 1143TIP3    H2 3371   5.996   3.636   0.406
 1144TIP3   OH2 3372   4.596   3.272   1.216
 1144TIP3    H1 3373   4.690   3.270   1.233
 1144TIP3    H2 3374   4.563   3.192   1.256
 1145TIP3   OH2 3375   6.439   3.166   0.985
 1145TIP3    H1 3376   6.500   3.108   0.941
 1145TIP3    H2 3377   6.397   3.215   0.914
 1146TIP3   OH2 3378   4.570   2.983   0.557
 1146TIP3    H1 3379   4.625   2.905   0.566
 1146TIP3    H2 3380   4.632   3.055   0.547
 1147TIP3   OH2 3381   4.354   3.244   0.633
 1147TIP3    H1 3382   4.405   3.240   0.552
 1147TIP3    H2 3383   4.377   3.328   0.672
 1148TIP3   OH2 3384   6.291   3.275   0.786
 1148TIP3    H1 3385   6.208   3.318   0.809
 1148TIP3    H2 3386   6.265   3.198   0.736
 1149TIP3   OH2 3387   4.348   2.755   0.138
 1149TIP3    H1 3388   4.259   2.746   0.174
 1149TIP3    H2 3389   4.338   2.815   0.064
 1150TIP3   OH2 3390   4.559   2.809   0.946
 1150TIP3    H1 3391   4.513   2.811   1.030
 1150TIP3    H2 3392   4.504   2.860   0.887
 1151TIP3   OH2 3393   4.596   4.269   1.024
 1151TIP3    H1 3394   4.502   4.249   1.016
 1151TIP3    H2 3395   4.615   4.256   1.117
 1152TIP3   OH2 3396   4.790   4.296   0.588
 1152TIP3    H1 3397   4.735   4.366   0.552
 1152TIP3    H2 3398   4.871   4.302   0.539
 1153TIP3   OH2 3399   5.200   4.546   0.717
 1153TIP3    H1 3400   5.208   4.519   0.809
 1153TIP3    H2 3401   5.280   4.596   0.700
 1154TIP3   OH2 3402   5.403   4.693   0.621
 1154TIP3    H1 3403   5.476   4.632   0.633
 1154TIP3    H2 3404   5.417   4.760   0.687
 1155TIP3   OH2 3405   6.210   3.028   0.686
 1155TIP3    H1 3406   6.123   3.006   0.654
 1155TIP3    H2 3407   6.258   2.946   0.682
 1156TIP3   OH2 3408   4.460   4.558   0.624
 1156TIP3    H1 3409   4.369   4.577   0.600
 1156TIP3    H2 3410   4.482   4.626   0.687
 1157TIP3   OH2 3411   4.682   4.514   0.470
 1157TIP3    H1 3412   4.605   4.533   0.523
 1157TIP3    H2 3413   4.660   4.547   0.383
 1158TIP3   OH2 3414   5.104   4.458   0.205
 1158TIP3    H1 3415   5.025   4.492   0.163
 1158TIP3    H2 3416   5.131   4.528   0.264
 1159TIP3   OH2 3417   5.373   4.444   0.176
 1159TIP3    H1 3418   5.277   4.436   0.176
 1159TIP3    H2 3419   5.390   4.530   0.213
 1160TIP3   OH2 3420   5.638   4.741   0.096
 1160TIP3    H1 3421   5.545   4.748   0.117
 1160TIP3    H2 3422   5.657   4.647   0.099
 1161TIP3   OH2 3423   4.384   4.328   0.341
 1161TIP3    H1 3424   4.405   4.302   0.430
 1161TIP3    H2 3425   4.455   4.293   0.288
 1162TIP3   OH2 3426   4.575   4.201   0.189
 1162TIP3    H1 3427   4.579   4.119   0.236
 1162TIP3    H2 3428   4.662   4.239   0.198
 1163TIP3   OH2 3429   4.834   4.265   0.225
 1163TIP3    H1 3430   4.860   4.174   0.212
 1163TIP3    H2 3431   4.884   4.293   0.302
 1164TIP3   OH2 3432   5.378   2.951   0.310
 1164TIP3    H1 3433   5.330   2.885   0.361
 1164TIP3    H2 3434   5.448   2.902   0.267
 1165TIP3   OH2 3435   5.905   2.888   0.251
 1165TIP3    H1 3436   5.975   2.895   0.186
 1165TIP3    H2 3437   5.912   2.798   0.283
 1166TIP3   OH2 3438   0.312   7.064   7.042
 1166TIP3    H1 3439   0.319   6.979   6.998
 1166TIP3    H2 3440   0.397   7.105   7.028
 1167TIP3   OH2 3441   4.654   2.663   0.301
 1167TIP3    H1 3442   4.565   2.632   0.313
 1167TIP3    H2 3443   4.707   2.583   0.297
 1168TIP3   OH2 3444   7.334   6.605   7.006
 1168TIP3    H1 3445   7.365   6.662   6.936
 1168TIP3    H2 3446   7.295   6.665   7.070
 1169TIP3   OH2 3447   5.110   2.702   0.199
 1169TIP3    H1 3448   5.162   2.753   0.137
 1169TIP3    H2 3449   5.144   2.725   0.285
 1170TIP3   OH2 3450   5.626   2.872   0.190
 1170TIP3    H1 3451   5.664   2.837   0.109
 1170TIP3    H2 3452   5.625   2.797   0.250
 1171TIP3   OH2 3453   7.430   6.750   6.800
 1171TIP3    H1 3454   7.411   6.745   6.707
 1171TIP3    H2 3455   7.502   6.812   6.807
 1172TIP3   OH2 3456   7.925   6.928   6.850
 1172TIP3    H1 3457   7.988   6.882   6.905
 1172TIP3    H2 3458   7.945   7.021   6.861
 1173TIP3   OH2 3459   4.869   2.940   1.188
 1173TIP3    H1 3460   4.833   2.874   1.247
 1173TIP3    H2 3461   4.961   2.947   1.212
 1174TIP3   OH2 3462   5.119   2.945   1.308
 1174TIP3    H1 3463   5.198   2.925   1.259
 1174TIP3    H2 3464   5.113   2.876   1.374
 1175TIP3   OH2 3465   5.941   3.031   1.100
 1175TIP3    H1 3466   5.956   3.004   1.190
 1175TIP3    H2 3467   6.028   3.027   1.059
 1176TIP3   OH2 3468   5.863   4.586   0.697
 1176TIP3    H1 3469   5.902   4.531   0.630
 1176TIP3    H2 3470   5.895   4.674   0.678
 1177TIP3   OH2 3471   6.681   3.326   0.224
 1177TIP3    H1 3472   6.626   3.260   0.182
 1177TIP3    H2 3473   6.631   3.353   0.301
 1178TIP3   OH2 3474   6.592   3.934   0.408
 1178TIP3    H1 3475   6.595   4.025   0.440
 1178TIP3    H2 3476   6.498   3.913   0.408
 1179TIP3   OH2 3477   6.219   4.058   0.285
 1179TIP3    H1 3478   6.205   4.006   0.206
 1179TIP3    H2 3479   6.250   3.995   0.350
 1180TIP3   OH2 3480   6.450   4.232   0.266
 1180TIP3    H1 3481   6.493   4.226   0.351
 1180TIP3    H2 3482   6.367   4.185   0.278
 1181TIP3   OH2 3483   7.265   3.253   0.321
 1181TIP3    H1 3484   7.315   3.334   0.318
 1181TIP3    H2 3485   7.256   3.234   0.414
 1182TIP3   OH2 3486   7.277   3.893   0.439
 1182TIP3    H1 3487   7.251   3.808   0.473
 1182TIP3    H2 3488   7.372   3.891   0.438
 1183TIP3   OH2 3489   6.476   3.621   0.291
 1183TIP3    H1 3490   6.518   3.698   0.330
 1183TIP3    H2 3491   6.504   3.548   0.345
 1184TIP3   OH2 3492   6.576   4.186   0.524
 1184TIP3    H1 3493   6.648   4.206   0.584
 1184TIP3    H2 3494   6.497   4.214   0.570
 1185TIP3   OH2 3495   6.327   3.871   0.453
 1185TIP3    H1 3496   6.349   3.874   0.546
 1185TIP3    H2 3497   6.263   3.800   0.447
 1186TIP3   OH2 3498   7.032   4.001   0.468
 1186TIP3    H1 3499   6.970   3.942   0.426
 1186TIP3    H2 3500   7.118   3.965   0.446
 1187TIP3   OH2 3501   6.518   3.384   0.440
 1187TIP3    H1 3502   6.423   3.383   0.455
 1187TIP3    H2 3503   6.555   3.341   0.517
 1188TIP3   OH2 3504   6.523   3.082   0.092
 1188TIP3    H1 3505   6.593   3.047   0.036
 1188TIP3    H2 3506   6.491   3.006   0.141
 1189TIP3   OH2 3507   6.223   4.796   0.529
 1189TIP3    H1 3508   6.318   4.793   0.521
 1189TIP3    H2 3509   6.192   4.722   0.477
 1190TIP3   OH2 3510   6.744   4.765   0.498
 1190TIP3    H1 3511   6.753   4.859   0.509
 1190TIP3    H2 3512   6.797   4.744   0.421
 1191TIP3   OH2 3513   6.373   4.174   0.735
 1191TIP3    H1 3514   6.402   4.083   0.732
 1191TIP3    H2 3515   6.292   4.176   0.684
 1192TIP3   OH2 3516   6.943   4.262   0.463
 1192TIP3    H1 3517   6.891   4.237   0.387
 1192TIP3    H2 3518   7.004   4.190   0.476
 1193TIP3   OH2 3519   6.487   3.915   0.697
 1193TIP3    H1 3520   6.567   3.897   0.647
 1193TIP3    H2 3521   6.518   3.942   0.783
 1194TIP3   OH2 3522   6.838   3.848   0.330
 1194TIP3    H1 3523   6.754   3.876   0.366
 1194TIP3    H2 3524   6.828   3.858   0.235
 1195TIP3   OH2 3525   7.298   4.201   0.501
 1195TIP3    H1 3526   7.300   4.137   0.430
 1195TIP3    H2 3527   7.320   4.152   0.579
 1196TIP3   OH2 3528   6.934   3.622   0.455
 1196TIP3    H1 3529   6.937   3.550   0.392
 1196TIP3    H2 3530   6.903   3.697   0.405
 1197TIP3   OH2 3531   6.935   3.434   0.249
 1197TIP3    H1 3532   6.974   3.433   0.162
 1197TIP3    H2 3533   6.843   3.413   0.235
 1198TIP3   OH2 3534   7.548   3.883   0.521
 1198TIP3    H1 3535   7.532   3.792   0.494
 1198TIP3    H2 3536   7.635   3.903   0.488
 1199TIP3   OH2 3537   6.817   3.700   0.698
 1199TIP3    H1 3538   6.750   3.635   0.722
 1199TIP3    H2 3539   6.847   3.672   0.611
 1200TIP3   OH2 3540   6.950   3.220   0.437
 1200TIP3    H1 3541   6.967   3.292   0.375
 1200TIP3    H2 3542   7.002   3.147   0.402
 1201TIP3   OH2 3543   7.191   3.653   0.555
 1201TIP3    H1 3544   7.180   3.640   0.649
 1201TIP3    H2 3545   7.105   3.635   0.518
 1202TIP3   OH2 3546   7.443   3.642   0.434
 1202TIP3    H1 3547   7.359   3.623   0.476
 1202TIP3    H2 3548   7.507   3.590   0.483
 1203TIP3   OH2 3549   7.667   3.563   0.569
 1203TIP3    H1 3550   7.697   3.478   0.604
 1203TIP3    H2 3551   7.668   3.621   0.645
 1204TIP3   OH2 3552   6.660   3.479   0.767
 1204TIP3    H1 3553   6.666   3.389   0.734
 1204TIP3    H2 3554   6.694   3.474   0.856
 1205TIP3   OH2 3555   7.117   3.181   0.655
 1205TIP3    H1 3556   7.144   3.089   0.657
 1205TIP3    H2 3557   7.058   3.186   0.579
 1206TIP3   OH2 3558   7.238   3.389   0.776
 1206TIP3    H1 3559   7.206   3.315   0.724
 1206TIP3    H2 3560   7.166   3.451   0.775
 1207TIP3   OH2 3561   6.396   3.514   0.699
 1207TIP3    H1 3562   6.490   3.518   0.720
 1207TIP3    H2 3563   6.366   3.434   0.742
 1208TIP3   OH2 3564   6.323   3.274   0.091
 1208TIP3    H1 3565   6.378   3.197   0.101
 1208TIP3    H2 3566   6.372   3.332   0.032
 1209TIP3   OH2 3567   6.171   3.510   0.164
 1209TIP3    H1 3568   6.216   3.436   0.123
 1209TIP3    H2 3569   6.240   3.555   0.213
 1210TIP3   OH2 3570   6.344   3.088   0.450
 1210TIP3    H1 3571   6.299   3.069   0.532
 1210TIP3    H2 3572   6.277   3.125   0.393
 1211TIP3   OH2 3573   6.351   4.379   0.509
 1211TIP3    H1 3574   6.418   4.423   0.456
 1211TIP3    H2 3575   6.330   4.443   0.578
 1212TIP3   OH2 3576   6.660   3.212   0.684
 1212TIP3    H1 3577   6.626   3.145   0.744
 1212TIP3    H2 3578   6.753   3.218   0.706
 1213TIP3   OH2 3579   6.900   3.219   0.819
 1213TIP3    H1 3580   6.983   3.208   0.774
 1213TIP3    H2 3581   6.897   3.146   0.882
 1214TIP3   OH2 3582   7.732   3.317   0.657
 1214TIP3    H1 3583   7.759   3.296   0.746
 1214TIP3    H2 3584   7.770   3.248   0.603
 1215TIP3   OH2 3585   0.434   4.276   1.486
 1215TIP3    H1 3586   0.449   4.361   1.529
 1215TIP3    H2 3587   0.466   4.289   1.396
 1216TIP3   OH2 3588   8.458   4.445   1.479
 1216TIP3    H1 3589   8.486   4.358   1.510
 1216TIP3    H2 3590   8.521   4.467   1.410
 1217TIP3   OH2 3591   0.491   4.495   1.652
 1217TIP3    H1 3592   0.405   4.536   1.642
 1217TIP3    H2 3593   0.527   4.534   1.731
 1218TIP3   OH2 3594   0.052   4.202   1.318
 1218TIP3    H1 3595   0.005   4.186   1.399
 1218TIP3    H2 3596   0.096   4.286   1.331
 1219TIP3   OH2 3597   0.220   4.167   1.637
 1219TIP3    H1 3598   0.134   4.192   1.601
 1219TIP3    H2 3599   0.283   4.201   1.573
 1220TIP3   OH2 3600   0.140   5.228   1.576
 1220TIP3    H1 3601   0.146   5.144   1.530
 1220TIP3    H2 3602   0.146   5.293   1.507
 1221TIP3   OH2 3603   0.330   4.828   1.487
 1221TIP3    H1 3604   0.249   4.880   1.496
 1221TIP3    H2 3605   0.364   4.850   1.401
 1222TIP3   OH2 3606   8.624   4.714   1.786
 1222TIP3    H1 3607   8.603   4.789   1.842
 1222TIP3    H2 3608   8.544   4.698   1.736
 1223TIP3   OH2 3609   0.398   5.522   1.738
 1223TIP3    H1 3610   0.397   5.426   1.736
 1223TIP3    H2 3611   0.308   5.547   1.758
 1224TIP3   OH2 3612   0.250   4.665   1.965
 1224TIP3    H1 3613   0.175   4.675   1.907
 1224TIP3    H2 3614   0.271   4.572   1.961
 1225TIP3   OH2 3615   8.412   3.980   1.961
 1225TIP3    H1 3616   8.471   3.972   2.036
 1225TIP3    H2 3617   8.328   3.948   1.993
 1226TIP3   OH2 3618   0.032   4.454   1.886
 1226TIP3    H1 3619  -0.022   4.439   1.963
 1226TIP3    H2 3620   0.001   4.538   1.851
 1227TIP3   OH2 3621   8.453   4.618   2.053
 1227TIP3    H1 3622   8.406   4.563   2.116
 1227TIP3    H2 3623   8.535   4.640   2.097
 1228TIP3   OH2 3624   8.395   4.643   1.656
 1228TIP3    H1 3625   8.407   4.575   1.590
 1228TIP3    H2 3626   8.303   4.636   1.681
 1229TIP3   OH2 3627   8.520   4.187   1.564
 1229TIP3    H1 3628   8.518   4.196   1.660
 1229TIP3    H2 3629   8.432   4.157   1.542
 1230TIP3   OH2 3630   8.035   4.386   1.710
 1230TIP3    H1 3631   8.033   4.471   1.667
 1230TIP3    H2 3632   8.109   4.393   1.772
 1231TIP3   OH2 3633   0.100   4.975   1.473
 1231TIP3    H1 3634   0.076   4.993   1.382
 1231TIP3    H2 3635   0.016   4.960   1.517
 1232TIP3   OH2 3636   7.994   4.814   2.125
 1232TIP3    H1 3637   7.974   4.812   2.032
 1232TIP3    H2 3638   8.090   4.814   2.129
 1233TIP3   OH2 3639   0.381   5.233   1.706
 1233TIP3    H1 3640   0.288   5.246   1.688
 1233TIP3    H2 3641   0.418   5.209   1.621
 1234TIP3   OH2 3642   8.479   4.210   1.831
 1234TIP3    H1 3643   8.531   4.254   1.898
 1234TIP3    H2 3644   8.452   4.128   1.872
 1235TIP3   OH2 3645   8.268   4.387   1.851
 1235TIP3    H1 3646   8.294   4.442   1.925
 1235TIP3    H2 3647   8.343   4.329   1.838
 1236TIP3   OH2 3648   0.291   4.394   1.872
 1236TIP3    H1 3649   0.197   4.402   1.882
 1236TIP3    H2 3650   0.304   4.361   1.783
 1237TIP3   OH2 3651   8.485   5.510   1.867
 1237TIP3    H1 3652   8.474   5.417   1.890
 1237TIP3    H2 3653   8.532   5.548   1.941
 1238TIP3   OH2 3654   8.546   5.072   1.705
 1238TIP3    H1 3655   8.618   5.128   1.676
 1238TIP3    H2 3656   8.470   5.131   1.709
 1239TIP3   OH2 3657   8.474   5.046   2.166
 1239TIP3    H1 3658   8.510   4.987   2.100
 1239TIP3    H2 3659   8.442   4.988   2.235
 1240TIP3   OH2 3660   0.079   4.663   2.197
 1240TIP3    H1 3661   0.120   4.589   2.243
 1240TIP3    H2 3662   0.148   4.696   2.140
 1241TIP3   OH2 3663   0.049   4.958   1.946
 1241TIP3    H1 3664  -0.008   4.999   1.881
 1241TIP3    H2 3665   0.137   4.964   1.909
 1242TIP3   OH2 3666   8.157   3.896   2.037
 1242TIP3    H1 3667   8.107   3.964   1.992
 1242TIP3    H2 3668   8.095   3.824   2.047
 1243TIP3   OH2 3669   8.322   4.461   2.226
 1243TIP3    H1 3670   8.341   4.461   2.319
 1243TIP3    H2 3671   8.257   4.392   2.214
 1244TIP3   OH2 3672   8.521   4.316   2.097
 1244TIP3    H1 3673   8.453   4.351   2.155
 1244TIP3    H2 3674   8.600   4.316   2.151
 1245TIP3   OH2 3675   0.146   4.338   2.258
 1245TIP3    H1 3676   0.156   4.245   2.278
 1245TIP3    H2 3677   0.129   4.380   2.342
 1246TIP3   OH2 3678   8.310   3.983   2.248
 1246TIP3    H1 3679   8.363   3.904   2.257
 1246TIP3    H2 3680   8.234   3.956   2.197
 1247TIP3   OH2 3681   8.265   4.198   2.406
 1247TIP3    H1 3682   8.283   4.125   2.347
 1247TIP3    H2 3683   8.176   4.182   2.438
 1248TIP3   OH2 3684   0.240   5.336   2.026
 1248TIP3    H1 3685   0.180   5.347   2.100
 1248TIP3    H2 3686   0.291   5.417   2.025
 1249TIP3   OH2 3687   0.298   4.995   1.835
 1249TIP3    H1 3688   0.359   4.923   1.819
 1249TIP3    H2 3689   0.330   5.066   1.779
 1250TIP3   OH2 3690   0.464   4.778   1.837
 1250TIP3    H1 3691   0.391   4.737   1.884
 1250TIP3    H2 3692   0.539   4.723   1.858
 1251TIP3   OH2 3693   0.158   4.447   1.400
 1251TIP3    H1 3694   0.233   4.470   1.346
 1251TIP3    H2 3695   0.173   4.492   1.483
 1252TIP3   OH2 3696   0.234   4.607   1.620
 1252TIP3    H1 3697   0.162   4.639   1.673
 1252TIP3    H2 3698   0.267   4.684   1.575
 1253TIP3   OH2 3699   0.690   4.208   2.158
 1253TIP3    H1 3700   0.751   4.150   2.113
 1253TIP3    H2 3701   0.650   4.260   2.087
 1254TIP3   OH2 3702   0.543   4.325   1.962
 1254TIP3    H1 3703   0.459   4.369   1.976
 1254TIP3    H2 3704   0.522   4.250   1.907
 1255TIP3   OH2 3705   0.452   4.087   1.850
 1255TIP3    H1 3706   0.364   4.083   1.815
 1255TIP3    H2 3707   0.485   3.997   1.845
 1256TIP3   OH2 3708   0.198   4.070   2.283
 1256TIP3    H1 3709   0.214   4.041   2.373
 1256TIP3    H2 3710   0.284   4.067   2.242
 1257TIP3   OH2 3711   0.132   5.592   1.773
 1257TIP3    H1 3712   0.049   5.547   1.785
 1257TIP3    H2 3713   0.112   5.663   1.711
 1258TIP3   OH2 3714   1.399   4.944   0.555
 1258TIP3    H1 3715   1.393   5.039   0.546
 1258TIP3    H2 3716   1.312   4.912   0.532
 1259TIP3   OH2 3717   1.402   4.981   0.935
 1259TIP3    H1 3718   1.444   4.970   1.021
 1259TIP3    H2 3719   1.355   4.899   0.920
 1260TIP3   OH2 3720   0.684   4.872   1.306
 1260TIP3    H1 3721   0.720   4.809   1.369
 1260TIP3    H2 3722   0.760   4.909   1.263
 1261TIP3   OH2 3723   1.657   5.293   0.620
 1261TIP3    H1 3724   1.640   5.229   0.689
 1261TIP3    H2 3725   1.676   5.374   0.667
 1262TIP3   OH2 3726   0.661   5.252   1.018
 1262TIP3    H1 3727   0.671   5.157   1.020
 1262TIP3    H2 3728   0.750   5.286   1.010
 1263TIP3   OH2 3729   0.447   4.810   0.982
 1263TIP3    H1 3730   0.479   4.722   1.004
 1263TIP3    H2 3731   0.526   4.864   0.978
 1264TIP3   OH2 3732   1.428   5.731   0.619
 1264TIP3    H1 3733   1.336   5.744   0.594
 1264TIP3    H2 3734   1.424   5.699   0.709
 1265TIP3   OH2 3735   1.218   5.192   0.980
 1265TIP3    H1 3736   1.263   5.118   0.940
 1265TIP3    H2 3737   1.288   5.252   1.005
 1266TIP3   OH2 3738   2.209   4.538   0.963
 1266TIP3    H1 3739   2.234   4.619   1.008
 1266TIP3    H2 3740   2.237   4.552   0.872
 1267TIP3   OH2 3741   1.615   4.707   1.000
 1267TIP3    H1 3742   1.660   4.627   1.026
 1267TIP3    H2 3743   1.575   4.685   0.916
 1268TIP3   OH2 3744   0.939   4.372   0.950
 1268TIP3    H1 3745   0.923   4.446   0.891
 1268TIP3    H2 3746   0.899   4.298   0.905
 1269TIP3   OH2 3747   1.677   4.466   0.591
 1269TIP3    H1 3748   1.743   4.471   0.660
 1269TIP3    H2 3749   1.718   4.505   0.515
 1270TIP3   OH2 3750   0.569   4.570   1.067
 1270TIP3    H1 3751   0.652   4.555   1.113
 1270TIP3    H2 3752   0.578   4.522   0.985
 1271TIP3   OH2 3753   1.017   4.779   0.886
 1271TIP3    H1 3754   1.111   4.761   0.893
 1271TIP3    H2 3755   0.980   4.698   0.852
 1272TIP3   OH2 3756   2.281   4.753   1.130
 1272TIP3    H1 3757   2.192   4.789   1.127
 1272TIP3    H2 3758   2.317   4.784   1.212
 1273TIP3   OH2 3759   0.932   4.368   1.401
 1273TIP3    H1 3760   0.880   4.406   1.330
 1273TIP3    H2 3761   0.880   4.384   1.480
 1274TIP3   OH2 3762   1.335   5.188   0.459
 1274TIP3    H1 3763   1.328   5.210   0.366
 1274TIP3    H2 3764   1.254   5.219   0.497
 1275TIP3   OH2 3765   1.035   5.132   1.178
 1275TIP3    H1 3766   0.978   5.204   1.204
 1275TIP3    H2 3767   1.084   5.167   1.103
 1276TIP3   OH2 3768   1.838   4.484   0.805
 1276TIP3    H1 3769   1.799   4.468   0.891
 1276TIP3    H2 3770   1.894   4.561   0.817
 1277TIP3   OH2 3771   0.813   4.474   1.174
 1277TIP3    H1 3772   0.868   4.549   1.196
 1277TIP3    H2 3773   0.856   4.432   1.100
 1278TIP3   OH2 3774   0.873   5.334   1.281
 1278TIP3    H1 3775   0.857   5.418   1.238
 1278TIP3    H2 3776   0.796   5.321   1.337
 1279TIP3   OH2 3777   1.700   5.535   0.762
 1279TIP3    H1 3778   1.615   5.526   0.805
 1279TIP3    H2 3779   1.697   5.622   0.722
 1280TIP3   OH2 3780   2.010   4.434   1.137
 1280TIP3    H1 3781   1.923   4.460   1.107
 1280TIP3    H2 3782   2.069   4.462   1.066
 1281TIP3   OH2 3783   1.280   4.103   1.130
 1281TIP3    H1 3784   1.272   4.011   1.156
 1281TIP3    H2 3785   1.202   4.144   1.167
 1282TIP3   OH2 3786   1.459   5.620   0.365
 1282TIP3    H1 3787   1.497   5.532   0.359
 1282TIP3    H2 3788   1.464   5.642   0.458
 1283TIP3   OH2 3789   1.575   5.371   0.365
 1283TIP3    H1 3790   1.573   5.292   0.311
 1283TIP3    H2 3791   1.595   5.339   0.453
 1284TIP3   OH2 3792   1.935   5.432   1.107
 1284TIP3    H1 3793   1.914   5.359   1.049
 1284TIP3    H2 3794   1.915   5.510   1.055
 1285TIP3   OH2 3795   1.197   4.827   0.392
 1285TIP3    H1 3796   1.145   4.752   0.363
 1285TIP3    H2 3797   1.260   4.842   0.321
 1286TIP3   OH2 3798   1.186   4.606   0.223
 1286TIP3    H1 3799   1.273   4.633   0.192
 1286TIP3    H2 3800   1.130   4.615   0.146
 1287TIP3   OH2 3801   2.113   5.095   0.966
 1287TIP3    H1 3802   2.028   5.139   0.966
 1287TIP3    H2 3803   2.147   5.108   0.877
 1288TIP3   OH2 3804   1.588   4.922   0.360
 1288TIP3    H1 3805   1.529   4.930   0.435
 1288TIP3    H2 3806   1.672   4.898   0.399
 1289TIP3   OH2 3807   1.801   4.959   1.274
 1289TIP3    H1 3808   1.799   5.041   1.324
 1289TIP3    H2 3809   1.718   4.957   1.228
 1290TIP3   OH2 3810   0.794   4.893   0.763
 1290TIP3    H1 3811   0.792   4.861   0.673
 1290TIP3    H2 3812   0.880   4.868   0.796
 1291TIP3   OH2 3813   0.922   5.323   0.970
 1291TIP3    H1 3814   0.932   5.292   0.880
 1291TIP3    H2 3815   0.995   5.383   0.982
 1292TIP3   OH2 3816   0.912   4.899   1.115
 1292TIP3    H1 3817   0.951   4.868   1.033
 1292TIP3    H2 3818   0.957   4.981   1.134
 1293TIP3   OH2 3819   1.468   5.529   0.900
 1293TIP3    H1 3820   1.445   5.606   0.952
 1293TIP3    H2 3821   1.448   5.455   0.957
 1294TIP3   OH2 3822   1.077   5.433   1.437
 1294TIP3    H1 3823   1.020   5.498   1.477
 1294TIP3    H2 3824   1.019   5.384   1.378
 1295TIP3   OH2 3825   1.408   4.805   0.192
 1295TIP3    H1 3826   1.473   4.856   0.241
 1295TIP3    H2 3827   1.420   4.833   0.101
 1296TIP3   OH2 3828   0.836   4.987   1.576
 1296TIP3    H1 3829   0.841   5.080   1.599
 1296TIP3    H2 3830   0.742   4.970   1.569
 1297TIP3   OH2 3831   0.876   5.602   1.518
 1297TIP3    H1 3832   0.844   5.609   1.429
 1297TIP3    H2 3833   0.800   5.574   1.569
 1298TIP3   OH2 3834   1.991   4.069   0.276
 1298TIP3    H1 3835   1.903   4.074   0.312
 1298TIP3    H2 3836   1.993   4.137   0.209
 1299TIP3   OH2 3837   0.463   5.134   1.463
 1299TIP3    H1 3838   0.437   5.107   1.374
 1299TIP3    H2 3839   0.504   5.055   1.500
 1300TIP3   OH2 3840   2.159   5.804   1.166
 1300TIP3    H1 3841   2.166   5.709   1.175
 1300TIP3    H2 3842   2.079   5.827   1.211
 1301TIP3   OH2 3843   1.285   5.570   1.315
 1301TIP3    H1 3844   1.262   5.663   1.313
 1301TIP3    H2 3845   1.204   5.527   1.344
 1302TIP3   OH2 3846   2.048   4.917   1.438
 1302TIP3    H1 3847   1.966   4.925   1.390
 1302TIP3    H2 3848   2.067   4.823   1.437
 1303TIP3   OH2 3849   0.662   5.328   1.458
 1303TIP3    H1 3850   0.710   5.317   1.540
 1303TIP3    H2 3851   0.592   5.263   1.461
 1304TIP3   OH2 3852   1.036   4.165   1.248
 1304TIP3    H1 3853   0.953   4.131   1.215
 1304TIP3    H2 3854   1.012   4.242   1.299
 1305TIP3   OH2 3855   1.587   4.268   1.452
 1305TIP3    H1 3856   1.658   4.244   1.512
 1305TIP3    H2 3857   1.507   4.251   1.502
 1306TIP3   OH2 3858   1.808   4.695   1.365
 1306TIP3    H1 3859   1.766   4.692   1.451
 1306TIP3    H2 3860   1.790   4.784   1.333
 1307TIP3   OH2 3861   1.033   4.097   0.296
 1307TIP3    H1 3862   1.064   4.186   0.315
 1307TIP3    H2 3863   1.095   4.064   0.232
 1308TIP3   OH2 3864   0.979   4.677   1.261
 1308TIP3    H1 3865   0.936   4.689   1.345
 1308TIP3    H2 3866   0.960   4.757   1.212
 1309TIP3   OH2 3867   0.859   4.572   0.778
 1309TIP3    H1 3868   0.768   4.547   0.792
 1309TIP3    H2 3869   0.867   4.582   0.684
 1310TIP3   OH2 3870   1.337   4.640   0.544
 1310TIP3    H1 3871   1.287   4.712   0.507
 1310TIP3    H2 3872   1.403   4.619   0.478
 1311TIP3   OH2 3873   1.531   4.904   1.582
 1311TIP3    H1 3874   1.503   4.836   1.644
 1311TIP3    H2 3875   1.623   4.918   1.603
 1312TIP3   OH2 3876   1.520   4.647   0.751
 1312TIP3    H1 3877   1.451   4.673   0.691
 1312TIP3    H2 3878   1.566   4.576   0.706
 1313TIP3   OH2 3879   0.814   4.694   1.482
 1313TIP3    H1 3880   0.842   4.757   1.549
 1313TIP3    H2 3881   0.797   4.614   1.532
 1314TIP3   OH2 3882   0.485   4.254   1.001
 1314TIP3    H1 3883   0.487   4.277   1.094
 1314TIP3    H2 3884   0.535   4.173   0.995
 1315TIP3   OH2 3885   1.543   4.906   1.168
 1315TIP3    H1 3886   1.573   4.839   1.106
 1315TIP3    H2 3887   1.498   4.857   1.237
 1316TIP3   OH2 3888   1.214   4.403   0.894
 1316TIP3    H1 3889   1.130   4.397   0.940
 1316TIP3    H2 3890   1.280   4.393   0.962
 1317TIP3   OH2 3891   0.627   4.418   0.832
 1317TIP3    H1 3892   0.551   4.373   0.867
 1317TIP3    H2 3893   0.688   4.348   0.808
 1318TIP3   OH2 3894   0.891   4.573   0.501
 1318TIP3    H1 3895   0.950   4.503   0.528
 1318TIP3    H2 3896   0.868   4.551   0.411
 1319TIP3   OH2 3897   1.729   4.457   1.061
 1319TIP3    H1 3898   1.679   4.469   1.142
 1319TIP3    H2 3899   1.702   4.371   1.029
 1320TIP3   OH2 3900   1.872   6.140   1.262
 1320TIP3    H1 3901   1.866   6.150   1.167
 1320TIP3    H2 3902   1.950   6.190   1.286
 1321TIP3   OH2 3903   0.818   5.241   1.690
 1321TIP3    H1 3904   0.899   5.271   1.731
 1321TIP3    H2 3905   0.749   5.265   1.751
 1322TIP3   OH2 3906   1.286   4.717   0.943
 1322TIP3    H1 3907   1.350   4.664   0.896
 1322TIP3    H2 3908   1.279   4.676   1.029
 1323TIP3   OH2 3909   0.790   4.189   0.796
 1323TIP3    H1 3910   0.739   4.126   0.847
 1323TIP3    H2 3911   0.821   4.138   0.720
 1324TIP3   OH2 3912   1.246   4.616   1.208
 1324TIP3    H1 3913   1.159   4.651   1.229
 1324TIP3    H2 3914   1.306   4.669   1.260
 1325TIP3   OH2 3915   1.874   5.230   0.930
 1325TIP3    H1 3916   1.907   5.280   0.855
 1325TIP3    H2 3917   1.793   5.190   0.899
 1326TIP3   OH2 3918   1.432   4.337   0.226
 1326TIP3    H1 3919   1.428   4.260   0.169
 1326TIP3    H2 3920   1.519   4.373   0.211
 1327TIP3   OH2 3921   1.396   5.313   1.343
 1327TIP3    H1 3922   1.434   5.307   1.430
 1327TIP3    H2 3923   1.355   5.400   1.340
 1328TIP3   OH2 3924   1.534   4.609   0.355
 1328TIP3    H1 3925   1.628   4.617   0.342
 1328TIP3    H2 3926   1.495   4.661   0.285
 1329TIP3   OH2 3927   0.672   4.970   0.992
 1329TIP3    H1 3928   0.703   4.957   0.902
 1329TIP3    H2 3929   0.744   4.941   1.047
 1330TIP3   OH2 3930   0.566   4.927   1.615
 1330TIP3    H1 3931   0.580   4.910   1.708
 1330TIP3    H2 3932   0.495   4.868   1.590
 1331TIP3   OH2 3933   1.298   5.057   1.623
 1331TIP3    H1 3934   1.232   5.004   1.578
 1331TIP3    H2 3935   1.381   5.019   1.594
 1332TIP3   OH2 3936   1.550   5.589   1.227
 1332TIP3    H1 3937   1.455   5.576   1.232
 1332TIP3    H2 3938   1.571   5.635   1.308
 1333TIP3   OH2 3939   1.942   4.643   0.108
 1333TIP3    H1 3940   1.921   4.584   0.035
 1333TIP3    H2 3941   1.931   4.731   0.072
 1334TIP3   OH2 3942   2.179   5.528   1.191
 1334TIP3    H1 3943   2.085   5.508   1.194
 1334TIP3    H2 3944   2.209   5.491   1.108
 1335TIP3   OH2 3945   1.645   5.098   0.830
 1335TIP3    H1 3946   1.556   5.076   0.858
 1335TIP3    H2 3947   1.679   5.016   0.794
 1336TIP3   OH2 3948   1.453   5.307   1.072
 1336TIP3    H1 3949   1.431   5.306   1.166
 1336TIP3    H2 3950   1.541   5.268   1.068
 1337TIP3   OH2 3951   1.692   5.826   1.100
 1337TIP3    H1 3952   1.616   5.768   1.106
 1337TIP3    H2 3953   1.669   5.888   1.031
 1338TIP3   OH2 3954   0.767   4.440   1.611
 1338TIP3    H1 3955   0.671   4.449   1.616
 1338TIP3    H2 3956   0.790   4.389   1.688
 1339TIP3   OH2 3957   1.588   5.143   0.196
 1339TIP3    H1 3958   1.580   5.071   0.259
 1339TIP3    H2 3959   1.679   5.139   0.167
 1340TIP3   OH2 3960   0.496   5.613   1.415
 1340TIP3    H1 3961   0.432   5.610   1.343
 1340TIP3    H2 3962   0.541   5.529   1.410
 1341TIP3   OH2 3963   1.613   4.503   1.308
 1341TIP3    H1 3964   1.691   4.546   1.342
 1341TIP3    H2 3965   1.604   4.424   1.362
 1342TIP3   OH2 3966   1.435   4.354   0.500
 1342TIP3    H1 3967   1.425   4.340   0.406
 1342TIP3    H2 3968   1.502   4.422   0.508
 1343TIP3   OH2 3969   1.154   4.452   0.629
 1343TIP3    H1 3970   1.220   4.513   0.595
 1343TIP3    H2 3971   1.173   4.447   0.723
 1344TIP3   OH2 3972   1.448   4.734   1.361
 1344TIP3    H1 3973   1.476   4.779   1.441
 1344TIP3    H2 3974   1.502   4.654   1.359
 1345TIP3   OH2 3975   1.368   4.233   0.728
 1345TIP3    H1 3976   1.332   4.289   0.798
 1345TIP3    H2 3977   1.378   4.292   0.653
 1346TIP3   OH2 3978   0.722   4.240   0.396
 1346TIP3    H1 3979   0.670   4.266   0.472
 1346TIP3    H2 3980   0.810   4.273   0.414
 1347TIP3   OH2 3981   2.073   4.641   1.350
 1347TIP3    H1 3982   1.978   4.651   1.360
 1347TIP3    H2 3983   2.082   4.581   1.276
 1348TIP3   OH2 3984   1.736   4.842   0.744
 1348TIP3    H1 3985   1.657   4.790   0.761
 1348TIP3    H2 3986   1.803   4.803   0.800
 1349TIP3   OH2 3987   1.729   5.807   0.701
 1349TIP3    H1 3988   1.678   5.851   0.633
 1349TIP3    H2 3989   1.820   5.823   0.677
 1350TIP3   OH2 3990   0.774   4.076   1.213
 1350TIP3    H1 3991   0.735   4.044   1.132
 1350TIP3    H2 3992   0.766   4.003   1.274
 1351TIP3   OH2 3993   0.473   5.806   1.719
 1351TIP3    H1 3994   0.562   5.801   1.754
 1351TIP3    H2 3995   0.451   5.715   1.698
 1352TIP3   OH2 3996   0.970   5.768   1.717
 1352TIP3    H1 3997   1.063   5.745   1.725
 1352TIP3    H2 3998   0.939   5.719   1.641
 1353TIP3   OH2 3999   1.598   5.708   1.471
 1353TIP3    H1 4000   1.607   5.637   1.535
 1353TIP3    H2 4001   1.672   5.766   1.488
 1354TIP3   OH2 4002   0.605   5.241   1.872
 1354TIP3    H1 4003   0.628   5.149   1.880
 1354TIP3    H2 4004   0.523   5.241   1.822
 1355TIP3   OH2 4005   1.228   5.334   1.642
 1355TIP3    H1 4006   1.183   5.357   1.561
 1355TIP3    H2 4007   1.262   5.246   1.628
 1356TIP3   OH2 4008   1.708   5.359   1.250
 1356TIP3    H1 4009   1.785   5.393   1.205
 1356TIP3    H2 4010   1.643   5.428   1.242
 1357TIP3   OH2 4011   0.724   4.982   1.866
 1357TIP3    H1 4012   0.799   4.983   1.806
 1357TIP3    H2 4013   0.761   5.008   1.951
 1358TIP3   OH2 4014   1.078   4.863   1.517
 1358TIP3    H1 4015   0.999   4.917   1.530
 1358TIP3    H2 4016   1.119   4.900   1.438
 1359TIP3   OH2 4017   1.584   5.255   1.623
 1359TIP3    H1 4018   1.649   5.214   1.567
 1359TIP3    H2 4019   1.580   5.198   1.700
 1360TIP3   OH2 4020   1.189   4.645   1.636
 1360TIP3    H1 4021   1.194   4.573   1.574
 1360TIP3    H2 4022   1.154   4.718   1.586
 1361TIP3   OH2 4023   1.196   4.443   1.434
 1361TIP3    H1 4024   1.224   4.484   1.353
 1361TIP3    H2 4025   1.103   4.423   1.421
 1362TIP3   OH2 4026   1.216   4.983   1.316
 1362TIP3    H1 4027   1.303   5.016   1.294
 1362TIP3    H2 4028   1.155   5.039   1.269
 1363TIP3   OH2 4029   1.798   4.933   1.684
 1363TIP3    H1 4030   1.840   4.847   1.694
 1363TIP3    H2 4031   1.870   4.992   1.661
 1364TIP3   OH2 4032   1.829   5.195   1.428
 1364TIP3    H1 4033   1.774   5.253   1.375
 1364TIP3    H2 4034   1.918   5.210   1.397
 1365TIP3   OH2 4035   1.071   4.737   1.876
 1365TIP3    H1 4036   1.002   4.674   1.894
 1365TIP3    H2 4037   1.101   4.715   1.788
 1366TIP3   OH2 4038   1.318   4.212   1.530
 1366TIP3    H1 4039   1.277   4.292   1.498
 1366TIP3    H2 4040   1.255   4.143   1.512
 1367TIP3   OH2 4041   1.446   4.691   1.735
 1367TIP3    H1 4042   1.437   4.680   1.829
 1367TIP3    H2 4043   1.360   4.670   1.700
 1368TIP3   OH2 4044   1.690   4.644   1.602
 1368TIP3    H1 4045   1.612   4.645   1.658
 1368TIP3    H2 4046   1.761   4.619   1.661
 1369TIP3   OH2 4047   1.923   4.604   1.753
 1369TIP3    H1 4048   1.938   4.509   1.760
 1369TIP3    H2 4049   1.919   4.635   1.843
 1370TIP3   OH2 4050   0.905   4.517   1.939
 1370TIP3    H1 4051   0.913   4.428   1.903
 1370TIP3    H2 4052   0.944   4.510   2.027
 1371TIP3   OH2 4053   1.390   4.193   1.794
 1371TIP3    H1 4054   1.461   4.129   1.788
 1371TIP3    H2 4055   1.359   4.203   1.704
 1372TIP3   OH2 4056   1.479   4.411   1.939
 1372TIP3    H1 4057   1.451   4.340   1.882
 1372TIP3    H2 4058   1.406   4.473   1.938
 1373TIP3   OH2 4059   1.991   5.872   0.656
 1373TIP3    H1 4060   2.012   5.901   0.744
 1373TIP3    H2 4061   2.058   5.912   0.600
 1374TIP3   OH2 4062   2.005   5.893   0.938
 1374TIP3    H1 4063   1.954   5.812   0.933
 1374TIP3    H2 4064   2.074   5.874   1.002
 1375TIP3   OH2 4065   2.052   5.597   1.513
 1375TIP3    H1 4066   1.980   5.602   1.576
 1375TIP3    H2 4067   2.097   5.681   1.521
 1376TIP3   OH2 4068   1.864   5.097   0.126
 1376TIP3    H1 4069   1.930   5.161   0.099
 1376TIP3    H2 4070   1.902   5.054   0.203
 1377TIP3   OH2 4071   2.001   4.965   0.330
 1377TIP3    H1 4072   1.939   4.929   0.393
 1377TIP3    H2 4073   2.068   5.007   0.384
 1378TIP3   OH2 4074   2.051   5.366   0.763
 1378TIP3    H1 4075   2.103   5.297   0.722
 1378TIP3    H2 4076   2.052   5.437   0.699
 1379TIP3   OH2 4077   1.861   5.653   0.959
 1379TIP3    H1 4078   1.793   5.700   1.007
 1379TIP3    H2 4079   1.814   5.612   0.886
 1380TIP3   OH2 4080   7.638   0.820   6.989
 1380TIP3    H1 4081   7.568   0.808   6.924
 1380TIP3    H2 4082   7.612   0.898   7.037
 1381TIP3   OH2 4083   7.400   0.518   6.962
 1381TIP3    H1 4084   7.422   0.601   6.922
 1381TIP3    H2 4085   7.415   0.453   6.893
 1382TIP3   OH2 4086   1.817   4.830   0.484
 1382TIP3    H1 4087   1.828   4.735   0.474
 1382TIP3    H2 4088   1.794   4.843   0.576
 1383TIP3   OH2 4089   0.421   4.906   1.243
 1383TIP3    H1 4090   0.411   4.883   1.151
 1383TIP3    H2 4091   0.515   4.902   1.259
 1384TIP3   OH2 4092   2.082   5.246   1.327
 1384TIP3    H1 4093   2.150   5.181   1.311
 1384TIP3    H2 4094   2.083   5.302   1.249
 1385TIP3   OH2 4095   2.263   5.039   1.321
 1385TIP3    H1 4096   2.188   4.997   1.364
 1385TIP3    H2 4097   2.337   4.982   1.341
 1386TIP3   OH2 4098   7.509   0.229   6.945
 1386TIP3    H1 4099   7.568   0.176   6.998
 1386TIP3    H2 4100   7.424   0.222   6.988
 1387TIP3   OH2 4101   1.821   4.570   0.355
 1387TIP3    H1 4102   1.872   4.493   0.381
 1387TIP3    H2 4103   1.870   4.608   0.282
 1388TIP3   OH2 4104   1.954   4.723   0.872
 1388TIP3    H1 4105   2.036   4.742   0.825
 1388TIP3    H2 4106   1.967   4.759   0.959
 1389TIP3   OH2 4107   2.022   4.869   1.101
 1389TIP3    H1 4108   1.948   4.898   1.153
 1389TIP3    H2 4109   2.054   4.948   1.058
 1390TIP3   OH2 4110   0.641   4.573   1.884
 1390TIP3    H1 4111   0.736   4.571   1.898
 1390TIP3    H2 4112   0.609   4.492   1.924
 1391TIP3   OH2 4113   2.477   4.469   1.639
 1391TIP3    H1 4114   2.541   4.408   1.602
 1391TIP3    H2 4115   2.443   4.517   1.564
 1392TIP3   OH2 4116   1.927   4.329   0.416
 1392TIP3    H1 4117   1.972   4.307   0.498
 1392TIP3    H2 4118   1.861   4.261   0.406
 1393TIP3   OH2 4119   0.606   4.292   1.258
 1393TIP3    H1 4120   0.665   4.216   1.255
 1393TIP3    H2 4121   0.662   4.367   1.237
 1394TIP3   OH2 4122   0.393   4.551   1.291
 1394TIP3    H1 4123   0.443   4.546   1.210
 1394TIP3    H2 4124   0.415   4.637   1.328
 1395TIP3   OH2 4125   2.333   4.584   1.437
 1395TIP3    H1 4126   2.247   4.622   1.454
 1395TIP3    H2 4127   2.315   4.505   1.386
 1396TIP3   OH2 4128   2.037   4.241   0.034
 1396TIP3    H1 4129   2.112   4.184   0.051
 1396TIP3    H2 4130   2.069   4.330   0.049
 1397TIP3   OH2 4131   0.612   4.108   1.616
 1397TIP3    H1 4132   0.565   4.110   1.699
 1397TIP3    H2 4133   0.557   4.160   1.557
 1398TIP3   OH2 4134   0.675   5.541   1.700
 1398TIP3    H1 4135   0.580   5.534   1.696
 1398TIP3    H2 4136   0.691   5.604   1.770
 1399TIP3   OH2 4137   0.818   5.611   1.243
 1399TIP3    H1 4138   0.754   5.681   1.227
 1399TIP3    H2 4139   0.890   5.631   1.183
 1400TIP3   OH2 4140   1.254   5.848   1.373
 1400TIP3    H1 4141   1.293   5.837   1.460
 1400TIP3    H2 4142   1.319   5.898   1.324
 1401TIP3   OH2 4143   1.441   6.001   1.242
 1401TIP3    H1 4144   1.499   5.946   1.190
 1401TIP3    H2 4145   1.500   6.053   1.297
 1402TIP3   OH2 4146   2.246   4.336   1.335
 1402TIP3    H1 4147   2.158   4.322   1.300
 1402TIP3    H2 4148   2.289   4.251   1.327
 1403TIP3   OH2 4149   1.208   5.912   0.880
 1403TIP3    H1 4150   1.142   5.847   0.906
 1403TIP3    H2 4151   1.197   5.984   0.941
 1404TIP3   OH2 4152   1.434   5.793   0.989
 1404TIP3    H1 4153   1.339   5.802   0.979
 1404TIP3    H2 4154   1.471   5.860   0.931
 1405TIP3   OH2 4155   1.627   5.988   0.882
 1405TIP3    H1 4156   1.584   6.055   0.830
 1405TIP3    H2 4157   1.665   5.928   0.817
 1406TIP3   OH2 4158   1.436   4.297   1.017
 1406TIP3    H1 4159   1.391   4.222   1.055
 1406TIP3    H2 4160   1.521   4.263   0.988
 1407TIP3   OH2 4161   1.959   4.149   0.848
 1407TIP3    H1 4162   2.003   4.200   0.780
 1407TIP3    H2 4163   1.892   4.208   0.883
 1408TIP3   OH2 4164   2.081   4.261   0.632
 1408TIP3    H1 4165   2.151   4.201   0.608
 1408TIP3    H2 4166   2.121   4.348   0.625
 1409TIP3   OH2 4167   0.631   4.018   0.956
 1409TIP3    H1 4168   0.550   3.977   0.927
 1409TIP3    H2 4169   0.692   3.946   0.968
 1410TIP3   OH2 4170   1.101   4.038   0.887
 1410TIP3    H1 4171   1.094   4.079   0.801
 1410TIP3    H2 4172   1.130   4.108   0.945
 1411TIP3   OH2 4173   1.689   4.217   0.934
 1411TIP3    H1 4174   1.683   4.202   0.840
 1411TIP3    H2 4175   1.703   4.130   0.972
 1412TIP3   OH2 4176   1.732   4.127   0.415
 1412TIP3    H1 4177   1.648   4.127   0.369
 1412TIP3    H2 4178   1.708   4.139   0.507
 1413TIP3   OH2 4179   0.959   4.300   0.521
 1413TIP3    H1 4180   0.970   4.213   0.560
 1413TIP3    H2 4181   1.037   4.348   0.547
 1414TIP3   OH2 4182   0.915   4.243   1.852
 1414TIP3    H1 4183   0.879   4.177   1.911
 1414TIP3    H2 4184   1.007   4.250   1.877
 1415TIP3   OH2 4185   1.165   4.246   1.971
 1415TIP3    H1 4186   1.245   4.227   1.921
 1415TIP3    H2 4187   1.162   4.177   2.037
 1416TIP3   OH2 4188   1.990   4.334   1.765
 1416TIP3    H1 4189   2.007   4.304   1.854
 1416TIP3    H2 4190   2.075   4.328   1.721
 1417TIP3   OH2 4191   1.911   5.867   1.268
 1417TIP3    H1 4192   1.837   5.835   1.216
 1417TIP3    H2 4193   1.896   5.961   1.276
 1418TIP3   OH2 4194   3.181   5.267   0.051
 1418TIP3    H1 4195   3.159   5.352   0.015
 1418TIP3    H2 4196   3.103   5.213   0.037
 1419TIP3   OH2 4197   3.175   5.246   0.435
 1419TIP3    H1 4198   3.226   5.228   0.514
 1419TIP3    H2 4199   3.134   5.162   0.413
 1420TIP3   OH2 4200   2.481   5.116   0.780
 1420TIP3    H1 4201   2.513   5.059   0.850
 1420TIP3    H2 4202   2.560   5.150   0.739
 1421TIP3   OH2 4203   3.448   5.554   0.104
 1421TIP3    H1 4204   3.417   5.472   0.142
 1421TIP3    H2 4205   3.478   5.606   0.179
 1422TIP3   OH2 4206   2.470   5.535   0.474
 1422TIP3    H1 4207   2.453   5.441   0.483
 1422TIP3    H2 4208   2.566   5.542   0.470
 1423TIP3   OH2 4209   2.161   4.745   0.251
 1423TIP3    H1 4210   2.125   4.829   0.282
 1423TIP3    H2 4211   2.085   4.700   0.214
 1424TIP3   OH2 4212   2.236   5.049   0.461
 1424TIP3    H1 4213   2.285   4.972   0.491
 1424TIP3    H2 4214   2.303   5.114   0.441
 1425TIP3   OH2 4215   3.087   5.918   0.109
 1425TIP3    H1 4216   3.152   5.874   0.163
 1425TIP3    H2 4217   3.039   5.975   0.169
 1426TIP3   OH2 4218   2.988   5.469   0.439
 1426TIP3    H1 4219   3.031   5.387   0.413
 1426TIP3    H2 4220   3.060   5.526   0.467
 1427TIP3   OH2 4221   4.006   4.788   0.467
 1427TIP3    H1 4222   4.026   4.875   0.503
 1427TIP3    H2 4223   4.041   4.791   0.378
 1428TIP3   OH2 4224   3.400   4.960   0.480
 1428TIP3    H1 4225   3.435   4.875   0.506
 1428TIP3    H2 4226   3.366   4.947   0.392
 1429TIP3   OH2 4227   2.752   4.623   0.438
 1429TIP3    H1 4228   2.733   4.696   0.378
 1429TIP3    H2 4229   2.699   4.551   0.406
 1430TIP3   OH2 4230   3.435   4.711   0.084
 1430TIP3    H1 4231   3.494   4.691   0.156
 1430TIP3    H2 4232   3.490   4.751   0.017
 1431TIP3   OH2 4233   2.376   4.831   0.557
 1431TIP3    H1 4234   2.457   4.813   0.604
 1431TIP3    H2 4235   2.383   4.779   0.477
 1432TIP3   OH2 4236   2.803   5.028   0.375
 1432TIP3    H1 4237   2.897   5.012   0.383
 1432TIP3    H2 4238   2.768   4.947   0.339
 1433TIP3   OH2 4239   4.076   5.007   0.631
 1433TIP3    H1 4240   3.987   5.043   0.620
 1433TIP3    H2 4241   4.107   5.045   0.713
 1434TIP3   OH2 4242   2.736   4.619   0.884
 1434TIP3    H1 4243   2.682   4.654   0.814
 1434TIP3    H2 4244   2.682   4.628   0.963
 1435TIP3   OH2 4245   0.189   1.414   6.929
 1435TIP3    H1 4246   0.109   1.382   6.887
 1435TIP3    H2 4247   0.173   1.507   6.942
 1436TIP3   OH2 4248   2.831   5.397   0.657
 1436TIP3    H1 4249   2.775   5.467   0.691
 1436TIP3    H2 4250   2.879   5.437   0.584
 1437TIP3   OH2 4251   3.613   4.723   0.295
 1437TIP3    H1 4252   3.570   4.708   0.380
 1437TIP3    H2 4253   3.666   4.801   0.309
 1438TIP3   OH2 4254   2.619   4.729   0.657
 1438TIP3    H1 4255   2.674   4.803   0.683
 1438TIP3    H2 4256   2.668   4.686   0.587
 1439TIP3   OH2 4257   2.667   5.597   0.759
 1439TIP3    H1 4258   2.650   5.685   0.726
 1439TIP3    H2 4259   2.591   5.575   0.812
 1440TIP3   OH2 4260   7.798   1.205   7.038
 1440TIP3    H1 4261   7.768   1.208   6.947
 1440TIP3    H2 4262   7.803   1.297   7.065
 1441TIP3   OH2 4263   3.514   5.781   0.259
 1441TIP3    H1 4264   3.429   5.778   0.303
 1441TIP3    H2 4265   3.496   5.826   0.177
 1442TIP3   OH2 4266   3.804   4.681   0.626
 1442TIP3    H1 4267   3.719   4.704   0.589
 1442TIP3    H2 4268   3.867   4.711   0.560
 1443TIP3   OH2 4269   3.074   4.313   0.609
 1443TIP3    H1 4270   3.068   4.221   0.636
 1443TIP3    H2 4271   2.999   4.355   0.649
 1444TIP3   OH2 4272   3.704   5.689   0.606
 1444TIP3    H1 4273   3.689   5.611   0.553
 1444TIP3    H2 4274   3.700   5.761   0.544
 1445TIP3   OH2 4275   0.131   1.062   6.917
 1445TIP3    H1 4276   0.054   1.105   6.880
 1445TIP3    H2 4277   0.199   1.074   6.851
 1446TIP3   OH2 4278   3.904   5.343   0.454
 1446TIP3    H1 4279   3.820   5.388   0.463
 1446TIP3    H2 4280   3.924   5.349   0.361
 1447TIP3   OH2 4281   0.434   1.041   6.893
 1447TIP3    H1 4282   0.407   1.109   6.954
 1447TIP3    H2 4283   0.529   1.038   6.899
 1448TIP3   OH2 4284   3.594   5.214   0.761
 1448TIP3    H1 4285   3.590   5.294   0.812
 1448TIP3    H2 4286   3.512   5.212   0.713
 1449TIP3   OH2 4287   2.601   5.164   0.242
 1449TIP3    H1 4288   2.562   5.101   0.181
 1449TIP3    H2 4289   2.676   5.118   0.280
 1450TIP3   OH2 4290   2.734   5.581   0.379
 1450TIP3    H1 4291   2.708   5.563   0.289
 1450TIP3    H2 4292   2.822   5.543   0.387
 1451TIP3   OH2 4293   2.704   5.159   0.602
 1451TIP3    H1 4294   2.743   5.123   0.523
 1451TIP3    H2 4295   2.754   5.239   0.619
 1452TIP3   OH2 4296   3.264   5.789   0.365
 1452TIP3    H1 4297   3.242   5.869   0.413
 1452TIP3    H2 4298   3.244   5.718   0.427
 1453TIP3   OH2 4299   2.865   5.695   0.927
 1453TIP3    H1 4300   2.805   5.754   0.972
 1453TIP3    H2 4301   2.808   5.643   0.870
 1454TIP3   OH2 4302   2.625   5.250   1.050
 1454TIP3    H1 4303   2.628   5.342   1.077
 1454TIP3    H2 4304   2.531   5.229   1.049
 1455TIP3   OH2 4305   0.103   1.678   6.955
 1455TIP3    H1 4306   0.147   1.743   7.010
 1455TIP3    H2 4307   0.010   1.701   6.960
 1456TIP3   OH2 4308   2.658   5.859   1.006
 1456TIP3    H1 4309   2.630   5.868   0.915
 1456TIP3    H2 4310   2.576   5.842   1.054
 1457TIP3   OH2 4311   2.471   4.991   0.062
 1457TIP3    H1 4312   2.397   5.030   0.015
 1457TIP3    H2 4313   2.435   4.911   0.101
 1458TIP3   OH2 4314   2.251   5.407   0.958
 1458TIP3    H1 4315   2.181   5.389   0.895
 1458TIP3    H2 4316   2.285   5.321   0.982
 1459TIP3   OH2 4317   2.109   5.595   0.603
 1459TIP3    H1 4318   2.203   5.608   0.616
 1459TIP3    H2 4319   2.069   5.671   0.644
 1460TIP3   OH2 4320   3.922   6.022   0.688
 1460TIP3    H1 4321   3.935   5.944   0.742
 1460TIP3    H2 4322   3.835   6.053   0.712
 1461TIP3   OH2 4323   3.053   5.833   0.786
 1461TIP3    H1 4324   3.049   5.925   0.813
 1461TIP3    H2 4325   2.987   5.789   0.838
 1462TIP3   OH2 4326   2.241   5.806   0.141
 1462TIP3    H1 4327   2.318   5.810   0.198
 1462TIP3    H2 4328   2.173   5.768   0.197
 1463TIP3   OH2 4329   3.831   5.163   0.935
 1463TIP3    H1 4330   3.753   5.174   0.880
 1463TIP3    H2 4331   3.852   5.070   0.930
 1464TIP3   OH2 4332   2.450   5.595   0.930
 1464TIP3    H1 4333   2.501   5.582   1.010
 1464TIP3    H2 4334   2.379   5.531   0.936
 1465TIP3   OH2 4335   2.840   4.407   0.734
 1465TIP3    H1 4336   2.754   4.372   0.708
 1465TIP3    H2 4337   2.820   4.485   0.785
 1466TIP3   OH2 4338   3.381   4.521   0.935
 1466TIP3    H1 4339   3.451   4.497   0.996
 1466TIP3    H2 4340   3.300   4.505   0.983
 1467TIP3   OH2 4341   3.601   4.950   0.852
 1467TIP3    H1 4342   3.560   4.946   0.938
 1467TIP3    H2 4343   3.583   5.038   0.820
 1468TIP3   OH2 4344   0.192   0.420   6.762
 1468TIP3    H1 4345   0.131   0.402   6.834
 1468TIP3    H2 4346   0.150   0.382   6.685
 1469TIP3   OH2 4347   2.776   4.936   0.751
 1469TIP3    H1 4348   2.729   4.943   0.834
 1469TIP3    H2 4349   2.755   5.017   0.704
 1470TIP3   OH2 4350   2.662   4.815   0.265
 1470TIP3    H1 4351   2.573   4.787   0.289
 1470TIP3    H2 4352   2.673   4.784   0.175
 1471TIP3   OH2 4353   0.270   0.852   7.023
 1471TIP3    H1 4354   0.202   0.916   7.000
 1471TIP3    H2 4355   0.346   0.877   6.970
 1472TIP3   OH2 4356   3.323   5.161   1.072
 1472TIP3    H1 4357   3.296   5.093   1.133
 1472TIP3    H2 4358   3.415   5.176   1.092
 1473TIP3   OH2 4359   3.306   4.912   0.227
 1473TIP3    H1 4360   3.238   4.938   0.165
 1473TIP3    H2 4361   3.347   4.836   0.188
 1474TIP3   OH2 4362   2.607   4.947   0.969
 1474TIP3    H1 4363   2.626   5.008   1.040
 1474TIP3    H2 4364   2.590   4.863   1.013
 1475TIP3   OH2 4365   8.363   0.424   6.702
 1475TIP3    H1 4366   8.369   0.392   6.792
 1475TIP3    H2 4367   8.344   0.346   6.650
 1476TIP3   OH2 4368   2.196   4.495   0.557
 1476TIP3    H1 4369   2.271   4.522   0.610
 1476TIP3    H2 4370   2.234   4.461   0.476
 1477TIP3   OH2 4371   2.175   4.474   0.074
 1477TIP3    H1 4372   2.237   4.477   0.001
 1477TIP3    H2 4373   2.130   4.558   0.071
 1478TIP3   OH2 4374   3.336   5.161   0.649
 1478TIP3    H1 4375   3.365   5.095   0.587
 1478TIP3    H2 4376   3.297   5.112   0.721
 1479TIP3   OH2 4377   3.018   4.614   0.323
 1479TIP3    H1 4378   2.940   4.614   0.379
 1479TIP3    H2 4379   3.091   4.604   0.384
 1480TIP3   OH2 4380   2.423   4.692   0.322
 1480TIP3    H1 4381   2.332   4.693   0.291
 1480TIP3    H2 4382   2.451   4.601   0.311
 1481TIP3   OH2 4383   8.421   0.647   7.036
 1481TIP3    H1 4384   8.517   0.655   7.035
 1481TIP3    H2 4385   8.394   0.675   6.949
 1482TIP3   OH2 4386   3.472   4.696   0.534
 1482TIP3    H1 4387   3.450   4.714   0.626
 1482TIP3    H2 4388   3.404   4.635   0.505
 1483TIP3   OH2 4389   8.296   0.680   6.788
 1483TIP3    H1 4390   8.203   0.658   6.796
 1483TIP3    H2 4391   8.334   0.607   6.739
 1484TIP3   OH2 4392   3.638   6.348   0.817
 1484TIP3    H1 4393   3.603   6.399   0.743
 1484TIP3    H2 4394   3.715   6.398   0.845
 1485TIP3   OH2 4395   2.610   5.511   1.161
 1485TIP3    H1 4396   2.690   5.530   1.208
 1485TIP3    H2 4397   2.541   5.513   1.227
 1486TIP3   OH2 4398   3.073   4.973   0.427
 1486TIP3    H1 4399   3.143   4.925   0.382
 1486TIP3    H2 4400   3.070   4.934   0.515
 1487TIP3   OH2 4401   2.571   4.448   0.311
 1487TIP3    H1 4402   2.541   4.375   0.364
 1487TIP3    H2 4403   2.612   4.407   0.234
 1488TIP3   OH2 4404   3.043   4.880   0.693
 1488TIP3    H1 4405   2.955   4.910   0.717
 1488TIP3    H2 4406   3.102   4.932   0.748
 1489TIP3   OH2 4407   8.496   1.192   6.833
 1489TIP3    H1 4408   8.448   1.109   6.830
 1489TIP3    H2 4409   8.480   1.225   6.922
 1490TIP3   OH2 4410   3.655   5.470   0.444
 1490TIP3    H1 4411   3.689   5.506   0.362
 1490TIP3    H2 4412   3.574   5.426   0.419
 1491TIP3   OH2 4413   3.177   5.564   0.810
 1491TIP3    H1 4414   3.227   5.552   0.891
 1491TIP3    H2 4415   3.136   5.651   0.820
 1492TIP3   OH2 4416   2.464   5.243   0.467
 1492TIP3    H1 4417   2.505   5.228   0.382
 1492TIP3    H2 4418   2.528   5.212   0.531
 1493TIP3   OH2 4419   2.354   5.180   1.090
 1493TIP3    H1 4420   2.361   5.159   1.183
 1493TIP3    H2 4421   2.281   5.127   1.058
 1494TIP3   OH2 4422   3.087   5.311   1.109
 1494TIP3    H1 4423   3.019   5.251   1.080
 1494TIP3    H2 4424   3.169   5.271   1.081
 1495TIP3   OH2 4425   3.324   5.834   0.724
 1495TIP3    H1 4426   3.228   5.830   0.721
 1495TIP3    H2 4427   3.344   5.880   0.805
 1496TIP3   OH2 4428   3.959   5.731   0.714
 1496TIP3    H1 4429   3.866   5.744   0.732
 1496TIP3    H2 4430   3.963   5.706   0.622
 1497TIP3   OH2 4431   3.430   5.346   0.333
 1497TIP3    H1 4432   3.338   5.322   0.347
 1497TIP3    H2 4433   3.468   5.269   0.291
 1498TIP3   OH2 4434   2.587   5.580   0.138
 1498TIP3    H1 4435   2.577   5.659   0.085
 1498TIP3    H2 4436   2.500   5.566   0.176
 1499TIP3   OH2 4437   7.866   0.829   6.834
 1499TIP3    H1 4438   7.924   0.900   6.864
 1499TIP3    H2 4439   7.792   0.831   6.894
 1500TIP3   OH2 4440   2.700   5.343   0.055
 1500TIP3    H1 4441   2.668   5.430   0.077
 1500TIP3    H2 4442   2.669   5.287   0.127
 1501TIP3   OH2 4443   2.867   5.902   0.583
 1501TIP3    H1 4444   2.902   5.980   0.541
 1501TIP3    H2 4445   2.940   5.867   0.634
 1502TIP3   OH2 4446   8.241   1.756   7.028
 1502TIP3    H1 4447   8.146   1.761   7.032
 1502TIP3    H2 4448   8.268   1.845   7.006
 1503TIP3   OH2 4449   3.229   5.570   0.538
 1503TIP3    H1 4450   3.216   5.566   0.633
 1503TIP3    H2 4451   3.299   5.507   0.521
 1504TIP3   OH2 4452   3.474   6.011   0.586
 1504TIP3    H1 4453   3.424   5.944   0.633
 1504TIP3    H2 4454   3.409   6.057   0.533
 1505TIP3   OH2 4455   2.561   4.695   1.092
 1505TIP3    H1 4456   2.465   4.698   1.094
 1505TIP3    H2 4457   2.585   4.633   1.161
 1506TIP3   OH2 4458   2.306   5.788   0.750
 1506TIP3    H1 4459   2.355   5.725   0.803
 1506TIP3    H2 4460   2.324   5.872   0.791
 1507TIP3   OH2 4461   8.277   1.353   6.736
 1507TIP3    H1 4462   8.342   1.299   6.781
 1507TIP3    H2 4463   8.319   1.379   6.654
 1508TIP3   OH2 4464   8.006   1.052   6.930
 1508TIP3    H1 4465   7.943   1.105   6.980
 1508TIP3    H2 4466   8.056   1.116   6.879
 1509TIP3   OH2 4467   3.408   4.757   0.794
 1509TIP3    H1 4468   3.486   4.801   0.827
 1509TIP3    H2 4469   3.399   4.679   0.848
 1510TIP3   OH2 4470   0.410   0.449   6.991
 1510TIP3    H1 4471   0.367   0.474   6.909
 1510TIP3    H2 4472   0.457   0.527   7.019
 1511TIP3   OH2 4473   2.963   4.699   0.063
 1511TIP3    H1 4474   3.027   4.765   0.037
 1511TIP3    H2 4475   2.982   4.683   0.156
 1512TIP3   OH2 4476   3.248   4.994   0.849
 1512TIP3    H1 4477   3.273   5.037   0.930
 1512TIP3    H2 4478   3.297   4.912   0.849
 1513TIP3   OH2 4479   3.112   4.400   0.164
 1513TIP3    H1 4480   3.091   4.478   0.216
 1513TIP3    H2 4481   3.178   4.431   0.101
 1514TIP3   OH2 4482   8.372   0.378   6.979
 1514TIP3    H1 4483   8.370   0.468   7.010
 1514TIP3    H2 4484   8.464   0.353   6.983
 1515TIP3   OH2 4485   3.865   4.893   0.839
 1515TIP3    H1 4486   3.770   4.902   0.848
 1515TIP3    H2 4487   3.878   4.839   0.762
 1516TIP3   OH2 4488   3.530   5.102   0.231
 1516TIP3    H1 4489   3.454   5.043   0.235
 1516TIP3    H2 4490   3.598   5.056   0.280
 1517TIP3   OH2 4491   8.038   1.502   6.749
 1517TIP3    H1 4492   7.981   1.426   6.742
 1517TIP3    H2 4493   8.127   1.467   6.750
 1518TIP3   OH2 4494   7.933   0.562   6.846
 1518TIP3    H1 4495   7.913   0.655   6.836
 1518TIP3    H2 4496   7.848   0.519   6.848
 1519TIP3   OH2 4497   3.448   6.064   0.158
 1519TIP3    H1 4498   3.415   6.065   0.068
 1519TIP3    H2 4499   3.543   6.076   0.149
 1520TIP3   OH2 4500   2.578   4.320   0.707
 1520TIP3    H1 4501   2.549   4.285   0.623
 1520TIP3    H2 4502   2.566   4.247   0.768
 1521TIP3   OH2 4503   2.074   5.529   0.068
 1521TIP3    H1 4504   2.070   5.576   0.151
 1521TIP3    H2 4505   2.093   5.596   0.003
 1522TIP3   OH2 4506   2.293   6.104   1.163
 1522TIP3    H1 4507   2.378   6.105   1.208
 1522TIP3    H2 4508   2.274   6.011   1.151
 1523TIP3   OH2 4509   2.762   6.026   1.200
 1523TIP3    H1 4510   2.855   6.002   1.208
 1523TIP3    H2 4511   2.731   5.971   1.128
 1524TIP3   OH2 4512   3.386   5.961   0.956
 1524TIP3    H1 4513   3.395   5.890   1.020
 1524TIP3    H2 4514   3.460   6.019   0.974
 1525TIP3   OH2 4515   2.405   5.506   1.351
 1525TIP3    H1 4516   2.424   5.413   1.360
 1525TIP3    H2 4517   2.319   5.510   1.309
 1526TIP3   OH2 4518   3.022   5.589   1.128
 1526TIP3    H1 4519   2.975   5.609   1.047
 1526TIP3    H2 4520   3.055   5.500   1.115
 1527TIP3   OH2 4521   3.488   5.613   0.755
 1527TIP3    H1 4522   3.564   5.647   0.708
 1527TIP3    H2 4523   3.420   5.679   0.741
 1528TIP3   OH2 4524   2.523   5.250   1.351
 1528TIP3    H1 4525   2.601   5.220   1.304
 1528TIP3    H2 4526   2.554   5.270   1.439
 1529TIP3   OH2 4527   8.352   0.957   6.848
 1529TIP3    H1 4528   8.312   0.950   6.934
 1529TIP3    H2 4529   8.340   0.871   6.808
 1530TIP3   OH2 4530   2.876   5.132   1.010
 1530TIP3    H1 4531   2.792   5.178   1.017
 1530TIP3    H2 4532   2.911   5.160   0.926
 1531TIP3   OH2 4533   3.382   5.508   1.109
 1531TIP3    H1 4534   3.450   5.470   1.054
 1531TIP3    H2 4535   3.378   5.452   1.186
 1532TIP3   OH2 4536   2.985   4.906   1.121
 1532TIP3    H1 4537   2.987   4.833   1.059
 1532TIP3    H2 4538   2.947   4.978   1.071
 1533TIP3   OH2 4539   2.994   4.703   0.922
 1533TIP3    H1 4540   3.021   4.739   0.837
 1533TIP3    H2 4541   2.903   4.676   0.909
 1534TIP3   OH2 4542   3.002   5.227   0.790
 1534TIP3    H1 4543   3.092   5.256   0.773
 1534TIP3    H2 4544   2.948   5.292   0.745
 1535TIP3   OH2 4545   3.590   5.187   1.173
 1535TIP3    H1 4546   3.627   5.099   1.185
 1535TIP3    H2 4547   3.664   5.240   1.144
 1536TIP3   OH2 4548   3.617   5.447   0.922
 1536TIP3    H1 4549   3.563   5.506   0.870
 1536TIP3    H2 4550   3.706   5.460   0.888
 1537TIP3   OH2 4551   2.866   4.997   1.362
 1537TIP3    H1 4552   2.799   4.932   1.383
 1537TIP3    H2 4553   2.897   4.971   1.274
 1538TIP3   OH2 4554   3.116   4.466   1.014
 1538TIP3    H1 4555   3.074   4.547   0.985
 1538TIP3    H2 4556   3.050   4.399   1.002
 1539TIP3   OH2 4557   3.241   4.947   1.221
 1539TIP3    H1 4558   3.231   4.935   1.315
 1539TIP3    H2 4559   3.155   4.926   1.185
 1540TIP3   OH2 4560   3.485   4.902   1.090
 1540TIP3    H1 4561   3.407   4.901   1.145
 1540TIP3    H2 4562   3.556   4.873   1.148
 1541TIP3   OH2 4563   3.722   4.861   1.237
 1541TIP3    H1 4564   3.736   4.767   1.246
 1541TIP3    H2 4565   3.716   4.893   1.327
 1542TIP3   OH2 4566   2.702   4.777   1.427
 1542TIP3    H1 4567   2.705   4.688   1.391
 1542TIP3    H2 4568   2.741   4.768   1.515
 1543TIP3   OH2 4569   3.188   4.453   1.280
 1543TIP3    H1 4570   3.257   4.387   1.274
 1543TIP3    H2 4571   3.155   4.461   1.190
 1544TIP3   OH2 4572   3.277   4.673   1.421
 1544TIP3    H1 4573   3.248   4.599   1.367
 1544TIP3    H2 4574   3.202   4.732   1.422
 1545TIP3   OH2 4575   7.739   1.155   6.773
 1545TIP3    H1 4576   7.765   1.222   6.710
 1545TIP3    H2 4577   7.780   1.075   6.740
 1546TIP3   OH2 4578   1.866   5.811   0.189
 1546TIP3    H1 4579   1.792   5.825   0.248
 1546TIP3    H2 4580   1.937   5.781   0.245
 1547TIP3   OH2 4581   2.071   5.716   0.346
 1547TIP3    H1 4582   2.061   5.644   0.408
 1547TIP3    H2 4583   2.114   5.785   0.396
 1548TIP3   OH2 4584   3.709   6.082   0.087
 1548TIP3    H1 4585   3.776   6.069   0.154
 1548TIP3    H2 4586   3.754   6.064   0.005
 1549TIP3   OH2 4587   3.709   6.199   0.488
 1549TIP3    H1 4588   3.716   6.104   0.481
 1549TIP3    H2 4589   3.779   6.233   0.432
 1550TIP3   OH2 4590   3.840   5.850   0.988
 1550TIP3    H1 4591   3.769   5.849   1.052
 1550TIP3    H2 4592   3.884   5.934   1.002
 1551TIP3   OH2 4593   3.806   5.572   0.244
 1551TIP3    H1 4594   3.853   5.506   0.193
 1551TIP3    H2 4595   3.800   5.648   0.187
 1552TIP3   OH2 4596   3.673   5.908   0.438
 1552TIP3    H1 4597   3.605   5.944   0.495
 1552TIP3    H2 4598   3.626   5.862   0.369
 1553TIP3   OH2 4599   0.694   1.024   6.975
 1553TIP3    H1 4600   0.716   0.931   6.972
 1553TIP3    H2 4601   0.697   1.047   7.068
 1554TIP3   OH2 4602   2.217   5.149   0.718
 1554TIP3    H1 4603   2.209   5.116   0.628
 1554TIP3    H2 4604   2.311   5.147   0.735
 1555TIP3   OH2 4605   3.872   5.491   0.829
 1555TIP3    H1 4606   3.938   5.422   0.821
 1555TIP3    H2 4607   3.904   5.560   0.771
 1556TIP3   OH2 4608   4.052   5.286   0.838
 1556TIP3    H1 4609   3.977   5.240   0.875
 1556TIP3    H2 4610   4.127   5.231   0.858
 1557TIP3   OH2 4611   0.771   0.758   6.942
 1557TIP3    H1 4612   0.780   0.664   6.929
 1557TIP3    H2 4613   0.857   0.794   6.922
 1558TIP3   OH2 4614   3.738   4.966   0.365
 1558TIP3    H1 4615   3.822   4.983   0.321
 1558TIP3    H2 4616   3.749   5.002   0.453
 1559TIP3   OH2 4617   3.816   5.118   0.592
 1559TIP3    H1 4618   3.741   5.151   0.643
 1559TIP3    H2 4619   3.847   5.195   0.544
 1560TIP3   OH2 4620   2.437   4.832   1.370
 1560TIP3    H1 4621   2.532   4.828   1.385
 1560TIP3    H2 4622   2.404   4.750   1.407
 1561TIP3   OH2 4623   4.279   4.725   1.128
 1561TIP3    H1 4624   4.343   4.664   1.091
 1561TIP3    H2 4625   4.242   4.771   1.053
 1562TIP3   OH2 4626   0.817   0.492   6.928
 1562TIP3    H1 4627   0.874   0.470   7.001
 1562TIP3    H2 4628   0.756   0.418   6.921
 1563TIP3   OH2 4629   2.413   4.543   0.718
 1563TIP3    H1 4630   2.466   4.464   0.729
 1563TIP3    H2 4631   2.477   4.613   0.705
 1564TIP3   OH2 4632   2.196   4.808   0.774
 1564TIP3    H1 4633   2.247   4.802   0.693
 1564TIP3    H2 4634   2.230   4.886   0.818
 1565TIP3   OH2 4635   4.129   4.837   0.930
 1565TIP3    H1 4636   4.047   4.877   0.958
 1565TIP3    H2 4637   4.102   4.763   0.876
 1566TIP3   OH2 4638   2.196   4.347   0.314
 1566TIP3    H1 4639   2.106   4.338   0.346
 1566TIP3    H2 4640   2.189   4.403   0.237
 1567TIP3   OH2 4641   2.409   4.417   1.117
 1567TIP3    H1 4642   2.356   4.386   1.191
 1567TIP3    H2 4643   2.345   4.440   1.050
 1568TIP3   OH2 4644   2.436   5.826   1.173
 1568TIP3    H1 4645   2.343   5.807   1.163
 1568TIP3    H2 4646   2.455   5.805   1.265
 1569TIP3   OH2 4647   2.633   5.874   0.723
 1569TIP3    H1 4648   2.582   5.945   0.684
 1569TIP3    H2 4649   2.719   5.880   0.682
 1570TIP3   OH2 4650   3.052   6.100   0.861
 1570TIP3    H1 4651   3.090   6.096   0.949
 1570TIP3    H2 4652   3.117   6.148   0.809
 1571TIP3   OH2 4653   3.244   6.257   0.736
 1571TIP3    H1 4654   3.315   6.258   0.672
 1571TIP3    H2 4655   3.281   6.300   0.814
 1572TIP3   OH2 4656   4.040   4.591   0.824
 1572TIP3    H1 4657   3.951   4.583   0.789
 1572TIP3    H2 4658   4.076   4.502   0.818
 1573TIP3   OH2 4659   2.312   6.115   0.766
 1573TIP3    H1 4660   2.221   6.135   0.745
 1573TIP3    H2 4661   2.337   6.180   0.832
 1574TIP3   OH2 4662   2.535   6.105   0.596
 1574TIP3    H1 4663   2.453   6.114   0.644
 1574TIP3    H2 4664   2.520   6.150   0.513
 1575TIP3   OH2 4665   2.950   6.122   0.443
 1575TIP3    H1 4666   2.892   6.129   0.367
 1575TIP3    H2 4667   2.933   6.202   0.493
 1576TIP3   OH2 4668   3.208   6.039   0.465
 1576TIP3    H1 4669   3.116   6.065   0.467
 1576TIP3    H2 4670   3.253   6.111   0.422
 1577TIP3   OH2 4671   3.359   6.232   0.355
 1577TIP3    H1 4672   3.347   6.321   0.321
 1577TIP3    H2 4673   3.391   6.182   0.280
 1578TIP3   OH2 4674   2.227   5.888   0.502
 1578TIP3    H1 4675   2.258   5.859   0.588
 1578TIP3    H2 4676   2.300   5.868   0.443
 1579TIP3   OH2 4677   2.424   5.776   0.347
 1579TIP3    H1 4678   2.436   5.693   0.395
 1579TIP3    H2 4679   2.511   5.816   0.348
 1580TIP3   OH2 4680   2.693   5.857   0.369
 1580TIP3    H1 4681   2.710   5.763   0.361
 1580TIP3    H2 4682   2.741   5.883   0.448
 1581TIP3   OH2 4683   3.246   4.518   0.458
 1581TIP3    H1 4684   3.206   4.445   0.506
 1581TIP3    H2 4685   3.314   4.478   0.405
 1582TIP3   OH2 4686   3.751   4.427   0.349
 1582TIP3    H1 4687   3.788   4.478   0.277
 1582TIP3    H2 4688   3.659   4.453   0.352
 1583TIP3   OH2 4689   3.866   4.502   0.110
 1583TIP3    H1 4690   3.934   4.442   0.078
 1583TIP3    H2 4691   3.899   4.589   0.091
 1584TIP3   OH2 4692   2.497   4.227   0.456
 1584TIP3    H1 4693   2.409   4.194   0.475
 1584TIP3    H2 4694   2.553   4.149   0.460
 1585TIP3   OH2 4695   2.283   4.162   0.123
 1585TIP3    H1 4696   2.322   4.226   0.063
 1585TIP3    H2 4697   2.268   4.210   0.204
 1586TIP3   OH2 4698   2.955   4.262   0.352
 1586TIP3    H1 4699   3.007   4.307   0.286
 1586TIP3    H2 4700   2.996   4.286   0.435
 1587TIP3   OH2 4701   3.461   4.407   0.325
 1587TIP3    H1 4702   3.476   4.374   0.236
 1587TIP3    H2 4703   3.464   4.328   0.380
 1588TIP3   OH2 4704   0.639   0.288   6.942
 1588TIP3    H1 4705   0.553   0.330   6.951
 1588TIP3    H2 4706   0.624   0.198   6.971
 1589TIP3   OH2 4707   8.125   0.259   6.948
 1589TIP3    H1 4708   8.143   0.193   6.881
 1589TIP3    H2 4709   8.209   0.305   6.960
 1590TIP3   OH2 4710   0.044   0.390   6.995
 1590TIP3    H1 4711   0.101   0.341   7.054
 1590TIP3    H2 4712   0.060   0.482   7.017
 1591TIP3   OH2 4713   2.712   4.505   1.349
 1591TIP3    H1 4714   2.675   4.436   1.404
 1591TIP3    H2 4715   2.804   4.510   1.374
 1592TIP3   OH2 4716   2.963   4.504   1.465
 1592TIP3    H1 4717   3.042   4.481   1.415
 1592TIP3    H2 4718   2.955   4.435   1.530
 1593TIP3   OH2 4719   3.785   4.590   1.252
 1593TIP3    H1 4720   3.800   4.560   1.341
 1593TIP3    H2 4721   3.871   4.584   1.210
 1594TIP3   OH2 4722   3.673   6.084   0.772
 1594TIP3    H1 4723   3.602   6.059   0.713
 1594TIP3    H2 4724   3.660   6.178   0.785
 1595TIP3   OH2 4725   4.281   5.288   0.199
 1595TIP3    H1 4726   4.287   5.245   0.285
 1595TIP3    H2 4727   4.265   5.380   0.220
 1596TIP3   OH2 4728   4.159   5.062   0.069
 1596TIP3    H1 4729   4.205   5.142   0.095
 1596TIP3    H2 4730   4.124   5.082  -0.017
 1597TIP3   OH2 4731   4.522   4.846   0.395
 1597TIP3    H1 4732   4.461   4.857   0.322
 1597TIP3    H2 4733   4.474   4.876   0.472
 1598TIP3   OH2 4734   4.685   5.653   0.180
 1598TIP3    H1 4735   4.624   5.726   0.168
 1598TIP3    H2 4736   4.770   5.690   0.155
 1599TIP3   OH2 4737   4.405   4.896   0.156
 1599TIP3    H1 4738   4.439   4.985   0.171
 1599TIP3    H2 4739   4.402   4.888   0.061
 1600TIP3   OH2 4740   4.505   5.857   0.179
 1600TIP3    H1 4741   4.447   5.886   0.108
 1600TIP3    H2 4742   4.465   5.892   0.258
 1601TIP3   OH2 4743   4.845   4.532   0.149
 1601TIP3    H1 4744   4.830   4.437   0.157
 1601TIP3    H2 4745   4.759   4.571   0.163
 1602TIP3   OH2 4746   4.668   5.960   0.364
 1602TIP3    H1 4747   4.608   5.903   0.412
 1602TIP3    H2 4748   4.661   5.929   0.273
 1603TIP3   OH2 4749   4.403   5.463   0.595
 1603TIP3    H1 4750   4.417   5.547   0.640
 1603TIP3    H2 4751   4.310   5.445   0.608
 1604TIP3   OH2 4752   4.495   6.004   0.652
 1604TIP3    H1 4753   4.480   6.006   0.557
 1604TIP3    H2 4754   4.410   5.979   0.689
 1605TIP3   OH2 4755   3.969   5.669   0.443
 1605TIP3    H1 4756   3.897   5.641   0.387
 1605TIP3    H2 4757   4.041   5.610   0.420
 1606TIP3   OH2 4758   3.840   5.811   0.108
 1606TIP3    H1 4759   3.902   5.871   0.066
 1606TIP3    H2 4760   3.754   5.838   0.073
 1607TIP3   OH2 4761   5.702   5.399   0.393
 1607TIP3    H1 4762   5.787   5.423   0.357
 1607TIP3    H2 4763   5.695   5.305   0.378
 1608TIP3   OH2 4764   4.270   5.728   0.474
 1608TIP3    H1 4765   4.325   5.721   0.552
 1608TIP3    H2 4766   4.193   5.777   0.504
 1609TIP3   OH2 4767   4.607   4.642   0.237
 1609TIP3    H1 4768   4.521   4.617   0.204
 1609TIP3    H2 4769   4.590   4.711   0.301
 1610TIP3   OH2 4770   5.204   4.772   0.458
 1610TIP3    H1 4771   5.276   4.755   0.518
 1610TIP3    H2 4772   5.126   4.744   0.505
 1611TIP3   OH2 4773   5.402   5.202   0.270
 1611TIP3    H1 4774   5.392   5.186   0.364
 1611TIP3    H2 4775   5.316   5.234   0.243
 1612TIP3   OH2 4776   4.523   5.138   0.206
 1612TIP3    H1 4777   4.450   5.161   0.263
 1612TIP3    H2 4778   4.554   5.223   0.172
 1613TIP3   OH2 4779   5.117   5.355   0.547
 1613TIP3    H1 4780   5.073   5.304   0.615
 1613TIP3    H2 4781   5.192   5.395   0.592
 1614TIP3   OH2 4782   4.351   5.170   0.434
 1614TIP3    H1 4783   4.393   5.236   0.490
 1614TIP3    H2 4784   4.349   5.091   0.487
 1615TIP3   OH2 4785   3.992   4.731   0.034
 1615TIP3    H1 4786   4.041   4.760   0.111
 1615TIP3    H2 4787   4.056   4.735  -0.037
 1616TIP3   OH2 4788   4.414   5.713   0.718
 1616TIP3    H1 4789   4.484   5.745   0.775
 1616TIP3    H2 4790   4.333   5.740   0.761
 1617TIP3   OH2 4791   4.808   5.155   0.132
 1617TIP3    H1 4792   4.740   5.091   0.154
 1617TIP3    H2 4793   4.889   5.115   0.163
 1618TIP3   OH2 4794   4.937   5.781   0.215
 1618TIP3    H1 4795   5.026   5.755   0.192
 1618TIP3    H2 4796   4.946   5.871   0.248
 1619TIP3   OH2 4797   4.133   5.407   0.606
 1619TIP3    H1 4798   4.127   5.377   0.697
 1619TIP3    H2 4799   4.054   5.374   0.564
 1620TIP3   OH2 4800   4.960   5.549   0.670
 1620TIP3    H1 4801   4.881   5.505   0.639
 1620TIP3    H2 4802   5.031   5.513   0.616
 1621TIP3   OH2 4803   4.349   4.939   0.594
 1621TIP3    H1 4804   4.254   4.949   0.604
 1621TIP3    H2 4805   4.376   4.890   0.672
 1622TIP3   OH2 4806   4.154   6.052   0.262
 1622TIP3    H1 4807   4.111   6.000   0.330
 1622TIP3    H2 4808   4.088   6.059   0.192
 1623TIP3   OH2 4809   5.275   4.954   0.246
 1623TIP3    H1 4810   5.335   5.028   0.246
 1623TIP3    H2 4811   5.277   4.921   0.336
 1624TIP3   OH2 4812   5.143   5.280   0.284
 1624TIP3    H1 4813   5.135   5.298   0.378
 1624TIP3    H2 4814   5.101   5.195   0.273
 1625TIP3   OH2 4815   5.681   5.137   0.293
 1625TIP3    H1 4816   5.592   5.139   0.258
 1625TIP3    H2 4817   5.721   5.060   0.252
 1626TIP3   OH2 4818   4.344   4.568   0.207
 1626TIP3    H1 4819   4.317   4.541   0.120
 1626TIP3    H2 4820   4.349   4.487   0.258
 1627TIP3   OH2 4821   4.126   6.172   0.799
 1627TIP3    H1 4822   4.108   6.259   0.835
 1627TIP3    H2 4823   4.043   6.142   0.764
 1628TIP3   OH2 4824   4.518   6.257   0.787
 1628TIP3    H1 4825   4.504   6.194   0.857
 1628TIP3    H2 4826   4.536   6.203   0.710
 1629TIP3   OH2 4827   5.329   6.105   0.483
 1629TIP3    H1 4828   5.234   6.105   0.474
 1629TIP3    H2 4829   5.361   6.137   0.398
 1630TIP3   OH2 4830   4.184   5.726   0.884
 1630TIP3    H1 4831   4.201   5.632   0.888
 1630TIP3    H2 4832   4.104   5.734   0.833
 1631TIP3   OH2 4833   4.779   5.756   0.688
 1631TIP3    H1 4834   4.798   5.730   0.597
 1631TIP3    H2 4835   4.833   5.698   0.741
 1632TIP3   OH2 4836   4.311   5.471   0.874
 1632TIP3    H1 4837   4.385   5.439   0.823
 1632TIP3    H2 4838   4.350   5.510   0.952
 1633TIP3   OH2 4839   4.549   5.391   0.377
 1633TIP3    H1 4840   4.498   5.424   0.450
 1633TIP3    H2 4841   4.640   5.401   0.405
 1634TIP3   OH2 4842   5.227   5.859   0.566
 1634TIP3    H1 4843   5.259   5.818   0.486
 1634TIP3    H2 4844   5.196   5.787   0.620
 1635TIP3   OH2 4845   4.729   5.084   0.703
 1635TIP3    H1 4846   4.765   4.996   0.699
 1635TIP3    H2 4847   4.684   5.096   0.619
 1636TIP3   OH2 4848   4.787   4.871   0.525
 1636TIP3    H1 4849   4.859   4.934   0.518
 1636TIP3    H2 4850   4.713   4.915   0.483
 1637TIP3   OH2 4851   4.830   5.447   0.287
 1637TIP3    H1 4852   4.906   5.462   0.231
 1637TIP3    H2 4853   4.758   5.490   0.242
 1638TIP3   OH2 4854   5.401   5.351   0.774
 1638TIP3    H1 4855   5.443   5.266   0.785
 1638TIP3    H2 4856   5.473   5.414   0.782
 1639TIP3   OH2 4857   5.421   5.774   0.375
 1639TIP3    H1 4858   5.388   5.805   0.290
 1639TIP3    H2 4859   5.508   5.739   0.355
 1640TIP3   OH2 4860   4.624   5.270   0.870
 1640TIP3    H1 4861   4.552   5.229   0.917
 1640TIP3    H2 4862   4.652   5.204   0.806
 1641TIP3   OH2 4863   4.929   4.649   0.487
 1641TIP3    H1 4864   4.874   4.728   0.493
 1641TIP3    H2 4865   4.867   4.577   0.485
 1642TIP3   OH2 4866   4.936   5.265   0.759
 1642TIP3    H1 4867   4.916   5.237   0.848
 1642TIP3    H2 4868   4.894   5.200   0.703
 1643TIP3   OH2 4869   5.279   5.108   0.508
 1643TIP3    H1 4870   5.239   5.143   0.587
 1643TIP3    H2 4871   5.371   5.095   0.531
 1644TIP3   OH2 4872   5.525   5.112   0.826
 1644TIP3    H1 4873   5.495   5.021   0.822
 1644TIP3    H2 4874   5.514   5.137   0.918
 1645TIP3   OH2 4875   4.491   5.022   0.930
 1645TIP3    H1 4876   4.500   4.938   0.885
 1645TIP3    H2 4877   4.531   5.007   1.016
 1646TIP3   OH2 4878   5.010   4.747   0.742
 1646TIP3    H1 4879   5.073   4.677   0.760
 1646TIP3    H2 4880   4.958   4.714   0.668
 1647TIP3   OH2 4881   5.059   4.943   0.927
 1647TIP3    H1 4882   5.041   4.875   0.863
 1647TIP3    H2 4883   4.978   4.995   0.930
 1648TIP3   OH2 4884   5.613   6.175   0.442
 1648TIP3    H1 4885   5.553   6.172   0.517
 1648TIP3    H2 4886   5.641   6.267   0.437
 1649TIP3   OH2 4887   3.992   5.372   0.182
 1649TIP3    H1 4888   4.025   5.362   0.093
 1649TIP3    H2 4889   4.063   5.415   0.229
 1650TIP3   OH2 4890   4.231   5.085   0.870
 1650TIP3    H1 4891   4.326   5.082   0.887
 1650TIP3    H2 4892   4.198   5.002   0.903
 1651TIP3   OH2 4893   6.104   4.969   0.690
 1651TIP3    H1 4894   6.146   4.904   0.634
 1651TIP3    H2 4895   6.102   5.049   0.637
 1652TIP3   OH2 4896   4.168   4.779   0.241
 1652TIP3    H1 4897   4.225   4.703   0.242
 1652TIP3    H2 4898   4.224   4.851   0.212
 1653TIP3   OH2 4899   3.985   5.058   0.285
 1653TIP3    H1 4900   4.042   5.035   0.211
 1653TIP3    H2 4901   3.998   5.152   0.297
 1654TIP3   OH2 4902   5.848   5.081   0.512
 1654TIP3    H1 4903   5.788   5.103   0.441
 1654TIP3    H2 4904   5.932   5.119   0.485
 1655TIP3   OH2 4905   4.196   4.627   0.590
 1655TIP3    H1 4906   4.150   4.621   0.673
 1655TIP3    H2 4907   4.139   4.678   0.533
 1656TIP3   OH2 4908   4.237   5.951   0.697
 1656TIP3    H1 4909   4.174   5.946   0.625
 1656TIP3    H2 4910   4.209   6.026   0.750
 1657TIP3   OH2 4911   5.815   4.906   0.217
 1657TIP3    H1 4912   5.749   4.869   0.158
 1657TIP3    H2 4913   5.886   4.843   0.215
 1658TIP3   OH2 4914   4.125   6.448   0.185
 1658TIP3    H1 4915   4.129   6.357   0.156
 1658TIP3    H2 4916   4.175   6.450   0.266
 1659TIP3   OH2 4917   1.399   0.419   6.986
 1659TIP3    H1 4918   1.312   0.379   6.986
 1659TIP3    H2 4919   1.458   0.348   6.959
 1660TIP3   OH2 4920   4.506   4.756   0.828
 1660TIP3    H1 4921   4.472   4.689   0.887
 1660TIP3    H2 4922   4.599   4.763   0.851
 1661TIP3   OH2 4923   4.755   4.763   0.955
 1661TIP3    H1 4924   4.840   4.740   0.917
 1661TIP3    H2 4925   4.740   4.695   1.021
 1662TIP3   OH2 4926   5.483   4.848   0.825
 1662TIP3    H1 4927   5.519   4.810   0.905
 1662TIP3    H2 4928   5.555   4.844   0.762
 1663TIP3   OH2 4929   6.604   5.010   0.470
 1663TIP3    H1 4930   6.545   4.991   0.396
 1663TIP3    H2 4931   6.545   5.035   0.541
 1664TIP3   OH2 4932   0.337   6.034   1.778
 1664TIP3    H1 4933   0.389   5.957   1.754
 1664TIP3    H2 4934   0.248   6.001   1.786
 1665TIP3   OH2 4935   1.875   6.371   0.588
 1665TIP3    H1 4936   1.897   6.447   0.641
 1665TIP3    H2 4937   1.824   6.406   0.515
 1666TIP3   OH2 4938   1.923   6.573   0.770
 1666TIP3    H1 4939   1.839   6.616   0.755
 1666TIP3    H2 4940   1.948   6.601   0.858
 1667TIP3   OH2 4941   1.719   6.276   0.797
 1667TIP3    H1 4942   1.630   6.251   0.772
 1667TIP3    H2 4943   1.762   6.297   0.714
 1668TIP3   OH2 4944   1.700   6.736   1.117
 1668TIP3    H1 4945   1.619   6.772   1.081
 1668TIP3    H2 4946   1.699   6.644   1.091
 1669TIP3   OH2 4947   1.212   6.090   1.101
 1669TIP3    H1 4948   1.281   6.055   1.157
 1669TIP3    H2 4949   1.131   6.054   1.137
 1670TIP3   OH2 4950   1.468   6.556   1.010
 1670TIP3    H1 4951   1.417   6.535   1.088
 1670TIP3    H2 4952   1.423   6.632   0.972
 1671TIP3   OH2 4953   1.234   6.730   1.257
 1671TIP3    H1 4954   1.193   6.675   1.324
 1671TIP3    H2 4955   1.327   6.729   1.279
 1672TIP3   OH2 4956   1.264   6.331   0.984
 1672TIP3    H1 4957   1.357   6.341   1.003
 1672TIP3    H2 4958   1.241   6.245   1.020
 1673TIP3   OH2 4959   1.722   6.474   0.991
 1673TIP3    H1 4960   1.628   6.495   0.995
 1673TIP3    H2 4961   1.729   6.407   0.924
 1674TIP3   OH2 4962   1.188   6.994   1.375
 1674TIP3    H1 4963   1.204   6.947   1.293
 1674TIP3    H2 4964   1.221   6.934   1.443
 1675TIP3   OH2 4965   1.494   6.729   1.358
 1675TIP3    H1 4966   1.538   6.643   1.358
 1675TIP3    H2 4967   1.559   6.789   1.321
 1676TIP3   OH2 4968   1.548   6.979   1.061
 1676TIP3    H1 4969   1.470   7.030   1.083
 1676TIP3    H2 4970   1.610   7.044   1.027
 1677TIP3   OH2 4971   0.953   5.990   1.156
 1677TIP3    H1 4972   0.860   5.996   1.132
 1677TIP3    H2 4973   0.981   5.904   1.125
 1678TIP3   OH2 4974   1.142   6.521   1.408
 1678TIP3    H1 4975   1.176   6.498   1.495
 1678TIP3    H2 4976   1.050   6.495   1.410
 1679TIP3   OH2 4977   1.363   6.460   1.243
 1679TIP3    H1 4978   1.289   6.458   1.304
 1679TIP3    H2 4979   1.438   6.431   1.296
 1680TIP3   OH2 4980   1.584   6.411   1.402
 1680TIP3    H1 4981   1.590   6.315   1.406
 1680TIP3    H2 4982   1.570   6.437   1.493
 1681TIP3   OH2 4983   1.036   6.010   1.421
 1681TIP3    H1 4984   1.103   5.942   1.414
 1681TIP3    H2 4985   0.990   6.008   1.338
 1682TIP3   OH2 4986   1.135   6.226   1.557
 1682TIP3    H1 4987   1.111   6.150   1.505
 1682TIP3    H2 4988   1.054   6.276   1.567
 1683TIP3   OH2 4989   1.740   7.424   1.129
 1683TIP3    H1 4990   1.693   7.450   1.208
 1683TIP3    H2 4991   1.763   7.506   1.087
 1684TIP3   OH2 4992   1.807   7.100   0.970
 1684TIP3    H1 4993   1.843   7.014   0.949
 1684TIP3    H2 4994   1.771   7.133   0.887
 1685TIP3   OH2 4995   1.882   6.835   0.941
 1685TIP3    H1 4996   1.819   6.805   1.006
 1685TIP3    H2 4997   1.964   6.790   0.965
 1686TIP3   OH2 4998   2.565   7.522   0.330
 1686TIP3    H1 4999   2.586   7.436   0.366
 1686TIP3    H2 5000   2.548   7.505   0.237
 1687TIP3   OH2 5001   2.121   6.281   1.277
 1687TIP3    H1 5002   2.184   6.223   1.234
 1687TIP3    H2 5003   2.080   6.329   1.206
 1688TIP3   OH2 5004   1.971   6.393   1.079
 1688TIP3    H1 5005   1.886   6.435   1.082
 1688TIP3    H2 5006   1.957   6.312   1.031
 1689TIP3   OH2 5007   1.897   6.147   0.976
 1689TIP3    H1 5008   1.815   6.156   0.928
 1689TIP3    H2 5009   1.923   6.056   0.963
 1690TIP3   OH2 5010   1.623   5.975   0.512
 1690TIP3    H1 5011   1.655   6.042   0.451
 1690TIP3    H2 5012   1.564   5.921   0.460
 1691TIP3   OH2 5013   0.634   5.997   1.580
 1691TIP3    H1 5014   0.565   5.934   1.599
 1691TIP3    H2 5015   0.600   6.049   1.507
 1692TIP3   OH2 5016   0.875   6.092   1.649
 1692TIP3    H1 5017   0.937   6.053   1.587
 1692TIP3    H2 5018   0.792   6.049   1.630
 1693TIP3   OH2 5019   1.630   6.138   1.401
 1693TIP3    H1 5020   1.645   6.107   1.490
 1693TIP3    H2 5021   1.715   6.131   1.358
 1694TIP3   OH2 5022   2.089   6.915   0.479
 1694TIP3    H1 5023   2.151   6.856   0.523
 1694TIP3    H2 5024   2.127   6.927   0.392
 1695TIP3   OH2 5025   2.990   6.775   0.107
 1695TIP3    H1 5026   3.034   6.696   0.140
 1695TIP3    H2 5027   3.026   6.786   0.018
 1696TIP3   OH2 5028   2.326   6.411   0.103
 1696TIP3    H1 5029   2.361   6.467   0.034
 1696TIP3    H2 5030   2.269   6.350   0.057
 1697TIP3   OH2 5031   2.524   6.815   0.074
 1697TIP3    H1 5032   2.580   6.737   0.079
 1697TIP3    H2 5033   2.465   6.798   0.001
 1698TIP3   OH2 5034   3.679   6.771   0.225
 1698TIP3    H1 5035   3.603   6.822   0.251
 1698TIP3    H2 5036   3.721   6.746   0.307
 1699TIP3   OH2 5037   2.387   6.440   0.577
 1699TIP3    H1 5038   2.345   6.469   0.496
 1699TIP3    H2 5039   2.325   6.461   0.646
 1700TIP3   OH2 5040   2.484   7.249   0.301
 1700TIP3    H1 5041   2.396   7.285   0.289
 1700TIP3    H2 5042   2.507   7.214   0.215
 1701TIP3   OH2 5043   2.253   6.510   0.346
 1701TIP3    H1 5044   2.301   6.592   0.358
 1701TIP3    H2 5045   2.276   6.481   0.258
 1702TIP3   OH2 5046   3.338   6.493   0.282
 1702TIP3    H1 5047   3.249   6.521   0.262
 1702TIP3    H2 5048   3.386   6.501   0.200
 1703TIP3   OH2 5049   2.756   6.109   0.251
 1703TIP3    H1 5050   2.730   6.019   0.270
 1703TIP3    H2 5051   2.682   6.162   0.282
 1704TIP3   OH2 5052   3.070   7.165   0.489
 1704TIP3    H1 5053   3.115   7.233   0.439
 1704TIP3    H2 5054   3.018   7.117   0.425
 1705TIP3   OH2 5055   2.432   6.952   0.287
 1705TIP3    H1 5056   2.478   6.913   0.212
 1705TIP3    H2 5057   2.496   7.011   0.326
 1706TIP3   OH2 5058   2.480   7.442   0.619
 1706TIP3    H1 5059   2.482   7.529   0.577
 1706TIP3    H2 5060   2.404   7.399   0.579
 1707TIP3   OH2 5061   2.300   7.083   0.674
 1707TIP3    H1 5062   2.310   7.154   0.738
 1707TIP3    H2 5063   2.207   7.060   0.679
 1708TIP3   OH2 5064   3.585   6.933   0.569
 1708TIP3    H1 5065   3.533   6.929   0.649
 1708TIP3    H2 5066   3.545   6.867   0.511
 1709TIP3   OH2 5067   2.177   7.352   0.595
 1709TIP3    H1 5068   2.214   7.328   0.680
 1709TIP3    H2 5069   2.143   7.269   0.560
 1710TIP3   OH2 5070   2.530   6.239   0.337
 1710TIP3    H1 5071   2.519   6.324   0.295
 1710TIP3    H2 5072   2.457   6.187   0.305
 1711TIP3   OH2 5073   3.022   6.360   0.605
 1711TIP3    H1 5074   3.097   6.327   0.656
 1711TIP3    H2 5075   2.945   6.326   0.651
 1712TIP3   OH2 5076   3.211   6.737   0.469
 1712TIP3    H1 5077   3.177   6.727   0.558
 1712TIP3    H2 5078   3.219   6.831   0.456
 1713TIP3   OH2 5079   2.402   6.722   0.419
 1713TIP3    H1 5080   2.379   6.750   0.508
 1713TIP3    H2 5081   2.407   6.804   0.369
 1714TIP3   OH2 5082   2.959   6.938   0.753
 1714TIP3    H1 5083   2.888   6.982   0.801
 1714TIP3    H2 5084   3.039   6.979   0.786
 1715TIP3   OH2 5085   2.247   6.763   0.658
 1715TIP3    H1 5086   2.324   6.799   0.702
 1715TIP3    H2 5087   2.233   6.677   0.699
 1716TIP3   OH2 5088   2.957   6.987   0.297
 1716TIP3    H1 5089   2.966   6.927   0.223
 1716TIP3    H2 5090   2.925   6.932   0.368
 1717TIP3   OH2 5091   2.641   6.392   0.050
 1717TIP3    H1 5092   2.561   6.428   0.011
 1717TIP3    H2 5093   2.691   6.468   0.076
 1718TIP3   OH2 5094   3.078   6.523   0.180
 1718TIP3    H1 5095   3.037   6.530   0.266
 1718TIP3    H2 5096   3.040   6.444   0.141
 1719TIP3   OH2 5097   2.278   7.298   0.843
 1719TIP3    H1 5098   2.355   7.332   0.889
 1719TIP3    H2 5099   2.206   7.310   0.905
 1720TIP3   OH2 5100   2.741   6.642   0.125
 1720TIP3    H1 5101   2.823   6.689   0.115
 1720TIP3    H2 5102   2.723   6.645   0.219
 1721TIP3   OH2 5103   2.157   6.257   0.416
 1721TIP3    H1 5104   2.163   6.251   0.511
 1721TIP3    H2 5105   2.197   6.341   0.395
 1722TIP3   OH2 5106   2.676   6.676   0.389
 1722TIP3    H1 5107   2.586   6.705   0.404
 1722TIP3    H2 5108   2.730   6.744   0.429
 1723TIP3   OH2 5109   2.797   7.360   0.435
 1723TIP3    H1 5110   2.797   7.348   0.530
 1723TIP3    H2 5111   2.824   7.451   0.422
 1724TIP3   OH2 5112   2.045   7.012   0.757
 1724TIP3    H1 5113   2.086   7.004   0.843
 1724TIP3    H2 5114   2.061   6.927   0.715
 1725TIP3   OH2 5115   2.939   7.591   0.369
 1725TIP3    H1 5116   2.999   7.593   0.295
 1725TIP3    H2 5117   2.957   7.672   0.417
 1726TIP3   OH2 5118   2.923   7.320   0.174
 1726TIP3    H1 5119   2.893   7.362   0.254
 1726TIP3    H2 5120   2.863   7.248   0.160
 1727TIP3   OH2 5121   2.198   6.503   0.764
 1727TIP3    H1 5122   2.103   6.516   0.764
 1727TIP3    H2 5123   2.213   6.434   0.829
 1728TIP3   OH2 5124   2.999   6.571   0.436
 1728TIP3    H1 5125   3.084   6.614   0.444
 1728TIP3    H2 5126   3.004   6.498   0.497
 1729TIP3   OH2 5127   2.882   6.826   0.506
 1729TIP3    H1 5128   2.905   6.861   0.592
 1729TIP3    H2 5129   2.922   6.740   0.504
 1730TIP3   OH2 5130   3.486   6.699   0.454
 1730TIP3    H1 5131   3.390   6.695   0.446
 1730TIP3    H2 5132   3.517   6.628   0.398
 1731TIP3   OH2 5133   2.326   6.085   0.253
 1731TIP3    H1 5134   2.268   6.078   0.177
 1731TIP3    H2 5135   2.267   6.094   0.327
 1732TIP3   OH2 5136   3.039   7.773   0.549
 1732TIP3    H1 5137   3.010   7.735   0.632
 1732TIP3    H2 5138   3.133   7.787   0.560
 1733TIP3   OH2 5139   2.044   7.278   0.994
 1733TIP3    H1 5140   2.077   7.188   0.995
 1733TIP3    H2 5141   1.949   7.269   0.983
 1734TIP3   OH2 5142   2.705   7.383   0.767
 1734TIP3    H1 5143   2.629   7.381   0.709
 1734TIP3    H2 5144   2.717   7.293   0.796
 1735TIP3   OH2 5145   3.137   7.487   0.535
 1735TIP3    H1 5146   3.195   7.436   0.480
 1735TIP3    H2 5147   3.071   7.522   0.476
 1736TIP3   OH2 5148   2.194   7.021   0.996
 1736TIP3    H1 5149   2.275   6.972   0.977
 1736TIP3    H2 5150   2.210   7.060   1.082
 1737TIP3   OH2 5151   2.504   6.914   0.618
 1737TIP3    H1 5152   2.435   6.977   0.636
 1737TIP3    H2 5153   2.565   6.961   0.561
 1738TIP3   OH2 5154   3.094   7.302   0.756
 1738TIP3    H1 5155   3.078   7.237   0.688
 1738TIP3    H2 5156   3.077   7.256   0.838
 1739TIP3   OH2 5157   2.582   6.720   0.797
 1739TIP3    H1 5158   2.613   6.643   0.749
 1739TIP3    H2 5159   2.572   6.788   0.730
 1740TIP3   OH2 5160   2.651   6.499   0.603
 1740TIP3    H1 5161   2.673   6.545   0.523
 1740TIP3    H2 5162   2.559   6.474   0.592
 1741TIP3   OH2 5163   2.646   7.071   0.438
 1741TIP3    H1 5164   2.740   7.084   0.426
 1741TIP3    H2 5165   2.606   7.153   0.410
 1742TIP3   OH2 5166   3.219   7.031   0.856
 1742TIP3    H1 5167   3.254   6.954   0.810
 1742TIP3    H2 5168   3.297   7.081   0.880
 1743TIP3   OH2 5169   2.422   6.850   0.991
 1743TIP3    H1 5170   2.397   6.762   1.020
 1743TIP3    H2 5171   2.485   6.836   0.921
 1744TIP3   OH2 5172   2.767   6.254   0.646
 1744TIP3    H1 5173   2.728   6.340   0.627
 1744TIP3    H2 5174   2.696   6.192   0.629
 1745TIP3   OH2 5175   3.127   6.702   0.724
 1745TIP3    H1 5176   3.052   6.743   0.767
 1745TIP3    H2 5177   3.177   6.662   0.795
 1746TIP3   OH2 5178   3.331   6.636   0.896
 1746TIP3    H1 5179   3.348   6.543   0.913
 1746TIP3    H2 5180   3.339   6.677   0.982
 1747TIP3   OH2 5181   2.341   6.597   1.076
 1747TIP3    H1 5182   2.356   6.519   1.022
 1747TIP3    H2 5183   2.389   6.580   1.157
 1748TIP3   OH2 5184   2.824   6.264   0.915
 1748TIP3    H1 5185   2.895   6.200   0.915
 1748TIP3    H2 5186   2.791   6.264   0.825
 1749TIP3   OH2 5187   2.903   6.484   1.066
 1749TIP3    H1 5188   2.878   6.414   1.006
 1749TIP3    H2 5189   2.827   6.543   1.066
 1750TIP3   OH2 5190   3.302   7.752   0.637
 1750TIP3    H1 5191   3.296   7.703   0.720
 1750TIP3    H2 5192   3.379   7.714   0.594
 1751TIP3   OH2 5193   3.303   7.310   0.414
 1751TIP3    H1 5194   3.353   7.282   0.491
 1751TIP3    H2 5195   3.354   7.382   0.377
 1752TIP3   OH2 5196   3.665   7.182   0.493
 1752TIP3    H1 5197   3.649   7.087   0.495
 1752TIP3    H2 5198   3.757   7.190   0.470
 1753TIP3   OH2 5199   3.468   6.945   0.283
 1753TIP3    H1 5200   3.414   6.951   0.362
 1753TIP3    H2 5201   3.445   7.023   0.232
 1754TIP3   OH2 5202   2.072   6.644   1.014
 1754TIP3    H1 5203   2.166   6.642   1.028
 1754TIP3    H2 5204   2.040   6.563   1.053
 1755TIP3   OH2 5205   3.847   6.518   0.829
 1755TIP3    H1 5206   3.935   6.519   0.791
 1755TIP3    H2 5207   3.792   6.562   0.764
 1756TIP3   OH2 5208   1.930   6.279   0.256
 1756TIP3    H1 5209   2.007   6.255   0.308
 1756TIP3    H2 5210   1.936   6.374   0.246
 1757TIP3   OH2 5211   3.628   6.596   0.666
 1757TIP3    H1 5212   3.558   6.631   0.611
 1757TIP3    H2 5213   3.694   6.566   0.604
 1758TIP3   OH2 5214   2.053   6.207   0.732
 1758TIP3    H1 5215   2.002   6.190   0.811
 1758TIP3    H2 5216   1.992   6.249   0.672
 1759TIP3   OH2 5217   2.091   7.609   0.841
 1759TIP3    H1 5218   2.079   7.645   0.753
 1759TIP3    H2 5219   2.166   7.657   0.877
 1760TIP3   OH2 5220   3.626   6.468   0.375
 1760TIP3    H1 5221   3.562   6.428   0.434
 1760TIP3    H2 5222   3.705   6.415   0.387
 1761TIP3   OH2 5223   2.943   6.297   0.095
 1761TIP3    H1 5224   2.855   6.287   0.134
 1761TIP3    H2 5225   2.952   6.221   0.038
 1762TIP3   OH2 5226   2.127   6.047   0.054
 1762TIP3    H1 5227   2.034   6.041   0.076
 1762TIP3    H2 5228   2.160   5.958   0.062
 1763TIP3   OH2 5229   2.571   6.086  -0.003
 1763TIP3    H1 5230   2.610   6.172  -0.020
 1763TIP3    H2 5231   2.552   6.086   0.090
 1764TIP3   OH2 5232   2.342   6.310   0.977
 1764TIP3    H1 5233   2.309   6.242   1.035
 1764TIP3    H2 5234   2.434   6.320   1.002
 1765TIP3   OH2 5235   2.592   6.317   1.097
 1765TIP3    H1 5236   2.672   6.298   1.048
 1765TIP3    H2 5237   2.589   6.249   1.164
 1766TIP3   OH2 5238   3.393   6.373   0.931
 1766TIP3    H1 5239   3.410   6.351   1.023
 1766TIP3    H2 5240   3.477   6.358   0.888
 1767TIP3   OH2 5241   3.943   6.631   0.288
 1767TIP3    H1 5242   3.932   6.684   0.209
 1767TIP3    H2 5243   4.023   6.581   0.272
 1768TIP3   OH2 5244   3.840   7.535   0.550
 1768TIP3    H1 5245   3.866   7.448   0.519
 1768TIP3    H2 5246   3.877   7.595   0.485
 1769TIP3   OH2 5247   3.922   7.285   0.490
 1769TIP3    H1 5248   3.967   7.232   0.424
 1769TIP3    H2 5249   3.975   7.274   0.569
 1770TIP3   OH2 5250   4.329   7.067   0.307
 1770TIP3    H1 5251   4.341   7.045   0.399
 1770TIP3    H2 5252   4.363   6.990   0.260
 1771TIP3   OH2 5253   4.171   6.868   0.617
 1771TIP3    H1 5254   4.198   6.854   0.526
 1771TIP3    H2 5255   4.245   6.838   0.669
 1772TIP3   OH2 5256   4.655   6.782   0.445
 1772TIP3    H1 5257   4.716   6.709   0.437
 1772TIP3    H2 5258   4.633   6.805   0.354
 1773TIP3   OH2 5259   3.937   7.003   0.593
 1773TIP3    H1 5260   4.026   6.978   0.568
 1773TIP3    H2 5261   3.881   6.938   0.551
 1774TIP3   OH2 5262   3.717   6.517   0.119
 1774TIP3    H1 5263   3.677   6.489   0.201
 1774TIP3    H2 5264   3.709   6.612   0.119
 1775TIP3   OH2 5265   4.168   6.557   0.444
 1775TIP3    H1 5266   4.129   6.534   0.529
 1775TIP3    H2 5267   4.244   6.610   0.466
 1776TIP3   OH2 5268   4.356   6.604   0.659
 1776TIP3    H1 5269   4.415   6.574   0.591
 1776TIP3    H2 5270   4.347   6.530   0.719
 1777TIP3   OH2 5271   1.016   0.531   3.989
 1777TIP3    H1 5272   0.967   0.451   4.008
 1777TIP3    H2 5273   1.003   0.586   4.066
 1778TIP3   OH2 5274   7.681   7.533   4.453
 1778TIP3    H1 5275   7.616   7.603   4.443
 1778TIP3    H2 5276   7.765   7.579   4.457
 1779TIP3   OH2 5277   1.316   0.174   4.020
 1779TIP3    H1 5278   1.276   0.240   4.077
 1779TIP3    H2 5279   1.313   0.213   3.933
 1780TIP3   OH2 5280   1.724   0.141   4.572
 1780TIP3    H1 5281   1.689   0.126   4.485
 1780TIP3    H2 5282   1.665   0.206   4.611
 1781TIP3   OH2 5283   7.720   7.992   4.310
 1781TIP3    H1 5284   7.690   7.978   4.400
 1781TIP3    H2 5285   7.711   7.906   4.268
 1782TIP3   OH2 5286   1.208   0.385   4.170
 1782TIP3    H1 5287   1.210   0.437   4.251
 1782TIP3    H2 5288   1.119   0.352   4.165
 1783TIP3   OH2 5289   1.933   0.581   4.564
 1783TIP3    H1 5290   1.931   0.487   4.548
 1783TIP3    H2 5291   1.864   0.595   4.630
 1784TIP3   OH2 5292   7.463   7.758   4.776
 1784TIP3    H1 5293   7.434   7.835   4.728
 1784TIP3    H2 5294   7.412   7.686   4.740
 1785TIP3   OH2 5295   1.618   0.908   4.637
 1785TIP3    H1 5296   1.588   0.911   4.546
 1785TIP3    H2 5297   1.685   0.975   4.642
 1786TIP3   OH2 5298   1.649  -0.001   4.332
 1786TIP3    H1 5299   1.681   0.048   4.256
 1786TIP3    H2 5300   1.556  -0.014   4.314
 1787TIP3   OH2 5301   1.255   0.275   4.715
 1787TIP3    H1 5302   1.161   0.291   4.728
 1787TIP3    H2 5303   1.298   0.332   4.778
 1788TIP3   OH2 5304   1.955   0.305   4.531
 1788TIP3    H1 5305   1.881   0.259   4.571
 1788TIP3    H2 5306   2.021   0.237   4.519
 1789TIP3   OH2 5307   0.888   0.314   4.450
 1789TIP3    H1 5308   0.792   0.320   4.450
 1789TIP3    H2 5309   0.906   0.221   4.465
 1790TIP3   OH2 5310   6.948   8.029   4.499
 1790TIP3    H1 5311   6.961   8.103   4.440
 1790TIP3    H2 5312   6.959   7.952   4.444
 1791TIP3   OH2 5313   1.403   0.579   4.482
 1791TIP3    H1 5314   1.324   0.529   4.459
 1791TIP3    H2 5315   1.408   0.647   4.414
 1792TIP3   OH2 5316   1.486   0.664   4.056
 1792TIP3    H1 5317   1.442   0.596   4.004
 1792TIP3    H2 5318   1.562   0.689   4.003
 1793TIP3   OH2 5319   1.392   0.417   4.900
 1793TIP3    H1 5320   1.458   0.348   4.904
 1793TIP3    H2 5321   1.442   0.499   4.910
 1794TIP3   OH2 5322   1.430   0.082   4.630
 1794TIP3    H1 5323   1.463   0.113   4.546
 1794TIP3    H2 5324   1.384   0.157   4.668
 1795TIP3   OH2 5325   1.536   0.045   4.882
 1795TIP3    H1 5326   1.480   0.052   4.805
 1795TIP3    H2 5327   1.616   0.002   4.850
 1796TIP3   OH2 5328   1.736   0.693   3.947
 1796TIP3    H1 5329   1.743   0.646   4.030
 1796TIP3    H2 5330   1.824   0.725   3.929
 1797TIP3   OH2 5331   1.807   0.729   4.358
 1797TIP3    H1 5332   1.776   0.666   4.292
 1797TIP3    H2 5333   1.846   0.675   4.426
 1798TIP3   OH2 5334   1.806   0.384   4.886
 1798TIP3    H1 5335   1.731   0.377   4.946
 1798TIP3    H2 5336   1.849   0.465   4.910
 1799TIP3   OH2 5337   1.747   0.130   4.112
 1799TIP3    H1 5338   1.804   0.072   4.061
 1799TIP3    H2 5339   1.707   0.187   4.048
 1800TIP3   OH2 5340   1.659   0.501   4.471
 1800TIP3    H1 5341   1.566   0.512   4.452
 1800TIP3    H2 5342   1.686   0.428   4.414
 1801TIP3   OH2 5343   1.942   0.079   4.733
 1801TIP3    H1 5344   1.960  -0.013   4.750
 1801TIP3    H2 5345   1.865   0.079   4.675
 1802TIP3   OH2 5346   7.753   7.951   4.843
 1802TIP3    H1 5347   7.709   7.932   4.926
 1802TIP3    H2 5348   7.831   7.895   4.845
 1803TIP3   OH2 5349   7.468   7.427   4.262
 1803TIP3    H1 5350   7.546   7.482   4.250
 1803TIP3    H2 5351   7.395   7.485   4.240
 1804TIP3   OH2 5352   7.469   7.714   4.455
 1804TIP3    H1 5353   7.375   7.709   4.466
 1804TIP3    H2 5354   7.481   7.763   4.373
 1805TIP3   OH2 5355   1.392   0.504   3.639
 1805TIP3    H1 5356   1.301   0.514   3.612
 1805TIP3    H2 5357   1.405   0.570   3.708
 1806TIP3   OH2 5358   1.094   0.552   4.786
 1806TIP3    H1 5359   1.119   0.551   4.879
 1806TIP3    H2 5360   1.122   0.638   4.755
 1807TIP3   OH2 5361   1.276   0.799   4.597
 1807TIP3    H1 5362   1.331   0.724   4.574
 1807TIP3    H2 5363   1.323   0.844   4.666
 1808TIP3   OH2 5364   0.957   0.713   4.188
 1808TIP3    H1 5365   0.883   0.750   4.140
 1808TIP3    H2 5366   0.957   0.760   4.271
 1809TIP3   OH2 5367   1.191   0.636   4.307
 1809TIP3    H1 5368   1.123   0.661   4.243
 1809TIP3    H2 5369   1.258   0.703   4.298
 1810TIP3   OH2 5370   1.431   0.787   4.289
 1810TIP3    H1 5371   1.399   0.869   4.250
 1810TIP3    H2 5372   1.461   0.735   4.214
 1811TIP3   OH2 5373   1.688   0.645   4.694
 1811TIP3    H1 5374   1.670   0.602   4.610
 1811TIP3    H2 5375   1.664   0.737   4.678
 1812TIP3   OH2 5376   2.920   0.003   3.398
 1812TIP3    H1 5377   2.891   0.090   3.370
 1812TIP3    H2 5378   2.853  -0.057   3.364
 1813TIP3   OH2 5379   0.055   8.123   3.814
 1813TIP3    H1 5380   0.098   8.089   3.893
 1813TIP3    H2 5381   0.014   8.047   3.774
 1814TIP3   OH2 5382   7.953   8.065   4.141
 1814TIP3    H1 5383   7.953   7.993   4.204
 1814TIP3    H2 5384   8.038   8.060   4.098
 1815TIP3   OH2 5385   3.182   0.300   3.482
 1815TIP3    H1 5386   3.166   0.236   3.551
 1815TIP3    H2 5387   3.204   0.381   3.529
 1816TIP3   OH2 5388   2.248   0.329   3.858
 1816TIP3    H1 5389   2.229   0.235   3.861
 1816TIP3    H2 5390   2.340   0.334   3.832
 1817TIP3   OH2 5391   7.719   7.964   3.788
 1817TIP3    H1 5392   7.705   7.877   3.752
 1817TIP3    H2 5393   7.696   8.024   3.716
 1818TIP3   OH2 5394   2.839   0.737   3.496
 1818TIP3    H1 5395   2.870   0.673   3.432
 1818TIP3    H2 5396   2.800   0.684   3.566
 1819TIP3   OH2 5397   2.730   0.226   3.812
 1819TIP3    H1 5398   2.769   0.142   3.788
 1819TIP3    H2 5399   2.804   0.282   3.833
 1820TIP3   OH2 5400   0.286   7.820   3.871
 1820TIP3    H1 5401   0.353   7.752   3.871
 1820TIP3    H2 5402   0.240   7.808   3.787
 1821TIP3   OH2 5403   8.130   7.501   3.795
 1821TIP3    H1 5404   8.194   7.571   3.781
 1821TIP3    H2 5405   8.180   7.432   3.840
 1822TIP3   OH2 5406   0.289   7.594   3.476
 1822TIP3    H1 5407   0.332   7.513   3.502
 1822TIP3    H2 5408   0.237   7.570   3.399
 1823TIP3   OH2 5409   7.888   7.557   3.910
 1823TIP3    H1 5410   7.936   7.562   3.993
 1823TIP3    H2 5411   7.953   7.527   3.847
 1824TIP3   OH2 5412   8.300   7.929   3.762
 1824TIP3    H1 5413   8.394   7.916   3.771
 1824TIP3    H2 5414   8.268   7.848   3.722
 1825TIP3   OH2 5415   0.948   7.913   3.989
 1825TIP3    H1 5416   0.853   7.926   3.987
 1825TIP3    H2 5417   0.958   7.819   4.003
 1826TIP3   OH2 5418   2.828   0.223   3.259
 1826TIP3    H1 5419   2.793   0.198   3.174
 1826TIP3    H2 5420   2.771   0.294   3.289
 1827TIP3   OH2 5421   2.593   0.158   4.044
 1827TIP3    H1 5422   2.528   0.220   4.077
 1827TIP3    H2 5423   2.627   0.198   3.964
 1828TIP3   OH2 5424   8.101   7.613   4.079
 1828TIP3    H1 5425   8.178   7.557   4.087
 1828TIP3    H2 5426   8.041   7.581   4.147
 1829TIP3   OH2 5427   2.410   0.340   4.141
 1829TIP3    H1 5428   2.389   0.425   4.104
 1829TIP3    H2 5429   2.333   0.317   4.194
 1830TIP3   OH2 5430   3.225   0.544   3.619
 1830TIP3    H1 5431   3.146   0.545   3.674
 1830TIP3    H2 5432   3.224   0.628   3.574
 1831TIP3   OH2 5433   2.931   0.582   3.284
 1831TIP3    H1 5434   2.983   0.502   3.271
 1831TIP3    H2 5435   2.988   0.653   3.252
 1832TIP3   OH2 5436   3.078   0.358   3.232
 1832TIP3    H1 5437   3.009   0.291   3.224
 1832TIP3    H2 5438   3.126   0.332   3.311
 1833TIP3   OH2 5439   3.448   0.438   3.967
 1833TIP3    H1 5440   3.436   0.360   3.913
 1833TIP3    H2 5441   3.442   0.511   3.906
 1834TIP3   OH2 5442   8.485   7.952   3.243
 1834TIP3    H1 5443   8.406   7.998   3.213
 1834TIP3    H2 5444   8.533   7.931   3.163
 1835TIP3   OH2 5445   3.644   0.108   3.824
 1835TIP3    H1 5446   3.556   0.145   3.825
 1835TIP3    H2 5447   3.675   0.120   3.734
 1836TIP3   OH2 5448   0.240   8.056   3.205
 1836TIP3    H1 5449   0.182   8.078   3.278
 1836TIP3    H2 5450   0.323   8.032   3.247
 1837TIP3   OH2 5451   3.310  -0.007   4.092
 1837TIP3    H1 5452   3.298   0.066   4.154
 1837TIP3    H2 5453   3.222  -0.029   4.063
 1838TIP3   OH2 5454   8.077   8.025   3.621
 1838TIP3    H1 5455   8.030   7.943   3.607
 1838TIP3    H2 5456   8.158   7.998   3.664
 1839TIP3   OH2 5457   2.490   0.348   3.730
 1839TIP3    H1 5458   2.461   0.320   3.644
 1839TIP3    H2 5459   2.572   0.300   3.744
 1840TIP3   OH2 5460   8.178   8.045   3.980
 1840TIP3    H1 5461   8.218   8.006   3.902
 1840TIP3    H2 5462   8.238   8.115   4.005
 1841TIP3   OH2 5463   3.015   0.559   3.795
 1841TIP3    H1 5464   2.949   0.613   3.839
 1841TIP3    H2 5465   3.001   0.471   3.830
 1842TIP3   OH2 5466   2.607   0.448   4.300
 1842TIP3    H1 5467   2.548   0.507   4.347
 1842TIP3    H2 5468   2.549   0.394   4.247
 1843TIP3   OH2 5469   0.083   7.890   3.054
 1843TIP3    H1 5470   0.135   7.957   3.097
 1843TIP3    H2 5471   0.104   7.900   2.961
 1844TIP3   OH2 5472   2.406   0.007   4.449
 1844TIP3    H1 5473   2.407   0.102   4.460
 1844TIP3    H2 5474   2.349  -0.025   4.519
 1845TIP3   OH2 5475   2.685   0.457   3.305
 1845TIP3    H1 5476   2.764   0.510   3.299
 1845TIP3    H2 5477   2.626   0.494   3.240
 1846TIP3   OH2 5478   2.404   0.613   4.385
 1846TIP3    H1 5479   2.369   0.614   4.296
 1846TIP3    H2 5480   2.330   0.587   4.440
 1847TIP3   OH2 5481   3.258   0.378   2.643
 1847TIP3    H1 5482   3.255   0.472   2.625
 1847TIP3    H2 5483   3.349   0.353   2.625
 1848TIP3   OH2 5484   1.989   0.152   4.253
 1848TIP3    H1 5485   1.913   0.151   4.194
 1848TIP3    H2 5486   1.997   0.062   4.282
 1849TIP3   OH2 5487   1.863   0.368   3.954
 1849TIP3    H1 5488   1.924   0.294   3.952
 1849TIP3    H2 5489   1.902   0.430   4.016
 1850TIP3   OH2 5490   3.692   0.799   4.059
 1850TIP3    H1 5491   3.691   0.704   4.055
 1850TIP3    H2 5492   3.662   0.820   4.147
 1851TIP3   OH2 5493   2.792   0.594   4.160
 1851TIP3    H1 5494   2.789   0.682   4.196
 1851TIP3    H2 5495   2.726   0.546   4.209
 1852TIP3   OH2 5496   2.580   0.698   3.112
 1852TIP3    H1 5497   2.534   0.669   3.034
 1852TIP3    H2 5498   2.538   0.780   3.137
 1853TIP3   OH2 5499   2.014   0.550   3.484
 1853TIP3    H1 5500   2.059   0.544   3.568
 1853TIP3    H2 5501   1.960   0.471   3.479
 1854TIP3   OH2 5502   2.777   0.624   2.742
 1854TIP3    H1 5503   2.828   0.551   2.706
 1854TIP3    H2 5504   2.808   0.633   2.832
 1855TIP3   OH2 5505   2.830   0.668   3.010
 1855TIP3    H1 5506   2.744   0.669   3.051
 1855TIP3    H2 5507   2.888   0.629   3.075
 1856TIP3   OH2 5508   0.627   8.064   4.343
 1856TIP3    H1 5509   0.577   8.135   4.304
 1856TIP3    H2 5510   0.588   7.984   4.309
 1857TIP3   OH2 5511   2.182   0.349   4.298
 1857TIP3    H1 5512   2.216   0.348   4.388
 1857TIP3    H2 5513   2.110   0.286   4.299
 1858TIP3   OH2 5514   0.490   7.850   4.244
 1858TIP3    H1 5515   0.452   7.762   4.247
 1858TIP3    H2 5516   0.465   7.884   4.158
 1859TIP3   OH2 5517   0.158   7.933   2.793
 1859TIP3    H1 5518   0.096   7.947   2.722
 1859TIP3    H2 5519   0.244   7.945   2.753
 1860TIP3   OH2 5520   8.303   7.828   4.128
 1860TIP3    H1 5521   8.229   7.846   4.186
 1860TIP3    H2 5522   8.278   7.864   4.043
 1861TIP3   OH2 5523   8.233   7.707   3.617
 1861TIP3    H1 5524   8.148   7.691   3.575
 1861TIP3    H2 5525   8.295   7.653   3.568
 1862TIP3   OH2 5526   8.580   7.761   3.416
 1862TIP3    H1 5527   8.534   7.831   3.369
 1862TIP3    H2 5528   8.639   7.723   3.351
 1863TIP3   OH2 5529   0.184   8.042   4.446
 1863TIP3    H1 5530   0.157   7.968   4.501
 1863TIP3    H2 5531   0.276   8.057   4.468
 1864TIP3   OH2 5532   0.167   7.789   3.620
 1864TIP3    H1 5533   0.097   7.806   3.557
 1864TIP3    H2 5534   0.216   7.716   3.582
 1865TIP3   OH2 5535   8.097   7.866   4.316
 1865TIP3    H1 5536   8.113   7.943   4.370
 1865TIP3    H2 5537   8.155   7.799   4.353
 1866TIP3   OH2 5538   0.181   8.010   4.034
 1866TIP3    H1 5539   0.216   7.945   3.973
 1866TIP3    H2 5540   0.155   7.960   4.111
 1867TIP3   OH2 5541   3.395   1.149   4.126
 1867TIP3    H1 5542   3.392   1.174   4.034
 1867TIP3    H2 5543   3.473   1.194   4.160
 1868TIP3   OH2 5544   2.374   0.270   4.544
 1868TIP3    H1 5545   2.444   0.292   4.606
 1868TIP3    H2 5546   2.295   0.266   4.598
 1869TIP3   OH2 5547   8.561   7.860   3.798
 1869TIP3    H1 5548   8.623   7.811   3.744
 1869TIP3    H2 5549   8.563   7.816   3.883
 1870TIP3   OH2 5550   8.559   7.762   4.051
 1870TIP3    H1 5551   8.471   7.772   4.086
 1870TIP3    H2 5552   8.617   7.784   4.125
 1871TIP3   OH2 5553   2.533   0.000   3.169
 1871TIP3    H1 5554   2.456   0.024   3.119
 1871TIP3    H2 5555   2.512   0.025   3.259
 1872TIP3   OH2 5556   3.401   0.235   3.792
 1872TIP3    H1 5557   3.433   0.281   3.714
 1872TIP3    H2 5558   3.319   0.194   3.764
 1873TIP3   OH2 5559   2.935   0.325   4.183
 1873TIP3    H1 5560   2.959   0.292   4.269
 1873TIP3    H2 5561   2.871   0.394   4.201
 1874TIP3   OH2 5562   0.134   7.663   3.213
 1874TIP3    H1 5563   0.170   7.595   3.156
 1874TIP3    H2 5564   0.116   7.736   3.154
 1875TIP3   OH2 5565   2.237   0.054   3.838
 1875TIP3    H1 5566   2.254   0.012   3.753
 1875TIP3    H2 5567   2.297   0.010   3.898
 1876TIP3   OH2 5568   2.706   0.162   3.014
 1876TIP3    H1 5569   2.653   0.241   3.019
 1876TIP3    H2 5570   2.652   0.094   3.055
 1877TIP3   OH2 5571   7.908   7.945   4.571
 1877TIP3    H1 5572   7.945   7.983   4.650
 1877TIP3    H2 5573   7.814   7.942   4.588
 1878TIP3   OH2 5574   2.826   0.083   4.493
 1878TIP3    H1 5575   2.759   0.022   4.462
 1878TIP3    H2 5576   2.909   0.046   4.464
 1879TIP3   OH2 5577   3.069   0.627   4.119
 1879TIP3    H1 5578   2.975   0.609   4.125
 1879TIP3    H2 5579   3.111   0.544   4.139
 1880TIP3   OH2 5580   0.660   7.805   2.956
 1880TIP3    H1 5581   0.686   7.739   2.891
 1880TIP3    H2 5582   0.614   7.871   2.905
 1881TIP3   OH2 5583   3.693   0.522   4.055
 1881TIP3    H1 5584   3.599   0.506   4.049
 1881TIP3    H2 5585   3.727   0.494   3.970
 1882TIP3   OH2 5586   3.191   0.458   2.911
 1882TIP3    H1 5587   3.166   0.391   2.974
 1882TIP3    H2 5588   3.209   0.409   2.830
 1883TIP3   OH2 5589   3.162   0.116   3.701
 1883TIP3    H1 5590   3.072   0.091   3.723
 1883TIP3    H2 5591   3.199   0.038   3.659
 1884TIP3   OH2 5592   2.322   0.331   3.496
 1884TIP3    H1 5593   2.319   0.407   3.438
 1884TIP3    H2 5594   2.232   0.321   3.527
 1885TIP3   OH2 5595   2.419   0.087   3.406
 1885TIP3    H1 5596   2.397   0.175   3.438
 1885TIP3    H2 5597   2.393   0.028   3.477
 1886TIP3   OH2 5598   2.603   0.660   3.957
 1886TIP3    H1 5599   2.639   0.734   3.908
 1886TIP3    H2 5600   2.676   0.630   4.012
 1887TIP3   OH2 5601   2.247   0.557   3.337
 1887TIP3    H1 5602   2.160   0.562   3.377
 1887TIP3    H2 5603   2.280   0.646   3.341
 1888TIP3   OH2 5604   2.984   0.311   3.915
 1888TIP3    H1 5605   2.961   0.303   4.008
 1888TIP3    H2 5606   3.011   0.223   3.889
 1889TIP3   OH2 5607   2.931   0.183   2.809
 1889TIP3    H1 5608   3.002   0.162   2.870
 1889TIP3    H2 5609   2.852   0.179   2.862
 1890TIP3   OH2 5610   3.214   0.778   3.927
 1890TIP3    H1 5611   3.130   0.734   3.913
 1890TIP3    H2 5612   3.209   0.857   3.872
 1891TIP3   OH2 5613   3.268   0.655   2.609
 1891TIP3    H1 5614   3.291   0.713   2.536
 1891TIP3    H2 5615   3.197   0.701   2.654
 1892TIP3   OH2 5616   3.123   0.129   2.993
 1892TIP3    H1 5617   3.108   0.073   3.069
 1892TIP3    H2 5618   3.218   0.134   2.985
 1893TIP3   OH2 5619   2.033   0.535   4.118
 1893TIP3    H1 5620   2.093   0.478   4.165
 1893TIP3    H2 5621   2.032   0.616   4.168
 1894TIP3   OH2 5622   2.312   0.165   3.109
 1894TIP3    H1 5623   2.314   0.162   3.204
 1894TIP3    H2 5624   2.287   0.255   3.087
 1895TIP3   OH2 5625   2.542   0.380   3.027
 1895TIP3    H1 5626   2.456   0.399   3.065
 1895TIP3    H2 5627   2.528   0.385   2.933
 1896TIP3   OH2 5628   8.420   7.550   3.488
 1896TIP3    H1 5629   8.472   7.629   3.473
 1896TIP3    H2 5630   8.460   7.483   3.433
 1897TIP3   OH2 5631   0.126   7.852   4.256
 1897TIP3    H1 5632   0.137   7.930   4.311
 1897TIP3    H2 5633   0.129   7.779   4.317
 1898TIP3   OH2 5634   2.278   0.447   3.085
 1898TIP3    H1 5635   2.251   0.517   3.025
 1898TIP3    H2 5636   2.263   0.484   3.172
 1899TIP3   OH2 5637   0.372   7.982   3.600
 1899TIP3    H1 5638   0.302   7.917   3.611
 1899TIP3    H2 5639   0.443   7.949   3.655
 1900TIP3   OH2 5640   3.250   0.811   3.542
 1900TIP3    H1 5641   3.208   0.861   3.473
 1900TIP3    H2 5642   3.344   0.829   3.530
 1901TIP3   OH2 5643   1.860   0.325   3.492
 1901TIP3    H1 5644   1.805   0.339   3.569
 1901TIP3    H2 5645   1.815   0.255   3.443
 1902TIP3   OH2 5646   2.039   0.857   4.521
 1902TIP3    H1 5647   2.116   0.862   4.578
 1902TIP3    H2 5648   2.005   0.769   4.534
 1903TIP3   OH2 5649   2.508   0.787   4.572
 1903TIP3    H1 5650   2.591   0.742   4.587
 1903TIP3    H2 5651   2.465   0.735   4.503
 1904TIP3   OH2 5652   2.481   0.367   2.757
 1904TIP3    H1 5653   2.413   0.299   2.753
 1904TIP3    H2 5654   2.551   0.334   2.701
 1905TIP3   OH2 5655   3.226   0.721   4.336
 1905TIP3    H1 5656   3.171   0.660   4.385
 1905TIP3    H2 5657   3.308   0.724   4.385
 1906TIP3   OH2 5658   2.918   0.414   2.636
 1906TIP3    H1 5659   2.955   0.350   2.696
 1906TIP3    H2 5660   2.975   0.409   2.558
 1907TIP3   OH2 5661   2.172   0.244   4.750
 1907TIP3    H1 5662   2.209   0.156   4.751
 1907TIP3    H2 5663   2.079   0.231   4.733
 1908TIP3   OH2 5664   2.756   0.350   4.509
 1908TIP3    H1 5665   2.706   0.366   4.429
 1908TIP3    H2 5666   2.788   0.260   4.500
 1909TIP3   OH2 5667   3.227   0.395   4.126
 1909TIP3    H1 5668   3.306   0.415   4.075
 1909TIP3    H2 5669   3.167   0.357   4.062
 1910TIP3   OH2 5670   8.061   8.085   4.744
 1910TIP3    H1 5671   8.138   8.029   4.735
 1910TIP3    H2 5672   8.064   8.115   4.835
 1911TIP3   OH2 5673   8.384   8.005   4.392
 1911TIP3    H1 5674   8.299   8.051   4.398
 1911TIP3    H2 5675   8.416   8.027   4.304
 1912TIP3   OH2 5676   3.116   0.282   4.483
 1912TIP3    H1 5677   3.191   0.239   4.442
 1912TIP3    H2 5678   3.102   0.234   4.565
 1913TIP3   OH2 5679   0.371   8.014   2.630
 1913TIP3    H1 5680   0.416   7.985   2.551
 1913TIP3    H2 5681   0.335   8.100   2.608
 1914TIP3   OH2 5682   8.428   7.776   4.525
 1914TIP3    H1 5683   8.378   7.713   4.472
 1914TIP3    H2 5684   8.420   7.859   4.478
 1915TIP3   OH2 5685   2.775  -0.006   4.170
 1915TIP3    H1 5686   2.846  -0.020   4.108
 1915TIP3    H2 5687   2.716   0.056   4.126
 1916TIP3   OH2 5688   0.435   8.064   4.547
 1916TIP3    H1 5689   0.447   8.002   4.619
 1916TIP3    H2 5690   0.515   8.059   4.496
 1917TIP3   OH2 5691   3.353   0.208   4.288
 1917TIP3    H1 5692   3.298   0.277   4.251
 1917TIP3    H2 5693   3.441   0.227   4.254
 1918TIP3   OH2 5694   8.269   7.895   4.726
 1918TIP3    H1 5695   8.268   7.838   4.803
 1918TIP3    H2 5696   8.327   7.852   4.664
 1919TIP3   OH2 5697   0.096   7.817   4.572
 1919TIP3    H1 5698   0.113   7.786   4.661
 1919TIP3    H2 5699   0.004   7.796   4.557
 1920TIP3   OH2 5700   2.254   0.665   2.902
 1920TIP3    H1 5701   2.348   0.656   2.884
 1920TIP3    H2 5702   2.221   0.721   2.832
 1921TIP3   OH2 5703   1.638   0.622   3.530
 1921TIP3    H1 5704   1.559   0.569   3.527
 1921TIP3    H2 5705   1.695   0.577   3.592
 1922TIP3   OH2 5706   1.768   0.504   3.739
 1922TIP3    H1 5707   1.816   0.444   3.797
 1922TIP3    H2 5708   1.754   0.582   3.792
 1923TIP3   OH2 5709   3.516   0.888   3.530
 1923TIP3    H1 5710   3.532   0.961   3.590
 1923TIP3    H2 5711   3.572   0.906   3.455
 1924TIP3   OH2 5712   3.515   0.907   3.853
 1924TIP3    H1 5713   3.491   0.826   3.807
 1924TIP3    H2 5714   3.594   0.885   3.901
 1925TIP3   OH2 5715   3.554   0.616   4.373
 1925TIP3    H1 5716   3.491   0.620   4.445
 1925TIP3    H2 5717   3.604   0.698   4.381
 1926TIP3   OH2 5718   3.396   0.130   2.977
 1926TIP3    H1 5719   3.459   0.197   2.951
 1926TIP3    H2 5720   3.426   0.103   3.064
 1927TIP3   OH2 5721   3.491   0.034   3.213
 1927TIP3    H1 5722   3.431  -0.021   3.262
 1927TIP3    H2 5723   3.558   0.059   3.275
 1928TIP3   OH2 5724   3.577   0.371   3.621
 1928TIP3    H1 5725   3.634   0.305   3.580
 1928TIP3    H2 5726   3.576   0.443   3.557
 1929TIP3   OH2 5727   3.413   0.648   3.796
 1929TIP3    H1 5728   3.342   0.691   3.844
 1929TIP3    H2 5729   3.371   0.607   3.721
 1930TIP3   OH2 5730   0.575   8.025   2.812
 1930TIP3    H1 5731   0.498   8.013   2.757
 1930TIP3    H2 5732   0.553   8.098   2.870
 1931TIP3   OH2 5733   0.422   7.659   2.778
 1931TIP3    H1 5734   0.396   7.708   2.856
 1931TIP3    H2 5735   0.452   7.574   2.812
 1932TIP3   OH2 5736   0.462   7.970   3.343
 1932TIP3    H1 5737   0.469   7.875   3.328
 1932TIP3    H2 5738   0.434   7.977   3.434
 1933TIP3   OH2 5739   7.625   8.016   4.036
 1933TIP3    H1 5740   7.661   8.014   3.947
 1933TIP3    H2 5741   7.701   8.029   4.092
 1934TIP3   OH2 5742   3.602   0.255   4.187
 1934TIP3    H1 5743   3.666   0.186   4.169
 1934TIP3    H2 5744   3.616   0.318   4.116
 1935TIP3   OH2 5745   3.799   0.069   4.146
 1935TIP3    H1 5746   3.804  -0.017   4.105
 1935TIP3    H2 5747   3.875   0.073   4.203
 1936TIP3   OH2 5748   0.474   7.703   3.291
 1936TIP3    H1 5749   0.427   7.664   3.365
 1936TIP3    H2 5750   0.548   7.644   3.276
 1937TIP3   OH2 5751   0.590   7.914   3.742
 1937TIP3    H1 5752   0.674   7.920   3.696
 1937TIP3    H2 5753   0.614   7.914   3.835
 1938TIP3   OH2 5754   0.688   8.006   3.988
 1938TIP3    H1 5755   0.607   8.036   4.030
 1938TIP3    H2 5756   0.719   8.082   3.939
 1939TIP3   OH2 5757   7.960   7.765   4.812
 1939TIP3    H1 5758   8.028   7.743   4.748
 1939TIP3    H2 5759   7.879   7.728   4.775
 1940TIP3   OH2 5760   7.641   7.624   4.170
 1940TIP3    H1 5761   7.578   7.610   4.099
 1940TIP3    H2 5762   7.702   7.689   4.135
 1941TIP3   OH2 5763   3.075   0.781   3.172
 1941TIP3    H1 5764   3.129   0.765   3.095
 1941TIP3    H2 5765   3.122   0.848   3.222
 1942TIP3   OH2 5766   2.205   0.554   4.565
 1942TIP3    H1 5767   2.111   0.563   4.552
 1942TIP3    H2 5768   2.215   0.538   4.659
 1943TIP3   OH2 5769   2.374   0.614   4.103
 1943TIP3    H1 5770   2.319   0.686   4.073
 1943TIP3    H2 5771   2.457   0.626   4.057
 1944TIP3   OH2 5772   2.825   0.856   4.252
 1944TIP3    H1 5773   2.848   0.841   4.344
 1944TIP3    H2 5774   2.907   0.879   4.210
 1945TIP3   OH2 5775   3.062   0.931   4.120
 1945TIP3    H1 5776   3.020   0.912   4.036
 1945TIP3    H2 5777   3.086   1.024   4.115
 1946TIP3   OH2 5778   2.040   0.850   4.150
 1946TIP3    H1 5779   1.955   0.883   4.122
 1946TIP3    H2 5780   2.058   0.894   4.233
 1947TIP3   OH2 5781   2.268   0.847   3.998
 1947TIP3    H1 5782   2.185   0.849   4.045
 1947TIP3    H2 5783   2.246   0.871   3.908
 1948TIP3   OH2 5784   2.686   0.870   3.794
 1948TIP3    H1 5785   2.617   0.876   3.727
 1948TIP3    H2 5786   2.688   0.957   3.834
 1949TIP3   OH2 5787   2.946   0.851   3.878
 1949TIP3    H1 5788   2.857   0.851   3.844
 1949TIP3    H2 5789   2.998   0.896   3.811
 1950TIP3   OH2 5790   3.159   0.978   3.741
 1950TIP3    H1 5791   3.158   1.065   3.702
 1950TIP3    H2 5792   3.187   0.920   3.670
 1951TIP3   OH2 5793   2.002   0.675   3.877
 1951TIP3    H1 5794   2.017   0.632   3.960
 1951TIP3    H2 5795   2.053   0.625   3.814
 1952TIP3   OH2 5796   2.167   0.537   3.711
 1952TIP3    H1 5797   2.180   0.459   3.765
 1952TIP3    H2 5798   2.253   0.580   3.709
 1953TIP3   OH2 5799   2.435   0.620   3.737
 1953TIP3    H1 5800   2.455   0.528   3.719
 1953TIP3    H2 5801   2.477   0.638   3.821
 1954TIP3   OH2 5802   2.516   0.627   2.838
 1954TIP3    H1 5803   2.604   0.645   2.803
 1954TIP3    H2 5804   2.494   0.541   2.803
 1955TIP3   OH2 5805   3.224   0.728   2.944
 1955TIP3    H1 5806   3.217   0.633   2.936
 1955TIP3    H2 5807   3.180   0.762   2.866
 1956TIP3   OH2 5808   3.374   0.878   4.135
 1956TIP3    H1 5809   3.427   0.864   4.056
 1956TIP3    H2 5810   3.384   0.971   4.155
 1957TIP3   OH2 5811   4.716   0.281   2.883
 1957TIP3    H1 5812   4.681   0.366   2.857
 1957TIP3    H2 5813   4.649   0.218   2.858
 1958TIP3   OH2 5814   4.719   0.286   3.280
 1958TIP3    H1 5815   4.756   0.244   3.359
 1958TIP3    H2 5816   4.694   0.213   3.224
 1959TIP3   OH2 5817   4.026   0.097   3.670
 1959TIP3    H1 5818   4.009   0.147   3.750
 1959TIP3    H2 5819   4.093   0.147   3.624
 1960TIP3   OH2 5820   4.972   0.582   2.987
 1960TIP3    H1 5821   4.949   0.514   3.050
 1960TIP3    H2 5822   5.065   0.568   2.971
 1961TIP3   OH2 5823   4.002   0.556   3.352
 1961TIP3    H1 5824   3.988   0.461   3.356
 1961TIP3    H2 5825   4.096   0.566   3.336
 1962TIP3   OH2 5826   0.816   7.986   3.094
 1962TIP3    H1 5827   0.745   8.043   3.124
 1962TIP3    H2 5828   0.773   7.923   3.037
 1963TIP3   OH2 5829   3.739   0.075   3.329
 1963TIP3    H1 5830   3.787  -0.004   3.353
 1963TIP3    H2 5831   3.779   0.103   3.246
 1964TIP3   OH2 5832   4.623   1.003   2.975
 1964TIP3    H1 5833   4.661   0.939   2.915
 1964TIP3    H2 5834   4.573   0.950   3.037
 1965TIP3   OH2 5835   4.492   0.451   3.286
 1965TIP3    H1 5836   4.459   0.385   3.225
 1965TIP3    H2 5837   4.585   0.432   3.296
 1966TIP3   OH2 5838   4.901   0.052   3.355
 1966TIP3    H1 5839   4.959  -0.007   3.402
 1966TIP3    H2 5840   4.909   0.025   3.263
 1967TIP3   OH2 5841   1.370   7.730   3.386
 1967TIP3    H1 5842   1.355   7.733   3.292
 1967TIP3    H2 5843   1.364   7.638   3.409
 1968TIP3   OH2 5844   2.072   7.719   3.034
 1968TIP3    H1 5845   2.069   7.796   3.090
 1968TIP3    H2 5846   2.006   7.735   2.967
 1969TIP3   OH2 5847   1.026   7.975   3.423
 1969TIP3    H1 5848   1.083   7.936   3.490
 1969TIP3    H2 5849   1.076   7.969   3.342
 1970TIP3   OH2 5850   4.357   0.114   3.222
 1970TIP3    H1 5851   4.449   0.089   3.231
 1970TIP3    H2 5852   4.318   0.046   3.167
 1971TIP3   OH2 5853   5.594   0.031   3.417
 1971TIP3    H1 5854   5.516   0.071   3.454
 1971TIP3    H2 5855   5.620  -0.036   3.481
 1972TIP3   OH2 5856   4.582   0.482   2.761
 1972TIP3    H1 5857   4.555   0.458   2.672
 1972TIP3    H2 5858   4.535   0.564   2.779
 1973TIP3   OH2 5859   4.373   0.397   3.532
 1973TIP3    H1 5860   4.311   0.463   3.562
 1973TIP3    H2 5861   4.407   0.432   3.450
 1974TIP3   OH2 5862   1.209   7.844   3.579
 1974TIP3    H1 5863   1.296   7.880   3.597
 1974TIP3    H2 5864   1.227   7.768   3.522
 1975TIP3   OH2 5865   4.204   0.592   3.627
 1975TIP3    H1 5866   4.190   0.679   3.590
 1975TIP3    H2 5867   4.126   0.574   3.679
 1976TIP3   OH2 5868   3.579   0.311   2.875
 1976TIP3    H1 5869   3.545   0.327   2.787
 1976TIP3    H2 5870   3.603   0.397   2.908
 1977TIP3   OH2 5871   4.968   0.819   3.145
 1977TIP3    H1 5872   4.959   0.748   3.082
 1977TIP3    H2 5873   4.978   0.898   3.092
 1978TIP3   OH2 5874   4.726   0.837   2.780
 1978TIP3    H1 5875   4.772   0.755   2.764
 1978TIP3    H2 5876   4.784   0.905   2.747
 1979TIP3   OH2 5877   4.873   0.620   2.719
 1979TIP3    H1 5878   4.874   0.544   2.660
 1979TIP3    H2 5879   4.899   0.584   2.804
 1980TIP3   OH2 5880   5.236   0.702   3.465
 1980TIP3    H1 5881   5.229   0.626   3.407
 1980TIP3    H2 5882   5.220   0.778   3.408
 1981TIP3   OH2 5883   4.534   0.144   2.696
 1981TIP3    H1 5884   4.448   0.186   2.699
 1981TIP3    H2 5885   4.552   0.133   2.603
 1982TIP3   OH2 5886   1.628   8.058   2.447
 1982TIP3    H1 5887   1.720   8.074   2.470
 1982TIP3    H2 5888   1.624   7.964   2.430
 1983TIP3   OH2 5889   5.450   0.369   3.319
 1983TIP3    H1 5890   5.361   0.404   3.314
 1983TIP3    H2 5891   5.483   0.373   3.230
 1984TIP3   OH2 5892   4.899   0.198   2.694
 1984TIP3    H1 5893   4.843   0.226   2.766
 1984TIP3    H2 5894   4.981   0.173   2.735
 1985TIP3   OH2 5895   5.115   0.250   3.576
 1985TIP3    H1 5896   5.119   0.322   3.639
 1985TIP3    H2 5897   5.022   0.240   3.557
 1986TIP3   OH2 5898   4.098   0.187   3.095
 1986TIP3    H1 5899   4.057   0.131   3.029
 1986TIP3    H2 5900   4.176   0.139   3.123
 1987TIP3   OH2 5901   4.259   0.609   3.239
 1987TIP3    H1 5902   4.225   0.590   3.151
 1987TIP3    H2 5903   4.342   0.562   3.243
 1988TIP3   OH2 5904   4.242   0.164   3.467
 1988TIP3    H1 5905   4.276   0.142   3.380
 1988TIP3    H2 5906   4.289   0.244   3.491
 1989TIP3   OH2 5907   4.761   0.792   3.356
 1989TIP3    H1 5908   4.767   0.883   3.327
 1989TIP3    H2 5909   4.824   0.745   3.302
 1990TIP3   OH2 5910   4.412   0.685   3.786
 1990TIP3    H1 5911   4.361   0.752   3.831
 1990TIP3    H2 5912   4.347   0.638   3.733
 1991TIP3   OH2 5913   4.754   0.038   2.522
 1991TIP3    H1 5914   4.797   0.102   2.579
 1991TIP3    H2 5915   4.780   0.065   2.433
 1992TIP3   OH2 5916   4.151   0.297   3.883
 1992TIP3    H1 5917   4.164   0.379   3.930
 1992TIP3    H2 5918   4.062   0.269   3.906
 1993TIP3   OH2 5919   4.469   0.736   2.795
 1993TIP3    H1 5920   4.558   0.773   2.791
 1993TIP3    H2 5921   4.418   0.789   2.734
 1994TIP3   OH2 5922   4.199   0.852   3.871
 1994TIP3    H1 5923   4.166   0.854   3.781
 1994TIP3    H2 5924   4.121   0.838   3.925
 1995TIP3   OH2 5925   3.981   0.025   2.900
 1995TIP3    H1 5926   3.905   0.067   2.860
 1995TIP3    H2 5927   3.952  -0.064   2.920
 1996TIP3   OH2 5928   5.062   0.654   2.127
 1996TIP3    H1 5929   5.058   0.746   2.103
 1996TIP3    H2 5930   5.153   0.628   2.110
 1997TIP3   OH2 5931   3.774   0.427   3.813
 1997TIP3    H1 5932   3.704   0.410   3.750
 1997TIP3    H2 5933   3.812   0.340   3.830
 1998TIP3   OH2 5934   3.636   0.602   3.466
 1998TIP3    H1 5935   3.731   0.606   3.461
 1998TIP3    H2 5936   3.611   0.679   3.517
 1999TIP3   OH2 5937   5.488   1.070   3.523
 1999TIP3    H1 5938   5.492   0.975   3.532
 1999TIP3    H2 5939   5.408   1.095   3.568
 2000TIP3   OH2 5940   4.374   0.943   2.607
 2000TIP3    H1 5941   4.333   0.922   2.524
 2000TIP3    H2 5942   4.337   1.028   2.632
 2001TIP3   OH2 5943   3.800   0.799   2.975
 2001TIP3    H1 5944   3.842   0.790   3.061
 2001TIP3    H2 5945   3.751   0.718   2.962
 2002TIP3   OH2 5946   4.573   0.874   2.233
 2002TIP3    H1 5947   4.625   0.802   2.196
 2002TIP3    H2 5948   4.609   0.886   2.321
 2003TIP3   OH2 5949   4.628   0.919   2.501
 2003TIP3    H1 5950   4.544   0.920   2.546
 2003TIP3    H2 5951   4.690   0.888   2.567
 2004TIP3   OH2 5952   5.329   0.193   3.782
 2004TIP3    H1 5953   5.347   0.218   3.691
 2004TIP3    H2 5954   5.306   0.100   3.777
 2005TIP3   OH2 5955   3.984   0.605   3.794
 2005TIP3    H1 5956   4.031   0.596   3.877
 2005TIP3    H2 5957   3.910   0.545   3.802
 2006TIP3   OH2 5958   2.368   8.053   3.721
 2006TIP3    H1 5959   2.296   8.044   3.783
 2006TIP3    H2 5960   2.329   8.035   3.636
 2007TIP3   OH2 5961   4.832   0.102   2.272
 2007TIP3    H1 5962   4.771   0.090   2.199
 2007TIP3    H2 5963   4.912   0.134   2.232
 2008TIP3   OH2 5964   1.435   8.048   3.609
 2008TIP3    H1 5965   1.438   8.085   3.697
 2008TIP3    H2 5966   1.416   8.123   3.553
 2009TIP3   OH2 5967   1.374   8.042   3.060
 2009TIP3    H1 5968   1.340   7.978   3.122
 2009TIP3    H2 5969   1.387   7.992   2.979
 2010TIP3   OH2 5970   1.811   8.091   2.851
 2010TIP3    H1 5971   1.766   8.145   2.787
 2010TIP3    H2 5972   1.856   8.024   2.799
 2011TIP3   OH2 5973   4.836   0.202   3.903
 2011TIP3    H1 5974   4.855   0.124   3.956
 2011TIP3    H2 5975   4.921   0.242   3.887
 2012TIP3   OH2 5976   1.977   8.119   3.067
 2012TIP3    H1 5977   1.909   8.140   3.003
 2012TIP3    H2 5978   1.947   8.037   3.107
 2013TIP3   OH2 5979   4.095   0.018   4.055
 2013TIP3    H1 5980   4.174   0.057   4.017
 2013TIP3    H2 5981   4.073  -0.053   3.995
 2014TIP3   OH2 5982   0.962   7.718   2.939
 2014TIP3    H1 5983   0.913   7.742   2.860
 2014TIP3    H2 5984   0.915   7.642   2.974
 2015TIP3   OH2 5985   4.827   0.208   3.558
 2015TIP3    H1 5986   4.855   0.157   3.482
 2015TIP3    H2 5987   4.815   0.143   3.627
 2016TIP3   OH2 5988   1.041   7.855   3.159
 2016TIP3    H1 5989   0.969   7.917   3.150
 2016TIP3    H2 5990   1.026   7.791   3.089
 2017TIP3   OH2 5991   1.352   7.800   2.866
 2017TIP3    H1 5992   1.440   7.826   2.838
 2017TIP3    H2 5993   1.297   7.816   2.790
 2018TIP3   OH2 5994   1.202   7.862   2.648
 2018TIP3    H1 5995   1.139   7.808   2.600
 2018TIP3    H2 5996   1.249   7.909   2.580
 2019TIP3   OH2 5997   5.197   1.402   3.615
 2019TIP3    H1 5998   5.191   1.425   3.522
 2019TIP3    H2 5999   5.275   1.448   3.646
 2020TIP3   OH2 6000   4.145   0.534   4.030
 2020TIP3    H1 6001   4.224   0.545   4.082
 2020TIP3    H2 6002   4.074   0.529   4.094
 2021TIP3   OH2 6003   1.737   8.119   3.264
 2021TIP3    H1 6004   1.792   8.046   3.238
 2021TIP3    H2 6005   1.733   8.113   3.360
 2022TIP3   OH2 6006   1.700   8.087   3.532
 2022TIP3    H1 6007   1.616   8.064   3.572
 2022TIP3    H2 6008   1.758   8.103   3.607
 2023TIP3   OH2 6009   4.283   0.265   2.671
 2023TIP3    H1 6010   4.214   0.200   2.659
 2023TIP3    H2 6011   4.272   0.296   2.761
 2024TIP3   OH2 6012   5.208   0.498   3.286
 2024TIP3    H1 6013   5.241   0.540   3.207
 2024TIP3    H2 6014   5.124   0.460   3.260
 2025TIP3   OH2 6015   1.806   7.735   2.433
 2025TIP3    H1 6016   1.752   7.666   2.472
 2025TIP3    H2 6017   1.836   7.786   2.508
 2026TIP3   OH2 6018   4.658   0.663   3.644
 2026TIP3    H1 6019   4.725   0.602   3.675
 2026TIP3    H2 6020   4.593   0.664   3.714
 2027TIP3   OH2 6021   1.904   7.895   2.628
 2027TIP3    H1 6022   1.967   7.894   2.700
 2027TIP3    H2 6023   1.912   7.982   2.590
 2028TIP3   OH2 6024   4.017   0.280   3.342
 2028TIP3    H1 6025   4.031   0.254   3.251
 2028TIP3    H2 6026   4.081   0.229   3.392
 2029TIP3   OH2 6027   4.459   0.400   2.514
 2029TIP3    H1 6028   4.419   0.487   2.509
 2029TIP3    H2 6029   4.397   0.349   2.566
 2030TIP3   OH2 6030   3.894   0.194   3.909
 2030TIP3    H1 6031   3.914   0.172   4.000
 2030TIP3    H2 6032   3.811   0.149   3.891
 2031TIP3   OH2 6033   4.603   0.329   3.955
 2031TIP3    H1 6034   4.554   0.305   3.877
 2031TIP3    H2 6035   4.690   0.292   3.941
 2032TIP3   OH2 6036   2.403   8.016   2.332
 2032TIP3    H1 6037   2.430   7.993   2.421
 2032TIP3    H2 6038   2.397   8.111   2.332
 2033TIP3   OH2 6039   5.489   0.790   3.540
 2033TIP3    H1 6040   5.394   0.778   3.540
 2033TIP3    H2 6041   5.517   0.764   3.452
 2034TIP3   OH2 6042   4.989   0.717   2.389
 2034TIP3    H1 6043   4.956   0.642   2.438
 2034TIP3    H2 6044   5.009   0.683   2.302
 2035TIP3   OH2 6045   4.964   0.393   3.189
 2035TIP3    H1 6046   4.878   0.366   3.221
 2035TIP3    H2 6047   5.001   0.315   3.149
 2036TIP3   OH2 6048   4.119   0.595   2.997
 2036TIP3    H1 6049   4.119   0.670   2.937
 2036TIP3    H2 6050   4.028   0.564   2.996
 2037TIP3   OH2 6051   0.804   8.030   2.660
 2037TIP3    H1 6052   0.856   8.105   2.690
 2037TIP3    H2 6053   0.726   8.033   2.715
 2038TIP3   OH2 6054   4.233   0.354   2.920
 2038TIP3    H1 6055   4.209   0.444   2.942
 2038TIP3    H2 6056   4.187   0.300   2.983
 2039TIP3   OH2 6057   4.509   0.927   3.499
 2039TIP3    H1 6058   4.490   0.983   3.423
 2039TIP3    H2 6059   4.519   0.989   3.571
 2040TIP3   OH2 6060   4.040   0.815   2.839
 2040TIP3    H1 6061   3.951   0.822   2.873
 2040TIP3    H2 6062   4.073   0.904   2.840
 2041TIP3   OH2 6063   4.754   0.458   2.288
 2041TIP3    H1 6064   4.791   0.441   2.374
 2041TIP3    H2 6065   4.668   0.416   2.290
 2042TIP3   OH2 6066   5.002   1.095   3.450
 2042TIP3    H1 6067   4.919   1.049   3.436
 2042TIP3    H2 6068   5.004   1.161   3.380
 2043TIP3   OH2 6069   5.071   0.925   2.086
 2043TIP3    H1 6070   5.095   0.984   2.015
 2043TIP3    H2 6071   5.000   0.971   2.132
 2044TIP3   OH2 6072   4.910   0.415   2.520
 2044TIP3    H1 6073   4.896   0.338   2.575
 2044TIP3    H2 6074   5.002   0.410   2.495
 2045TIP3   OH2 6075   3.833   0.804   3.605
 2045TIP3    H1 6076   3.881   0.740   3.657
 2045TIP3    H2 6077   3.849   0.887   3.648
 2046TIP3   OH2 6078   4.113   0.422   2.296
 2046TIP3    H1 6079   4.114   0.331   2.265
 2046TIP3    H2 6080   4.087   0.416   2.388
 2047TIP3   OH2 6081   4.049   0.436   2.565
 2047TIP3    H1 6082   4.126   0.403   2.611
 2047TIP3    H2 6083   4.053   0.531   2.575
 2048TIP3   OH2 6084   3.778   0.152   2.771
 2048TIP3    H1 6085   3.711   0.197   2.823
 2048TIP3    H2 6086   3.798   0.213   2.700
 2049TIP3   OH2 6087   4.325   0.634   2.514
 2049TIP3    H1 6088   4.239   0.655   2.549
 2049TIP3    H2 6089   4.343   0.703   2.450
 2050TIP3   OH2 6090   1.826   7.735   2.894
 2050TIP3    H1 6091   1.772   7.769   2.823
 2050TIP3    H2 6092   1.769   7.737   2.970
 2051TIP3   OH2 6093   1.903   8.103   3.716
 2051TIP3    H1 6094   1.890   8.154   3.796
 2051TIP3    H2 6095   1.962   8.033   3.742
 2052TIP3   OH2 6096   4.070   0.708   2.586
 2052TIP3    H1 6097   4.047   0.778   2.524
 2052TIP3    H2 6098   4.058   0.748   2.672
 2053TIP3   OH2 6099   5.069   0.168   3.081
 2053TIP3    H1 6100   5.003   0.099   3.087
 2053TIP3    H2 6101   5.142   0.137   3.136
 2054TIP3   OH2 6102   3.791   0.326   2.553
 2054TIP3    H1 6103   3.864   0.388   2.561
 2054TIP3    H2 6104   3.824   0.259   2.493
 2055TIP3   OH2 6105   0.806   7.764   2.713
 2055TIP3    H1 6106   0.816   7.856   2.688
 2055TIP3    H2 6107   0.768   7.722   2.636
 2056TIP3   OH2 6108   5.040   1.061   3.025
 2056TIP3    H1 6109   4.998   1.112   2.956
 2056TIP3    H2 6110   5.134   1.076   3.012
 2057TIP3   OH2 6111   3.633   0.575   2.956
 2057TIP3    H1 6112   3.586   0.608   3.032
 2057TIP3    H2 6113   3.589   0.615   2.881
 2058TIP3   OH2 6114   3.830   1.113   4.026
 2058TIP3    H1 6115   3.910   1.123   4.078
 2058TIP3    H2 6116   3.822   1.018   4.012
 2059TIP3   OH2 6117   4.290   1.031   4.066
 2059TIP3    H1 6118   4.384   1.018   4.078
 2059TIP3    H2 6119   4.266   0.971   3.995
 2060TIP3   OH2 6120   4.265   0.628   2.197
 2060TIP3    H1 6121   4.217   0.553   2.235
 2060TIP3    H2 6122   4.339   0.588   2.152
 2061TIP3   OH2 6123   4.907   0.962   3.803
 2061TIP3    H1 6124   4.911   0.893   3.869
 2061TIP3    H2 6125   4.983   1.017   3.821
 2062TIP3   OH2 6126   4.708   0.670   2.111
 2062TIP3    H1 6127   4.748   0.604   2.168
 2062TIP3    H2 6128   4.764   0.672   2.034
 2063TIP3   OH2 6129   3.927   0.522   4.207
 2063TIP3    H1 6130   3.953   0.431   4.217
 2063TIP3    H2 6131   3.839   0.517   4.168
 2064TIP3   OH2 6132   3.923   0.126   2.423
 2064TIP3    H1 6133   3.975   0.107   2.501
 2064TIP3    H2 6134   3.988   0.136   2.353
 2065TIP3   OH2 6135   4.554   0.596   4.000
 2065TIP3    H1 6136   4.503   0.620   3.923
 2065TIP3    H2 6137   4.582   0.506   3.984
 2066TIP3   OH2 6138   4.498   0.345   2.249
 2066TIP3    H1 6139   4.472   0.357   2.341
 2066TIP3    H2 6140   4.475   0.254   2.230
 2067TIP3   OH2 6141   5.027   0.626   3.634
 2067TIP3    H1 6142   5.097   0.647   3.574
 2067TIP3    H2 6143   4.985   0.710   3.653
 2068TIP3   OH2 6144   4.055   0.273   4.187
 2068TIP3    H1 6145   4.102   0.192   4.169
 2068TIP3    H2 6146   4.090   0.303   4.271
 2069TIP3   OH2 6147   4.089   0.075   2.645
 2069TIP3    H1 6148   4.063   0.043   2.732
 2069TIP3    H2 6149   4.129  -0.001   2.603
 2070TIP3   OH2 6150   4.348   0.119   3.817
 2070TIP3    H1 6151   4.281   0.184   3.840
 2070TIP3    H2 6152   4.415   0.169   3.771
 2071TIP3   OH2 6153   1.347   8.012   2.468
 2071TIP3    H1 6154   1.317   8.015   2.378
 2071TIP3    H2 6155   1.436   8.047   2.465
 2072TIP3   OH2 6156   4.932   0.512   3.978
 2072TIP3    H1 6157   5.011   0.472   3.942
 2072TIP3    H2 6158   4.921   0.471   4.064
 2073TIP3   OH2 6159   5.046   0.178   2.113
 2073TIP3    H1 6160   5.012   0.133   2.036
 2073TIP3    H2 6161   5.018   0.269   2.103
 2074TIP3   OH2 6162   1.664   8.035   3.892
 2074TIP3    H1 6163   1.622   7.953   3.864
 2074TIP3    H2 6164   1.598   8.103   3.875
 2075TIP3   OH2 6165   4.548   0.260   3.690
 2075TIP3    H1 6166   4.631   0.249   3.643
 2075TIP3    H2 6167   4.493   0.310   3.630
 2076TIP3   OH2 6168   5.187   0.271   4.048
 2076TIP3    H1 6169   5.171   0.201   4.111
 2076TIP3    H2 6170   5.191   0.351   4.101
 2077TIP3   OH2 6171   5.177   0.457   3.784
 2077TIP3    H1 6172   5.108   0.510   3.745
 2077TIP3    H2 6173   5.256   0.481   3.736
 2078TIP3   OH2 6174   4.346   0.087   4.199
 2078TIP3    H1 6175   4.314  -0.003   4.198
 2078TIP3    H2 6176   4.412   0.090   4.129
 2079TIP3   OH2 6177   1.917   8.046   4.002
 2079TIP3    H1 6178   1.932   7.968   4.054
 2079TIP3    H2 6179   1.828   8.035   3.968
 2080TIP3   OH2 6180   4.058   0.916   2.403
 2080TIP3    H1 6181   4.149   0.901   2.377
 2080TIP3    H2 6182   4.019   0.965   2.330
 2081TIP3   OH2 6183   3.522   0.300   2.595
 2081TIP3    H1 6184   3.615   0.317   2.582
 2081TIP3    H2 6185   3.507   0.216   2.551
 2082TIP3   OH2 6186   3.430   0.885   3.035
 2082TIP3    H1 6187   3.366   0.831   2.989
 2082TIP3    H2 6188   3.475   0.825   3.094
 2083TIP3   OH2 6189   3.569   0.719   3.207
 2083TIP3    H1 6190   3.558   0.652   3.274
 2083TIP3    H2 6191   3.623   0.787   3.249
 2084TIP3   OH2 6192   5.306   1.134   3.012
 2084TIP3    H1 6193   5.327   1.176   3.095
 2084TIP3    H2 6194   5.364   1.176   2.949
 2085TIP3   OH2 6195   5.317   1.167   3.299
 2085TIP3    H1 6196   5.279   1.081   3.287
 2085TIP3    H2 6197   5.392   1.153   3.357
 2086TIP3   OH2 6198   5.360   0.865   3.864
 2086TIP3    H1 6199   5.293   0.872   3.932
 2086TIP3    H2 6200   5.410   0.946   3.870
 2087TIP3   OH2 6201   5.181   0.393   2.471
 2087TIP3    H1 6202   5.241   0.460   2.438
 2087TIP3    H2 6203   5.224   0.359   2.550
 2088TIP3   OH2 6204   5.306   0.288   2.688
 2088TIP3    H1 6205   5.249   0.235   2.743
 2088TIP3    H2 6206   5.377   0.315   2.745
 2089TIP3   OH2 6207   5.361   0.621   3.093
 2089TIP3    H1 6208   5.425   0.557   3.064
 2089TIP3    H2 6209   5.376   0.698   3.037
 2090TIP3   OH2 6210   5.173   0.921   3.311
 2090TIP3    H1 6211   5.115   0.977   3.363
 2090TIP3    H2 6212   5.116   0.885   3.243
 2091TIP3   OH2 6213   5.242   0.180   2.304
 2091TIP3    H1 6214   5.173   0.183   2.237
 2091TIP3    H2 6215   5.222   0.252   2.363
 2092TIP3   OH2 6216   2.149   7.889   2.320
 2092TIP3    H1 6217   2.236   7.926   2.306
 2092TIP3    H2 6218   2.138   7.825   2.249
 2093TIP3   OH2 6219   5.134   0.122   2.823
 2093TIP3    H1 6220   5.161   0.030   2.825
 2093TIP3    H2 6221   5.114   0.144   2.914
 2094TIP3   OH2 6222   3.764   0.165   3.583
 2094TIP3    H1 6223   3.747   0.142   3.491
 2094TIP3    H2 6224   3.857   0.146   3.596
 2095TIP3   OH2 6225   5.409   0.525   3.662
 2095TIP3    H1 6226   5.474   0.456   3.646
 2095TIP3    H2 6227   5.421   0.588   3.591
 2096TIP3   OH2 6228   5.582   0.320   3.656
 2096TIP3    H1 6229   5.551   0.241   3.612
 2096TIP3    H2 6230   5.649   0.290   3.717
 2097TIP3   OH2 6231   2.310   7.950   2.789
 2097TIP3    H1 6232   2.315   7.856   2.773
 2097TIP3    H2 6233   2.284   7.987   2.704
 2098TIP3   OH2 6234   5.294   0.104   3.219
 2098TIP3    H1 6235   5.381   0.108   3.179
 2098TIP3    H2 6236   5.299   0.030   3.280
 2099TIP3   OH2 6237   5.376   0.180   3.505
 2099TIP3    H1 6238   5.280   0.183   3.511
 2099TIP3    H2 6239   5.397   0.238   3.432
 2100TIP3   OH2 6240   1.128   8.107   4.333
 2100TIP3    H1 6241   1.179   8.083   4.255
 2100TIP3    H2 6242   1.137   8.031   4.391
 2101TIP3   OH2 6243   0.858   7.952   3.659
 2101TIP3    H1 6244   0.899   7.967   3.574
 2101TIP3    H2 6245   0.898   8.018   3.716
 2102TIP3   OH2 6246   4.872   1.027   2.661
 2102TIP3    H1 6247   4.926   1.017   2.583
 2102TIP3    H2 6248   4.913   1.100   2.709
 2103TIP3   OH2 6249   3.971   0.831   4.036
 2103TIP3    H1 6250   3.879   0.807   4.036
 2103TIP3    H2 6251   3.999   0.821   4.127
 2104TIP3   OH2 6252   4.194   0.864   3.577
 2104TIP3    H1 6253   4.141   0.938   3.546
 2104TIP3    H2 6254   4.284   0.898   3.576
 2105TIP3   OH2 6255   4.573   1.103   3.700
 2105TIP3    H1 6256   4.602   1.084   3.789
 2105TIP3    H2 6257   4.644   1.156   3.662
 2106TIP3   OH2 6258   4.779   1.257   3.599
 2106TIP3    H1 6259   4.852   1.207   3.561
 2106TIP3    H2 6260   4.822   1.319   3.658
 2107TIP3   OH2 6261   3.844   1.116   3.634
 2107TIP3    H1 6262   3.752   1.130   3.611
 2107TIP3    H2 6263   3.863   1.184   3.698
 2108TIP3   OH2 6264   4.072   1.087   3.477
 2108TIP3    H1 6265   3.992   1.098   3.528
 2108TIP3    H2 6266   4.050   1.123   3.391
 2109TIP3   OH2 6267   4.480   1.106   3.286
 2109TIP3    H1 6268   4.412   1.120   3.221
 2109TIP3    H2 6269   4.497   1.192   3.323
 2110TIP3   OH2 6270   4.757   1.058   3.310
 2110TIP3    H1 6271   4.667   1.080   3.288
 2110TIP3    H2 6272   4.810   1.124   3.265
 2111TIP3   OH2 6273   4.956   1.238   3.220
 2111TIP3    H1 6274   4.954   1.325   3.182
 2111TIP3    H2 6275   4.987   1.181   3.149
 2112TIP3   OH2 6276   3.740   0.895   3.358
 2112TIP3    H1 6277   3.769   0.872   3.446
 2112TIP3    H2 6278   3.810   0.863   3.301
 2113TIP3   OH2 6279   3.937   0.781   3.212
 2113TIP3    H1 6280   3.953   0.699   3.259
 2113TIP3    H2 6281   4.024   0.819   3.201
 2114TIP3   OH2 6282   4.201   0.880   3.228
 2114TIP3    H1 6283   4.233   0.791   3.218
 2114TIP3    H2 6284   4.202   0.897   3.322
 2115TIP3   OH2 6285   3.512   0.692   2.742
 2115TIP3    H1 6286   3.429   0.657   2.709
 2115TIP3    H2 6287   3.515   0.782   2.708
 2116TIP3   OH2 6288   4.318   0.854   2.337
 2116TIP3    H1 6289   4.401   0.883   2.298
 2116TIP3    H2 6290   4.288   0.783   2.280
 2117TIP3   OH2 6291   5.020   0.986   2.430
 2117TIP3    H1 6292   5.014   0.891   2.420
 2117TIP3    H2 6293   4.979   1.021   2.351
 2118TIP3   OH2 6294   3.614   0.687   2.389
 2118TIP3    H1 6295   3.616   0.704   2.483
 2118TIP3    H2 6296   3.697   0.644   2.370
 2119TIP3   OH2 6297   5.233   1.129   3.617
 2119TIP3    H1 6298   5.155   1.102   3.568
 2119TIP3    H2 6299   5.224   1.224   3.626
 2120TIP3   OH2 6300   6.503   0.485   2.389
 2120TIP3    H1 6301   6.486   0.579   2.381
 2120TIP3    H2 6302   6.436   0.445   2.334
 2121TIP3   OH2 6303   6.497   0.529   2.772
 2121TIP3    H1 6304   6.529   0.514   2.861
 2121TIP3    H2 6305   6.466   0.444   2.742
 2122TIP3   OH2 6306   5.823   0.390   3.142
 2122TIP3    H1 6307   5.859   0.437   3.218
 2122TIP3    H2 6308   5.892   0.395   3.076
 2123TIP3   OH2 6309   6.770   0.815   2.457
 2123TIP3    H1 6310   6.750   0.759   2.531
 2123TIP3    H2 6311   6.796   0.899   2.496
 2124TIP3   OH2 6312   5.793   0.803   2.835
 2124TIP3    H1 6313   5.778   0.709   2.838
 2124TIP3    H2 6314   5.887   0.812   2.819
 2125TIP3   OH2 6315   5.471   0.067   2.647
 2125TIP3    H1 6316   5.419   0.148   2.645
 2125TIP3    H2 6317   5.534   0.077   2.576
 2126TIP3   OH2 6318   5.550   0.346   2.810
 2126TIP3    H1 6319   5.602   0.268   2.825
 2126TIP3    H2 6320   5.613   0.411   2.778
 2127TIP3   OH2 6321   6.431   1.249   2.466
 2127TIP3    H1 6322   6.459   1.183   2.402
 2127TIP3    H2 6323   6.427   1.201   2.549
 2128TIP3   OH2 6324   6.308   0.738   2.798
 2128TIP3    H1 6325   6.351   0.660   2.762
 2128TIP3    H2 6326   6.380   0.794   2.826
 2129TIP3   OH2 6327   6.677   0.267   2.825
 2129TIP3    H1 6328   6.728   0.220   2.891
 2129TIP3    H2 6329   6.731   0.265   2.746
 2130TIP3   OH2 6330   3.099   7.953   2.887
 2130TIP3    H1 6331   3.152   7.964   2.808
 2130TIP3    H2 6332   3.133   7.875   2.929
 2131TIP3   OH2 6333   3.897   7.987   2.471
 2131TIP3    H1 6334   3.831   8.031   2.525
 2131TIP3    H2 6335   3.878   8.015   2.382
 2132TIP3   OH2 6336   5.714   0.142   2.893
 2132TIP3    H1 6337   5.774   0.108   2.959
 2132TIP3    H2 6338   5.722   0.080   2.820
 2133TIP3   OH2 6339   6.133   0.335   2.705
 2133TIP3    H1 6340   6.227   0.317   2.706
 2133TIP3    H2 6341   6.093   0.254   2.673
 2134TIP3   OH2 6342   7.359   0.246   2.903
 2134TIP3    H1 6343   7.296   0.308   2.941
 2134TIP3    H2 6344   7.388   0.194   2.977
 2135TIP3   OH2 6345   6.385   0.709   2.255
 2135TIP3    H1 6346   6.371   0.699   2.160
 2135TIP3    H2 6347   6.345   0.793   2.276
 2136TIP3   OH2 6348   6.166   0.655   3.020
 2136TIP3    H1 6349   6.107   0.725   3.050
 2136TIP3    H2 6350   6.210   0.692   2.943
 2137TIP3   OH2 6351   3.000   8.114   3.086
 2137TIP3    H1 6352   3.079   8.165   3.070
 2137TIP3    H2 6353   3.010   8.036   3.032
 2138TIP3   OH2 6354   6.000   0.854   3.115
 2138TIP3    H1 6355   5.985   0.942   3.079
 2138TIP3    H2 6356   5.921   0.836   3.167
 2139TIP3   OH2 6357   5.366   0.568   2.363
 2139TIP3    H1 6358   5.336   0.586   2.274
 2139TIP3    H2 6359   5.393   0.654   2.397
 2140TIP3   OH2 6360   6.822   1.059   2.599
 2140TIP3    H1 6361   6.735   1.051   2.637
 2140TIP3    H2 6362   6.820   1.143   2.553
 2141TIP3   OH2 6363   6.521   1.088   2.258
 2141TIP3    H1 6364   6.572   1.008   2.243
 2141TIP3    H2 6365   6.579   1.158   2.228
 2142TIP3   OH2 6366   6.674   0.872   2.199
 2142TIP3    H1 6367   6.673   0.794   2.144
 2142TIP3    H2 6368   6.712   0.841   2.282
 2143TIP3   OH2 6369   7.056   0.948   2.947
 2143TIP3    H1 6370   7.037   0.878   2.884
 2143TIP3    H2 6371   7.040   1.029   2.899
 2144TIP3   OH2 6372   6.339   0.354   2.209
 2144TIP3    H1 6373   6.260   0.406   2.194
 2144TIP3    H2 6374   6.385   0.356   2.126
 2145TIP3   OH2 6375   7.237   0.631   2.789
 2145TIP3    H1 6376   7.149   0.669   2.786
 2145TIP3    H2 6377   7.262   0.620   2.697
 2146TIP3   OH2 6378   6.690   0.452   2.186
 2146TIP3    H1 6379   6.639   0.470   2.265
 2146TIP3    H2 6380   6.778   0.433   2.218
 2147TIP3   OH2 6381   6.908   0.532   3.071
 2147TIP3    H1 6382   6.888   0.624   3.088
 2147TIP3    H2 6383   6.824   0.494   3.045
 2148TIP3   OH2 6384   5.914   0.461   2.588
 2148TIP3    H1 6385   5.879   0.408   2.517
 2148TIP3    H2 6386   5.993   0.414   2.616
 2149TIP3   OH2 6387   6.051   0.845   2.727
 2149TIP3    H1 6388   6.031   0.831   2.635
 2149TIP3    H2 6389   6.139   0.809   2.738
 2150TIP3   OH2 6390   6.024   0.429   2.952
 2150TIP3    H1 6391   6.067   0.395   2.873
 2150TIP3    H2 6392   6.078   0.504   2.977
 2151TIP3   OH2 6393   6.584   1.052   2.730
 2151TIP3    H1 6394   6.569   1.131   2.781
 2151TIP3    H2 6395   6.567   0.980   2.792
 2152TIP3   OH2 6396   6.198   0.957   3.278
 2152TIP3    H1 6397   6.138   1.018   3.323
 2152TIP3    H2 6398   6.142   0.906   3.221
 2153TIP3   OH2 6399   6.523   0.330   2.007
 2153TIP3    H1 6400   6.590   0.372   2.061
 2153TIP3    H2 6401   6.569   0.302   1.928
 2154TIP3   OH2 6402   5.930   0.534   3.377
 2154TIP3    H1 6403   5.953   0.619   3.415
 2154TIP3    H2 6404   5.838   0.522   3.399
 2155TIP3   OH2 6405   6.273   0.969   2.275
 2155TIP3    H1 6406   6.357   1.014   2.275
 2155TIP3    H2 6407   6.216   1.023   2.221
 2156TIP3   OH2 6408   5.990   1.119   3.360
 2156TIP3    H1 6409   5.964   1.127   3.268
 2156TIP3    H2 6410   5.909   1.100   3.407
 2157TIP3   OH2 6411   5.797   0.332   2.373
 2157TIP3    H1 6412   5.720   0.377   2.337
 2157TIP3    H2 6413   5.768   0.243   2.388
 2158TIP3   OH2 6414   6.804   0.912   1.616
 2158TIP3    H1 6415   6.825   1.004   1.598
 2158TIP3    H2 6416   6.888   0.867   1.609
 2159TIP3   OH2 6417   5.557   0.691   3.296
 2159TIP3    H1 6418   5.493   0.664   3.230
 2159TIP3    H2 6419   5.595   0.609   3.328
 2160TIP3   OH2 6420   5.444   0.850   2.953
 2160TIP3    H1 6421   5.538   0.851   2.936
 2160TIP3    H2 6422   5.426   0.931   3.001
 2161TIP3   OH2 6423   7.282   1.332   3.005
 2161TIP3    H1 6424   7.288   1.237   3.009
 2161TIP3    H2 6425   7.201   1.353   3.052
 2162TIP3   OH2 6426   6.388   1.095   3.135
 2162TIP3    H1 6427   6.383   1.187   3.163
 2162TIP3    H2 6428   6.321   1.050   3.186
 2163TIP3   OH2 6429   6.167   1.201   2.094
 2163TIP3    H1 6430   6.126   1.182   2.010
 2163TIP3    H2 6431   6.130   1.286   2.120
 2164TIP3   OH2 6432   5.601   1.056   2.469
 2164TIP3    H1 6433   5.646   1.047   2.553
 2164TIP3    H2 6434   5.552   0.974   2.459
 2165TIP3   OH2 6435   6.371   1.117   1.721
 2165TIP3    H1 6436   6.425   1.047   1.685
 2165TIP3    H2 6437   6.406   1.131   1.809
 2166TIP3   OH2 6438   6.420   1.172   1.990
 2166TIP3    H1 6439   6.334   1.175   2.033
 2166TIP3    H2 6440   6.478   1.134   2.056
 2167TIP3   OH2 6441   7.105   0.478   3.282
 2167TIP3    H1 6442   7.041   0.538   3.245
 2167TIP3    H2 6443   7.089   0.395   3.237
 2168TIP3   OH2 6444   5.779   0.858   3.279
 2168TIP3    H1 6445   5.823   0.848   3.363
 2168TIP3    H2 6446   5.701   0.802   3.286
 2169TIP3   OH2 6447   7.030   0.237   3.177
 2169TIP3    H1 6448   6.991   0.209   3.260
 2169TIP3    H2 6449   6.969   0.207   3.110
 2170TIP3   OH2 6450   6.101   0.189   3.126
 2170TIP3    H1 6451   6.120   0.275   3.163
 2170TIP3    H2 6452   6.080   0.206   3.034
 2171TIP3   OH2 6453   5.957   0.153   2.571
 2171TIP3    H1 6454   5.863   0.148   2.560
 2171TIP3    H2 6455   5.993   0.116   2.491
 2172TIP3   OH2 6456   6.543   0.164   2.256
 2172TIP3    H1 6457   6.481   0.233   2.234
 2172TIP3    H2 6458   6.605   0.163   2.184
 2173TIP3   OH2 6459   6.650   0.468   3.386
 2173TIP3    H1 6460   6.660   0.402   3.454
 2173TIP3    H2 6461   6.731   0.519   3.390
 2174TIP3   OH2 6462   6.645   0.264   2.519
 2174TIP3    H1 6463   6.587   0.330   2.482
 2174TIP3    H2 6464   6.587   0.192   2.544
 2175TIP3   OH2 6465   5.887   0.287   3.527
 2175TIP3    H1 6466   5.928   0.354   3.472
 2175TIP3    H2 6467   5.891   0.207   3.474
 2176TIP3   OH2 6468   2.686   7.878   2.399
 2176TIP3    H1 6469   2.726   7.965   2.396
 2176TIP3    H2 6470   2.636   7.879   2.481
 2177TIP3   OH2 6471   6.633   0.455   3.015
 2177TIP3    H1 6472   6.650   0.394   2.943
 2177TIP3    H2 6473   6.615   0.398   3.090
 2178TIP3   OH2 6474   2.884   8.053   2.705
 2178TIP3    H1 6475   2.861   8.080   2.616
 2178TIP3    H2 6476   2.913   7.963   2.696
 2179TIP3   OH2 6477   3.170   8.105   2.367
 2179TIP3    H1 6478   3.258   8.136   2.346
 2179TIP3    H2 6479   3.131   8.085   2.282
 2180TIP3   OH2 6480   5.850   0.038   2.142
 2180TIP3    H1 6481   5.796   0.045   2.221
 2180TIP3    H2 6482   5.808  -0.031   2.091
 2181TIP3   OH2 6483   6.994   1.659   3.102
 2181TIP3    H1 6484   6.989   1.678   3.009
 2181TIP3    H2 6485   7.072   1.705   3.133
 2182TIP3   OH2 6486   5.940   0.777   3.516
 2182TIP3    H1 6487   6.019   0.796   3.567
 2182TIP3    H2 6488   5.869   0.783   3.580
 2183TIP3   OH2 6489   6.401   0.261   2.748
 2183TIP3    H1 6490   6.493   0.233   2.747
 2183TIP3    H2 6491   6.376   0.257   2.840
 2184TIP3   OH2 6492   6.360   0.263   3.019
 2184TIP3    H1 6493   6.295   0.203   3.054
 2184TIP3    H2 6494   6.420   0.279   3.092
 2185TIP3   OH2 6495   6.107   0.496   2.152
 2185TIP3    H1 6496   6.037   0.434   2.134
 2185TIP3    H2 6497   6.082   0.537   2.235
 2186TIP3   OH2 6498   6.993   0.758   2.763
 2186TIP3    H1 6499   7.023   0.801   2.684
 2186TIP3    H2 6500   6.907   0.723   2.740
 2187TIP3   OH2 6501   6.512   0.826   3.172
 2187TIP3    H1 6502   6.567   0.823   3.250
 2187TIP3    H2 6503   6.474   0.914   3.172
 2188TIP3   OH2 6504   5.789   0.521   2.822
 2188TIP3    H1 6505   5.825   0.510   2.734
 2188TIP3    H2 6506   5.859   0.490   2.880
 2189TIP3   OH2 6507   6.260   0.659   1.994
 2189TIP3    H1 6508   6.216   0.744   1.997
 2189TIP3    H2 6509   6.207   0.602   2.050
 2190TIP3   OH2 6510   5.669   0.484   3.440
 2190TIP3    H1 6511   5.692   0.452   3.528
 2190TIP3    H2 6512   5.602   0.424   3.410
 2191TIP3   OH2 6513   6.413   0.587   3.456
 2191TIP3    H1 6514   6.366   0.571   3.374
 2191TIP3    H2 6515   6.502   0.556   3.438
 2192TIP3   OH2 6516   6.659   1.109   3.057
 2192TIP3    H1 6517   6.564   1.101   3.063
 2192TIP3    H2 6518   6.684   1.152   3.139
 2193TIP3   OH2 6519   7.301   1.057   3.023
 2193TIP3    H1 6520   7.210   1.031   3.034
 2193TIP3    H2 6521   7.328   1.017   2.940
 2194TIP3   OH2 6522   6.768   0.981   1.892
 2194TIP3    H1 6523   6.745   0.915   1.958
 2194TIP3    H2 6524   6.764   0.934   1.809
 2195TIP3   OH2 6525   6.743   0.648   2.687
 2195TIP3    H1 6526   6.654   0.617   2.704
 2195TIP3    H2 6527   6.786   0.575   2.644
 2196TIP3   OH2 6528   5.921   0.853   2.474
 2196TIP3    H1 6529   5.920   0.930   2.418
 2196TIP3    H2 6530   5.829   0.827   2.482
 2197TIP3   OH2 6531   5.471   0.178   2.148
 2197TIP3    H1 6532   5.527   0.250   2.177
 2197TIP3    H2 6533   5.396   0.181   2.208
 2198TIP3   OH2 6534   6.021   0.611   2.381
 2198TIP3    H1 6535   6.009   0.704   2.403
 2198TIP3    H2 6536   5.987   0.564   2.457
 2199TIP3   OH2 6537   6.200   1.170   2.929
 2199TIP3    H1 6538   6.235   1.243   2.878
 2199TIP3    H2 6539   6.275   1.136   2.978
 2200TIP3   OH2 6540   5.833   1.074   2.321
 2200TIP3    H1 6541   5.747   1.080   2.361
 2200TIP3    H2 6542   5.868   1.163   2.324
 2201TIP3   OH2 6543   6.555   0.829   2.897
 2201TIP3    H1 6544   6.548   0.819   2.992
 2201TIP3    H2 6545   6.632   0.778   2.873
 2202TIP3   OH2 6546   6.529   0.715   1.799
 2202TIP3    H1 6547   6.582   0.694   1.875
 2202TIP3    H2 6548   6.452   0.658   1.806
 2203TIP3   OH2 6549   6.810   1.335   2.940
 2203TIP3    H1 6550   6.735   1.276   2.948
 2203TIP3    H2 6551   6.786   1.394   2.868
 2204TIP3   OH2 6552   6.851   1.177   1.577
 2204TIP3    H1 6553   6.861   1.229   1.498
 2204TIP3    H2 6554   6.792   1.227   1.632
 2205TIP3   OH2 6555   6.699   0.663   2.011
 2205TIP3    H1 6556   6.687   0.587   2.068
 2205TIP3    H2 6557   6.791   0.662   1.987
 2206TIP3   OH2 6558   5.622   1.065   3.093
 2206TIP3    H1 6559   5.678   1.004   3.140
 2206TIP3    H2 6560   5.642   1.150   3.130
 2207TIP3   OH2 6561   5.901   0.680   1.779
 2207TIP3    H1 6562   5.899   0.589   1.750
 2207TIP3    H2 6563   5.883   0.675   1.873
 2208TIP3   OH2 6564   5.848   0.694   2.051
 2208TIP3    H1 6565   5.922   0.667   2.106
 2208TIP3    H2 6566   5.847   0.790   2.057
 2209TIP3   OH2 6567   5.572   0.420   2.251
 2209TIP3    H1 6568   5.503   0.459   2.305
 2209TIP3    H2 6569   5.582   0.481   2.178
 2210TIP3   OH2 6570   6.116   0.888   2.000
 2210TIP3    H1 6571   6.029   0.913   2.033
 2210TIP3    H2 6572   6.139   0.957   1.938
 2211TIP3   OH2 6573   3.620   8.021   2.339
 2211TIP3    H1 6574   3.640   8.112   2.318
 2211TIP3    H2 6575   3.575   8.025   2.424
 2212TIP3   OH2 6576   6.567   0.269   3.207
 2212TIP3    H1 6577   6.574   0.335   3.276
 2212TIP3    H2 6578   6.615   0.193   3.241
 2213TIP3   OH2 6579   5.861   0.967   2.069
 2213TIP3    H1 6580   5.838   1.036   2.007
 2213TIP3    H2 6581   5.849   1.007   2.155
 2214TIP3   OH2 6582   6.864   0.432   2.573
 2214TIP3    H1 6583   6.810   0.353   2.568
 2214TIP3    H2 6584   6.943   0.404   2.620
 2215TIP3   OH2 6585   5.589   0.587   2.032
 2215TIP3    H1 6586   5.660   0.650   2.041
 2215TIP3    H2 6587   5.625   0.518   1.976
 2216TIP3   OH2 6588   2.621   8.012   2.141
 2216TIP3    H1 6589   2.643   8.104   2.151
 2216TIP3    H2 6590   2.554   7.997   2.209
 2217TIP3   OH2 6591   6.841   1.326   2.517
 2217TIP3    H1 6592   6.798   1.376   2.448
 2217TIP3    H2 6593   6.935   1.338   2.501
 2218TIP3   OH2 6594   5.430   0.832   2.444
 2218TIP3    H1 6595   5.383   0.868   2.520
 2218TIP3    H2 6596   5.388   0.873   2.368
 2219TIP3   OH2 6597   5.621   1.364   3.509
 2219TIP3    H1 6598   5.704   1.367   3.557
 2219TIP3    H2 6599   5.601   1.271   3.502
 2220TIP3   OH2 6600   6.089   1.286   3.557
 2220TIP3    H1 6601   6.183   1.270   3.563
 2220TIP3    H2 6602   6.060   1.231   3.484
 2221TIP3   OH2 6603   6.055   0.892   1.689
 2221TIP3    H1 6604   6.009   0.815   1.723
 2221TIP3    H2 6605   6.133   0.857   1.646
 2222TIP3   OH2 6606   6.715   1.222   3.301
 2222TIP3    H1 6607   6.724   1.153   3.367
 2222TIP3    H2 6608   6.789   1.280   3.317
 2223TIP3   OH2 6609   6.525   0.913   1.617
 2223TIP3    H1 6610   6.525   0.843   1.682
 2223TIP3    H2 6611   6.617   0.920   1.590
 2224TIP3   OH2 6612   5.724   0.772   3.692
 2224TIP3    H1 6613   5.743   0.679   3.703
 2224TIP3    H2 6614   5.638   0.775   3.650
 2225TIP3   OH2 6615   5.723   0.381   1.910
 2225TIP3    H1 6616   5.779   0.359   1.984
 2225TIP3    H2 6617   5.783   0.386   1.835
 2226TIP3   OH2 6618   6.347   0.857   3.486
 2226TIP3    H1 6619   6.303   0.881   3.404
 2226TIP3    H2 6620   6.384   0.770   3.469
 2227TIP3   OH2 6621   6.270   0.584   1.732
 2227TIP3    H1 6622   6.261   0.611   1.823
 2227TIP3    H2 6623   6.203   0.517   1.719
 2228TIP3   OH2 6624   6.819   0.880   3.078
 2228TIP3    H1 6625   6.899   0.910   3.035
 2228TIP3    H2 6626   6.756   0.950   3.065
 2229TIP3   OH2 6627   5.831   0.512   3.695
 2229TIP3    H1 6628   5.880   0.436   3.663
 2229TIP3    H2 6629   5.885   0.548   3.765
 2230TIP3   OH2 6630   5.903   0.309   2.119
 2230TIP3    H1 6631   5.874   0.326   2.209
 2230TIP3    H2 6632   5.901   0.214   2.112
 2231TIP3   OH2 6633   6.155   0.388   3.304
 2231TIP3    H1 6634   6.087   0.449   3.331
 2231TIP3    H2 6635   6.223   0.444   3.266
 2232TIP3   OH2 6636   6.707   0.775   3.461
 2232TIP3    H1 6637   6.786   0.743   3.419
 2232TIP3    H2 6638   6.706   0.733   3.547
 2233TIP3   OH2 6639   6.316   0.171   3.386
 2233TIP3    H1 6640   6.291   0.096   3.332
 2233TIP3    H2 6641   6.260   0.242   3.355
 2234TIP3   OH2 6642   6.350   0.540   3.190
 2234TIP3    H1 6643   6.437   0.550   3.152
 2234TIP3    H2 6644   6.292   0.584   3.127
 2235TIP3   OH2 6645   6.896   0.546   3.512
 2235TIP3    H1 6646   6.914   0.479   3.578
 2235TIP3    H2 6647   6.971   0.605   3.518
 2236TIP3   OH2 6648   6.938   0.753   3.285
 2236TIP3    H1 6649   6.879   0.800   3.226
 2236TIP3    H2 6650   7.024   0.759   3.244
 2237TIP3   OH2 6651   6.156   0.321   3.690
 2237TIP3    H1 6652   6.116   0.238   3.665
 2237TIP3    H2 6653   6.219   0.340   3.621
 2238TIP3   OH2 6654   6.571   0.193   3.496
 2238TIP3    H1 6655   6.593   0.112   3.542
 2238TIP3    H2 6656   6.484   0.177   3.460
 2239TIP3   OH2 6657   5.851   1.175   1.885
 2239TIP3    H1 6658   5.943   1.162   1.862
 2239TIP3    H2 6659   5.813   1.219   1.810
 2240TIP3   OH2 6660   5.321   0.568   2.085
 2240TIP3    H1 6661   5.413   0.587   2.066
 2240TIP3    H2 6662   5.305   0.483   2.044
 2241TIP3   OH2 6663   5.227   1.142   2.522
 2241TIP3    H1 6664   5.163   1.088   2.475
 2241TIP3    H2 6665   5.271   1.081   2.581
 2242TIP3   OH2 6666   5.367   0.977   2.696
 2242TIP3    H1 6667   5.356   0.911   2.764
 2242TIP3    H2 6668   5.419   1.046   2.736
 2243TIP3   OH2 6669   7.111   1.380   2.501
 2243TIP3    H1 6670   7.129   1.415   2.588
 2243TIP3    H2 6671   7.166   1.432   2.442
 2244TIP3   OH2 6672   7.119   1.418   2.783
 2244TIP3    H1 6673   7.076   1.333   2.778
 2244TIP3    H2 6674   7.192   1.405   2.843
 2245TIP3   OH2 6675   7.164   1.121   3.348
 2245TIP3    H1 6676   7.098   1.127   3.417
 2245TIP3    H2 6677   7.212   1.204   3.355
 2246TIP3   OH2 6678   6.968   0.650   1.972
 2246TIP3    H1 6679   7.032   0.712   1.938
 2246TIP3    H2 6680   7.017   0.596   2.034
 2247TIP3   OH2 6681   7.113   0.511   2.161
 2247TIP3    H1 6682   7.041   0.468   2.207
 2247TIP3    H2 6683   7.178   0.528   2.230
 2248TIP3   OH2 6684   7.184   0.876   2.588
 2248TIP3    H1 6685   7.226   0.810   2.533
 2248TIP3    H2 6686   7.181   0.955   2.534
 2249TIP3   OH2 6687   6.986   1.170   2.798
 2249TIP3    H1 6688   6.918   1.218   2.846
 2249TIP3    H2 6689   6.941   1.130   2.724
 2250TIP3   OH2 6690   6.928   0.388   2.310
 2250TIP3    H1 6691   6.916   0.293   2.318
 2250TIP3    H2 6692   6.915   0.421   2.399
 2251TIP3   OH2 6693   5.557   0.425   3.072
 2251TIP3    H1 6694   5.549   0.400   2.980
 2251TIP3    H2 6695   5.651   0.419   3.090
 2252TIP3   OH2 6696   7.175   0.781   3.154
 2252TIP3    H1 6697   7.241   0.716   3.131
 2252TIP3    H2 6698   7.156   0.826   3.072
 2253TIP3   OH2 6699   7.367   0.594   3.118
 2253TIP3    H1 6700   7.313   0.520   3.089
 2253TIP3    H2 6701   7.436   0.553   3.171
 2254TIP3   OH2 6702   7.094   0.370   2.703
 2254TIP3    H1 6703   7.179   0.365   2.660
 2254TIP3    H2 6704   7.102   0.313   2.780
 2255TIP3   OH2 6705   7.178   0.439   2.984
 2255TIP3    H1 6706   7.087   0.449   3.014
 2255TIP3    H2 6707   7.185   0.498   2.909
 2256TIP3   OH2 6708   5.726   0.190   3.856
 2256TIP3    H1 6709   5.800   0.156   3.805
 2256TIP3    H2 6710   5.694   0.114   3.905
 2257TIP3   OH2 6711   5.556   0.101   3.131
 2257TIP3    H1 6712   5.596   0.156   3.064
 2257TIP3    H2 6713   5.610   0.116   3.209
 2258TIP3   OH2 6714   6.666   1.288   2.152
 2258TIP3    H1 6715   6.721   1.278   2.074
 2258TIP3    H2 6716   6.710   1.357   2.202
 2259TIP3   OH2 6717   5.768   1.081   3.524
 2259TIP3    H1 6718   5.673   1.069   3.519
 2259TIP3    H2 6719   5.787   1.079   3.618
 2260TIP3   OH2 6720   5.971   1.129   3.077
 2260TIP3    H1 6721   5.919   1.203   3.044
 2260TIP3    H2 6722   6.056   1.138   3.033
 2261TIP3   OH2 6723   6.378   1.363   3.214
 2261TIP3    H1 6724   6.416   1.358   3.302
 2261TIP3    H2 6725   6.441   1.415   3.164
 2262TIP3   OH2 6726   6.567   1.517   3.085
 2262TIP3    H1 6727   6.631   1.467   3.035
 2262TIP3    H2 6728   6.621   1.574   3.141
 2263TIP3   OH2 6729   5.632   1.368   3.125
 2263TIP3    H1 6730   5.542   1.388   3.100
 2263TIP3    H2 6731   5.655   1.436   3.189
 2264TIP3   OH2 6732   5.862   1.359   2.971
 2264TIP3    H1 6733   5.779   1.366   3.018
 2264TIP3    H2 6734   5.842   1.386   2.882
 2265TIP3   OH2 6735   6.282   1.378   2.764
 2265TIP3    H1 6736   6.213   1.390   2.699
 2265TIP3    H2 6737   6.294   1.464   2.804
 2266TIP3   OH2 6738   6.547   1.314   2.816
 2266TIP3    H1 6739   6.455   1.333   2.796
 2266TIP3    H2 6740   6.596   1.381   2.768
 2267TIP3   OH2 6741   6.747   1.491   2.717
 2267TIP3    H1 6742   6.744   1.578   2.677
 2267TIP3    H2 6743   6.779   1.434   2.647
 2268TIP3   OH2 6744   5.539   1.153   2.842
 2268TIP3    H1 6745   5.565   1.130   2.931
 2268TIP3    H2 6746   5.612   1.122   2.787
 2269TIP3   OH2 6747   5.744   1.040   2.705
 2269TIP3    H1 6748   5.756   0.956   2.750
 2269TIP3    H2 6749   5.831   1.080   2.704
 2270TIP3   OH2 6750   6.013   1.125   2.723
 2270TIP3    H1 6751   6.031   1.032   2.708
 2270TIP3    H2 6752   6.067   1.148   2.799
 2271TIP3   OH2 6753   5.312   0.949   2.228
 2271TIP3    H1 6754   5.229   0.917   2.192
 2271TIP3    H2 6755   5.317   1.040   2.197
 2272TIP3   OH2 6756   6.114   1.117   1.826
 2272TIP3    H1 6757   6.200   1.139   1.789
 2272TIP3    H2 6758   6.082   1.046   1.771
 2273TIP3   OH2 6759   6.814   1.247   1.921
 2273TIP3    H1 6760   6.805   1.152   1.914
 2273TIP3    H2 6761   6.770   1.281   1.843
 2274TIP3   OH2 6762   5.415   0.943   1.878
 2274TIP3    H1 6763   5.419   0.964   1.972
 2274TIP3    H2 6764   5.499   0.901   1.859
 2275TIP3   OH2 6765   7.031   1.385   3.106
 2275TIP3    H1 6766   6.956   1.355   3.054
 2275TIP3    H2 6767   7.018   1.480   3.114
 2276TIP3   OH2 6768   7.627   0.689   2.603
 2276TIP3    H1 6769   7.596   0.678   2.693
 2276TIP3    H2 6770   7.701   0.750   2.611
 2277TIP3   OH2 6771   7.570   1.060   2.346
 2277TIP3    H1 6772   7.571   0.965   2.333
 2277TIP3    H2 6773   7.631   1.075   2.418
 2278TIP3   OH2 6774   7.366   0.525   2.284
 2278TIP3    H1 6775   7.382   0.434   2.258
 2278TIP3    H2 6776   7.371   0.574   2.202
 2279TIP3   OH2 6777   7.733   1.110   2.560
 2279TIP3    H1 6778   7.759   1.202   2.559
 2279TIP3    H2 6779   7.678   1.101   2.638
 2280TIP3   OH2 6780   7.178   0.812   1.894
 2280TIP3    H1 6781   7.247   0.795   1.829
 2280TIP3    H2 6782   7.192   0.903   1.920
 2281TIP3   OH2 6783   7.736   0.790   2.848
 2281TIP3    H1 6784   7.743   0.878   2.886
 2281TIP3    H2 6785   7.650   0.758   2.876
 2282TIP3   OH2 6786   7.748   1.425   2.859
 2282TIP3    H1 6787   7.741   1.401   2.767
 2282TIP3    H2 6788   7.674   1.381   2.901
 2283TIP3   OH2 6789   7.368   0.926   2.793
 2283TIP3    H1 6790   7.300   0.911   2.727
 2283TIP3    H2 6791   7.402   0.839   2.813
 2284TIP3   OH2 6792   7.226   1.115   2.445
 2284TIP3    H1 6793   7.321   1.128   2.441
 2284TIP3    H2 6794   7.192   1.196   2.481
 2285TIP3   OH2 6795   7.392   1.304   1.958
 2285TIP3    H1 6796   7.438   1.293   2.041
 2285TIP3    H2 6797   7.344   1.222   1.946
 2286TIP3   OH2 6798   7.560   1.123   2.773
 2286TIP3    H1 6799   7.613   1.106   2.850
 2286TIP3    H2 6800   7.491   1.058   2.776
 2287TIP3   OH2 6801   7.718   1.027   2.992
 2287TIP3    H1 6802   7.796   1.068   3.028
 2287TIP3    H2 6803   7.653   1.032   3.062
 2288TIP3   OH2 6804   7.597   0.783   2.334
 2288TIP3    H1 6805   7.638   0.731   2.265
 2288TIP3    H2 6806   7.616   0.735   2.414
 2289TIP3   OH2 6807   7.486   0.685   2.885
 2289TIP3    H1 6808   7.483   0.672   2.980
 2289TIP3    H2 6809   7.403   0.648   2.853
 2290TIP3   OH2 6810   7.633   1.348   1.824
 2290TIP3    H1 6811   7.550   1.318   1.863
 2290TIP3    H2 6812   7.609   1.427   1.776
 2291TIP3   OH2 6813   7.424   1.321   2.579
 2291TIP3    H1 6814   7.473   1.261   2.636
 2291TIP3    H2 6815   7.440   1.408   2.615
 2292TIP3   OH2 6816   7.219   1.084   1.941
 2292TIP3    H1 6817   7.174   1.124   2.015
 2292TIP3    H2 6818   7.174   1.118   1.864
 2293TIP3   OH2 6819   7.407   1.616   2.993
 2293TIP3    H1 6820   7.489   1.618   3.042
 2293TIP3    H2 6821   7.383   1.523   2.990
 2294TIP3   OH2 6822   7.869   1.518   3.083
 2294TIP3    H1 6823   7.943   1.571   3.055
 2294TIP3    H2 6824   7.830   1.486   3.001
 2295TIP3   OH2 6825   7.521   1.023   3.186
 2295TIP3    H1 6826   7.520   0.932   3.214
 2295TIP3    H2 6827   7.438   1.035   3.139
 2296TIP3   OH2 6828   7.662   0.740   3.170
 2296TIP3    H1 6829   7.739   0.747   3.115
 2296TIP3    H2 6830   7.682   0.794   3.247
 2297TIP3   OH2 6831   7.021   1.400   2.010
 2297TIP3    H1 6832   6.955   1.346   1.967
 2297TIP3    H2 6833   7.065   1.341   2.071
 2298TIP3   OH2 6834   7.159   1.236   2.185
 2298TIP3    H1 6835   7.148   1.169   2.252
 2298TIP3    H2 6836   7.217   1.301   2.226
 2299TIP3   OH2 6837   7.359   0.637   2.534
 2299TIP3    H1 6838   7.355   0.610   2.443
 2299TIP3    H2 6839   7.449   0.667   2.546
 2300TIP3   OH2 6840   7.573   0.495   3.268
 2300TIP3    H1 6841   7.619   0.573   3.237
 2300TIP3    H2 6842   7.637   0.424   3.260
 2301TIP3   OH2 6843   7.341   0.353   2.584
 2301TIP3    H1 6844   7.381   0.303   2.513
 2301TIP3    H2 6845   7.360   0.444   2.562
 2302TIP3   OH2 6846   7.557   1.326   3.040
 2302TIP3    H1 6847   7.465   1.320   3.017
 2302TIP3    H2 6848   7.559   1.315   3.135
 2303TIP3   OH2 6849   7.775   1.383   2.576
 2303TIP3    H1 6850   7.724   1.450   2.530
 2303TIP3    H2 6851   7.866   1.409   2.561
 2304TIP3   OH2 6852   7.424   1.619   2.609
 2304TIP3    H1 6853   7.334   1.641   2.585
 2304TIP3    H2 6854   7.450   1.687   2.672
 2305TIP3   OH2 6855   7.652   1.595   2.452
 2305TIP3    H1 6856   7.570   1.605   2.500
 2305TIP3    H2 6857   7.634   1.632   2.366
 2306TIP3   OH2 6858   7.343   1.407   2.326
 2306TIP3    H1 6859   7.367   1.384   2.416
 2306TIP3    H2 6860   7.414   1.373   2.272
 2307TIP3   OH2 6861   7.541   1.280   2.188
 2307TIP3    H1 6862   7.548   1.200   2.240
 2307TIP3    H2 6863   7.631   1.302   2.165
 2308TIP3   OH2 6864   7.094   1.190   1.722
 2308TIP3    H1 6865   7.014   1.155   1.682
 2308TIP3    H2 6866   7.085   1.285   1.712
 2309TIP3   OH2 6867   7.267   1.339   1.464
 2309TIP3    H1 6868   7.197   1.289   1.505
 2309TIP3    H2 6869   7.318   1.274   1.416
 2310TIP3   OH2 6870   0.747   1.545   3.537
 2310TIP3    H1 6871   0.723   1.623   3.487
 2310TIP3    H2 6872   0.678   1.536   3.603
 2311TIP3   OH2 6873   0.763   1.541   3.949
 2311TIP3    H1 6874   0.811   1.533   4.032
 2311TIP3    H2 6875   0.728   1.454   3.934
 2312TIP3   OH2 6876   0.075   1.434   4.327
 2312TIP3    H1 6877   0.103   1.363   4.385
 2312TIP3    H2 6878   0.148   1.447   4.268
 2313TIP3   OH2 6879   1.022   1.856   3.635
 2313TIP3    H1 6880   1.011   1.792   3.705
 2313TIP3    H2 6881   1.046   1.937   3.680
 2314TIP3   OH2 6882   0.056   1.839   4.005
 2314TIP3    H1 6883   0.036   1.747   4.022
 2314TIP3    H2 6884   0.151   1.843   4.003
 2315TIP3   OH2 6885   0.678   2.298   3.644
 2315TIP3    H1 6886   0.713   2.228   3.588
 2315TIP3    H2 6887   0.666   2.256   3.729
 2316TIP3   OH2 6888   0.569   1.769   3.978
 2316TIP3    H1 6889   0.608   1.689   3.943
 2316TIP3    H2 6890   0.643   1.822   4.006
 2317TIP3   OH2 6891   1.587   1.100   3.977
 2317TIP3    H1 6892   1.612   1.180   4.023
 2317TIP3    H2 6893   1.613   1.115   3.886
 2318TIP3   OH2 6894   0.990   1.283   4.004
 2318TIP3    H1 6895   1.026   1.195   4.018
 2318TIP3    H2 6896   0.953   1.280   3.916
 2319TIP3   OH2 6897   1.014   1.002   3.633
 2319TIP3    H1 6898   1.087   1.001   3.695
 2319TIP3    H2 6899   1.048   1.051   3.558
 2320TIP3   OH2 6900   0.399   1.347   3.922
 2320TIP3    H1 6901   0.491   1.326   3.932
 2320TIP3    H2 6902   0.374   1.309   3.837
 2321TIP3   OH2 6903   1.656   1.306   4.156
 2321TIP3    H1 6904   1.572   1.350   4.147
 2321TIP3    H2 6905   1.695   1.343   4.235
 2322TIP3   OH2 6906   0.607   1.752   3.404
 2322TIP3    H1 6907   0.521   1.721   3.434
 2322TIP3    H2 6908   0.601   1.847   3.408
 2323TIP3   OH2 6909   0.406   1.697   4.191
 2323TIP3    H1 6910   0.350   1.767   4.224
 2323TIP3    H2 6911   0.454   1.737   4.118
 2324TIP3   OH2 6912   1.223   1.016   3.821
 2324TIP3    H1 6913   1.166   1.020   3.898
 2324TIP3    H2 6914   1.273   1.098   3.824
 2325TIP3   OH2 6915   0.244   1.896   4.292
 2325TIP3    H1 6916   0.229   1.985   4.261
 2325TIP3    H2 6917   0.169   1.878   4.349
 2326TIP3   OH2 6918   1.069   2.102   3.774
 2326TIP3    H1 6919   0.983   2.093   3.815
 2326TIP3    H2 6920   1.065   2.187   3.729
 2327TIP3   OH2 6921   1.373   1.001   4.127
 2327TIP3    H1 6922   1.296   1.050   4.099
 2327TIP3    H2 6923   1.443   1.031   4.069
 2328TIP3   OH2 6924   0.782   2.133   3.443
 2328TIP3    H1 6925   0.828   2.051   3.428
 2328TIP3    H2 6926   0.842   2.201   3.414
 2329TIP3   OH2 6927   0.927   1.911   3.380
 2329TIP3    H1 6928   0.937   1.833   3.324
 2329TIP3    H2 6929   0.963   1.884   3.464
 2330TIP3   OH2 6930   1.300   1.998   4.123
 2330TIP3    H1 6931   1.285   1.923   4.066
 2330TIP3    H2 6932   1.284   2.075   4.067
 2331TIP3   OH2 6933   1.487   1.652   3.983
 2331TIP3    H1 6934   1.403   1.698   3.985
 2331TIP3    H2 6935   1.520   1.667   3.895
 2332TIP3   OH2 6936   0.954   1.490   3.359
 2332TIP3    H1 6937   0.885   1.498   3.424
 2332TIP3    H2 6938   1.031   1.461   3.409
 2333TIP3   OH2 6939   1.176   1.517   4.293
 2333TIP3    H1 6940   1.173   1.600   4.340
 2333TIP3    H2 6941   1.094   1.515   4.243
 2334TIP3   OH2 6942   0.321   1.886   3.900
 2334TIP3    H1 6943   0.303   1.856   3.811
 2334TIP3    H2 6944   0.408   1.850   3.920
 2335TIP3   OH2 6945   0.279   1.459   4.142
 2335TIP3    H1 6946   0.320   1.422   4.063
 2335TIP3    H2 6947   0.328   1.539   4.158
 2336TIP3   OH2 6948   0.834   2.091   3.909
 2336TIP3    H1 6949   0.819   2.172   3.958
 2336TIP3    H2 6950   0.818   2.021   3.971
 2337TIP3   OH2 6951   0.446   1.998   4.453
 2337TIP3    H1 6952   0.387   2.058   4.499
 2337TIP3    H2 6953   0.389   1.947   4.396
 2338TIP3   OH2 6954   0.203   1.552   4.577
 2338TIP3    H1 6955   0.201   1.638   4.618
 2338TIP3    H2 6956   0.131   1.554   4.513
 2339TIP3   OH2 6957   0.530   2.020   3.427
 2339TIP3    H1 6958   0.613   2.066   3.444
 2339TIP3    H2 6959   0.470   2.089   3.399
 2340TIP3   OH2 6960   0.244   2.157   4.548
 2340TIP3    H1 6961   0.200   2.174   4.464
 2340TIP3    H2 6962   0.173   2.132   4.607
 2341TIP3   OH2 6963   1.091   1.963   2.780
 2341TIP3    H1 6964   1.090   2.057   2.764
 2341TIP3    H2 6965   1.183   1.941   2.788
 2342TIP3   OH2 6966   8.465   1.681   4.462
 2342TIP3    H1 6967   8.400   1.643   4.402
 2342TIP3    H2 6968   8.464   1.622   4.538
 2343TIP3   OH2 6969   8.309   1.909   4.042
 2343TIP3    H1 6970   8.394   1.899   4.084
 2343TIP3    H2 6971   8.254   1.949   4.109
 2344TIP3   OH2 6972   1.535   2.359   4.186
 2344TIP3    H1 6973   1.540   2.265   4.199
 2344TIP3    H2 6974   1.455   2.386   4.231
 2345TIP3   OH2 6975   0.637   2.137   4.312
 2345TIP3    H1 6976   0.633   2.228   4.341
 2345TIP3    H2 6977   0.568   2.093   4.362
 2346TIP3   OH2 6978   0.418   2.252   3.298
 2346TIP3    H1 6979   0.379   2.239   3.212
 2346TIP3    H2 6980   0.385   2.338   3.326
 2347TIP3   OH2 6981   8.435   2.071   3.653
 2347TIP3    H1 6982   8.503   2.067   3.721
 2347TIP3    H2 6983   8.356   2.040   3.697
 2348TIP3   OH2 6984   0.609   2.160   2.926
 2348TIP3    H1 6985   0.672   2.095   2.895
 2348TIP3    H2 6986   0.637   2.180   3.015
 2349TIP3   OH2 6987   0.668   2.230   3.188
 2349TIP3    H1 6988   0.582   2.230   3.231
 2349TIP3    H2 6989   0.727   2.193   3.254
 2350TIP3   OH2 6990   1.422   1.485   4.460
 2350TIP3    H1 6991   1.340   1.495   4.411
 2350TIP3    H2 6992   1.441   1.391   4.456
 2351TIP3   OH2 6993   0.039   1.889   4.478
 2351TIP3    H1 6994   0.090   1.867   4.556
 2351TIP3    H2 6995  -0.026   1.819   4.472
 2352TIP3   OH2 6996   0.925   0.869   4.407
 2352TIP3    H1 6997   0.974   0.845   4.485
 2352TIP3    H2 6998   0.837   0.835   4.422
 2353TIP3   OH2 6999   1.195   1.259   4.399
 2353TIP3    H1 7000   1.144   1.252   4.480
 2353TIP3    H2 7001   1.174   1.345   4.364
 2354TIP3   OH2 7002   0.379   1.245   4.292
 2354TIP3    H1 7003   0.317   1.233   4.364
 2354TIP3    H2 7004   0.340   1.313   4.237
 2355TIP3   OH2 7005   0.913   1.474   4.596
 2355TIP3    H1 7006   0.880   1.415   4.664
 2355TIP3    H2 7007   1.006   1.487   4.619
 2356TIP3   OH2 7008   0.913   1.282   3.736
 2356TIP3    H1 7009   0.849   1.323   3.678
 2356TIP3    H2 7010   0.887   1.190   3.739
 2357TIP3   OH2 7011   0.197   1.263   4.505
 2357TIP3    H1 7012   0.232   1.338   4.554
 2357TIP3    H2 7013   0.186   1.195   4.572
 2358TIP3   OH2 7014   0.918   1.476   4.177
 2358TIP3    H1 7015   0.948   1.408   4.116
 2358TIP3    H2 7016   0.875   1.428   4.247
 2359TIP3   OH2 7017   1.081   1.024   4.056
 2359TIP3    H1 7018   1.038   1.045   4.139
 2359TIP3    H2 7019   1.080   0.928   4.053
 2360TIP3   OH2 7020   1.244   2.702   4.280
 2360TIP3    H1 7021   1.241   2.723   4.186
 2360TIP3    H2 7022   1.322   2.748   4.312
 2361TIP3   OH2 7023   0.192   1.799   4.703
 2361TIP3    H1 7024   0.274   1.827   4.744
 2361TIP3    H2 7025   0.124   1.824   4.765
 2362TIP3   OH2 7026   0.664   1.272   3.943
 2362TIP3    H1 7027   0.707   1.197   3.902
 2362TIP3    H2 7028   0.658   1.248   4.036
 2363TIP3   OH2 7029   0.635   1.215   4.207
 2363TIP3    H1 7030   0.545   1.228   4.236
 2363TIP3    H2 7031   0.688   1.266   4.269
 2364TIP3   OH2 7032   1.251   1.792   3.947
 2364TIP3    H1 7033   1.285   1.841   3.872
 2364TIP3    H2 7034   1.168   1.755   3.916
 2365TIP3   OH2 7035   0.760   1.873   4.348
 2365TIP3    H1 7036   0.804   1.865   4.433
 2365TIP3    H2 7037   0.718   1.958   4.350
 2366TIP3   OH2 7038   0.040   1.562   4.023
 2366TIP3    H1 7039   0.067   1.524   3.939
 2366TIP3    H2 7040   0.100   1.525   4.087
 2367TIP3   OH2 7041   8.488   1.512   4.677
 2367TIP3    H1 7042   8.559   1.513   4.742
 2367TIP3    H2 7043   8.472   1.419   4.661
 2368TIP3   OH2 7044   0.673   1.620   4.637
 2368TIP3    H1 7045   0.605   1.563   4.600
 2368TIP3    H2 7046   0.755   1.584   4.605
 2369TIP3   OH2 7047   0.910   2.151   4.236
 2369TIP3    H1 7048   0.815   2.141   4.243
 2369TIP3    H2 7049   0.934   2.193   4.319
 2370TIP3   OH2 7050   1.354   1.201   3.097
 2370TIP3    H1 7051   1.272   1.151   3.099
 2370TIP3    H2 7052   1.329   1.286   3.061
 2371TIP3   OH2 7053   1.547   2.075   4.212
 2371TIP3    H1 7054   1.452   2.064   4.207
 2371TIP3    H2 7055   1.579   2.044   4.127
 2372TIP3   OH2 7056   1.046   2.024   3.064
 2372TIP3    H1 7057   1.009   1.964   3.128
 2372TIP3    H2 7058   1.043   1.975   2.981
 2373TIP3   OH2 7059   1.015   1.667   3.851
 2373TIP3    H1 7060   0.927   1.636   3.872
 2373TIP3    H2 7061   1.061   1.589   3.821
 2374TIP3   OH2 7062   0.157   1.879   3.648
 2374TIP3    H1 7063   0.156   1.954   3.588
 2374TIP3    H2 7064   0.081   1.892   3.705
 2375TIP3   OH2 7065   0.326   1.665   3.616
 2375TIP3    H1 7066   0.274   1.746   3.619
 2375TIP3    H2 7067   0.262   1.596   3.598
 2376TIP3   OH2 7068   0.452   2.214   4.106
 2376TIP3    H1 7069   0.488   2.287   4.056
 2376TIP3    H2 7070   0.525   2.181   4.158
 2377TIP3   OH2 7071   0.091   2.115   3.518
 2377TIP3    H1 7072  -0.003   2.117   3.532
 2377TIP3    H2 7073   0.117   2.207   3.510
 2378TIP3   OH2 7074   0.810   1.867   4.077
 2378TIP3    H1 7075   0.797   1.864   4.172
 2378TIP3    H2 7076   0.891   1.819   4.063
 2379TIP3   OH2 7077   0.720   1.729   3.096
 2379TIP3    H1 7078   0.810   1.715   3.124
 2379TIP3    H2 7079   0.669   1.730   3.177
 2380TIP3   OH2 7080   1.059   2.378   4.119
 2380TIP3    H1 7081   0.986   2.317   4.129
 2380TIP3    H2 7082   1.033   2.435   4.047
 2381TIP3   OH2 7083   1.118   2.237   2.758
 2381TIP3    H1 7084   1.159   2.307   2.708
 2381TIP3    H2 7085   1.042   2.278   2.800
 2382TIP3   OH2 7086   0.980   1.703   3.193
 2382TIP3    H1 7087   0.964   1.625   3.247
 2382TIP3    H2 7088   1.073   1.697   3.169
 2383TIP3   OH2 7089   8.459   1.981   4.278
 2383TIP3    H1 7090   8.533   1.974   4.338
 2383TIP3    H2 7091   8.439   2.075   4.275
 2384TIP3   OH2 7092   0.987   1.107   4.300
 2384TIP3    H1 7093   1.070   1.134   4.340
 2384TIP3    H2 7094   0.966   1.024   4.342
 2385TIP3   OH2 7095   0.823   1.319   4.379
 2385TIP3    H1 7096   0.856   1.360   4.459
 2385TIP3    H2 7097   0.880   1.243   4.366
 2386TIP3   OH2 7098   1.463   1.215   4.390
 2386TIP3    H1 7099   1.367   1.213   4.392
 2386TIP3    H2 7100   1.486   1.169   4.308
 2387TIP3   OH2 7101   1.139   1.430   3.769
 2387TIP3    H1 7102   1.060   1.376   3.763
 2387TIP3    H2 7103   1.201   1.375   3.817
 2388TIP3   OH2 7104   1.087   2.370   3.692
 2388TIP3    H1 7105   1.045   2.421   3.622
 2388TIP3    H2 7106   1.180   2.383   3.678
 2389TIP3   OH2 7107   8.570   2.327   4.594
 2389TIP3    H1 7108   8.621   2.342   4.674
 2389TIP3    H2 7109   8.479   2.323   4.625
 2390TIP3   OH2 7110   0.371   2.325   4.722
 2390TIP3    H1 7111   0.459   2.289   4.729
 2390TIP3    H2 7112   0.328   2.272   4.655
 2391TIP3   OH2 7113   0.966   2.263   4.482
 2391TIP3    H1 7114   0.976   2.194   4.547
 2391TIP3    H2 7115   1.040   2.321   4.496
 2392TIP3   OH2 7116   0.796   1.978   2.836
 2392TIP3    H1 7117   0.777   1.893   2.876
 2392TIP3    H2 7118   0.885   1.970   2.802
 2393TIP3   OH2 7119   8.569   1.796   4.876
 2393TIP3    H1 7120   8.594   1.703   4.876
 2393TIP3    H2 7121   8.487   1.799   4.827
 2394TIP3   OH2 7122   0.602   1.894   4.656
 2394TIP3    H1 7123   0.555   1.914   4.575
 2394TIP3    H2 7124   0.636   1.806   4.643
 2395TIP3   OH2 7125   1.077   1.926   4.271
 2395TIP3    H1 7126   1.155   1.958   4.225
 2395TIP3    H2 7127   1.011   1.993   4.257
 2396TIP3   OH2 7128   0.083   1.537   4.872
 2396TIP3    H1 7129   0.167   1.519   4.830
 2396TIP3    H2 7130   0.106   1.557   4.963
 2397TIP3   OH2 7131   0.456   1.443   4.549
 2397TIP3    H1 7132   0.374   1.492   4.557
 2397TIP3    H2 7133   0.490   1.467   4.463
 2398TIP3   OH2 7134   0.958   1.815   4.639
 2398TIP3    H1 7135   1.024   1.774   4.583
 2398TIP3    H2 7136   0.952   1.758   4.715
 2399TIP3   OH2 7137   0.592   1.217   4.621
 2399TIP3    H1 7138   0.597   1.153   4.550
 2399TIP3    H2 7139   0.548   1.292   4.583
 2400TIP3   OH2 7140   0.598   1.031   4.412
 2400TIP3    H1 7141   0.633   1.078   4.336
 2400TIP3    H2 7142   0.519   0.987   4.378
 2401TIP3   OH2 7143   0.583   1.542   4.331
 2401TIP3    H1 7144   0.671   1.569   4.306
 2401TIP3    H2 7145   0.525   1.600   4.283
 2402TIP3   OH2 7146   1.176   1.493   4.701
 2402TIP3    H1 7147   1.224   1.413   4.719
 2402TIP3    H2 7148   1.243   1.557   4.678
 2403TIP3   OH2 7149   1.203   1.756   4.441
 2403TIP3    H1 7150   1.148   1.815   4.390
 2403TIP3    H2 7151   1.292   1.772   4.409
 2404TIP3   OH2 7152   0.466   1.332   4.867
 2404TIP3    H1 7153   0.398   1.266   4.878
 2404TIP3    H2 7154   0.493   1.324   4.776
 2405TIP3   OH2 7155   0.678   0.776   4.482
 2405TIP3    H1 7156   0.663   0.871   4.473
 2405TIP3    H2 7157   0.590   0.740   4.495
 2406TIP3   OH2 7158   0.821   1.282   4.764
 2406TIP3    H1 7159   0.808   1.265   4.857
 2406TIP3    H2 7160   0.740   1.253   4.722
 2407TIP3   OH2 7161   1.047   1.196   4.621
 2407TIP3    H1 7162   0.980   1.223   4.684
 2407TIP3    H2 7163   1.123   1.174   4.675
 2408TIP3   OH2 7164   1.278   1.164   4.769
 2408TIP3    H1 7165   1.309   1.074   4.780
 2408TIP3    H2 7166   1.276   1.200   4.858
 2409TIP3   OH2 7167   0.778   0.672   4.726
 2409TIP3    H1 7168   0.853   0.731   4.720
 2409TIP3    H2 7169   0.727   0.691   4.647
 2410TIP3   OH2 7170   0.824   0.977   4.956
 2410TIP3    H1 7171   0.827   0.971   4.860
 2410TIP3    H2 7172   0.765   1.050   4.974
 2411TIP3   OH2 7173   8.210   2.031   3.813
 2411TIP3    H1 7174   8.245   1.968   3.876
 2411TIP3    H2 7175   8.192   2.109   3.864
 2412TIP3   OH2 7176   1.357   2.425   3.682
 2412TIP3    H1 7177   1.372   2.452   3.773
 2412TIP3    H2 7178   1.403   2.491   3.630
 2413TIP3   OH2 7179   1.371   2.460   3.962
 2413TIP3    H1 7180   1.324   2.376   3.960
 2413TIP3    H2 7181   1.442   2.446   4.024
 2414TIP3   OH2 7182   1.426   2.154   4.531
 2414TIP3    H1 7183   1.353   2.163   4.594
 2414TIP3    H2 7184   1.470   2.239   4.534
 2415TIP3   OH2 7185   1.252   1.669   3.141
 2415TIP3    H1 7186   1.310   1.741   3.118
 2415TIP3    H2 7187   1.293   1.630   3.219
 2416TIP3   OH2 7188   1.371   1.533   3.348
 2416TIP3    H1 7189   1.304   1.494   3.404
 2416TIP3    H2 7190   1.438   1.566   3.408
 2417TIP3   OH2 7191   1.424   1.931   3.777
 2417TIP3    H1 7192   1.476   1.863   3.733
 2417TIP3    H2 7193   1.423   2.003   3.715
 2418TIP3   OH2 7194   1.233   2.217   3.969
 2418TIP3    H1 7195   1.165   2.260   4.021
 2418TIP3    H2 7196   1.186   2.175   3.898
 2419TIP3   OH2 7197   1.264   1.441   2.989
 2419TIP3    H1 7198   1.181   1.446   2.941
 2419TIP3    H2 7199   1.262   1.517   3.048
 2420TIP3   OH2 7200   1.180   1.403   3.497
 2420TIP3    H1 7201   1.180   1.307   3.488
 2420TIP3    H2 7202   1.172   1.418   3.592
 2421TIP3   OH2 7203   8.437   1.405   4.181
 2421TIP3    H1 7204   8.454   1.473   4.117
 2421TIP3    H2 7205   8.509   1.412   4.244
 2422TIP3   OH2 7206   1.458   1.808   4.344
 2422TIP3    H1 7207   1.526   1.743   4.327
 2422TIP3    H2 7208   1.474   1.877   4.279
 2423TIP3   OH2 7209   1.637   1.599   4.336
 2423TIP3    H1 7210   1.562   1.561   4.381
 2423TIP3    H2 7211   1.710   1.541   4.357
 2424TIP3   OH2 7212   1.158   1.132   3.432
 2424TIP3    H1 7213   1.204   1.048   3.436
 2424TIP3    H2 7214   1.121   1.135   3.344
 2425TIP3   OH2 7215   1.331   1.268   3.892
 2425TIP3    H1 7216   1.412   1.287   3.844
 2425TIP3    H2 7217   1.344   1.309   3.977
 2426TIP3   OH2 7218   1.399   1.425   4.118
 2426TIP3    H1 7219   1.324   1.455   4.169
 2426TIP3    H2 7220   1.431   1.503   4.073
 2427TIP3   OH2 7221   1.251   0.875   3.432
 2427TIP3    H1 7222   1.324   0.863   3.491
 2427TIP3    H2 7223   1.213   0.788   3.422
 2428TIP3   OH2 7224   1.702   1.162   4.515
 2428TIP3    H1 7225   1.615   1.197   4.500
 2428TIP3    H2 7226   1.711   1.091   4.452
 2429TIP3   OH2 7227   0.928   2.327   3.328
 2429TIP3    H1 7228   0.983   2.321   3.250
 2429TIP3    H2 7229   0.966   2.399   3.378
 2430TIP3   OH2 7230   0.059   2.075   4.743
 2430TIP3    H1 7231  -0.024   2.052   4.701
 2430TIP3    H2 7232   0.037   2.084   4.836
 2431TIP3   OH2 7233   0.221   2.168   4.251
 2431TIP3    H1 7234   0.168   2.241   4.220
 2431TIP3    H2 7235   0.306   2.180   4.210
 2432TIP3   OH2 7236   0.632   2.403   4.389
 2432TIP3    H1 7237   0.668   2.399   4.478
 2432TIP3    H2 7238   0.694   2.457   4.341
 2433TIP3   OH2 7239   0.820   2.561   4.263
 2433TIP3    H1 7240   0.885   2.509   4.217
 2433TIP3    H2 7241   0.871   2.620   4.319
 2434TIP3   OH2 7242   1.653   0.945   4.351
 2434TIP3    H1 7243   1.573   0.899   4.326
 2434TIP3    H2 7244   1.719   0.876   4.359
 2435TIP3   OH2 7245   8.504   2.475   4.269
 2435TIP3    H1 7246   8.429   2.428   4.303
 2435TIP3    H2 7247   8.539   2.523   4.344
 2436TIP3   OH2 7248   0.128   2.400   4.135
 2436TIP3    H1 7249   0.047   2.422   4.180
 2436TIP3    H2 7250   0.115   2.432   4.045
 2437TIP3   OH2 7251   0.537   2.421   3.940
 2437TIP3    H1 7252   0.468   2.432   3.875
 2437TIP3    H2 7253   0.546   2.507   3.981
 2438TIP3   OH2 7254   0.799   2.356   3.992
 2438TIP3    H1 7255   0.707   2.375   3.974
 2438TIP3    H2 7256   0.848   2.424   3.946
 2439TIP3   OH2 7257   0.997   2.535   3.895
 2439TIP3    H1 7258   0.993   2.622   3.855
 2439TIP3    H2 7259   1.027   2.478   3.824
 2440TIP3   OH2 7260   8.400   2.206   3.971
 2440TIP3    H1 7261   8.381   2.189   4.063
 2440TIP3    H2 7262   8.467   2.142   3.948
 2441TIP3   OH2 7263   0.011   2.062   3.862
 2441TIP3    H1 7264   0.021   1.985   3.918
 2441TIP3    H2 7265   0.094   2.109   3.870
 2442TIP3   OH2 7266   0.272   2.165   3.895
 2442TIP3    H1 7267   0.294   2.073   3.881
 2442TIP3    H2 7268   0.319   2.189   3.975
 2443TIP3   OH2 7269   0.762   0.838   4.049
 2443TIP3    H1 7270   0.686   0.885   4.016
 2443TIP3    H2 7271   0.821   0.832   3.973
 2444TIP3   OH2 7272   1.331   0.754   3.795
 2444TIP3    H1 7273   1.390   0.784   3.726
 2444TIP3    H2 7274   1.292   0.834   3.830
 2445TIP3   OH2 7275   1.472   0.833   3.585
 2445TIP3    H1 7276   1.548   0.779   3.566
 2445TIP3    H2 7277   1.505   0.923   3.589
 2446TIP3   OH2 7278   0.972   0.803   3.884
 2446TIP3    H1 7279   0.972   0.785   3.790
 2446TIP3    H2 7280   1.018   0.728   3.923
 2447TIP3   OH2 7281   0.354   2.219   3.031
 2447TIP3    H1 7282   0.437   2.204   2.986
 2447TIP3    H2 7283   0.295   2.154   2.994
 2448TIP3   OH2 7284   1.071   2.294   3.090
 2448TIP3    H1 7285   1.067   2.199   3.084
 2448TIP3    H2 7286   1.022   2.326   3.014
 2449TIP3   OH2 7287   1.398   0.921   4.806
 2449TIP3    H1 7288   1.401   0.886   4.895
 2449TIP3    H2 7289   1.486   0.908   4.772
 2450TIP3   OH2 7290   1.284   2.429   4.280
 2450TIP3    H1 7291   1.208   2.399   4.231
 2450TIP3    H2 7292   1.271   2.523   4.290
 2451TIP3   OH2 7293   2.559   1.816   3.016
 2451TIP3    H1 7294   2.530   1.904   2.993
 2451TIP3    H2 7295   2.483   1.761   2.998
 2452TIP3   OH2 7296   2.542   1.798   3.449
 2452TIP3    H1 7297   2.597   1.786   3.526
 2452TIP3    H2 7298   2.503   1.711   3.433
 2453TIP3   OH2 7299   1.854   1.683   3.801
 2453TIP3    H1 7300   1.886   1.618   3.863
 2453TIP3    H2 7301   1.932   1.733   3.776
 2454TIP3   OH2 7302   1.848   2.101   3.490
 2454TIP3    H1 7303   1.830   2.007   3.498
 2454TIP3    H2 7304   1.943   2.107   3.490
 2455TIP3   OH2 7305   1.539   1.318   3.273
 2455TIP3    H1 7306   1.489   1.395   3.301
 2455TIP3    H2 7307   1.476   1.265   3.224
 2456TIP3   OH2 7308   1.604   1.602   3.484
 2456TIP3    H1 7309   1.652   1.524   3.512
 2456TIP3    H2 7310   1.671   1.660   3.447
 2457TIP3   OH2 7311   2.515   2.541   3.120
 2457TIP3    H1 7312   2.504   2.595   3.041
 2457TIP3    H2 7313   2.433   2.552   3.168
 2458TIP3   OH2 7314   2.366   2.028   3.455
 2458TIP3    H1 7315   2.403   1.944   3.429
 2458TIP3    H2 7316   2.441   2.080   3.483
 2459TIP3   OH2 7317   3.398   1.345   3.473
 2459TIP3    H1 7318   3.414   1.429   3.515
 2459TIP3    H2 7319   3.421   1.360   3.381
 2460TIP3   OH2 7320   2.776   1.518   3.493
 2460TIP3    H1 7321   2.811   1.433   3.518
 2460TIP3    H2 7322   2.737   1.504   3.407
 2461TIP3   OH2 7323   2.131   1.182   3.451
 2461TIP3    H1 7324   2.103   1.256   3.396
 2461TIP3    H2 7325   2.078   1.108   3.420
 2462TIP3   OH2 7326   2.833   1.284   3.095
 2462TIP3    H1 7327   2.898   1.274   3.164
 2462TIP3    H2 7328   2.884   1.315   3.019
 2463TIP3   OH2 7329   1.749   1.387   3.578
 2463TIP3    H1 7330   1.833   1.369   3.621
 2463TIP3    H2 7331   1.752   1.333   3.499
 2464TIP3   OH2 7332   2.179   1.591   3.381
 2464TIP3    H1 7333   2.272   1.569   3.391
 2464TIP3    H2 7334   2.138   1.510   3.353
 2465TIP3   OH2 7335   3.451   1.564   3.641
 2465TIP3    H1 7336   3.367   1.608   3.630
 2465TIP3    H2 7337   3.491   1.606   3.718
 2466TIP3   OH2 7338   2.108   1.178   3.904
 2466TIP3    H1 7339   2.054   1.211   3.831
 2466TIP3    H2 7340   2.053   1.191   3.981
 2467TIP3   OH2 7341   2.465   2.045   2.887
 2467TIP3    H1 7342   2.422   2.016   2.806
 2467TIP3    H2 7343   2.417   2.124   2.913
 2468TIP3   OH2 7344   2.208   1.957   3.672
 2468TIP3    H1 7345   2.151   2.026   3.706
 2468TIP3    H2 7346   2.256   1.998   3.601
 2469TIP3   OH2 7347   3.001   1.291   3.308
 2469TIP3    H1 7348   2.954   1.273   3.389
 2469TIP3    H2 7349   3.052   1.369   3.327
 2470TIP3   OH2 7350   1.997   1.286   3.672
 2470TIP3    H1 7351   2.052   1.361   3.697
 2470TIP3    H2 7352   2.044   1.244   3.601
 2471TIP3   OH2 7353   2.043   2.155   3.774
 2471TIP3    H1 7354   2.028   2.245   3.745
 2471TIP3    H2 7355   1.967   2.134   3.828
 2472TIP3   OH2 7356   1.427   1.864   3.044
 2472TIP3    H1 7357   1.392   1.883   2.957
 2472TIP3    H2 7358   1.450   1.950   3.080
 2473TIP3   OH2 7359   3.191   1.233   3.633
 2473TIP3    H1 7360   3.106   1.259   3.600
 2473TIP3    H2 7361   3.254   1.263   3.567
 2474TIP3   OH2 7362   2.454   0.878   3.623
 2474TIP3    H1 7363   2.445   0.785   3.646
 2474TIP3    H2 7364   2.379   0.920   3.664
 2475TIP3   OH2 7365   2.718   2.169   2.907
 2475TIP3    H1 7366   2.630   2.132   2.898
 2475TIP3    H2 7367   2.775   2.106   2.863
 2476TIP3   OH2 7368   3.091   2.261   3.609
 2476TIP3    H1 7369   3.081   2.185   3.551
 2476TIP3    H2 7370   3.077   2.336   3.551
 2477TIP3   OH2 7371   2.386   1.646   2.867
 2477TIP3    H1 7372   2.306   1.696   2.852
 2477TIP3    H2 7373   2.427   1.641   2.780
 2478TIP3   OH2 7374   2.447   1.290   2.588
 2478TIP3    H1 7375   2.499   1.346   2.645
 2478TIP3    H2 7376   2.401   1.351   2.530
 2479TIP3   OH2 7377   3.286   1.902   3.471
 2479TIP3    H1 7378   3.204   1.951   3.475
 2479TIP3    H2 7379   3.322   1.922   3.385
 2480TIP3   OH2 7380   2.737   1.729   2.829
 2480TIP3    H1 7381   2.681   1.760   2.900
 2480TIP3    H2 7382   2.820   1.706   2.871
 2481TIP3   OH2 7383   2.971   1.769   3.778
 2481TIP3    H1 7384   2.971   1.853   3.823
 2481TIP3    H2 7385   2.889   1.769   3.728
 2482TIP3   OH2 7386   1.973   1.727   3.250
 2482TIP3    H1 7387   1.934   1.667   3.186
 2482TIP3    H2 7388   2.047   1.679   3.287
 2483TIP3   OH2 7389   2.115   2.150   3.387
 2483TIP3    H1 7390   2.089   2.124   3.299
 2483TIP3    H2 7391   2.200   2.109   3.401
 2484TIP3   OH2 7392   2.089   1.716   3.614
 2484TIP3    H1 7393   2.126   1.682   3.532
 2484TIP3    H2 7394   2.136   1.798   3.630
 2485TIP3   OH2 7395   2.244   2.254   3.939
 2485TIP3    H1 7396   2.186   2.313   3.987
 2485TIP3    H2 7397   2.186   2.203   3.884
 2486TIP3   OH2 7398   2.587   1.558   2.669
 2486TIP3    H1 7399   2.639   1.622   2.718
 2486TIP3    H2 7400   2.600   1.582   2.577
 2487TIP3   OH2 7401   1.999   1.805   4.067
 2487TIP3    H1 7402   2.004   1.897   4.094
 2487TIP3    H2 7403   1.905   1.786   4.067
 2488TIP3   OH2 7404   2.332   2.281   2.930
 2488TIP3    H1 7405   2.343   2.360   2.984
 2488TIP3    H2 7406   2.271   2.308   2.861
 2489TIP3   OH2 7407   2.037   2.415   4.027
 2489TIP3    H1 7408   2.009   2.425   3.936
 2489TIP3    H2 7409   1.957   2.398   4.075
 2490TIP3   OH2 7410   3.087   0.833   2.727
 2490TIP3    H1 7411   3.005   0.854   2.772
 2490TIP3    H2 7412   3.105   0.909   2.672
 2491TIP3   OH2 7413   1.841   1.573   3.049
 2491TIP3    H1 7414   1.766   1.622   3.017
 2491TIP3    H2 7415   1.805   1.488   3.076
 2492TIP3   OH2 7416   2.905   2.202   2.274
 2492TIP3    H1 7417   2.903   2.295   2.253
 2492TIP3    H2 7418   2.996   2.175   2.256
 2493TIP3   OH2 7419   1.624   1.966   3.975
 2493TIP3    H1 7420   1.554   1.950   3.911
 2493TIP3    H2 7421   1.658   1.879   3.995
 2494TIP3   OH2 7422   1.466   2.168   3.622
 2494TIP3    H1 7423   1.558   2.187   3.639
 2494TIP3    H2 7424   1.419   2.245   3.654
 2495TIP3   OH2 7425   3.334   2.611   3.679
 2495TIP3    H1 7426   3.336   2.516   3.695
 2495TIP3    H2 7427   3.253   2.640   3.720
 2496TIP3   OH2 7428   2.430   2.397   3.796
 2496TIP3    H1 7429   2.429   2.488   3.828
 2496TIP3    H2 7430   2.365   2.353   3.849
 2497TIP3   OH2 7431   2.224   2.515   2.759
 2497TIP3    H1 7432   2.183   2.486   2.677
 2497TIP3    H2 7433   2.175   2.594   2.783
 2498TIP3   OH2 7434   1.648   2.357   3.133
 2498TIP3    H1 7435   1.692   2.350   3.217
 2498TIP3    H2 7436   1.597   2.276   3.125
 2499TIP3   OH2 7437   2.415   2.429   2.385
 2499TIP3    H1 7438   2.462   2.354   2.348
 2499TIP3    H2 7439   2.453   2.440   2.472
 2500TIP3   OH2 7440   2.476   2.478   2.649
 2500TIP3    H1 7441   2.396   2.472   2.701
 2500TIP3    H2 7442   2.546   2.482   2.714
 2501TIP3   OH2 7443   3.215   1.733   3.952
 2501TIP3    H1 7444   3.133   1.745   3.904
 2501TIP3    H2 7445   3.233   1.639   3.945
 2502TIP3   OH2 7446   1.826   2.150   3.944
 2502TIP3    H1 7447   1.874   2.142   4.027
 2502TIP3    H2 7448   1.753   2.089   3.952
 2503TIP3   OH2 7449   2.222   0.972   3.753
 2503TIP3    H1 7450   2.139   0.940   3.717
 2503TIP3    H2 7451   2.199   1.049   3.804
 2504TIP3   OH2 7452   2.729   1.088   3.971
 2504TIP3    H1 7453   2.774   1.070   4.054
 2504TIP3    H2 7454   2.636   1.077   3.992
 2505TIP3   OH2 7455   2.971   1.503   3.869
 2505TIP3    H1 7456   2.932   1.501   3.956
 2505TIP3    H2 7457   2.958   1.592   3.838
 2506TIP3   OH2 7458   2.635   1.616   2.407
 2506TIP3    H1 7459   2.615   1.583   2.319
 2506TIP3    H2 7460   2.719   1.661   2.397
 2507TIP3   OH2 7461   2.151   1.495   3.767
 2507TIP3    H1 7462   2.101   1.502   3.849
 2507TIP3    H2 7463   2.130   1.574   3.719
 2508TIP3   OH2 7464   2.026   1.379   3.292
 2508TIP3    H1 7465   1.938   1.350   3.316
 2508TIP3    H2 7466   2.042   1.340   3.206
 2509TIP3   OH2 7467   2.526   1.455   3.008
 2509TIP3    H1 7468   2.477   1.524   2.964
 2509TIP3    H2 7469   2.584   1.420   2.940
 2510TIP3   OH2 7470   2.697   1.712   4.092
 2510TIP3    H1 7471   2.674   1.648   4.159
 2510TIP3    H2 7472   2.788   1.734   4.110
 2511TIP3   OH2 7473   2.681   1.467   3.242
 2511TIP3    H1 7474   2.615   1.492   3.177
 2511TIP3    H2 7475   2.729   1.395   3.201
 2512TIP3   OH2 7476   1.979   1.507   3.983
 2512TIP3    H1 7477   1.987   1.572   4.053
 2512TIP3    H2 7478   1.964   1.424   4.029
 2513TIP3   OH2 7479   2.005   0.991   2.688
 2513TIP3    H1 7480   2.023   1.009   2.780
 2513TIP3    H2 7481   1.916   0.955   2.688
 2514TIP3   OH2 7482   1.571   1.083   3.576
 2514TIP3    H1 7483   1.650   1.100   3.627
 2514TIP3    H2 7484   1.604   1.060   3.489
 2515TIP3   OH2 7485   1.588   1.052   3.090
 2515TIP3    H1 7486   1.636   1.092   3.017
 2515TIP3    H2 7487   1.506   1.101   3.094
 2516TIP3   OH2 7488   2.711   1.719   3.663
 2516TIP3    H1 7489   2.739   1.653   3.600
 2516TIP3    H2 7490   2.671   1.669   3.734
 2517TIP3   OH2 7491   2.393   1.172   3.334
 2517TIP3    H1 7492   2.313   1.172   3.386
 2517TIP3    H2 7493   2.464   1.163   3.397
 2518TIP3   OH2 7494   1.793   1.245   3.347
 2518TIP3    H1 7495   1.704   1.255   3.312
 2518TIP3    H2 7496   1.814   1.153   3.330
 2519TIP3   OH2 7497   2.065   1.249   3.058
 2519TIP3    H1 7498   2.158   1.261   3.036
 2519TIP3    H2 7499   2.019   1.269   2.977
 2520TIP3   OH2 7500   2.849   1.252   3.539
 2520TIP3    H1 7501   2.830   1.267   3.631
 2520TIP3    H2 7502   2.780   1.194   3.509
 2521TIP3   OH2 7503   1.908   1.274   2.840
 2521TIP3    H1 7504   1.816   1.247   2.838
 2521TIP3    H2 7505   1.925   1.309   2.753
 2522TIP3   OH2 7506   3.040   2.961   3.768
 2522TIP3    H1 7507   3.036   2.987   3.676
 2522TIP3    H2 7508   3.118   3.005   3.802
 2523TIP3   OH2 7509   1.987   2.065   4.179
 2523TIP3    H1 7510   2.066   2.088   4.228
 2523TIP3    H2 7511   1.917   2.073   4.244
 2524TIP3   OH2 7512   2.445   1.526   3.444
 2524TIP3    H1 7513   2.514   1.477   3.399
 2524TIP3    H2 7514   2.442   1.488   3.532
 2525TIP3   OH2 7515   1.956   1.001   3.333
 2525TIP3    H1 7516   1.915   0.931   3.384
 2525TIP3    H2 7517   1.985   0.957   3.253
 2526TIP3   OH2 7518   2.418   1.439   3.712
 2526TIP3    H1 7519   2.330   1.469   3.734
 2526TIP3    H2 7520   2.475   1.494   3.766
 2527TIP3   OH2 7521   2.154   1.797   2.825
 2527TIP3    H1 7522   2.081   1.738   2.805
 2527TIP3    H2 7523   2.132   1.837   2.909
 2528TIP3   OH2 7524   3.053   2.047   3.439
 2528TIP3    H1 7525   3.081   2.090   3.358
 2528TIP3    H2 7526   2.972   2.001   3.414
 2529TIP3   OH2 7527   2.559   2.136   3.822
 2529TIP3    H1 7528   2.599   2.127   3.908
 2529TIP3    H2 7529   2.511   2.219   3.826
 2530TIP3   OH2 7530   2.686   1.337   2.801
 2530TIP3    H1 7531   2.781   1.339   2.813
 2530TIP3    H2 7532   2.667   1.412   2.746
 2531TIP3   OH2 7533   1.851   1.815   3.484
 2531TIP3    H1 7534   1.888   1.795   3.398
 2531TIP3    H2 7535   1.911   1.773   3.547
 2532TIP3   OH2 7536   2.303   1.963   2.665
 2532TIP3    H1 7537   2.257   2.047   2.669
 2532TIP3    H2 7538   2.249   1.904   2.718
 2533TIP3   OH2 7539   1.729   1.735   4.105
 2533TIP3    H1 7540   1.732   1.714   4.198
 2533TIP3    H2 7541   1.654   1.686   4.071
 2534TIP3   OH2 7542   2.461   1.869   4.129
 2534TIP3    H1 7543   2.391   1.811   4.099
 2534TIP3    H2 7544   2.542   1.828   4.097
 2535TIP3   OH2 7545   2.703   2.425   3.710
 2535TIP3    H1 7546   2.611   2.401   3.718
 2535TIP3    H2 7547   2.728   2.456   3.797
 2536TIP3   OH2 7548   3.098   1.462   2.619
 2536TIP3    H1 7549   3.038   1.416   2.560
 2536TIP3    H2 7550   3.103   1.551   2.584
 2537TIP3   OH2 7551   3.341   2.320   3.703
 2537TIP3    H1 7552   3.246   2.314   3.695
 2537TIP3    H2 7553   3.373   2.295   3.616
 2538TIP3   OH2 7554   2.829   2.267   2.535
 2538TIP3    H1 7555   2.797   2.190   2.582
 2538TIP3    H2 7556   2.851   2.235   2.448
 2539TIP3   OH2 7557   2.825   1.899   3.369
 2539TIP3    H1 7558   2.730   1.888   3.373
 2539TIP3    H2 7559   2.855   1.824   3.318
 2540TIP3   OH2 7560   1.956   2.145   3.136
 2540TIP3    H1 7561   1.949   2.222   3.078
 2540TIP3    H2 7562   1.869   2.135   3.174
 2541TIP3   OH2 7563   1.517   1.452   2.867
 2541TIP3    H1 7564   1.555   1.538   2.886
 2541TIP3    H2 7565   1.430   1.454   2.906
 2542TIP3   OH2 7566   2.063   1.904   3.055
 2542TIP3    H1 7567   2.035   1.993   3.080
 2542TIP3    H2 7568   2.035   1.849   3.127
 2543TIP3   OH2 7569   2.246   2.477   3.592
 2543TIP3    H1 7570   2.290   2.547   3.542
 2543TIP3    H2 7571   2.316   2.441   3.647
 2544TIP3   OH2 7572   1.878   2.373   2.984
 2544TIP3    H1 7573   1.792   2.378   3.025
 2544TIP3    H2 7574   1.913   2.462   2.989
 2545TIP3   OH2 7575   2.611   2.114   3.552
 2545TIP3    H1 7576   2.598   2.117   3.646
 2545TIP3    H2 7577   2.696   2.071   3.540
 2546TIP3   OH2 7578   2.598   2.010   2.441
 2546TIP3    H1 7579   2.646   1.990   2.521
 2546TIP3    H2 7580   2.509   1.979   2.459
 2547TIP3   OH2 7581   2.852   2.638   3.609
 2547TIP3    H1 7582   2.787   2.570   3.626
 2547TIP3    H2 7583   2.814   2.691   3.540
 2548TIP3   OH2 7584   2.910   2.477   2.244
 2548TIP3    H1 7585   2.933   2.538   2.173
 2548TIP3    H2 7586   2.841   2.521   2.293
 2549TIP3   OH2 7587   1.940   1.256   4.114
 2549TIP3    H1 7588   1.845   1.254   4.118
 2549TIP3    H2 7589   1.968   1.196   4.184
 2550TIP3   OH2 7590   2.766   1.948   2.654
 2550TIP3    H1 7591   2.746   1.875   2.712
 2550TIP3    H2 7592   2.861   1.943   2.640
 2551TIP3   OH2 7593   1.674   2.356   3.751
 2551TIP3    H1 7594   1.725   2.295   3.803
 2551TIP3    H2 7595   1.685   2.440   3.795
 2552TIP3   OH2 7596   1.954   1.985   2.449
 2552TIP3    H1 7597   1.962   1.893   2.422
 2552TIP3    H2 7598   1.930   1.981   2.541
 2553TIP3   OH2 7599   1.890   1.996   2.718
 2553TIP3    H1 7600   1.953   1.966   2.784
 2553TIP3    H2 7601   1.891   2.091   2.725
 2554TIP3   OH2 7602   1.623   1.702   2.936
 2554TIP3    H1 7603   1.561   1.749   2.992
 2554TIP3    H2 7604   1.639   1.762   2.863
 2555TIP3   OH2 7605   2.791   1.301   3.800
 2555TIP3    H1 7606   2.862   1.355   3.837
 2555TIP3    H2 7607   2.775   1.234   3.867
 2556TIP3   OH2 7608   2.671   1.099   2.975
 2556TIP3    H1 7609   2.644   1.158   2.904
 2556TIP3    H2 7610   2.726   1.153   3.032
 2557TIP3   OH2 7611   2.168   2.200   2.679
 2557TIP3    H1 7612   2.078   2.216   2.704
 2557TIP3    H2 7613   2.185   2.263   2.609
 2558TIP3   OH2 7614   2.345   1.258   3.073
 2558TIP3    H1 7615   2.407   1.329   3.054
 2558TIP3    H2 7616   2.357   1.239   3.166
 2559TIP3   OH2 7617   2.622   1.558   3.867
 2559TIP3    H1 7618   2.643   1.607   3.946
 2559TIP3    H2 7619   2.671   1.476   3.877
 2560TIP3   OH2 7620   2.495   0.969   3.163
 2560TIP3    H1 7621   2.467   1.043   3.218
 2560TIP3    H2 7622   2.559   1.007   3.103
 2561TIP3   OH2 7623   1.907   2.267   2.733
 2561TIP3    H1 7624   1.885   2.336   2.670
 2561TIP3    H2 7625   1.893   2.306   2.819
 2562TIP3   OH2 7626   2.025   0.986   2.972
 2562TIP3    H1 7627   2.014   1.071   3.015
 2562TIP3    H2 7628   2.119   0.972   2.971
 2563TIP3   OH2 7629   3.241   1.467   3.861
 2563TIP3    H1 7630   3.145   1.463   3.864
 2563TIP3    H2 7631   3.263   1.441   3.772
 2564TIP3   OH2 7632   2.908   1.654   3.240
 2564TIP3    H1 7633   2.830   1.600   3.255
 2564TIP3    H2 7634   2.975   1.613   3.294
 2565TIP3   OH2 7635   1.631   1.884   2.722
 2565TIP3    H1 7636   1.699   1.951   2.728
 2565TIP3    H2 7637   1.667   1.819   2.661
 2566TIP3   OH2 7638   1.637   1.208   2.849
 2566TIP3    H1 7639   1.599   1.296   2.857
 2566TIP3    H2 7640   1.568   1.156   2.809
 2567TIP3   OH2 7641   2.844   2.591   3.162
 2567TIP3    H1 7642   2.818   2.655   3.096
 2567TIP3    H2 7643   2.939   2.598   3.165
 2568TIP3   OH2 7644   1.962   0.891   3.709
 2568TIP3    H1 7645   1.928   0.853   3.627
 2568TIP3    H2 7646   1.968   0.816   3.769
 2569TIP3   OH2 7647   1.478   2.132   3.115
 2569TIP3    H1 7648   1.433   2.170   3.191
 2569TIP3    H2 7649   1.435   2.172   3.040
 2570TIP3   OH2 7650   1.663   2.664   4.171
 2570TIP3    H1 7651   1.745   2.670   4.220
 2570TIP3    H2 7652   1.643   2.570   4.168
 2571TIP3   OH2 7653   2.129   2.590   4.223
 2571TIP3    H1 7654   2.224   2.580   4.230
 2571TIP3    H2 7655   2.105   2.530   4.152
 2572TIP3   OH2 7656   2.114   2.181   2.345
 2572TIP3    H1 7657   2.064   2.110   2.385
 2572TIP3    H2 7658   2.186   2.137   2.300
 2573TIP3   OH2 7659   2.766   2.517   3.959
 2573TIP3    H1 7660   2.770   2.449   4.027
 2573TIP3    H2 7661   2.840   2.574   3.979
 2574TIP3   OH2 7662   2.539   2.217   2.266
 2574TIP3    H1 7663   2.578   2.153   2.325
 2574TIP3    H2 7664   2.598   2.220   2.191
 2575TIP3   OH2 7665   1.779   2.063   4.366
 2575TIP3    H1 7666   1.798   1.969   4.375
 2575TIP3    H2 7667   1.692   2.066   4.326
 2576TIP3   OH2 7668   1.771   1.691   2.585
 2576TIP3    H1 7669   1.825   1.668   2.661
 2576TIP3    H2 7670   1.833   1.703   2.513
 2577TIP3   OH2 7671   2.396   2.147   4.145
 2577TIP3    H1 7672   2.350   2.168   4.063
 2577TIP3    H2 7673   2.428   2.058   4.131
 2578TIP3   OH2 7674   2.315   1.907   2.396
 2578TIP3    H1 7675   2.299   1.922   2.489
 2578TIP3    H2 7676   2.299   1.814   2.383
 2579TIP3   OH2 7677   2.871   2.186   3.758
 2579TIP3    H1 7678   2.949   2.218   3.713
 2579TIP3    H2 7679   2.804   2.251   3.739
 2580TIP3   OH2 7680   1.895   1.807   4.370
 2580TIP3    H1 7681   1.974   1.781   4.322
 2580TIP3    H2 7682   1.927   1.827   4.458
 2581TIP3   OH2 7683   1.948   1.616   2.791
 2581TIP3    H1 7684   1.921   1.592   2.880
 2581TIP3    H2 7685   1.976   1.534   2.751
 2582TIP3   OH2 7686   2.255   1.695   4.029
 2582TIP3    H1 7687   2.169   1.736   4.035
 2582TIP3    H2 7688   2.289   1.722   3.943
 2583TIP3   OH2 7689   2.030   1.404   2.628
 2583TIP3    H1 7690   2.015   1.432   2.537
 2583TIP3    H2 7691   2.118   1.367   2.627
 2584TIP3   OH2 7692   2.751   2.074   4.132
 2584TIP3    H1 7693   2.823   2.037   4.080
 2584TIP3    H2 7694   2.746   2.017   4.209
 2585TIP3   OH2 7695   2.871   1.723   2.301
 2585TIP3    H1 7696   2.862   1.680   2.216
 2585TIP3    H2 7697   2.847   1.814   2.284
 2586TIP3   OH2 7698   2.372   1.469   4.133
 2586TIP3    H1 7699   2.367   1.396   4.072
 2586TIP3    H2 7700   2.331   1.542   4.086
 2587TIP3   OH2 7701   2.365   1.264   3.938
 2587TIP3    H1 7702   2.391   1.302   3.854
 2587TIP3    H2 7703   2.273   1.239   3.926
 2588TIP3   OH2 7704   2.380   1.789   3.806
 2588TIP3    H1 7705   2.468   1.817   3.783
 2588TIP3    H2 7706   2.322   1.852   3.761
 2589TIP3   OH2 7707   2.966   1.765   4.186
 2589TIP3    H1 7708   3.025   1.690   4.202
 2589TIP3    H2 7709   3.025   1.838   4.169
 2590TIP3   OH2 7710   3.003   2.011   3.920
 2590TIP3    H1 7711   2.946   2.071   3.871
 2590TIP3    H2 7712   3.091   2.030   3.888
 2591TIP3   OH2 7713   2.248   1.557   4.374
 2591TIP3    H1 7714   2.176   1.495   4.391
 2591TIP3    H2 7715   2.279   1.534   4.286
 2592TIP3   OH2 7716   2.473   1.031   4.048
 2592TIP3    H1 7717   2.429   1.110   4.018
 2592TIP3    H2 7718   2.409   0.961   4.037
 2593TIP3   OH2 7719   2.618   1.500   4.255
 2593TIP3    H1 7720   2.590   1.508   4.347
 2593TIP3    H2 7721   2.537   1.483   4.207
 2594TIP3   OH2 7722   2.858   1.447   4.109
 2594TIP3    H1 7723   2.782   1.455   4.168
 2594TIP3    H2 7724   2.930   1.423   4.167
 2595TIP3   OH2 7725   3.096   1.394   4.262
 2595TIP3    H1 7726   3.125   1.313   4.303
 2595TIP3    H2 7727   3.089   1.457   4.334
 2596TIP3   OH2 7728   2.076   1.344   4.433
 2596TIP3    H1 7729   2.079   1.253   4.403
 2596TIP3    H2 7730   2.107   1.340   4.523
 2597TIP3   OH2 7731   2.609   1.037   4.295
 2597TIP3    H1 7732   2.669   0.964   4.282
 2597TIP3    H2 7733   2.552   1.035   4.218
 2598TIP3   OH2 7734   2.620   1.226   4.500
 2598TIP3    H1 7735   2.623   1.156   4.435
 2598TIP3    H2 7736   2.555   1.287   4.466
 2599TIP3   OH2 7737   1.898   2.469   2.546
 2599TIP3    H1 7738   1.990   2.456   2.524
 2599TIP3    H2 7739   1.862   2.517   2.472
 2600TIP3   OH2 7740   1.358   1.877   2.772
 2600TIP3    H1 7741   1.450   1.879   2.747
 2600TIP3    H2 7742   1.324   1.798   2.729
 2601TIP3   OH2 7743   1.276   2.447   3.187
 2601TIP3    H1 7744   1.211   2.394   3.141
 2601TIP3    H2 7745   1.319   2.386   3.247
 2602TIP3   OH2 7746   1.415   2.280   3.358
 2602TIP3    H1 7747   1.404   2.213   3.426
 2602TIP3    H2 7748   1.468   2.348   3.401
 2603TIP3   OH2 7749   3.104   2.685   3.180
 2603TIP3    H1 7750   3.142   2.716   3.262
 2603TIP3    H2 7751   3.158   2.725   3.112
 2604TIP3   OH2 7752   3.168   2.731   3.451
 2604TIP3    H1 7753   3.135   2.642   3.461
 2604TIP3    H2 7754   3.248   2.732   3.503
 2605TIP3   OH2 7755   3.219   2.409   4.019
 2605TIP3    H1 7756   3.148   2.419   4.082
 2605TIP3    H2 7757   3.265   2.493   4.022
 2606TIP3   OH2 7758   3.042   1.926   2.634
 2606TIP3    H1 7759   3.101   1.994   2.601
 2606TIP3    H2 7760   3.090   1.886   2.707
 2607TIP3   OH2 7761   3.171   1.784   2.834
 2607TIP3    H1 7762   3.104   1.746   2.891
 2607TIP3    H2 7763   3.236   1.820   2.894
 2608TIP3   OH2 7764   3.209   2.184   3.253
 2608TIP3    H1 7765   3.267   2.115   3.220
 2608TIP3    H2 7766   3.224   2.258   3.194
 2609TIP3   OH2 7767   3.033   2.487   3.463
 2609TIP3    H1 7768   2.970   2.532   3.519
 2609TIP3    H2 7769   2.989   2.481   3.378
 2610TIP3   OH2 7770   3.083   1.701   2.478
 2610TIP3    H1 7771   3.011   1.700   2.415
 2610TIP3    H2 7772   3.066   1.779   2.531
 2611TIP3   OH2 7773   2.927   1.348   2.439
 2611TIP3    H1 7774   2.882   1.377   2.360
 2611TIP3    H2 7775   2.911   1.254   2.443
 2612TIP3   OH2 7776   2.966   1.646   2.969
 2612TIP3    H1 7777   2.975   1.551   2.959
 2612TIP3    H2 7778   2.949   1.658   3.063
 2613TIP3   OH2 7779   1.591   1.710   3.736
 2613TIP3    H1 7780   1.582   1.676   3.647
 2613TIP3    H2 7781   1.685   1.709   3.753
 2614TIP3   OH2 7782   3.260   2.067   3.831
 2614TIP3    H1 7783   3.324   1.998   3.813
 2614TIP3    H2 7784   3.287   2.140   3.776
 2615TIP3   OH2 7785   3.426   1.849   3.821
 2615TIP3    H1 7786   3.355   1.809   3.871
 2615TIP3    H2 7787   3.503   1.795   3.842
 2616TIP3   OH2 7788   2.890   1.074   2.447
 2616TIP3    H1 7789   2.977   1.064   2.484
 2616TIP3    H2 7790   2.861   0.985   2.427
 2617TIP3   OH2 7791   2.966   1.359   2.854
 2617TIP3    H1 7792   3.013   1.277   2.866
 2617TIP3    H2 7793   3.010   1.401   2.780
 2618TIP3   OH2 7794   3.122   1.531   3.378
 2618TIP3    H1 7795   3.203   1.550   3.331
 2618TIP3    H2 7796   3.135   1.571   3.464
 2619TIP3   OH2 7797   3.194   1.679   3.607
 2619TIP3    H1 7798   3.120   1.710   3.659
 2619TIP3    H2 7799   3.226   1.757   3.563
 2620TIP3   OH2 7800   1.806   1.388   4.389
 2620TIP3    H1 7801   1.902   1.386   4.394
 2620TIP3    H2 7802   1.777   1.317   4.447
 2621TIP3   OH2 7803   3.647   1.281   4.146
 2621TIP3    H1 7804   3.711   1.221   4.108
 2621TIP3    H2 7805   3.613   1.330   4.071
 2622TIP3   OH2 7806   3.080   1.112   2.905
 2622TIP3    H1 7807   3.125   1.095   2.988
 2622TIP3    H2 7808   3.015   1.042   2.898
 2623TIP3   OH2 7809   1.790   1.106   3.741
 2623TIP3    H1 7810   1.843   1.026   3.742
 2623TIP3    H2 7811   1.853   1.176   3.723
 2624TIP3   OH2 7812   1.572   1.365   3.798
 2624TIP3    H1 7813   1.619   1.353   3.716
 2624TIP3    H2 7814   1.596   1.452   3.827
 2625TIP3   OH2 7815   3.505   1.405   3.950
 2625TIP3    H1 7816   3.426   1.447   3.985
 2625TIP3    H2 7817   3.472   1.333   3.895
 2626TIP3   OH2 7818   3.144   1.035   2.546
 2626TIP3    H1 7819   3.189   0.972   2.490
 2626TIP3    H2 7820   3.202   1.112   2.547
 2627TIP3   OH2 7821   1.622   0.943   3.338
 2627TIP3    H1 7822   1.568   0.864   3.335
 2627TIP3    H2 7823   1.616   0.980   3.251
 2628TIP3   OH2 7824   2.676   2.571   2.815
 2628TIP3    H1 7825   2.742   2.555   2.748
 2628TIP3    H2 7826   2.714   2.639   2.870
 2629TIP3   OH2 7827   1.798   0.973   4.108
 2629TIP3    H1 7828   1.751   0.973   4.192
 2629TIP3    H2 7829   1.732   0.998   4.044
 2630TIP3   OH2 7830   1.814   2.378   4.189
 2630TIP3    H1 7831   1.720   2.363   4.181
 2630TIP3    H2 7832   1.830   2.377   4.284
 2631TIP3   OH2 7833   2.017   2.429   3.740
 2631TIP3    H1 7834   1.962   2.501   3.709
 2631TIP3    H2 7835   2.101   2.443   3.697
 2632TIP3   OH2 7836   2.431   2.665   3.873
 2632TIP3    H1 7837   2.464   2.657   3.963
 2632TIP3    H2 7838   2.499   2.715   3.828
 2633TIP3   OH2 7839   2.632   2.809   3.749
 2633TIP3    H1 7840   2.707   2.755   3.724
 2633TIP3    H2 7841   2.668   2.877   3.805
 2634TIP3   OH2 7842   3.409   1.167   3.836
 2634TIP3    H1 7843   3.327   1.167   3.788
 2634TIP3    H2 7844   3.436   1.075   3.839
 2635TIP3   OH2 7845   1.677   2.675   3.784
 2635TIP3    H1 7846   1.585   2.691   3.761
 2635TIP3    H2 7847   1.697   2.741   3.851
 2636TIP3   OH2 7848   1.906   2.658   3.633
 2636TIP3    H1 7849   1.824   2.666   3.682
 2636TIP3    H2 7850   1.883   2.688   3.544
 2637TIP3   OH2 7851   2.349   2.671   3.409
 2637TIP3    H1 7852   2.265   2.688   3.366
 2637TIP3    H2 7853   2.365   2.750   3.461
 2638TIP3   OH2 7854   2.619   2.590   3.379
 2638TIP3    H1 7855   2.529   2.605   3.407
 2638TIP3    H2 7856   2.663   2.674   3.394
 2639TIP3   OH2 7857   2.800   2.795   3.377
 2639TIP3    H1 7858   2.788   2.887   3.352
 2639TIP3    H2 7859   2.857   2.759   3.309
 2640TIP3   OH2 7860   1.592   2.455   3.500
 2640TIP3    H1 7861   1.611   2.430   3.590
 2640TIP3    H2 7862   1.665   2.421   3.449
 2641TIP3   OH2 7863   1.796   2.337   3.364
 2641TIP3    H1 7864   1.806   2.254   3.411
 2641TIP3    H2 7865   1.883   2.377   3.368
 2642TIP3   OH2 7866   2.065   2.425   3.385
 2642TIP3    H1 7867   2.083   2.332   3.374
 2642TIP3    H2 7868   2.113   2.450   3.464
 2643TIP3   OH2 7869   2.626   1.076   3.469
 2643TIP3    H1 7870   2.583   1.006   3.517
 2643TIP3    H2 7871   2.692   1.032   3.416
 2644TIP3   OH2 7872   3.130   0.984   3.366
 2644TIP3    H1 7873   3.167   1.033   3.293
 2644TIP3    H2 7874   3.037   1.006   3.366
 2645TIP3   OH2 7875   3.239   1.062   3.127
 2645TIP3    H1 7876   3.308   1.003   3.096
 2645TIP3    H2 7877   3.275   1.150   3.114
 2646TIP3   OH2 7878   1.867   0.780   3.475
 2646TIP3    H1 7879   1.778   0.746   3.474
 2646TIP3    H2 7880   1.923   0.702   3.467
 2647TIP3   OH2 7881   2.338   0.818   3.357
 2647TIP3    H1 7882   2.386   0.867   3.291
 2647TIP3    H2 7883   2.373   0.849   3.440
 2648TIP3   OH2 7884   2.842   0.957   3.338
 2648TIP3    H1 7885   2.861   0.917   3.253
 2648TIP3    H2 7886   2.843   0.884   3.399
 2649TIP3   OH2 7887   2.878   0.917   2.896
 2649TIP3    H1 7888   2.799   0.965   2.922
 2649TIP3    H2 7889   2.868   0.831   2.937
 2650TIP3   OH2 7890   1.362   2.251   2.897
 2650TIP3    H1 7891   1.278   2.215   2.868
 2650TIP3    H2 7892   1.363   2.341   2.864
 2651TIP3   OH2 7893   1.823   0.839   2.854
 2651TIP3    H1 7894   1.790   0.771   2.912
 2651TIP3    H2 7895   1.886   0.888   2.908
 2652TIP3   OH2 7896   2.296   1.010   2.962
 2652TIP3    H1 7897   2.354   0.955   3.015
 2652TIP3    H2 7898   2.315   1.100   2.991
 2653TIP3   OH2 7899   2.162   2.408   2.490
 2653TIP3    H1 7900   2.244   2.438   2.452
 2653TIP3    H2 7901   2.133   2.337   2.432
 2654TIP3   OH2 7902   2.848   2.535   2.596
 2654TIP3    H1 7903   2.846   2.440   2.580
 2654TIP3    H2 7904   2.812   2.573   2.516
 2655TIP3   OH2 7905   2.071   1.075   4.355
 2655TIP3    H1 7906   2.035   1.007   4.412
 2655TIP3    H2 7907   2.166   1.069   4.368
 2656TIP3   OH2 7908   2.329   1.041   4.444
 2656TIP3    H1 7909   2.417   1.010   4.425
 2656TIP3    H2 7910   2.307   1.000   4.528
 2657TIP3   OH2 7911   1.456   2.264   2.544
 2657TIP3    H1 7912   1.453   2.286   2.637
 2657TIP3    H2 7913   1.540   2.221   2.532
 2658TIP3   OH2 7914   3.083   2.689   3.766
 2658TIP3    H1 7915   3.003   2.661   3.720
 2658TIP3    H2 7916   3.072   2.783   3.777
 2659TIP3   OH2 7917   4.353   2.066   2.516
 2659TIP3    H1 7918   4.323   2.154   2.494
 2659TIP3    H2 7919   4.282   2.008   2.488
 2660TIP3   OH2 7920   4.351   2.062   2.930
 2660TIP3    H1 7921   4.401   2.046   3.011
 2660TIP3    H2 7922   4.309   1.978   2.911
 2661TIP3   OH2 7923   3.651   1.937   3.285
 2661TIP3    H1 7924   3.685   1.880   3.354
 2661TIP3    H2 7925   3.728   1.964   3.235
 2662TIP3   OH2 7926   4.617   2.369   2.607
 2662TIP3    H1 7927   4.605   2.304   2.677
 2662TIP3    H2 7928   4.640   2.449   2.653
 2663TIP3   OH2 7929   3.631   2.350   2.978
 2663TIP3    H1 7930   3.619   2.256   2.981
 2663TIP3    H2 7931   3.725   2.362   2.968
 2664TIP3   OH2 7932   3.327   1.558   2.762
 2664TIP3    H1 7933   3.289   1.643   2.784
 2664TIP3    H2 7934   3.256   1.510   2.720
 2665TIP3   OH2 7935   3.402   1.867   2.974
 2665TIP3    H1 7936   3.451   1.789   3.000
 2665TIP3    H2 7937   3.469   1.929   2.946
 2666TIP3   OH2 7938   4.269   2.808   2.616
 2666TIP3    H1 7939   4.299   2.740   2.555
 2666TIP3    H2 7940   4.267   2.764   2.701
 2667TIP3   OH2 7941   4.156   2.285   2.947
 2667TIP3    H1 7942   4.199   2.207   2.911
 2667TIP3    H2 7943   4.228   2.341   2.977
 2668TIP3   OH2 7944   5.189   1.606   2.955
 2668TIP3    H1 7945   5.207   1.690   2.997
 2668TIP3    H2 7946   5.213   1.619   2.863
 2669TIP3   OH2 7947   4.566   1.774   2.978
 2669TIP3    H1 7948   4.605   1.691   3.003
 2669TIP3    H2 7949   4.530   1.759   2.890
 2670TIP3   OH2 7950   3.920   1.434   2.940
 2670TIP3    H1 7951   3.901   1.508   2.882
 2670TIP3    H2 7952   3.866   1.363   2.905
 2671TIP3   OH2 7953   4.617   1.536   2.571
 2671TIP3    H1 7954   4.683   1.528   2.640
 2671TIP3    H2 7955   4.665   1.570   2.496
 2672TIP3   OH2 7956   3.543   1.645   3.066
 2672TIP3    H1 7957   3.626   1.629   3.109
 2672TIP3    H2 7958   3.548   1.595   2.984
 2673TIP3   OH2 7959   3.970   1.845   2.878
 2673TIP3    H1 7960   4.064   1.830   2.884
 2673TIP3    H2 7961   3.934   1.764   2.842
 2674TIP3   OH2 7962   5.247   1.821   3.128
 2674TIP3    H1 7963   5.163   1.866   3.116
 2674TIP3    H2 7964   5.286   1.862   3.205
 2675TIP3   OH2 7965   3.903   1.435   3.389
 2675TIP3    H1 7966   3.853   1.471   3.316
 2675TIP3    H2 7967   3.849   1.451   3.466
 2676TIP3   OH2 7968   4.234   2.279   2.388
 2676TIP3    H1 7969   4.202   2.261   2.299
 2676TIP3    H2 7970   4.190   2.360   2.413
 2677TIP3   OH2 7971   4.001   2.208   3.163
 2677TIP3    H1 7972   3.946   2.279   3.196
 2677TIP3    H2 7973   4.049   2.248   3.090
 2678TIP3   OH2 7974   4.785   1.552   2.786
 2678TIP3    H1 7975   4.744   1.531   2.870
 2678TIP3    H2 7976   4.842   1.627   2.805
 2679TIP3   OH2 7977   3.788   1.542   3.161
 2679TIP3    H1 7978   3.842   1.618   3.183
 2679TIP3    H2 7979   3.834   1.500   3.088
 2680TIP3   OH2 7980   3.840   2.410   3.264
 2680TIP3    H1 7981   3.826   2.499   3.232
 2680TIP3    H2 7982   3.763   2.391   3.317
 2681TIP3   OH2 7983   3.217   2.110   2.515
 2681TIP3    H1 7984   3.184   2.126   2.427
 2681TIP3    H2 7985   3.241   2.196   2.548
 2682TIP3   OH2 7986   4.660   2.614   2.749
 2682TIP3    H1 7987   4.573   2.606   2.788
 2682TIP3    H2 7988   4.658   2.698   2.703
 2683TIP3   OH2 7989   4.987   1.493   3.118
 2683TIP3    H1 7990   4.901   1.523   3.086
 2683TIP3    H2 7991   5.048   1.525   3.051
 2684TIP3   OH2 7992   4.249   1.134   3.112
 2684TIP3    H1 7993   4.233   1.042   3.132
 2684TIP3    H2 7994   4.174   1.180   3.151
 2685TIP3   OH2 7995   4.364   2.646   2.409
 2685TIP3    H1 7996   4.415   2.566   2.397
 2685TIP3    H2 7997   4.421   2.717   2.379
 2686TIP3   OH2 7998   4.517   2.428   2.355
 2686TIP3    H1 7999   4.489   2.346   2.315
 2686TIP3    H2 8000   4.557   2.402   2.438
 2687TIP3   OH2 8001   4.890   2.511   3.095
 2687TIP3    H1 8002   4.876   2.436   3.037
 2687TIP3    H2 8003   4.875   2.588   3.039
 2688TIP3   OH2 8004   4.179   1.909   2.363
 2688TIP3    H1 8005   4.100   1.959   2.344
 2688TIP3    H2 8006   4.228   1.910   2.281
 2689TIP3   OH2 8007   4.151   1.713   2.066
 2689TIP3    H1 8008   4.216   1.765   2.114
 2689TIP3    H2 8009   4.203   1.646   2.021
 2690TIP3   OH2 8010   5.079   2.163   2.958
 2690TIP3    H1 8011   4.996   2.210   2.959
 2690TIP3    H2 8012   5.115   2.180   2.870
 2691TIP3   OH2 8013   4.539   2.001   2.326
 2691TIP3    H1 8014   4.484   2.027   2.401
 2691TIP3    H2 8015   4.622   1.974   2.366
 2692TIP3   OH2 8016   4.767   2.027   3.264
 2692TIP3    H1 8017   4.768   2.110   3.310
 2692TIP3    H2 8018   4.684   2.026   3.216
 2693TIP3   OH2 8019   3.765   1.980   2.737
 2693TIP3    H1 8020   3.730   1.922   2.669
 2693TIP3    H2 8021   3.840   1.933   2.773
 2694TIP3   OH2 8022   3.895   2.400   2.877
 2694TIP3    H1 8023   3.875   2.387   2.784
 2694TIP3    H2 8024   3.983   2.364   2.888
 2695TIP3   OH2 8025   3.869   1.975   3.104
 2695TIP3    H1 8026   3.907   1.941   3.023
 2695TIP3    H2 8027   3.918   2.055   3.122
 2696TIP3   OH2 8028   4.423   2.606   2.881
 2696TIP3    H1 8029   4.409   2.687   2.930
 2696TIP3    H2 8030   4.406   2.537   2.946
 2697TIP3   OH2 8031   4.042   2.511   3.427
 2697TIP3    H1 8032   3.983   2.571   3.474
 2697TIP3    H2 8033   3.983   2.460   3.371
 2698TIP3   OH2 8034   4.371   1.860   2.161
 2698TIP3    H1 8035   4.431   1.917   2.209
 2698TIP3    H2 8036   4.397   1.870   2.069
 2699TIP3   OH2 8037   3.801   2.067   3.562
 2699TIP3    H1 8038   3.805   2.160   3.585
 2699TIP3    H2 8039   3.708   2.048   3.553
 2700TIP3   OH2 8040   4.114   2.531   2.419
 2700TIP3    H1 8041   4.198   2.575   2.424
 2700TIP3    H2 8042   4.058   2.592   2.371
 2701TIP3   OH2 8043   3.834   2.672   3.511
 2701TIP3    H1 8044   3.806   2.683   3.421
 2701TIP3    H2 8045   3.753   2.656   3.560
 2702TIP3   OH2 8046   4.887   1.091   2.210
 2702TIP3    H1 8047   4.809   1.115   2.260
 2702TIP3    H2 8048   4.901   1.165   2.152
 2703TIP3   OH2 8049   3.641   1.825   2.533
 2703TIP3    H1 8050   3.567   1.874   2.497
 2703TIP3    H2 8051   3.607   1.736   2.547
 2704TIP3   OH2 8052   4.701   2.461   1.763
 2704TIP3    H1 8053   4.700   2.556   1.746
 2704TIP3    H2 8054   4.791   2.435   1.744
 2705TIP3   OH2 8055   3.418   2.221   3.460
 2705TIP3    H1 8056   3.353   2.197   3.394
 2705TIP3    H2 8057   3.457   2.138   3.487
 2706TIP3   OH2 8058   3.297   2.407   3.102
 2706TIP3    H1 8059   3.387   2.393   3.073
 2706TIP3    H2 8060   3.302   2.484   3.159
 2707TIP3   OH2 8061   5.126   2.871   3.159
 2707TIP3    H1 8062   5.130   2.776   3.173
 2707TIP3    H2 8063   5.046   2.898   3.204
 2708TIP3   OH2 8064   4.229   2.653   3.284
 2708TIP3    H1 8065   4.224   2.744   3.313
 2708TIP3    H2 8066   4.162   2.608   3.336
 2709TIP3   OH2 8067   4.007   2.758   2.242
 2709TIP3    H1 8068   3.962   2.740   2.160
 2709TIP3    H2 8069   3.973   2.842   2.271
 2710TIP3   OH2 8070   3.440   2.611   2.622
 2710TIP3    H1 8071   3.485   2.604   2.706
 2710TIP3    H2 8072   3.393   2.528   2.612
 2711TIP3   OH2 8073   4.209   2.684   1.869
 2711TIP3    H1 8074   4.260   2.611   1.834
 2711TIP3    H2 8075   4.243   2.697   1.957
 2712TIP3   OH2 8076   4.261   2.730   2.139
 2712TIP3    H1 8077   4.175   2.733   2.182
 2712TIP3    H2 8078   4.321   2.698   2.206
 2713TIP3   OH2 8079   5.015   1.990   3.437
 2713TIP3    H1 8080   4.932   2.002   3.391
 2713TIP3    H2 8081   5.032   1.896   3.430
 2714TIP3   OH2 8082   3.621   2.407   3.432
 2714TIP3    H1 8083   3.668   2.401   3.515
 2714TIP3    H2 8084   3.549   2.345   3.441
 2715TIP3   OH2 8085   4.011   1.220   3.244
 2715TIP3    H1 8086   3.927   1.189   3.209
 2715TIP3    H2 8087   3.989   1.302   3.289
 2716TIP3   OH2 8088   4.557   1.326   3.436
 2716TIP3    H1 8089   4.629   1.311   3.498
 2716TIP3    H2 8090   4.478   1.320   3.489
 2717TIP3   OH2 8091   4.770   1.760   3.348
 2717TIP3    H1 8092   4.731   1.757   3.435
 2717TIP3    H2 8093   4.758   1.850   3.319
 2718TIP3   OH2 8094   4.449   1.867   1.901
 2718TIP3    H1 8095   4.405   1.859   1.816
 2718TIP3    H2 8096   4.533   1.908   1.881
 2719TIP3   OH2 8097   4.153   1.272   2.208
 2719TIP3    H1 8098   4.119   1.276   2.298
 2719TIP3    H2 8099   4.120   1.188   2.174
 2720TIP3   OH2 8100   3.944   1.751   3.248
 2720TIP3    H1 8101   3.901   1.763   3.333
 2720TIP3    H2 8102   3.924   1.832   3.201
 2721TIP3   OH2 8103   3.829   1.630   2.771
 2721TIP3    H1 8104   3.740   1.607   2.795
 2721TIP3    H2 8105   3.840   1.597   2.682
 2722TIP3   OH2 8106   4.310   1.706   2.495
 2722TIP3    H1 8107   4.262   1.778   2.455
 2722TIP3    H2 8108   4.369   1.674   2.426
 2723TIP3   OH2 8109   4.499   1.976   3.573
 2723TIP3    H1 8110   4.473   1.909   3.636
 2723TIP3    H2 8111   4.591   1.994   3.594
 2724TIP3   OH2 8112   4.473   1.723   2.725
 2724TIP3    H1 8113   4.407   1.749   2.660
 2724TIP3    H2 8114   4.519   1.650   2.684
 2725TIP3   OH2 8115   3.776   1.765   3.470
 2725TIP3    H1 8116   3.814   1.825   3.535
 2725TIP3    H2 8117   3.761   1.684   3.519
 2726TIP3   OH2 8118   3.815   1.244   2.182
 2726TIP3    H1 8119   3.807   1.248   2.278
 2726TIP3    H2 8120   3.741   1.297   2.150
 2727TIP3   OH2 8121   3.369   1.286   3.054
 2727TIP3    H1 8122   3.440   1.323   3.106
 2727TIP3    H2 8123   3.408   1.270   2.968
 2728TIP3   OH2 8124   3.293   1.270   2.561
 2728TIP3    H1 8125   3.337   1.305   2.483
 2728TIP3    H2 8126   3.228   1.337   2.584
 2729TIP3   OH2 8127   4.507   1.974   3.151
 2729TIP3    H1 8128   4.533   1.908   3.088
 2729TIP3    H2 8129   4.467   1.925   3.222
 2730TIP3   OH2 8130   4.186   1.423   2.822
 2730TIP3    H1 8131   4.109   1.426   2.879
 2730TIP3    H2 8132   4.261   1.419   2.883
 2731TIP3   OH2 8133   3.590   1.507   2.833
 2731TIP3    H1 8134   3.501   1.511   2.797
 2731TIP3    H2 8135   3.619   1.418   2.814
 2732TIP3   OH2 8136   3.844   1.506   2.526
 2732TIP3    H1 8137   3.939   1.518   2.514
 2732TIP3    H2 8138   3.806   1.526   2.441
 2733TIP3   OH2 8139   4.647   1.513   3.028
 2733TIP3    H1 8140   4.626   1.528   3.120
 2733TIP3    H2 8141   4.578   1.454   2.997
 2734TIP3   OH2 8142   3.723   1.536   2.283
 2734TIP3    H1 8143   3.656   1.491   2.232
 2734TIP3    H2 8144   3.778   1.580   2.218
 2735TIP3   OH2 8145   4.835   3.215   3.253
 2735TIP3    H1 8146   4.831   3.236   3.160
 2735TIP3    H2 8147   4.913   3.261   3.285
 2736TIP3   OH2 8148   3.780   2.324   3.669
 2736TIP3    H1 8149   3.861   2.349   3.715
 2736TIP3    H2 8150   3.712   2.335   3.735
 2737TIP3   OH2 8151   4.242   1.786   2.928
 2737TIP3    H1 8152   4.311   1.744   2.876
 2737TIP3    H2 8153   4.246   1.743   3.013
 2738TIP3   OH2 8154   3.736   1.260   2.814
 2738TIP3    H1 8155   3.706   1.184   2.864
 2738TIP3    H2 8156   3.764   1.224   2.730
 2739TIP3   OH2 8157   4.214   1.688   3.204
 2739TIP3    H1 8158   4.126   1.724   3.221
 2739TIP3    H2 8159   4.273   1.744   3.255
 2740TIP3   OH2 8160   3.945   2.054   2.306
 2740TIP3    H1 8161   3.872   1.996   2.286
 2740TIP3    H2 8162   3.923   2.092   2.391
 2741TIP3   OH2 8163   4.843   2.302   2.919
 2741TIP3    H1 8164   4.877   2.352   2.844
 2741TIP3    H2 8165   4.762   2.264   2.886
 2742TIP3   OH2 8166   4.411   1.361   2.211
 2742TIP3    H1 8167   4.317   1.345   2.204
 2742TIP3    H2 8168   4.418   1.457   2.218
 2743TIP3   OH2 8169   4.350   2.383   3.326
 2743TIP3    H1 8170   4.403   2.378   3.406
 2743TIP3    H2 8171   4.312   2.471   3.328
 2744TIP3   OH2 8172   4.475   1.627   2.280
 2744TIP3    H1 8173   4.570   1.631   2.287
 2744TIP3    H2 8174   4.452   1.703   2.227
 2745TIP3   OH2 8175   3.632   2.061   2.964
 2745TIP3    H1 8176   3.671   2.045   2.878
 2745TIP3    H2 8177   3.699   2.032   3.026
 2746TIP3   OH2 8178   4.099   2.213   2.147
 2746TIP3    H1 8179   4.052   2.296   2.146
 2746TIP3    H2 8180   4.045   2.155   2.201
 2747TIP3   OH2 8181   3.529   2.006   3.601
 2747TIP3    H1 8182   3.551   1.995   3.693
 2747TIP3    H2 8183   3.460   1.943   3.584
 2748TIP3   OH2 8184   4.268   2.131   3.611
 2748TIP3    H1 8185   4.204   2.081   3.559
 2748TIP3    H2 8186   4.353   2.094   3.587
 2749TIP3   OH2 8187   4.501   2.661   3.209
 2749TIP3    H1 8188   4.405   2.654   3.216
 2749TIP3    H2 8189   4.527   2.706   3.290
 2750TIP3   OH2 8190   4.899   1.721   2.106
 2750TIP3    H1 8191   4.840   1.678   2.044
 2750TIP3    H2 8192   4.904   1.811   2.075
 2751TIP3   OH2 8193   5.138   2.584   3.187
 2751TIP3    H1 8194   5.043   2.575   3.181
 2751TIP3    H2 8195   5.171   2.557   3.102
 2752TIP3   OH2 8196   4.626   2.535   2.028
 2752TIP3    H1 8197   4.599   2.466   2.089
 2752TIP3    H2 8198   4.643   2.489   1.946
 2753TIP3   OH2 8199   4.609   2.170   2.818
 2753TIP3    H1 8200   4.519   2.149   2.841
 2753TIP3    H2 8201   4.644   2.089   2.780
 2754TIP3   OH2 8202   3.762   2.404   2.624
 2754TIP3    H1 8203   3.765   2.482   2.568
 2754TIP3    H2 8204   3.669   2.389   2.639
 2755TIP3   OH2 8205   3.323   1.693   2.340
 2755TIP3    H1 8206   3.365   1.777   2.359
 2755TIP3    H2 8207   3.242   1.695   2.391
 2756TIP3   OH2 8208   3.856   2.157   2.539
 2756TIP3    H1 8209   3.839   2.248   2.566
 2756TIP3    H2 8210   3.827   2.105   2.614
 2757TIP3   OH2 8211   4.040   2.728   3.079
 2757TIP3    H1 8212   4.076   2.801   3.029
 2757TIP3    H2 8213   4.114   2.695   3.130
 2758TIP3   OH2 8214   3.674   2.630   2.473
 2758TIP3    H1 8215   3.587   2.637   2.514
 2758TIP3    H2 8216   3.709   2.719   2.476
 2759TIP3   OH2 8217   4.395   2.384   3.053
 2759TIP3    H1 8218   4.383   2.379   3.148
 2759TIP3    H2 8219   4.478   2.339   3.038
 2760TIP3   OH2 8220   4.389   2.266   1.925
 2760TIP3    H1 8221   4.437   2.246   2.005
 2760TIP3    H2 8222   4.303   2.226   1.937
 2761TIP3   OH2 8223   4.649   2.893   3.091
 2761TIP3    H1 8224   4.575   2.833   3.099
 2761TIP3    H2 8225   4.626   2.951   3.018
 2762TIP3   OH2 8226   4.708   2.736   1.732
 2762TIP3    H1 8227   4.737   2.803   1.670
 2762TIP3    H2 8228   4.633   2.777   1.777
 2763TIP3   OH2 8229   3.734   1.510   3.598
 2763TIP3    H1 8230   3.638   1.517   3.606
 2763TIP3    H2 8231   3.761   1.465   3.678
 2764TIP3   OH2 8232   4.556   2.203   2.137
 2764TIP3    H1 8233   4.543   2.134   2.202
 2764TIP3    H2 8234   4.651   2.205   2.124
 2765TIP3   OH2 8235   3.450   2.624   3.246
 2765TIP3    H1 8236   3.509   2.566   3.294
 2765TIP3    H2 8237   3.470   2.712   3.277
 2766TIP3   OH2 8238   3.744   2.236   1.933
 2766TIP3    H1 8239   3.756   2.145   1.908
 2766TIP3    H2 8240   3.725   2.233   2.027
 2767TIP3   OH2 8241   3.685   2.251   2.205
 2767TIP3    H1 8242   3.758   2.224   2.260
 2767TIP3    H2 8243   3.684   2.347   2.211
 2768TIP3   OH2 8244   3.419   1.945   2.414
 2768TIP3    H1 8245   3.354   1.991   2.467
 2768TIP3    H2 8246   3.438   2.004   2.342
 2769TIP3   OH2 8247   4.582   1.564   3.289
 2769TIP3    H1 8248   4.657   1.614   3.322
 2769TIP3    H2 8249   4.578   1.487   3.346
 2770TIP3   OH2 8250   4.469   1.317   2.479
 2770TIP3    H1 8251   4.447   1.334   2.387
 2770TIP3    H2 8252   4.512   1.397   2.509
 2771TIP3   OH2 8253   3.952   2.440   2.146
 2771TIP3    H1 8254   3.867   2.465   2.183
 2771TIP3    H2 8255   3.977   2.514   2.091
 2772TIP3   OH2 8256   4.125   1.514   2.566
 2772TIP3    H1 8257   4.187   1.582   2.540
 2772TIP3    H2 8258   4.146   1.497   2.658
 2773TIP3   OH2 8259   4.417   1.811   3.355
 2773TIP3    H1 8260   4.444   1.861   3.432
 2773TIP3    H2 8261   4.470   1.731   3.359
 2774TIP3   OH2 8262   4.283   1.214   2.657
 2774TIP3    H1 8263   4.259   1.291   2.708
 2774TIP3    H2 8264   4.352   1.245   2.598
 2775TIP3   OH2 8265   3.700   2.523   2.221
 2775TIP3    H1 8266   3.679   2.593   2.159
 2775TIP3    H2 8267   3.689   2.564   2.307
 2776TIP3   OH2 8268   3.797   1.235   2.463
 2776TIP3    H1 8269   3.787   1.326   2.491
 2776TIP3    H2 8270   3.891   1.219   2.466
 2777TIP3   OH2 8271   5.040   1.725   3.345
 2777TIP3    H1 8272   4.944   1.720   3.347
 2777TIP3    H2 8273   5.063   1.701   3.255
 2778TIP3   OH2 8274   4.701   1.911   2.726
 2778TIP3    H1 8275   4.624   1.856   2.738
 2778TIP3    H2 8276   4.768   1.870   2.780
 2779TIP3   OH2 8277   3.434   2.129   2.200
 2779TIP3    H1 8278   3.504   2.194   2.211
 2779TIP3    H2 8279   3.470   2.065   2.139
 2780TIP3   OH2 8280   3.353   1.416   2.339
 2780TIP3    H1 8281   3.361   1.511   2.347
 2780TIP3    H2 8282   3.307   1.403   2.256
 2781TIP3   OH2 8283   4.679   2.881   2.666
 2781TIP3    H1 8284   4.637   2.931   2.596
 2781TIP3    H2 8285   4.773   2.894   2.651
 2782TIP3   OH2 8286   3.748   1.135   3.201
 2782TIP3    H1 8287   3.718   1.105   3.115
 2782TIP3    H2 8288   3.734   1.060   3.259
 2783TIP3   OH2 8289   3.270   2.381   2.596
 2783TIP3    H1 8290   3.225   2.418   2.672
 2783TIP3    H2 8291   3.229   2.424   2.520
 2784TIP3   OH2 8292   3.463   2.920   3.659
 2784TIP3    H1 8293   3.544   2.931   3.709
 2784TIP3    H2 8294   3.448   2.826   3.657
 2785TIP3   OH2 8295   3.926   2.847   3.707
 2785TIP3    H1 8296   4.020   2.835   3.720
 2785TIP3    H2 8297   3.903   2.788   3.636
 2786TIP3   OH2 8298   3.899   2.438   1.826
 2786TIP3    H1 8299   3.852   2.367   1.870
 2786TIP3    H2 8300   3.974   2.396   1.784
 2787TIP3   OH2 8301   4.559   2.777   3.451
 2787TIP3    H1 8302   4.565   2.708   3.517
 2787TIP3    H2 8303   4.633   2.834   3.469
 2788TIP3   OH2 8304   4.341   2.475   1.749
 2788TIP3    H1 8305   4.374   2.410   1.811
 2788TIP3    H2 8306   4.400   2.470   1.675
 2789TIP3   OH2 8307   3.573   2.317   3.856
 2789TIP3    H1 8308   3.591   2.223   3.866
 2789TIP3    H2 8309   3.486   2.320   3.815
 2790TIP3   OH2 8310   3.569   1.938   2.061
 2790TIP3    H1 8311   3.622   1.914   2.138
 2790TIP3    H2 8312   3.633   1.949   1.991
 2791TIP3   OH2 8313   4.194   2.407   3.633
 2791TIP3    H1 8314   4.151   2.429   3.550
 2791TIP3    H2 8315   4.231   2.320   3.619
 2792TIP3   OH2 8316   4.121   2.153   1.880
 2792TIP3    H1 8317   4.102   2.167   1.973
 2792TIP3    H2 8318   4.108   2.059   1.866
 2793TIP3   OH2 8319   4.667   2.436   3.240
 2793TIP3    H1 8320   4.745   2.468   3.195
 2793TIP3    H2 8321   4.602   2.506   3.228
 2794TIP3   OH2 8322   3.689   2.054   3.853
 2794TIP3    H1 8323   3.768   2.049   3.798
 2794TIP3    H2 8324   3.722   2.081   3.939
 2795TIP3   OH2 8325   3.743   1.869   2.265
 2795TIP3    H1 8326   3.724   1.836   2.353
 2795TIP3    H2 8327   3.789   1.797   2.222
 2796TIP3   OH2 8328   4.032   1.927   3.502
 2796TIP3    H1 8329   3.959   1.986   3.520
 2796TIP3    H2 8330   4.078   1.966   3.428
 2797TIP3   OH2 8331   3.875   1.680   2.108
 2797TIP3    H1 8332   3.847   1.685   2.016
 2797TIP3    H2 8333   3.971   1.687   2.104
 2798TIP3   OH2 8334   4.546   2.326   3.614
 2798TIP3    H1 8335   4.621   2.293   3.565
 2798TIP3    H2 8336   4.543   2.272   3.693
 2799TIP3   OH2 8337   4.676   1.982   1.787
 2799TIP3    H1 8338   4.659   1.936   1.704
 2799TIP3    H2 8339   4.649   2.072   1.771
 2800TIP3   OH2 8340   4.157   1.717   3.625
 2800TIP3    H1 8341   4.162   1.644   3.563
 2800TIP3    H2 8342   4.117   1.788   3.574
 2801TIP3   OH2 8343   4.166   1.512   3.426
 2801TIP3    H1 8344   4.193   1.555   3.345
 2801TIP3    H2 8345   4.074   1.490   3.412
 2802TIP3   OH2 8346   4.176   2.055   3.311
 2802TIP3    H1 8347   4.264   2.083   3.287
 2802TIP3    H2 8348   4.118   2.113   3.261
 2803TIP3   OH2 8349   4.765   2.013   3.675
 2803TIP3    H1 8350   4.818   1.934   3.685
 2803TIP3    H2 8351   4.828   2.083   3.662
 2804TIP3   OH2 8352   4.798   2.267   3.407
 2804TIP3    H1 8353   4.741   2.326   3.357
 2804TIP3    H2 8354   4.886   2.287   3.376
 2805TIP3   OH2 8355   4.035   1.810   3.863
 2805TIP3    H1 8356   3.966   1.746   3.882
 2805TIP3    H2 8357   4.066   1.786   3.775
 2806TIP3   OH2 8358   4.285   1.278   3.518
 2806TIP3    H1 8359   4.248   1.361   3.487
 2806TIP3    H2 8360   4.215   1.214   3.501
 2807TIP3   OH2 8361   4.415   1.763   3.725
 2807TIP3    H1 8362   4.406   1.754   3.820
 2807TIP3    H2 8363   4.327   1.743   3.691
 2808TIP3   OH2 8364   4.654   1.709   3.587
 2808TIP3    H1 8365   4.578   1.716   3.644
 2808TIP3    H2 8366   4.727   1.693   3.647
 2809TIP3   OH2 8367   4.890   1.680   3.740
 2809TIP3    H1 8368   4.904   1.586   3.750
 2809TIP3    H2 8369   4.884   1.713   3.830
 2810TIP3   OH2 8370   3.871   1.589   3.929
 2810TIP3    H1 8371   3.879   1.500   3.896
 2810TIP3    H2 8372   3.908   1.585   4.017
 2811TIP3   OH2 8373   4.355   1.270   3.783
 2811TIP3    H1 8374   4.427   1.208   3.775
 2811TIP3    H2 8375   4.322   1.280   3.694
 2812TIP3   OH2 8376   4.444   1.485   3.932
 2812TIP3    H1 8377   4.414   1.415   3.874
 2812TIP3    H2 8378   4.372   1.549   3.932
 2813TIP3   OH2 8379   3.691   2.726   2.032
 2813TIP3    H1 8380   3.783   2.711   2.009
 2813TIP3    H2 8381   3.655   2.774   1.958
 2814TIP3   OH2 8382   3.163   2.107   2.232
 2814TIP3    H1 8383   3.256   2.127   2.222
 2814TIP3    H2 8384   3.152   2.021   2.193
 2815TIP3   OH2 8385   3.066   2.690   2.670
 2815TIP3    H1 8386   2.999   2.635   2.630
 2815TIP3    H2 8387   3.113   2.631   2.730
 2816TIP3   OH2 8388   3.208   2.530   2.847
 2816TIP3    H1 8389   3.204   2.464   2.917
 2816TIP3    H2 8390   3.260   2.601   2.884
 2817TIP3   OH2 8391   4.950   2.937   2.654
 2817TIP3    H1 8392   4.967   2.969   2.742
 2817TIP3    H2 8393   5.001   2.994   2.597
 2818TIP3   OH2 8394   4.963   2.974   2.935
 2818TIP3    H1 8395   4.917   2.890   2.931
 2818TIP3    H2 8396   5.034   2.959   2.996
 2819TIP3   OH2 8397   5.014   2.665   3.506
 2819TIP3    H1 8398   4.942   2.674   3.568
 2819TIP3    H2 8399   5.059   2.749   3.509
 2820TIP3   OH2 8400   4.836   2.186   2.119
 2820TIP3    H1 8401   4.896   2.253   2.088
 2820TIP3    H2 8402   4.881   2.146   2.194
 2821TIP3   OH2 8403   4.965   2.040   2.318
 2821TIP3    H1 8404   4.898   2.002   2.374
 2821TIP3    H2 8405   5.030   2.077   2.378
 2822TIP3   OH2 8406   5.017   2.441   2.751
 2822TIP3    H1 8407   5.069   2.374   2.707
 2822TIP3    H2 8408   5.016   2.515   2.689
 2823TIP3   OH2 8409   4.825   2.731   2.943
 2823TIP3    H1 8410   4.757   2.775   2.994
 2823TIP3    H2 8411   4.778   2.690   2.871
 2824TIP3   OH2 8412   4.882   1.960   1.968
 2824TIP3    H1 8413   4.810   1.956   1.904
 2824TIP3    H2 8414   4.863   2.038   2.020
 2825TIP3   OH2 8415   4.738   1.630   1.907
 2825TIP3    H1 8416   4.711   1.651   1.818
 2825TIP3    H2 8417   4.718   1.537   1.917
 2826TIP3   OH2 8418   4.765   1.901   2.456
 2826TIP3    H1 8419   4.771   1.807   2.443
 2826TIP3    H2 8420   4.748   1.911   2.550
 2827TIP3   OH2 8421   3.388   1.975   3.226
 2827TIP3    H1 8422   3.380   1.940   3.138
 2827TIP3    H2 8423   3.482   1.973   3.244
 2828TIP3   OH2 8424   5.054   2.323   3.317
 2828TIP3    H1 8425   5.120   2.256   3.299
 2828TIP3    H2 8426   5.075   2.394   3.256
 2829TIP3   OH2 8427   5.226   2.109   3.309
 2829TIP3    H1 8428   5.153   2.069   3.357
 2829TIP3    H2 8429   5.301   2.054   3.330
 2830TIP3   OH2 8430   4.680   1.368   1.928
 2830TIP3    H1 8431   4.759   1.325   1.960
 2830TIP3    H2 8432   4.613   1.300   1.929
 2831TIP3   OH2 8433   4.764   1.625   2.343
 2831TIP3    H1 8434   4.808   1.541   2.356
 2831TIP3    H2 8435   4.809   1.664   2.267
 2832TIP3   OH2 8436   4.917   1.787   2.863
 2832TIP3    H1 8437   4.997   1.806   2.815
 2832TIP3    H2 8438   4.930   1.827   2.949
 2833TIP3   OH2 8439   4.990   1.937   3.092
 2833TIP3    H1 8440   4.916   1.968   3.145
 2833TIP3    H2 8441   5.022   2.016   3.047
 2834TIP3   OH2 8442   3.608   1.646   3.866
 2834TIP3    H1 8443   3.702   1.646   3.885
 2834TIP3    H2 8444   3.575   1.566   3.907
 2835TIP3   OH2 8445   5.449   1.535   3.635
 2835TIP3    H1 8446   5.512   1.477   3.592
 2835TIP3    H2 8447   5.412   1.588   3.564
 2836TIP3   OH2 8448   4.877   1.375   2.394
 2836TIP3    H1 8449   4.922   1.357   2.477
 2836TIP3    H2 8450   4.815   1.303   2.385
 2837TIP3   OH2 8451   3.579   1.356   3.225
 2837TIP3    H1 8452   3.636   1.279   3.226
 2837TIP3    H2 8453   3.639   1.429   3.207
 2838TIP3   OH2 8454   3.366   1.622   3.285
 2838TIP3    H1 8455   3.416   1.616   3.204
 2838TIP3    H2 8456   3.393   1.705   3.324
 2839TIP3   OH2 8457   5.302   1.662   3.445
 2839TIP3    H1 8458   5.227   1.704   3.486
 2839TIP3    H2 8459   5.264   1.596   3.388
 2840TIP3   OH2 8460   4.934   1.288   2.024
 2840TIP3    H1 8461   4.970   1.230   1.957
 2840TIP3    H2 8462   4.991   1.365   2.023
 2841TIP3   OH2 8463   3.355   1.130   2.787
 2841TIP3    H1 8464   3.267   1.117   2.823
 2841TIP3    H2 8465   3.341   1.187   2.711
 2842TIP3   OH2 8466   4.506   2.844   2.296
 2842TIP3    H1 8467   4.564   2.835   2.220
 2842TIP3    H2 8468   4.547   2.913   2.349
 2843TIP3   OH2 8469   3.572   1.169   3.605
 2843TIP3    H1 8470   3.530   1.185   3.690
 2843TIP3    H2 8471   3.523   1.223   3.543
 2844TIP3   OH2 8472   3.611   2.635   3.676
 2844TIP3    H1 8473   3.517   2.619   3.672
 2844TIP3    H2 8474   3.631   2.640   3.769
 2845TIP3   OH2 8475   3.810   2.685   3.226
 2845TIP3    H1 8476   3.760   2.760   3.195
 2845TIP3    H2 8477   3.896   2.694   3.184
 2846TIP3   OH2 8478   4.220   2.920   3.362
 2846TIP3    H1 8479   4.257   2.913   3.450
 2846TIP3    H2 8480   4.283   2.973   3.314
 2847TIP3   OH2 8481   4.411   3.075   3.236
 2847TIP3    H1 8482   4.478   3.023   3.190
 2847TIP3    H2 8483   4.461   3.133   3.293
 2848TIP3   OH2 8484   5.204   1.424   3.324
 2848TIP3    H1 8485   5.122   1.428   3.275
 2848TIP3    H2 8486   5.234   1.334   3.314
 2849TIP3   OH2 8487   3.470   2.920   3.274
 2849TIP3    H1 8488   3.380   2.940   3.250
 2849TIP3    H2 8489   3.494   2.987   3.338
 2850TIP3   OH2 8490   3.702   2.915   3.121
 2850TIP3    H1 8491   3.618   2.922   3.168
 2850TIP3    H2 8492   3.682   2.944   3.032
 2851TIP3   OH2 8493   4.123   2.936   2.914
 2851TIP3    H1 8494   4.053   2.950   2.850
 2851TIP3    H2 8495   4.136   3.021   2.956
 2852TIP3   OH2 8496   4.388   2.869   2.963
 2852TIP3    H1 8497   4.296   2.890   2.945
 2852TIP3    H2 8498   4.438   2.938   2.919
 2853TIP3   OH2 8499   4.588   3.047   2.867
 2853TIP3    H1 8500   4.586   3.135   2.828
 2853TIP3    H2 8501   4.618   2.990   2.796
 2854TIP3   OH2 8502   3.372   2.709   2.990
 2854TIP3    H1 8503   3.394   2.692   3.082
 2854TIP3    H2 8504   3.449   2.678   2.941
 2855TIP3   OH2 8505   3.583   2.595   2.859
 2855TIP3    H1 8506   3.596   2.510   2.901
 2855TIP3    H2 8507   3.669   2.636   2.860
 2856TIP3   OH2 8508   3.851   2.680   2.876
 2856TIP3    H1 8509   3.872   2.588   2.862
 2856TIP3    H2 8510   3.906   2.706   2.950
 2857TIP3   OH2 8511   4.419   1.341   2.959
 2857TIP3    H1 8512   4.382   1.268   3.008
 2857TIP3    H2 8513   4.486   1.301   2.904
 2858TIP3   OH2 8514   4.921   1.237   2.851
 2858TIP3    H1 8515   4.962   1.284   2.779
 2858TIP3    H2 8516   4.830   1.268   2.851
 2859TIP3   OH2 8517   5.035   1.316   2.616
 2859TIP3    H1 8518   5.104   1.258   2.584
 2859TIP3    H2 8519   5.071   1.404   2.604
 2860TIP3   OH2 8520   3.657   1.035   2.959
 2860TIP3    H1 8521   3.567   1.004   2.965
 2860TIP3    H2 8522   3.710   0.956   2.949
 2861TIP3   OH2 8523   3.473   0.934   2.614
 2861TIP3    H1 8524   3.503   0.983   2.537
 2861TIP3    H2 8525   3.440   1.000   2.674
 2862TIP3   OH2 8526   4.131   1.074   2.851
 2862TIP3    H1 8527   4.176   1.118   2.779
 2862TIP3    H2 8528   4.171   1.109   2.930
 2863TIP3   OH2 8529   4.632   1.230   2.824
 2863TIP3    H1 8530   4.644   1.199   2.734
 2863TIP3    H2 8531   4.635   1.150   2.878
 2864TIP3   OH2 8532   4.691   1.166   2.393
 2864TIP3    H1 8533   4.610   1.212   2.414
 2864TIP3    H2 8534   4.679   1.078   2.430
 2865TIP3   OH2 8535   3.152   2.506   2.383
 2865TIP3    H1 8536   3.070   2.473   2.346
 2865TIP3    H2 8537   3.159   2.596   2.350
 2866TIP3   OH2 8538   3.587   1.065   2.381
 2866TIP3    H1 8539   3.631   1.004   2.322
 2866TIP3    H2 8540   3.657   1.122   2.414
 2867TIP3   OH2 8541   4.072   1.263   2.473
 2867TIP3    H1 8542   4.133   1.211   2.525
 2867TIP3    H2 8543   4.088   1.353   2.500
 2868TIP3   OH2 8544   3.953   2.663   1.971
 2868TIP3    H1 8545   4.036   2.691   1.934
 2868TIP3    H2 8546   3.924   2.591   1.915
 2869TIP3   OH2 8547   4.660   2.803   2.067
 2869TIP3    H1 8548   4.653   2.708   2.059
 2869TIP3    H2 8549   4.616   2.837   1.990
 2870TIP3   OH2 8550   3.881   1.315   3.840
 2870TIP3    H1 8551   3.844   1.251   3.901
 2870TIP3    H2 8552   3.973   1.323   3.865
 2871TIP3   OH2 8553   4.129   1.320   3.962
 2871TIP3    H1 8554   4.210   1.301   3.915
 2871TIP3    H2 8555   4.123   1.253   4.030
 2872TIP3   OH2 8556   3.252   2.502   2.028
 2872TIP3    H1 8557   3.258   2.530   2.120
 2872TIP3    H2 8558   3.336   2.460   2.010
 2873TIP3   OH2 8559   4.954   1.409   3.756
 2873TIP3    H1 8560   4.971   1.380   3.846
 2873TIP3    H2 8561   5.039   1.404   3.713
 2874TIP3   OH2 8562   4.875   2.941   3.254
 2874TIP3    H1 8563   4.799   2.911   3.204
 2874TIP3    H2 8564   4.862   3.035   3.264
 2875TIP3   OH2 8565   6.149   2.326   2.002
 2875TIP3    H1 8566   6.121   2.414   1.977
 2875TIP3    H2 8567   6.078   2.269   1.975
 2876TIP3   OH2 8568   6.148   2.318   2.419
 2876TIP3    H1 8569   6.198   2.301   2.499
 2876TIP3    H2 8570   6.105   2.235   2.399
 2877TIP3   OH2 8571   5.450   2.192   2.769
 2877TIP3    H1 8572   5.484   2.136   2.838
 2877TIP3    H2 8573   5.527   2.220   2.720
 2878TIP3   OH2 8574   6.413   2.626   2.095
 2878TIP3    H1 8575   6.401   2.560   2.163
 2878TIP3    H2 8576   6.436   2.706   2.142
 2879TIP3   OH2 8577   5.436   2.612   2.464
 2879TIP3    H1 8578   5.420   2.518   2.470
 2879TIP3    H2 8579   5.531   2.619   2.453
 2880TIP3   OH2 8580   5.126   1.816   2.249
 2880TIP3    H1 8581   5.085   1.900   2.271
 2880TIP3    H2 8582   5.056   1.765   2.208
 2881TIP3   OH2 8583   5.197   2.119   2.457
 2881TIP3    H1 8584   5.247   2.042   2.484
 2881TIP3    H2 8585   5.263   2.181   2.425
 2882TIP3   OH2 8586   6.065   3.066   2.102
 2882TIP3    H1 8587   6.097   2.998   2.042
 2882TIP3    H2 8588   6.059   3.022   2.187
 2883TIP3   OH2 8589   5.954   2.542   2.431
 2883TIP3    H1 8590   5.996   2.462   2.398
 2883TIP3    H2 8591   6.026   2.597   2.461
 2884TIP3   OH2 8592   6.983   1.863   2.442
 2884TIP3    H1 8593   7.001   1.948   2.482
 2884TIP3    H2 8594   7.009   1.874   2.351
 2885TIP3   OH2 8595   6.365   2.032   2.465
 2885TIP3    H1 8596   6.402   1.948   2.490
 2885TIP3    H2 8597   6.327   2.017   2.378
 2886TIP3   OH2 8598   5.716   1.692   2.426
 2886TIP3    H1 8599   5.697   1.765   2.367
 2886TIP3    H2 8600   5.663   1.620   2.393
 2887TIP3   OH2 8601   6.410   1.792   2.059
 2887TIP3    H1 8602   6.475   1.783   2.128
 2887TIP3    H2 8603   6.459   1.826   1.984
 2888TIP3   OH2 8604   5.339   1.901   2.552
 2888TIP3    H1 8605   5.423   1.885   2.596
 2888TIP3    H2 8606   5.345   1.850   2.471
 2889TIP3   OH2 8607   5.767   2.102   2.363
 2889TIP3    H1 8608   5.861   2.085   2.370
 2889TIP3    H2 8609   5.731   2.021   2.327
 2890TIP3   OH2 8610   7.042   2.080   2.614
 2890TIP3    H1 8611   6.955   2.120   2.604
 2890TIP3    H2 8612   7.076   2.119   2.695
 2891TIP3   OH2 8613   5.698   1.691   2.876
 2891TIP3    H1 8614   5.647   1.726   2.803
 2891TIP3    H2 8615   5.643   1.708   2.953
 2892TIP3   OH2 8616   6.050   2.545   1.861
 2892TIP3    H1 8617   6.008   2.518   1.779
 2892TIP3    H2 8618   5.997   2.620   1.891
 2893TIP3   OH2 8619   5.797   2.467   2.647
 2893TIP3    H1 8620   5.742   2.537   2.681
 2893TIP3    H2 8621   5.844   2.507   2.574
 2894TIP3   OH2 8622   6.579   1.809   2.273
 2894TIP3    H1 8623   6.540   1.787   2.357
 2894TIP3    H2 8624   6.637   1.883   2.292
 2895TIP3   OH2 8625   5.585   1.799   2.647
 2895TIP3    H1 8626   5.640   1.874   2.670
 2895TIP3    H2 8627   5.631   1.757   2.574
 2896TIP3   OH2 8628   5.636   2.668   2.750
 2896TIP3    H1 8629   5.621   2.757   2.718
 2896TIP3    H2 8630   5.559   2.648   2.803
 2897TIP3   OH2 8631   5.015   2.367   1.999
 2897TIP3    H1 8632   4.979   2.386   1.913
 2897TIP3    H2 8633   5.039   2.452   2.035
 2898TIP3   OH2 8634   6.457   2.872   2.236
 2898TIP3    H1 8635   6.370   2.863   2.276
 2898TIP3    H2 8636   6.454   2.956   2.190
 2899TIP3   OH2 8637   6.781   1.752   2.609
 2899TIP3    H1 8638   6.695   1.776   2.575
 2899TIP3    H2 8639   6.842   1.781   2.542
 2900TIP3   OH2 8640   6.042   1.387   2.599
 2900TIP3    H1 8641   6.033   1.294   2.623
 2900TIP3    H2 8642   5.967   1.430   2.640
 2901TIP3   OH2 8643   6.162   2.905   1.896
 2901TIP3    H1 8644   6.213   2.825   1.884
 2901TIP3    H2 8645   6.219   2.975   1.865
 2902TIP3   OH2 8646   6.305   2.678   1.844
 2902TIP3    H1 8647   6.235   2.612   1.838
 2902TIP3    H2 8648   6.352   2.654   1.924
 2903TIP3   OH2 8649   6.687   2.767   2.581
 2903TIP3    H1 8650   6.672   2.692   2.524
 2903TIP3    H2 8651   6.671   2.844   2.526
 2904TIP3   OH2 8652   5.976   2.168   1.850
 2904TIP3    H1 8653   5.895   2.214   1.830
 2904TIP3    H2 8654   6.024   2.166   1.767
 2905TIP3   OH2 8655   5.948   1.966   1.545
 2905TIP3    H1 8656   6.010   2.016   1.597
 2905TIP3    H2 8657   6.001   1.902   1.499
 2906TIP3   OH2 8658   6.877   2.422   2.441
 2906TIP3    H1 8659   6.793   2.468   2.443
 2906TIP3    H2 8660   6.910   2.437   2.352
 2907TIP3   OH2 8661   6.334   2.255   1.814
 2907TIP3    H1 8662   6.280   2.283   1.888
 2907TIP3    H2 8663   6.417   2.229   1.854
 2908TIP3   OH2 8664   6.564   2.286   2.751
 2908TIP3    H1 8665   6.562   2.369   2.799
 2908TIP3    H2 8666   6.481   2.284   2.703
 2909TIP3   OH2 8667   5.563   2.237   2.222
 2909TIP3    H1 8668   5.527   2.179   2.155
 2909TIP3    H2 8669   5.637   2.189   2.259
 2910TIP3   OH2 8670   5.697   2.659   2.361
 2910TIP3    H1 8671   5.675   2.643   2.269
 2910TIP3    H2 8672   5.785   2.621   2.371
 2911TIP3   OH2 8673   5.669   2.231   2.591
 2911TIP3    H1 8674   5.707   2.196   2.510
 2911TIP3    H2 8675   5.718   2.311   2.608
 2912TIP3   OH2 8676   6.221   2.863   2.369
 2912TIP3    H1 8677   6.206   2.944   2.418
 2912TIP3    H2 8678   6.204   2.793   2.432
 2913TIP3   OH2 8679   5.836   2.769   2.914
 2913TIP3    H1 8680   5.777   2.828   2.961
 2913TIP3    H2 8681   5.778   2.718   2.858
 2914TIP3   OH2 8682   6.166   2.117   1.647
 2914TIP3    H1 8683   6.225   2.172   1.697
 2914TIP3    H2 8684   6.193   2.128   1.556
 2915TIP3   OH2 8685   5.593   2.317   3.049
 2915TIP3    H1 8686   5.598   2.411   3.071
 2915TIP3    H2 8687   5.499   2.300   3.042
 2916TIP3   OH2 8688   5.913   2.785   1.906
 2916TIP3    H1 8689   5.996   2.834   1.911
 2916TIP3    H2 8690   5.853   2.844   1.860
 2917TIP3   OH2 8691   5.627   2.929   3.000
 2917TIP3    H1 8692   5.600   2.938   2.908
 2917TIP3    H2 8693   5.546   2.912   3.047
 2918TIP3   OH2 8694   6.676   1.349   1.704
 2918TIP3    H1 8695   6.597   1.369   1.754
 2918TIP3    H2 8696   6.687   1.424   1.646
 2919TIP3   OH2 8697   5.437   2.082   2.017
 2919TIP3    H1 8698   5.361   2.129   1.982
 2919TIP3    H2 8699   5.404   1.995   2.037
 2920TIP3   OH2 8700   6.477   2.726   1.249
 2920TIP3    H1 8701   6.476   2.820   1.234
 2920TIP3    H2 8702   6.568   2.700   1.236
 2921TIP3   OH2 8703   5.216   2.481   2.948
 2921TIP3    H1 8704   5.147   2.464   2.883
 2921TIP3    H2 8705   5.251   2.395   2.968
 2922TIP3   OH2 8706   5.063   2.675   2.594
 2922TIP3    H1 8707   5.157   2.691   2.601
 2922TIP3    H2 8708   5.022   2.754   2.629
 2923TIP3   OH2 8709   6.921   3.127   2.646
 2923TIP3    H1 8710   6.926   3.032   2.659
 2923TIP3    H2 8711   6.841   3.153   2.692
 2924TIP3   OH2 8712   6.025   2.909   2.772
 2924TIP3    H1 8713   6.020   3.000   2.801
 2924TIP3    H2 8714   5.957   2.864   2.823
 2925TIP3   OH2 8715   5.804   3.016   1.729
 2925TIP3    H1 8716   5.758   2.997   1.647
 2925TIP3    H2 8717   5.768   3.100   1.757
 2926TIP3   OH2 8718   5.238   2.868   2.106
 2926TIP3    H1 8719   5.282   2.860   2.191
 2926TIP3    H2 8720   5.189   2.786   2.098
 2927TIP3   OH2 8721   6.003   2.944   1.356
 2927TIP3    H1 8722   6.054   2.870   1.321
 2927TIP3    H2 8723   6.037   2.957   1.444
 2928TIP3   OH2 8724   6.057   2.987   1.626
 2928TIP3    H1 8725   5.971   2.991   1.668
 2928TIP3    H2 8726   6.116   2.953   1.694
 2929TIP3   OH2 8727   6.809   2.246   2.919
 2929TIP3    H1 8728   6.727   2.256   2.870
 2929TIP3    H2 8729   6.828   2.152   2.914
 2930TIP3   OH2 8730   5.419   2.665   2.919
 2930TIP3    H1 8731   5.467   2.655   3.001
 2930TIP3    H2 8732   5.346   2.604   2.926
 2931TIP3   OH2 8733   5.805   1.478   2.728
 2931TIP3    H1 8734   5.722   1.446   2.695
 2931TIP3    H2 8735   5.783   1.559   2.775
 2932TIP3   OH2 8736   6.347   1.595   2.926
 2932TIP3    H1 8737   6.417   1.571   2.987
 2932TIP3    H2 8738   6.266   1.578   2.974
 2933TIP3   OH2 8739   6.568   2.020   2.839
 2933TIP3    H1 8740   6.527   2.017   2.926
 2933TIP3    H2 8741   6.553   2.109   2.809
 2934TIP3   OH2 8742   6.251   2.136   1.390
 2934TIP3    H1 8743   6.204   2.123   1.307
 2934TIP3    H2 8744   6.334   2.176   1.365
 2935TIP3   OH2 8745   5.950   1.524   1.693
 2935TIP3    H1 8746   5.918   1.529   1.783
 2935TIP3    H2 8747   5.914   1.442   1.659
 2936TIP3   OH2 8748   5.742   2.008   2.738
 2936TIP3    H1 8749   5.696   2.017   2.822
 2936TIP3    H2 8750   5.722   2.088   2.691
 2937TIP3   OH2 8751   5.625   1.887   2.256
 2937TIP3    H1 8752   5.536   1.863   2.282
 2937TIP3    H2 8753   5.635   1.853   2.168
 2938TIP3   OH2 8754   6.106   1.965   1.985
 2938TIP3    H1 8755   6.058   2.037   1.944
 2938TIP3    H2 8756   6.164   1.932   1.916
 2939TIP3   OH2 8757   6.291   2.233   3.061
 2939TIP3    H1 8758   6.265   2.165   3.123
 2939TIP3    H2 8759   6.383   2.249   3.081
 2940TIP3   OH2 8760   6.270   1.981   2.213
 2940TIP3    H1 8761   6.203   2.006   2.149
 2940TIP3    H2 8762   6.315   1.907   2.173
 2941TIP3   OH2 8763   5.576   2.024   2.958
 2941TIP3    H1 8764   5.594   2.088   3.027
 2941TIP3    H2 8765   5.558   1.942   3.005
 2942TIP3   OH2 8766   5.611   1.506   1.665
 2942TIP3    H1 8767   5.604   1.505   1.760
 2942TIP3    H2 8768   5.533   1.553   1.635
 2943TIP3   OH2 8769   5.162   1.541   2.542
 2943TIP3    H1 8770   5.235   1.578   2.591
 2943TIP3    H2 8771   5.197   1.525   2.455
 2944TIP3   OH2 8772   5.090   1.524   2.042
 2944TIP3    H1 8773   5.135   1.557   1.965
 2944TIP3    H2 8774   5.027   1.592   2.065
 2945TIP3   OH2 8775   6.306   2.232   2.638
 2945TIP3    H1 8776   6.332   2.165   2.575
 2945TIP3    H2 8777   6.264   2.183   2.709
 2946TIP3   OH2 8778   5.984   1.683   2.311
 2946TIP3    H1 8779   5.906   1.683   2.367
 2946TIP3    H2 8780   6.057   1.675   2.371
 2947TIP3   OH2 8781   5.387   1.762   2.320
 2947TIP3    H1 8782   5.298   1.767   2.285
 2947TIP3    H2 8783   5.415   1.672   2.301
 2948TIP3   OH2 8784   5.640   1.762   2.012
 2948TIP3    H1 8785   5.735   1.774   2.000
 2948TIP3    H2 8786   5.603   1.782   1.926
 2949TIP3   OH2 8787   6.442   1.769   2.516
 2949TIP3    H1 8788   6.421   1.786   2.608
 2949TIP3    H2 8789   6.375   1.708   2.486
 2950TIP3   OH2 8790   5.517   1.792   1.768
 2950TIP3    H1 8791   5.445   1.749   1.722
 2950TIP3    H2 8792   5.569   1.831   1.698
 2951TIP3   OH2 8793   6.632   3.472   2.740
 2951TIP3    H1 8794   6.628   3.492   2.647
 2951TIP3    H2 8795   6.710   3.517   2.771
 2952TIP3   OH2 8796   5.577   2.579   3.155
 2952TIP3    H1 8797   5.657   2.603   3.201
 2952TIP3    H2 8798   5.507   2.588   3.220
 2953TIP3   OH2 8799   6.038   2.044   2.417
 2953TIP3    H1 8800   6.105   1.997   2.368
 2953TIP3    H2 8801   6.037   2.003   2.503
 2954TIP3   OH2 8802   5.534   1.515   2.303
 2954TIP3    H1 8803   5.503   1.440   2.353
 2954TIP3    H2 8804   5.562   1.478   2.219
 2955TIP3   OH2 8805   6.010   1.948   2.686
 2955TIP3    H1 8806   5.922   1.981   2.707
 2955TIP3    H2 8807   6.069   2.002   2.739
 2956TIP3   OH2 8808   5.741   2.308   1.794
 2956TIP3    H1 8809   5.667   2.250   1.773
 2956TIP3    H2 8810   5.718   2.347   1.879
 2957TIP3   OH2 8811   6.639   2.559   2.405
 2957TIP3    H1 8812   6.672   2.608   2.330
 2957TIP3    H2 8813   6.557   2.520   2.373
 2958TIP3   OH2 8814   6.206   1.621   1.693
 2958TIP3    H1 8815   6.112   1.602   1.689
 2958TIP3    H2 8816   6.210   1.716   1.704
 2959TIP3   OH2 8817   6.147   2.641   2.810
 2959TIP3    H1 8818   6.195   2.634   2.892
 2959TIP3    H2 8819   6.107   2.728   2.813
 2960TIP3   OH2 8820   6.268   1.884   1.768
 2960TIP3    H1 8821   6.363   1.888   1.778
 2960TIP3    H2 8822   6.246   1.961   1.715
 2961TIP3   OH2 8823   5.435   2.323   2.452
 2961TIP3    H1 8824   5.472   2.305   2.365
 2961TIP3    H2 8825   5.501   2.290   2.513
 2962TIP3   OH2 8826   5.894   2.469   1.636
 2962TIP3    H1 8827   5.848   2.552   1.634
 2962TIP3    H2 8828   5.839   2.412   1.689
 2963TIP3   OH2 8829   5.321   2.253   3.080
 2963TIP3    H1 8830   5.329   2.233   3.173
 2963TIP3    H2 8831   5.246   2.201   3.051
 2964TIP3   OH2 8832   6.056   2.383   3.101
 2964TIP3    H1 8833   5.988   2.324   3.068
 2964TIP3    H2 8834   6.138   2.345   3.072
 2965TIP3   OH2 8835   6.297   2.921   2.696
 2965TIP3    H1 8836   6.202   2.911   2.702
 2965TIP3    H2 8837   6.323   2.963   2.778
 2966TIP3   OH2 8838   6.689   1.969   1.599
 2966TIP3    H1 8839   6.636   1.926   1.531
 2966TIP3    H2 8840   6.686   2.062   1.576
 2967TIP3   OH2 8841   6.934   2.842   2.672
 2967TIP3    H1 8842   6.839   2.832   2.667
 2967TIP3    H2 8843   6.967   2.813   2.587
 2968TIP3   OH2 8844   6.425   2.791   1.522
 2968TIP3    H1 8845   6.393   2.725   1.584
 2968TIP3    H2 8846   6.429   2.745   1.438
 2969TIP3   OH2 8847   6.405   2.426   2.306
 2969TIP3    H1 8848   6.315   2.404   2.329
 2969TIP3    H2 8849   6.440   2.345   2.268
 2970TIP3   OH2 8850   5.556   2.660   2.110
 2970TIP3    H1 8851   5.554   2.737   2.053
 2970TIP3    H2 8852   5.464   2.647   2.136
 2971TIP3   OH2 8853   5.109   1.946   1.815
 2971TIP3    H1 8854   5.156   2.027   1.836
 2971TIP3    H2 8855   5.032   1.949   1.871
 2972TIP3   OH2 8856   5.654   2.415   2.026
 2972TIP3    H1 8857   5.632   2.505   2.052
 2972TIP3    H2 8858   5.625   2.362   2.100
 2973TIP3   OH2 8859   5.837   2.985   2.567
 2973TIP3    H1 8860   5.873   3.058   2.516
 2973TIP3    H2 8861   5.911   2.952   2.617
 2974TIP3   OH2 8862   5.471   2.886   1.959
 2974TIP3    H1 8863   5.385   2.892   1.999
 2974TIP3    H2 8864   5.505   2.976   1.963
 2975TIP3   OH2 8865   6.193   2.640   2.538
 2975TIP3    H1 8866   6.180   2.636   2.632
 2975TIP3    H2 8867   6.273   2.590   2.522
 2976TIP3   OH2 8868   6.179   2.523   1.411
 2976TIP3    H1 8869   6.230   2.497   1.488
 2976TIP3    H2 8870   6.094   2.482   1.423
 2977TIP3   OH2 8871   6.447   3.148   2.578
 2977TIP3    H1 8872   6.373   3.088   2.588
 2977TIP3    H2 8873   6.421   3.206   2.506
 2978TIP3   OH2 8874   6.501   2.997   1.219
 2978TIP3    H1 8875   6.526   3.060   1.151
 2978TIP3    H2 8876   6.429   3.039   1.266
 2979TIP3   OH2 8877   5.528   1.769   3.084
 2979TIP3    H1 8878   5.433   1.775   3.091
 2979TIP3    H2 8879   5.555   1.720   3.162
 2980TIP3   OH2 8880   6.351   2.443   1.609
 2980TIP3    H1 8881   6.336   2.386   1.684
 2980TIP3    H2 8882   6.446   2.454   1.606
 2981TIP3   OH2 8883   5.265   2.874   2.726
 2981TIP3    H1 8884   5.317   2.812   2.778
 2981TIP3    H2 8885   5.280   2.959   2.768
 2982TIP3   OH2 8886   5.540   2.494   1.419
 2982TIP3    H1 8887   5.551   2.402   1.394
 2982TIP3    H2 8888   5.521   2.491   1.513
 2983TIP3   OH2 8889   5.480   2.508   1.690
 2983TIP3    H1 8890   5.549   2.480   1.750
 2983TIP3    H2 8891   5.479   2.603   1.697
 2984TIP3   OH2 8892   5.212   2.196   1.897
 2984TIP3    H1 8893   5.147   2.242   1.951
 2984TIP3    H2 8894   5.231   2.257   1.826
 2985TIP3   OH2 8895   6.377   1.827   2.777
 2985TIP3    H1 8896   6.454   1.873   2.810
 2985TIP3    H2 8897   6.369   1.751   2.834
 2986TIP3   OH2 8898   6.260   1.576   1.963
 2986TIP3    H1 8899   6.242   1.593   1.871
 2986TIP3    H2 8900   6.304   1.655   1.995
 2987TIP3   OH2 8901   5.750   2.698   1.633
 2987TIP3    H1 8902   5.665   2.721   1.669
 2987TIP3    H2 8903   5.773   2.772   1.577
 2988TIP3   OH2 8904   5.921   1.772   2.054
 2988TIP3    H1 8905   5.984   1.840   2.029
 2988TIP3    H2 8906   5.941   1.753   2.146
 2989TIP3   OH2 8907   6.214   2.067   2.839
 2989TIP3    H1 8908   6.240   2.113   2.919
 2989TIP3    H2 8909   6.265   1.986   2.840
 2990TIP3   OH2 8910   6.079   1.473   2.146
 2990TIP3    H1 8911   6.056   1.550   2.197
 2990TIP3    H2 8912   6.147   1.503   2.085
 2991TIP3   OH2 8913   5.497   2.780   1.707
 2991TIP3    H1 8914   5.475   2.850   1.645
 2991TIP3    H2 8915   5.486   2.819   1.793
 2992TIP3   OH2 8916   5.596   1.490   1.944
 2992TIP3    H1 8917   5.585   1.580   1.976
 2992TIP3    H2 8918   5.690   1.474   1.950
 2993TIP3   OH2 8919   6.835   1.976   2.831
 2993TIP3    H1 8920   6.740   1.977   2.838
 2993TIP3    H2 8921   6.852   1.931   2.748
 2994TIP3   OH2 8922   6.497   2.169   2.214
 2994TIP3    H1 8923   6.419   2.114   2.226
 2994TIP3    H2 8924   6.564   2.128   2.267
 2995TIP3   OH2 8925   5.230   2.381   1.686
 2995TIP3    H1 8926   5.300   2.446   1.696
 2995TIP3    H2 8927   5.265   2.319   1.622
 2996TIP3   OH2 8928   5.145   1.667   1.814
 2996TIP3    H1 8929   5.138   1.762   1.815
 2996TIP3    H2 8930   5.072   1.638   1.759
 2997TIP3   OH2 8931   6.475   3.139   2.153
 2997TIP3    H1 8932   6.433   3.189   2.083
 2997TIP3    H2 8933   6.569   3.152   2.139
 2998TIP3   OH2 8934   5.543   1.392   2.688
 2998TIP3    H1 8935   5.514   1.361   2.602
 2998TIP3    H2 8936   5.532   1.317   2.746
 2999TIP3   OH2 8937   5.067   2.638   2.081
 2999TIP3    H1 8938   5.022   2.674   2.158
 2999TIP3    H2 8939   5.026   2.681   2.006
 3000TIP3   OH2 8940   5.258   3.179   3.147
 3000TIP3    H1 8941   5.340   3.184   3.196
 3000TIP3    H2 8942   5.239   3.085   3.141
 3001TIP3   OH2 8943   5.725   3.101   3.194
 3001TIP3    H1 8944   5.819   3.085   3.202
 3001TIP3    H2 8945   5.697   3.043   3.123
 3002TIP3   OH2 8946   5.692   2.698   1.314
 3002TIP3    H1 8947   5.646   2.626   1.357
 3002TIP3    H2 8948   5.766   2.657   1.271
 3003TIP3   OH2 8949   6.354   3.033   2.940
 3003TIP3    H1 8950   6.363   2.964   3.005
 3003TIP3    H2 8951   6.429   3.091   2.956
 3004TIP3   OH2 8952   6.134   2.733   1.240
 3004TIP3    H1 8953   6.165   2.667   1.302
 3004TIP3    H2 8954   6.192   2.725   1.164
 3005TIP3   OH2 8955   5.370   2.575   3.342
 3005TIP3    H1 8956   5.387   2.481   3.352
 3005TIP3    H2 8957   5.283   2.579   3.301
 3006TIP3   OH2 8958   5.362   2.191   1.540
 3006TIP3    H1 8959   5.413   2.167   1.617
 3006TIP3    H2 8960   5.427   2.205   1.471
 3007TIP3   OH2 8961   5.988   2.661   3.118
 3007TIP3    H1 8962   5.944   2.683   3.036
 3007TIP3    H2 8963   6.022   2.572   3.104
 3008TIP3   OH2 8964   5.917   2.408   1.368
 3008TIP3    H1 8965   5.897   2.422   1.461
 3008TIP3    H2 8966   5.904   2.314   1.354
 3009TIP3   OH2 8967   6.464   2.695   2.730
 3009TIP3    H1 8968   6.542   2.726   2.684
 3009TIP3    H2 8969   6.399   2.764   2.716
 3010TIP3   OH2 8970   5.486   2.315   3.344
 3010TIP3    H1 8971   5.563   2.304   3.288
 3010TIP3    H2 8972   5.521   2.340   3.429
 3011TIP3   OH2 8973   5.538   2.124   1.749
 3011TIP3    H1 8974   5.515   2.094   1.837
 3011TIP3    H2 8975   5.581   2.049   1.708
 3012TIP3   OH2 8976   5.844   2.201   3.001
 3012TIP3    H1 8977   5.761   2.248   3.010
 3012TIP3    H2 8978   5.880   2.232   2.917
 3013TIP3   OH2 8979   5.667   1.933   1.582
 3013TIP3    H1 8980   5.642   1.941   1.491
 3013TIP3    H2 8981   5.763   1.939   1.582
 3014TIP3   OH2 8982   6.346   2.583   3.100
 3014TIP3    H1 8983   6.415   2.545   3.046
 3014TIP3    H2 8984   6.342   2.527   3.178
 3015TIP3   OH2 8985   6.486   2.243   1.270
 3015TIP3    H1 8986   6.457   2.197   1.191
 3015TIP3    H2 8987   6.452   2.332   1.260
 3016TIP3   OH2 8988   5.951   1.975   3.112
 3016TIP3    H1 8989   5.955   1.903   3.049
 3016TIP3    H2 8990   5.916   2.049   3.063
 3017TIP3   OH2 8991   5.959   1.773   2.912
 3017TIP3    H1 8992   5.986   1.812   2.829
 3017TIP3    H2 8993   5.867   1.748   2.897
 3018TIP3   OH2 8994   5.970   2.304   2.784
 3018TIP3    H1 8995   6.059   2.335   2.766
 3018TIP3    H2 8996   5.914   2.366   2.737
 3019TIP3   OH2 8997   6.559   2.264   3.161
 3019TIP3    H1 8998   6.603   2.180   3.168
 3019TIP3    H2 8999   6.629   2.327   3.142
 3020TIP3   OH2 9000   6.591   2.525   2.900
 3020TIP3    H1 9001   6.536   2.585   2.849
 3020TIP3    H2 9002   6.680   2.542   2.868
 3021TIP3   OH2 9003   5.834   2.065   3.352
 3021TIP3    H1 9004   5.763   2.003   3.372
 3021TIP3    H2 9005   5.863   2.042   3.264
 3022TIP3   OH2 9006   6.081   1.539   3.007
 3022TIP3    H1 9007   6.041   1.620   2.975
 3022TIP3    H2 9008   6.015   1.472   2.993
 3023TIP3   OH2 9009   6.208   2.019   3.212
 3023TIP3    H1 9010   6.198   2.008   3.306
 3023TIP3    H2 9011   6.122   1.998   3.176
 3024TIP3   OH2 9012   6.452   1.973   3.078
 3024TIP3    H1 9013   6.374   1.974   3.134
 3024TIP3    H2 9014   6.523   1.949   3.137
 3025TIP3   OH2 9015   6.687   1.934   3.229
 3025TIP3    H1 9016   6.701   1.840   3.237
 3025TIP3    H2 9017   6.682   1.965   3.319
 3026TIP3   OH2 9018   5.667   1.845   3.416
 3026TIP3    H1 9019   5.674   1.756   3.381
 3026TIP3    H2 9020   5.705   1.839   3.503
 3027TIP3   OH2 9021   6.151   1.524   3.272
 3027TIP3    H1 9022   6.222   1.459   3.266
 3027TIP3    H2 9023   6.120   1.533   3.182
 3028TIP3   OH2 9024   6.241   1.740   3.418
 3028TIP3    H1 9025   6.212   1.669   3.361
 3028TIP3    H2 9026   6.169   1.803   3.417
 3029TIP3   OH2 9027   5.487   2.984   1.520
 3029TIP3    H1 9028   5.578   2.969   1.497
 3029TIP3    H2 9029   5.450   3.032   1.446
 3030TIP3   OH2 9030   4.957   2.367   1.710
 3030TIP3    H1 9031   5.051   2.382   1.704
 3030TIP3    H2 9032   4.944   2.280   1.672
 3031TIP3   OH2 9033   4.867   2.957   2.160
 3031TIP3    H1 9034   4.801   2.904   2.115
 3031TIP3    H2 9035   4.911   2.897   2.219
 3032TIP3   OH2 9036   5.007   2.791   2.331
 3032TIP3    H1 9037   4.996   2.724   2.399
 3032TIP3    H2 9038   5.059   2.860   2.373
 3033TIP3   OH2 9039   6.746   3.194   2.141
 3033TIP3    H1 9040   6.763   3.225   2.230
 3033TIP3    H2 9041   6.798   3.251   2.085
 3034TIP3   OH2 9042   6.760   3.230   2.422
 3034TIP3    H1 9043   6.713   3.147   2.418
 3034TIP3    H2 9044   6.831   3.214   2.484
 3035TIP3   OH2 9045   6.810   2.923   2.992
 3035TIP3    H1 9046   6.739   2.931   3.055
 3035TIP3    H2 9047   6.855   3.007   2.995
 3036TIP3   OH2 9048   6.629   2.446   1.612
 3036TIP3    H1 9049   6.687   2.517   1.584
 3036TIP3    H2 9050   6.674   2.407   1.686
 3037TIP3   OH2 9051   6.757   2.294   1.804
 3037TIP3    H1 9052   6.690   2.254   1.861
 3037TIP3    H2 9053   6.822   2.328   1.864
 3038TIP3   OH2 9054   6.814   2.697   2.236
 3038TIP3    H1 9055   6.865   2.629   2.192
 3038TIP3    H2 9056   6.813   2.770   2.174
 3039TIP3   OH2 9057   6.622   2.988   2.430
 3039TIP3    H1 9058   6.554   3.031   2.481
 3039TIP3    H2 9059   6.574   2.946   2.358
 3040TIP3   OH2 9060   6.662   2.212   1.477
 3040TIP3    H1 9061   6.596   2.209   1.408
 3040TIP3    H2 9062   6.641   2.289   1.528
 3041TIP3   OH2 9063   6.547   1.879   1.388
 3041TIP3    H1 9064   6.504   1.911   1.308
 3041TIP3    H2 9065   6.524   1.786   1.391
 3042TIP3   OH2 9066   6.561   2.155   1.945
 3042TIP3    H1 9067   6.565   2.060   1.933
 3042TIP3    H2 9068   6.543   2.167   2.038
 3043TIP3   OH2 9069   5.185   2.220   2.712
 3043TIP3    H1 9070   5.176   2.189   2.622
 3043TIP3    H2 9071   5.279   2.221   2.727
 3044TIP3   OH2 9072   6.847   2.579   2.805
 3044TIP3    H1 9073   6.913   2.512   2.788
 3044TIP3    H2 9074   6.865   2.648   2.741
 3045TIP3   OH2 9075   7.022   2.368   2.798
 3045TIP3    H1 9076   6.948   2.327   2.843
 3045TIP3    H2 9077   7.097   2.312   2.819
 3046TIP3   OH2 9078   6.482   1.617   1.391
 3046TIP3    H1 9079   6.554   1.574   1.436
 3046TIP3    H2 9080   6.408   1.558   1.403
 3047TIP3   OH2 9081   6.555   1.880   1.832
 3047TIP3    H1 9082   6.597   1.796   1.848
 3047TIP3    H2 9083   6.600   1.916   1.756
 3048TIP3   OH2 9084   6.712   2.044   2.349
 3048TIP3    H1 9085   6.792   2.062   2.302
 3048TIP3    H2 9086   6.725   2.083   2.435
 3049TIP3   OH2 9087   6.786   2.196   2.576
 3049TIP3    H1 9088   6.712   2.227   2.629
 3049TIP3    H2 9089   6.817   2.275   2.532
 3050TIP3   OH2 9090   5.403   1.902   3.355
 3050TIP3    H1 9091   5.498   1.901   3.372
 3050TIP3    H2 9092   5.370   1.823   3.396
 3051TIP3   OH2 9093   7.245   1.795   3.120
 3051TIP3    H1 9094   7.304   1.734   3.076
 3051TIP3    H2 9095   7.207   1.846   3.048
 3052TIP3   OH2 9096   6.662   1.631   1.889
 3052TIP3    H1 9097   6.708   1.613   1.971
 3052TIP3    H2 9098   6.600   1.558   1.879
 3053TIP3   OH2 9099   5.375   1.613   2.709
 3053TIP3    H1 9100   5.430   1.536   2.712
 3053TIP3    H2 9101   5.435   1.686   2.692
 3054TIP3   OH2 9102   5.160   1.880   2.770
 3054TIP3    H1 9103   5.211   1.870   2.690
 3054TIP3    H2 9104   5.180   1.968   2.801
 3055TIP3   OH2 9105   7.096   1.913   2.925
 3055TIP3    H1 9106   7.015   1.955   2.954
 3055TIP3    H2 9107   7.068   1.841   2.870
 3056TIP3   OH2 9108   6.726   1.541   1.513
 3056TIP3    H1 9109   6.775   1.476   1.462
 3056TIP3    H2 9110   6.786   1.616   1.521
 3057TIP3   OH2 9111   5.147   1.390   2.274
 3057TIP3    H1 9112   5.059   1.378   2.309
 3057TIP3    H2 9113   5.134   1.443   2.195
 3058TIP3   OH2 9114   6.306   3.101   1.783
 3058TIP3    H1 9115   6.363   3.093   1.707
 3058TIP3    H2 9116   6.346   3.170   1.836
 3059TIP3   OH2 9117   5.370   1.443   3.091
 3059TIP3    H1 9118   5.324   1.451   3.175
 3059TIP3    H2 9119   5.315   1.491   3.029
 3060TIP3   OH2 9120   5.404   2.893   3.164
 3060TIP3    H1 9121   5.310   2.877   3.155
 3060TIP3    H2 9122   5.420   2.890   3.259
 3061TIP3   OH2 9123   5.608   2.943   2.715
 3061TIP3    H1 9124   5.556   3.016   2.683
 3061TIP3    H2 9125   5.693   2.953   2.672
 3062TIP3   OH2 9126   6.016   3.176   2.850
 3062TIP3    H1 9127   6.053   3.170   2.938
 3062TIP3    H2 9128   6.079   3.230   2.801
 3063TIP3   OH2 9129   6.206   3.332   2.722
 3063TIP3    H1 9130   6.271   3.280   2.675
 3063TIP3    H2 9131   6.258   3.389   2.779
 3064TIP3   OH2 9132   7.004   1.672   2.812
 3064TIP3    H1 9133   6.918   1.670   2.769
 3064TIP3    H2 9134   7.037   1.582   2.804
 3065TIP3   OH2 9135   5.270   3.186   2.760
 3065TIP3    H1 9136   5.179   3.204   2.736
 3065TIP3    H2 9137   5.291   3.252   2.826
 3066TIP3   OH2 9138   5.500   3.173   2.608
 3066TIP3    H1 9139   5.417   3.180   2.656
 3066TIP3    H2 9140   5.478   3.200   2.519
 3067TIP3   OH2 9141   5.920   3.193   2.400
 3067TIP3    H1 9142   5.848   3.205   2.337
 3067TIP3    H2 9143   5.931   3.278   2.441
 3068TIP3   OH2 9144   6.184   3.127   2.451
 3068TIP3    H1 9145   6.093   3.147   2.432
 3068TIP3    H2 9146   6.234   3.195   2.405
 3069TIP3   OH2 9147   6.385   3.305   2.354
 3069TIP3    H1 9148   6.382   3.392   2.315
 3069TIP3    H2 9149   6.415   3.248   2.284
 3070TIP3   OH2 9150   5.181   2.968   2.476
 3070TIP3    H1 9151   5.204   2.944   2.566
 3070TIP3    H2 9152   5.253   2.935   2.423
 3071TIP3   OH2 9153   5.384   2.850   2.339
 3071TIP3    H1 9154   5.395   2.767   2.386
 3071TIP3    H2 9155   5.471   2.891   2.343
 3072TIP3   OH2 9156   5.652   2.938   2.361
 3072TIP3    H1 9157   5.671   2.845   2.347
 3072TIP3    H2 9158   5.704   2.963   2.437
 3073TIP3   OH2 9159   6.215   1.591   2.445
 3073TIP3    H1 9160   6.176   1.519   2.493
 3073TIP3    H2 9161   6.284   1.550   2.392
 3074TIP3   OH2 9162   6.720   1.495   2.340
 3074TIP3    H1 9163   6.757   1.544   2.266
 3074TIP3    H2 9164   6.627   1.519   2.339
 3075TIP3   OH2 9165   6.829   1.577   2.103
 3075TIP3    H1 9166   6.899   1.521   2.071
 3075TIP3    H2 9167   6.863   1.666   2.093
 3076TIP3   OH2 9168   5.454   1.291   2.447
 3076TIP3    H1 9169   5.364   1.259   2.451
 3076TIP3    H2 9170   5.508   1.212   2.439
 3077TIP3   OH2 9171   5.278   1.194   2.106
 3077TIP3    H1 9172   5.300   1.241   2.026
 3077TIP3    H2 9173   5.238   1.260   2.162
 3078TIP3   OH2 9174   5.927   1.331   2.339
 3078TIP3    H1 9175   5.975   1.376   2.270
 3078TIP3    H2 9176   5.969   1.359   2.420
 3079TIP3   OH2 9177   6.432   1.475   2.315
 3079TIP3    H1 9178   6.445   1.441   2.227
 3079TIP3    H2 9179   6.434   1.398   2.372
 3080TIP3   OH2 9180   6.480   1.420   1.886
 3080TIP3    H1 9181   6.399   1.466   1.908
 3080TIP3    H2 9182   6.469   1.333   1.923
 3081TIP3   OH2 9183   4.952   2.763   1.866
 3081TIP3    H1 9184   4.868   2.729   1.836
 3081TIP3    H2 9185   4.955   2.853   1.834
 3082TIP3   OH2 9186   5.383   1.321   1.866
 3082TIP3    H1 9187   5.426   1.259   1.807
 3082TIP3    H2 9188   5.453   1.377   1.898
 3083TIP3   OH2 9189   5.871   1.520   1.958
 3083TIP3    H1 9190   5.930   1.468   2.012
 3083TIP3    H2 9191   5.887   1.611   1.986
 3084TIP3   OH2 9192   5.748   2.922   1.459
 3084TIP3    H1 9193   5.831   2.950   1.421
 3084TIP3    H2 9194   5.718   2.851   1.402
 3085TIP3   OH2 9195   6.459   3.060   1.554
 3085TIP3    H1 9196   6.452   2.965   1.547
 3085TIP3    H2 9197   6.412   3.093   1.477
 3086TIP3   OH2 9198   5.676   1.571   3.328
 3086TIP3    H1 9199   5.641   1.505   3.388
 3086TIP3    H2 9200   5.769   1.578   3.353
 3087TIP3   OH2 9201   5.926   1.576   3.448
 3087TIP3    H1 9202   6.006   1.556   3.399
 3087TIP3    H2 9203   5.921   1.506   3.514
 3088TIP3   OH2 9204   5.046   2.758   1.513
 3088TIP3    H1 9205   5.049   2.778   1.606
 3088TIP3    H2 9206   5.130   2.716   1.495
 3089TIP3   OH2 9207   6.751   1.662   3.241
 3089TIP3    H1 9208   6.767   1.634   3.330
 3089TIP3    H2 9209   6.836   1.658   3.198
 3090TIP3   OH2 9210   6.671   3.198   2.741
 3090TIP3    H1 9211   6.595   3.168   2.691
 3090TIP3    H2 9212   6.658   3.292   2.751
 3091TIP3   OH2 9213   7.870   2.582   1.874
 3091TIP3    H1 9214   7.858   2.489   1.893
 3091TIP3    H2 9215   7.889   2.586   1.780
 3092TIP3   OH2 9216   7.242   2.451   2.262
 3092TIP3    H1 9217   7.272   2.392   2.331
 3092TIP3    H2 9218   7.322   2.488   2.224
 3093TIP3   OH2 9219   7.227   2.880   1.960
 3093TIP3    H1 9220   7.211   2.787   1.973
 3093TIP3    H2 9221   7.321   2.886   1.945
 3094TIP3   OH2 9222   6.920   2.069   1.732
 3094TIP3    H1 9223   6.883   2.154   1.755
 3094TIP3    H2 9224   6.846   2.017   1.701
 3095TIP3   OH2 9225   6.988   2.368   1.937
 3095TIP3    H1 9226   7.038   2.293   1.969
 3095TIP3    H2 9227   7.048   2.414   1.878
 3096TIP3   OH2 9228   7.859   3.278   1.574
 3096TIP3    H1 9229   7.928   3.212   1.566
 3096TIP3    H2 9230   7.857   3.298   1.667
 3097TIP3   OH2 9231   7.735   2.829   1.927
 3097TIP3    H1 9232   7.789   2.752   1.908
 3097TIP3    H2 9233   7.795   2.903   1.919
 3098TIP3   OH2 9234   7.502   1.961   1.924
 3098TIP3    H1 9235   7.472   2.034   1.869
 3098TIP3    H2 9236   7.453   1.885   1.892
 3099TIP3   OH2 9237   7.130   2.155   2.037
 3099TIP3    H1 9238   7.211   2.138   2.084
 3099TIP3    H2 9239   7.135   2.100   1.958
 3100TIP3   OH2 9240   7.558   2.377   1.856
 3100TIP3    H1 9241   7.650   2.355   1.865
 3100TIP3    H2 9242   7.516   2.296   1.828
 3101TIP3   OH2 9243   7.483   1.951   2.372
 3101TIP3    H1 9244   7.430   1.986   2.299
 3101TIP3    H2 9245   7.430   1.968   2.450
 3102TIP3   OH2 9246   7.863   2.856   1.392
 3102TIP3    H1 9247   7.818   2.810   1.321
 3102TIP3    H2 9248   7.818   2.941   1.397
 3103TIP3   OH2 9249   7.597   2.730   2.144
 3103TIP3    H1 9250   7.538   2.797   2.178
 3103TIP3    H2 9251   7.645   2.773   2.073
 3104TIP3   OH2 9252   7.369   2.056   2.143
 3104TIP3    H1 9253   7.422   2.132   2.166
 3104TIP3    H2 9254   7.416   2.014   2.072
 3105TIP3   OH2 9255   7.430   2.925   2.241
 3105TIP3    H1 9256   7.416   3.014   2.207
 3105TIP3    H2 9257   7.352   2.906   2.292
 3106TIP3   OH2 9258   6.798   2.636   1.495
 3106TIP3    H1 9259   6.756   2.658   1.412
 3106TIP3    H2 9260   6.825   2.720   1.531
 3107TIP3   OH2 9261   7.746   2.419   1.251
 3107TIP3    H1 9262   7.688   2.490   1.277
 3107TIP3    H2 9263   7.834   2.453   1.267
 3108TIP3   OH2 9264   7.360   2.532   1.739
 3108TIP3    H1 9265   7.298   2.474   1.694
 3108TIP3    H2 9266   7.431   2.473   1.768
 3109TIP3   OH2 9267   7.483   2.922   1.850
 3109TIP3    H1 9268   7.468   2.896   1.760
 3109TIP3    H2 9269   7.569   2.886   1.872
 3110TIP3   OH2 9270   7.467   2.495   2.089
 3110TIP3    H1 9271   7.500   2.463   2.005
 3110TIP3    H2 9272   7.514   2.577   2.104
 3111TIP3   OH2 9273   7.909   3.045   1.908
 3111TIP3    H1 9274   7.910   3.138   1.884
 3111TIP3    H2 9275   7.999   3.028   1.937
 3112TIP3   OH2 9276   7.627   3.015   2.414
 3112TIP3    H1 9277   7.570   3.079   2.458
 3112TIP3    H2 9278   7.569   2.967   2.356
 3113TIP3   OH2 9279   7.384   2.578   2.529
 3113TIP3    H1 9280   7.388   2.670   2.555
 3113TIP3    H2 9281   7.291   2.558   2.527
 3114TIP3   OH2 9282   7.741   3.106   1.384
 3114TIP3    H1 9283   7.754   3.168   1.456
 3114TIP3    H2 9284   7.665   3.139   1.337
 3115TIP3   OH2 9285   7.419   3.184   2.483
 3115TIP3    H1 9286   7.393   3.192   2.391
 3115TIP3    H2 9287   7.338   3.168   2.530
 3116TIP3   OH2 9288   7.166   2.390   1.609
 3116TIP3    H1 9289   7.105   2.441   1.557
 3116TIP3    H2 9290   7.185   2.313   1.556
 3117TIP3   OH2 9291   7.011   2.735   2.435
 3117TIP3    H1 9292   6.943   2.719   2.369
 3117TIP3    H2 9293   7.046   2.648   2.454
 3118TIP3   OH2 9294   6.858   2.932   2.079
 3118TIP3    H1 9295   6.952   2.947   2.088
 3118TIP3    H2 9296   6.818   3.011   2.116
 3119TIP3   OH2 9297   7.803   3.162   2.259
 3119TIP3    H1 9298   7.798   3.251   2.292
 3119TIP3    H2 9299   7.742   3.113   2.314
 3120TIP3   OH2 9300   7.589   3.288   1.220
 3120TIP3    H1 9301   7.538   3.269   1.141
 3120TIP3    H2 9302   7.557   3.373   1.250
 3121TIP3   OH2 9303   7.030   3.126   1.594
 3121TIP3    H1 9304   7.074   3.119   1.679
 3121TIP3    H2 9305   6.981   3.044   1.586
 3122TIP3   OH2 9306   7.804   3.213   0.897
 3122TIP3    H1 9307   7.848   3.134   0.865
 3122TIP3    H2 9308   7.840   3.226   0.985
 3123TIP3   OH2 9309   7.856   3.256   1.163
 3123TIP3    H1 9310   7.765   3.275   1.187
 3123TIP3    H2 9311   7.883   3.187   1.224
 3124TIP3   OH2 9312   7.211   2.922   2.407
 3124TIP3    H1 9313   7.260   2.911   2.488
 3124TIP3    H2 9314   7.139   2.859   2.414
 3125TIP3   OH2 9315   7.577   1.735   2.229
 3125TIP3    H1 9316   7.494   1.704   2.194
 3125TIP3    H2 9317   7.555   1.814   2.278
 3126TIP3   OH2 9318   7.524   2.264   2.229
 3126TIP3    H1 9319   7.478   2.273   2.312
 3126TIP3    H2 9320   7.507   2.347   2.183
 3127TIP3   OH2 9321   7.405   2.165   1.773
 3127TIP3    H1 9322   7.316   2.134   1.788
 3127TIP3    H2 9323   7.426   2.136   1.684
 3128TIP3   OH2 9324   7.364   2.279   2.452
 3128TIP3    H1 9325   7.372   2.344   2.521
 3128TIP3    H2 9326   7.347   2.197   2.498
 3129TIP3   OH2 9327   7.364   1.652   1.253
 3129TIP3    H1 9328   7.365   1.700   1.336
 3129TIP3    H2 9329   7.410   1.709   1.192
 3130TIP3   OH2 9330   6.947   1.811   2.036
 3130TIP3    H1 9331   7.025   1.841   2.083
 3130TIP3    H2 9332   6.979   1.781   1.951
 3131TIP3   OH2 9333   6.883   1.774   1.546
 3131TIP3    H1 9334   6.948   1.825   1.498
 3131TIP3    H2 9335   6.812   1.836   1.564
 3132TIP3   OH2 9336   7.765   2.037   1.881
 3132TIP3    H1 9337   7.675   2.008   1.894
 3132TIP3    H2 9338   7.818   1.974   1.931
 3133TIP3   OH2 9339   7.180   2.009   1.809
 3133TIP3    H1 9340   7.092   2.016   1.771
 3133TIP3    H2 9341   7.207   1.920   1.790
 3134TIP3   OH2 9342   7.446   2.054   1.531
 3134TIP3    H1 9343   7.530   2.050   1.485
 3134TIP3    H2 9344   7.383   2.019   1.468
 3135TIP3   OH2 9345   7.270   1.959   1.350
 3135TIP3    H1 9346   7.218   1.896   1.300
 3135TIP3    H2 9347   7.315   2.012   1.283
 3136TIP3   OH2 9348   7.371   2.837   2.638
 3136TIP3    H1 9349   7.452   2.861   2.681
 3136TIP3    H2 9350   7.304   2.844   2.706
 3137TIP3   OH2 9351   8.321   3.892   3.494
 3137TIP3    H1 9352   8.283   3.822   3.441
 3137TIP3    H2 9353   8.263   3.901   3.569
 3138TIP3   OH2 9354   7.348   1.764   1.808
 3138TIP3    H1 9355   7.299   1.690   1.846
 3138TIP3    H2 9356   7.430   1.725   1.778
 3139TIP3   OH2 9357   7.793   2.221   2.197
 3139TIP3    H1 9358   7.698   2.231   2.202
 3139TIP3    H2 9359   7.827   2.286   2.259
 3140TIP3   OH2 9360   7.538   2.589   1.321
 3140TIP3    H1 9361   7.515   2.498   1.343
 3140TIP3    H2 9362   7.526   2.637   1.403
 3141TIP3   OH2 9363   7.933   2.901   2.278
 3141TIP3    H1 9364   7.942   2.912   2.373
 3141TIP3    H2 9365   7.885   2.979   2.250
 3142TIP3   OH2 9366   7.229   2.602   1.968
 3142TIP3    H1 9367   7.269   2.588   1.882
 3142TIP3    H2 9368   7.287   2.555   2.028
 3143TIP3   OH2 9369   7.702   2.758   1.183
 3143TIP3    H1 9370   7.653   2.840   1.176
 3143TIP3    H2 9371   7.642   2.698   1.227
 3144TIP3   OH2 9372   7.116   2.505   2.567
 3144TIP3    H1 9373   7.120   2.483   2.660
 3144TIP3    H2 9374   7.042   2.455   2.533
 3145TIP3   OH2 9375   7.834   2.631   2.593
 3145TIP3    H1 9376   7.757   2.579   2.569
 3145TIP3    H2 9377   7.909   2.579   2.565
 3146TIP3   OH2 9378   8.066   3.241   2.201
 3146TIP3    H1 9379   7.979   3.202   2.199
 3146TIP3    H2 9380   8.108   3.202   2.277
 3147TIP3   OH2 9381   7.334   2.927   1.597
 3147TIP3    H1 9382   7.329   3.005   1.542
 3147TIP3    H2 9383   7.245   2.916   1.632
 3148TIP3   OH2 9384   6.864   2.265   1.304
 3148TIP3    H1 9385   6.923   2.335   1.333
 3148TIP3    H2 9386   6.799   2.257   1.374
 3149TIP3   OH2 9387   7.474   2.699   1.554
 3149TIP3    H1 9388   7.430   2.783   1.565
 3149TIP3    H2 9389   7.437   2.644   1.624
 3150TIP3   OH2 9390   7.626   3.244   2.049
 3150TIP3    H1 9391   7.664   3.319   2.003
 3150TIP3    H2 9392   7.699   3.205   2.096
 3151TIP3   OH2 9393   7.262   3.152   1.450
 3151TIP3    H1 9394   7.175   3.157   1.490
 3151TIP3    H2 9395   7.295   3.241   1.453
 3152TIP3   OH2 9396   7.319   2.025   2.580
 3152TIP3    H1 9397   7.223   2.031   2.586
 3152TIP3    H2 9398   7.344   1.969   2.654
 3153TIP3   OH2 9399   7.060   3.129   2.213
 3153TIP3    H1 9400   7.111   3.066   2.264
 3153TIP3    H2 9401   7.075   3.213   2.258
 3154TIP3   OH2 9402   7.328   2.854   0.944
 3154TIP3    H1 9403   7.341   2.778   0.888
 3154TIP3    H2 9404   7.314   2.817   1.031
 3155TIP3   OH2 9405   7.280   2.767   1.204
 3155TIP3    H1 9406   7.349   2.727   1.258
 3155TIP3    H2 9407   7.287   2.861   1.222
 3156TIP3   OH2 9408   7.008   2.490   1.395
 3156TIP3    H1 9409   6.937   2.530   1.447
 3156TIP3    H2 9410   7.025   2.553   1.325
 3157TIP3   OH2 9411   7.550   2.979   1.143
 3157TIP3    H1 9412   7.459   2.992   1.170
 3157TIP3    H2 9413   7.569   3.053   1.086
 3158TIP3   OH2 9414   7.290   3.040   1.204
 3158TIP3    H1 9415   7.263   3.104   1.139
 3158TIP3    H2 9416   7.277   3.083   1.289
 3159TIP3   OH2 9417   7.409   1.756   1.508
 3159TIP3    H1 9418   7.392   1.843   1.543
 3159TIP3    H2 9419   7.503   1.743   1.519
 3160TIP3   OH2 9420   7.002   2.691   1.203
 3160TIP3    H1 9421   7.067   2.756   1.230
 3160TIP3    H2 9422   7.040   2.653   1.123
 3161TIP3   OH2 9423   6.963   1.992   1.386
 3161TIP3    H1 9424   7.014   2.043   1.323
 3161TIP3    H2 9425   6.902   2.055   1.424
 3162TIP3   OH2 9426   7.321   1.646   2.177
 3162TIP3    H1 9427   7.297   1.612   2.091
 3162TIP3    H2 9428   7.320   1.568   2.234
 3163TIP3   OH2 9429   6.861   2.900   1.570
 3163TIP3    H1 9430   6.816   2.937   1.646
 3163TIP3    H2 9431   6.820   2.942   1.494
 3164TIP3   OH2 9432   7.056   3.435   2.635
 3164TIP3    H1 9433   7.139   3.440   2.684
 3164TIP3    H2 9434   7.038   3.342   2.627
 3165TIP3   OH2 9435   7.520   3.356   2.672
 3165TIP3    H1 9436   7.610   3.325   2.684
 3165TIP3    H2 9437   7.485   3.302   2.601
 3166TIP3   OH2 9438   7.550   2.954   0.812
 3166TIP3    H1 9439   7.468   2.930   0.855
 3166TIP3    H2 9440   7.614   2.891   0.845
 3167TIP3   OH2 9441   7.165   2.829   2.827
 3167TIP3    H1 9442   7.183   2.736   2.835
 3167TIP3    H2 9443   7.078   2.833   2.785
 3168TIP3   OH2 9444   7.131   2.555   1.010
 3168TIP3    H1 9445   7.192   2.538   1.081
 3168TIP3    H2 9446   7.178   2.527   0.931
 3169TIP3   OH2 9447   7.814   2.918   2.590
 3169TIP3    H1 9448   7.749   2.938   2.522
 3169TIP3    H2 9449   7.822   2.823   2.588
 3170TIP3   OH2 9450   7.719   2.767   0.910
 3170TIP3    H1 9451   7.718   2.759   1.006
 3170TIP3    H2 9452   7.793   2.713   0.882
 3171TIP3   OH2 9453   7.284   2.572   2.831
 3171TIP3    H1 9454   7.363   2.553   2.781
 3171TIP3    H2 9455   7.315   2.596   2.918
 3172TIP3   OH2 9456   7.264   2.454   1.237
 3172TIP3    H1 9457   7.207   2.435   1.311
 3172TIP3    H2 9458   7.352   2.436   1.269
 3173TIP3   OH2 9459   7.634   2.465   2.481
 3173TIP3    H1 9460   7.549   2.507   2.488
 3173TIP3    H2 9461   7.666   2.489   2.394
 3174TIP3   OH2 9462   7.403   2.111   1.173
 3174TIP3    H1 9463   7.356   2.163   1.107
 3174TIP3    H2 9464   7.486   2.158   1.184
 3175TIP3   OH2 9465   7.727   2.235   2.600
 3175TIP3    H1 9466   7.733   2.159   2.541
 3175TIP3    H2 9467   7.690   2.304   2.545
 3176TIP3   OH2 9468   7.743   2.027   2.411
 3176TIP3    H1 9469   7.772   2.059   2.326
 3176TIP3    H2 9470   7.654   1.997   2.396
 3177TIP3   OH2 9471   7.759   2.533   2.245
 3177TIP3    H1 9472   7.838   2.542   2.192
 3177TIP3    H2 9473   7.704   2.607   2.219
 3178TIP3   OH2 9474   7.627   2.315   2.845
 3178TIP3    H1 9475   7.557   2.254   2.864
 3178TIP3    H2 9476   7.655   2.293   2.756
 3179TIP3   OH2 9477   7.870   1.778   2.491
 3179TIP3    H1 9478   7.832   1.864   2.470
 3179TIP3    H2 9479   7.797   1.717   2.480
 3180TIP3   OH2 9480   7.962   2.344   2.701
 3180TIP3    H1 9481   7.965   2.302   2.786
 3180TIP3    H2 9482   7.889   2.302   2.656
 3181TIP3   OH2 9483   7.457   2.102   2.905
 3181TIP3    H1 9484   7.465   2.013   2.870
 3181TIP3    H2 9485   7.490   2.096   2.994
 3182TIP3   OH2 9486   7.939   1.939   2.905
 3182TIP3    H1 9487   8.002   1.930   2.834
 3182TIP3    H2 9488   7.922   2.033   2.911
 3183TIP3   OH2 9489   7.272   3.240   1.012
 3183TIP3    H1 9490   7.364   3.226   0.989
 3183TIP3    H2 9491   7.239   3.296   0.942
 3184TIP3   OH2 9492   6.734   2.645   1.207
 3184TIP3    H1 9493   6.828   2.663   1.206
 3184TIP3    H2 9494   6.727   2.556   1.173
 3185TIP3   OH2 9495   6.663   3.216   1.647
 3185TIP3    H1 9496   6.598   3.162   1.603
 3185TIP3    H2 9497   6.707   3.155   1.708
 3186TIP3   OH2 9498   6.803   3.049   1.818
 3186TIP3    H1 9499   6.792   2.981   1.885
 3186TIP3    H2 9500   6.854   3.117   1.862
 3187TIP3   OH2 9501   6.979   2.476   2.191
 3187TIP3    H1 9502   6.973   2.446   2.100
 3187TIP3    H2 9503   7.073   2.478   2.209
 3188TIP3   OH2 9504   7.195   2.160   2.847
 3188TIP3    H1 9505   7.289   2.157   2.861
 3188TIP3    H2 9506   7.162   2.079   2.886
 3189TIP3   OH2 9507   7.162   1.870   2.202
 3189TIP3    H1 9508   7.215   1.791   2.203
 3189TIP3    H2 9509   7.225   1.941   2.187
 3190TIP3   OH2 9510   6.954   2.139   2.257
 3190TIP3    H1 9511   7.004   2.127   2.176
 3190TIP3    H2 9512   6.976   2.227   2.287
 3191TIP3   OH2 9513   6.926   1.662   1.793
 3191TIP3    H1 9514   6.835   1.651   1.820
 3191TIP3    H2 9515   6.921   1.702   1.706
 3192TIP3   OH2 9516   7.165   1.703   2.578
 3192TIP3    H1 9517   7.117   1.703   2.661
 3192TIP3    H2 9518   7.109   1.751   2.517
 3193TIP3   OH2 9519   7.198   3.152   2.650
 3193TIP3    H1 9520   7.105   3.134   2.643
 3193TIP3    H2 9521   7.218   3.143   2.743
 3194TIP3   OH2 9522   7.401   3.199   2.201
 3194TIP3    H1 9523   7.347   3.271   2.168
 3194TIP3    H2 9524   7.485   3.210   2.156
 3195TIP3   OH2 9525   7.807   3.426   2.347
 3195TIP3    H1 9526   7.861   3.415   2.426
 3195TIP3    H2 9527   7.861   3.479   2.289
 3196TIP3   OH2 9528   7.979   3.554   2.175
 3196TIP3    H1 9529   8.022   3.472   2.152
 3196TIP3    H2 9530   8.047   3.606   2.218
 3197TIP3   OH2 9531   7.064   3.445   2.248
 3197TIP3    H1 9532   6.972   3.463   2.225
 3197TIP3    H2 9533   7.085   3.510   2.314
 3198TIP3   OH2 9534   7.289   3.426   2.093
 3198TIP3    H1 9535   7.207   3.434   2.141
 3198TIP3    H2 9536   7.268   3.455   2.004
 3199TIP3   OH2 9537   7.703   3.456   1.882
 3199TIP3    H1 9538   7.626   3.469   1.827
 3199TIP3    H2 9539   7.716   3.541   1.925
 3200TIP3   OH2 9540   7.933   3.317   1.846
 3200TIP3    H1 9541   7.855   3.370   1.864
 3200TIP3    H2 9542   8.006   3.371   1.877
 3201TIP3   OH2 9543   6.977   3.226   1.965
 3201TIP3    H1 9544   6.999   3.200   2.054
 3201TIP3    H2 9545   7.049   3.193   1.911
 3202TIP3   OH2 9546   7.178   3.110   1.824
 3202TIP3    H1 9547   7.188   3.029   1.874
 3202TIP3    H2 9548   7.265   3.151   1.827
 3203TIP3   OH2 9549   7.445   3.198   1.842
 3203TIP3    H1 9550   7.461   3.104   1.831
 3203TIP3    H2 9551   7.497   3.222   1.919
 3204TIP3   OH2 9552   7.248   1.539   1.933
 3204TIP3    H1 9553   7.158   1.507   1.942
 3204TIP3    H2 9554   7.302   1.460   1.927
 3205TIP3   OH2 9555   7.022   1.443   1.655
 3205TIP3    H1 9556   7.071   1.502   1.597
 3205TIP3    H2 9557   6.985   1.501   1.722
 3206TIP3   OH2 9558   7.606   1.669   1.767
 3206TIP3    H1 9559   7.658   1.681   1.687
 3206TIP3    H2 9560   7.671   1.672   1.837
 3207TIP3   OH2 9561   6.748   3.020   1.350
 3207TIP3    H1 9562   6.663   2.987   1.320
 3207TIP3    H2 9563   6.749   3.112   1.323
 3208TIP3   OH2 9564   7.183   1.599   1.502
 3208TIP3    H1 9565   7.224   1.513   1.487
 3208TIP3    H2 9566   7.256   1.658   1.519
 3209TIP3   OH2 9567   7.537   3.192   0.955
 3209TIP3    H1 9568   7.624   3.227   0.935
 3209TIP3    H2 9569   7.526   3.119   0.894
 3210TIP3   OH2 9570   7.455   1.826   2.810
 3210TIP3    H1 9571   7.419   1.757   2.866
 3210TIP3    H2 9572   7.546   1.836   2.840
 3211TIP3   OH2 9573   7.685   1.850   2.957
 3211TIP3    H1 9574   7.777   1.867   2.935
 3211TIP3    H2 9575   7.687   1.774   3.014
 3212TIP3   OH2 9576   6.825   3.035   1.021
 3212TIP3    H1 9577   6.823   3.053   1.115
 3212TIP3    H2 9578   6.910   2.993   1.006
 3213TIP3   OH2 9579   0.405   3.379   3.184
 3213TIP3    H1 9580   0.374   3.467   3.159
 3213TIP3    H2 9581   0.332   3.321   3.162
 3214TIP3   OH2 9582   0.409   3.360   3.590
 3214TIP3    H1 9583   0.449   3.343   3.676
 3214TIP3    H2 9584   0.363   3.279   3.570
 3215TIP3   OH2 9585   8.333   3.130   3.870
 3215TIP3    H1 9586   8.339   3.070   3.945
 3215TIP3    H2 9587   8.334   3.217   3.909
 3216TIP3   OH2 9588   0.624   3.671   3.290
 3216TIP3    H1 9589   0.632   3.592   3.344
 3216TIP3    H2 9590   0.597   3.740   3.350
 3217TIP3   OH2 9591   8.213   3.598   3.616
 3217TIP3    H1 9592   8.254   3.512   3.604
 3217TIP3    H2 9593   8.279   3.651   3.662
 3218TIP3   OH2 9594   8.053   3.119   3.529
 3218TIP3    H1 9595   8.046   3.063   3.607
 3218TIP3    H2 9596   8.146   3.142   3.525
 3219TIP3   OH2 9597   0.298   4.113   3.272
 3219TIP3    H1 9598   0.332   4.036   3.226
 3219TIP3    H2 9599   0.261   4.079   3.353
 3220TIP3   OH2 9600   0.254   3.598   3.576
 3220TIP3    H1 9601   0.293   3.513   3.557
 3220TIP3    H2 9602   0.327   3.651   3.609
 3221TIP3   OH2 9603   1.232   2.909   3.622
 3221TIP3    H1 9604   1.252   2.990   3.668
 3221TIP3    H2 9605   1.251   2.928   3.530
 3222TIP3   OH2 9606   0.624   3.081   3.645
 3222TIP3    H1 9607   0.656   2.995   3.673
 3222TIP3    H2 9608   0.585   3.065   3.559
 3223TIP3   OH2 9609   8.600   2.746   3.592
 3223TIP3    H1 9610   8.566   2.813   3.533
 3223TIP3    H2 9611   8.553   2.666   3.567
 3224TIP3   OH2 9612   0.667   2.837   3.238
 3224TIP3    H1 9613   0.730   2.828   3.309
 3224TIP3    H2 9614   0.718   2.872   3.165
 3225TIP3   OH2 9615   8.131   2.960   3.759
 3225TIP3    H1 9616   8.203   3.018   3.786
 3225TIP3    H2 9617   8.175   2.885   3.719
 3226TIP3   OH2 9618   0.048   3.131   3.498
 3226TIP3    H1 9619   0.140   3.118   3.522
 3226TIP3    H2 9620   0.018   3.045   3.469
 3227TIP3   OH2 9621   1.295   3.125   3.787
 3227TIP3    H1 9622   1.207   3.162   3.783
 3227TIP3    H2 9623   1.333   3.161   3.867
 3228TIP3   OH2 9624   8.565   2.740   4.044
 3228TIP3    H1 9625   8.507   2.770   3.974
 3228TIP3    H2 9626   8.517   2.761   4.125
 3229TIP3   OH2 9627   0.305   3.597   3.040
 3229TIP3    H1 9628   0.270   3.563   2.958
 3229TIP3    H2 9629   0.245   3.667   3.065
 3230TIP3   OH2 9630   0.128   3.487   3.795
 3230TIP3    H1 9631   0.098   3.540   3.869
 3230TIP3    H2 9632   0.160   3.550   3.731
 3231TIP3   OH2 9633   0.831   2.852   3.453
 3231TIP3    H1 9634   0.788   2.831   3.536
 3231TIP3    H2 9635   0.886   2.928   3.474
 3232TIP3   OH2 9636   8.475   2.853   3.809
 3232TIP3    H1 9637   8.521   2.930   3.841
 3232TIP3    H2 9638   8.535   2.813   3.746
 3233TIP3   OH2 9639   8.454   3.781   3.983
 3233TIP3    H1 9640   8.450   3.781   3.887
 3233TIP3    H2 9641   8.381   3.726   4.010
 3234TIP3   OH2 9642   1.030   2.796   3.787
 3234TIP3    H1 9643   0.944   2.821   3.753
 3234TIP3    H2 9644   1.091   2.825   3.719
 3235TIP3   OH2 9645   0.308   2.426   3.769
 3235TIP3    H1 9646   0.295   2.335   3.795
 3235TIP3    H2 9647   0.238   2.474   3.814
 3236TIP3   OH2 9648   0.412   3.950   3.071
 3236TIP3    H1 9649   0.466   3.871   3.059
 3236TIP3    H2 9650   0.470   4.022   3.048
 3237TIP3   OH2 9651   0.554   3.720   3.025
 3237TIP3    H1 9652   0.477   3.663   3.020
 3237TIP3    H2 9653   0.595   3.697   3.108
 3238TIP3   OH2 9654   0.918   3.822   3.742
 3238TIP3    H1 9655   0.916   3.735   3.702
 3238TIP3    H2 9656   0.891   3.881   3.672
 3239TIP3   OH2 9657   0.241   3.210   3.029
 3239TIP3    H1 9658   0.159   3.256   3.012
 3239TIP3    H2 9659   0.288   3.214   2.946
 3240TIP3   OH2 9660   0.203   3.031   2.739
 3240TIP3    H1 9661   0.276   3.074   2.782
 3240TIP3    H2 9662   0.243   2.961   2.688
 3241TIP3   OH2 9663   1.119   3.456   3.617
 3241TIP3    H1 9664   1.037   3.505   3.618
 3241TIP3    H2 9665   1.160   3.480   3.534
 3242TIP3   OH2 9666   0.587   3.305   2.995
 3242TIP3    H1 9667   0.533   3.335   3.068
 3242TIP3    H2 9668   0.670   3.279   3.036
 3243TIP3   OH2 9669   0.813   3.327   3.928
 3243TIP3    H1 9670   0.814   3.409   3.978
 3243TIP3    H2 9671   0.730   3.328   3.882
 3244TIP3   OH2 9672   8.450   3.252   3.344
 3244TIP3    H1 9673   8.399   3.184   3.299
 3244TIP3    H2 9674   8.517   3.203   3.392
 3245TIP3   OH2 9675  -0.009   3.651   3.501
 3245TIP3    H1 9676  -0.019   3.634   3.407
 3245TIP3    H2 9677   0.084   3.633   3.518
 3246TIP3   OH2 9678  -0.021   3.269   3.729
 3246TIP3    H1 9679   0.003   3.237   3.642
 3246TIP3    H2 9680   0.039   3.342   3.745
 3247TIP3   OH2 9681   0.556   3.898   3.531
 3247TIP3    H1 9682   0.511   3.978   3.557
 3247TIP3    H2 9683   0.525   3.832   3.593
 3248TIP3   OH2 9684   0.111   3.824   4.069
 3248TIP3    H1 9685   0.081   3.881   4.140
 3248TIP3    H2 9686   0.030   3.790   4.030
 3249TIP3   OH2 9687   0.432   3.158   2.826
 3249TIP3    H1 9688   0.488   3.220   2.874
 3249TIP3    H2 9689   0.459   3.169   2.734
 3250TIP3   OH2 9690   8.461   3.337   4.240
 3250TIP3    H1 9691   8.516   3.415   4.246
 3250TIP3    H2 9692   8.380   3.361   4.286
 3251TIP3   OH2 9693   0.156   3.833   3.086
 3251TIP3    H1 9694   0.242   3.877   3.089
 3251TIP3    H2 9695   0.103   3.887   3.028
 3252TIP3   OH2 9696   8.551   3.976   4.230
 3252TIP3    H1 9697   8.509   3.998   4.147
 3252TIP3    H2 9698   8.483   3.932   4.280
 3253TIP3   OH2 9699   0.925   2.395   2.875
 3253TIP3    H1 9700   0.847   2.414   2.927
 3253TIP3    H2 9701   0.937   2.474   2.822
 3254TIP3   OH2 9702   8.275   3.076   3.202
 3254TIP3    H1 9703   8.197   3.127   3.178
 3254TIP3    H2 9704   8.242   3.007   3.259
 3255TIP3   OH2 9705   0.747   3.760   2.427
 3255TIP3    H1 9706   0.745   3.854   2.409
 3255TIP3    H2 9707   0.838   3.734   2.409
 3256TIP3   OH2 9708   1.191   4.149   3.854
 3256TIP3    H1 9709   1.183   4.055   3.872
 3256TIP3    H2 9710   1.105   4.185   3.876
 3257TIP3   OH2 9711   0.305   3.946   3.928
 3257TIP3    H1 9712   0.306   4.035   3.963
 3257TIP3    H2 9713   0.234   3.903   3.975
 3258TIP3   OH2 9714   0.063   4.042   2.911
 3258TIP3    H1 9715   0.028   4.026   2.823
 3258TIP3    H2 9716   0.068   4.138   2.917
 3259TIP3   OH2 9717   0.254   3.981   2.536
 3259TIP3    H1 9718   0.307   3.910   2.500
 3259TIP3    H2 9719   0.289   3.995   2.624
 3260TIP3   OH2 9720   0.316   4.026   2.803
 3260TIP3    H1 9721   0.231   4.017   2.845
 3260TIP3    H2 9722   0.379   3.991   2.867
 3261TIP3   OH2 9723   1.056   3.284   4.101
 3261TIP3    H1 9724   0.975   3.292   4.051
 3261TIP3    H2 9725   1.078   3.191   4.097
 3262TIP3   OH2 9726   0.093   2.542   3.900
 3262TIP3    H1 9727   0.013   2.503   3.866
 3262TIP3    H2 9728   0.064   2.617   3.951
 3263TIP3   OH2 9729   0.600   2.637   4.104
 3263TIP3    H1 9730   0.668   2.614   4.166
 3263TIP3    H2 9731   0.518   2.621   4.151
 3264TIP3   OH2 9732   0.819   3.063   4.016
 3264TIP3    H1 9733   0.777   3.059   4.102
 3264TIP3    H2 9734   0.802   3.152   3.986
 3265TIP3   OH2 9735   0.502   3.145   2.562
 3265TIP3    H1 9736   0.458   3.144   2.477
 3265TIP3    H2 9737   0.580   3.198   2.548
 3266TIP3   OH2 9738   0.214   2.581   2.874
 3266TIP3    H1 9739   0.193   2.574   2.967
 3266TIP3    H2 9740   0.154   2.519   2.832
 3267TIP3   OH2 9741   0.031   3.060   3.897
 3267TIP3    H1 9742  -0.010   3.074   3.982
 3267TIP3    H2 9743   0.009   3.138   3.847
 3268TIP3   OH2 9744   8.486   2.922   3.417
 3268TIP3    H1 9745   8.391   2.909   3.414
 3268TIP3    H2 9746   8.518   2.890   3.333
 3269TIP3   OH2 9747   0.371   3.017   3.168
 3269TIP3    H1 9748   0.321   3.088   3.127
 3269TIP3    H2 9749   0.429   2.985   3.099
 3270TIP3   OH2 9750   0.551   3.273   4.239
 3270TIP3    H1 9751   0.522   3.206   4.301
 3270TIP3    H2 9752   0.643   3.288   4.261
 3271TIP3   OH2 9753   0.527   3.024   3.395
 3271TIP3    H1 9754   0.461   3.050   3.330
 3271TIP3    H2 9755   0.572   2.950   3.356
 3272TIP3   OH2 9756   8.490   3.082   4.123
 3272TIP3    H1 9757   8.446   3.152   4.171
 3272TIP3    H2 9758   8.460   3.001   4.164
 3273TIP3   OH2 9759   7.974   2.664   3.748
 3273TIP3    H1 9760   8.038   2.601   3.782
 3273TIP3    H2 9761   7.935   2.621   3.672
 3274TIP3   OH2 9762   0.552   3.276   3.818
 3274TIP3    H1 9763   0.583   3.213   3.752
 3274TIP3    H2 9764   0.522   3.221   3.890
 3275TIP3   OH2 9765   0.257   2.741   3.492
 3275TIP3    H1 9766   0.177   2.742   3.543
 3275TIP3    H2 9767   0.327   2.726   3.556
 3276TIP3   OH2 9768   8.229   2.850   3.367
 3276TIP3    H1 9769   8.147   2.855   3.416
 3276TIP3    H2 9770   8.247   2.756   3.360
 3277TIP3   OH2 9771   8.531   2.809   3.176
 3277TIP3    H1 9772   8.626   2.819   3.166
 3277TIP3    H2 9773   8.495   2.834   3.091
 3278TIP3   OH2 9774   0.688   2.813   3.691
 3278TIP3    H1 9775   0.671   2.828   3.784
 3278TIP3    H2 9776   0.619   2.752   3.663
 3279TIP3   OH2 9777   8.404   2.847   2.943
 3279TIP3    H1 9778   8.319   2.805   2.924
 3279TIP3    H2 9779   8.435   2.876   2.857
 3280TIP3   OH2 9780   0.886   4.517   3.919
 3280TIP3    H1 9781   0.877   4.562   3.835
 3280TIP3    H2 9782   0.966   4.553   3.957
 3281TIP3   OH2 9783   8.459   3.613   4.268
 3281TIP3    H1 9784   8.528   3.602   4.333
 3281TIP3    H2 9785   8.381   3.634   4.320
 3282TIP3   OH2 9786   0.304   3.085   3.590
 3282TIP3    H1 9787   0.373   3.037   3.543
 3282TIP3    H2 9788   0.304   3.047   3.677
 3283TIP3   OH2 9789   8.412   2.579   3.477
 3283TIP3    H1 9790   8.412   2.492   3.517
 3283TIP3    H2 9791   8.428   2.563   3.384
 3284TIP3   OH2 9792   0.290   2.989   3.853
 3284TIP3    H1 9793   0.202   3.023   3.872
 3284TIP3    H2 9794   0.348   3.040   3.910
 3285TIP3   OH2 9795   8.607   3.346   2.983
 3285TIP3    H1 9796   8.540   3.278   2.980
 3285TIP3    H2 9797   8.601   3.382   3.071
 3286TIP3   OH2 9798   0.886   3.601   3.579
 3286TIP3    H1 9799   0.919   3.650   3.503
 3286TIP3    H2 9800   0.807   3.558   3.547
 3287TIP3   OH2 9801   0.431   2.726   2.797
 3287TIP3    H1 9802   0.352   2.685   2.832
 3287TIP3    H2 9803   0.455   2.792   2.862
 3288TIP3   OH2 9804   0.419   3.688   3.974
 3288TIP3    H1 9805   0.443   3.666   4.064
 3288TIP3    H2 9806   0.373   3.771   3.981
 3289TIP3   OH2 9807   0.528   2.930   2.955
 3289TIP3    H1 9808   0.623   2.933   2.967
 3289TIP3    H2 9809   0.508   3.010   2.906
 3290TIP3   OH2 9810   8.339   3.367   3.564
 3290TIP3    H1 9811   8.373   3.361   3.475
 3290TIP3    H2 9812   8.340   3.277   3.597
 3291TIP3   OH2 9813   0.171   3.493   2.815
 3291TIP3    H1 9814   0.136   3.582   2.805
 3291TIP3    H2 9815   0.107   3.448   2.869
 3292TIP3   OH2 9816   0.324   3.429   4.276
 3292TIP3    H1 9817   0.253   3.372   4.248
 3292TIP3    H2 9818   0.404   3.384   4.249
 3293TIP3   OH2 9819   0.582   3.985   3.858
 3293TIP3    H1 9820   0.489   3.962   3.857
 3293TIP3    H2 9821   0.598   4.018   3.946
 3294TIP3   OH2 9822   0.942   3.022   2.775
 3294TIP3    H1 9823   0.885   2.976   2.712
 3294TIP3    H2 9824   0.946   3.112   2.741
 3295TIP3   OH2 9825   1.170   3.861   3.856
 3295TIP3    H1 9826   1.076   3.862   3.839
 3295TIP3    H2 9827   1.209   3.843   3.770
 3296TIP3   OH2 9828   0.673   3.830   2.695
 3296TIP3    H1 9829   0.643   3.761   2.754
 3296TIP3    H2 9830   0.688   3.785   2.612
 3297TIP3   OH2 9831   0.655   3.463   3.483
 3297TIP3    H1 9832   0.567   3.438   3.510
 3297TIP3    H2 9833   0.693   3.384   3.446
 3298TIP3   OH2 9834   8.458   3.684   3.215
 3298TIP3    H1 9835   8.524   3.747   3.186
 3298TIP3    H2 9836   8.400   3.673   3.139
 3299TIP3   OH2 9837   8.600   3.452   3.235
 3299TIP3    H1 9838   8.543   3.528   3.225
 3299TIP3    H2 9839   8.545   3.385   3.277
 3300TIP3   OH2 9840   0.113   4.015   3.729
 3300TIP3    H1 9841   0.149   4.094   3.689
 3300TIP3    H2 9842   0.182   3.983   3.787
 3301TIP3   OH2 9843   8.229   3.900   3.067
 3301TIP3    H1 9844   8.142   3.926   3.095
 3301TIP3    H2 9845   8.281   3.980   3.069
 3302TIP3   OH2 9846   0.482   3.689   3.706
 3302TIP3    H1 9847   0.456   3.685   3.798
 3302TIP3    H2 9848   0.554   3.627   3.699
 3303TIP3   OH2 9849   0.435   3.569   2.584
 3303TIP3    H1 9850   0.485   3.540   2.661
 3303TIP3    H2 9851   0.349   3.529   2.596
 3304TIP3   OH2 9852   0.727   4.149   3.663
 3304TIP3    H1 9853   0.724   4.077   3.725
 3304TIP3    H2 9854   0.636   4.172   3.647
 3305TIP3   OH2 9855   0.757   4.032   2.389
 3305TIP3    H1 9856   0.783   4.095   2.322
 3305TIP3    H2 9857   0.685   4.075   2.435
 3306TIP3   OH2 9858   8.403   2.856   4.248
 3306TIP3    H1 9859   8.324   2.840   4.197
 3306TIP3    H2 9860   8.391   2.803   4.327
 3307TIP3   OH2 9861   0.606   3.480   2.779
 3307TIP3    H1 9862   0.591   3.433   2.861
 3307TIP3    H2 9863   0.702   3.490   2.774
 3308TIP3   OH2 9864   8.430   3.518   2.568
 3308TIP3    H1 9865   8.431   3.429   2.531
 3308TIP3    H2 9866   8.449   3.506   2.661
 3309TIP3   OH2 9867   8.456   3.528   2.839
 3309TIP3    H1 9868   8.497   3.458   2.890
 3309TIP3    H2 9869   8.415   3.584   2.905
 3310TIP3   OH2 9870   8.087   3.262   3.117
 3310TIP3    H1 9871   8.032   3.314   3.176
 3310TIP3    H2 9872   8.094   3.316   3.038
 3311TIP3   OH2 9873   0.635   2.864   3.953
 3311TIP3    H1 9874   0.710   2.911   3.989
 3311TIP3    H2 9875   0.624   2.788   4.010
 3312TIP3   OH2 9876   0.516   2.628   3.145
 3312TIP3    H1 9877   0.475   2.665   3.067
 3312TIP3    H2 9878   0.564   2.701   3.183
 3313TIP3   OH2 9879   0.085   3.746   2.790
 3313TIP3    H1 9880   0.019   3.766   2.856
 3313TIP3    H2 9881   0.070   3.810   2.721
 3314TIP3   OH2 9882   0.202   2.814   3.233
 3314TIP3    H1 9883   0.259   2.888   3.211
 3314TIP3    H2 9884   0.219   2.798   3.326
 3315TIP3   OH2 9885   0.483   3.106   4.019
 3315TIP3    H1 9886   0.502   3.152   4.101
 3315TIP3    H2 9887   0.530   3.023   4.027
 3316TIP3   OH2 9888   0.343   2.522   3.339
 3316TIP3    H1 9889   0.324   2.600   3.391
 3316TIP3    H2 9890   0.409   2.551   3.275
 3317TIP3   OH2 9891   8.470   3.825   2.943
 3317TIP3    H1 9892   8.437   3.859   2.859
 3317TIP3    H2 9893   8.397   3.836   3.003
 3318TIP3   OH2 9894   8.475   2.540   3.093
 3318TIP3    H1 9895   8.461   2.633   3.109
 3318TIP3    H2 9896   8.570   2.529   3.102
 3319TIP3   OH2 9897   1.083   3.015   4.002
 3319TIP3    H1 9898   0.988   3.020   4.011
 3319TIP3    H2 9899   1.097   2.964   3.922
 3320TIP3   OH2 9900   0.749   3.212   3.391
 3320TIP3    H1 9901   0.672   3.157   3.404
 3320TIP3    H2 9902   0.817   3.172   3.445
 3321TIP3   OH2 9903   8.139   3.418   2.881
 3321TIP3    H1 9904   8.194   3.486   2.920
 3321TIP3    H2 9905   8.196   3.375   2.818
 3322TIP3   OH2 9906   8.456   2.429   3.834
 3322TIP3    H1 9907   8.454   2.393   3.745
 3322TIP3    H2 9908   8.442   2.354   3.891
 3323TIP3   OH2 9909   8.569   4.252   4.290
 3323TIP3    H1 9910   8.622   4.289   4.361
 3323TIP3    H2 9911   8.557   4.160   4.315
 3324TIP3   OH2 9912   8.562   3.749   2.503
 3324TIP3    H1 9913   8.517   3.670   2.535
 3324TIP3    H2 9914   8.642   3.717   2.462
 3325TIP3   OH2 9915   0.617   4.085   4.111
 3325TIP3    H1 9916   0.615   4.011   4.172
 3325TIP3    H2 9917   0.695   4.134   4.135
 3326TIP3   OH2 9918   0.393   3.780   2.414
 3326TIP3    H1 9919   0.425   3.714   2.476
 3326TIP3    H2 9920   0.453   3.774   2.340
 3327TIP3   OH2 9921   8.300   3.281   2.716
 3327TIP3    H1 9922   8.331   3.219   2.782
 3327TIP3    H2 9923   8.347   3.257   2.636
 3328TIP3   OH2 9924   0.256   3.697   4.269
 3328TIP3    H1 9925   0.210   3.705   4.186
 3328TIP3    H2 9926   0.282   3.605   4.272
 3329TIP3   OH2 9927   0.174   3.455   2.545
 3329TIP3    H1 9928   0.162   3.467   2.639
 3329TIP3    H2 9929   0.148   3.365   2.528
 3330TIP3   OH2 9930   0.722   3.730   3.913
 3330TIP3    H1 9931   0.793   3.771   3.863
 3330TIP3    H2 9932   0.648   3.789   3.902
 3331TIP3   OH2 9933   8.446   3.295   4.556
 3331TIP3    H1 9934   8.423   3.258   4.471
 3331TIP3    H2 9935   8.382   3.365   4.570
 3332TIP3   OH2 9936   8.417   3.147   2.950
 3332TIP3    H1 9937   8.370   3.095   3.015
 3332TIP3    H2 9938   8.453   3.082   2.890
 3333TIP3   OH2 9939   0.132   3.250   4.187
 3333TIP3    H1 9940   0.037   3.260   4.179
 3333TIP3    H2 9941   0.166   3.272   4.100
 3334TIP3   OH2 9942   8.533   2.976   2.738
 3334TIP3    H1 9943   8.534   2.946   2.647
 3334TIP3    H2 9944   8.625   2.996   2.758
 3335TIP3   OH2 9945   0.604   3.624   4.271
 3335TIP3    H1 9946   0.674   3.585   4.219
 3335TIP3    H2 9947   0.600   3.571   4.350
 3336TIP3   OH2 9948   0.720   3.280   2.453
 3336TIP3    H1 9949   0.705   3.239   2.368
 3336TIP3    H2 9950   0.694   3.372   2.441
 3337TIP3   OH2 9951   0.217   3.007   4.280
 3337TIP3    H1 9952   0.220   2.937   4.215
 3337TIP3    H2 9953   0.188   3.084   4.231
 3338TIP3   OH2 9954   0.225   2.815   4.077
 3338TIP3    H1 9955   0.254   2.852   3.994
 3338TIP3    H2 9956   0.133   2.794   4.063
 3339TIP3   OH2 9957   0.260   3.313   3.957
 3339TIP3    H1 9958   0.352   3.334   3.941
 3339TIP3    H2 9959   0.212   3.374   3.900
 3340TIP3   OH2 9960   0.815   3.303   4.338
 3340TIP3    H1 9961   0.858   3.218   4.350
 3340TIP3    H2 9962   0.886   3.363   4.316
 3341TIP3   OH2 9963   0.847   3.561   4.081
 3341TIP3    H1 9964   0.792   3.621   4.030
 3341TIP3    H2 9965   0.936   3.577   4.049
 3342TIP3   OH2 9966   0.110   3.123   4.506
 3342TIP3    H1 9967   0.036   3.069   4.534
 3342TIP3    H2 9968   0.135   3.088   4.421
 3343TIP3   OH2 9969   0.337   2.582   4.185
 3343TIP3    H1 9970   0.297   2.661   4.150
 3343TIP3    H2 9971   0.273   2.513   4.170
 3344TIP3   OH2 9972   0.464   3.062   4.391
 3344TIP3    H1 9973   0.456   3.045   4.485
 3344TIP3    H2 9974   0.380   3.036   4.355
 3345TIP3   OH2 9975   0.702   3.010   4.253
 3345TIP3    H1 9976   0.625   3.014   4.310
 3345TIP3    H2 9977   0.774   2.988   4.312
 3346TIP3   OH2 9978   0.936   2.980   4.405
 3346TIP3    H1 9979   0.951   2.886   4.412
 3346TIP3    H2 9980   0.931   3.011   4.495
 3347TIP3   OH2 9981   8.554   2.904   4.602
 3347TIP3    H1 9982   8.558   2.827   4.545
 3347TIP3    H2 9983   8.598   2.877   4.683
 3348TIP3   OH2 9984   0.410   2.565   4.450
 3348TIP3    H1 9985   0.476   2.497   4.441
 3348TIP3    H2 9986   0.374   2.576   4.361
 3349TIP3   OH2 9987   0.501   2.781   4.592
 3349TIP3    H1 9988   0.475   2.708   4.536
 3349TIP3    H2 9989   0.424   2.838   4.596
 3350TIP3   OH2 9990   8.338   4.178   2.680
 3350TIP3    H1 9991   8.369   4.088   2.689
 3350TIP3    H2 9992   8.295   4.181   2.595
 3351TIP3   OH2 9993   0.949   4.256   3.383
 3351TIP3    H1 9994   0.981   4.347   3.383
 3351TIP3    H2 9995   0.996   4.214   3.311
 3352TIP3   OH2 9996   1.052   3.971   4.166
 3352TIP3    H1 9997   0.986   3.979   4.235
 3352TIP3    H2 9998   1.103   4.051   4.173
 3353TIP3   OH2 9999   0.886   3.483   2.782
 3353TIP3    H110000   0.944   3.553   2.752
 3353TIP3    H210001   0.930   3.446   2.858
 3354TIP3   OH210002   1.014   3.343   2.985
 3354TIP3    H110003   0.947   3.304   3.042
 3354TIP3    H210004   1.078   3.380   3.045
 3355TIP3   OH210005   1.052   3.749   3.409
 3355TIP3    H110006   1.107   3.678   3.377
 3355TIP3    H210007   1.072   3.823   3.350
 3356TIP3   OH210008   0.927   3.258   2.631
 3356TIP3    H110009   0.856   3.258   2.567
 3356TIP3    H210010   0.912   3.336   2.685
 3357TIP3   OH210011   0.789   2.918   2.576
 3357TIP3    H110012   0.752   2.961   2.498
 3357TIP3    H210013   0.776   2.824   2.560
 3358TIP3   OH210014   0.814   3.203   3.123
 3358TIP3    H110015   0.821   3.108   3.110
 3358TIP3    H210016   0.796   3.214   3.216
 3359TIP3   OH210017   1.099   3.620   3.984
 3359TIP3    H110018   1.163   3.551   3.965
 3359TIP3    H210019   1.129   3.695   3.933
 3360TIP3   OH210020   1.264   3.402   3.967
 3360TIP3    H110021   1.194   3.361   4.017
 3360TIP3    H210022   1.342   3.351   3.988
 3361TIP3   OH210023   0.756   2.645   2.547
 3361TIP3    H110024   0.828   2.629   2.608
 3361TIP3    H210025   0.683   2.593   2.580
 3362TIP3   OH210026   0.810   2.925   3.009
 3362TIP3    H110027   0.855   2.841   3.021
 3362TIP3    H210028   0.856   2.965   2.935
 3363TIP3   OH210029   0.961   3.087   3.526
 3363TIP3    H110030   1.043   3.106   3.479
 3363TIP3    H210031   0.974   3.126   3.613
 3364TIP3   OH210032   1.033   3.234   3.754
 3364TIP3    H110033   0.961   3.265   3.809
 3364TIP3    H210034   1.066   3.313   3.711
 3365TIP3   OH210035   8.167   2.940   4.503
 3365TIP3    H110036   8.221   2.863   4.485
 3365TIP3    H210037   8.086   2.905   4.538
 3366TIP3   OH210038   1.493   2.839   4.297
 3366TIP3    H110039   1.555   2.778   4.257
 3366TIP3    H210040   1.458   2.889   4.223
 3367TIP3   OH210041   0.920   2.673   3.055
 3367TIP3    H110042   0.967   2.659   3.138
 3367TIP3    H210043   0.857   2.601   3.052
 3368TIP3   OH210044   8.201   2.521   3.848
 3368TIP3    H110045   8.290   2.486   3.845
 3368TIP3    H210046   8.213   2.614   3.866
 3369TIP3   OH210047   1.348   2.961   4.103
 3369TIP3    H110048   1.272   3.002   4.146
 3369TIP3    H210049   1.310   2.894   4.048
 3370TIP3   OH210050   0.984   2.596   2.691
 3370TIP3    H110051   1.034   2.534   2.637
 3370TIP3    H210052   1.041   2.673   2.699
 3371TIP3   OH210053   0.570   4.145   2.966
 3371TIP3    H110054   0.616   4.127   2.884
 3371TIP3    H210055   0.606   4.229   2.996
 3372TIP3   OH210056   8.235   2.473   4.383
 3372TIP3    H110057   8.199   2.395   4.425
 3372TIP3    H210058   8.223   2.457   4.289
 3373TIP3   OH210059   8.443   4.000   3.770
 3373TIP3    H110060   8.412   4.089   3.756
 3373TIP3    H210061   8.539   4.007   3.766
 3374TIP3   OH210062   0.299   4.205   4.017
 3374TIP3    H110063   0.329   4.206   4.108
 3374TIP3    H210064   0.363   4.258   3.970
 3375TIP3   OH210065   0.494   4.361   3.906
 3375TIP3    H110066   0.569   4.302   3.898
 3375TIP3    H210067   0.526   4.432   3.961
 3376TIP3   OH210068   1.253   2.716   3.988
 3376TIP3    H110069   1.167   2.712   3.948
 3376TIP3    H210070   1.286   2.626   3.983
 3377TIP3   OH210071   8.399   4.267   3.771
 3377TIP3    H110072   8.356   4.313   3.843
 3377TIP3    H210073   8.399   4.331   3.699
 3378TIP3   OH210074   0.209   4.216   3.556
 3378TIP3    H110075   0.132   4.232   3.501
 3378TIP3    H210076   0.214   4.292   3.613
 3379TIP3   OH210077   0.477   4.193   3.578
 3379TIP3    H110078   0.382   4.184   3.581
 3379TIP3    H210079   0.492   4.275   3.530
 3380TIP3   OH210080   0.679   4.357   3.438
 3380TIP3    H110081   0.671   4.451   3.454
 3380TIP3    H210082   0.653   4.346   3.346
 3381TIP3   OH210083   7.820   2.303   1.927
 3381TIP3    H110084   7.822   2.285   2.021
 3381TIP3    H210085   7.814   2.216   1.887
 3382TIP3   OH210086   8.570   4.011   3.485
 3382TIP3    H110087   8.490   3.959   3.491
 3382TIP3    H210088   8.620   3.988   3.563
 3383TIP3   OH210089   0.473   2.631   3.628
 3383TIP3    H110090   0.430   2.559   3.674
 3383TIP3    H210091   0.539   2.589   3.574
 3384TIP3   OH210092   0.970   2.540   3.510
 3384TIP3    H110093   1.006   2.591   3.438
 3384TIP3    H210094   0.877   2.563   3.513
 3385TIP3   OH210095   1.082   2.624   3.274
 3385TIP3    H110096   1.151   2.564   3.247
 3385TIP3    H210097   1.119   2.711   3.261
 3386TIP3   OH210098   8.398   2.330   3.587
 3386TIP3    H110099   8.303   2.341   3.583
 3386TIP3    H210100   8.411   2.236   3.600
 3387TIP3   OH210101   0.172   2.385   3.519
 3387TIP3    H110102   0.225   2.428   3.453
 3387TIP3    H210103   0.218   2.401   3.601
 3388TIP3   OH210104   0.683   2.518   3.487
 3388TIP3    H110105   0.693   2.480   3.400
 3388TIP3    H210106   0.684   2.443   3.546
 3389TIP3   OH210107   0.731   2.467   3.062
 3389TIP3    H110108   0.651   2.514   3.085
 3389TIP3    H210109   0.722   2.382   3.105
 3390TIP3   OH210110   0.149   2.563   3.138
 3390TIP3    H110111   0.199   2.509   3.199
 3390TIP3    H210112   0.161   2.652   3.170
 3391TIP3   OH210113  -0.000   3.984   2.650
 3391TIP3    H110114   0.076   4.007   2.597
 3391TIP3    H210115  -0.049   3.921   2.596
 3392TIP3   OH210116   0.707   4.098   2.729
 3392TIP3    H110117   0.699   4.003   2.720
 3392TIP3    H210118   0.664   4.133   2.650
 3393TIP3   OH210119  -0.003   2.584   4.504
 3393TIP3    H110120  -0.014   2.494   4.533
 3393TIP3    H210121   0.077   2.613   4.549
 3394TIP3   OH210122   0.220   2.629   4.657
 3394TIP3    H110123   0.291   2.600   4.600
 3394TIP3    H210124   0.203   2.554   4.714
 3395TIP3   OH210125   1.001   2.709   4.418
 3395TIP3    H110126   1.016   2.679   4.508
 3395TIP3    H210127   1.086   2.703   4.376
 3396TIP3   OH210128   0.932   4.244   3.896
 3396TIP3    H110129   0.855   4.218   3.846
 3396TIP3    H210130   0.919   4.337   3.915
 3397TIP3   OH210131   2.194   3.620   2.666
 3397TIP3    H110132   2.163   3.709   2.648
 3397TIP3    H210133   2.122   3.564   2.639
 3398TIP3   OH210134   2.192   3.620   3.080
 3398TIP3    H110135   2.239   3.606   3.162
 3398TIP3    H210136   2.147   3.537   3.064
 3399TIP3   OH210137   1.487   3.496   3.441
 3399TIP3    H110138   1.521   3.436   3.507
 3399TIP3    H210139   1.565   3.536   3.402
 3400TIP3   OH210140   2.456   3.927   2.758
 3400TIP3    H110141   2.446   3.863   2.829
 3400TIP3    H210142   2.480   4.008   2.802
 3401TIP3   OH210143   1.468   3.905   3.129
 3401TIP3    H110144   1.459   3.810   3.132
 3401TIP3    H210145   1.562   3.920   3.121
 3402TIP3   OH210146   1.172   3.119   2.911
 3402TIP3    H110147   1.134   3.203   2.936
 3402TIP3    H210148   1.099   3.070   2.873
 3403TIP3   OH210149   1.244   3.426   3.125
 3403TIP3    H110150   1.292   3.348   3.153
 3403TIP3    H210151   1.312   3.488   3.099
 3404TIP3   OH210152   2.111   4.366   2.768
 3404TIP3    H110153   2.140   4.299   2.705
 3404TIP3    H210154   2.115   4.322   2.853
 3405TIP3   OH210155   1.997   3.846   3.097
 3405TIP3    H110156   2.040   3.768   3.061
 3405TIP3    H210157   2.069   3.901   3.128
 3406TIP3   OH210158   3.029   3.164   3.108
 3406TIP3    H110159   3.047   3.246   3.154
 3406TIP3    H210160   3.058   3.180   3.018
 3407TIP3   OH210161   2.402   3.332   3.129
 3407TIP3    H110162   2.436   3.246   3.156
 3407TIP3    H210163   2.371   3.318   3.040
 3408TIP3   OH210164   1.761   2.992   3.087
 3408TIP3    H110165   1.740   3.067   3.031
 3408TIP3    H210166   1.704   2.922   3.055
 3409TIP3   OH210167   2.464   3.093   2.727
 3409TIP3    H110168   2.532   3.084   2.794
 3409TIP3    H210169   2.510   3.128   2.651
 3410TIP3   OH210170   1.384   3.206   3.217
 3410TIP3    H110171   1.468   3.190   3.261
 3410TIP3    H210172   1.390   3.155   3.136
 3411TIP3   OH210173   1.813   3.404   3.023
 3411TIP3    H110174   1.906   3.387   3.032
 3411TIP3    H210175   1.777   3.323   2.988
 3412TIP3   OH210176   3.082   3.377   3.282
 3412TIP3    H110177   3.004   3.430   3.266
 3412TIP3    H210178   3.126   3.420   3.356
 3413TIP3   OH210179   1.744   2.993   3.539
 3413TIP3    H110180   1.692   3.030   3.467
 3413TIP3    H210181   1.691   3.007   3.617
 3414TIP3   OH210182   2.064   3.832   2.545
 3414TIP3    H110183   2.041   3.819   2.453
 3414TIP3    H210184   2.025   3.916   2.568
 3415TIP3   OH210185   1.841   3.767   3.312
 3415TIP3    H110186   1.786   3.838   3.347
 3415TIP3    H210187   1.890   3.809   3.241
 3416TIP3   OH210188   2.634   3.088   2.947
 3416TIP3    H110189   2.579   3.085   3.025
 3416TIP3    H210190   2.687   3.167   2.958
 3417TIP3   OH210191   1.631   3.101   3.310
 3417TIP3    H110192   1.684   3.177   3.333
 3417TIP3    H210193   1.678   3.059   3.238
 3418TIP3   OH210194   1.677   3.967   3.413
 3418TIP3    H110195   1.664   4.057   3.382
 3418TIP3    H210196   1.601   3.949   3.468
 3419TIP3   OH210197   1.061   3.669   2.663
 3419TIP3    H110198   1.025   3.686   2.576
 3419TIP3    H210199   1.085   3.755   2.697
 3420TIP3   OH210200   2.499   4.174   2.899
 3420TIP3    H110201   2.412   4.167   2.937
 3420TIP3    H210202   2.499   4.258   2.854
 3421TIP3   OH210203   2.825   3.043   3.262
 3421TIP3    H110204   2.748   3.098   3.248
 3421TIP3    H210205   2.891   3.079   3.203
 3422TIP3   OH210206   2.091   2.689   3.270
 3422TIP3    H110207   2.078   2.597   3.293
 3422TIP3    H210208   2.016   2.735   3.310
 3423TIP3   OH210209   2.204   4.204   2.561
 3423TIP3    H110210   2.254   4.124   2.548
 3423TIP3    H210211   2.262   4.274   2.530
 3424TIP3   OH210212   2.354   3.984   2.506
 3424TIP3    H110213   2.350   3.903   2.455
 3424TIP3    H210214   2.393   3.958   2.590
 3425TIP3   OH210215   2.732   4.070   3.244
 3425TIP3    H110216   2.720   3.996   3.186
 3425TIP3    H210217   2.717   4.147   3.189
 3426TIP3   OH210218   2.019   3.464   2.513
 3426TIP3    H110219   1.940   3.516   2.495
 3426TIP3    H210220   2.069   3.467   2.431
 3427TIP3   OH210221   1.993   3.271   2.214
 3427TIP3    H110222   2.056   3.322   2.264
 3427TIP3    H210223   2.046   3.209   2.163
 3428TIP3   OH210224   2.919   3.716   3.108
 3428TIP3    H110225   2.837   3.766   3.110
 3428TIP3    H210226   2.957   3.736   3.023
 3429TIP3   OH210227   2.380   3.556   2.477
 3429TIP3    H110228   2.325   3.582   2.551
 3429TIP3    H210229   2.464   3.533   2.516
 3430TIP3   OH210230   2.606   3.584   3.411
 3430TIP3    H110231   2.610   3.668   3.457
 3430TIP3    H210232   2.522   3.586   3.365
 3431TIP3   OH210233   1.606   3.539   2.887
 3431TIP3    H110234   1.572   3.480   2.820
 3431TIP3    H210235   1.682   3.493   2.923
 3432TIP3   OH210236   1.734   3.959   3.028
 3432TIP3    H110237   1.715   3.945   2.936
 3432TIP3    H210238   1.822   3.925   3.040
 3433TIP3   OH210239   1.713   3.533   3.251
 3433TIP3    H110240   1.752   3.499   3.170
 3433TIP3    H210241   1.762   3.613   3.269
 3434TIP3   OH210242   2.260   4.164   3.030
 3434TIP3    H110243   2.249   4.246   3.080
 3434TIP3    H210244   2.246   4.095   3.095
 3435TIP3   OH210245   1.882   4.067   3.573
 3435TIP3    H110246   1.826   4.128   3.622
 3435TIP3    H210247   1.821   4.016   3.520
 3436TIP3   OH210248   2.212   3.416   2.311
 3436TIP3    H110249   2.272   3.473   2.360
 3436TIP3    H210250   2.239   3.426   2.219
 3437TIP3   OH210251   1.645   3.630   3.697
 3437TIP3    H110252   1.650   3.721   3.728
 3437TIP3    H210253   1.552   3.610   3.695
 3438TIP3   OH210254   1.954   4.089   2.568
 3438TIP3    H110255   2.039   4.132   2.574
 3438TIP3    H210256   1.899   4.152   2.520
 3439TIP3   OH210257   1.677   4.232   3.656
 3439TIP3    H110258   1.647   4.241   3.566
 3439TIP3    H210259   1.597   4.219   3.708
 3440TIP3   OH210260   2.730   2.646   2.370
 3440TIP3    H110261   2.651   2.669   2.417
 3440TIP3    H210262   2.747   2.721   2.312
 3441TIP3   OH210263   1.482   3.383   2.683
 3441TIP3    H110264   1.408   3.432   2.647
 3441TIP3    H210265   1.446   3.297   2.704
 3442TIP3   OH210266   2.543   4.021   1.914
 3442TIP3    H110267   2.542   4.114   1.896
 3442TIP3    H210268   2.632   3.993   1.894
 3443TIP3   OH210269   1.261   3.776   3.613
 3443TIP3    H110270   1.197   3.750   3.547
 3443TIP3    H210271   1.300   3.694   3.643
 3444TIP3   OH210272   1.161   3.967   3.254
 3444TIP3    H110273   1.237   3.935   3.207
 3444TIP3    H210274   1.196   4.033   3.314
 3445TIP3   OH210275   2.971   4.427   3.312
 3445TIP3    H110276   2.973   4.332   3.325
 3445TIP3    H210277   2.888   4.455   3.351
 3446TIP3   OH210278   2.068   4.212   3.433
 3446TIP3    H110279   2.064   4.302   3.463
 3446TIP3    H210280   2.003   4.166   3.485
 3447TIP3   OH210281   1.847   4.313   2.394
 3447TIP3    H110282   1.805   4.296   2.310
 3447TIP3    H210283   1.813   4.399   2.421
 3448TIP3   OH210284   1.281   4.169   2.773
 3448TIP3    H110285   1.326   4.162   2.857
 3448TIP3    H210286   1.233   4.087   2.763
 3449TIP3   OH210287   2.049   4.240   2.019
 3449TIP3    H110288   2.101   4.168   1.984
 3449TIP3    H210289   2.085   4.255   2.107
 3450TIP3   OH210290   2.101   4.288   2.289
 3450TIP3    H110291   2.017   4.290   2.334
 3450TIP3    H210292   2.164   4.258   2.355
 3451TIP3   OH210293   2.858   3.547   3.593
 3451TIP3    H110294   2.773   3.556   3.549
 3451TIP3    H210295   2.874   3.453   3.595
 3452TIP3   OH210296   1.458   3.967   3.581
 3452TIP3    H110297   1.509   3.962   3.662
 3452TIP3    H210298   1.388   3.903   3.593
 3453TIP3   OH210299   1.852   2.782   3.390
 3453TIP3    H110300   1.767   2.749   3.359
 3453TIP3    H210301   1.830   2.861   3.438
 3454TIP3   OH210302   2.401   2.874   3.588
 3454TIP3    H110303   2.468   2.861   3.655
 3454TIP3    H210304   2.318   2.868   3.635
 3455TIP3   OH210305   2.613   3.320   3.494
 3455TIP3    H110306   2.572   3.315   3.581
 3455TIP3    H210307   2.598   3.410   3.465
 3456TIP3   OH210308   2.293   3.422   2.052
 3456TIP3    H110309   2.248   3.421   1.968
 3456TIP3    H210310   2.377   3.464   2.033
 3457TIP3   OH210311   1.996   2.822   2.357
 3457TIP3    H110312   1.962   2.828   2.447
 3457TIP3    H210313   1.960   2.740   2.323
 3458TIP3   OH210314   1.786   3.310   3.398
 3458TIP3    H110315   1.742   3.321   3.483
 3458TIP3    H210316   1.764   3.391   3.351
 3459TIP3   OH210317   1.671   3.189   2.919
 3459TIP3    H110318   1.581   3.167   2.944
 3459TIP3    H210319   1.680   3.154   2.830
 3460TIP3   OH210320   2.152   3.262   2.644
 3460TIP3    H110321   2.103   3.334   2.606
 3460TIP3    H210322   2.211   3.233   2.575
 3461TIP3   OH210323   2.337   3.536   3.726
 3461TIP3    H110324   2.310   3.470   3.789
 3461TIP3    H210325   2.428   3.556   3.747
 3462TIP3   OH210326   2.316   3.282   2.875
 3462TIP3    H110327   2.249   3.311   2.813
 3462TIP3    H210328   2.360   3.209   2.831
 3463TIP3   OH210329   1.619   3.322   3.620
 3463TIP3    H110330   1.652   3.382   3.687
 3463TIP3    H210331   1.602   3.241   3.667
 3464TIP3   OH210332   1.658   2.800   2.333
 3464TIP3    H110333   1.651   2.806   2.428
 3464TIP3    H210334   1.586   2.854   2.300
 3465TIP3   OH210335   1.213   2.846   3.197
 3465TIP3    H110336   1.281   2.882   3.253
 3465TIP3    H210337   1.257   2.827   3.115
 3466TIP3   OH210338   1.134   2.829   2.712
 3466TIP3    H110339   1.177   2.864   2.634
 3466TIP3    H210340   1.073   2.897   2.739
 3467TIP3   OH210341   2.345   3.532   3.303
 3467TIP3    H110342   2.371   3.465   3.240
 3467TIP3    H210343   2.306   3.484   3.376
 3468TIP3   OH210344   2.023   2.980   2.975
 3468TIP3    H110345   1.943   2.984   3.026
 3468TIP3    H210346   2.093   2.985   3.040
 3469TIP3   OH210347   1.432   3.066   2.984
 3469TIP3    H110348   1.343   3.071   2.949
 3469TIP3    H210349   1.460   2.976   2.966
 3470TIP3   OH210350   1.687   3.063   2.676
 3470TIP3    H110351   1.781   3.076   2.663
 3470TIP3    H210352   1.648   3.083   2.591
 3471TIP3   OH210353   2.471   3.064   3.167
 3471TIP3    H110354   2.466   3.077   3.262
 3471TIP3    H210355   2.396   3.008   3.147
 3472TIP3   OH210356   1.566   3.091   2.434
 3472TIP3    H110357   1.500   3.048   2.380
 3472TIP3    H210358   1.621   3.138   2.371
 3473TIP3   OH210359   2.677   4.772   3.402
 3473TIP3    H110360   2.673   4.788   3.308
 3473TIP3    H210361   2.755   4.818   3.432
 3474TIP3   OH210362   1.617   3.885   3.814
 3474TIP3    H110363   1.698   3.913   3.858
 3474TIP3    H210364   1.550   3.891   3.881
 3475TIP3   OH210365   2.081   3.343   3.082
 3475TIP3    H110366   2.156   3.303   3.038
 3475TIP3    H210367   2.082   3.306   3.170
 3476TIP3   OH210368   1.575   2.818   2.965
 3476TIP3    H110369   1.547   2.742   3.016
 3476TIP3    H210370   1.601   2.782   2.880
 3477TIP3   OH210371   2.057   3.253   3.354
 3477TIP3    H110372   1.970   3.287   3.372
 3477TIP3    H210373   2.116   3.307   3.407
 3478TIP3   OH210374   1.787   3.611   2.456
 3478TIP3    H110375   1.713   3.555   2.436
 3478TIP3    H210376   1.765   3.651   2.541
 3479TIP3   OH210377   2.687   3.862   3.067
 3479TIP3    H110378   2.722   3.912   2.994
 3479TIP3    H210379   2.605   3.825   3.034
 3480TIP3   OH210380   2.252   2.919   2.366
 3480TIP3    H110381   2.158   2.902   2.355
 3480TIP3    H210382   2.259   3.014   2.369
 3481TIP3   OH210383   2.191   3.938   3.477
 3481TIP3    H110384   2.239   3.928   3.559
 3481TIP3    H210385   2.151   4.025   3.483
 3482TIP3   OH210386   2.318   3.185   2.430
 3482TIP3    H110387   2.413   3.191   2.439
 3482TIP3    H210388   2.294   3.261   2.378
 3483TIP3   OH210389   1.474   3.617   3.117
 3483TIP3    H110390   1.513   3.602   3.031
 3483TIP3    H210391   1.541   3.587   3.179
 3484TIP3   OH210392   1.941   3.769   2.294
 3484TIP3    H110393   1.894   3.853   2.294
 3484TIP3    H210394   1.888   3.712   2.350
 3485TIP3   OH210395   1.377   3.568   3.759
 3485TIP3    H110396   1.416   3.572   3.846
 3485TIP3    H210397   1.314   3.497   3.763
 3486TIP3   OH210398   2.102   3.690   3.758
 3486TIP3    H110399   2.037   3.626   3.727
 3486TIP3    H210400   2.186   3.651   3.735
 3487TIP3   OH210401   2.340   4.220   3.358
 3487TIP3    H110402   2.245   4.211   3.365
 3487TIP3    H210403   2.367   4.263   3.440
 3488TIP3   OH210404   2.734   3.277   2.258
 3488TIP3    H110405   2.678   3.232   2.196
 3488TIP3    H210406   2.740   3.367   2.223
 3489TIP3   OH210407   2.980   4.139   3.338
 3489TIP3    H110408   2.885   4.131   3.328
 3489TIP3    H210409   3.015   4.116   3.252
 3490TIP3   OH210410   2.460   4.095   2.175
 3490TIP3    H110411   2.440   4.022   2.234
 3490TIP3    H210412   2.483   4.052   2.092
 3491TIP3   OH210413   2.451   3.730   2.969
 3491TIP3    H110414   2.360   3.709   2.993
 3491TIP3    H210415   2.485   3.649   2.931
 3492TIP3   OH210416   1.603   3.963   2.773
 3492TIP3    H110417   1.607   4.040   2.717
 3492TIP3    H210418   1.510   3.947   2.786
 3493TIP3   OH210419   1.161   3.250   2.484
 3493TIP3    H110420   1.206   3.332   2.504
 3493TIP3    H210421   1.082   3.252   2.539
 3494TIP3   OH210422   1.695   3.715   2.688
 3494TIP3    H110423   1.680   3.806   2.714
 3494TIP3    H210424   1.668   3.663   2.764
 3495TIP3   OH210425   1.880   4.286   3.229
 3495TIP3    H110426   1.918   4.359   3.180
 3495TIP3    H210427   1.953   4.253   3.282
 3496TIP3   OH210428   1.514   4.189   2.622
 3496TIP3    H110429   1.428   4.195   2.664
 3496TIP3    H210430   1.549   4.278   2.626
 3497TIP3   OH210431   2.238   3.942   3.205
 3497TIP3    H110432   2.223   3.938   3.299
 3497TIP3    H210433   2.324   3.902   3.191
 3498TIP3   OH210434   2.231   3.826   2.082
 3498TIP3    H110435   2.281   3.808   2.161
 3498TIP3    H210436   2.143   3.792   2.101
 3499TIP3   OH210437   2.490   4.453   3.241
 3499TIP3    H110438   2.416   4.392   3.247
 3499TIP3    H210439   2.468   4.511   3.169
 3500TIP3   OH210440   2.553   4.296   1.884
 3500TIP3    H110441   2.593   4.367   1.833
 3500TIP3    H210442   2.477   4.336   1.925
 3501TIP3   OH210443   1.575   3.069   3.748
 3501TIP3    H110444   1.480   3.077   3.756
 3501TIP3    H210445   1.603   3.026   3.828
 3502TIP3   OH210446   2.399   3.766   2.297
 3502TIP3    H110447   2.385   3.694   2.357
 3502TIP3    H210448   2.494   3.764   2.279
 3503TIP3   OH210449   1.298   4.162   3.407
 3503TIP3    H110450   1.355   4.104   3.457
 3503TIP3    H210451   1.314   4.249   3.445
 3504TIP3   OH210452   1.581   3.794   2.082
 3504TIP3    H110453   1.595   3.702   2.056
 3504TIP3    H210454   1.565   3.790   2.176
 3505TIP3   OH210455   1.526   3.809   2.354
 3505TIP3    H110456   1.600   3.782   2.410
 3505TIP3    H210457   1.525   3.904   2.360
 3506TIP3   OH210458   1.259   3.500   2.563
 3506TIP3    H110459   1.195   3.547   2.616
 3506TIP3    H210460   1.280   3.560   2.491
 3507TIP3   OH210461   2.445   3.103   3.431
 3507TIP3    H110462   2.506   3.165   3.472
 3507TIP3    H210463   2.432   3.036   3.498
 3508TIP3   OH210464   2.310   2.878   2.633
 3508TIP3    H110465   2.287   2.894   2.541
 3508TIP3    H210466   2.353   2.959   2.661
 3509TIP3   OH210467   1.793   3.996   2.295
 3509TIP3    H110468   1.709   4.022   2.332
 3509TIP3    H210469   1.819   4.071   2.241
 3510TIP3   OH210470   1.968   3.070   2.715
 3510TIP3    H110471   2.030   3.138   2.689
 3510TIP3    H210472   1.986   3.056   2.808
 3511TIP3   OH210473   2.261   3.372   3.512
 3511TIP3    H110474   2.278   3.431   3.585
 3511TIP3    H210475   2.310   3.293   3.534
 3512TIP3   OH210476   2.125   2.777   2.811
 3512TIP3    H110477   2.097   2.853   2.862
 3512TIP3    H210478   2.189   2.812   2.749
 3513TIP3   OH210479   1.541   4.081   2.370
 3513TIP3    H110480   1.520   4.151   2.308
 3513TIP3    H210481   1.530   4.122   2.456
 3514TIP3   OH210482   1.640   2.792   2.614
 3514TIP3    H110483   1.630   2.883   2.642
 3514TIP3    H210484   1.734   2.776   2.617
 3515TIP3   OH210485   2.882   3.279   3.496
 3515TIP3    H110486   2.786   3.277   3.493
 3515TIP3    H210487   2.908   3.288   3.404
 3516TIP3   OH210488   2.543   3.470   2.878
 3516TIP3    H110489   2.464   3.417   2.891
 3516TIP3    H210490   2.610   3.428   2.932
 3517TIP3   OH210491   1.276   3.684   2.351
 3517TIP3    H110492   1.345   3.750   2.361
 3517TIP3    H210493   1.312   3.622   2.287
 3518TIP3   OH210494   1.189   2.972   2.486
 3518TIP3    H110495   1.200   3.067   2.491
 3518TIP3    H210496   1.126   2.959   2.414
 3519TIP3   OH210497   2.518   4.442   2.815
 3519TIP3    H110498   2.472   4.489   2.746
 3519TIP3    H210499   2.611   4.464   2.802
 3520TIP3   OH210500   1.591   2.693   3.350
 3520TIP3    H110501   1.560   2.661   3.265
 3520TIP3    H210502   1.581   2.618   3.409
 3521TIP3   OH210503   1.110   3.941   2.742
 3521TIP3    H110504   1.057   3.974   2.815
 3521TIP3    H210505   1.074   3.983   2.664
 3522TIP3   OH210506   1.310   4.479   3.812
 3522TIP3    H110507   1.390   4.488   3.865
 3522TIP3    H210508   1.299   4.384   3.802
 3523TIP3   OH210509   1.768   4.417   3.844
 3523TIP3    H110510   1.855   4.391   3.875
 3523TIP3    H210511   1.747   4.353   3.776
 3524TIP3   OH210512   1.738   3.998   1.979
 3524TIP3    H110513   1.692   3.925   2.021
 3524TIP3    H210514   1.814   3.957   1.937
 3525TIP3   OH210515   2.399   4.332   3.602
 3525TIP3    H110516   2.407   4.264   3.669
 3525TIP3    H210517   2.474   4.390   3.619
 3526TIP3   OH210518   2.182   4.031   1.900
 3526TIP3    H110519   2.219   3.968   1.962
 3526TIP3    H210520   2.241   4.028   1.825
 3527TIP3   OH210521   1.411   3.874   4.002
 3527TIP3    H110522   1.433   3.783   4.022
 3527TIP3    H210523   1.323   3.869   3.965
 3528TIP3   OH210524   1.407   3.493   2.207
 3528TIP3    H110525   1.459   3.470   2.284
 3528TIP3    H210526   1.472   3.505   2.137
 3529TIP3   OH210527   2.038   3.964   3.777
 3529TIP3    H110528   1.992   3.982   3.695
 3529TIP3    H210529   2.068   3.874   3.768
 3530TIP3   OH210530   1.949   3.710   2.027
 3530TIP3    H110531   1.936   3.724   2.121
 3530TIP3    H210532   1.939   3.616   2.014
 3531TIP3   OH210533   2.507   3.994   3.385
 3531TIP3    H110534   2.585   4.027   3.342
 3531TIP3    H210535   2.442   4.064   3.375
 3532TIP3   OH210536   1.535   3.604   3.994
 3532TIP3    H110537   1.620   3.589   3.952
 3532TIP3    H210538   1.556   3.633   4.082
 3533TIP3   OH210539   1.581   3.428   2.415
 3533TIP3    H110540   1.562   3.397   2.504
 3533TIP3    H210541   1.630   3.357   2.374
 3534TIP3   OH210542   1.883   3.493   3.652
 3534TIP3    H110543   1.806   3.549   3.665
 3534TIP3    H210544   1.925   3.527   3.573
 3535TIP3   OH210545   1.719   3.239   2.262
 3535TIP3    H110546   1.689   3.245   2.172
 3535TIP3    H210547   1.814   3.246   2.256
 3536TIP3   OH210548   2.387   3.885   3.763
 3536TIP3    H110549   2.465   3.852   3.718
 3536TIP3    H210550   2.383   3.834   3.844
 3537TIP3   OH210551   2.518   3.537   1.937
 3537TIP3    H110552   2.503   3.494   1.853
 3537TIP3    H210553   2.492   3.628   1.923
 3538TIP3   OH210554   1.997   3.276   3.774
 3538TIP3    H110555   2.002   3.203   3.712
 3538TIP3    H210556   1.960   3.348   3.723
 3539TIP3   OH210557   2.006   3.071   3.573
 3539TIP3    H110558   2.031   3.115   3.492
 3539TIP3    H210559   1.914   3.048   3.561
 3540TIP3   OH210560   2.019   3.604   3.444
 3540TIP3    H110561   2.105   3.643   3.434
 3540TIP3    H210562   1.960   3.665   3.400
 3541TIP3   OH210563   2.604   3.567   3.827
 3541TIP3    H110564   2.653   3.490   3.855
 3541TIP3    H210565   2.671   3.633   3.811
 3542TIP3   OH210566   2.641   3.824   3.550
 3542TIP3    H110567   2.583   3.883   3.501
 3542TIP3    H210568   2.729   3.845   3.518
 3543TIP3   OH210569   1.871   3.369   4.007
 3543TIP3    H110570   1.805   3.303   4.030
 3543TIP3    H210571   1.906   3.339   3.923
 3544TIP3   OH210572   2.129   2.835   3.663
 3544TIP3    H110573   2.089   2.917   3.635
 3544TIP3    H210574   2.059   2.770   3.655
 3545TIP3   OH210575   2.256   3.320   3.874
 3545TIP3    H110576   2.253   3.314   3.969
 3545TIP3    H210577   2.167   3.300   3.845
 3546TIP3   OH210578   2.488   3.259   3.727
 3546TIP3    H110579   2.414   3.270   3.787
 3546TIP3    H210580   2.563   3.245   3.785
 3547TIP3   OH210581   2.727   3.234   3.877
 3547TIP3    H110582   2.743   3.140   3.891
 3547TIP3    H210583   2.719   3.270   3.965
 3548TIP3   OH210584   1.711   3.146   4.078
 3548TIP3    H110585   1.719   3.055   4.047
 3548TIP3    H210586   1.748   3.144   4.166
 3549TIP3   OH210587   2.201   2.825   3.930
 3549TIP3    H110588   2.273   2.762   3.924
 3549TIP3    H210589   2.168   2.832   3.840
 3550TIP3   OH210590   2.281   3.043   4.080
 3550TIP3    H110591   2.253   2.973   4.021
 3550TIP3    H210592   2.208   3.105   4.080
 3551TIP3   OH210593   1.532   4.284   2.182
 3551TIP3    H110594   1.624   4.269   2.161
 3551TIP3    H210595   1.497   4.332   2.107
 3552TIP3   OH210596   1.004   3.668   2.376
 3552TIP3    H110597   1.098   3.684   2.369
 3552TIP3    H210598   0.991   3.581   2.337
 3553TIP3   OH210599   0.911   4.256   2.823
 3553TIP3    H110600   0.847   4.201   2.777
 3553TIP3    H210601   0.954   4.197   2.885
 3554TIP3   OH210602   1.047   4.098   3.006
 3554TIP3    H110603   1.046   4.028   3.072
 3554TIP3    H210604   1.102   4.166   3.044
 3555TIP3   OH210605   2.774   4.535   2.790
 3555TIP3    H110606   2.811   4.547   2.877
 3555TIP3    H210607   2.847   4.550   2.730
 3556TIP3   OH210608   2.806   4.534   3.078
 3556TIP3    H110609   2.763   4.449   3.075
 3556TIP3    H210610   2.887   4.518   3.125
 3557TIP3   OH210611   2.854   4.225   3.658
 3557TIP3    H110612   2.784   4.233   3.722
 3557TIP3    H210613   2.899   4.309   3.661
 3558TIP3   OH210614   2.676   3.739   2.270
 3558TIP3    H110615   2.734   3.807   2.236
 3558TIP3    H210616   2.725   3.701   2.343
 3559TIP3   OH210617   2.814   3.598   2.467
 3559TIP3    H110618   2.747   3.565   2.527
 3559TIP3    H210619   2.879   3.639   2.524
 3560TIP3   OH210620   2.864   4.000   2.901
 3560TIP3    H110621   2.915   3.929   2.862
 3560TIP3    H210622   2.874   4.073   2.840
 3561TIP3   OH210623   2.667   4.290   3.093
 3561TIP3    H110624   2.599   4.336   3.143
 3561TIP3    H210625   2.621   4.250   3.020
 3562TIP3   OH210626   2.724   3.515   2.116
 3562TIP3    H110627   2.654   3.514   2.051
 3562TIP3    H210628   2.707   3.592   2.169
 3563TIP3   OH210629   2.578   3.170   2.063
 3563TIP3    H110630   2.532   3.207   1.988
 3563TIP3    H210631   2.568   3.075   2.053
 3564TIP3   OH210632   2.609   3.465   2.608
 3564TIP3    H110633   2.617   3.370   2.596
 3564TIP3    H210634   2.591   3.476   2.702
 3565TIP3   OH210635   1.226   3.539   3.375
 3565TIP3    H110636   1.219   3.501   3.288
 3565TIP3    H210637   1.319   3.533   3.396
 3566TIP3   OH210638   2.897   3.881   3.463
 3566TIP3    H110639   2.961   3.812   3.445
 3566TIP3    H210640   2.921   3.952   3.404
 3567TIP3   OH210641   3.064   3.663   3.455
 3567TIP3    H110642   2.994   3.625   3.507
 3567TIP3    H210643   3.142   3.611   3.476
 3568TIP3   OH210644   2.539   2.899   2.038
 3568TIP3    H110645   2.603   2.870   2.102
 3568TIP3    H210646   2.458   2.856   2.063
 3569TIP3   OH210647   2.606   3.182   2.496
 3569TIP3    H110648   2.652   3.099   2.508
 3569TIP3    H210649   2.648   3.223   2.421
 3570TIP3   OH210650   2.755   3.337   3.014
 3570TIP3    H110651   2.835   3.358   2.965
 3570TIP3    H210652   2.766   3.380   3.098
 3571TIP3   OH210653   2.826   3.492   3.242
 3571TIP3    H110654   2.753   3.524   3.295
 3571TIP3    H210655   2.859   3.570   3.197
 3572TIP3   OH210656   1.448   3.202   4.016
 3572TIP3    H110657   1.542   3.204   4.035
 3572TIP3    H210658   1.416   3.122   4.057
 3573TIP3   OH210659   3.289   3.093   3.785
 3573TIP3    H110660   3.353   3.034   3.745
 3573TIP3    H210661   3.257   3.146   3.712
 3574TIP3   OH210662   2.721   2.933   2.547
 3574TIP3    H110663   2.767   2.913   2.629
 3574TIP3    H210664   2.658   2.861   2.538
 3575TIP3   OH210665   1.422   2.914   3.366
 3575TIP3    H110666   1.477   2.837   3.374
 3575TIP3    H210667   1.483   2.987   3.353
 3576TIP3   OH210668   1.206   3.175   3.434
 3576TIP3    H110669   1.258   3.175   3.354
 3576TIP3    H210670   1.235   3.252   3.482
 3577TIP3   OH210671   3.146   3.226   3.597
 3577TIP3    H110672   3.074   3.267   3.646
 3577TIP3    H210673   3.103   3.162   3.541
 3578TIP3   OH210674   2.773   2.847   2.187
 3578TIP3    H110675   2.817   2.787   2.126
 3578TIP3    H210676   2.826   2.926   2.186
 3579TIP3   OH210677   1.194   2.678   2.932
 3579TIP3    H110678   1.108   2.671   2.974
 3579TIP3    H210679   1.181   2.740   2.860
 3580TIP3   OH210680   2.345   4.403   2.445
 3580TIP3    H110681   2.403   4.393   2.370
 3580TIP3    H210682   2.386   4.469   2.500
 3581TIP3   OH210683   1.410   2.737   3.749
 3581TIP3    H110684   1.367   2.741   3.834
 3581TIP3    H210685   1.355   2.790   3.692
 3582TIP3   OH210686   1.460   4.204   3.825
 3582TIP3    H110687   1.369   4.177   3.838
 3582TIP3    H210688   1.500   4.196   3.911
 3583TIP3   OH210689   1.649   4.241   3.373
 3583TIP3    H110690   1.599   4.317   3.342
 3583TIP3    H210691   1.735   4.251   3.332
 3584TIP3   OH210692   2.062   4.479   3.512
 3584TIP3    H110693   2.099   4.471   3.600
 3584TIP3    H210694   2.127   4.531   3.464
 3585TIP3   OH210695   2.254   4.632   3.385
 3585TIP3    H110696   2.320   4.579   3.340
 3585TIP3    H210697   2.305   4.690   3.441
 3586TIP3   OH210698   3.050   2.987   3.478
 3586TIP3    H110699   2.966   2.990   3.433
 3586TIP3    H210700   3.078   2.895   3.469
 3587TIP3   OH210701   1.303   4.483   3.418
 3587TIP3    H110702   1.210   4.498   3.402
 3587TIP3    H210703   1.326   4.549   3.484
 3588TIP3   OH210704   1.541   4.474   3.272
 3588TIP3    H110705   1.456   4.480   3.318
 3588TIP3    H210706   1.522   4.502   3.183
 3589TIP3   OH210707   1.965   4.494   3.065
 3589TIP3    H110708   1.896   4.508   3.000
 3589TIP3    H210709   1.977   4.579   3.106
 3590TIP3   OH210710   2.231   4.429   3.112
 3590TIP3    H110711   2.139   4.449   3.094
 3590TIP3    H210712   2.280   4.497   3.068
 3591TIP3   OH210713   2.430   4.609   3.017
 3591TIP3    H110714   2.427   4.696   2.977
 3591TIP3    H210715   2.462   4.552   2.947
 3592TIP3   OH210716   1.221   4.268   3.148
 3592TIP3    H110717   1.246   4.252   3.239
 3592TIP3    H210718   1.295   4.234   3.097
 3593TIP3   OH210719   1.425   4.151   3.009
 3593TIP3    H110720   1.438   4.066   3.051
 3593TIP3    H210721   1.511   4.192   3.010
 3594TIP3   OH210722   1.692   4.239   3.026
 3594TIP3    H110723   1.713   4.147   3.013
 3594TIP3    H210724   1.747   4.265   3.100
 3595TIP3   OH210725   2.261   2.883   3.114
 3595TIP3    H110726   2.212   2.821   3.169
 3595TIP3    H210727   2.312   2.827   3.055
 3596TIP3   OH210728   2.753   2.785   2.990
 3596TIP3    H110729   2.805   2.813   2.915
 3596TIP3    H210730   2.712   2.865   3.023
 3597TIP3   OH210731   2.881   2.867   2.767
 3597TIP3    H110732   2.948   2.808   2.732
 3597TIP3    H210733   2.917   2.955   2.756
 3598TIP3   OH210734   1.501   2.591   3.107
 3598TIP3    H110735   1.412   2.559   3.117
 3598TIP3    H210736   1.555   2.512   3.102
 3599TIP3   OH210737   1.310   2.485   2.759
 3599TIP3    H110738   1.339   2.538   2.684
 3599TIP3    H210739   1.277   2.549   2.822
 3600TIP3   OH210740   1.975   2.629   3.002
 3600TIP3    H110741   2.018   2.682   2.936
 3600TIP3    H210742   2.003   2.667   3.085
 3601TIP3   OH210743   2.426   2.731   2.939
 3601TIP3    H110744   2.495   2.786   2.902
 3601TIP3    H210745   2.385   2.688   2.864
 3602TIP3   OH210746   2.530   2.727   2.542
 3602TIP3    H110747   2.449   2.774   2.562
 3602TIP3    H210748   2.515   2.639   2.576
 3603TIP3   OH210749   0.999   4.064   2.525
 3603TIP3    H110750   0.916   4.031   2.492
 3603TIP3    H210751   1.002   4.155   2.495
 3604TIP3   OH210752   1.429   2.625   2.532
 3604TIP3    H110753   1.474   2.568   2.470
 3604TIP3    H210754   1.497   2.683   2.567
 3605TIP3   OH210755   1.915   2.818   2.623
 3605TIP3    H110756   1.975   2.768   2.678
 3605TIP3    H210757   1.930   2.909   2.648
 3606TIP3   OH210758   1.794   4.223   2.124
 3606TIP3    H110759   1.878   4.250   2.086
 3606TIP3    H210760   1.765   4.151   2.067
 3607TIP3   OH210761   2.501   4.362   2.219
 3607TIP3    H110762   2.493   4.267   2.209
 3607TIP3    H210763   2.459   4.397   2.140
 3608TIP3   OH210764   1.720   2.871   3.991
 3608TIP3    H110765   1.684   2.805   4.051
 3608TIP3    H210766   1.812   2.878   4.017
 3609TIP3   OH210767   1.969   2.876   4.110
 3609TIP3    H110768   2.052   2.855   4.066
 3609TIP3    H210769   1.960   2.809   4.178
 3610TIP3   OH210770   1.093   4.062   2.178
 3610TIP3    H110771   1.097   4.083   2.272
 3610TIP3    H210772   1.177   4.019   2.159
 3611TIP3   OH210773   2.797   2.965   3.907
 3611TIP3    H110774   2.812   2.938   3.997
 3611TIP3    H210775   2.884   2.963   3.867
 3612TIP3   OH210776   2.717   4.497   3.406
 3612TIP3    H110777   2.642   4.468   3.354
 3612TIP3    H210778   2.705   4.592   3.414
 3613TIP3   OH210779   3.992   3.883   2.152
 3613TIP3    H110780   3.964   3.971   2.126
 3613TIP3    H210781   3.920   3.826   2.126
 3614TIP3   OH210782   3.997   3.873   2.565
 3614TIP3    H110783   4.043   3.857   2.648
 3614TIP3    H210784   3.950   3.791   2.547
 3615TIP3   OH210785   3.290   3.751   2.923
 3615TIP3    H110786   3.327   3.695   2.991
 3615TIP3    H210787   3.366   3.783   2.874
 3616TIP3   OH210788   4.255   4.183   2.245
 3616TIP3    H110789   4.243   4.119   2.315
 3616TIP3    H210790   4.278   4.264   2.291
 3617TIP3   OH210791   3.222   4.137   2.665
 3617TIP3    H110792   3.227   4.043   2.650
 3617TIP3    H210793   3.302   4.172   2.626
 3618TIP3   OH210794   2.964   3.367   2.402
 3618TIP3    H110795   2.929   3.453   2.423
 3618TIP3    H210796   2.892   3.322   2.357
 3619TIP3   OH210797   3.043   3.681   2.607
 3619TIP3    H110798   3.092   3.604   2.634
 3619TIP3    H210799   3.110   3.746   2.587
 3620TIP3   OH210800   3.905   4.633   2.252
 3620TIP3    H110801   3.938   4.560   2.199
 3620TIP3    H210802   3.879   4.593   2.335
 3621TIP3   OH210803   3.796   4.093   2.591
 3621TIP3    H110804   3.840   4.018   2.551
 3621TIP3    H210805   3.868   4.150   2.618
 3622TIP3   OH210806   4.825   3.421   2.594
 3622TIP3    H110807   4.844   3.505   2.637
 3622TIP3    H210808   4.847   3.436   2.502
 3623TIP3   OH210809   4.206   3.589   2.615
 3623TIP3    H110810   4.242   3.505   2.641
 3623TIP3    H210811   4.169   3.574   2.528
 3624TIP3   OH210812   3.556   3.249   2.577
 3624TIP3    H110813   3.538   3.323   2.519
 3624TIP3    H210814   3.502   3.178   2.543
 3625TIP3   OH210815   4.253   3.349   2.208
 3625TIP3    H110816   4.318   3.341   2.278
 3625TIP3    H210817   4.303   3.384   2.134
 3626TIP3   OH210818   3.178   3.458   2.704
 3626TIP3    H110819   3.262   3.446   2.747
 3626TIP3    H210820   3.186   3.410   2.622
 3627TIP3   OH210821   3.609   3.660   2.512
 3627TIP3    H110822   3.703   3.643   2.520
 3627TIP3    H210823   3.573   3.579   2.476
 3628TIP3   OH210824   4.886   3.638   2.763
 3628TIP3    H110825   4.799   3.678   2.754
 3628TIP3    H210826   4.922   3.675   2.843
 3629TIP3   OH210827   3.538   3.249   3.026
 3629TIP3    H110828   3.488   3.286   2.954
 3629TIP3    H210829   3.485   3.266   3.104
 3630TIP3   OH210830   3.895   4.101   2.008
 3630TIP3    H110831   3.854   4.074   1.926
 3630TIP3    H210832   3.843   4.175   2.038
 3631TIP3   OH210833   3.643   4.018   2.806
 3631TIP3    H110834   3.587   4.089   2.837
 3631TIP3    H210835   3.690   4.056   2.732
 3632TIP3   OH210836   4.421   3.366   2.423
 3632TIP3    H110837   4.379   3.345   2.507
 3632TIP3    H210838   4.477   3.441   2.443
 3633TIP3   OH210839   3.425   3.358   2.798
 3633TIP3    H110840   3.479   3.434   2.820
 3633TIP3    H210841   3.471   3.316   2.725
 3634TIP3   OH210842   3.478   4.223   2.888
 3634TIP3    H110843   3.445   4.257   2.805
 3634TIP3    H210844   3.401   4.221   2.946
 3635TIP3   OH210845   2.850   3.918   2.147
 3635TIP3    H110846   2.817   3.940   2.060
 3635TIP3    H210847   2.870   4.002   2.187
 3636TIP3   OH210848   4.302   4.430   2.383
 3636TIP3    H110849   4.217   4.421   2.427
 3636TIP3    H210850   4.297   4.515   2.339
 3637TIP3   OH210851   4.623   3.307   2.758
 3637TIP3    H110852   4.537   3.333   2.726
 3637TIP3    H210853   4.684   3.338   2.691
 3638TIP3   OH210854   3.882   2.945   2.750
 3638TIP3    H110855   3.873   2.853   2.775
 3638TIP3    H210856   3.807   2.988   2.791
 3639TIP3   OH210857   4.004   4.466   2.048
 3639TIP3    H110858   4.056   4.386   2.036
 3639TIP3    H210859   4.061   4.536   2.017
 3640TIP3   OH210860   4.142   4.235   1.997
 3640TIP3    H110861   4.069   4.174   1.994
 3640TIP3    H210862   4.191   4.211   2.075
 3641TIP3   OH210863   4.532   4.324   2.732
 3641TIP3    H110864   4.515   4.250   2.675
 3641TIP3    H210865   4.515   4.401   2.678
 3642TIP3   OH210866   3.819   3.723   2.000
 3642TIP3    H110867   3.738   3.770   1.983
 3642TIP3    H210868   3.866   3.725   1.917
 3643TIP3   OH210869   3.786   3.527   1.698
 3643TIP3    H110870   3.851   3.576   1.748
 3643TIP3    H210871   3.836   3.461   1.650
 3644TIP3   OH210872   4.716   3.979   2.594
 3644TIP3    H110873   4.632   4.025   2.595
 3644TIP3    H210874   4.751   3.995   2.506
 3645TIP3   OH210875   4.176   3.812   1.962
 3645TIP3    H110876   4.121   3.841   2.035
 3645TIP3    H210877   4.259   3.788   2.003
 3646TIP3   OH210878   4.406   3.844   2.901
 3646TIP3    H110879   4.403   3.926   2.949
 3646TIP3    H210880   4.323   3.841   2.853
 3647TIP3   OH210881   3.404   3.794   2.370
 3647TIP3    H110882   3.371   3.736   2.302
 3647TIP3    H210883   3.479   3.748   2.407
 3648TIP3   OH210884   3.500   4.163   2.548
 3648TIP3    H110885   3.486   4.202   2.461
 3648TIP3    H210886   3.594   4.147   2.552
 3649TIP3   OH210887   3.507   3.790   2.738
 3649TIP3    H110888   3.545   3.757   2.657
 3649TIP3    H210889   3.555   3.870   2.756
 3650TIP3   OH210890   4.072   4.419   2.524
 3650TIP3    H110891   4.051   4.500   2.571
 3650TIP3    H210892   4.051   4.349   2.586
 3651TIP3   OH210893   3.669   4.329   3.059
 3651TIP3    H110894   3.610   4.387   3.106
 3651TIP3    H210895   3.614   4.285   2.994
 3652TIP3   OH210896   4.008   3.673   1.794
 3652TIP3    H110897   4.067   3.731   1.842
 3652TIP3    H210898   4.036   3.681   1.702
 3653TIP3   OH210899   3.436   3.874   3.198
 3653TIP3    H110900   3.442   3.966   3.222
 3653TIP3    H210901   3.342   3.857   3.189
 3654TIP3   OH210902   3.760   4.338   2.055
 3654TIP3    H110903   3.839   4.392   2.060
 3654TIP3    H210904   3.695   4.396   2.015
 3655TIP3   OH210905   3.462   4.486   3.159
 3655TIP3    H110906   3.420   4.508   3.075
 3655TIP3    H210907   3.389   4.466   3.218
 3656TIP3   OH210908   4.519   2.902   1.849
 3656TIP3    H110909   4.442   2.923   1.902
 3656TIP3    H210910   4.532   2.980   1.795
 3657TIP3   OH210911   3.279   3.639   2.164
 3657TIP3    H110912   3.205   3.689   2.132
 3657TIP3    H210913   3.243   3.553   2.186
 3658TIP3   OH210914   4.335   4.276   1.401
 3658TIP3    H110915   4.334   4.370   1.384
 3658TIP3    H210916   4.425   4.248   1.383
 3659TIP3   OH210917   3.064   4.045   3.097
 3659TIP3    H110918   2.996   4.028   3.031
 3659TIP3    H210919   3.098   3.958   3.118
 3660TIP3   OH210920   2.958   4.210   2.737
 3660TIP3    H110921   3.046   4.186   2.706
 3660TIP3    H210922   2.973   4.288   2.791
 3661TIP3   OH210923   4.763   4.688   2.795
 3661TIP3    H110924   4.768   4.593   2.806
 3661TIP3    H210925   4.683   4.712   2.841
 3662TIP3   OH210926   3.877   4.464   2.937
 3662TIP3    H110927   3.867   4.556   2.960
 3662TIP3    H210928   3.801   4.420   2.976
 3663TIP3   OH210929   3.646   4.580   1.877
 3663TIP3    H110930   3.592   4.559   1.800
 3663TIP3    H210931   3.609   4.661   1.910
 3664TIP3   OH210932   3.086   4.436   2.263
 3664TIP3    H110933   3.145   4.474   2.328
 3664TIP3    H210934   3.043   4.364   2.309
 3665TIP3   OH210935   3.845   4.499   1.506
 3665TIP3    H110936   3.897   4.426   1.472
 3665TIP3    H210937   3.879   4.511   1.595
 3666TIP3   OH210938   3.898   4.543   1.776
 3666TIP3    H110939   3.811   4.550   1.817
 3666TIP3    H210940   3.954   4.508   1.845
 3667TIP3   OH210941   4.650   3.805   3.071
 3667TIP3    H110942   4.569   3.815   3.022
 3667TIP3    H210943   4.669   3.711   3.067
 3668TIP3   OH210944   3.271   4.227   3.072
 3668TIP3    H110945   3.320   4.209   3.152
 3668TIP3    H210946   3.197   4.167   3.075
 3669TIP3   OH210947   3.644   3.035   2.879
 3669TIP3    H110948   3.560   3.004   2.846
 3669TIP3    H210949   3.624   3.117   2.925
 3670TIP3   OH210950   4.190   3.151   3.077
 3670TIP3    H110951   4.260   3.128   3.138
 3670TIP3    H210952   4.109   3.135   3.126
 3671TIP3   OH210953   4.410   3.578   2.991
 3671TIP3    H110954   4.368   3.575   3.077
 3671TIP3    H210955   4.394   3.667   2.960
 3672TIP3   OH210956   4.088   3.665   1.532
 3672TIP3    H110957   4.045   3.665   1.446
 3672TIP3    H210958   4.169   3.715   1.517
 3673TIP3   OH210959   3.796   3.077   1.846
 3673TIP3    H110960   3.761   3.083   1.935
 3673TIP3    H210961   3.758   2.996   1.811
 3674TIP3   OH210962   3.582   3.568   2.886
 3674TIP3    H110963   3.537   3.578   2.970
 3674TIP3    H210964   3.561   3.648   2.838
 3675TIP3   OH210965   3.467   3.444   2.407
 3675TIP3    H110966   3.377   3.423   2.432
 3675TIP3    H210967   3.476   3.410   2.318
 3676TIP3   OH210968   3.948   3.520   2.135
 3676TIP3    H110969   3.900   3.593   2.095
 3676TIP3    H210970   4.006   3.489   2.065
 3677TIP3   OH210971   4.132   3.791   3.211
 3677TIP3    H110972   4.104   3.724   3.273
 3677TIP3    H210973   4.224   3.807   3.233
 3678TIP3   OH210974   4.112   3.538   2.363
 3678TIP3    H110975   4.045   3.564   2.300
 3678TIP3    H210976   4.157   3.464   2.322
 3679TIP3   OH210977   3.419   3.582   3.109
 3679TIP3    H110978   3.440   3.647   3.176
 3679TIP3    H210979   3.403   3.501   3.158
 3680TIP3   OH210980   3.459   3.058   1.820
 3680TIP3    H110981   3.450   3.063   1.915
 3680TIP3    H210982   3.383   3.105   1.785
 3681TIP3   OH210983   3.005   3.095   2.699
 3681TIP3    H110984   3.073   3.136   2.752
 3681TIP3    H210985   3.040   3.096   2.610
 3682TIP3   OH210986   2.925   3.082   2.194
 3682TIP3    H110987   2.969   3.116   2.117
 3682TIP3    H210988   2.863   3.150   2.219
 3683TIP3   OH210989   4.148   3.789   2.790
 3683TIP3    H110990   4.174   3.722   2.726
 3683TIP3    H210991   4.106   3.740   2.860
 3684TIP3   OH210992   3.823   3.237   2.460
 3684TIP3    H110993   3.746   3.240   2.516
 3684TIP3    H210994   3.897   3.232   2.520
 3685TIP3   OH210995   3.227   3.321   2.471
 3685TIP3    H110996   3.139   3.325   2.435
 3685TIP3    H210997   3.257   3.232   2.452
 3686TIP3   OH210998   3.481   3.318   2.163
 3686TIP3    H110999   3.575   3.332   2.151
 3686TIP3    H211000   3.442   3.338   2.078
 3687TIP3   OH211001   4.283   3.325   2.664
 3687TIP3    H111002   4.264   3.342   2.756
 3687TIP3    H211003   4.213   3.267   2.635
 3688TIP3   OH211004   3.360   3.343   1.919
 3688TIP3    H111005   3.295   3.298   1.866
 3688TIP3    H211006   3.414   3.391   1.856
 3689TIP3   OH211007   4.474   5.029   2.891
 3689TIP3    H111008   4.470   5.047   2.797
 3689TIP3    H211009   4.552   5.076   2.921
 3690TIP3   OH211010   3.419   4.133   3.306
 3690TIP3    H111011   3.499   4.158   3.353
 3690TIP3    H211012   3.349   4.144   3.371
 3691TIP3   OH211013   3.879   3.600   2.568
 3691TIP3    H111014   3.949   3.554   2.521
 3691TIP3    H211015   3.879   3.561   2.655
 3692TIP3   OH211016   3.373   3.074   2.453
 3692TIP3    H111017   3.342   2.998   2.502
 3692TIP3    H211018   3.401   3.038   2.369
 3693TIP3   OH211019   3.851   3.507   2.839
 3693TIP3    H111020   3.763   3.542   2.857
 3693TIP3    H211021   3.910   3.562   2.891
 3694TIP3   OH211022   3.586   3.865   1.947
 3694TIP3    H111023   3.511   3.811   1.924
 3694TIP3    H211024   3.562   3.907   2.030
 3695TIP3   OH211025   4.480   4.117   2.556
 3695TIP3    H111026   4.513   4.167   2.482
 3695TIP3    H211027   4.399   4.078   2.525
 3696TIP3   OH211028   4.049   3.180   1.842
 3696TIP3    H111029   3.955   3.160   1.841
 3696TIP3    H211030   4.053   3.275   1.856
 3697TIP3   OH211031   3.994   4.200   2.964
 3697TIP3    H111032   4.036   4.192   3.049
 3697TIP3    H211033   3.953   4.287   2.966
 3698TIP3   OH211034   4.111   3.442   1.917
 3698TIP3    H111035   4.206   3.448   1.928
 3698TIP3    H211036   4.088   3.521   1.867
 3699TIP3   OH211037   3.264   3.857   2.602
 3699TIP3    H111038   3.303   3.853   2.515
 3699TIP3    H211039   3.336   3.835   2.661
 3700TIP3   OH211040   3.735   4.027   1.785
 3700TIP3    H111041   3.689   4.111   1.785
 3700TIP3    H211042   3.681   3.970   1.839
 3701TIP3   OH211043   3.162   3.815   3.230
 3701TIP3    H111044   3.176   3.799   3.323
 3701TIP3    H211045   3.088   3.759   3.206
 3702TIP3   OH211046   3.897   3.943   3.247
 3702TIP3    H111047   3.830   3.883   3.214
 3702TIP3    H211048   3.979   3.905   3.218
 3703TIP3   OH211049   4.144   4.479   2.849
 3703TIP3    H111050   4.049   4.467   2.857
 3703TIP3    H211051   4.169   4.523   2.931
 3704TIP3   OH211052   4.532   3.531   1.741
 3704TIP3    H111053   4.476   3.485   1.679
 3704TIP3    H211054   4.536   3.621   1.708
 3705TIP3   OH211055   4.778   4.407   2.821
 3705TIP3    H111056   4.684   4.393   2.818
 3705TIP3    H211057   4.810   4.375   2.737
 3706TIP3   OH211058   4.264   4.349   1.670
 3706TIP3    H111059   4.235   4.283   1.732
 3706TIP3    H211060   4.278   4.301   1.588
 3707TIP3   OH211061   4.248   3.984   2.456
 3707TIP3    H111062   4.158   3.962   2.480
 3707TIP3    H211063   4.283   3.903   2.417
 3708TIP3   OH211064   3.390   4.222   2.254
 3708TIP3    H111065   3.392   4.299   2.197
 3708TIP3    H211066   3.306   4.228   2.299
 3709TIP3   OH211067   2.960   3.506   1.970
 3709TIP3    H111068   3.003   3.589   1.990
 3709TIP3    H211069   2.880   3.507   2.023
 3710TIP3   OH211070   3.493   3.977   2.175
 3710TIP3    H111071   3.470   4.067   2.199
 3710TIP3    H211072   3.466   3.924   2.250
 3711TIP3   OH211073   3.678   4.576   2.751
 3711TIP3    H111074   3.709   4.622   2.673
 3711TIP3    H211075   3.755   4.529   2.782
 3712TIP3   OH211076   3.306   4.448   2.096
 3712TIP3    H111077   3.224   4.447   2.146
 3712TIP3    H211078   3.338   4.537   2.104
 3713TIP3   OH211079   4.038   4.196   2.691
 3713TIP3    H111080   4.025   4.193   2.786
 3713TIP3    H211081   4.118   4.146   2.676
 3714TIP3   OH211082   4.021   4.082   1.561
 3714TIP3    H111083   4.075   4.055   1.635
 3714TIP3    H211084   3.935   4.044   1.578
 3715TIP3   OH211085   4.290   4.707   2.729
 3715TIP3    H111086   4.217   4.646   2.739
 3715TIP3    H211087   4.263   4.764   2.658
 3716TIP3   OH211088   4.346   4.551   1.370
 3716TIP3    H111089   4.383   4.622   1.318
 3716TIP3    H211090   4.269   4.590   1.412
 3717TIP3   OH211091   3.373   3.325   3.237
 3717TIP3    H111092   3.278   3.330   3.249
 3717TIP3    H211093   3.404   3.281   3.316
 3718TIP3   OH211094   4.198   3.994   1.750
 3718TIP3    H111095   4.182   3.943   1.830
 3718TIP3    H211096   4.293   4.003   1.746
 3719TIP3   OH211097   3.073   4.427   2.885
 3719TIP3    H111098   3.138   4.380   2.937
 3719TIP3    H211099   3.081   4.518   2.915
 3720TIP3   OH211100   3.380   4.050   1.570
 3720TIP3    H111101   3.390   3.959   1.545
 3720TIP3    H211102   3.363   4.047   1.664
 3721TIP3   OH211103   3.320   4.067   1.842
 3721TIP3    H111104   3.381   4.041   1.911
 3721TIP3    H211105   3.318   4.162   1.846
 3722TIP3   OH211106   3.055   3.757   2.050
 3722TIP3    H111107   2.989   3.802   2.103
 3722TIP3    H211108   3.073   3.818   1.978
 3723TIP3   OH211109   4.224   3.380   2.925
 3723TIP3    H111110   4.298   3.429   2.961
 3723TIP3    H211111   4.214   3.305   2.984
 3724TIP3   OH211112   4.106   3.132   2.113
 3724TIP3    H111113   4.086   3.151   2.021
 3724TIP3    H211114   4.148   3.211   2.145
 3725TIP3   OH211115   3.591   4.257   1.782
 3725TIP3    H111116   3.505   4.278   1.817
 3725TIP3    H211117   3.614   4.332   1.727
 3726TIP3   OH211118   3.762   3.328   2.203
 3726TIP3    H111119   3.824   3.397   2.178
 3726TIP3    H211120   3.781   3.310   2.295
 3727TIP3   OH211121   4.056   3.625   2.991
 3727TIP3    H111122   4.079   3.674   3.070
 3727TIP3    H211123   4.107   3.544   2.998
 3728TIP3   OH211124   3.921   3.030   2.294
 3728TIP3    H111125   3.898   3.106   2.346
 3728TIP3    H211126   3.990   3.061   2.235
 3729TIP3   OH211127   3.337   4.339   1.850
 3729TIP3    H111128   3.315   4.410   1.789
 3729TIP3    H211129   3.323   4.377   1.936
 3730TIP3   OH211130   3.435   3.047   2.099
 3730TIP3    H111131   3.424   3.138   2.128
 3730TIP3    H211132   3.529   3.032   2.104
 3731TIP3   OH211133   4.677   3.535   2.982
 3731TIP3    H111134   4.582   3.537   2.990
 3731TIP3    H211135   4.693   3.492   2.898
 3732TIP3   OH211136   4.339   3.726   2.364
 3732TIP3    H111137   4.261   3.672   2.376
 3732TIP3    H211138   4.406   3.685   2.418
 3733TIP3   OH211139   3.070   3.940   1.837
 3733TIP3    H111140   3.138   4.006   1.848
 3733TIP3    H211141   3.106   3.878   1.773
 3734TIP3   OH211142   2.986   3.227   1.971
 3734TIP3    H111143   2.997   3.322   1.977
 3734TIP3    H211144   2.925   3.215   1.898
 3735TIP3   OH211145   4.317   4.700   2.306
 3735TIP3    H111146   4.275   4.749   2.235
 3735TIP3    H211147   4.411   4.712   2.290
 3736TIP3   OH211148   3.381   2.950   2.838
 3736TIP3    H111149   3.352   2.920   2.752
 3736TIP3    H211150   3.368   2.875   2.896
 3737TIP3   OH211151   2.891   4.177   2.236
 3737TIP3    H111152   2.868   4.230   2.312
 3737TIP3    H211153   2.871   4.232   2.160
 3738TIP3   OH211154   3.100   4.738   3.300
 3738TIP3    H111155   3.183   4.740   3.348
 3738TIP3    H211156   3.081   4.645   3.288
 3739TIP3   OH211157   3.570   4.661   3.344
 3739TIP3    H111158   3.665   4.646   3.350
 3739TIP3    H211159   3.541   4.602   3.275
 3740TIP3   OH211160   3.537   4.250   1.461
 3740TIP3    H111161   3.489   4.180   1.506
 3740TIP3    H211162   3.612   4.205   1.422
 3741TIP3   OH211163   4.198   4.593   3.093
 3741TIP3    H111164   4.209   4.523   3.157
 3741TIP3    H211165   4.272   4.652   3.109
 3742TIP3   OH211166   3.978   4.290   1.386
 3742TIP3    H111167   4.008   4.225   1.450
 3742TIP3    H211168   4.040   4.283   1.314
 3743TIP3   OH211169   3.210   4.131   3.493
 3743TIP3    H111170   3.228   4.037   3.503
 3743TIP3    H211171   3.125   4.135   3.451
 3744TIP3   OH211172   3.203   3.750   1.693
 3744TIP3    H111173   3.255   3.728   1.770
 3744TIP3    H211174   3.267   3.763   1.623
 3745TIP3   OH211175   3.825   4.221   3.262
 3745TIP3    H111176   3.779   4.241   3.180
 3745TIP3    H211177   3.858   4.132   3.248
 3746TIP3   OH211178   3.750   3.970   1.516
 3746TIP3    H111179   3.733   3.984   1.610
 3746TIP3    H211180   3.738   3.876   1.503
 3747TIP3   OH211181   4.310   4.252   2.882
 3747TIP3    H111182   4.386   4.284   2.835
 3747TIP3    H211183   4.243   4.319   2.868
 3748TIP3   OH211184   3.323   3.869   3.489
 3748TIP3    H111185   3.402   3.857   3.435
 3748TIP3    H211186   3.357   3.893   3.575
 3749TIP3   OH211187   3.378   3.686   1.900
 3749TIP3    H111188   3.356   3.656   1.989
 3749TIP3    H211189   3.424   3.612   1.861
 3750TIP3   OH211190   3.686   3.757   3.148
 3750TIP3    H111191   3.604   3.805   3.157
 3750TIP3    H211192   3.724   3.788   3.065
 3751TIP3   OH211193   3.512   3.494   1.747
 3751TIP3    H111194   3.483   3.500   1.657
 3751TIP3    H211195   3.607   3.502   1.742
 3752TIP3   OH211196   4.187   4.141   3.249
 3752TIP3    H111197   4.253   4.100   3.194
 3752TIP3    H211198   4.183   4.085   3.327
 3753TIP3   OH211199   4.311   3.793   1.424
 3753TIP3    H111200   4.296   3.751   1.339
 3753TIP3    H211201   4.285   3.884   1.411
 3754TIP3   OH211202   3.792   3.532   3.262
 3754TIP3    H111203   3.796   3.460   3.199
 3754TIP3    H211204   3.757   3.606   3.212
 3755TIP3   OH211205   3.800   3.329   3.061
 3755TIP3    H111206   3.827   3.371   2.979
 3755TIP3    H211207   3.708   3.306   3.047
 3756TIP3   OH211208   3.820   3.858   2.935
 3756TIP3    H111209   3.907   3.894   2.917
 3756TIP3    H211210   3.760   3.918   2.890
 3757TIP3   OH211211   4.400   3.819   3.312
 3757TIP3    H111212   4.441   3.734   3.328
 3757TIP3    H211213   4.473   3.876   3.285
 3758TIP3   OH211214   4.433   4.082   3.053
 3758TIP3    H111215   4.378   4.141   3.002
 3758TIP3    H211216   4.522   4.097   3.021
 3759TIP3   OH211217   3.672   3.625   3.500
 3759TIP3    H111218   3.603   3.562   3.520
 3759TIP3    H211219   3.704   3.598   3.413
 3760TIP3   OH211220   3.922   3.095   3.156
 3760TIP3    H111221   3.882   3.177   3.124
 3760TIP3    H211222   3.855   3.029   3.143
 3761TIP3   OH211223   4.049   3.578   3.362
 3761TIP3    H111224   4.040   3.568   3.457
 3761TIP3    H211225   3.962   3.556   3.328
 3762TIP3   OH211226   4.290   3.527   3.227
 3762TIP3    H111227   4.213   3.531   3.283
 3762TIP3    H211228   4.362   3.504   3.286
 3763TIP3   OH211229   4.527   3.492   3.376
 3763TIP3    H111230   4.541   3.398   3.386
 3763TIP3    H211231   4.521   3.525   3.466
 3764TIP3   OH211232   3.509   3.402   3.564
 3764TIP3    H111233   3.517   3.312   3.532
 3764TIP3    H211234   3.545   3.400   3.652
 3765TIP3   OH211235   3.993   3.082   3.421
 3765TIP3    H111236   4.064   3.017   3.416
 3765TIP3    H211237   3.962   3.090   3.331
 3766TIP3   OH211238   4.082   3.302   3.561
 3766TIP3    H111239   4.052   3.230   3.506
 3766TIP3    H211240   4.009   3.364   3.563
 3767TIP3   OH211241   3.329   4.546   1.665
 3767TIP3    H111242   3.420   4.527   1.642
 3767TIP3    H211243   3.294   4.594   1.590
 3768TIP3   OH211244   2.797   3.924   1.858
 3768TIP3    H111245   2.891   3.940   1.853
 3768TIP3    H211246   2.785   3.837   1.820
 3769TIP3   OH211247   2.709   4.515   2.316
 3769TIP3    H111248   2.645   4.459   2.272
 3769TIP3    H211249   2.759   4.455   2.372
 3770TIP3   OH211250   2.869   4.346   2.475
 3770TIP3    H111251   2.857   4.280   2.544
 3770TIP3    H211252   2.918   4.416   2.518
 3771TIP3   OH211253   4.588   4.755   2.290
 3771TIP3    H111254   4.607   4.786   2.379
 3771TIP3    H211255   4.645   4.806   2.234
 3772TIP3   OH211256   4.606   4.786   2.572
 3772TIP3    H111257   4.557   4.704   2.566
 3772TIP3    H211258   4.676   4.768   2.635
 3773TIP3   OH211259   4.657   4.482   3.142
 3773TIP3    H111260   4.584   4.490   3.203
 3773TIP3    H211261   4.700   4.567   3.145
 3774TIP3   OH211262   4.478   3.996   1.753
 3774TIP3    H111263   4.536   4.066   1.724
 3774TIP3    H211264   4.521   3.959   1.829
 3775TIP3   OH211265   4.603   3.853   1.955
 3775TIP3    H111266   4.535   3.816   2.012
 3775TIP3    H211267   4.667   3.890   2.016
 3776TIP3   OH211268   4.654   4.255   2.388
 3776TIP3    H111269   4.706   4.187   2.345
 3776TIP3    H211270   4.653   4.327   2.324
 3777TIP3   OH211271   4.464   4.545   2.581
 3777TIP3    H111272   4.395   4.589   2.631
 3777TIP3    H211273   4.418   4.504   2.508
 3778TIP3   OH211274   4.519   3.770   1.602
 3778TIP3    H111275   4.447   3.770   1.539
 3778TIP3    H211276   4.503   3.848   1.656
 3779TIP3   OH211277   4.381   3.421   1.542
 3779TIP3    H111278   4.332   3.462   1.471
 3779TIP3    H211279   4.369   3.327   1.528
 3780TIP3   OH211280   4.403   3.716   2.094
 3780TIP3    H111281   4.408   3.621   2.082
 3780TIP3    H211282   4.385   3.727   2.188
 3781TIP3   OH211283   3.026   3.775   2.864
 3781TIP3    H111284   3.018   3.747   2.773
 3781TIP3    H211285   3.120   3.777   2.880
 3782TIP3   OH211286   4.687   4.134   2.954
 3782TIP3    H111287   4.754   4.068   2.937
 3782TIP3    H211288   4.698   4.198   2.884
 3783TIP3   OH211289   4.864   3.924   2.947
 3783TIP3    H111290   4.791   3.883   2.993
 3783TIP3    H211291   4.939   3.868   2.968
 3784TIP3   OH211292   4.336   3.149   1.512
 3784TIP3    H111293   4.400   3.126   1.580
 3784TIP3    H211294   4.254   3.111   1.542
 3785TIP3   OH211295   4.400   3.438   1.980
 3785TIP3    H111296   4.444   3.354   1.992
 3785TIP3    H211297   4.444   3.477   1.905
 3786TIP3   OH211298   4.554   3.600   2.500
 3786TIP3    H111299   4.634   3.619   2.452
 3786TIP3    H211300   4.567   3.640   2.586
 3787TIP3   OH211301   4.627   3.752   2.727
 3787TIP3    H111302   4.553   3.782   2.780
 3787TIP3    H211303   4.658   3.831   2.683
 3788TIP3   OH211304   3.247   3.462   3.500
 3788TIP3    H111305   3.341   3.462   3.519
 3788TIP3    H211306   3.214   3.383   3.544
 3789TIP3   OH211307   5.085   3.353   3.271
 3789TIP3    H111308   5.147   3.293   3.229
 3789TIP3    H211309   5.048   3.403   3.198
 3790TIP3   OH211310   4.513   3.187   2.029
 3790TIP3    H111311   4.559   3.172   2.112
 3790TIP3    H211312   4.450   3.115   2.023
 3791TIP3   OH211313   3.214   3.173   2.866
 3791TIP3    H111314   3.271   3.096   2.867
 3791TIP3    H211315   3.273   3.246   2.847
 3792TIP3   OH211316   2.996   3.438   2.919
 3792TIP3    H111317   3.050   3.431   2.840
 3792TIP3    H211318   3.011   3.527   2.951
 3793TIP3   OH211319   4.938   3.472   3.075
 3793TIP3    H111320   4.858   3.513   3.106
 3793TIP3    H211321   4.909   3.400   3.020
 3794TIP3   OH211322   4.565   3.106   1.669
 3794TIP3    H111323   4.611   3.044   1.612
 3794TIP3    H211324   4.622   3.183   1.672
 3795TIP3   OH211325   2.988   2.938   2.418
 3795TIP3    H111326   2.901   2.931   2.458
 3795TIP3    H211327   2.975   2.996   2.343
 3796TIP3   OH211328   4.149   4.661   1.933
 3796TIP3    H111329   4.205   4.651   1.856
 3796TIP3    H211330   4.191   4.729   1.985
 3797TIP3   OH211331   3.208   2.994   3.238
 3797TIP3    H111332   3.168   3.008   3.324
 3797TIP3    H211333   3.154   3.046   3.179
 3798TIP3   OH211334   3.247   4.451   3.331
 3798TIP3    H111335   3.154   4.436   3.314
 3798TIP3    H211336   3.255   4.445   3.426
 3799TIP3   OH211337   3.860   4.736   3.005
 3799TIP3    H111338   3.899   4.731   3.092
 3799TIP3    H211339   3.921   4.788   2.954
 3800TIP3   OH211340   4.047   4.890   2.872
 3800TIP3    H111341   4.110   4.835   2.824
 3800TIP3    H211342   4.100   4.946   2.927
 3801TIP3   OH211343   4.846   3.230   2.961
 3801TIP3    H111344   4.760   3.228   2.919
 3801TIP3    H211345   4.878   3.140   2.955
 3802TIP3   OH211346   3.080   4.697   2.947
 3802TIP3    H111347   3.002   4.743   2.917
 3802TIP3    H211348   3.141   4.767   2.973
 3803TIP3   OH211349   3.767   4.744   2.539
 3803TIP3    H111350   3.689   4.748   2.483
 3803TIP3    H211351   3.773   4.831   2.579
 3804TIP3   OH211352   4.029   4.686   2.601
 3804TIP3    H111353   3.937   4.701   2.582
 3804TIP3    H211354   4.076   4.754   2.553
 3805TIP3   OH211355   4.235   4.870   2.507
 3805TIP3    H111356   4.225   4.955   2.465
 3805TIP3    H211357   4.262   4.811   2.437
 3806TIP3   OH211358   3.023   4.524   2.628
 3806TIP3    H111359   3.048   4.489   2.714
 3806TIP3    H211360   3.106   4.534   2.581
 3807TIP3   OH211361   4.055   3.151   2.594
 3807TIP3    H111362   4.017   3.079   2.645
 3807TIP3    H211363   4.124   3.110   2.542
 3808TIP3   OH211364   4.560   3.049   2.484
 3808TIP3    H111365   4.599   3.100   2.412
 3808TIP3    H211366   4.469   3.079   2.488
 3809TIP3   OH211367   4.673   3.134   2.249
 3809TIP3    H111368   4.743   3.075   2.220
 3809TIP3    H211369   4.710   3.222   2.237
 3810TIP3   OH211370   3.293   2.847   2.596
 3810TIP3    H111371   3.203   2.815   2.599
 3810TIP3    H211372   3.346   2.767   2.590
 3811TIP3   OH211373   3.116   2.746   2.250
 3811TIP3    H111374   3.142   2.796   2.173
 3811TIP3    H211375   3.078   2.811   2.309
 3812TIP3   OH211376   3.770   2.887   2.489
 3812TIP3    H111377   3.817   2.935   2.421
 3812TIP3    H211378   3.809   2.917   2.571
 3813TIP3   OH211379   4.270   3.034   2.465
 3813TIP3    H111380   4.286   3.000   2.377
 3813TIP3    H211381   4.273   2.957   2.522
 3814TIP3   OH211382   4.326   2.977   2.032
 3814TIP3    H111383   4.246   3.025   2.055
 3814TIP3    H211384   4.314   2.891   2.072
 3815TIP3   OH211385   2.802   4.319   2.014
 3815TIP3    H111386   2.716   4.285   1.988
 3815TIP3    H211387   2.802   4.410   1.985
 3816TIP3   OH211388   3.224   2.879   2.015
 3816TIP3    H111389   3.271   2.820   1.955
 3816TIP3    H211390   3.292   2.937   2.049
 3817TIP3   OH211391   3.711   3.076   2.110
 3817TIP3    H111392   3.771   3.026   2.165
 3817TIP3    H211393   3.724   3.167   2.136
 3818TIP3   OH211394   3.588   4.477   1.604
 3818TIP3    H111395   3.672   4.504   1.569
 3818TIP3    H211396   3.561   4.404   1.548
 3819TIP3   OH211397   4.299   4.618   1.702
 3819TIP3    H111398   4.292   4.523   1.696
 3819TIP3    H211399   4.253   4.651   1.625
 3820TIP3   OH211400   3.517   3.126   3.475
 3820TIP3    H111401   3.481   3.061   3.536
 3820TIP3    H211402   3.609   3.133   3.500
 3821TIP3   OH211403   3.766   3.131   3.595
 3821TIP3    H111404   3.847   3.112   3.548
 3821TIP3    H211405   3.762   3.063   3.663
 3822TIP3   OH211406   2.890   4.317   1.666
 3822TIP3    H111407   2.893   4.329   1.761
 3822TIP3    H211408   2.973   4.273   1.645
 3823TIP3   OH211409   4.592   3.220   3.393
 3823TIP3    H111410   4.608   3.192   3.483
 3823TIP3    H211411   4.678   3.215   3.351
 3824TIP3   OH211412   4.513   4.755   2.893
 3824TIP3    H111413   4.438   4.725   2.842
 3824TIP3    H211414   4.499   4.850   2.902
 3825TIP3   OH211415   5.790   4.138   1.643
 3825TIP3    H111416   5.763   4.227   1.620
 3825TIP3    H211417   5.717   4.083   1.615
 3826TIP3   OH211418   5.790   4.133   2.055
 3826TIP3    H111419   5.837   4.115   2.136
 3826TIP3    H211420   5.744   4.051   2.034
 3827TIP3   OH211421   5.086   4.005   2.405
 3827TIP3    H111422   5.121   3.949   2.475
 3827TIP3    H211423   5.164   4.032   2.355
 3828TIP3   OH211424   6.051   4.442   1.729
 3828TIP3    H111425   6.038   4.376   1.797
 3828TIP3    H211426   6.074   4.522   1.777
 3829TIP3   OH211427   5.071   4.429   2.106
 3829TIP3    H111428   5.055   4.335   2.109
 3829TIP3    H211429   5.165   4.437   2.090
 3830TIP3   OH211430   4.761   3.629   1.883
 3830TIP3    H111431   4.723   3.713   1.907
 3830TIP3    H211432   4.690   3.580   1.843
 3831TIP3   OH211433   4.834   3.934   2.094
 3831TIP3    H111434   4.885   3.857   2.121
 3831TIP3    H211435   4.900   3.995   2.060
 3832TIP3   OH211436   5.703   4.882   1.741
 3832TIP3    H111437   5.734   4.814   1.681
 3832TIP3    H211438   5.692   4.838   1.825
 3833TIP3   OH211439   5.588   4.358   2.066
 3833TIP3    H111440   5.629   4.280   2.030
 3833TIP3    H211441   5.661   4.412   2.097
 3834TIP3   OH211442   6.620   3.679   2.081
 3834TIP3    H111443   6.639   3.762   2.124
 3834TIP3    H211444   6.640   3.695   1.988
 3835TIP3   OH211445   6.003   3.847   2.102
 3835TIP3    H111446   6.038   3.762   2.128
 3835TIP3    H211447   5.965   3.831   2.015
 3836TIP3   OH211448   5.354   3.506   2.062
 3836TIP3    H111449   5.334   3.580   2.004
 3836TIP3    H211450   5.299   3.435   2.030
 3837TIP3   OH211451   6.049   3.605   1.695
 3837TIP3    H111452   6.114   3.597   1.765
 3837TIP3    H211453   6.099   3.640   1.621
 3838TIP3   OH211454   4.978   3.717   2.189
 3838TIP3    H111455   5.061   3.700   2.233
 3838TIP3    H211456   4.983   3.666   2.108
 3839TIP3   OH211457   5.403   3.917   2.001
 3839TIP3    H111458   5.497   3.901   2.008
 3839TIP3    H211459   5.367   3.836   1.965
 3840TIP3   OH211460   6.682   3.895   2.249
 3840TIP3    H111461   6.595   3.934   2.241
 3840TIP3    H211462   6.718   3.932   2.329
 3841TIP3   OH211463   5.335   3.506   2.513
 3841TIP3    H111464   5.284   3.541   2.440
 3841TIP3    H211465   5.281   3.522   2.590
 3842TIP3   OH211466   5.698   4.364   1.511
 3842TIP3    H111467   5.660   4.333   1.429
 3842TIP3    H211468   5.639   4.433   1.541
 3843TIP3   OH211469   5.434   4.282   2.283
 3843TIP3    H111470   5.378   4.352   2.318
 3843TIP3    H211471   5.480   4.322   2.210
 3844TIP3   OH211472   6.217   3.623   1.911
 3844TIP3    H111473   6.175   3.601   1.994
 3844TIP3    H211474   6.273   3.698   1.930
 3845TIP3   OH211475   5.223   3.614   2.284
 3845TIP3    H111476   5.278   3.688   2.307
 3845TIP3    H211477   5.270   3.571   2.211
 3846TIP3   OH211478   5.274   4.482   2.388
 3846TIP3    H111479   5.257   4.570   2.354
 3846TIP3    H211480   5.196   4.461   2.440
 3847TIP3   OH211481   4.654   4.182   1.637
 3847TIP3    H111482   4.618   4.200   1.550
 3847TIP3    H211483   4.680   4.267   1.671
 3848TIP3   OH211484   6.095   4.687   1.872
 3848TIP3    H111485   6.008   4.678   1.913
 3848TIP3    H211486   6.091   4.771   1.828
 3849TIP3   OH211487   6.417   3.565   2.246
 3849TIP3    H111488   6.331   3.590   2.213
 3849TIP3    H211489   6.478   3.595   2.179
 3850TIP3   OH211490   5.678   3.201   2.237
 3850TIP3    H111491   5.670   3.109   2.262
 3850TIP3    H211492   5.603   3.244   2.278
 3851TIP3   OH211493   5.800   4.718   1.537
 3851TIP3    H111494   5.850   4.638   1.525
 3851TIP3    H211495   5.859   4.788   1.511
 3852TIP3   OH211496   5.944   4.492   1.476
 3852TIP3    H111497   5.868   4.434   1.479
 3852TIP3    H211498   5.993   4.470   1.555
 3853TIP3   OH211499   6.325   4.582   2.218
 3853TIP3    H111500   6.309   4.506   2.162
 3853TIP3    H211501   6.309   4.658   2.162
 3854TIP3   OH211502   5.617   3.982   1.490
 3854TIP3    H111503   5.535   4.029   1.471
 3854TIP3    H211504   5.663   3.980   1.406
 3855TIP3   OH211505   5.576   3.787   1.181
 3855TIP3    H111506   5.640   3.836   1.232
 3855TIP3    H211507   5.628   3.722   1.133
 3856TIP3   OH211508   6.513   4.235   2.081
 3856TIP3    H111509   6.428   4.281   2.082
 3856TIP3    H211510   6.548   4.252   1.994
 3857TIP3   OH211511   5.972   4.067   1.453
 3857TIP3    H111512   5.917   4.096   1.526
 3857TIP3    H211513   6.055   4.042   1.494
 3858TIP3   OH211514   6.202   4.100   2.388
 3858TIP3    H111515   6.200   4.183   2.435
 3858TIP3    H211516   6.119   4.097   2.340
 3859TIP3   OH211517   5.199   4.054   1.860
 3859TIP3    H111518   5.162   3.997   1.793
 3859TIP3    H211519   5.273   4.005   1.896
 3860TIP3   OH211520   5.329   4.476   1.995
 3860TIP3    H111521   5.303   4.459   1.905
 3860TIP3    H211522   5.416   4.437   2.004
 3861TIP3   OH211523   5.306   4.045   2.229
 3861TIP3    H111524   5.343   4.010   2.148
 3861TIP3    H211525   5.355   4.126   2.245
 3862TIP3   OH211526   5.860   4.678   2.007
 3862TIP3    H111527   5.844   4.758   2.058
 3862TIP3    H211528   5.842   4.607   2.069
 3863TIP3   OH211529   5.472   4.585   2.550
 3863TIP3    H111530   5.413   4.644   2.597
 3863TIP3    H211531   5.415   4.533   2.494
 3864TIP3   OH211532   5.803   3.928   1.285
 3864TIP3    H111533   5.862   3.987   1.332
 3864TIP3    H211534   5.828   3.936   1.193
 3865TIP3   OH211535   5.230   4.132   2.685
 3865TIP3    H111536   5.234   4.224   2.708
 3865TIP3    H211537   5.136   4.113   2.679
 3866TIP3   OH211538   5.550   4.594   1.554
 3866TIP3    H111539   5.628   4.649   1.554
 3866TIP3    H211540   5.488   4.639   1.496
 3867TIP3   OH211541   5.263   4.745   2.636
 3867TIP3    H111542   5.237   4.753   2.544
 3867TIP3    H211543   5.182   4.728   2.683
 3868TIP3   OH211544   6.315   3.160   1.338
 3868TIP3    H111545   6.237   3.179   1.391
 3868TIP3    H211546   6.327   3.238   1.285
 3869TIP3   OH211547   5.073   3.897   1.660
 3869TIP3    H111548   5.000   3.946   1.621
 3869TIP3    H211549   5.037   3.810   1.677
 3870TIP3   OH211550   6.119   4.500   0.910
 3870TIP3    H111551   6.125   4.595   0.921
 3870TIP3    H211552   6.206   4.468   0.935
 3871TIP3   OH211553   4.853   4.295   2.585
 3871TIP3    H111554   4.784   4.278   2.520
 3871TIP3    H211555   4.888   4.208   2.606
 3872TIP3   OH211556   4.704   4.485   2.226
 3872TIP3    H111557   4.799   4.495   2.226
 3872TIP3    H211558   4.671   4.563   2.268
 3873TIP3   OH211559   6.559   4.942   2.282
 3873TIP3    H111560   6.564   4.847   2.295
 3873TIP3    H211561   6.479   4.968   2.329
 3874TIP3   OH211562   5.662   4.724   2.409
 3874TIP3    H111563   5.657   4.815   2.438
 3874TIP3    H211564   5.595   4.679   2.460
 3875TIP3   OH211565   5.428   4.822   1.370
 3875TIP3    H111566   5.386   4.791   1.290
 3875TIP3    H211567   5.382   4.903   1.392
 3876TIP3   OH211568   4.873   4.683   1.746
 3876TIP3    H111569   4.919   4.674   1.829
 3876TIP3    H211570   4.827   4.600   1.735
 3877TIP3   OH211571   5.624   4.748   1.034
 3877TIP3    H111572   5.687   4.683   1.004
 3877TIP3    H211573   5.651   4.767   1.125
 3878TIP3   OH211574   5.686   4.801   1.294
 3878TIP3    H111575   5.597   4.803   1.327
 3878TIP3    H211576   5.737   4.760   1.365
 3879TIP3   OH211577   6.446   4.060   2.557
 3879TIP3    H111578   6.365   4.070   2.508
 3879TIP3    H211579   6.466   3.966   2.553
 3880TIP3   OH211580   5.056   4.479   2.557
 3880TIP3    H111581   5.105   4.467   2.638
 3880TIP3    H211582   4.983   4.417   2.564
 3881TIP3   OH211583   5.442   3.293   2.365
 3881TIP3    H111584   5.359   3.261   2.333
 3881TIP3    H211585   5.421   3.373   2.413
 3882TIP3   OH211586   5.985   3.409   2.563
 3882TIP3    H111587   6.054   3.385   2.625
 3882TIP3    H211588   5.903   3.392   2.611
 3883TIP3   OH211589   6.206   3.835   2.478
 3883TIP3    H111590   6.164   3.832   2.564
 3883TIP3    H211591   6.190   3.924   2.447
 3884TIP3   OH211592   5.876   3.918   1.024
 3884TIP3    H111593   5.832   3.908   0.940
 3884TIP3    H211594   5.957   3.964   1.002
 3885TIP3   OH211595   5.591   3.333   1.333
 3885TIP3    H111596   5.556   3.340   1.422
 3885TIP3    H211597   5.555   3.252   1.298
 3886TIP3   OH211598   5.380   3.822   2.376
 3886TIP3    H111599   5.333   3.830   2.459
 3886TIP3    H211600   5.360   3.903   2.329
 3887TIP3   OH211601   5.263   3.702   1.894
 3887TIP3    H111602   5.173   3.680   1.918
 3887TIP3    H211603   5.272   3.668   1.805
 3888TIP3   OH211604   5.744   3.778   1.622
 3888TIP3    H111605   5.696   3.851   1.583
 3888TIP3    H211606   5.801   3.746   1.552
 3889TIP3   OH211607   5.927   4.047   2.699
 3889TIP3    H111608   5.900   3.980   2.760
 3889TIP3    H211609   6.020   4.062   2.719
 3890TIP3   OH211610   5.909   3.795   1.849
 3890TIP3    H111611   5.841   3.821   1.786
 3890TIP3    H211612   5.953   3.721   1.808
 3891TIP3   OH211613   5.213   3.838   2.595
 3891TIP3    H111614   5.229   3.902   2.664
 3891TIP3    H211615   5.195   3.756   2.642
 3892TIP3   OH211616   5.256   3.315   1.305
 3892TIP3    H111617   5.247   3.320   1.400
 3892TIP3    H211618   5.180   3.364   1.271
 3893TIP3   OH211619   4.803   3.358   2.176
 3893TIP3    H111620   4.874   3.394   2.229
 3893TIP3    H211621   4.843   3.342   2.090
 3894TIP3   OH211622   4.724   3.337   1.681
 3894TIP3    H111623   4.769   3.373   1.604
 3894TIP3    H211624   4.662   3.405   1.706
 3895TIP3   OH211625   5.944   4.046   2.275
 3895TIP3    H111626   5.970   3.979   2.212
 3895TIP3    H211627   5.902   3.997   2.346
 3896TIP3   OH211628   5.620   3.496   1.947
 3896TIP3    H111629   5.542   3.497   2.002
 3896TIP3    H211630   5.693   3.489   2.009
 3897TIP3   OH211631   5.023   3.578   1.956
 3897TIP3    H111632   4.934   3.583   1.921
 3897TIP3    H211633   5.052   3.489   1.938
 3898TIP3   OH211634   5.278   3.576   1.650
 3898TIP3    H111635   5.372   3.589   1.636
 3898TIP3    H211636   5.239   3.595   1.565
 3899TIP3   OH211637   6.078   3.583   2.153
 3899TIP3    H111638   6.058   3.600   2.245
 3899TIP3    H211639   6.009   3.523   2.124
 3900TIP3   OH211640   5.154   3.600   1.407
 3900TIP3    H111641   5.089   3.554   1.354
 3900TIP3    H211642   5.207   3.648   1.344
 3901TIP3   OH211643   6.269   5.287   2.378
 3901TIP3    H111644   6.266   5.306   2.284
 3901TIP3    H211645   6.347   5.332   2.410
 3902TIP3   OH211646   5.214   4.394   2.790
 3902TIP3    H111647   5.294   4.417   2.837
 3902TIP3    H211648   5.145   4.400   2.856
 3903TIP3   OH211649   5.674   3.859   2.054
 3903TIP3    H111650   5.742   3.811   2.007
 3903TIP3    H211651   5.673   3.819   2.141
 3904TIP3   OH211652   5.170   3.331   1.940
 3904TIP3    H111653   5.140   3.255   1.990
 3904TIP3    H211654   5.198   3.294   1.856
 3905TIP3   OH211655   5.647   3.764   2.323
 3905TIP3    H111656   5.560   3.796   2.344
 3905TIP3    H211657   5.706   3.817   2.376
 3906TIP3   OH211658   5.389   4.125   1.426
 3906TIP3    H111659   5.311   4.074   1.404
 3906TIP3    H211660   5.367   4.168   1.508
 3907TIP3   OH211661   6.275   4.373   2.044
 3907TIP3    H111662   6.309   4.422   1.969
 3907TIP3    H211663   6.194   4.334   2.011
 3908TIP3   OH211664   5.844   3.438   1.322
 3908TIP3    H111665   5.750   3.417   1.324
 3908TIP3    H211666   5.847   3.532   1.340
 3909TIP3   OH211667   5.785   4.457   2.446
 3909TIP3    H111668   5.832   4.448   2.529
 3909TIP3    H211669   5.744   4.543   2.450
 3910TIP3   OH211670   5.906   3.697   1.405
 3910TIP3    H111671   6.001   3.704   1.416
 3910TIP3    H211672   5.882   3.776   1.356
 3911TIP3   OH211673   5.072   4.142   2.090
 3911TIP3    H111674   5.109   4.123   2.003
 3911TIP3    H211675   5.137   4.108   2.151
 3912TIP3   OH211676   5.569   4.285   1.278
 3912TIP3    H111677   5.516   4.365   1.271
 3912TIP3    H211678   5.510   4.220   1.314
 3913TIP3   OH211679   4.957   4.066   2.716
 3913TIP3    H111680   4.964   4.046   2.810
 3913TIP3    H211681   4.883   4.014   2.686
 3914TIP3   OH211682   5.692   4.199   2.736
 3914TIP3    H111683   5.624   4.138   2.706
 3914TIP3    H211684   5.774   4.159   2.707
 3915TIP3   OH211685   5.935   4.738   2.332
 3915TIP3    H111686   5.840   4.726   2.338
 3915TIP3    H211687   5.960   4.779   2.415
 3916TIP3   OH211688   6.331   3.788   1.230
 3916TIP3    H111689   6.277   3.741   1.167
 3916TIP3    H211690   6.333   3.878   1.197
 3917TIP3   OH211691   6.572   4.659   2.309
 3917TIP3    H111692   6.477   4.647   2.304
 3917TIP3    H211693   6.604   4.629   2.225
 3918TIP3   OH211694   6.060   4.584   1.204
 3918TIP3    H111695   6.024   4.539   1.280
 3918TIP3    H211696   6.030   4.532   1.129
 3919TIP3   OH211697   6.042   4.241   1.942
 3919TIP3    H111698   5.952   4.218   1.966
 3919TIP3    H211699   6.078   4.160   1.905
 3920TIP3   OH211700   5.196   4.469   1.744
 3920TIP3    H111701   5.196   4.549   1.690
 3920TIP3    H211702   5.106   4.438   1.740
 3921TIP3   OH211703   4.753   3.763   1.456
 3921TIP3    H111704   4.798   3.845   1.475
 3921TIP3    H211705   4.674   3.765   1.510
 3922TIP3   OH211706   5.314   4.226   1.669
 3922TIP3    H111707   5.287   4.316   1.686
 3922TIP3    H211708   5.274   4.175   1.740
 3923TIP3   OH211709   5.473   4.799   2.204
 3923TIP3    H111710   5.510   4.871   2.154
 3923TIP3    H211711   5.547   4.764   2.254
 3924TIP3   OH211712   5.107   4.703   1.602
 3924TIP3    H111713   5.020   4.704   1.641
 3924TIP3    H211714   5.137   4.793   1.608
 3925TIP3   OH211715   5.829   4.454   2.173
 3925TIP3    H111716   5.817   4.450   2.268
 3925TIP3    H211717   5.905   4.398   2.156
 3926TIP3   OH211718   5.789   4.324   1.081
 3926TIP3    H111719   5.858   4.299   1.143
 3926TIP3    H211720   5.708   4.309   1.130
 3927TIP3   OH211721   6.085   4.963   2.216
 3927TIP3    H111722   6.012   4.901   2.227
 3927TIP3    H211723   6.057   5.020   2.144
 3928TIP3   OH211724   6.154   4.785   0.900
 3928TIP3    H111725   6.160   4.850   0.829
 3928TIP3    H211726   6.089   4.821   0.960
 3929TIP3   OH211727   5.164   3.584   2.720
 3929TIP3    H111728   5.069   3.591   2.727
 3929TIP3    H211729   5.190   3.534   2.798
 3930TIP3   OH211730   5.995   4.250   1.245
 3930TIP3    H111731   5.980   4.197   1.322
 3930TIP3    H211732   6.090   4.258   1.239
 3931TIP3   OH211733   4.902   4.684   2.366
 3931TIP3    H111734   4.952   4.619   2.414
 3931TIP3    H211735   4.918   4.766   2.412
 3932TIP3   OH211736   5.097   4.336   1.361
 3932TIP3    H111737   5.181   4.299   1.332
 3932TIP3    H211738   5.107   4.430   1.352
 3933TIP3   OH211739   4.852   4.012   1.536
 3933TIP3    H111740   4.787   4.059   1.589
 3933TIP3    H211741   4.872   4.073   1.465
 3934TIP3   OH211742   6.017   3.640   2.414
 3934TIP3    H111743   6.093   3.687   2.449
 3934TIP3    H211744   6.007   3.564   2.471
 3935TIP3   OH211745   5.901   3.390   1.597
 3935TIP3    H111746   5.881   3.409   1.505
 3935TIP3    H211747   5.943   3.469   1.629
 3936TIP3   OH211748   5.386   4.486   1.278
 3936TIP3    H111749   5.314   4.534   1.320
 3936TIP3    H211750   5.356   4.472   1.188
 3937TIP3   OH211751   5.559   3.585   1.690
 3937TIP3    H111752   5.621   3.654   1.665
 3937TIP3    H211753   5.578   3.567   1.782
 3938TIP3   OH211754   5.852   3.882   2.477
 3938TIP3    H111755   5.876   3.928   2.557
 3938TIP3    H211756   5.902   3.800   2.480
 3939TIP3   OH211757   5.718   3.287   1.781
 3939TIP3    H111758   5.695   3.364   1.833
 3939TIP3    H211759   5.785   3.319   1.721
 3940TIP3   OH211760   5.145   4.607   1.349
 3940TIP3    H111761   5.114   4.674   1.288
 3940TIP3    H211762   5.130   4.643   1.436
 3941TIP3   OH211763   5.231   3.305   1.584
 3941TIP3    H111764   5.220   3.395   1.614
 3941TIP3    H211765   5.325   3.289   1.590
 3942TIP3   OH211766   6.473   3.790   2.467
 3942TIP3    H111767   6.377   3.792   2.476
 3942TIP3    H211768   6.488   3.742   2.385
 3943TIP3   OH211769   6.134   3.983   1.853
 3943TIP3    H111770   6.056   3.929   1.864
 3943TIP3    H211771   6.201   3.941   1.907
 3944TIP3   OH211772   4.860   4.204   1.329
 3944TIP3    H111773   4.932   4.265   1.348
 3944TIP3    H211774   4.897   4.143   1.266
 3945TIP3   OH211775   4.783   3.485   1.457
 3945TIP3    H111776   4.796   3.580   1.465
 3945TIP3    H211777   4.714   3.476   1.391
 3946TIP3   OH211778   6.114   4.955   1.793
 3946TIP3    H111779   6.071   5.007   1.725
 3946TIP3    H211780   6.207   4.967   1.778
 3947TIP3   OH211781   5.181   3.207   2.325
 3947TIP3    H111782   5.151   3.175   2.239
 3947TIP3    H211783   5.171   3.131   2.383
 3948TIP3   OH211784   4.707   4.453   1.718
 3948TIP3    H111785   4.657   4.488   1.792
 3948TIP3    H211786   4.667   4.495   1.641
 3949TIP3   OH211787   4.896   4.993   2.785
 3949TIP3    H111788   4.979   4.997   2.833
 3949TIP3    H211789   4.877   4.900   2.777
 3950TIP3   OH211790   5.363   4.915   2.829
 3950TIP3    H111791   5.457   4.896   2.836
 3950TIP3    H211792   5.333   4.859   2.758
 3951TIP3   OH211793   5.990   4.849   2.577
 3951TIP3    H111794   5.999   4.779   2.641
 3951TIP3    H211795   6.066   4.906   2.593
 3952TIP3   OH211796   5.821   4.576   0.969
 3952TIP3    H111797   5.807   4.487   1.002
 3952TIP3    H211798   5.847   4.564   0.878
 3953TIP3   OH211799   5.007   4.390   2.978
 3953TIP3    H111800   5.025   4.297   2.987
 3953TIP3    H211801   4.921   4.395   2.937
 3954TIP3   OH211802   4.986   4.006   1.192
 3954TIP3    H111803   5.042   3.987   1.267
 3954TIP3    H211804   5.045   4.008   1.117
 3955TIP3   OH211805   5.626   4.476   2.752
 3955TIP3    H111806   5.581   4.496   2.671
 3955TIP3    H211807   5.659   4.387   2.740
 3956TIP3   OH211808   6.103   4.512   2.369
 3956TIP3    H111809   6.180   4.542   2.322
 3956TIP3    H211810   6.036   4.578   2.353
 3957TIP3   OH211811   5.123   4.132   2.978
 3957TIP3    H111812   5.201   4.113   2.926
 3957TIP3    H211813   5.157   4.154   3.065
 3958TIP3   OH211814   5.176   3.945   1.390
 3958TIP3    H111815   5.158   3.912   1.478
 3958TIP3    H211816   5.220   3.872   1.346
 3959TIP3   OH211817   5.483   4.018   2.638
 3959TIP3    H111818   5.399   4.063   2.646
 3959TIP3    H211819   5.517   4.047   2.553
 3960TIP3   OH211820   5.304   3.750   1.234
 3960TIP3    H111821   5.274   3.750   1.144
 3960TIP3    H211822   5.399   3.761   1.227
 3961TIP3   OH211823   5.984   4.397   2.737
 3961TIP3    H111824   6.051   4.357   2.682
 3961TIP3    H211825   5.979   4.341   2.814
 3962TIP3   OH211826   6.103   4.035   0.910
 3962TIP3    H111827   6.092   3.993   0.825
 3962TIP3    H211828   6.065   4.122   0.900
 3963TIP3   OH211829   5.589   3.790   2.749
 3963TIP3    H111830   5.591   3.718   2.686
 3963TIP3    H211831   5.553   3.864   2.699
 3964TIP3   OH211832   5.596   3.587   2.548
 3964TIP3    H111833   5.623   3.626   2.465
 3964TIP3    H211834   5.504   3.563   2.535
 3965TIP3   OH211835   5.607   4.117   2.418
 3965TIP3    H111836   5.696   4.148   2.401
 3965TIP3    H211837   5.551   4.179   2.372
 3966TIP3   OH211838   6.195   4.076   2.798
 3966TIP3    H111839   6.237   3.991   2.810
 3966TIP3    H211840   6.268   4.134   2.775
 3967TIP3   OH211841   6.229   4.339   2.536
 3967TIP3    H111842   6.174   4.399   2.486
 3967TIP3    H211843   6.318   4.356   2.504
 3968TIP3   OH211844   5.469   3.881   2.989
 3968TIP3    H111845   5.401   3.817   3.009
 3968TIP3    H211846   5.501   3.855   2.902
 3969TIP3   OH211847   5.718   3.353   2.642
 3969TIP3    H111848   5.677   3.434   2.612
 3969TIP3    H211849   5.651   3.286   2.630
 3970TIP3   OH211850   5.845   3.834   2.849
 3970TIP3    H111851   5.835   3.823   2.944
 3970TIP3    H211852   5.759   3.813   2.814
 3971TIP3   OH211853   6.087   3.787   2.715
 3971TIP3    H111854   6.010   3.788   2.771
 3971TIP3    H211855   6.159   3.761   2.773
 3972TIP3   OH211856   6.325   3.747   2.862
 3972TIP3    H111857   6.338   3.653   2.872
 3972TIP3    H211858   6.319   3.780   2.952
 3973TIP3   OH211859   5.305   3.659   3.052
 3973TIP3    H111860   5.311   3.570   3.017
 3973TIP3    H211861   5.342   3.654   3.140
 3974TIP3   OH211862   5.790   3.338   2.908
 3974TIP3    H111863   5.860   3.273   2.902
 3974TIP3    H211864   5.757   3.347   2.818
 3975TIP3   OH211865   5.878   3.557   3.052
 3975TIP3    H111866   5.848   3.485   2.996
 3975TIP3    H211867   5.805   3.619   3.052
 3976TIP3   OH211868   5.107   4.821   1.172
 3976TIP3    H111869   5.196   4.794   1.151
 3976TIP3    H211870   5.075   4.864   1.092
 3977TIP3   OH211871   4.590   4.181   1.349
 3977TIP3    H111872   4.684   4.198   1.344
 3977TIP3    H211873   4.579   4.094   1.310
 3978TIP3   OH211874   4.502   4.776   1.798
 3978TIP3    H111875   4.438   4.721   1.752
 3978TIP3    H211876   4.546   4.716   1.858
 3979TIP3   OH211877   4.641   4.610   1.971
 3979TIP3    H111878   4.630   4.542   2.036
 3979TIP3    H211879   4.694   4.677   2.014
 3980TIP3   OH211880   6.384   5.010   1.780
 3980TIP3    H111881   6.401   5.039   1.870
 3980TIP3    H211882   6.436   5.069   1.726
 3981TIP3   OH211883   6.400   5.043   2.060
 3981TIP3    H111884   6.352   4.960   2.055
 3981TIP3    H211885   6.470   5.026   2.123
 3982TIP3   OH211886   6.449   4.740   2.632
 3982TIP3    H111887   6.379   4.749   2.696
 3982TIP3    H211888   6.494   4.825   2.633
 3983TIP3   OH211889   6.273   4.242   1.250
 3983TIP3    H111890   6.332   4.315   1.232
 3983TIP3    H211891   6.311   4.198   1.325
 3984TIP3   OH211892   6.401   4.103   1.449
 3984TIP3    H111893   6.333   4.066   1.506
 3984TIP3    H211894   6.464   4.143   1.508
 3985TIP3   OH211895   6.448   4.512   1.876
 3985TIP3    H111896   6.501   4.444   1.833
 3985TIP3    H211897   6.448   4.584   1.813
 3986TIP3   OH211898   6.259   4.803   2.066
 3986TIP3    H111899   6.191   4.845   2.118
 3986TIP3    H211900   6.212   4.760   1.995
 3987TIP3   OH211901   6.313   4.024   1.088
 3987TIP3    H111902   6.240   4.022   1.026
 3987TIP3    H211903   6.297   4.101   1.142
 3988TIP3   OH211904   6.186   3.679   1.028
 3988TIP3    H111905   6.127   3.719   0.964
 3988TIP3    H211906   6.171   3.585   1.019
 3989TIP3   OH211907   6.198   3.969   1.585
 3989TIP3    H111908   6.203   3.875   1.572
 3989TIP3    H211909   6.180   3.981   1.678
 3990TIP3   OH211910   4.822   4.036   2.348
 3990TIP3    H111911   4.813   4.004   2.258
 3990TIP3    H211912   4.916   4.035   2.364
 3991TIP3   OH211913   6.486   4.392   2.442
 3991TIP3    H111914   6.551   4.325   2.425
 3991TIP3    H211915   6.503   4.459   2.376
 3992TIP3   OH211916   6.660   4.180   2.434
 3992TIP3    H111917   6.587   4.139   2.480
 3992TIP3    H211918   6.735   4.124   2.455
 3993TIP3   OH211919   6.131   3.410   1.005
 3993TIP3    H111920   6.195   3.383   1.072
 3993TIP3    H211921   6.050   3.367   1.032
 3994TIP3   OH211922   6.196   3.694   1.467
 3994TIP3    H111923   6.240   3.610   1.480
 3994TIP3    H211924   6.241   3.734   1.393
 3995TIP3   OH211925   6.349   3.857   1.987
 3995TIP3    H111926   6.430   3.876   1.939
 3995TIP3    H211927   6.362   3.897   2.073
 3996TIP3   OH211928   6.423   4.008   2.214
 3996TIP3    H111929   6.349   4.038   2.267
 3996TIP3    H211930   6.455   4.088   2.171
 3997TIP3   OH211931   5.040   3.717   2.994
 3997TIP3    H111932   5.135   3.715   3.011
 3997TIP3    H211933   5.008   3.636   3.035
 3998TIP3   OH211934   6.883   3.609   2.757
 3998TIP3    H111935   6.945   3.549   2.716
 3998TIP3    H211936   6.846   3.659   2.685
 3999TIP3   OH211937   6.309   3.443   1.516
 3999TIP3    H111938   6.354   3.428   1.600
 3999TIP3    H211939   6.245   3.372   1.510
 4000TIP3   OH211940   5.013   3.428   2.344
 4000TIP3    H111941   5.068   3.350   2.349
 4000TIP3    H211942   5.074   3.500   2.329
 4001TIP3   OH211943   4.797   3.693   2.406
 4001TIP3    H111944   4.849   3.686   2.326
 4001TIP3    H211945   4.819   3.779   2.441
 4002TIP3   OH211946   6.735   3.728   2.562
 4002TIP3    H111947   6.655   3.769   2.594
 4002TIP3    H211948   6.704   3.656   2.507
 4003TIP3   OH211949   6.362   3.364   1.160
 4003TIP3    H111950   6.407   3.302   1.103
 4003TIP3    H211951   6.419   3.441   1.162
 4004TIP3   OH211952   4.784   3.195   1.907
 4004TIP3    H111953   4.698   3.187   1.947
 4004TIP3    H211954   4.771   3.253   1.832
 4005TIP3   OH211955   5.953   4.915   1.438
 4005TIP3    H111956   6.019   4.896   1.371
 4005TIP3    H211957   5.990   4.986   1.489
 4006TIP3   OH211958   5.006   3.257   2.726
 4006TIP3    H111959   4.959   3.257   2.809
 4006TIP3    H211960   4.950   3.307   2.666
 4007TIP3   OH211961   5.040   4.711   2.801
 4007TIP3    H111962   4.946   4.693   2.791
 4007TIP3    H211963   5.057   4.700   2.894
 4008TIP3   OH211964   5.244   4.758   2.353
 4008TIP3    H111965   5.192   4.831   2.320
 4008TIP3    H211966   5.329   4.767   2.309
 4009TIP3   OH211967   5.654   4.991   2.488
 4009TIP3    H111968   5.691   4.985   2.576
 4009TIP3    H211969   5.717   5.045   2.439
 4010TIP3   OH211970   5.842   5.147   2.359
 4010TIP3    H111971   5.906   5.093   2.312
 4010TIP3    H211972   5.895   5.204   2.415
 4011TIP3   OH211973   6.643   3.485   2.448
 4011TIP3    H111974   6.556   3.481   2.408
 4011TIP3    H211975   6.676   3.395   2.443
 4012TIP3   OH211976   4.907   5.008   2.396
 4012TIP3    H111977   4.816   5.025   2.374
 4012TIP3    H211978   4.928   5.072   2.463
 4013TIP3   OH211979   5.138   4.989   2.246
 4013TIP3    H111980   5.055   4.996   2.293
 4013TIP3    H211981   5.116   5.013   2.156
 4014TIP3   OH211982   5.557   5.006   2.037
 4014TIP3    H111983   5.485   5.018   1.976
 4014TIP3    H211984   5.568   5.092   2.078
 4015TIP3   OH211985   5.822   4.943   2.089
 4015TIP3    H111986   5.730   4.962   2.070
 4015TIP3    H211987   5.871   5.011   2.042
 4016TIP3   OH211988   6.024   5.123   1.994
 4016TIP3    H111989   6.019   5.209   1.953
 4016TIP3    H211990   6.054   5.064   1.924
 4017TIP3   OH211991   4.819   4.784   2.118
 4017TIP3    H111992   4.843   4.757   2.207
 4017TIP3    H211993   4.890   4.750   2.063
 4018TIP3   OH211994   5.020   4.668   1.979
 4018TIP3    H111995   5.031   4.583   2.023
 4018TIP3    H211996   5.108   4.706   1.979
 4019TIP3   OH211997   5.290   4.755   1.996
 4019TIP3    H111998   5.307   4.662   1.980
 4019TIP3    H211999   5.342   4.776   2.074
 4020TIP3   OH212000   5.852   3.407   2.083
 4020TIP3    H112001   5.813   3.335   2.133
 4020TIP3    H212002   5.921   3.365   2.031
 4021TIP3   OH212003   6.356   3.307   1.971
 4021TIP3    H112004   6.394   3.358   1.900
 4021TIP3    H212005   6.264   3.333   1.975
 4022TIP3   OH212006   6.469   3.392   1.737
 4022TIP3    H112007   6.539   3.333   1.708
 4022TIP3    H212008   6.505   3.480   1.724
 4023TIP3   OH212009   5.093   3.104   2.082
 4023TIP3    H112010   5.003   3.072   2.090
 4023TIP3    H212011   5.146   3.025   2.076
 4024TIP3   OH212012   4.904   3.002   1.734
 4024TIP3    H112013   4.932   3.054   1.659
 4024TIP3    H212014   4.869   3.066   1.796
 4025TIP3   OH212015   5.566   3.144   1.976
 4025TIP3    H112016   5.613   3.192   1.908
 4025TIP3    H212017   5.605   3.173   2.058
 4026TIP3   OH212018   6.068   3.292   1.952
 4026TIP3    H112019   6.078   3.257   1.864
 4026TIP3    H212020   6.070   3.215   2.009
 4027TIP3   OH212021   6.121   3.234   1.520
 4027TIP3    H112022   6.041   3.282   1.542
 4027TIP3    H212023   6.110   3.148   1.560
 4028TIP3   OH212024   4.591   4.575   1.502
 4028TIP3    H112025   4.507   4.539   1.475
 4028TIP3    H212026   4.591   4.665   1.470
 4029TIP3   OH212027   5.017   3.139   1.500
 4029TIP3    H112028   5.063   3.079   1.441
 4029TIP3    H212029   5.086   3.196   1.534
 4030TIP3   OH212030   5.507   3.333   1.596
 4030TIP3    H112031   5.566   3.282   1.652
 4030TIP3    H212032   5.521   3.424   1.623
 4031TIP3   OH212033   5.358   4.741   1.109
 4031TIP3    H112034   5.449   4.743   1.080
 4031TIP3    H212035   5.323   4.658   1.075
 4032TIP3   OH212036   6.119   4.848   1.225
 4032TIP3    H112037   6.107   4.753   1.223
 4032TIP3    H212038   6.060   4.881   1.157
 4033TIP3   OH212039   5.313   3.385   2.966
 4033TIP3    H112040   5.277   3.319   3.025
 4033TIP3    H212041   5.405   3.392   2.991
 4034TIP3   OH212042   5.562   3.389   3.086
 4034TIP3    H112043   5.642   3.368   3.038
 4034TIP3    H212044   5.556   3.321   3.153
 4035TIP3   OH212045   4.700   4.571   1.149
 4035TIP3    H112046   4.703   4.570   1.245
 4035TIP3    H212047   4.784   4.534   1.122
 4036TIP3   OH212048   6.389   3.476   2.878
 4036TIP3    H112049   6.404   3.448   2.968
 4036TIP3    H212050   6.475   3.471   2.836
 4037TIP3   OH212051   6.309   5.013   2.379
 4037TIP3    H112052   6.233   4.983   2.329
 4037TIP3    H212053   6.295   5.107   2.389
 4038TIP3   OH212054   7.593   4.331   1.168
 4038TIP3    H112055   7.569   4.423   1.156
 4038TIP3    H212056   7.524   4.282   1.124
 4039TIP3   OH212057   7.566   4.394   1.521
 4039TIP3    H112058   7.599   4.372   1.608
 4039TIP3    H212059   7.527   4.313   1.489
 4040TIP3   OH212060   6.882   4.263   1.894
 4040TIP3    H112061   6.915   4.206   1.964
 4040TIP3    H212062   6.960   4.295   1.850
 4041TIP3   OH212063   7.843   4.684   1.240
 4041TIP3    H112064   7.837   4.616   1.307
 4041TIP3    H212065   7.876   4.760   1.287
 4042TIP3   OH212066   6.869   4.682   1.595
 4042TIP3    H112067   6.852   4.588   1.596
 4042TIP3    H212068   6.964   4.689   1.585
 4043TIP3   OH212069   6.560   3.885   1.369
 4043TIP3    H112070   6.520   3.968   1.396
 4043TIP3    H212071   6.488   3.835   1.330
 4044TIP3   OH212072   6.631   4.192   1.582
 4044TIP3    H112073   6.681   4.115   1.609
 4044TIP3    H212074   6.697   4.253   1.550
 4045TIP3   OH212075   7.487   5.105   1.258
 4045TIP3    H112076   7.500   5.025   1.207
 4045TIP3    H212077   7.485   5.075   1.349
 4046TIP3   OH212078   7.389   4.616   1.551
 4046TIP3    H112079   7.430   4.535   1.521
 4046TIP3    H212080   7.460   4.669   1.586
 4047TIP3   OH212081   7.804   4.116   1.586
 4047TIP3    H112082   7.832   4.029   1.617
 4047TIP3    H212083   7.759   4.098   1.503
 4048TIP3   OH212084   7.146   3.763   1.550
 4048TIP3    H112085   7.126   3.837   1.493
 4048TIP3    H212086   7.093   3.691   1.518
 4049TIP3   OH212087   7.826   3.861   1.190
 4049TIP3    H112088   7.890   3.849   1.260
 4049TIP3    H212089   7.876   3.895   1.116
 4050TIP3   OH212090   6.773   3.973   1.675
 4050TIP3    H112091   6.856   3.956   1.720
 4050TIP3    H212092   6.778   3.921   1.595
 4051TIP3   OH212093   7.202   4.173   1.485
 4051TIP3    H112094   7.295   4.153   1.495
 4051TIP3    H212095   7.163   4.091   1.452
 4052TIP3   OH212096   7.129   3.763   2.000
 4052TIP3    H112097   7.078   3.799   1.928
 4052TIP3    H212098   7.076   3.778   2.078
 4053TIP3   OH212099   7.485   4.552   1.044
 4053TIP3    H112100   7.432   4.550   0.965
 4053TIP3    H212101   7.457   4.630   1.092
 4054TIP3   OH212102   7.232   4.540   1.769
 4054TIP3    H112103   7.176   4.609   1.805
 4054TIP3    H212104   7.279   4.582   1.696
 4055TIP3   OH212105   8.006   3.863   1.393
 4055TIP3    H112106   7.954   3.849   1.472
 4055TIP3    H212107   8.091   3.894   1.425
 4056TIP3   OH212108   7.017   3.871   1.771
 4056TIP3    H112109   7.072   3.946   1.795
 4056TIP3    H212110   7.064   3.828   1.700
 4057TIP3   OH212111   7.069   4.738   1.874
 4057TIP3    H112112   7.050   4.826   1.842
 4057TIP3    H212113   6.993   4.715   1.928
 4058TIP3   OH212114   6.464   4.426   1.172
 4058TIP3    H112115   6.422   4.435   1.087
 4058TIP3    H212116   6.484   4.516   1.199
 4059TIP3   OH212117   7.891   4.926   1.374
 4059TIP3    H112118   7.804   4.912   1.411
 4059TIP3    H212119   7.889   5.016   1.341
 4060TIP3   OH212120   7.466   3.458   1.724
 4060TIP3    H112121   7.458   3.366   1.749
 4060TIP3    H212122   7.390   3.500   1.765
 4061TIP3   OH212123   7.674   4.959   1.071
 4061TIP3    H112124   7.696   4.872   1.037
 4061TIP3    H212125   7.682   5.017   0.995
 4062TIP3   OH212126   7.742   4.710   0.992
 4062TIP3    H112127   7.692   4.631   0.971
 4062TIP3    H212128   7.783   4.690   1.076
 4063TIP3   OH212129   8.122   4.848   1.695
 4063TIP3    H112130   8.106   4.774   1.637
 4063TIP3    H212131   8.106   4.926   1.641
 4064TIP3   OH212132   7.424   4.223   0.975
 4064TIP3    H112133   7.341   4.269   0.966
 4064TIP3    H212134   7.466   4.231   0.889
 4065TIP3   OH212135   7.389   4.030   0.700
 4065TIP3    H112136   7.463   4.080   0.737
 4065TIP3    H212137   7.431   3.963   0.646
 4066TIP3   OH212138   7.766   4.302   0.958
 4066TIP3    H112139   7.712   4.314   1.036
 4066TIP3    H212140   7.851   4.275   0.991
 4067TIP3   OH212141   7.864   4.333   1.960
 4067TIP3    H112142   7.917   4.411   1.978
 4067TIP3    H212143   7.821   4.352   1.876
 4068TIP3   OH212144   7.003   4.307   1.346
 4068TIP3    H112145   6.965   4.244   1.285
 4068TIP3    H212146   7.075   4.261   1.388
 4069TIP3   OH212147   7.131   4.729   1.492
 4069TIP3    H112148   7.102   4.707   1.403
 4069TIP3    H212149   7.218   4.690   1.498
 4070TIP3   OH212150   7.105   4.303   1.714
 4070TIP3    H112151   7.144   4.268   1.634
 4070TIP3    H212152   7.155   4.383   1.732
 4071TIP3   OH212153   7.644   4.921   1.486
 4071TIP3    H112154   7.628   5.002   1.534
 4071TIP3    H212155   7.633   4.851   1.551
 4072TIP3   OH212156   7.268   4.844   2.035
 4072TIP3    H112157   7.209   4.901   2.084
 4072TIP3    H212158   7.211   4.790   1.980
 4073TIP3   OH212159   7.606   4.206   0.757
 4073TIP3    H112160   7.665   4.248   0.820
 4073TIP3    H212161   7.612   4.260   0.679
 4074TIP3   OH212162   7.025   4.393   2.166
 4074TIP3    H112163   7.029   4.485   2.192
 4074TIP3    H212164   6.931   4.373   2.163
 4075TIP3   OH212165   7.192   4.894   1.134
 4075TIP3    H112166   7.278   4.857   1.151
 4075TIP3    H212167   7.205   4.954   1.061
 4076TIP3   OH212168   7.057   5.000   2.124
 4076TIP3    H112169   7.028   5.006   2.033
 4076TIP3    H212170   6.977   4.982   2.174
 4077TIP3   OH212171   6.883   4.141   1.151
 4077TIP3    H112172   6.800   4.181   1.127
 4077TIP3    H212173   6.861   4.050   1.172
 4078TIP3   OH212174   6.649   4.552   2.071
 4078TIP3    H112175   6.580   4.534   2.008
 4078TIP3    H212176   6.684   4.466   2.094
 4079TIP3   OH212177   6.496   4.745   1.720
 4079TIP3    H112178   6.591   4.759   1.729
 4079TIP3    H212179   6.457   4.824   1.759
 4080TIP3   OH212180   8.329   5.225   1.766
 4080TIP3    H112181   8.388   5.235   1.841
 4080TIP3    H212182   8.241   5.227   1.804
 4081TIP3   OH212183   7.458   4.981   1.894
 4081TIP3    H112184   7.456   5.072   1.925
 4081TIP3    H212185   7.393   4.936   1.947
 4082TIP3   OH212186   7.248   5.079   0.938
 4082TIP3    H112187   7.169   5.069   0.885
 4082TIP3    H212188   7.242   5.169   0.972
 4083TIP3   OH212189   6.657   4.930   1.252
 4083TIP3    H112190   6.709   4.923   1.332
 4083TIP3    H212191   6.613   4.845   1.245
 4084TIP3   OH212192   7.439   5.063   0.729
 4084TIP3    H112193   7.380   5.037   0.801
 4084TIP3    H212194   7.506   4.994   0.727
 4085TIP3   OH212195   8.187   4.250   2.110
 4085TIP3    H112196   8.145   4.252   2.024
 4085TIP3    H212197   8.256   4.184   2.102
 4086TIP3   OH212198   6.851   4.736   2.044
 4086TIP3    H112199   6.901   4.725   2.125
 4086TIP3    H212200   6.779   4.674   2.051
 4087TIP3   OH212201   7.234   3.551   1.852
 4087TIP3    H112202   7.150   3.519   1.820
 4087TIP3    H212203   7.213   3.631   1.900
 4088TIP3   OH212204   7.757   3.670   2.046
 4088TIP3    H112205   7.827   3.639   2.103
 4088TIP3    H212206   7.676   3.655   2.096
 4089TIP3   OH212207   8.003   4.098   1.941
 4089TIP3    H112208   7.949   4.102   2.020
 4089TIP3    H212209   7.977   4.175   1.891
 4090TIP3   OH212210   7.396   3.607   0.827
 4090TIP3    H112211   7.360   3.610   0.916
 4090TIP3    H212212   7.360   3.527   0.790
 4091TIP3   OH212213   7.174   4.079   1.862
 4091TIP3    H112214   7.129   4.088   1.945
 4091TIP3    H212215   7.155   4.160   1.815
 4092TIP3   OH212216   7.056   3.960   1.383
 4092TIP3    H112217   6.967   3.935   1.408
 4092TIP3    H212218   7.067   3.923   1.295
 4093TIP3   OH212219   7.540   4.018   1.107
 4093TIP3    H112220   7.491   4.088   1.064
 4093TIP3    H212221   7.602   3.989   1.041
 4094TIP3   OH212222   7.689   4.311   2.194
 4094TIP3    H112223   7.685   4.238   2.257
 4094TIP3    H212224   7.783   4.320   2.176
 4095TIP3   OH212225   7.694   4.060   1.341
 4095TIP3    H112226   7.629   4.089   1.276
 4095TIP3    H212227   7.732   3.981   1.303
 4096TIP3   OH212228   7.008   4.093   2.082
 4096TIP3    H112229   7.032   4.155   2.151
 4096TIP3    H212230   6.990   4.011   2.128
 4097TIP3   OH212231   7.050   3.584   0.795
 4097TIP3    H112232   7.039   3.582   0.890
 4097TIP3    H212233   6.971   3.627   0.762
 4098TIP3   OH212234   6.598   3.615   1.661
 4098TIP3    H112235   6.669   3.651   1.713
 4098TIP3    H212236   6.637   3.594   1.576
 4099TIP3   OH212237   6.523   3.592   1.171
 4099TIP3    H112238   6.568   3.625   1.094
 4099TIP3    H212239   6.461   3.662   1.194
 4100TIP3   OH212240   7.675   4.294   1.752
 4100TIP3    H112241   7.731   4.240   1.696
 4100TIP3    H212242   7.657   4.238   1.828
 4101TIP3   OH212243   7.407   3.759   1.435
 4101TIP3    H112244   7.329   3.759   1.491
 4101TIP3    H212245   7.480   3.747   1.496
 4102TIP3   OH212246   6.820   3.834   1.443
 4102TIP3    H112247   6.730   3.839   1.408
 4102TIP3    H212248   6.847   3.744   1.426
 4103TIP3   OH212249   7.068   3.833   1.140
 4103TIP3    H112250   7.162   3.845   1.127
 4103TIP3    H212251   7.029   3.852   1.055
 4104TIP3   OH212252   7.840   3.840   1.612
 4104TIP3    H112253   7.843   3.850   1.707
 4104TIP3    H212254   7.765   3.782   1.596
 4105TIP3   OH212255   6.942   3.861   0.899
 4105TIP3    H112256   6.878   3.815   0.846
 4105TIP3    H212257   6.999   3.904   0.836
 4106TIP3   OH212258   8.045   5.554   1.874
 4106TIP3    H112259   8.042   5.561   1.778
 4106TIP3    H212260   8.123   5.602   1.900
 4107TIP3   OH212261   7.010   4.653   2.276
 4107TIP3    H112262   7.090   4.674   2.323
 4107TIP3    H212263   6.941   4.659   2.342
 4108TIP3   OH212264   7.467   4.110   1.537
 4108TIP3    H112265   7.538   4.064   1.492
 4108TIP3    H212266   7.468   4.075   1.626
 4109TIP3   OH212267   6.966   3.586   1.427
 4109TIP3    H112268   6.935   3.512   1.478
 4109TIP3    H212269   6.994   3.549   1.343
 4110TIP3   OH212270   7.442   4.021   1.809
 4110TIP3    H112271   7.354   4.052   1.831
 4110TIP3    H212272   7.500   4.069   1.867
 4111TIP3   OH212273   7.196   4.366   0.934
 4111TIP3    H112274   7.122   4.314   0.902
 4111TIP3    H212275   7.163   4.410   1.012
 4112TIP3   OH212276   8.059   4.622   1.545
 4112TIP3    H112277   8.110   4.654   1.471
 4112TIP3    H212278   7.981   4.583   1.506
 4113TIP3   OH212279   7.646   3.708   0.806
 4113TIP3    H112280   7.554   3.684   0.810
 4113TIP3    H212281   7.647   3.802   0.824
 4114TIP3   OH212282   7.590   4.713   1.937
 4114TIP3    H112283   7.632   4.691   2.020
 4114TIP3    H212284   7.548   4.797   1.953
 4115TIP3   OH212285   7.703   3.968   0.888
 4115TIP3    H112286   7.797   3.970   0.907
 4115TIP3    H212287   7.688   4.047   0.835
 4116TIP3   OH212288   6.871   4.395   1.575
 4116TIP3    H112289   6.909   4.378   1.489
 4116TIP3    H212290   6.935   4.361   1.637
 4117TIP3   OH212291   7.354   4.531   0.785
 4117TIP3    H112292   7.305   4.542   0.703
 4117TIP3    H212293   7.302   4.468   0.835
 4118TIP3   OH212294   6.754   4.326   2.205
 4118TIP3    H112295   6.764   4.306   2.298
 4118TIP3    H212296   6.680   4.272   2.176
 4119TIP3   OH212297   7.467   4.464   2.226
 4119TIP3    H112298   7.401   4.402   2.194
 4119TIP3    H212299   7.551   4.423   2.205
 4120TIP3   OH212300   7.725   4.987   1.809
 4120TIP3    H112301   7.631   4.974   1.814
 4120TIP3    H212302   7.749   5.022   1.895
 4121TIP3   OH212303   8.363   4.906   1.826
 4121TIP3    H112304   8.279   4.913   1.781
 4121TIP3    H212305   8.424   4.955   1.770
 4122TIP3   OH212306   7.828   4.493   1.440
 4122TIP3    H112307   7.738   4.470   1.463
 4122TIP3    H212308   7.866   4.413   1.405
 4123TIP3   OH212309   7.006   4.728   1.241
 4123TIP3    H112310   7.063   4.793   1.200
 4123TIP3    H212311   6.917   4.761   1.227
 4124TIP3   OH212312   6.550   4.006   0.950
 4124TIP3    H112313   6.597   4.083   0.981
 4124TIP3    H212314   6.466   4.009   0.996
 4125TIP3   OH212315   7.068   4.482   1.142
 4125TIP3    H112316   7.053   4.570   1.176
 4125TIP3    H212317   7.050   4.424   1.217
 4126TIP3   OH212318   7.266   5.046   1.701
 4126TIP3    H112319   7.302   5.122   1.655
 4126TIP3    H212320   7.340   5.012   1.752
 4127TIP3   OH212321   6.876   4.955   1.097
 4127TIP3    H112322   6.792   4.959   1.143
 4127TIP3    H212323   6.909   5.045   1.100
 4128TIP3   OH212324   7.628   4.707   1.664
 4128TIP3    H112325   7.614   4.707   1.759
 4128TIP3    H212326   7.706   4.653   1.652
 4129TIP3   OH212327   7.566   4.521   0.607
 4129TIP3    H112328   7.645   4.518   0.661
 4129TIP3    H212329   7.494   4.517   0.669
 4130TIP3   OH212330   7.860   5.212   1.726
 4130TIP3    H112331   7.801   5.138   1.740
 4130TIP3    H212332   7.824   5.258   1.649
 4131TIP3   OH212333   6.960   3.840   2.208
 4131TIP3    H112334   6.865   3.847   2.214
 4131TIP3    H212335   6.986   3.791   2.286
 4132TIP3   OH212336   7.773   4.506   0.778
 4132TIP3    H112337   7.771   4.441   0.849
 4132TIP3    H212338   7.866   4.514   0.756
 4133TIP3   OH212339   6.699   4.938   1.854
 4133TIP3    H112340   6.750   4.872   1.902
 4133TIP3    H212341   6.714   5.019   1.901
 4134TIP3   OH212342   6.905   4.510   0.568
 4134TIP3    H112343   6.922   4.425   0.528
 4134TIP3    H212344   6.982   4.528   0.622
 4135TIP3   OH212345   6.887   4.518   0.919
 4135TIP3    H112346   6.935   4.489   0.997
 4135TIP3    H212347   6.953   4.557   0.863
 4136TIP3   OH212348   6.644   4.243   1.064
 4136TIP3    H112349   6.585   4.287   1.126
 4136TIP3    H212350   6.649   4.302   0.989
 4137TIP3   OH212351   7.822   3.877   1.878
 4137TIP3    H112352   7.863   3.944   1.933
 4137TIP3    H212353   7.791   3.811   1.941
 4138TIP3   OH212354   7.684   3.646   1.082
 4138TIP3    H112355   7.673   3.665   0.989
 4138TIP3    H212356   7.725   3.725   1.118
 4139TIP3   OH212357   7.213   4.856   0.766
 4139TIP3    H112358   7.128   4.852   0.809
 4139TIP3    H212359   7.198   4.913   0.690
 4140TIP3   OH212360   7.345   3.842   1.180
 4140TIP3    H112361   7.413   3.905   1.153
 4140TIP3    H212362   7.364   3.825   1.272
 4141TIP3   OH212363   7.627   4.141   1.978
 4141TIP3    H112364   7.638   4.214   2.040
 4141TIP3    H212365   7.692   4.076   2.006
 4142TIP3   OH212366   7.507   3.550   1.272
 4142TIP3    H112367   7.486   3.628   1.325
 4142TIP3    H212368   7.575   3.580   1.212
 4143TIP3   OH212369   6.953   4.840   0.871
 4143TIP3    H112370   6.954   4.924   0.825
 4143TIP3    H212371   6.933   4.863   0.962
 4144TIP3   OH212372   7.026   3.562   1.073
 4144TIP3    H112373   7.015   3.652   1.106
 4144TIP3    H212374   7.120   3.546   1.079
 4145TIP3   OH212375   7.916   4.243   1.349
 4145TIP3    H112376   7.835   4.194   1.339
 4145TIP3    H212377   7.949   4.217   1.435
 4146TIP3   OH212378   6.643   4.415   0.847
 4146TIP3    H112379   6.711   4.473   0.881
 4146TIP3    H212380   6.690   4.353   0.792
 4147TIP3   OH212381   6.584   3.732   0.945
 4147TIP3    H112382   6.594   3.827   0.957
 4147TIP3    H212383   6.512   3.723   0.882
 4148TIP3   OH212384   7.904   5.196   1.324
 4148TIP3    H112385   7.855   5.204   1.242
 4148TIP3    H212386   7.996   5.197   1.297
 4149TIP3   OH212387   6.975   3.462   1.812
 4149TIP3    H112388   6.946   3.430   1.727
 4149TIP3    H212389   6.965   3.388   1.871
 4150TIP3   OH212390   6.502   4.697   1.231
 4150TIP3    H112391   6.454   4.735   1.305
 4150TIP3    H212392   6.464   4.738   1.154
 4151TIP3   OH212393   6.692   5.250   2.273
 4151TIP3    H112394   6.774   5.255   2.323
 4151TIP3    H212395   6.672   5.157   2.267
 4152TIP3   OH212396   7.159   5.176   2.311
 4152TIP3    H112397   7.250   5.150   2.325
 4152TIP3    H212398   7.128   5.117   2.242
 4153TIP3   OH212399   7.779   5.094   2.052
 4153TIP3    H112400   7.784   5.030   2.122
 4153TIP3    H212401   7.848   5.158   2.073
 4154TIP3   OH212402   6.803   4.645   2.464
 4154TIP3    H112403   6.822   4.552   2.474
 4154TIP3    H212404   6.717   4.648   2.424
 4155TIP3   OH212405   6.793   4.247   0.695
 4155TIP3    H112406   6.854   4.230   0.767
 4155TIP3    H212407   6.849   4.254   0.618
 4156TIP3   OH212408   7.418   4.740   2.242
 4156TIP3    H112409   7.374   4.760   2.159
 4156TIP3    H212410   7.451   4.651   2.232
 4157TIP3   OH212411   7.261   4.477   0.522
 4157TIP3    H112412   7.341   4.506   0.478
 4157TIP3    H212413   7.262   4.381   0.511
 4158TIP3   OH212414   7.906   4.776   1.855
 4158TIP3    H112415   7.981   4.801   1.801
 4158TIP3    H212416   7.837   4.838   1.830
 4159TIP3   OH212417   6.922   4.387   2.466
 4159TIP3    H112418   7.001   4.369   2.416
 4159TIP3    H212419   6.954   4.411   2.553
 4160TIP3   OH212420   6.982   4.197   0.891
 4160TIP3    H112421   6.957   4.169   0.979
 4160TIP3    H212422   7.025   4.120   0.852
 4161TIP3   OH212423   7.273   4.272   2.121
 4161TIP3    H112424   7.190   4.321   2.128
 4161TIP3    H212425   7.311   4.300   2.038
 4162TIP3   OH212426   7.110   4.004   0.737
 4162TIP3    H112427   7.082   4.005   0.646
 4162TIP3    H212428   7.206   4.005   0.733
 4163TIP3   OH212429   7.755   4.663   2.239
 4163TIP3    H112430   7.849   4.669   2.220
 4163TIP3    H212431   7.748   4.591   2.302
 4164TIP3   OH212432   7.375   4.045   2.237
 4164TIP3    H112433   7.382   3.974   2.173
 4164TIP3    H212434   7.343   4.120   2.186
 4165TIP3   OH212435   7.389   3.844   2.036
 4165TIP3    H112436   7.418   3.883   1.953
 4165TIP3    H212437   7.298   3.821   2.021
 4166TIP3   OH212438   7.400   4.366   1.901
 4166TIP3    H112439   7.489   4.378   1.869
 4166TIP3    H212440   7.349   4.435   1.858
 4167TIP3   OH212441   7.974   4.305   2.290
 4167TIP3    H112442   8.041   4.259   2.238
 4167TIP3    H212443   7.998   4.397   2.284
 4168TIP3   OH212444   8.005   4.559   1.990
 4168TIP3    H112445   7.946   4.622   1.949
 4168TIP3    H212446   8.092   4.586   1.962
 4169TIP3   OH212447   7.261   4.136   2.476
 4169TIP3    H112448   7.193   4.072   2.497
 4169TIP3    H212449   7.292   4.112   2.389
 4170TIP3   OH212450   7.501   3.608   2.136
 4170TIP3    H112451   7.461   3.689   2.105
 4170TIP3    H212452   7.434   3.541   2.122
 4171TIP3   OH212453   7.634   4.078   2.331
 4171TIP3    H112454   7.629   4.069   2.426
 4171TIP3    H212455   7.544   4.063   2.301
 4172TIP3   OH212456   7.832   4.020   2.146
 4172TIP3    H112457   7.758   4.034   2.205
 4172TIP3    H212458   7.907   4.005   2.204
 4173TIP3   OH212459   8.019   3.993   2.340
 4173TIP3    H112460   8.047   3.920   2.395
 4173TIP3    H212461   8.003   4.064   2.401
 4174TIP3   OH212462   7.099   3.915   2.541
 4174TIP3    H112463   7.106   3.826   2.505
 4174TIP3    H212464   7.137   3.909   2.628
 4175TIP3   OH212465   7.583   3.591   2.398
 4175TIP3    H112466   7.650   3.523   2.394
 4175TIP3    H212467   7.550   3.598   2.308
 4176TIP3   OH212468   7.669   3.810   2.540
 4176TIP3    H112469   7.642   3.737   2.484
 4176TIP3    H212470   7.595   3.870   2.538
 4177TIP3   OH212471   6.866   5.019   0.532
 4177TIP3    H112472   6.910   5.104   0.539
 4177TIP3    H212473   6.774   5.040   0.514
 4178TIP3   OH212474   6.377   4.393   0.910
 4178TIP3    H112475   6.469   4.411   0.888
 4178TIP3    H212476   6.356   4.313   0.863
 4179TIP3   OH212477   6.301   5.033   1.302
 4179TIP3    H112478   6.239   4.973   1.259
 4179TIP3    H212479   6.350   4.977   1.362
 4180TIP3   OH212480   6.441   4.864   1.468
 4180TIP3    H112481   6.430   4.797   1.535
 4180TIP3    H212482   6.496   4.930   1.510
 4181TIP3   OH212483   8.176   5.190   1.294
 4181TIP3    H112484   8.199   5.227   1.380
 4181TIP3    H212485   8.250   5.134   1.272
 4182TIP3   OH212486   8.191   5.313   1.546
 4182TIP3    H112487   8.134   5.237   1.553
 4182TIP3    H212488   8.256   5.301   1.616
 4183TIP3   OH212489   8.170   5.037   2.052
 4183TIP3    H112490   8.105   5.026   2.121
 4183TIP3    H212491   8.217   5.117   2.076
 4184TIP3   OH212492   8.043   4.525   0.753
 4184TIP3    H112493   8.065   4.618   0.742
 4184TIP3    H212494   8.114   4.490   0.807
 4185TIP3   OH212495   8.191   4.751   1.342
 4185TIP3    H112496   8.272   4.738   1.293
 4185TIP3    H212497   8.158   4.836   1.311
 4186TIP3   OH212498   8.046   5.076   1.565
 4186TIP3    H112499   7.980   5.110   1.625
 4186TIP3    H212500   7.996   5.032   1.497
 4187TIP3   OH212501   7.987   4.208   1.083
 4187TIP3    H112502   8.005   4.114   1.090
 4187TIP3    H212503   7.981   4.239   1.173
 4188TIP3   OH212504   6.618   4.295   1.835
 4188TIP3    H112505   6.609   4.262   1.746
 4188TIP3    H212506   6.712   4.294   1.852
 4189TIP3   OH212507   8.232   4.677   1.912
 4189TIP3    H112508   8.321   4.655   1.939
 4189TIP3    H212509   8.240   4.763   1.870
 4190TIP3   OH212510   7.981   3.931   0.968
 4190TIP3    H112511   8.012   3.841   0.964
 4190TIP3    H212512   8.045   3.981   0.917
 4191TIP3   OH212513   8.234   4.223   1.586
 4191TIP3    H112514   8.149   4.238   1.629
 4191TIP3    H212515   8.280   4.306   1.597
 4192TIP3   OH212516   6.836   3.973   2.481
 4192TIP3    H112517   6.930   3.971   2.498
 4192TIP3    H212518   6.803   3.892   2.521
 4193TIP3   OH212519   6.808   3.684   1.828
 4193TIP3    H112520   6.864   3.606   1.834
 4193TIP3    H212521   6.870   3.756   1.814
 4194TIP3   OH212522   6.594   3.947   1.893
 4194TIP3    H112523   6.645   3.942   1.813
 4194TIP3    H212524   6.618   4.032   1.931
 4195TIP3   OH212525   6.581   3.454   1.399
 4195TIP3    H112526   6.494   3.445   1.437
 4195TIP3    H212527   6.568   3.510   1.322
 4196TIP3   OH212528   7.703   5.153   0.871
 4196TIP3    H112529   7.669   5.092   0.805
 4196TIP3    H212530   7.793   5.169   0.845
 4197TIP3   OH212531   6.801   3.515   2.213
 4197TIP3    H112532   6.753   3.513   2.296
 4197TIP3    H212533   6.744   3.564   2.154
 4198TIP3   OH212534   6.836   4.966   2.292
 4198TIP3    H112535   6.743   4.949   2.281
 4198TIP3    H212536   6.852   4.956   2.386
 4199TIP3   OH212537   7.033   5.013   1.841
 4199TIP3    H112538   6.984   5.088   1.806
 4199TIP3    H212539   7.120   5.020   1.801
 4200TIP3   OH212540   7.456   5.250   1.970
 4200TIP3    H112541   7.492   5.241   2.058
 4200TIP3    H212542   7.521   5.302   1.923
 4201TIP3   OH212543   7.644   5.406   1.836
 4201TIP3    H112544   7.711   5.345   1.804
 4201TIP3    H212545   7.690   5.461   1.899
 4202TIP3   OH212546   6.708   5.266   1.881
 4202TIP3    H112547   6.617   5.280   1.858
 4202TIP3    H212548   6.726   5.330   1.950
 4203TIP3   OH212549   6.939   5.251   1.731
 4203TIP3    H112550   6.860   5.256   1.786
 4203TIP3    H212551   6.911   5.279   1.645
 4204TIP3   OH212552   7.336   5.260   1.545
 4204TIP3    H112553   7.274   5.250   1.473
 4204TIP3    H212554   7.308   5.340   1.591
 4205TIP3   OH212555   7.592   5.174   1.575
 4205TIP3    H112556   7.503   5.208   1.568
 4205TIP3    H212557   7.648   5.247   1.547
 4206TIP3   OH212558   7.783   5.355   1.507
 4206TIP3    H112559   7.804   5.447   1.491
 4206TIP3    H212560   7.831   5.307   1.440
 4207TIP3   OH212561   6.618   5.040   1.606
 4207TIP3    H112562   6.639   5.013   1.696
 4207TIP3    H212563   6.691   5.007   1.554
 4208TIP3   OH212564   6.820   4.920   1.471
 4208TIP3    H112565   6.829   4.836   1.514
 4208TIP3    H212566   6.908   4.958   1.474
 4209TIP3   OH212567   7.086   5.004   1.494
 4209TIP3    H112568   7.104   4.912   1.475
 4209TIP3    H212569   7.138   5.023   1.572
 4210TIP3   OH212570   7.624   3.656   1.573
 4210TIP3    H112571   7.583   3.590   1.628
 4210TIP3    H212572   7.688   3.608   1.520
 4211TIP3   OH212573   6.888   3.362   1.569
 4211TIP3    H112574   6.798   3.330   1.577
 4211TIP3    H212575   6.941   3.282   1.563
 4212TIP3   OH212576   6.705   3.263   1.228
 4212TIP3    H112577   6.729   3.315   1.151
 4212TIP3    H212578   6.668   3.326   1.289
 4213TIP3   OH212579   7.357   3.406   1.464
 4213TIP3    H112580   7.405   3.456   1.397
 4213TIP3    H212581   7.395   3.435   1.547
 4214TIP3   OH212582   7.811   3.515   1.435
 4214TIP3    H112583   7.880   3.526   1.369
 4214TIP3    H212584   7.831   3.431   1.477
 4215TIP3   OH212585   7.919   3.499   1.034
 4215TIP3    H112586   7.834   3.540   1.047
 4215TIP3    H212587   7.912   3.414   1.077
 4216TIP3   OH212588   6.398   4.824   1.017
 4216TIP3    H112589   6.312   4.795   0.986
 4216TIP3    H212590   6.403   4.916   0.993
 4217TIP3   OH212591   6.804   3.406   0.999
 4217TIP3    H112592   6.845   3.342   0.940
 4217TIP3    H212593   6.878   3.459   1.031
 4218TIP3   OH212594   7.300   3.590   1.087
 4218TIP3    H112595   7.360   3.541   1.143
 4218TIP3    H212596   7.312   3.682   1.113
 4219TIP3   OH212597   7.195   5.057   0.560
 4219TIP3    H112598   7.291   5.062   0.563
 4219TIP3    H212599   7.172   5.090   0.473
 4220TIP3   OH212600   7.110   3.642   2.454
 4220TIP3    H112601   7.074   3.575   2.513
 4220TIP3    H212602   7.202   3.649   2.479
 4221TIP3   OH212603   7.359   3.647   2.575
 4221TIP3    H112604   7.438   3.624   2.526
 4221TIP3    H212605   7.352   3.579   2.642
 4222TIP3   OH212606   6.483   4.782   0.579
 4222TIP3    H112607   6.496   4.840   0.654
 4222TIP3    H212608   6.564   4.790   0.528
 4223TIP3   OH212609   8.194   3.665   2.295
 4223TIP3    H112610   8.163   3.713   2.372
 4223TIP3    H212611   8.284   3.695   2.283
 4224TIP3   OH212612   8.085   5.283   1.868
 4224TIP3    H112613   8.005   5.250   1.826
 4224TIP3    H212614   8.070   5.377   1.877
 4225TIP3   OH212615   8.621   5.150   2.841
 4225TIP3    H112616   8.582   5.231   2.806
 4225TIP3    H212617   8.569   5.131   2.920
 4226TIP3   OH212618   0.059   5.127   3.187
 4226TIP3    H112619   0.127   5.125   3.255
 4226TIP3    H212620   0.040   5.034   3.171
 4227TIP3   OH212621   0.308   5.515   2.846
 4227TIP3    H112622   0.268   5.447   2.901
 4227TIP3    H212623   0.356   5.570   2.908
 4228TIP3   OH212624   8.568   5.944   2.927
 4228TIP3    H112625   8.628   5.892   2.873
 4228TIP3    H212626   8.502   5.881   2.957
 4229TIP3   OH212627   8.535   5.362   3.115
 4229TIP3    H112628   8.560   5.275   3.147
 4229TIP3    H212629   8.562   5.422   3.185
 4230TIP3   OH212630   0.880   4.718   3.259
 4230TIP3    H112631   0.901   4.801   3.302
 4230TIP3    H212632   0.905   4.731   3.168
 4231TIP3   OH212633   0.278   4.868   3.264
 4231TIP3    H112634   0.315   4.781   3.282
 4231TIP3    H212635   0.235   4.858   3.179
 4232TIP3   OH212636   0.331   4.654   2.874
 4232TIP3    H112637   0.394   4.642   2.946
 4232TIP3    H212638   0.384   4.688   2.802
 4233TIP3   OH212639   0.940   4.934   3.431
 4233TIP3    H112640   0.858   4.982   3.414
 4233TIP3    H212641   0.978   4.978   3.507
 4234TIP3   OH212642   8.526   5.370   2.720
 4234TIP3    H112643   8.516   5.365   2.625
 4234TIP3    H212644   8.575   5.451   2.734
 4235TIP3   OH212645   0.496   4.661   3.088
 4235TIP3    H112646   0.460   4.632   3.171
 4235TIP3    H212647   0.546   4.739   3.110
 4236TIP3   OH212648   0.398   5.725   3.009
 4236TIP3    H112649   0.320   5.735   3.064
 4236TIP3    H212650   0.382   5.783   2.934
 4237TIP3   OH212651   0.662   4.629   3.422
 4237TIP3    H112652   0.574   4.640   3.386
 4237TIP3    H212653   0.721   4.659   3.352
 4238TIP3   OH212654   8.573   4.271   3.416
 4238TIP3    H112655   8.566   4.178   3.434
 4238TIP3    H212656   8.490   4.308   3.448
 4239TIP3   OH212657   0.135   5.791   2.769
 4239TIP3    H112658   0.151   5.712   2.717
 4239TIP3    H212659   0.162   5.863   2.713
 4240TIP3   OH212660   0.145   5.539   2.633
 4240TIP3    H112661   0.178   5.482   2.564
 4240TIP3    H212662   0.207   5.526   2.706
 4241TIP3   OH212663   0.602   5.647   3.381
 4241TIP3    H112664   0.585   5.566   3.333
 4241TIP3    H212665   0.600   5.716   3.314
 4242TIP3   OH212666   8.425   5.010   2.710
 4242TIP3    H112667   8.349   5.029   2.765
 4242TIP3    H212668   8.496   5.061   2.749
 4243TIP3   OH212669   8.511   4.723   2.413
 4243TIP3    H112670   8.498   4.817   2.424
 4243TIP3    H212671   8.568   4.715   2.337
 4244TIP3   OH212672   0.779   5.268   3.256
 4244TIP3    H112673   0.699   5.320   3.265
 4244TIP3    H212674   0.811   5.289   3.168
 4245TIP3   OH212675   0.228   5.141   2.636
 4245TIP3    H112676   0.165   5.138   2.708
 4245TIP3    H212677   0.309   5.107   2.675
 4246TIP3   OH212678   0.482   5.147   3.555
 4246TIP3    H112679   0.471   5.227   3.606
 4246TIP3    H212680   0.402   5.141   3.502
 4247TIP3   OH212681   0.178   5.744   3.166
 4247TIP3    H112682   0.132   5.791   3.236
 4247TIP3    H212683   0.185   5.654   3.199
 4248TIP3   OH212684   0.114   4.967   2.456
 4248TIP3    H112685   0.160   5.036   2.504
 4248TIP3    H212686   0.142   4.978   2.365
 4249TIP3   OH212687   0.574   4.198   2.506
 4249TIP3    H112688   0.499   4.217   2.562
 4249TIP3    H212689   0.584   4.277   2.452
 4250TIP3   OH212690   0.382   5.569   2.066
 4250TIP3    H112691   0.386   5.662   2.041
 4250TIP3    H212692   0.470   5.536   2.049
 4251TIP3   OH212693   0.828   5.997   3.458
 4251TIP3    H112694   0.831   5.902   3.466
 4251TIP3    H212695   0.747   6.022   3.502
 4252TIP3   OH212696   8.508   5.840   2.126
 4252TIP3    H112697   8.566   5.769   2.099
 4252TIP3    H212698   8.519   5.846   2.221
 4253TIP3   OH212699   8.515   5.877   2.396
 4253TIP3    H112700   8.426   5.895   2.424
 4253TIP3    H212701   8.547   5.810   2.457
 4254TIP3   OH212702   0.711   5.101   3.740
 4254TIP3    H112703   0.626   5.118   3.701
 4254TIP3    H212704   0.721   5.006   3.736
 4255TIP3   OH212705   0.306   4.439   3.716
 4255TIP3    H112706   0.372   4.433   3.785
 4255TIP3    H212707   0.225   4.410   3.758
 4256TIP3   OH212708   0.461   4.891   3.654
 4256TIP3    H112709   0.421   4.913   3.738
 4256TIP3    H212710   0.462   4.974   3.605
 4257TIP3   OH212711   0.177   4.990   2.197
 4257TIP3    H112712   0.121   4.980   2.120
 4257TIP3    H212713   0.255   5.034   2.163
 4258TIP3   OH212714   8.426   4.402   2.473
 4258TIP3    H112715   8.482   4.369   2.543
 4258TIP3    H212716   8.368   4.329   2.451
 4259TIP3   OH212717   0.023   4.820   2.797
 4259TIP3    H112718  -0.060   4.859   2.769
 4259TIP3    H212719   0.068   4.797   2.716
 4260TIP3   OH212720   0.352   4.984   3.882
 4260TIP3    H112721   0.272   4.993   3.934
 4260TIP3    H212722   0.414   5.043   3.924
 4261TIP3   OH212723   0.201   4.855   3.004
 4261TIP3    H112724   0.124   4.873   2.950
 4261TIP3    H212725   0.241   4.778   2.963
 4262TIP3   OH212726   0.241   5.071   3.431
 4262TIP3    H112727   0.262   5.005   3.365
 4262TIP3    H212728   0.196   5.022   3.500
 4263TIP3   OH212729   8.523   4.603   3.192
 4263TIP3    H112730   8.435   4.633   3.216
 4263TIP3    H212731   8.569   4.594   3.275
 4264TIP3   OH212732   0.381   4.619   3.339
 4264TIP3    H112733   0.357   4.644   3.428
 4264TIP3    H212734   0.314   4.556   3.312
 4265TIP3   OH212735   0.519   6.329   3.542
 4265TIP3    H112736   0.506   6.352   3.450
 4265TIP3    H212737   0.591   6.386   3.571
 4266TIP3   OH212738   8.552   4.882   3.185
 4266TIP3    H112739   8.541   4.794   3.150
 4266TIP3    H212740   8.556   4.870   3.280
 4267TIP3   OH212741   8.553   4.859   3.454
 4267TIP3    H112742   8.459   4.840   3.455
 4267TIP3    H212743   8.570   4.899   3.538
 4268TIP3   OH212744   0.555   5.421   3.237
 4268TIP3    H112745   0.576   5.466   3.155
 4268TIP3    H212746   0.475   5.372   3.218
 4269TIP3   OH212747   0.091   4.510   2.459
 4269TIP3    H112748  -0.004   4.500   2.461
 4269TIP3    H212749   0.106   4.600   2.490
 4270TIP3   OH212750   8.507   5.450   3.669
 4270TIP3    H112751   8.568   5.455   3.742
 4270TIP3    H212752   8.505   5.539   3.633
 4271TIP3   OH212753   0.186   4.738   2.584
 4271TIP3    H112754   0.280   4.748   2.599
 4271TIP3    H212755   0.162   4.814   2.531
 4272TIP3   OH212756   8.479   5.344   2.442
 4272TIP3    H112757   8.430   5.422   2.417
 4272TIP3    H212758   8.412   5.278   2.462
 4273TIP3   OH212759   8.517   5.216   3.897
 4273TIP3    H112760   8.488   5.241   3.810
 4273TIP3    H212761   8.613   5.211   3.890
 4274TIP3   OH212762   0.178   5.889   3.465
 4274TIP3    H112763   0.086   5.904   3.486
 4274TIP3    H212764   0.225   5.908   3.546
 4275TIP3   OH212765   0.580   4.836   2.406
 4275TIP3    H112766   0.523   4.791   2.344
 4275TIP3    H212767   0.585   4.926   2.372
 4276TIP3   OH212768   0.842   5.713   3.487
 4276TIP3    H112769   0.747   5.703   3.481
 4276TIP3    H212770   0.874   5.680   3.403
 4277TIP3   OH212771   0.298   5.633   2.323
 4277TIP3    H112772   0.292   5.551   2.372
 4277TIP3    H212773   0.329   5.607   2.236
 4278TIP3   OH212774   0.341   5.259   3.184
 4278TIP3    H112775   0.276   5.287   3.119
 4278TIP3    H212776   0.376   5.177   3.149
 4279TIP3   OH212777   0.179   5.491   3.258
 4279TIP3    H112778   0.159   5.513   3.350
 4279TIP3    H212779   0.233   5.412   3.263
 4280TIP3   OH212780   0.083   5.385   2.246
 4280TIP3    H112781   0.147   5.369   2.316
 4280TIP3    H212782  -0.002   5.368   2.288
 4281TIP3   OH212783   0.400   5.987   3.349
 4281TIP3    H112784   0.328   5.931   3.378
 4281TIP3    H212785   0.362   6.075   3.345
 4282TIP3   OH212786   0.400   5.839   2.028
 4282TIP3    H112787   0.437   5.887   1.953
 4282TIP3    H212788   0.337   5.900   2.067
 4283TIP3   OH212789   0.260   5.352   2.455
 4283TIP3    H112790   0.237   5.281   2.515
 4283TIP3    H212791   0.353   5.338   2.436
 4284TIP3   OH212792   0.294   4.681   3.590
 4284TIP3    H112793   0.362   4.737   3.627
 4284TIP3    H212794   0.297   4.601   3.643
 4285TIP3   OH212795   0.207   4.466   2.724
 4285TIP3    H112796   0.186   4.515   2.645
 4285TIP3    H212797   0.238   4.532   2.786
 4286TIP3   OH212798   8.575   4.576   2.915
 4286TIP3    H112799   8.603   4.660   2.878
 4286TIP3    H212800   8.569   4.593   3.009
 4287TIP3   OH212801   0.153   4.918   3.643
 4287TIP3    H112802   0.117   4.889   3.727
 4287TIP3    H212803   0.198   4.841   3.609
 4288TIP3   OH212804   0.059   4.309   2.940
 4288TIP3    H112805   0.007   4.322   3.020
 4288TIP3    H212806   0.070   4.397   2.904
 4289TIP3   OH212807   0.724   4.832   3.639
 4289TIP3    H112808   0.630   4.832   3.653
 4289TIP3    H212809   0.735   4.847   3.545
 4290TIP3   OH212810   0.412   5.030   3.036
 4290TIP3    H112811   0.333   4.976   3.036
 4290TIP3    H212812   0.476   4.979   3.086
 4291TIP3   OH212813   0.329   5.945   3.685
 4291TIP3    H112814   0.331   5.855   3.717
 4291TIP3    H212815   0.407   5.986   3.723
 4292TIP3   OH212816   0.045   5.601   2.070
 4292TIP3    H112817   0.072   5.537   2.137
 4292TIP3    H212818   0.122   5.610   2.014
 4293TIP3   OH212819   8.289   5.249   2.178
 4293TIP3    H112820   8.322   5.338   2.193
 4293TIP3    H212821   8.356   5.192   2.217
 4294TIP3   OH212822   0.412   5.561   3.554
 4294TIP3    H112823   0.476   5.601   3.496
 4294TIP3    H212824   0.376   5.634   3.605
 4295TIP3   OH212825   8.237   4.698   2.404
 4295TIP3    H112826   8.250   4.758   2.330
 4295TIP3    H212827   8.326   4.683   2.438
 4296TIP3   OH212828   0.357   5.509   3.966
 4296TIP3    H112829   0.369   5.428   3.917
 4296TIP3    H212830   0.324   5.481   4.051
 4297TIP3   OH212831   0.385   5.110   2.068
 4297TIP3    H112832   0.367   5.062   1.988
 4297TIP3    H212833   0.348   5.197   2.054
 4298TIP3   OH212834   8.345   4.505   3.644
 4298TIP3    H112835   8.344   4.518   3.549
 4298TIP3    H212836   8.339   4.593   3.680
 4299TIP3   OH212837   8.489   5.182   3.625
 4299TIP3    H112838   8.525   5.152   3.542
 4299TIP3    H212839   8.500   5.277   3.623
 4300TIP3   OH212840   0.545   5.131   4.008
 4300TIP3    H112841   0.617   5.069   4.004
 4300TIP3    H212842   0.586   5.216   3.990
 4301TIP3   OH212843   0.505   5.372   3.723
 4301TIP3    H112844   0.450   5.430   3.670
 4301TIP3    H212845   0.594   5.388   3.691
 4302TIP3   OH212846   0.075   4.315   3.783
 4302TIP3    H112847   0.028   4.399   3.789
 4302TIP3    H212848   0.009   4.250   3.806
 4303TIP3   OH212849   0.145   4.954   4.047
 4303TIP3    H112850   0.185   4.922   4.128
 4303TIP3    H212851   0.112   4.876   4.004
 4304TIP3   OH212852   0.379   4.708   3.887
 4304TIP3    H112853   0.340   4.795   3.886
 4304TIP3    H212854   0.460   4.720   3.937
 4305TIP3   OH212855   0.600   4.789   4.052
 4305TIP3    H112856   0.610   4.696   4.071
 4305TIP3    H212857   0.572   4.828   4.134
 4306TIP3   OH212858   0.166   4.453   4.024
 4306TIP3    H112859   0.203   4.365   4.012
 4306TIP3    H212860   0.080   4.449   3.981
 4307TIP3   OH212861   0.092   4.676   4.150
 4307TIP3    H112862   0.137   4.606   4.102
 4307TIP3    H212863   0.027   4.631   4.204
 4308TIP3   OH212864   0.628   6.049   2.945
 4308TIP3    H112865   0.632   6.088   3.032
 4308TIP3    H212866   0.665   6.115   2.886
 4309TIP3   OH212867   0.657   6.108   3.222
 4309TIP3    H112868   0.629   6.017   3.210
 4309TIP3    H212869   0.728   6.103   3.286
 4310TIP3   OH212870   0.686   5.781   3.811
 4310TIP3    H112871   0.618   5.793   3.877
 4310TIP3    H212872   0.732   5.865   3.808
 4311TIP3   OH212873   0.526   5.301   2.418
 4311TIP3    H112874   0.588   5.367   2.387
 4311TIP3    H212875   0.571   5.260   2.492
 4312TIP3   OH212876   0.649   5.156   2.618
 4312TIP3    H112877   0.583   5.119   2.676
 4312TIP3    H212878   0.715   5.192   2.677
 4313TIP3   OH212879   0.705   5.557   3.048
 4313TIP3    H112880   0.758   5.491   3.004
 4313TIP3    H212881   0.704   5.632   2.988
 4314TIP3   OH212882   0.570   5.843   3.194
 4314TIP3    H112883   0.499   5.887   3.240
 4314TIP3    H212884   0.527   5.800   3.120
 4315TIP3   OH212885   0.571   5.075   2.267
 4315TIP3    H112886   0.507   5.079   2.195
 4315TIP3    H212887   0.552   5.152   2.320
 4316TIP3   OH212888   0.427   4.732   2.208
 4316TIP3    H112889   0.384   4.771   2.132
 4316TIP3    H212890   0.413   4.638   2.197
 4317TIP3   OH212891   0.449   5.020   2.760
 4317TIP3    H112892   0.460   4.926   2.746
 4317TIP3    H212893   0.442   5.029   2.855
 4318TIP3   OH212894   0.750   5.437   3.615
 4318TIP3    H112895   0.812   5.367   3.596
 4318TIP3    H212896   0.757   5.497   3.541
 4319TIP3   OH212897   0.914   5.220   3.603
 4319TIP3    H112898   0.844   5.180   3.654
 4319TIP3    H212899   0.992   5.169   3.625
 4320TIP3   OH212900   0.382   4.465   2.184
 4320TIP3    H112901   0.450   4.434   2.244
 4320TIP3    H212902   0.305   4.412   2.205
 4321TIP3   OH212903   0.467   4.741   2.646
 4321TIP3    H112904   0.510   4.656   2.656
 4321TIP3    H212905   0.507   4.779   2.568
 4322TIP3   OH212906   0.615   4.895   3.171
 4322TIP3    H112907   0.695   4.918   3.123
 4322TIP3    H212908   0.626   4.937   3.256
 4323TIP3   OH212909   0.688   5.048   3.394
 4323TIP3    H112910   0.618   5.084   3.450
 4323TIP3    H212911   0.721   5.124   3.345
 4324TIP3   OH212912   1.133   4.650   3.934
 4324TIP3    H112913   1.197   4.589   3.896
 4324TIP3    H212914   1.103   4.702   3.861
 4325TIP3   OH212915   0.571   4.485   2.697
 4325TIP3    H112916   0.610   4.470   2.783
 4325TIP3    H212917   0.509   4.413   2.686
 4326TIP3   OH212918   0.989   4.793   3.753
 4326TIP3    H112919   0.925   4.834   3.811
 4326TIP3    H212920   0.936   4.740   3.693
 4327TIP3   OH212921   0.613   4.408   2.332
 4327TIP3    H112922   0.660   4.346   2.275
 4327TIP3    H212923   0.669   4.485   2.334
 4328TIP3   OH212924   0.206   5.993   2.598
 4328TIP3    H112925   0.249   5.958   2.520
 4328TIP3    H212926   0.247   6.079   2.612
 4329TIP3   OH212927   0.221   6.194   3.396
 4329TIP3    H112928   0.192   6.138   3.467
 4329TIP3    H212929   0.174   6.276   3.409
 4330TIP3   OH212930   0.857   4.571   3.629
 4330TIP3    H112931   0.789   4.627   3.591
 4330TIP3    H212932   0.816   4.486   3.638
 4331TIP3   OH212933   0.092   6.111   3.159
 4331TIP3    H112934   0.038   6.072   3.229
 4331TIP3    H212935   0.160   6.159   3.205
 4332TIP3   OH212936   0.171   4.450   3.296
 4332TIP3    H112937   0.111   4.391   3.341
 4332TIP3    H212938   0.214   4.396   3.230
 4333TIP3   OH212939   0.610   4.368   3.179
 4333TIP3    H112940   0.650   4.406   3.101
 4333TIP3    H212941   0.517   4.365   3.159
 4334TIP3   OH212942   0.717   4.421   2.930
 4334TIP3    H112943   0.786   4.365   2.894
 4334TIP3    H212944   0.749   4.510   2.918
 4335TIP3   OH212945   8.437   4.083   3.082
 4335TIP3    H112946   8.504   4.041   3.028
 4335TIP3    H212947   8.474   4.168   3.105
 4336TIP3   OH212948   0.344   4.327   3.115
 4336TIP3    H112949   0.326   4.300   3.026
 4336TIP3    H212950   0.333   4.248   3.168
 4337TIP3   OH212951   0.391   4.269   2.693
 4337TIP3    H112952   0.317   4.328   2.705
 4337TIP3    H212953   0.365   4.187   2.735
 4338TIP3   OH212954   8.350   4.419   2.803
 4338TIP3    H112955   8.359   4.337   2.754
 4338TIP3    H212956   8.437   4.457   2.803
 4339TIP3   OH212957   0.335   5.904   2.371
 4339TIP3    H112958   0.327   5.809   2.360
 4339TIP3    H212959   0.306   5.940   2.287
 4340TIP3   OH212960   0.649   4.521   4.069
 4340TIP3    H112961   0.662   4.487   4.158
 4340TIP3    H212962   0.736   4.517   4.029
 4341TIP3   OH212963   0.583   6.062   3.556
 4341TIP3    H112964   0.519   6.023   3.496
 4341TIP3    H212965   0.558   6.154   3.562
 4342TIP3   OH212966   1.833   5.441   2.303
 4342TIP3    H112967   1.804   5.528   2.277
 4342TIP3    H212968   1.761   5.383   2.276
 4343TIP3   OH212969   1.830   5.435   2.720
 4343TIP3    H112970   1.880   5.417   2.800
 4343TIP3    H212971   1.788   5.352   2.699
 4344TIP3   OH212972   1.133   5.306   3.070
 4344TIP3    H112973   1.167   5.251   3.141
 4344TIP3    H212974   1.210   5.334   3.021
 4345TIP3   OH212975   2.093   5.746   2.395
 4345TIP3    H112976   2.082   5.678   2.461
 4345TIP3    H212977   2.118   5.824   2.444
 4346TIP3   OH212978   1.117   5.727   2.763
 4346TIP3    H112979   1.101   5.633   2.770
 4346TIP3    H212980   1.212   5.734   2.754
 4347TIP3   OH212981   0.806   4.929   2.550
 4347TIP3    H112982   0.768   5.014   2.572
 4347TIP3    H212983   0.736   4.882   2.506
 4348TIP3   OH212984   0.881   5.235   2.753
 4348TIP3    H112985   0.931   5.158   2.781
 4348TIP3    H212986   0.948   5.297   2.724
 4349TIP3   OH212987   1.749   6.179   2.408
 4349TIP3    H112988   1.777   6.110   2.348
 4349TIP3    H212989   1.740   6.136   2.493
 4350TIP3   OH212990   1.635   5.659   2.731
 4350TIP3    H112991   1.677   5.579   2.699
 4350TIP3    H212992   1.707   5.714   2.761
 4351TIP3   OH212993   2.661   4.978   2.740
 4351TIP3    H112994   2.682   5.062   2.782
 4351TIP3    H212995   2.694   4.987   2.651
 4352TIP3   OH212996   2.045   5.149   2.765
 4352TIP3    H112997   2.084   5.065   2.791
 4352TIP3    H212998   2.009   5.132   2.678
 4353TIP3   OH212999   1.397   4.808   2.727
 4353TIP3    H113000   1.378   4.882   2.669
 4353TIP3    H213001   1.343   4.736   2.694
 4354TIP3   OH213002   2.094   4.907   2.357
 4354TIP3    H113003   2.158   4.898   2.427
 4354TIP3    H213004   2.144   4.940   2.282
 4355TIP3   OH213005   1.022   5.017   2.852
 4355TIP3    H113006   1.105   5.001   2.896
 4355TIP3    H213007   1.028   4.966   2.771
 4356TIP3   OH213008   1.448   5.218   2.664
 4356TIP3    H113009   1.543   5.202   2.671
 4356TIP3    H213010   1.412   5.137   2.629
 4357TIP3   OH213011   2.723   5.195   2.911
 4357TIP3    H113012   2.635   5.233   2.905
 4357TIP3    H213013   2.759   5.231   2.992
 4358TIP3   OH213014   1.380   4.806   3.176
 4358TIP3    H113015   1.328   4.842   3.103
 4358TIP3    H213016   1.327   4.823   3.254
 4359TIP3   OH213017   1.730   5.658   2.165
 4359TIP3    H113018   1.688   5.632   2.083
 4359TIP3    H213019   1.678   5.733   2.196
 4360TIP3   OH213020   1.480   5.582   2.948
 4360TIP3    H113021   1.425   5.652   2.982
 4360TIP3    H213022   1.528   5.622   2.875
 4361TIP3   OH213023   2.259   4.927   2.574
 4361TIP3    H113024   2.221   4.906   2.659
 4361TIP3    H213025   2.319   5.000   2.591
 4362TIP3   OH213026   1.265   4.915   2.948
 4362TIP3    H113027   1.320   4.990   2.971
 4362TIP3    H213028   1.312   4.872   2.876
 4363TIP3   OH213029   1.320   5.783   3.050
 4363TIP3    H113030   1.304   5.872   3.017
 4363TIP3    H213031   1.243   5.763   3.103
 4364TIP3   OH213032   0.702   5.482   2.305
 4364TIP3    H113033   0.671   5.496   2.216
 4364TIP3    H213034   0.726   5.570   2.336
 4365TIP3   OH213035   2.137   5.998   2.534
 4365TIP3    H113036   2.051   5.987   2.574
 4365TIP3    H213037   2.131   6.081   2.486
 4366TIP3   OH213038   2.462   4.871   2.911
 4366TIP3    H113039   2.377   4.896   2.876
 4366TIP3    H213040   2.525   4.897   2.843
 4367TIP3   OH213041   1.723   4.501   2.900
 4367TIP3    H113042   1.715   4.409   2.925
 4367TIP3    H213043   1.647   4.544   2.940
 4368TIP3   OH213044   1.840   6.025   2.190
 4368TIP3    H113045   1.891   5.945   2.182
 4368TIP3    H213046   1.900   6.095   2.163
 4369TIP3   OH213047   1.992   5.804   2.142
 4369TIP3    H113048   1.936   5.730   2.121
 4369TIP3    H213049   2.035   5.779   2.224
 4370TIP3   OH213050   2.371   5.883   2.881
 4370TIP3    H113051   2.355   5.808   2.825
 4370TIP3    H213052   2.356   5.959   2.824
 4371TIP3   OH213053   1.659   5.283   2.151
 4371TIP3    H113054   1.578   5.330   2.132
 4371TIP3    H213055   1.706   5.282   2.067
 4372TIP3   OH213056   1.629   5.083   1.847
 4372TIP3    H113057   1.694   5.132   1.897
 4372TIP3    H213058   1.679   5.017   1.799
 4373TIP3   OH213059   2.558   5.539   2.745
 4373TIP3    H113060   2.473   5.584   2.745
 4373TIP3    H213061   2.592   5.551   2.657
 4374TIP3   OH213062   2.016   5.372   2.113
 4374TIP3    H113063   1.962   5.399   2.187
 4374TIP3    H213064   2.099   5.344   2.152
 4375TIP3   OH213065   2.246   5.402   3.053
 4375TIP3    H113066   2.244   5.484   3.101
 4375TIP3    H213067   2.163   5.400   3.005
 4376TIP3   OH213068   1.245   5.353   2.524
 4376TIP3    H113069   1.208   5.295   2.457
 4376TIP3    H213070   1.319   5.305   2.560
 4377TIP3   OH213071   1.379   5.777   2.661
 4377TIP3    H113072   1.355   5.760   2.570
 4377TIP3    H213073   1.466   5.738   2.671
 4378TIP3   OH213074   1.350   5.347   2.892
 4378TIP3    H113075   1.388   5.312   2.811
 4378TIP3    H213076   1.400   5.427   2.909
 4379TIP3   OH213077   1.903   5.981   2.669
 4379TIP3    H113078   1.889   6.060   2.721
 4379TIP3    H213079   1.888   5.909   2.730
 4380TIP3   OH213080   1.521   5.883   3.213
 4380TIP3    H113081   1.463   5.943   3.259
 4380TIP3    H213082   1.463   5.831   3.157
 4381TIP3   OH213083   1.848   5.231   1.946
 4381TIP3    H113084   1.908   5.288   1.995
 4381TIP3    H213085   1.876   5.241   1.855
 4382TIP3   OH213086   1.278   5.439   3.348
 4382TIP3    H113087   1.281   5.532   3.371
 4382TIP3    H213088   1.185   5.419   3.341
 4383TIP3   OH213089   1.594   5.898   2.210
 4383TIP3    H113090   1.674   5.951   2.209
 4383TIP3    H213091   1.533   5.947   2.154
 4384TIP3   OH213092   1.317   6.045   3.298
 4384TIP3    H113093   1.287   6.054   3.208
 4384TIP3    H213094   1.238   6.026   3.348
 4385TIP3   OH213095   2.362   4.460   1.999
 4385TIP3    H113096   2.284   4.481   2.052
 4385TIP3    H213097   2.374   4.537   1.944
 4386TIP3   OH213098   1.119   5.198   2.321
 4386TIP3    H113099   1.045   5.246   2.284
 4386TIP3    H213100   1.084   5.110   2.337
 4387TIP3   OH213101   2.183   5.834   1.560
 4387TIP3    H113102   2.181   5.926   1.534
 4387TIP3    H213103   2.271   5.805   1.537
 4388TIP3   OH213104   0.904   5.597   3.247
 4388TIP3    H113105   0.834   5.581   3.183
 4388TIP3    H213106   0.938   5.510   3.268
 4389TIP3   OH213107   0.743   5.793   2.893
 4389TIP3    H113108   0.836   5.813   2.906
 4389TIP3    H213109   0.697   5.870   2.927
 4390TIP3   OH213110   2.604   6.244   2.943
 4390TIP3    H113111   2.610   6.149   2.956
 4390TIP3    H213112   2.525   6.269   2.990
 4391TIP3   OH213113   1.708   6.027   3.071
 4391TIP3    H113114   1.702   6.117   3.101
 4391TIP3    H213115   1.641   5.980   3.122
 4392TIP3   OH213116   1.484   6.137   2.020
 4392TIP3    H113117   1.430   6.111   1.945
 4392TIP3    H213118   1.443   6.217   2.052
 4393TIP3   OH213119   0.918   5.986   2.408
 4393TIP3    H113120   0.963   5.978   2.492
 4393TIP3    H213121   0.871   5.903   2.398
 4394TIP3   OH213122   1.688   6.057   1.659
 4394TIP3    H113123   1.740   5.983   1.624
 4394TIP3    H213124   1.718   6.067   1.749
 4395TIP3   OH213125   1.739   6.104   1.928
 4395TIP3    H113126   1.650   6.110   1.962
 4395TIP3    H213127   1.789   6.063   1.998
 4396TIP3   OH213128   2.491   5.362   3.219
 4396TIP3    H113129   2.410   5.370   3.169
 4396TIP3    H213130   2.511   5.268   3.216
 4397TIP3   OH213131   1.103   5.784   3.219
 4397TIP3    H113132   1.150   5.775   3.302
 4397TIP3    H213133   1.031   5.721   3.226
 4398TIP3   OH213134   1.485   4.592   3.029
 4398TIP3    H113135   1.401   4.560   2.996
 4398TIP3    H213136   1.464   4.673   3.075
 4399TIP3   OH213137   2.032   4.710   3.227
 4399TIP3    H113138   2.103   4.686   3.286
 4399TIP3    H213139   1.952   4.693   3.276
 4400TIP3   OH213140   2.251   5.136   3.140
 4400TIP3    H113141   2.210   5.133   3.227
 4400TIP3    H213142   2.236   5.225   3.110
 4401TIP3   OH213143   1.930   5.235   1.686
 4401TIP3    H113144   1.884   5.229   1.602
 4401TIP3    H213145   2.012   5.278   1.666
 4402TIP3   OH213146   1.634   4.637   1.996
 4402TIP3    H113147   1.600   4.642   2.085
 4402TIP3    H213148   1.599   4.554   1.961
 4403TIP3   OH213149   1.423   5.123   3.038
 4403TIP3    H113150   1.379   5.133   3.122
 4403TIP3    H213151   1.403   5.204   2.990
 4404TIP3   OH213152   1.307   5.004   2.557
 4404TIP3    H113153   1.217   4.980   2.582
 4404TIP3    H213154   1.317   4.969   2.469
 4405TIP3   OH213155   1.788   5.079   2.285
 4405TIP3    H113156   1.740   5.151   2.244
 4405TIP3    H213157   1.847   5.047   2.216
 4406TIP3   OH213158   1.974   5.350   3.362
 4406TIP3    H113159   1.947   5.281   3.423
 4406TIP3    H213160   2.067   5.364   3.382
 4407TIP3   OH213161   1.953   5.096   2.512
 4407TIP3    H113162   1.886   5.119   2.448
 4407TIP3    H213163   1.999   5.022   2.473
 4408TIP3   OH213164   1.258   5.137   3.259
 4408TIP3    H113165   1.289   5.198   3.326
 4408TIP3    H213166   1.242   5.056   3.306
 4409TIP3   OH213167   1.300   4.614   1.970
 4409TIP3    H113168   1.291   4.619   2.065
 4409TIP3    H213169   1.223   4.662   1.937
 4410TIP3   OH213170   0.842   4.646   2.849
 4410TIP3    H113171   0.913   4.687   2.898
 4410TIP3    H213172   0.878   4.633   2.761
 4411TIP3   OH213173   0.769   4.640   2.345
 4411TIP3    H113174   0.814   4.674   2.267
 4411TIP3    H213175   0.707   4.708   2.369
 4412TIP3   OH213176   1.986   5.348   2.939
 4412TIP3    H113177   2.013   5.281   2.876
 4412TIP3    H213178   1.947   5.298   3.010
 4413TIP3   OH213179   1.664   4.798   2.610
 4413TIP3    H113180   1.587   4.799   2.667
 4413TIP3    H213181   1.738   4.789   2.669
 4414TIP3   OH213182   1.069   4.878   2.620
 4414TIP3    H113183   0.980   4.882   2.585
 4414TIP3    H213184   1.098   4.789   2.602
 4415TIP3   OH213185   1.322   4.878   2.314
 4415TIP3    H113186   1.416   4.890   2.301
 4415TIP3    H213187   1.284   4.897   2.228
 4416TIP3   OH213188   2.125   4.886   2.818
 4416TIP3    H113189   2.103   4.902   2.910
 4416TIP3    H213190   2.058   4.824   2.788
 4417TIP3   OH213191   1.201   4.904   2.069
 4417TIP3    H113192   1.136   4.857   2.017
 4417TIP3    H213193   1.255   4.950   2.005
 4418TIP3   OH213194   2.316   6.587   3.044
 4418TIP3    H113195   2.314   6.605   2.950
 4418TIP3    H213196   2.394   6.632   3.075
 4419TIP3   OH213197   1.262   5.697   3.456
 4419TIP3    H113198   1.342   5.722   3.501
 4419TIP3    H213199   1.193   5.705   3.522
 4420TIP3   OH213200   1.720   5.160   2.717
 4420TIP3    H113201   1.787   5.113   2.669
 4420TIP3    H213202   1.719   5.119   2.804
 4421TIP3   OH213203   1.215   4.632   2.603
 4421TIP3    H113204   1.185   4.556   2.653
 4421TIP3    H213205   1.245   4.595   2.520
 4422TIP3   OH213206   1.692   5.064   2.986
 4422TIP3    H113207   1.604   5.096   3.008
 4422TIP3    H213208   1.751   5.117   3.040
 4423TIP3   OH213209   1.424   5.426   2.097
 4423TIP3    H113210   1.351   5.368   2.076
 4423TIP3    H213211   1.401   5.464   2.182
 4424TIP3   OH213212   2.318   5.675   2.707
 4424TIP3    H113213   2.353   5.723   2.631
 4424TIP3    H213214   2.238   5.634   2.674
 4425TIP3   OH213215   1.888   4.738   1.993
 4425TIP3    H113216   1.794   4.719   1.991
 4425TIP3    H213217   1.893   4.833   2.007
 4426TIP3   OH213218   1.833   5.759   3.108
 4426TIP3    H113219   1.880   5.748   3.191
 4426TIP3    H213220   1.790   5.844   3.116
 4427TIP3   OH213221   1.952   5.000   2.068
 4427TIP3    H113222   2.047   5.003   2.078
 4427TIP3    H213223   1.930   5.078   2.017
 4428TIP3   OH213224   1.115   5.437   2.753
 4428TIP3    H113225   1.153   5.420   2.667
 4428TIP3    H213226   1.182   5.406   2.815
 4429TIP3   OH213227   1.576   5.588   1.939
 4429TIP3    H113228   1.530   5.672   1.936
 4429TIP3    H213229   1.519   5.531   1.991
 4430TIP3   OH213230   1.009   5.374   3.382
 4430TIP3    H113231   1.020   5.353   3.475
 4430TIP3    H213232   0.939   5.315   3.353
 4431TIP3   OH213233   1.741   5.501   3.399
 4431TIP3    H113234   1.675   5.444   3.359
 4431TIP3    H213235   1.825   5.463   3.373
 4432TIP3   OH213236   1.979   6.042   2.992
 4432TIP3    H113237   1.885   6.029   3.000
 4432TIP3    H213238   2.006   6.079   3.076
 4433TIP3   OH213239   2.373   5.090   1.891
 4433TIP3    H113240   2.316   5.045   1.829
 4433TIP3    H213241   2.377   5.180   1.858
 4434TIP3   OH213242   2.618   5.964   2.970
 4434TIP3    H113243   2.524   5.949   2.968
 4434TIP3    H213244   2.649   5.931   2.886
 4435TIP3   OH213245   2.125   5.921   1.828
 4435TIP3    H113246   2.087   5.857   1.888
 4435TIP3    H213247   2.131   5.873   1.745
 4436TIP3   OH213248   2.086   5.542   2.604
 4436TIP3    H113249   1.996   5.519   2.628
 4436TIP3    H213250   2.123   5.462   2.567
 4437TIP3   OH213251   1.237   5.775   2.412
 4437TIP3    H113252   1.234   5.853   2.357
 4437TIP3    H213253   1.145   5.759   2.434
 4438TIP3   OH213254   0.803   5.064   2.118
 4438TIP3    H113255   0.847   5.147   2.136
 4438TIP3    H213256   0.725   5.065   2.172
 4439TIP3   OH213257   1.338   5.531   2.330
 4439TIP3    H113258   1.315   5.621   2.355
 4439TIP3    H213259   1.308   5.477   2.403
 4440TIP3   OH213260   1.519   6.101   2.867
 4440TIP3    H113261   1.556   6.174   2.817
 4440TIP3    H213262   1.592   6.067   2.918
 4441TIP3   OH213263   1.153   6.003   2.264
 4441TIP3    H113264   1.066   6.008   2.302
 4441TIP3    H213265   1.186   6.092   2.266
 4442TIP3   OH213266   1.876   5.757   2.836
 4442TIP3    H113267   1.864   5.754   2.931
 4442TIP3    H213268   1.951   5.700   2.819
 4443TIP3   OH213269   1.867   5.641   1.708
 4443TIP3    H113270   1.913   5.616   1.788
 4443TIP3    H213271   1.782   5.596   1.714
 4444TIP3   OH213272   2.130   6.261   2.881
 4444TIP3    H113273   2.060   6.197   2.895
 4444TIP3    H213274   2.098   6.316   2.809
 4445TIP3   OH213275   2.184   6.107   1.509
 4445TIP3    H113276   2.176   6.155   1.427
 4445TIP3    H213277   2.115   6.145   1.565
 4446TIP3   OH213278   1.216   4.882   3.387
 4446TIP3    H113279   1.121   4.890   3.397
 4446TIP3    H213280   1.246   4.841   3.468
 4447TIP3   OH213281   2.033   5.567   1.916
 4447TIP3    H113282   2.019   5.505   1.987
 4447TIP3    H213283   2.128   5.572   1.906
 4448TIP3   OH213284   0.947   5.985   3.023
 4448TIP3    H113285   0.999   5.924   3.076
 4448TIP3    H213286   0.956   6.069   3.067
 4449TIP3   OH213287   1.226   5.610   1.720
 4449TIP3    H113288   1.232   5.519   1.690
 4449TIP3    H213289   1.204   5.603   1.813
 4450TIP3   OH213290   1.163   5.624   1.991
 4450TIP3    H113291   1.230   5.595   2.052
 4450TIP3    H213292   1.163   5.719   1.998
 4451TIP3   OH213293   0.898   5.314   2.199
 4451TIP3    H113294   0.834   5.360   2.253
 4451TIP3    H213295   0.914   5.374   2.126
 4452TIP3   OH213296   2.058   4.944   3.079
 4452TIP3    H113297   2.136   4.989   3.111
 4452TIP3    H213298   2.051   4.866   3.135
 4453TIP3   OH213299   1.946   4.689   2.263
 4453TIP3    H113300   1.927   4.707   2.171
 4453TIP3    H213301   1.990   4.768   2.295
 4454TIP3   OH213302   1.438   5.822   1.931
 4454TIP3    H113303   1.352   5.842   1.969
 4454TIP3    H213304   1.450   5.887   1.862
 4455TIP3   OH213305   1.602   4.888   2.354
 4455TIP3    H113306   1.665   4.955   2.328
 4455TIP3    H213307   1.622   4.869   2.445
 4456TIP3   OH213308   1.896   5.181   3.140
 4456TIP3    H113309   1.923   5.226   3.220
 4456TIP3    H213310   1.947   5.100   3.139
 4457TIP3   OH213311   1.763   4.587   2.445
 4457TIP3    H113312   1.741   4.664   2.497
 4457TIP3    H213313   1.831   4.617   2.385
 4458TIP3   OH213314   1.187   5.896   2.013
 4458TIP3    H113315   1.163   5.967   1.953
 4458TIP3    H213316   1.172   5.933   2.100
 4459TIP3   OH213317   1.276   4.606   2.249
 4459TIP3    H113318   1.265   4.697   2.279
 4459TIP3    H213319   1.370   4.590   2.255
 4460TIP3   OH213320   2.518   5.089   3.131
 4460TIP3    H113321   2.422   5.093   3.139
 4460TIP3    H213322   2.533   5.037   3.053
 4461TIP3   OH213323   2.178   5.286   2.513
 4461TIP3    H113324   2.102   5.229   2.525
 4461TIP3    H213325   2.247   5.245   2.565
 4462TIP3   OH213326   0.909   5.499   1.989
 4462TIP3    H113327   0.977   5.567   1.995
 4462TIP3    H213328   0.943   5.438   1.923
 4463TIP3   OH213329   0.831   4.786   2.121
 4463TIP3    H113330   0.843   4.881   2.128
 4463TIP3    H213331   0.775   4.775   2.044
 4464TIP3   OH213332   2.152   6.271   2.442
 4464TIP3    H113333   2.114   6.320   2.369
 4464TIP3    H213334   2.246   6.287   2.436
 4465TIP3   OH213335   1.222   4.506   2.991
 4465TIP3    H113336   1.194   4.474   2.905
 4465TIP3    H213337   1.211   4.430   3.049
 4466TIP3   OH213338   0.754   5.752   2.390
 4466TIP3    H113339   0.714   5.789   2.469
 4466TIP3    H213340   0.709   5.795   2.318
 4467TIP3   OH213341   0.935   6.291   3.446
 4467TIP3    H113342   1.016   6.296   3.497
 4467TIP3    H213343   0.913   6.198   3.445
 4468TIP3   OH213344   1.397   6.224   3.496
 4468TIP3    H113345   1.492   6.232   3.498
 4468TIP3    H213346   1.380   6.161   3.426
 4469TIP3   OH213347   1.381   5.810   1.613
 4469TIP3    H113348   1.331   5.739   1.653
 4469TIP3    H213349   1.453   5.766   1.568
 4470TIP3   OH213350   2.041   6.145   3.237
 4470TIP3    H113351   2.050   6.077   3.304
 4470TIP3    H213352   2.115   6.205   3.255
 4471TIP3   OH213353   1.826   5.853   1.539
 4471TIP3    H113354   1.854   5.784   1.600
 4471TIP3    H213355   1.880   5.840   1.461
 4472TIP3   OH213356   1.062   5.689   3.649
 4472TIP3    H113357   1.076   5.594   3.658
 4472TIP3    H213358   0.978   5.696   3.603
 4473TIP3   OH213359   1.045   5.310   1.845
 4473TIP3    H113360   1.099   5.288   1.921
 4473TIP3    H213361   1.109   5.323   1.774
 4474TIP3   OH213362   1.670   5.777   3.421
 4474TIP3    H113363   1.627   5.799   3.338
 4474TIP3    H213364   1.705   5.689   3.406
 4475TIP3   OH213365   1.613   5.526   1.673
 4475TIP3    H113366   1.587   5.540   1.764
 4475TIP3    H213367   1.593   5.434   1.656
 4476TIP3   OH213368   2.149   5.815   3.032
 4476TIP3    H113369   2.226   5.845   2.985
 4476TIP3    H213370   2.082   5.881   3.014
 4477TIP3   OH213371   1.171   5.424   3.644
 4477TIP3    H113372   1.248   5.415   3.588
 4477TIP3    H213373   1.206   5.451   3.729
 4478TIP3   OH213374   1.222   5.242   2.053
 4478TIP3    H113375   1.199   5.209   2.139
 4478TIP3    H213376   1.266   5.169   2.010
 4479TIP3   OH213377   1.517   5.308   3.296
 4479TIP3    H113378   1.439   5.362   3.308
 4479TIP3    H213379   1.557   5.342   3.216
 4480TIP3   OH213380   1.354   5.052   1.896
 4480TIP3    H113381   1.325   5.057   1.805
 4480TIP3    H213382   1.449   5.058   1.891
 4481TIP3   OH213383   2.028   5.700   3.401
 4481TIP3    H113384   2.098   5.664   3.348
 4481TIP3    H213385   2.025   5.644   3.478
 4482TIP3   OH213386   2.154   5.353   1.571
 4482TIP3    H113387   2.139   5.309   1.487
 4482TIP3    H213388   2.128   5.443   1.556
 4483TIP3   OH213389   1.631   5.090   3.414
 4483TIP3    H113390   1.637   5.017   3.352
 4483TIP3    H213391   1.594   5.162   3.363
 4484TIP3   OH213392   1.640   4.888   3.213
 4484TIP3    H113393   1.669   4.926   3.130
 4484TIP3    H213394   1.549   4.863   3.198
 4485TIP3   OH213395   1.652   5.420   3.090
 4485TIP3    H113396   1.741   5.445   3.068
 4485TIP3    H213397   1.597   5.482   3.042
 4486TIP3   OH213398   2.241   5.376   3.464
 4486TIP3    H113399   2.280   5.289   3.475
 4486TIP3    H213400   2.315   5.433   3.441
 4487TIP3   OH213401   2.274   5.642   3.201
 4487TIP3    H113402   2.220   5.702   3.150
 4487TIP3    H213403   2.363   5.657   3.169
 4488TIP3   OH213404   1.513   5.184   3.652
 4488TIP3    H113405   1.447   5.118   3.673
 4488TIP3    H213406   1.545   5.160   3.565
 4489TIP3   OH213407   1.764   4.653   3.304
 4489TIP3    H113408   1.723   4.734   3.274
 4489TIP3    H213409   1.696   4.586   3.293
 4490TIP3   OH213410   1.889   5.137   3.511
 4490TIP3    H113411   1.882   5.124   3.606
 4490TIP3    H213412   1.803   5.114   3.478
 4491TIP3   OH213413   2.133   5.090   3.378
 4491TIP3    H113414   2.056   5.089   3.434
 4491TIP3    H213415   2.205   5.063   3.436
 4492TIP3   OH213416   2.366   5.049   3.529
 4492TIP3    H113417   2.382   4.954   3.537
 4492TIP3    H213418   2.362   5.080   3.620
 4493TIP3   OH213419   1.356   4.958   3.716
 4493TIP3    H113420   1.363   4.868   3.683
 4493TIP3    H213421   1.393   4.953   3.804
 4494TIP3   OH213422   1.837   4.643   3.569
 4494TIP3    H113423   1.906   4.576   3.566
 4494TIP3    H213424   1.806   4.649   3.479
 4495TIP3   OH213425   1.925   4.861   3.711
 4495TIP3    H113426   1.897   4.788   3.657
 4495TIP3    H213427   1.850   4.920   3.712
 4496TIP3   OH213428   1.164   6.109   1.838
 4496TIP3    H113429   1.244   6.101   1.787
 4496TIP3    H213430   1.096   6.126   1.773
 4497TIP3   OH213431   0.637   5.469   2.030
 4497TIP3    H113432   0.727   5.496   2.009
 4497TIP3    H213433   0.624   5.390   1.978
 4498TIP3   OH213434   0.537   6.070   2.469
 4498TIP3    H113435   0.480   6.012   2.420
 4498TIP3    H213436   0.588   6.012   2.525
 4499TIP3   OH213437   0.691   5.906   2.633
 4499TIP3    H113438   0.682   5.842   2.703
 4499TIP3    H213439   0.741   5.977   2.672
 4500TIP3   OH213440   2.414   6.347   2.439
 4500TIP3    H113441   2.441   6.357   2.531
 4500TIP3    H213442   2.493   6.369   2.389
 4501TIP3   OH213443   2.452   6.341   2.720
 4501TIP3    H113444   2.402   6.260   2.714
 4501TIP3    H213445   2.519   6.323   2.785
 4502TIP3   OH213446   2.491   6.040   3.290
 4502TIP3    H113447   2.421   6.047   3.355
 4502TIP3    H213448   2.537   6.123   3.295
 4503TIP3   OH213449   2.314   5.557   1.905
 4503TIP3    H113450   2.375   5.624   1.876
 4503TIP3    H213451   2.356   5.517   1.981
 4504TIP3   OH213452   2.440   5.414   2.107
 4504TIP3    H113453   2.373   5.373   2.162
 4504TIP3    H213454   2.505   5.446   2.169
 4505TIP3   OH213455   2.491   5.811   2.537
 4505TIP3    H113456   2.545   5.742   2.499
 4505TIP3    H213457   2.497   5.883   2.474
 4506TIP3   OH213458   2.306   6.105   2.728
 4506TIP3    H113459   2.238   6.146   2.781
 4506TIP3    H213460   2.257   6.063   2.657
 4507TIP3   OH213461   2.359   5.331   1.753
 4507TIP3    H113462   2.288   5.329   1.689
 4507TIP3    H213463   2.340   5.407   1.807
 4508TIP3   OH213464   2.218   4.986   1.692
 4508TIP3    H113465   2.173   5.021   1.615
 4508TIP3    H213466   2.206   4.891   1.685
 4509TIP3   OH213467   2.242   5.272   2.243
 4509TIP3    H113468   2.249   5.177   2.231
 4509TIP3    H213469   2.225   5.283   2.337
 4510TIP3   OH213470   0.870   5.336   3.008
 4510TIP3    H113471   0.861   5.304   2.918
 4510TIP3    H213472   0.965   5.336   3.024
 4511TIP3   OH213473   2.530   5.693   3.105
 4511TIP3    H113474   2.596   5.625   3.091
 4511TIP3    H213475   2.546   5.757   3.035
 4512TIP3   OH213476   2.706   5.483   3.100
 4512TIP3    H113477   2.632   5.441   3.143
 4512TIP3    H213478   2.781   5.426   3.120
 4513TIP3   OH213479   2.172   4.718   1.671
 4513TIP3    H113480   2.240   4.687   1.731
 4513TIP3    H213481   2.093   4.670   1.698
 4514TIP3   OH213482   2.240   4.995   2.129
 4514TIP3    H113483   2.284   4.911   2.143
 4514TIP3    H213484   2.285   5.034   2.054
 4515TIP3   OH213485   2.393   5.163   2.647
 4515TIP3    H113486   2.473   5.182   2.599
 4515TIP3    H213487   2.408   5.199   2.734
 4516TIP3   OH213488   2.467   5.311   2.877
 4516TIP3    H113489   2.393   5.342   2.930
 4516TIP3    H213490   2.499   5.390   2.833
 4517TIP3   OH213491   1.097   5.023   3.654
 4517TIP3    H113492   1.191   5.020   3.671
 4517TIP3    H213493   1.062   4.945   3.697
 4518TIP3   OH213494   2.925   4.911   3.419
 4518TIP3    H113495   2.988   4.853   3.378
 4518TIP3    H213496   2.888   4.962   3.346
 4519TIP3   OH213497   2.352   4.746   2.182
 4519TIP3    H113498   2.400   4.730   2.263
 4519TIP3    H213499   2.291   4.672   2.175
 4520TIP3   OH213500   1.055   4.728   3.012
 4520TIP3    H113501   1.111   4.651   3.014
 4520TIP3    H213502   1.114   4.801   2.994
 4521TIP3   OH213503   0.850   4.997   3.073
 4521TIP3    H113504   0.899   4.990   2.992
 4521TIP3    H213505   0.868   5.086   3.104
 4522TIP3   OH213506   2.777   5.028   3.220
 4522TIP3    H113507   2.692   5.067   3.237
 4522TIP3    H213508   2.758   4.950   3.168
 4523TIP3   OH213509   2.405   4.664   1.818
 4523TIP3    H113510   2.448   4.601   1.761
 4523TIP3    H213511   2.465   4.739   1.821
 4524TIP3   OH213512   0.832   4.501   2.573
 4524TIP3    H113513   0.745   4.490   2.612
 4524TIP3    H213514   0.817   4.557   2.496
 4525TIP3   OH213515   1.997   6.221   2.087
 4525TIP3    H113516   2.057   6.210   2.014
 4525TIP3    H213517   2.033   6.294   2.137
 4526TIP3   OH213518   1.023   4.525   3.401
 4526TIP3    H113519   0.988   4.555   3.485
 4526TIP3    H213520   0.983   4.584   3.337
 4527TIP3   OH213521   1.103   6.005   3.467
 4527TIP3    H113522   1.008   5.997   3.455
 4527TIP3    H213523   1.115   6.008   3.562
 4528TIP3   OH213524   1.290   6.057   3.015
 4528TIP3    H113525   1.236   6.130   2.983
 4528TIP3    H213526   1.375   6.069   2.971
 4529TIP3   OH213527   1.698   6.293   3.152
 4529TIP3    H113528   1.736   6.285   3.239
 4529TIP3    H213529   1.761   6.347   3.103
 4530TIP3   OH213530   1.888   6.446   3.022
 4530TIP3    H113531   1.952   6.390   2.979
 4530TIP3    H213532   1.940   6.503   3.079
 4531TIP3   OH213533   2.688   4.783   3.113
 4531TIP3    H113534   2.601   4.777   3.072
 4531TIP3    H213535   2.725   4.696   3.103
 4532TIP3   OH213536   0.952   6.303   3.057
 4532TIP3    H113537   0.861   6.320   3.035
 4532TIP3    H213538   0.973   6.369   3.124
 4533TIP3   OH213539   1.182   6.289   2.908
 4533TIP3    H113540   1.100   6.294   2.957
 4533TIP3    H213541   1.160   6.315   2.819
 4534TIP3   OH213542   1.602   6.308   2.700
 4534TIP3    H113543   1.527   6.320   2.641
 4534TIP3    H213544   1.612   6.393   2.743
 4535TIP3   OH213545   1.867   6.247   2.750
 4535TIP3    H113546   1.775   6.265   2.732
 4535TIP3    H213547   1.915   6.317   2.706
 4536TIP3   OH213548   2.072   6.426   2.657
 4536TIP3    H113549   2.065   6.513   2.618
 4536TIP3    H213550   2.100   6.369   2.585
 4537TIP3   OH213551   0.863   6.087   2.773
 4537TIP3    H113552   0.878   6.061   2.864
 4537TIP3    H213553   0.937   6.050   2.725
 4538TIP3   OH213554   1.067   5.966   2.640
 4538TIP3    H113555   1.077   5.883   2.686
 4538TIP3    H213556   1.153   6.006   2.644
 4539TIP3   OH213557   1.335   6.056   2.660
 4539TIP3    H113558   1.353   5.963   2.646
 4539TIP3    H213559   1.386   6.079   2.738
 4540TIP3   OH213560   1.893   4.706   2.744
 4540TIP3    H113561   1.855   4.634   2.794
 4540TIP3    H213562   1.962   4.666   2.691
 4541TIP3   OH213563   2.397   4.607   2.633
 4541TIP3    H113564   2.440   4.656   2.563
 4541TIP3    H213565   2.308   4.641   2.635
 4542TIP3   OH213566   2.515   4.694   2.400
 4542TIP3    H113567   2.585   4.634   2.376
 4542TIP3    H213568   2.552   4.781   2.387
 4543TIP3   OH213569   1.137   4.405   2.747
 4543TIP3    H113570   1.047   4.374   2.753
 4543TIP3    H213571   1.190   4.326   2.740
 4544TIP3   OH213572   0.954   4.307   2.400
 4544TIP3    H113573   0.980   4.358   2.324
 4544TIP3    H213574   0.918   4.371   2.461
 4545TIP3   OH213575   1.610   4.446   2.639
 4545TIP3    H113576   1.658   4.492   2.571
 4545TIP3    H213577   1.651   4.474   2.721
 4546TIP3   OH213578   2.107   4.591   2.615
 4546TIP3    H113579   2.129   4.557   2.528
 4546TIP3    H213580   2.112   4.515   2.672
 4547TIP3   OH213581   2.167   4.535   2.182
 4547TIP3    H113582   2.087   4.582   2.205
 4547TIP3    H213583   2.156   4.448   2.221
 4548TIP3   OH213584   0.627   5.879   2.187
 4548TIP3    H113585   0.552   5.841   2.141
 4548TIP3    H213586   0.637   5.967   2.149
 4549TIP3   OH213587   1.063   4.440   2.163
 4549TIP3    H113588   1.109   4.380   2.104
 4549TIP3    H213589   1.131   4.497   2.198
 4550TIP3   OH213590   1.552   4.635   2.261
 4550TIP3    H113591   1.612   4.584   2.315
 4550TIP3    H213592   1.566   4.726   2.287
 4551TIP3   OH213593   1.423   6.043   1.747
 4551TIP3    H113594   1.509   6.067   1.712
 4551TIP3    H213595   1.395   5.970   1.692
 4552TIP3   OH213596   2.163   6.195   1.860
 4552TIP3    H113597   2.160   6.100   1.860
 4552TIP3    H213598   2.107   6.221   1.787
 4553TIP3   OH213599   1.359   4.682   3.627
 4553TIP3    H113600   1.325   4.616   3.688
 4553TIP3    H213601   1.452   4.690   3.649
 4554TIP3   OH213602   1.607   4.688   3.753
 4554TIP3    H113603   1.688   4.669   3.705
 4554TIP3    H213604   1.603   4.622   3.821
 4555TIP3   OH213605   0.722   5.809   1.836
 4555TIP3    H113606   0.734   5.881   1.898
 4555TIP3    H213607   0.808   5.800   1.793
 4556TIP3   OH213608   2.434   4.779   3.542
 4556TIP3    H113609   2.450   4.749   3.631
 4556TIP3    H213610   2.520   4.773   3.499
 4557TIP3   OH213611   2.356   6.313   3.041
 4557TIP3    H113612   2.279   6.283   2.992
 4557TIP3    H213613   2.340   6.407   3.054
 4558TIP3   OH213614   3.629   5.702   1.788
 4558TIP3    H113615   3.599   5.789   1.761
 4558TIP3    H213616   3.558   5.643   1.763
 4559TIP3   OH213617   3.626   5.691   2.208
 4559TIP3    H113618   3.677   5.672   2.287
 4559TIP3    H213619   3.583   5.608   2.187
 4560TIP3   OH213620   2.926   5.561   2.556
 4560TIP3    H113621   2.960   5.505   2.627
 4560TIP3    H213622   3.003   5.584   2.505
 4561TIP3   OH213623   3.891   5.998   1.883
 4561TIP3    H113624   3.879   5.931   1.950
 4561TIP3    H213625   3.914   6.077   1.932
 4562TIP3   OH213626   2.907   5.988   2.252
 4562TIP3    H113627   2.894   5.893   2.255
 4562TIP3    H213628   3.001   6.000   2.246
 4563TIP3   OH213629   2.602   5.191   2.031
 4563TIP3    H113630   2.560   5.274   2.056
 4563TIP3    H213631   2.532   5.139   1.994
 4564TIP3   OH213632   2.672   5.486   2.247
 4564TIP3    H113633   2.721   5.408   2.275
 4564TIP3    H213634   2.738   5.542   2.207
 4565TIP3   OH213635   3.544   6.437   1.893
 4565TIP3    H113636   3.575   6.371   1.832
 4565TIP3    H213637   3.544   6.393   1.978
 4566TIP3   OH213638   3.430   5.917   2.218
 4566TIP3    H113639   3.470   5.836   2.186
 4566TIP3    H213640   3.503   5.971   2.247
 4567TIP3   OH213641   4.460   5.236   2.229
 4567TIP3    H113642   4.479   5.319   2.271
 4567TIP3    H213643   4.480   5.250   2.136
 4568TIP3   OH213644   3.847   5.406   2.250
 4568TIP3    H113645   3.881   5.321   2.277
 4568TIP3    H213646   3.807   5.390   2.165
 4569TIP3   OH213647   3.196   5.070   2.210
 4569TIP3    H113648   3.170   5.141   2.151
 4569TIP3    H213649   3.143   4.995   2.182
 4570TIP3   OH213650   3.891   5.163   1.843
 4570TIP3    H113651   3.955   5.154   1.914
 4570TIP3    H213652   3.942   5.197   1.769
 4571TIP3   OH213653   2.821   5.273   2.337
 4571TIP3    H113654   2.903   5.254   2.382
 4571TIP3    H213655   2.825   5.221   2.256
 4572TIP3   OH213656   3.241   5.476   2.153
 4572TIP3    H113657   3.335   5.459   2.159
 4572TIP3    H213658   3.205   5.395   2.118
 4573TIP3   OH213659   4.523   5.454   2.396
 4573TIP3    H113660   4.433   5.488   2.389
 4573TIP3    H213661   4.553   5.485   2.481
 4574TIP3   OH213662   3.169   5.059   2.670
 4574TIP3    H113663   3.117   5.085   2.593
 4574TIP3    H213664   3.112   5.079   2.744
 4575TIP3   OH213665   3.528   5.920   1.647
 4575TIP3    H113666   3.487   5.891   1.566
 4575TIP3    H213667   3.473   5.993   1.677
 4576TIP3   OH213668   3.276   5.838   2.435
 4576TIP3    H113669   3.220   5.908   2.469
 4576TIP3    H213670   3.323   5.879   2.362
 4577TIP3   OH213671   4.056   5.183   2.060
 4577TIP3    H113672   4.016   5.158   2.143
 4577TIP3    H213673   4.112   5.257   2.081
 4578TIP3   OH213674   3.062   5.168   2.436
 4578TIP3    H113675   3.120   5.239   2.462
 4578TIP3    H213676   3.110   5.123   2.366
 4579TIP3   OH213677   3.114   6.040   2.538
 4579TIP3    H113678   3.097   6.129   2.507
 4579TIP3    H213679   3.037   6.017   2.590
 4580TIP3   OH213680   2.494   5.741   1.785
 4580TIP3    H113681   2.457   5.754   1.698
 4580TIP3    H213682   2.525   5.828   1.811
 4581TIP3   OH213683   3.933   6.244   2.024
 4581TIP3    H113684   3.846   6.235   2.064
 4581TIP3    H213685   3.931   6.328   1.979
 4582TIP3   OH213686   4.255   5.133   2.398
 4582TIP3    H113687   4.169   5.153   2.363
 4582TIP3    H213688   4.316   5.158   2.329
 4583TIP3   OH213689   3.529   4.762   2.383
 4583TIP3    H113690   3.491   4.675   2.396
 4583TIP3    H213691   3.469   4.822   2.426
 4584TIP3   OH213692   3.640   6.280   1.685
 4584TIP3    H113693   3.691   6.199   1.674
 4584TIP3    H213694   3.700   6.349   1.657
 4585TIP3   OH213695   3.781   6.053   1.634
 4585TIP3    H113696   3.712   5.987   1.626
 4585TIP3    H213697   3.830   6.027   1.713
 4586TIP3   OH213698   4.167   6.139   2.368
 4586TIP3    H113699   4.150   6.063   2.312
 4586TIP3    H213700   4.151   6.215   2.311
 4587TIP3   OH213701   3.455   5.542   1.639
 4587TIP3    H113702   3.373   5.587   1.618
 4587TIP3    H213703   3.502   5.538   1.556
 4588TIP3   OH213704   3.424   5.341   1.334
 4588TIP3    H113705   3.489   5.389   1.385
 4588TIP3    H213706   3.474   5.274   1.287
 4589TIP3   OH213707   4.355   5.797   2.230
 4589TIP3    H113708   4.270   5.841   2.231
 4589TIP3    H213709   4.389   5.812   2.142
 4590TIP3   OH213710   3.813   5.628   1.601
 4590TIP3    H113711   3.759   5.656   1.675
 4590TIP3    H213712   3.896   5.600   1.641
 4591TIP3   OH213713   4.043   5.659   2.537
 4591TIP3    H113714   4.040   5.742   2.586
 4591TIP3    H213715   3.960   5.657   2.490
 4592TIP3   OH213716   3.042   5.611   2.009
 4592TIP3    H113717   3.005   5.551   1.944
 4592TIP3    H213718   3.114   5.562   2.049
 4593TIP3   OH213719   3.172   6.036   2.149
 4593TIP3    H113720   3.149   6.015   2.059
 4593TIP3    H213721   3.259   5.997   2.162
 4594TIP3   OH213722   3.144   5.602   2.382
 4594TIP3    H113723   3.182   5.566   2.302
 4594TIP3    H213724   3.195   5.681   2.399
 4595TIP3   OH213725   3.696   6.238   2.155
 4595TIP3    H113726   3.684   6.316   2.208
 4595TIP3    H213727   3.682   6.165   2.216
 4596TIP3   OH213728   3.314   6.143   2.700
 4596TIP3    H113729   3.255   6.201   2.748
 4596TIP3    H213730   3.257   6.090   2.645
 4597TIP3   OH213731   3.643   5.489   1.436
 4597TIP3    H113732   3.703   5.545   1.484
 4597TIP3    H213733   3.669   5.497   1.345
 4598TIP3   OH213734   3.070   5.697   2.832
 4598TIP3    H113735   3.071   5.789   2.858
 4598TIP3    H213736   2.977   5.675   2.827
 4599TIP3   OH213737   3.390   6.160   1.693
 4599TIP3    H113738   3.472   6.208   1.700
 4599TIP3    H213739   3.332   6.218   1.644
 4600TIP3   OH213740   3.104   6.303   2.785
 4600TIP3    H113741   3.076   6.309   2.694
 4600TIP3    H213742   3.022   6.286   2.833
 4601TIP3   OH213743   4.155   4.716   1.486
 4601TIP3    H113744   4.078   4.735   1.538
 4601TIP3    H213745   4.167   4.794   1.431
 4602TIP3   OH213746   2.916   5.455   1.807
 4602TIP3    H113747   2.838   5.497   1.772
 4602TIP3    H213748   2.888   5.366   1.827
 4603TIP3   OH213749   3.966   6.086   1.043
 4603TIP3    H113750   3.973   6.180   1.027
 4603TIP3    H213751   4.055   6.053   1.031
 4604TIP3   OH213752   2.693   5.853   2.733
 4604TIP3    H113753   2.624   5.832   2.670
 4604TIP3    H213754   2.728   5.767   2.758
 4605TIP3   OH213755   2.575   6.029   2.377
 4605TIP3    H113756   2.663   6.015   2.341
 4605TIP3    H213757   2.586   6.102   2.438
 4606TIP3   OH213758   4.400   6.500   2.433
 4606TIP3    H113759   4.406   6.405   2.445
 4606TIP3    H213760   4.321   6.526   2.480
 4607TIP3   OH213761   3.503   6.284   2.558
 4607TIP3    H113762   3.498   6.374   2.588
 4607TIP3    H213763   3.436   6.238   2.609
 4608TIP3   OH213764   3.275   6.387   1.519
 4608TIP3    H113765   3.231   6.365   1.436
 4608TIP3    H213766   3.239   6.473   1.542
 4609TIP3   OH213767   2.703   6.283   1.915
 4609TIP3    H113768   2.758   6.260   1.989
 4609TIP3    H213769   2.654   6.203   1.895
 4610TIP3   OH213770   3.480   6.300   1.174
 4610TIP3    H113771   3.535   6.232   1.135
 4610TIP3    H213772   3.519   6.315   1.260
 4611TIP3   OH213773   3.534   6.361   1.434
 4611TIP3    H113774   3.445   6.365   1.470
 4611TIP3    H213775   3.587   6.325   1.504
 4612TIP3   OH213776   4.290   5.614   2.701
 4612TIP3    H113777   4.207   5.624   2.654
 4612TIP3    H213778   4.308   5.520   2.698
 4613TIP3   OH213779   2.893   6.038   2.706
 4613TIP3    H113780   2.944   6.028   2.786
 4613TIP3    H213781   2.823   5.973   2.713
 4614TIP3   OH213782   3.325   4.875   2.524
 4614TIP3    H113783   3.291   4.787   2.509
 4614TIP3    H213784   3.256   4.919   2.573
 4615TIP3   OH213785   3.829   4.966   2.706
 4615TIP3    H113786   3.897   4.939   2.768
 4615TIP3    H213787   3.746   4.950   2.752
 4616TIP3   OH213788   4.049   5.396   2.632
 4616TIP3    H113789   4.006   5.392   2.717
 4616TIP3    H213790   4.030   5.484   2.599
 4617TIP3   OH213791   3.722   5.491   1.177
 4617TIP3    H113792   3.677   5.483   1.093
 4617TIP3    H213793   3.803   5.538   1.157
 4618TIP3   OH213794   3.433   4.894   1.485
 4618TIP3    H113795   3.399   4.898   1.574
 4618TIP3    H213796   3.395   4.813   1.449
 4619TIP3   OH213797   3.221   5.377   2.528
 4619TIP3    H113798   3.173   5.383   2.611
 4619TIP3    H213799   3.199   5.458   2.482
 4620TIP3   OH213800   3.098   5.265   2.042
 4620TIP3    H113801   3.010   5.236   2.068
 4620TIP3    H213802   3.110   5.228   1.954
 4621TIP3   OH213803   3.584   5.338   1.774
 4621TIP3    H113804   3.536   5.409   1.733
 4621TIP3    H213805   3.642   5.305   1.704
 4622TIP3   OH213806   3.767   5.607   2.851
 4622TIP3    H113807   3.740   5.538   2.911
 4622TIP3    H213808   3.860   5.621   2.871
 4623TIP3   OH213809   3.753   5.354   1.997
 4623TIP3    H113810   3.684   5.376   1.935
 4623TIP3    H213811   3.797   5.279   1.958
 4624TIP3   OH213812   3.051   5.392   2.746
 4624TIP3    H113813   3.079   5.451   2.817
 4624TIP3    H213814   3.033   5.309   2.790
 4625TIP3   OH213815   3.097   4.875   1.455
 4625TIP3    H113816   3.088   4.875   1.550
 4625TIP3    H213817   3.019   4.921   1.424
 4626TIP3   OH213818   2.643   4.918   2.321
 4626TIP3    H113819   2.711   4.954   2.378
 4626TIP3    H213820   2.692   4.887   2.244
 4627TIP3   OH213821   2.565   4.895   1.833
 4627TIP3    H113822   2.612   4.930   1.757
 4627TIP3    H213823   2.503   4.963   1.856
 4628TIP3   OH213824   3.786   5.604   2.424
 4628TIP3    H113825   3.813   5.538   2.361
 4628TIP3    H213826   3.745   5.555   2.496
 4629TIP3   OH213827   3.463   5.061   2.102
 4629TIP3    H113828   3.383   5.060   2.155
 4629TIP3    H213829   3.534   5.047   2.164
 4630TIP3   OH213830   2.864   5.134   2.104
 4630TIP3    H113831   2.775   5.137   2.069
 4630TIP3    H213832   2.893   5.044   2.089
 4631TIP3   OH213833   3.119   5.136   1.801
 4631TIP3    H113834   3.213   5.145   1.788
 4631TIP3    H213835   3.081   5.153   1.715
 4632TIP3   OH213836   3.920   5.142   2.305
 4632TIP3    H113837   3.898   5.159   2.397
 4632TIP3    H213838   3.854   5.079   2.276
 4633TIP3   OH213839   2.995   5.165   1.557
 4633TIP3    H113840   2.930   5.116   1.507
 4633TIP3    H213841   3.049   5.207   1.491
 4634TIP3   OH213842   4.108   6.845   2.528
 4634TIP3    H113843   4.106   6.863   2.434
 4634TIP3    H213844   4.186   6.890   2.559
 4635TIP3   OH213845   3.053   5.959   2.938
 4635TIP3    H113846   3.134   5.978   2.986
 4635TIP3    H213847   2.984   5.961   3.005
 4636TIP3   OH213848   3.514   5.422   2.202
 4636TIP3    H113849   3.575   5.365   2.155
 4636TIP3    H213850   3.509   5.385   2.290
 4637TIP3   OH213851   3.013   4.889   2.093
 4637TIP3    H113852   2.982   4.816   2.147
 4637TIP3    H213853   3.056   4.848   2.018
 4638TIP3   OH213854   3.488   5.332   2.464
 4638TIP3    H113855   3.400   5.353   2.494
 4638TIP3    H213856   3.546   5.378   2.525
 4639TIP3   OH213857   3.218   5.682   1.580
 4639TIP3    H113858   3.145   5.623   1.561
 4639TIP3    H213859   3.196   5.719   1.666
 4640TIP3   OH213860   4.115   5.931   2.193
 4640TIP3    H113861   4.147   5.980   2.118
 4640TIP3    H213862   4.034   5.890   2.162
 4641TIP3   OH213863   3.685   4.997   1.475
 4641TIP3    H113864   3.592   4.975   1.477
 4641TIP3    H213865   3.688   5.091   1.493
 4642TIP3   OH213866   3.629   6.017   2.594
 4642TIP3    H113867   3.674   6.002   2.677
 4642TIP3    H213868   3.588   6.102   2.603
 4643TIP3   OH213869   3.747   5.257   1.557
 4643TIP3    H113870   3.842   5.261   1.567
 4643TIP3    H213871   3.725   5.335   1.506
 4644TIP3   OH213872   2.918   5.708   2.237
 4644TIP3    H113873   2.955   5.683   2.153
 4644TIP3    H213874   2.978   5.670   2.302
 4645TIP3   OH213875   3.373   5.841   1.423
 4645TIP3    H113876   3.326   5.924   1.422
 4645TIP3    H213877   3.318   5.783   1.476
 4646TIP3   OH213878   2.797   5.630   2.869
 4646TIP3    H113879   2.808   5.608   2.962
 4646TIP3    H213880   2.726   5.574   2.840
 4647TIP3   OH213881   3.532   5.757   2.887
 4647TIP3    H113882   3.464   5.697   2.856
 4647TIP3    H213883   3.614   5.717   2.859
 4648TIP3   OH213884   3.776   6.299   2.479
 4648TIP3    H113885   3.681   6.285   2.486
 4648TIP3    H213886   3.800   6.337   2.563
 4649TIP3   OH213887   4.173   5.346   1.377
 4649TIP3    H113888   4.116   5.299   1.316
 4649TIP3    H213889   4.174   5.436   1.345
 4650TIP3   OH213890   4.414   6.217   2.457
 4650TIP3    H113891   4.319   6.204   2.453
 4650TIP3    H213892   4.446   6.187   2.372
 4651TIP3   OH213893   3.905   6.157   1.310
 4651TIP3    H113894   3.874   6.090   1.371
 4651TIP3    H213895   3.913   6.111   1.226
 4652TIP3   OH213896   3.882   5.797   2.092
 4652TIP3    H113897   3.792   5.774   2.116
 4652TIP3    H213898   3.919   5.716   2.055
 4653TIP3   OH213899   3.029   6.032   1.898
 4653TIP3    H113900   3.025   6.110   1.843
 4653TIP3    H213901   2.937   6.009   1.913
 4654TIP3   OH213902   2.593   5.319   1.607
 4654TIP3    H113903   2.638   5.401   1.629
 4654TIP3    H213904   2.514   5.320   1.661
 4655TIP3   OH213905   3.134   5.789   1.814
 4655TIP3    H113906   3.112   5.877   1.842
 4655TIP3    H213907   3.106   5.733   1.887
 4656TIP3   OH213908   3.314   6.358   2.355
 4656TIP3    H113909   3.352   6.430   2.304
 4656TIP3    H213910   3.387   6.323   2.405
 4657TIP3   OH213911   2.934   6.265   1.752
 4657TIP3    H113912   2.849   6.278   1.795
 4657TIP3    H213913   2.974   6.352   1.752
 4658TIP3   OH213914   3.672   6.013   2.322
 4658TIP3    H113915   3.660   6.010   2.417
 4658TIP3    H213916   3.744   5.953   2.305
 4659TIP3   OH213917   3.662   5.879   1.196
 4659TIP3    H113918   3.714   5.859   1.273
 4659TIP3    H213919   3.576   5.841   1.214
 4660TIP3   OH213920   3.927   6.519   2.367
 4660TIP3    H113921   3.856   6.455   2.382
 4660TIP3    H213922   3.895   6.573   2.296
 4661TIP3   OH213923   3.996   6.364   1.022
 4661TIP3    H113924   4.041   6.447   1.008
 4661TIP3    H213925   3.906   6.387   1.045
 4662TIP3   OH213926   3.002   5.142   2.875
 4662TIP3    H113927   2.906   5.145   2.880
 4662TIP3    H213928   3.027   5.079   2.943
 4663TIP3   OH213929   3.834   5.816   1.398
 4663TIP3    H113930   3.819   5.760   1.473
 4663TIP3    H213931   3.930   5.822   1.392
 4664TIP3   OH213932   2.736   6.227   2.534
 4664TIP3    H113933   2.788   6.160   2.577
 4664TIP3    H213934   2.752   6.306   2.585
 4665TIP3   OH213935   3.015   5.863   1.206
 4665TIP3    H113936   3.026   5.772   1.179
 4665TIP3    H213937   2.998   5.859   1.300
 4666TIP3   OH213938   2.958   5.882   1.478
 4666TIP3    H113939   3.029   5.852   1.535
 4666TIP3    H213940   2.960   5.978   1.486
 4667TIP3   OH213941   2.692   5.569   1.687
 4667TIP3    H113942   2.626   5.614   1.740
 4667TIP3    H213943   2.711   5.629   1.615
 4668TIP3   OH213944   3.856   5.203   2.567
 4668TIP3    H113945   3.934   5.245   2.603
 4668TIP3    H213946   3.846   5.123   2.619
 4669TIP3   OH213947   3.744   4.947   1.747
 4669TIP3    H113948   3.724   4.966   1.655
 4669TIP3    H213949   3.786   5.027   1.779
 4670TIP3   OH213950   3.227   6.069   1.423
 4670TIP3    H113951   3.143   6.094   1.462
 4670TIP3    H213952   3.248   6.140   1.362
 4671TIP3   OH213953   3.400   5.144   1.843
 4671TIP3    H113954   3.463   5.212   1.819
 4671TIP3    H213955   3.418   5.126   1.936
 4672TIP3   OH213956   3.694   5.440   2.625
 4672TIP3    H113957   3.718   5.481   2.708
 4672TIP3    H213958   3.742   5.357   2.624
 4673TIP3   OH213959   3.564   4.851   1.936
 4673TIP3    H113960   3.542   4.928   1.988
 4673TIP3    H213961   3.630   4.880   1.874
 4674TIP3   OH213962   2.976   6.156   1.499
 4674TIP3    H113963   2.953   6.225   1.436
 4674TIP3    H213964   2.959   6.196   1.585
 4675TIP3   OH213965   3.074   4.863   1.732
 4675TIP3    H113966   3.062   4.951   1.767
 4675TIP3    H213967   3.168   4.846   1.740
 4676TIP3   OH213968   4.312   5.338   2.610
 4676TIP3    H113969   4.218   5.349   2.623
 4676TIP3    H213970   4.319   5.277   2.537
 4677TIP3   OH213971   3.975   5.542   2.001
 4677TIP3    H113972   3.898   5.486   2.012
 4677TIP3    H213973   4.042   5.500   2.054
 4678TIP3   OH213974   2.710   5.754   1.475
 4678TIP3    H113975   2.782   5.817   1.483
 4678TIP3    H213976   2.742   5.690   1.412
 4679TIP3   OH213977   2.627   5.043   1.610
 4679TIP3    H113978   2.635   5.138   1.615
 4679TIP3    H213979   2.560   5.027   1.544
 4680TIP3   OH213980   3.953   6.511   1.943
 4680TIP3    H113981   3.910   6.562   1.875
 4680TIP3    H213982   4.046   6.525   1.928
 4681TIP3   OH213983   2.986   4.775   2.489
 4681TIP3    H113984   2.991   4.741   2.400
 4681TIP3    H213985   3.011   4.701   2.544
 4682TIP3   OH213986   2.551   6.035   1.852
 4682TIP3    H113987   2.477   6.035   1.913
 4682TIP3    H213988   2.515   6.067   1.770
 4683TIP3   OH213989   2.739   6.552   2.936
 4683TIP3    H113990   2.822   6.555   2.984
 4683TIP3    H213991   2.720   6.458   2.929
 4684TIP3   OH213992   3.206   6.474   2.976
 4684TIP3    H113993   3.298   6.449   2.988
 4684TIP3    H213994   3.174   6.418   2.906
 4685TIP3   OH213995   3.173   6.065   1.103
 4685TIP3    H113996   3.126   5.993   1.145
 4685TIP3    H213997   3.249   6.023   1.061
 4686TIP3   OH213998   3.832   6.406   2.725
 4686TIP3    H113999   3.839   6.336   2.790
 4686TIP3    H214000   3.908   6.462   2.743
 4687TIP3   OH214001   3.612   6.100   1.045
 4687TIP3    H114002   3.641   6.028   1.102
 4687TIP3    H214003   3.662   6.089   0.965
 4688TIP3   OH214004   2.848   5.950   3.128
 4688TIP3    H114005   2.868   5.857   3.137
 4688TIP3    H214006   2.761   5.952   3.087
 4689TIP3   OH214007   2.838   5.563   1.329
 4689TIP3    H114008   2.889   5.537   1.405
 4689TIP3    H214009   2.902   5.574   1.259
 4690TIP3   OH214010   3.466   6.034   2.905
 4690TIP3    H114011   3.421   6.054   2.822
 4690TIP3    H214012   3.499   5.945   2.893
 4691TIP3   OH214013   3.390   5.780   1.156
 4691TIP3    H114014   3.372   5.792   1.249
 4691TIP3    H214015   3.377   5.686   1.141
 4692TIP3   OH214016   3.945   6.072   2.521
 4692TIP3    H114017   4.022   6.102   2.473
 4692TIP3    H214018   3.878   6.137   2.503
 4693TIP3   OH214019   2.966   5.694   3.128
 4693TIP3    H114020   3.044   5.667   3.079
 4693TIP3    H214021   2.999   5.714   3.215
 4694TIP3   OH214022   3.014   5.499   1.539
 4694TIP3    H114023   2.993   5.467   1.626
 4694TIP3    H214024   3.060   5.425   1.497
 4695TIP3   OH214025   3.317   5.575   2.791
 4695TIP3    H114026   3.234   5.623   2.798
 4695TIP3    H214027   3.353   5.603   2.707
 4696TIP3   OH214028   3.149   5.311   1.382
 4696TIP3    H114029   3.120   5.314   1.291
 4696TIP3    H214030   3.245   5.316   1.377
 4697TIP3   OH214031   3.825   5.956   2.886
 4697TIP3    H114032   3.894   5.916   2.832
 4697TIP3    H214033   3.820   5.900   2.964
 4698TIP3   OH214034   3.945   5.609   1.065
 4698TIP3    H114035   3.927   5.562   0.984
 4698TIP3    H214036   3.923   5.700   1.045
 4699TIP3   OH214037   3.429   5.348   2.897
 4699TIP3    H114038   3.429   5.275   2.835
 4699TIP3    H214039   3.391   5.421   2.848
 4700TIP3   OH214040   3.429   5.148   2.697
 4700TIP3    H114041   3.456   5.174   2.608
 4700TIP3    H214042   3.340   5.114   2.686
 4701TIP3   OH214043   3.445   5.672   2.574
 4701TIP3    H114044   3.536   5.693   2.549
 4701TIP3    H214045   3.392   5.736   2.526
 4702TIP3   OH214046   4.035   5.634   2.951
 4702TIP3    H114047   4.071   5.546   2.959
 4702TIP3    H214048   4.111   5.689   2.930
 4703TIP3   OH214049   4.070   5.898   2.689
 4703TIP3    H114050   4.016   5.959   2.638
 4703TIP3    H214051   4.159   5.913   2.657
 4704TIP3   OH214052   3.312   5.439   3.139
 4704TIP3    H114053   3.244   5.375   3.160
 4704TIP3    H214054   3.342   5.415   3.051
 4705TIP3   OH214055   3.565   4.918   2.784
 4705TIP3    H114056   3.516   4.994   2.755
 4705TIP3    H214057   3.520   4.843   2.744
 4706TIP3   OH214058   3.684   5.392   2.998
 4706TIP3    H114059   3.673   5.378   3.092
 4706TIP3    H214060   3.599   5.369   2.960
 4707TIP3   OH214061   3.931   5.350   2.869
 4707TIP3    H114062   3.852   5.347   2.923
 4707TIP3    H214063   4.000   5.319   2.927
 4708TIP3   OH214064   4.168   5.306   3.016
 4708TIP3    H114065   4.181   5.212   3.024
 4708TIP3    H214066   4.162   5.337   3.106
 4709TIP3   OH214067   3.146   5.223   3.206
 4709TIP3    H114068   3.149   5.135   3.167
 4709TIP3    H214069   3.185   5.212   3.293
 4710TIP3   OH214070   3.630   4.896   3.053
 4710TIP3    H114071   3.699   4.830   3.047
 4710TIP3    H214072   3.599   4.906   2.963
 4711TIP3   OH214073   3.721   5.115   3.196
 4711TIP3    H114074   3.692   5.043   3.140
 4711TIP3    H214075   3.646   5.175   3.197
 4712TIP3   OH214076   2.962   6.363   1.312
 4712TIP3    H114077   3.052   6.344   1.287
 4712TIP3    H214078   2.925   6.408   1.236
 4713TIP3   OH214079   2.437   5.739   1.500
 4713TIP3    H114080   2.532   5.752   1.492
 4713TIP3    H214081   2.422   5.653   1.461
 4714TIP3   OH214082   2.450   6.261   2.101
 4714TIP3    H114083   2.408   6.185   2.141
 4714TIP3    H214084   2.518   6.286   2.163
 4715TIP3   OH214085   4.222   6.569   1.933
 4715TIP3    H114086   4.239   6.593   2.024
 4715TIP3    H214087   4.268   6.635   1.881
 4716TIP3   OH214088   4.242   6.599   2.211
 4716TIP3    H114089   4.193   6.517   2.208
 4716TIP3    H214090   4.310   6.584   2.276
 4717TIP3   OH214091   4.290   6.300   2.779
 4717TIP3    H114092   4.220   6.307   2.844
 4717TIP3    H214093   4.335   6.385   2.784
 4718TIP3   OH214094   4.112   5.809   1.396
 4718TIP3    H114095   4.173   5.877   1.369
 4718TIP3    H214096   4.153   5.768   1.472
 4719TIP3   OH214097   4.236   5.665   1.596
 4719TIP3    H114098   4.168   5.625   1.651
 4719TIP3    H214099   4.299   5.700   1.658
 4720TIP3   OH214100   4.289   6.072   2.026
 4720TIP3    H114101   4.342   6.004   1.983
 4720TIP3    H214102   4.287   6.144   1.963
 4721TIP3   OH214103   4.100   6.360   2.216
 4721TIP3    H114104   4.033   6.403   2.269
 4721TIP3    H214105   4.052   6.317   2.145
 4722TIP3   OH214106   4.155   5.586   1.241
 4722TIP3    H114107   4.084   5.585   1.177
 4722TIP3    H214108   4.138   5.663   1.295
 4723TIP3   OH214109   4.021   5.237   1.179
 4723TIP3    H114110   3.970   5.277   1.109
 4723TIP3    H214111   4.007   5.143   1.168
 4724TIP3   OH214112   4.038   5.526   1.732
 4724TIP3    H114113   4.043   5.431   1.719
 4724TIP3    H214114   4.020   5.537   1.825
 4725TIP3   OH214115   2.663   5.600   2.497
 4725TIP3    H114116   2.653   5.561   2.410
 4725TIP3    H214117   2.757   5.595   2.515
 4726TIP3   OH214118   4.327   5.950   2.593
 4726TIP3    H114119   4.393   5.882   2.578
 4726TIP3    H214120   4.343   6.015   2.525
 4727TIP3   OH214121   4.504   5.740   2.585
 4727TIP3    H114122   4.429   5.697   2.627
 4727TIP3    H214123   4.579   5.683   2.606
 4728TIP3   OH214124   3.972   4.967   1.151
 4728TIP3    H114125   4.037   4.940   1.216
 4728TIP3    H214126   3.890   4.926   1.179
 4729TIP3   OH214127   4.037   5.251   1.615
 4729TIP3    H114128   4.080   5.167   1.628
 4729TIP3    H214129   4.083   5.290   1.540
 4730TIP3   OH214130   4.190   5.416   2.135
 4730TIP3    H114131   4.272   5.434   2.088
 4730TIP3    H214132   4.203   5.455   2.222
 4731TIP3   OH214133   4.264   5.568   2.361
 4731TIP3    H114134   4.190   5.597   2.416
 4731TIP3    H214135   4.296   5.648   2.320
 4732TIP3   OH214136   2.880   5.276   3.149
 4732TIP3    H114137   2.975   5.272   3.162
 4732TIP3    H214138   2.848   5.194   3.187
 4733TIP3   OH214139   4.723   5.169   2.906
 4733TIP3    H114140   4.785   5.108   2.865
 4733TIP3    H214141   4.686   5.218   2.832
 4734TIP3   OH214142   4.148   5.000   1.666
 4734TIP3    H114143   4.193   4.986   1.749
 4734TIP3    H214144   4.086   4.928   1.660
 4735TIP3   OH214145   2.838   4.999   2.506
 4735TIP3    H114146   2.884   4.915   2.509
 4735TIP3    H214147   2.906   5.063   2.486
 4736TIP3   OH214148   2.634   5.257   2.551
 4736TIP3    H114149   2.687   5.241   2.473
 4736TIP3    H214150   2.678   5.329   2.596
 4737TIP3   OH214151   4.576   5.286   2.709
 4737TIP3    H114152   4.494   5.326   2.740
 4737TIP3    H214153   4.547   5.213   2.654
 4738TIP3   OH214154   4.202   4.920   1.305
 4738TIP3    H114155   4.246   4.857   1.249
 4738TIP3    H214156   4.261   4.996   1.307
 4739TIP3   OH214157   2.624   4.752   2.058
 4739TIP3    H114158   2.538   4.746   2.099
 4739TIP3    H214159   2.611   4.810   1.983
 4740TIP3   OH214160   3.788   6.476   1.576
 4740TIP3    H114161   3.841   6.462   1.497
 4740TIP3    H214162   3.833   6.545   1.623
 4741TIP3   OH214163   2.856   4.848   2.894
 4741TIP3    H114164   2.798   4.831   2.969
 4741TIP3    H214165   2.798   4.878   2.825
 4742TIP3   OH214166   2.880   6.271   2.951
 4742TIP3    H114167   2.787   6.251   2.942
 4742TIP3    H214168   2.900   6.255   3.043
 4743TIP3   OH214169   3.084   6.314   2.501
 4743TIP3    H114170   3.033   6.389   2.470
 4743TIP3    H214171   3.169   6.324   2.459
 4744TIP3   OH214172   3.495   6.550   2.639
 4744TIP3    H114173   3.532   6.542   2.727
 4744TIP3    H214174   3.558   6.602   2.591
 4745TIP3   OH214175   3.684   6.704   2.509
 4745TIP3    H114176   3.748   6.648   2.464
 4745TIP3    H214177   3.738   6.760   2.566
 4746TIP3   OH214178   4.486   5.037   2.601
 4746TIP3    H114179   4.397   5.026   2.568
 4746TIP3    H214180   4.524   4.949   2.596
 4747TIP3   OH214181   2.749   6.577   2.541
 4747TIP3    H114182   2.656   6.595   2.523
 4747TIP3    H214183   2.771   6.637   2.612
 4748TIP3   OH214184   2.979   6.547   2.395
 4748TIP3    H114185   2.897   6.557   2.443
 4748TIP3    H214186   2.958   6.572   2.305
 4749TIP3   OH214187   3.398   6.565   2.188
 4749TIP3    H114188   3.328   6.578   2.124
 4749TIP3    H214189   3.409   6.651   2.229
 4750TIP3   OH214190   3.663   6.503   2.239
 4750TIP3    H114191   3.571   6.521   2.219
 4750TIP3    H214192   3.711   6.571   2.194
 4751TIP3   OH214193   3.864   6.679   2.144
 4751TIP3    H114194   3.859   6.766   2.103
 4751TIP3    H214195   3.893   6.621   2.074
 4752TIP3   OH214196   2.662   6.335   2.287
 4752TIP3    H114197   2.685   6.308   2.376
 4752TIP3    H214198   2.733   6.300   2.232
 4753TIP3   OH214199   2.861   6.231   2.132
 4753TIP3    H114200   2.871   6.144   2.172
 4753TIP3    H214201   2.949   6.268   2.134
 4754TIP3   OH214202   3.130   6.313   2.148
 4754TIP3    H114203   3.149   6.220   2.133
 4754TIP3    H214204   3.182   6.336   2.224
 4755TIP3   OH214205   3.691   4.960   2.235
 4755TIP3    H114206   3.650   4.888   2.283
 4755TIP3    H214207   3.760   4.919   2.183
 4756TIP3   OH214208   4.198   4.867   2.123
 4756TIP3    H114209   4.234   4.918   2.050
 4756TIP3    H214210   4.105   4.888   2.123
 4757TIP3   OH214211   4.308   4.953   1.887
 4757TIP3    H114212   4.378   4.894   1.859
 4757TIP3    H214213   4.345   5.041   1.873
 4758TIP3   OH214214   2.933   4.666   2.232
 4758TIP3    H114215   2.846   4.629   2.247
 4758TIP3    H214216   2.991   4.590   2.229
 4759TIP3   OH214217   2.734   4.556   1.882
 4759TIP3    H114218   2.768   4.609   1.810
 4759TIP3    H214219   2.705   4.620   1.947
 4760TIP3   OH214220   3.392   4.709   2.113
 4760TIP3    H114221   3.456   4.759   2.063
 4760TIP3    H214222   3.412   4.728   2.205
 4761TIP3   OH214223   3.913   4.856   2.100
 4761TIP3    H114224   3.916   4.819   2.012
 4761TIP3    H214225   3.913   4.779   2.158
 4762TIP3   OH214226   3.963   4.790   1.670
 4762TIP3    H114227   3.882   4.837   1.693
 4762TIP3    H214228   3.952   4.704   1.710
 4763TIP3   OH214229   2.431   6.148   1.634
 4763TIP3    H114230   2.349   6.111   1.600
 4763TIP3    H214231   2.433   6.236   1.597
 4764TIP3   OH214232   2.857   4.698   1.652
 4764TIP3    H114233   2.903   4.636   1.595
 4764TIP3    H214234   2.927   4.753   1.687
 4765TIP3   OH214235   3.350   4.891   1.749
 4765TIP3    H114236   3.405   4.837   1.807
 4765TIP3    H214237   3.366   4.981   1.778
 4766TIP3   OH214238   3.219   6.291   1.250
 4766TIP3    H114239   3.308   6.313   1.222
 4766TIP3    H214240   3.191   6.221   1.190
 4767TIP3   OH214241   3.935   6.425   1.344
 4767TIP3    H114242   3.928   6.330   1.337
 4767TIP3    H214243   3.889   6.459   1.267
 4768TIP3   OH214244   3.154   4.954   3.124
 4768TIP3    H114245   3.117   4.881   3.174
 4768TIP3    H214246   3.246   4.956   3.150
 4769TIP3   OH214247   3.406   4.950   3.241
 4769TIP3    H114248   3.484   4.927   3.190
 4769TIP3    H214249   3.399   4.880   3.306
 4770TIP3   OH214250   2.532   6.129   1.304
 4770TIP3    H114251   2.535   6.127   1.399
 4770TIP3    H214252   2.613   6.085   1.277
 4771TIP3   OH214253   4.230   5.035   3.028
 4771TIP3    H114254   4.245   5.006   3.118
 4771TIP3    H214255   4.316   5.029   2.986
 4772TIP3   OH214256   4.151   6.571   2.529
 4772TIP3    H114257   4.075   6.541   2.479
 4772TIP3    H214258   4.136   6.665   2.540
 4773TIP3   OH214259   5.397   5.925   1.306
 4773TIP3    H114260   5.367   6.016   1.300
 4773TIP3    H214261   5.331   5.875   1.258
 4774TIP3   OH214262   5.419   5.943   1.697
 4774TIP3    H114263   5.467   5.926   1.778
 4774TIP3    H214264   5.377   5.859   1.676
 4775TIP3   OH214265   4.724   5.819   2.042
 4775TIP3    H114266   4.754   5.763   2.113
 4775TIP3    H214267   4.804   5.847   1.998
 4776TIP3   OH214268   5.693   6.244   1.414
 4776TIP3    H114269   5.691   6.174   1.479
 4776TIP3    H214270   5.724   6.321   1.461
 4777TIP3   OH214271   4.718   6.239   1.770
 4777TIP3    H114272   4.705   6.146   1.756
 4777TIP3    H214273   4.775   6.244   1.847
 4778TIP3   OH214274   4.401   5.450   1.516
 4778TIP3    H114275   4.357   5.530   1.543
 4778TIP3    H214276   4.331   5.396   1.479
 4779TIP3   OH214277   4.466   5.741   1.733
 4779TIP3    H114278   4.516   5.665   1.762
 4779TIP3    H214279   4.530   5.796   1.688
 4780TIP3   OH214280   5.309   6.646   1.454
 4780TIP3    H114281   5.355   6.591   1.390
 4780TIP3    H214282   5.379   6.688   1.503
 4781TIP3   OH214283   5.244   6.177   1.714
 4781TIP3    H114284   5.273   6.091   1.681
 4781TIP3    H214285   5.324   6.217   1.748
 4782TIP3   OH214286   6.257   5.490   1.719
 4782TIP3    H114287   6.274   5.575   1.759
 4782TIP3    H214288   6.283   5.500   1.627
 4783TIP3   OH214289   5.643   5.662   1.745
 4783TIP3    H114290   5.680   5.578   1.772
 4783TIP3    H214291   5.598   5.644   1.663
 4784TIP3   OH214292   4.991   5.322   1.701
 4784TIP3    H114293   4.968   5.394   1.643
 4784TIP3    H214294   4.939   5.248   1.668
 4785TIP3   OH214295   5.687   5.424   1.355
 4785TIP3    H114296   5.756   5.414   1.421
 4785TIP3    H214297   5.733   5.451   1.276
 4786TIP3   OH214298   4.616   5.529   1.826
 4786TIP3    H114299   4.698   5.511   1.871
 4786TIP3    H214300   4.620   5.476   1.746
 4787TIP3   OH214301   5.043   5.733   1.638
 4787TIP3    H114302   5.136   5.714   1.645
 4787TIP3    H214303   5.005   5.651   1.605
 4788TIP3   OH214304   6.318   5.710   1.888
 4788TIP3    H114305   6.228   5.743   1.883
 4788TIP3    H214306   6.353   5.746   1.969
 4789TIP3   OH214307   4.972   5.319   2.151
 4789TIP3    H114308   4.920   5.352   2.078
 4789TIP3    H214309   4.918   5.333   2.228
 4790TIP3   OH214310   5.305   6.165   1.214
 4790TIP3    H114311   5.263   6.130   1.135
 4790TIP3    H214312   5.246   6.234   1.244
 4791TIP3   OH214313   5.076   6.097   1.921
 4791TIP3    H114314   5.016   6.165   1.950
 4791TIP3    H214315   5.128   6.138   1.852
 4792TIP3   OH214316   5.866   5.430   1.557
 4792TIP3    H114317   5.821   5.409   1.639
 4792TIP3    H214318   5.917   5.509   1.577
 4793TIP3   OH214319   4.860   5.427   1.922
 4793TIP3    H114320   4.916   5.500   1.946
 4793TIP3    H214321   4.907   5.384   1.850
 4794TIP3   OH214322   4.891   6.293   2.001
 4794TIP3    H114323   4.889   6.388   1.985
 4794TIP3    H214324   4.824   6.278   2.067
 4795TIP3   OH214325   4.296   5.988   1.291
 4795TIP3    H114326   4.255   5.998   1.205
 4795TIP3    H214327   4.318   6.077   1.318
 4796TIP3   OH214328   5.707   6.489   1.545
 4796TIP3    H114329   5.611   6.484   1.552
 4796TIP3    H214330   5.722   6.572   1.500
 4797TIP3   OH214331   6.053   5.385   1.886
 4797TIP3    H114332   5.967   5.407   1.850
 4797TIP3    H214333   6.115   5.412   1.818
 4798TIP3   OH214334   5.316   5.014   1.877
 4798TIP3    H114335   5.308   4.922   1.902
 4798TIP3    H214336   5.240   5.057   1.917
 4799TIP3   OH214337   5.432   6.470   1.279
 4799TIP3    H114338   5.473   6.387   1.254
 4799TIP3    H214339   5.500   6.536   1.267
 4800TIP3   OH214340   5.564   6.244   1.180
 4800TIP3    H114341   5.482   6.197   1.196
 4800TIP3    H214342   5.615   6.232   1.260
 4801TIP3   OH214343   5.962   6.392   1.862
 4801TIP3    H114344   5.946   6.316   1.807
 4801TIP3    H214345   5.948   6.467   1.805
 4802TIP3   OH214346   5.244   5.773   1.123
 4802TIP3    H114347   5.156   5.809   1.133
 4802TIP3    H214348   5.237   5.712   1.049
 4803TIP3   OH214349   5.254   5.558   0.918
 4803TIP3    H114350   5.337   5.607   0.919
 4803TIP3    H214351   5.267   5.488   0.854
 4804TIP3   OH214352   6.152   6.045   1.727
 4804TIP3    H114353   6.067   6.090   1.730
 4804TIP3    H214354   6.185   6.064   1.639
 4805TIP3   OH214355   5.580   5.848   1.125
 4805TIP3    H114356   5.520   5.876   1.194
 4805TIP3    H214357   5.655   5.811   1.171
 4806TIP3   OH214358   5.838   5.915   2.028
 4806TIP3    H114359   5.838   5.998   2.076
 4806TIP3    H214360   5.755   5.915   1.981
 4807TIP3   OH214361   4.837   5.864   1.501
 4807TIP3    H114362   4.796   5.802   1.440
 4807TIP3    H214363   4.911   5.817   1.538
 4808TIP3   OH214364   5.099   6.403   1.610
 4808TIP3    H114365   5.028   6.369   1.556
 4808TIP3    H214366   5.140   6.325   1.646
 4809TIP3   OH214367   4.948   5.858   1.869
 4809TIP3    H114368   4.985   5.822   1.788
 4809TIP3    H214369   4.999   5.937   1.885
 4810TIP3   OH214370   5.375   6.494   1.693
 4810TIP3    H114371   5.432   6.567   1.717
 4810TIP3    H214372   5.414   6.417   1.735
 4811TIP3   OH214373   5.100   6.396   2.180
 4811TIP3    H114374   5.041   6.448   2.234
 4811TIP3    H214375   5.042   6.341   2.127
 4812TIP3   OH214376   5.470   5.723   0.905
 4812TIP3    H114377   5.514   5.775   0.972
 4812TIP3    H214378   5.507   5.755   0.822
 4813TIP3   OH214379   4.866   5.956   2.312
 4813TIP3    H114380   4.870   6.046   2.343
 4813TIP3    H214381   4.773   5.934   2.312
 4814TIP3   OH214382   5.164   6.395   1.281
 4814TIP3    H114383   5.255   6.424   1.287
 4814TIP3    H214384   5.117   6.471   1.248
 4815TIP3   OH214385   4.891   6.547   2.284
 4815TIP3    H114386   4.849   6.553   2.198
 4815TIP3    H214387   4.818   6.533   2.345
 4816TIP3   OH214388   5.959   4.947   1.030
 4816TIP3    H114389   5.879   4.962   1.081
 4816TIP3    H214390   5.970   5.027   0.978
 4817TIP3   OH214391   4.697   5.702   1.315
 4817TIP3    H114392   4.626   5.752   1.275
 4817TIP3    H214393   4.656   5.619   1.340
 4818TIP3   OH214394   4.493   6.111   2.218
 4818TIP3    H114395   4.422   6.092   2.157
 4818TIP3    H214396   4.527   6.026   2.244
 4819TIP3   OH214397   4.330   6.312   1.875
 4819TIP3    H114398   4.420   6.334   1.900
 4819TIP3    H214399   4.279   6.388   1.903
 4820TIP3   OH214400   6.195   6.752   1.924
 4820TIP3    H114401   6.198   6.658   1.938
 4820TIP3    H214402   6.114   6.780   1.968
 4821TIP3   OH214403   5.311   6.528   2.060
 4821TIP3    H114404   5.300   6.621   2.078
 4821TIP3    H214405   5.235   6.486   2.100
 4822TIP3   OH214406   5.083   6.633   1.168
 4822TIP3    H114407   5.009   6.629   1.107
 4822TIP3    H214408   5.093   6.727   1.187
 4823TIP3   OH214409   4.504   6.485   1.391
 4823TIP3    H114410   4.543   6.475   1.478
 4823TIP3    H214411   4.456   6.404   1.376
 4824TIP3   OH214412   5.296   6.510   0.764
 4824TIP3    H114413   5.346   6.464   0.697
 4824TIP3    H214414   5.356   6.575   0.800
 4825TIP3   OH214415   5.336   6.610   1.059
 4825TIP3    H114416   5.243   6.621   1.082
 4825TIP3    H214417   5.370   6.551   1.126
 4826TIP3   OH214418   6.085   5.870   2.194
 4826TIP3    H114419   6.002   5.879   2.147
 4826TIP3    H214420   6.104   5.776   2.190
 4827TIP3   OH214421   4.695   6.297   2.192
 4827TIP3    H114422   4.744   6.286   2.274
 4827TIP3    H214423   4.623   6.234   2.200
 4828TIP3   OH214424   5.080   5.107   2.002
 4828TIP3    H114425   4.996   5.073   1.970
 4828TIP3    H214426   5.056   5.186   2.051
 4829TIP3   OH214427   5.621   5.224   2.199
 4829TIP3    H114428   5.691   5.200   2.260
 4829TIP3    H214429   5.540   5.207   2.248
 4830TIP3   OH214430   5.841   5.649   2.114
 4830TIP3    H114431   5.801   5.646   2.201
 4830TIP3    H214432   5.827   5.739   2.085
 4831TIP3   OH214433   5.492   5.824   0.644
 4831TIP3    H114434   5.459   5.760   0.581
 4831TIP3    H214435   5.571   5.859   0.603
 4832TIP3   OH214436   5.224   5.142   1.031
 4832TIP3    H114437   5.183   5.135   1.117
 4832TIP3    H214438   5.195   5.064   0.984
 4833TIP3   OH214439   5.017   5.633   2.016
 4833TIP3    H114440   4.969   5.641   2.099
 4833TIP3    H214441   4.998   5.715   1.969
 4834TIP3   OH214442   4.896   5.521   1.537
 4834TIP3    H114443   4.807   5.494   1.562
 4834TIP3    H214444   4.908   5.484   1.450
 4835TIP3   OH214445   5.385   5.592   1.271
 4835TIP3    H114446   5.339   5.663   1.227
 4835TIP3    H214447   5.449   5.561   1.207
 4836TIP3   OH214448   5.564   5.862   2.336
 4836TIP3    H114449   5.538   5.793   2.397
 4836TIP3    H214450   5.656   5.879   2.356
 4837TIP3   OH214451   5.541   5.609   1.499
 4837TIP3    H114452   5.474   5.633   1.434
 4837TIP3    H214453   5.588   5.536   1.460
 4838TIP3   OH214454   4.846   5.649   2.232
 4838TIP3    H114455   4.869   5.709   2.303
 4838TIP3    H214456   4.828   5.566   2.276
 4839TIP3   OH214457   4.857   5.122   0.979
 4839TIP3    H114458   4.857   5.123   1.074
 4839TIP3    H214459   4.766   5.142   0.955
 4840TIP3   OH214460   4.439   5.175   1.806
 4840TIP3    H114461   4.512   5.207   1.858
 4840TIP3    H214462   4.479   5.144   1.725
 4841TIP3   OH214463   4.364   5.150   1.317
 4841TIP3    H114464   4.408   5.183   1.239
 4841TIP3    H214465   4.302   5.219   1.341
 4842TIP3   OH214466   5.578   5.863   1.914
 4842TIP3    H114467   5.608   5.797   1.852
 4842TIP3    H214468   5.540   5.813   1.986
 4843TIP3   OH214469   5.257   5.319   1.591
 4843TIP3    H114470   5.179   5.316   1.646
 4843TIP3    H214471   5.330   5.307   1.652
 4844TIP3   OH214472   4.660   5.391   1.593
 4844TIP3    H114473   4.571   5.395   1.558
 4844TIP3    H214474   4.688   5.301   1.576
 4845TIP3   OH214475   4.912   5.390   1.300
 4845TIP3    H114476   5.005   5.400   1.276
 4845TIP3    H214477   4.865   5.404   1.218
 4846TIP3   OH214478   5.717   5.397   1.793
 4846TIP3    H114479   5.695   5.413   1.884
 4846TIP3    H214480   5.650   5.335   1.762
 4847TIP3   OH214481   4.761   5.407   1.073
 4847TIP3    H114482   4.697   5.368   1.013
 4847TIP3    H214483   4.832   5.436   1.016
 4848TIP3   OH214484   5.906   7.103   2.024
 4848TIP3    H114485   5.904   7.118   1.929
 4848TIP3    H214486   5.986   7.148   2.053
 4849TIP3   OH214487   4.853   6.216   2.424
 4849TIP3    H114488   4.933   6.235   2.473
 4849TIP3    H214489   4.783   6.219   2.490
 4850TIP3   OH214490   5.311   5.674   1.692
 4850TIP3    H114491   5.375   5.621   1.643
 4850TIP3    H214492   5.309   5.634   1.779
 4851TIP3   OH214493   4.809   5.143   1.579
 4851TIP3    H114494   4.779   5.069   1.630
 4851TIP3    H214495   4.839   5.105   1.496
 4852TIP3   OH214496   5.285   5.582   1.957
 4852TIP3    H114497   5.197   5.610   1.983
 4852TIP3    H214498   5.344   5.633   2.013
 4853TIP3   OH214499   4.996   5.879   1.132
 4853TIP3    H114500   4.920   5.831   1.100
 4853TIP3    H214501   4.961   5.936   1.200
 4854TIP3   OH214502   5.905   6.173   1.703
 4854TIP3    H114503   5.941   6.218   1.626
 4854TIP3    H214504   5.827   6.129   1.670
 4855TIP3   OH214505   5.469   5.254   1.048
 4855TIP3    H114506   5.377   5.233   1.038
 4855TIP3    H214507   5.473   5.350   1.044
 4856TIP3   OH214508   5.428   6.269   2.080
 4856TIP3    H114509   5.475   6.255   2.162
 4856TIP3    H214510   5.389   6.356   2.088
 4857TIP3   OH214511   5.555   5.515   1.071
 4857TIP3    H114512   5.650   5.504   1.082
 4857TIP3    H214513   5.547   5.571   0.993
 4858TIP3   OH214514   4.719   5.962   1.731
 4858TIP3    H114515   4.753   5.938   1.645
 4858TIP3    H214516   4.776   5.918   1.793
 4859TIP3   OH214517   5.147   6.063   1.010
 4859TIP3    H114518   5.091   6.139   1.020
 4859TIP3    H214519   5.096   5.990   1.045
 4860TIP3   OH214520   4.595   5.886   2.355
 4860TIP3    H114521   4.605   5.865   2.447
 4860TIP3    H214522   4.522   5.832   2.325
 4861TIP3   OH214523   5.328   6.013   2.374
 4861TIP3    H114524   5.261   5.951   2.346
 4861TIP3    H214525   5.411   5.973   2.347
 4862TIP3   OH214526   5.566   6.560   1.955
 4862TIP3    H114527   5.474   6.538   1.974
 4862TIP3    H214528   5.599   6.595   2.038
 4863TIP3   OH214529   5.964   5.601   0.913
 4863TIP3    H114530   5.925   5.571   0.831
 4863TIP3    H214531   5.921   5.685   0.931
 4864TIP3   OH214532   6.208   6.468   1.953
 4864TIP3    H114533   6.113   6.458   1.950
 4864TIP3    H214534   6.238   6.438   1.866
 4865TIP3   OH214535   5.723   6.382   0.741
 4865TIP3    H114536   5.715   6.376   0.836
 4865TIP3    H214537   5.754   6.295   0.715
 4866TIP3   OH214538   5.677   6.041   1.600
 4866TIP3    H114539   5.587   6.018   1.623
 4866TIP3    H214540   5.713   5.961   1.562
 4867TIP3   OH214541   4.843   6.307   1.423
 4867TIP3    H114542   4.827   6.378   1.362
 4867TIP3    H214543   4.756   6.274   1.446
 4868TIP3   OH214544   4.398   5.573   1.112
 4868TIP3    H114545   4.439   5.658   1.128
 4868TIP3    H214546   4.316   5.577   1.160
 4869TIP3   OH214547   4.908   6.057   1.314
 4869TIP3    H114548   4.910   6.146   1.350
 4869TIP3    H214549   4.885   6.002   1.389
 4870TIP3   OH214550   4.746   6.519   1.273
 4870TIP3    H114551   4.655   6.516   1.305
 4870TIP3    H214552   4.771   6.611   1.280
 4871TIP3   OH214553   5.486   6.269   1.811
 4871TIP3    H114554   5.471   6.263   1.906
 4871TIP3    H214555   5.571   6.226   1.798
 4872TIP3   OH214556   5.505   6.117   0.707
 4872TIP3    H114557   5.536   6.078   0.789
 4872TIP3    H214558   5.491   6.209   0.728
 4873TIP3   OH214559   5.717   6.778   1.866
 4873TIP3    H114560   5.650   6.710   1.874
 4873TIP3    H214561   5.690   6.831   1.792
 4874TIP3   OH214562   4.799   5.398   2.356
 4874TIP3    H114563   4.703   5.406   2.362
 4874TIP3    H214564   4.823   5.345   2.432
 4875TIP3   OH214565   5.618   6.031   0.930
 4875TIP3    H114566   5.602   5.974   1.005
 4875TIP3    H214567   5.706   6.066   0.945
 4876TIP3   OH214568   4.540   6.489   2.006
 4876TIP3    H114569   4.589   6.427   2.061
 4876TIP3    H214570   4.548   6.573   2.051
 4877TIP3   OH214571   4.864   6.186   0.781
 4877TIP3    H114572   4.865   6.119   0.713
 4877TIP3    H214573   4.805   6.151   0.848
 4878TIP3   OH214574   4.726   6.127   1.021
 4878TIP3    H114575   4.796   6.104   1.083
 4878TIP3    H214576   4.719   6.222   1.027
 4879TIP3   OH214577   4.490   5.827   1.179
 4879TIP3    H114578   4.426   5.873   1.233
 4879TIP3    H214579   4.499   5.881   1.101
 4880TIP3   OH214580   5.650   5.457   2.052
 4880TIP3    H114581   5.727   5.502   2.086
 4880TIP3    H214582   5.641   5.380   2.108
 4881TIP3   OH214583   5.554   5.193   1.293
 4881TIP3    H114584   5.520   5.213   1.206
 4881TIP3    H214585   5.593   5.275   1.322
 4882TIP3   OH214586   4.974   6.273   1.023
 4882TIP3    H114587   4.901   6.328   1.052
 4882TIP3    H214588   4.959   6.259   0.930
 4883TIP3   OH214589   5.196   5.401   1.333
 4883TIP3    H114590   5.261   5.467   1.307
 4883TIP3    H214591   5.216   5.384   1.426
 4884TIP3   OH214592   5.490   5.696   2.113
 4884TIP3    H114593   5.515   5.739   2.195
 4884TIP3    H214594   5.539   5.614   2.113
 4885TIP3   OH214595   5.347   5.097   1.441
 4885TIP3    H114596   5.326   5.176   1.490
 4885TIP3    H214597   5.424   5.120   1.390
 4886TIP3   OH214598   4.729   6.400   1.031
 4886TIP3    H114599   4.680   6.461   0.976
 4886TIP3    H214600   4.734   6.443   1.116
 4887TIP3   OH214601   4.852   5.115   1.255
 4887TIP3    H114602   4.844   5.206   1.281
 4887TIP3    H214603   4.946   5.096   1.264
 4888TIP3   OH214604   6.107   5.597   2.101
 4888TIP3    H114605   6.012   5.605   2.111
 4888TIP3    H214606   6.119   5.541   2.024
 4889TIP3   OH214607   5.768   5.793   1.501
 4889TIP3    H114608   5.691   5.739   1.518
 4889TIP3    H214609   5.837   5.754   1.555
 4890TIP3   OH214610   4.478   6.039   0.964
 4890TIP3    H114611   4.558   6.075   1.002
 4890TIP3    H214612   4.508   5.967   0.909
 4891TIP3   OH214613   4.423   5.295   1.089
 4891TIP3    H114614   4.437   5.388   1.109
 4891TIP3    H214615   4.342   5.294   1.038
 4892TIP3   OH214616   5.746   6.746   1.469
 4892TIP3    H114617   5.703   6.771   1.388
 4892TIP3    H214618   5.838   6.771   1.456
 4893TIP3   OH214619   4.818   5.020   1.963
 4893TIP3    H114620   4.789   4.986   1.879
 4893TIP3    H214621   4.809   4.945   2.023
 4894TIP3   OH214622   4.347   6.257   1.361
 4894TIP3    H114623   4.290   6.291   1.431
 4894TIP3    H214624   4.310   6.294   1.281
 4895TIP3   OH214625   4.533   6.810   2.424
 4895TIP3    H114626   4.614   6.815   2.475
 4895TIP3    H214627   4.512   6.716   2.423
 4896TIP3   OH214628   4.998   6.734   2.461
 4896TIP3    H114629   5.090   6.712   2.477
 4896TIP3    H214630   4.969   6.670   2.396
 4897TIP3   OH214631   4.886   6.351   0.535
 4897TIP3    H114632   4.874   6.273   0.589
 4897TIP3    H214633   4.981   6.361   0.528
 4898TIP3   OH214634   5.636   6.657   2.200
 4898TIP3    H114635   5.636   6.589   2.268
 4898TIP3    H214636   5.709   6.714   2.225
 4899TIP3   OH214637   5.433   6.365   0.574
 4899TIP3    H114638   5.369   6.294   0.587
 4899TIP3    H214639   5.432   6.381   0.480
 4900TIP3   OH214640   4.646   6.202   2.611
 4900TIP3    H114641   4.666   6.109   2.621
 4900TIP3    H214642   4.559   6.205   2.572
 4901TIP3   OH214643   4.607   5.815   0.885
 4901TIP3    H114644   4.663   5.783   0.955
 4901TIP3    H214645   4.663   5.814   0.807
 4902TIP3   OH214646   5.260   6.291   2.387
 4902TIP3    H114647   5.217   6.309   2.303
 4902TIP3    H214648   5.295   6.202   2.376
 4903TIP3   OH214649   5.066   6.077   0.570
 4903TIP3    H114650   5.103   6.128   0.642
 4903TIP3    H214651   5.098   5.988   0.584
 4904TIP3   OH214652   5.735   6.327   2.002
 4904TIP3    H114653   5.815   6.356   1.960
 4904TIP3    H214654   5.672   6.397   1.985
 4905TIP3   OH214655   4.766   5.947   2.616
 4905TIP3    H114656   4.846   5.916   2.572
 4905TIP3    H214657   4.794   5.970   2.704
 4906TIP3   OH214658   4.798   5.712   1.051
 4906TIP3    H114659   4.769   5.684   1.138
 4906TIP3    H214660   4.853   5.641   1.020
 4907TIP3   OH214661   5.113   5.830   2.277
 4907TIP3    H114662   5.031   5.879   2.283
 4907TIP3    H214663   5.150   5.857   2.192
 4908TIP3   OH214664   4.972   5.517   0.944
 4908TIP3    H114665   4.964   5.504   0.849
 4908TIP3    H214666   5.066   5.526   0.959
 4909TIP3   OH214667   5.619   6.214   2.372
 4909TIP3    H114668   5.695   6.180   2.324
 4909TIP3    H214669   5.614   6.160   2.451
 4910TIP3   OH214670   5.706   5.915   0.519
 4910TIP3    H114671   5.725   5.849   0.453
 4910TIP3    H214672   5.696   5.996   0.470
 4911TIP3   OH214673   5.225   5.605   2.386
 4911TIP3    H114674   5.228   5.532   2.324
 4911TIP3    H214675   5.187   5.678   2.337
 4912TIP3   OH214676   5.232   5.403   2.186
 4912TIP3    H114677   5.259   5.439   2.101
 4912TIP3    H214678   5.141   5.376   2.173
 4913TIP3   OH214679   5.241   5.922   2.056
 4913TIP3    H114680   5.333   5.946   2.041
 4913TIP3    H214681   5.191   5.989   2.011
 4914TIP3   OH214682   5.831   5.892   2.438
 4914TIP3    H114683   5.872   5.806   2.450
 4914TIP3    H214684   5.904   5.952   2.421
 4915TIP3   OH214685   5.867   6.157   2.170
 4915TIP3    H114686   5.811   6.216   2.120
 4915TIP3    H214687   5.955   6.174   2.138
 4916TIP3   OH214688   5.106   5.696   2.626
 4916TIP3    H114689   5.038   5.632   2.647
 4916TIP3    H214690   5.137   5.670   2.539
 4917TIP3   OH214691   5.356   5.168   2.280
 4917TIP3    H114692   5.314   5.248   2.250
 4917TIP3    H214693   5.289   5.100   2.268
 4918TIP3   OH214694   5.482   5.648   2.486
 4918TIP3    H114695   5.473   5.636   2.581
 4918TIP3    H214696   5.395   5.626   2.451
 4919TIP3   OH214697   5.726   5.602   2.353
 4919TIP3    H114698   5.648   5.602   2.409
 4919TIP3    H214699   5.797   5.576   2.411
 4920TIP3   OH214700   5.962   5.563   2.501
 4920TIP3    H114701   5.976   5.468   2.510
 4920TIP3    H214702   5.957   5.595   2.591
 4921TIP3   OH214703   4.944   5.474   2.690
 4921TIP3    H114704   4.948   5.385   2.655
 4921TIP3    H214705   4.982   5.467   2.778
 4922TIP3   OH214706   5.428   5.154   2.545
 4922TIP3    H114707   5.497   5.088   2.540
 4922TIP3    H214708   5.395   5.162   2.456
 4923TIP3   OH214709   5.516   5.372   2.690
 4923TIP3    H114710   5.487   5.299   2.634
 4923TIP3    H214711   5.442   5.432   2.690
 4924TIP3   OH214712   4.645   6.616   0.874
 4924TIP3    H114713   4.736   6.646   0.882
 4924TIP3    H214714   4.643   6.568   0.791
 4925TIP3   OH214715   4.216   5.970   1.025
 4925TIP3    H114716   4.298   6.006   0.990
 4925TIP3    H214717   4.205   5.886   0.979
 4926TIP3   OH214718   4.134   6.580   1.444
 4926TIP3    H114719   4.068   6.526   1.400
 4926TIP3    H214720   4.178   6.520   1.504
 4927TIP3   OH214721   4.281   6.421   1.613
 4927TIP3    H114722   4.274   6.353   1.680
 4927TIP3    H214723   4.332   6.491   1.655
 4928TIP3   OH214724   5.988   6.862   1.432
 4928TIP3    H114725   6.008   6.878   1.525
 4928TIP3    H214726   6.071   6.879   1.387
 4929TIP3   OH214727   6.025   6.859   1.705
 4929TIP3    H114728   5.989   6.770   1.703
 4929TIP3    H214729   6.106   6.850   1.754
 4930TIP3   OH214730   6.081   6.553   2.266
 4930TIP3    H114731   6.011   6.560   2.331
 4930TIP3    H214732   6.127   6.636   2.271
 4931TIP3   OH214733   5.879   6.105   0.962
 4931TIP3    H114734   5.944   6.135   0.899
 4931TIP3    H214735   5.929   6.084   1.040
 4932TIP3   OH214736   5.956   6.005   1.208
 4932TIP3    H114737   5.922   5.919   1.232
 4932TIP3    H214738   6.046   6.005   1.240
 4933TIP3   OH214739   6.064   6.306   1.530
 4933TIP3    H114740   6.127   6.250   1.484
 4933TIP3    H214741   6.078   6.393   1.493
 4934TIP3   OH214742   5.893   6.614   1.718
 4934TIP3    H114743   5.830   6.662   1.771
 4934TIP3    H214744   5.841   6.571   1.650
 4935TIP3   OH214745   5.994   5.895   0.723
 4935TIP3    H114746   5.938   5.823   0.753
 4935TIP3    H214747   6.033   5.930   0.803
 4936TIP3   OH214748   5.897   5.461   0.693
 4936TIP3    H114749   5.937   5.477   0.608
 4936TIP3    H214750   5.846   5.381   0.681
 4937TIP3   OH214751   5.811   5.756   1.235
 4937TIP3    H114752   5.853   5.670   1.228
 4937TIP3    H214753   5.802   5.770   1.330
 4938TIP3   OH214754   4.459   5.857   1.983
 4938TIP3    H114755   4.449   5.820   1.895
 4938TIP3    H214756   4.554   5.853   1.999
 4939TIP3   OH214757   6.124   6.207   2.079
 4939TIP3    H114758   6.190   6.139   2.065
 4939TIP3    H214759   6.148   6.277   2.018
 4940TIP3   OH214760   6.298   5.995   2.078
 4940TIP3    H114761   6.224   5.952   2.121
 4940TIP3    H214762   6.372   5.938   2.096
 4941TIP3   OH214763   5.745   5.244   0.750
 4941TIP3    H114764   5.825   5.199   0.779
 4941TIP3    H214765   5.674   5.187   0.779
 4942TIP3   OH214766   5.830   5.486   1.124
 4942TIP3    H114767   5.868   5.399   1.139
 4942TIP3    H214768   5.886   5.525   1.057
 4943TIP3   OH214769   5.980   5.670   1.635
 4943TIP3    H114770   6.062   5.689   1.590
 4943TIP3    H214771   5.991   5.708   1.722
 4944TIP3   OH214772   6.057   5.821   1.858
 4944TIP3    H114773   5.985   5.853   1.912
 4944TIP3    H214774   6.091   5.899   1.815
 4945TIP3   OH214775   4.679   5.533   2.637
 4945TIP3    H114776   4.773   5.530   2.652
 4945TIP3    H214777   4.646   5.451   2.674
 4946TIP3   OH214778   6.517   5.426   2.393
 4946TIP3    H114779   6.580   5.364   2.356
 4946TIP3    H214780   6.483   5.474   2.317
 4947TIP3   OH214781   5.932   5.240   1.174
 4947TIP3    H114782   5.977   5.226   1.257
 4947TIP3    H214783   5.869   5.169   1.169
 4948TIP3   OH214784   4.650   5.240   1.976
 4948TIP3    H114785   4.704   5.162   1.984
 4948TIP3    H214786   4.712   5.311   1.963
 4949TIP3   OH214787   4.436   5.504   2.044
 4949TIP3    H114788   4.486   5.497   1.963
 4949TIP3    H214789   4.467   5.584   2.085
 4950TIP3   OH214790   6.372   5.544   2.195
 4950TIP3    H114791   6.293   5.583   2.231
 4950TIP3    H214792   6.341   5.471   2.141
 4951TIP3   OH214793   5.982   5.151   0.851
 4951TIP3    H114794   6.026   5.090   0.791
 4951TIP3    H214795   6.043   5.224   0.861
 4952TIP3   OH214796   4.422   5.016   1.549
 4952TIP3    H114797   4.334   5.004   1.585
 4952TIP3    H214798   4.408   5.070   1.471
 4953TIP3   OH214799   5.595   6.670   1.225
 4953TIP3    H114800   5.625   6.644   1.137
 4953TIP3    H214801   5.607   6.765   1.226
 4954TIP3   OH214802   4.644   5.080   2.368
 4954TIP3    H114803   4.593   5.073   2.449
 4954TIP3    H214804   4.585   5.126   2.307
 4955TIP3   OH214805   4.677   6.521   2.457
 4955TIP3    H114806   4.583   6.506   2.442
 4955TIP3    H214807   4.688   6.510   2.551
 4956TIP3   OH214808   4.885   6.569   1.996
 4956TIP3    H114809   4.837   6.635   1.946
 4956TIP3    H214810   4.970   6.610   2.014
 4957TIP3   OH214811   5.295   6.803   2.121
 4957TIP3    H114812   5.330   6.792   2.209
 4957TIP3    H214813   5.363   6.852   2.074
 4958TIP3   OH214814   5.496   6.950   1.996
 4958TIP3    H114815   5.570   6.898   1.965
 4958TIP3    H214816   5.534   7.016   2.054
 4959TIP3   OH214817   6.282   5.296   2.086
 4959TIP3    H114818   6.194   5.289   2.050
 4959TIP3    H214819   6.317   5.207   2.082
 4960TIP3   OH214820   4.547   6.820   2.029
 4960TIP3    H114821   4.456   6.836   2.007
 4960TIP3    H214822   4.567   6.885   2.097
 4961TIP3   OH214823   4.776   6.792   1.876
 4961TIP3    H114824   4.695   6.801   1.927
 4961TIP3    H214825   4.753   6.826   1.790
 4962TIP3   OH214826   5.156   6.739   1.683
 4962TIP3    H114827   5.087   6.777   1.627
 4962TIP3    H214828   5.183   6.812   1.739
 4963TIP3   OH214829   5.456   6.759   1.663
 4963TIP3    H114830   5.386   6.811   1.702
 4963TIP3    H214831   5.528   6.822   1.651
 4964TIP3   OH214832   5.665   6.932   1.645
 4964TIP3    H114833   5.657   7.017   1.601
 4964TIP3    H214834   5.703   6.874   1.578
 4965TIP3   OH214835   4.461   6.596   1.755
 4965TIP3    H114836   4.479   6.570   1.846
 4965TIP3    H214837   4.531   6.555   1.704
 4966TIP3   OH214838   4.654   6.457   1.621
 4966TIP3    H114839   4.664   6.378   1.674
 4966TIP3    H214840   4.744   6.487   1.606
 4967TIP3   OH214841   5.487   5.218   1.721
 4967TIP3    H114842   5.448   5.146   1.769
 4967TIP3    H214843   5.556   5.177   1.669
 4968TIP3   OH214844   5.992   5.127   1.619
 4968TIP3    H114845   6.028   5.179   1.547
 4968TIP3    H214846   5.898   5.147   1.618
 4969TIP3   OH214847   6.105   5.210   1.384
 4969TIP3    H114848   6.176   5.152   1.357
 4969TIP3    H214849   6.138   5.298   1.363
 4970TIP3   OH214850   4.730   4.918   1.721
 4970TIP3    H114851   4.640   4.886   1.730
 4970TIP3    H214852   4.783   4.839   1.715
 4971TIP3   OH214853   4.528   4.814   1.375
 4971TIP3    H114854   4.560   4.865   1.301
 4971TIP3    H214855   4.499   4.880   1.439
 4972TIP3   OH214856   5.192   4.962   1.626
 4972TIP3    H114857   5.246   5.002   1.558
 4972TIP3    H214858   5.235   4.985   1.708
 4973TIP3   OH214859   5.706   5.108   1.591
 4973TIP3    H114860   5.707   5.074   1.501
 4973TIP3    H214861   5.708   5.030   1.646
 4974TIP3   OH214862   5.750   5.037   1.180
 4974TIP3    H114863   5.675   5.089   1.209
 4974TIP3    H214864   5.736   4.951   1.221
 4975TIP3   OH214865   4.249   6.367   1.133
 4975TIP3    H114866   4.164   6.328   1.112
 4975TIP3    H214867   4.233   6.461   1.130
 4976TIP3   OH214868   4.649   4.950   1.149
 4976TIP3    H114869   4.698   4.890   1.093
 4976TIP3    H214870   4.716   5.001   1.194
 4977TIP3   OH214871   5.122   5.141   1.283
 4977TIP3    H114872   5.186   5.092   1.335
 4977TIP3    H214873   5.145   5.233   1.298
 4978TIP3   OH214874   5.048   6.623   0.596
 4978TIP3    H114875   5.084   6.673   0.669
 4978TIP3    H214876   4.991   6.557   0.637
 4979TIP3   OH214877   5.832   6.629   0.733
 4979TIP3    H114878   5.775   6.552   0.725
 4979TIP3    H214879   5.774   6.704   0.719
 4980TIP3   OH214880   4.951   5.201   2.605
 4980TIP3    H114881   4.915   5.134   2.664
 4980TIP3    H214882   5.044   5.207   2.631
 4981TIP3   OH214883   5.202   5.206   2.725
 4981TIP3    H114884   5.281   5.183   2.676
 4981TIP3    H214885   5.193   5.137   2.791
 4982TIP3   OH214886   4.298   6.410   0.844
 4982TIP3    H114887   4.291   6.407   0.939
 4982TIP3    H214888   4.371   6.351   0.823
 4983TIP3   OH214889   6.025   5.291   2.515
 4983TIP3    H114890   6.041   5.262   2.605
 4983TIP3    H214891   6.111   5.286   2.473
 4984TIP3   OH214892   5.947   6.829   2.021
 4984TIP3    H114893   5.870   6.801   1.972
 4984TIP3    H214894   5.936   6.923   2.031
 4985TIP3   OH214895   7.271   6.138   1.168
 4985TIP3    H114896   7.204   6.197   1.202
 4985TIP3    H214897   7.233   6.050   1.178
 4986TIP3   OH214898   6.525   6.096   1.555
 4986TIP3    H114899   6.546   6.012   1.596
 4986TIP3    H214900   6.572   6.161   1.608
 4987TIP3   OH214901   6.481   6.482   1.308
 4987TIP3    H114902   6.470   6.387   1.320
 4987TIP3    H214903   6.551   6.506   1.369
 4988TIP3   OH214904   6.104   5.756   1.144
 4988TIP3    H114905   6.101   5.835   1.090
 4988TIP3    H214906   6.153   5.693   1.091
 4989TIP3   OH214907   6.241   6.019   1.230
 4989TIP3    H114908   6.277   5.934   1.256
 4989TIP3    H214909   6.309   6.058   1.175
 4990TIP3   OH214910   7.036   6.485   1.163
 4990TIP3    H114911   7.009   6.399   1.131
 4990TIP3    H214912   7.083   6.467   1.244
 4991TIP3   OH214913   8.136   5.792   1.148
 4991TIP3    H114914   8.151   5.818   1.239
 4991TIP3    H214915   8.043   5.770   1.144
 4992TIP3   OH214916   7.450   5.842   1.354
 4992TIP3    H114917   7.506   5.765   1.365
 4992TIP3    H214918   7.478   5.879   1.270
 4993TIP3   OH214919   6.700   5.550   1.211
 4993TIP3    H114920   6.786   5.593   1.204
 4993TIP3    H214921   6.709   5.471   1.158
 4994TIP3   OH214922   7.495   5.607   0.785
 4994TIP3    H114923   7.586   5.576   0.785
 4994TIP3    H214924   7.503   5.702   0.783
 4995TIP3   OH214925   6.370   5.797   1.329
 4995TIP3    H114926   6.456   5.838   1.338
 4995TIP3    H214927   6.382   5.729   1.262
 4996TIP3   OH214928   6.871   5.946   1.164
 4996TIP3    H114929   6.945   5.896   1.199
 4996TIP3    H214930   6.806   5.880   1.142
 4997TIP3   OH214931   8.094   5.890   1.404
 4997TIP3    H114932   8.055   5.977   1.413
 4997TIP3    H214933   8.134   5.873   1.489
 4998TIP3   OH214934   6.773   5.582   1.657
 4998TIP3    H114935   6.720   5.617   1.585
 4998TIP3    H214936   6.718   5.592   1.735
 4999TIP3   OH214937   6.885   6.359   1.496
 4999TIP3    H114938   6.805   6.411   1.504
 4999TIP3    H214939   6.947   6.418   1.453
 5000TIP3   OH214940   7.589   5.690   1.075
 5000TIP3    H114941   7.629   5.606   1.053
 5000TIP3    H214942   7.637   5.754   1.024
 5001TIP3   OH214943   6.632   5.672   1.444
 5001TIP3    H114944   6.656   5.764   1.431
 5001TIP3    H214945   6.650   5.630   1.360
 5002TIP3   OH214946   6.670   6.520   1.520
 5002TIP3    H114947   6.679   6.614   1.504
 5002TIP3    H214948   6.598   6.513   1.583
 5003TIP3   OH214949   6.056   6.219   0.781
 5003TIP3    H114950   6.067   6.288   0.716
 5003TIP3    H214951   6.095   6.254   0.861
 5004TIP3   OH214952   7.593   6.828   1.021
 5004TIP3    H114953   7.573   6.735   1.028
 5004TIP3    H214954   7.542   6.858   0.946
 5005TIP3   OH214955   7.834   5.618   1.446
 5005TIP3    H114956   7.739   5.623   1.436
 5005TIP3    H214957   7.869   5.640   1.360
 5006TIP3   OH214958   7.091   5.268   1.402
 5006TIP3    H114959   7.078   5.176   1.424
 5006TIP3    H214960   7.011   5.312   1.431
 5007TIP3   OH214961   7.804   6.667   1.354
 5007TIP3    H114962   7.808   6.597   1.289
 5007TIP3    H214963   7.728   6.720   1.328
 5008TIP3   OH214964   8.012   6.341   1.045
 5008TIP3    H114965   7.918   6.321   1.051
 5008TIP3    H214966   8.028   6.350   0.951
 5009TIP3   OH214967   7.620   6.145   1.569
 5009TIP3    H114968   7.607   6.212   1.636
 5009TIP3    H214969   7.541   6.148   1.515
 5010TIP3   OH214970   6.654   6.099   1.073
 5010TIP3    H114971   6.606   6.070   0.996
 5010TIP3    H214972   6.731   6.042   1.076
 5011TIP3   OH214973   6.755   6.545   1.160
 5011TIP3    H114974   6.715   6.532   1.074
 5011TIP3    H214975   6.848   6.557   1.142
 5012TIP3   OH214976   6.789   6.120   1.394
 5012TIP3    H114977   6.798   6.150   1.304
 5012TIP3    H214978   6.808   6.197   1.447
 5013TIP3   OH214979   7.345   6.701   1.099
 5013TIP3    H114980   7.343   6.792   1.071
 5013TIP3    H214981   7.395   6.702   1.181
 5014TIP3   OH214982   6.886   6.629   1.696
 5014TIP3    H114983   6.833   6.693   1.744
 5014TIP3    H214984   6.823   6.580   1.644
 5015TIP3   OH214985   6.639   6.235   1.775
 5015TIP3    H114986   6.651   6.320   1.816
 5015TIP3    H214987   6.554   6.205   1.806
 5016TIP3   OH214988   6.699   6.808   1.792
 5016TIP3    H114989   6.677   6.810   1.699
 5016TIP3    H214990   6.615   6.796   1.836
 5017TIP3   OH214991   6.545   6.082   0.818
 5017TIP3    H114992   6.530   6.124   0.734
 5017TIP3    H214993   6.546   5.988   0.798
 5018TIP3   OH214994   6.280   6.357   1.715
 5018TIP3    H114995   6.211   6.335   1.653
 5018TIP3    H214996   6.315   6.272   1.743
 5019TIP3   OH214997   6.138   6.547   1.435
 5019TIP3    H114998   6.150   6.551   1.340
 5019TIP3    H214999   6.200   6.612   1.469
 5020TIP3   OH215000   7.103   6.767   1.598
 5020TIP3    H115001   7.097   6.858   1.629
 5020TIP3    H215002   7.029   6.723   1.639
 5021TIP3   OH215003   6.390   6.669   0.762
 5021TIP3    H115004   6.419   6.746   0.811
 5021TIP3    H215005   6.312   6.639   0.810
 5022TIP3   OH215006   7.882   6.117   1.704
 5022TIP3    H115007   7.808   6.128   1.763
 5022TIP3    H215008   7.883   6.023   1.684
 5023TIP3   OH215009   6.472   6.549   1.701
 5023TIP3    H115010   6.521   6.541   1.783
 5023TIP3    H215011   6.403   6.482   1.709
 5024TIP3   OH215012   6.856   5.374   1.497
 5024TIP3    H115013   6.772   5.342   1.467
 5024TIP3    H215014   6.835   5.450   1.552
 5025TIP3   OH215015   7.431   5.539   1.713
 5025TIP3    H115016   7.497   5.481   1.751
 5025TIP3    H215017   7.348   5.494   1.728
 5026TIP3   OH215018   7.578   5.866   1.632
 5026TIP3    H115019   7.609   5.925   1.700
 5026TIP3    H215020   7.575   5.920   1.553
 5027TIP3   OH215021   6.832   5.883   1.520
 5027TIP3    H115022   6.765   5.879   1.588
 5027TIP3    H215023   6.816   5.966   1.475
 5028TIP3   OH215024   6.660   5.809   1.058
 5028TIP3    H115025   6.588   5.752   1.085
 5028TIP3    H215026   6.724   5.749   1.018
 5029TIP3   OH215027   7.388   6.109   1.793
 5029TIP3    H115028   7.347   6.055   1.860
 5029TIP3    H215029   7.473   6.133   1.831
 5030TIP3   OH215030   7.308   5.941   0.945
 5030TIP3    H115031   7.302   6.033   0.922
 5030TIP3    H215032   7.376   5.906   0.887
 5031TIP3   OH215033   6.630   5.886   1.711
 5031TIP3    H115034   6.693   5.936   1.763
 5031TIP3    H215035   6.611   5.809   1.764
 5032TIP3   OH215036   6.238   5.428   1.282
 5032TIP3    H115037   6.297   5.458   1.351
 5032TIP3    H215038   6.291   5.370   1.228
 5033TIP3   OH215039   6.132   5.375   0.803
 5033TIP3    H115040   6.191   5.438   0.761
 5033TIP3    H215041   6.045   5.413   0.791
 5034TIP3   OH215042   7.268   6.044   1.547
 5034TIP3    H115043   7.333   6.055   1.478
 5034TIP3    H215044   7.314   6.069   1.627
 5035TIP3   OH215045   6.938   5.680   1.251
 5035TIP3    H115046   6.957   5.672   1.344
 5035TIP3    H215047   6.999   5.619   1.209
 5036TIP3   OH215048   6.439   5.638   1.113
 5036TIP3    H115049   6.361   5.637   1.058
 5036TIP3    H215050   6.445   5.550   1.148
 5037TIP3   OH215051   6.801   5.671   0.680
 5037TIP3    H115052   6.829   5.667   0.771
 5037TIP3    H215053   6.809   5.764   0.656
 5038TIP3   OH215054   7.565   5.599   1.389
 5038TIP3    H115055   7.487   5.563   1.430
 5038TIP3    H215056   7.566   5.561   1.301
 5039TIP3   OH215057   6.643   6.474   1.918
 5039TIP3    H115058   6.725   6.491   1.964
 5039TIP3    H215059   6.576   6.476   1.986
 5040TIP3   OH215060   7.154   5.898   1.223
 5040TIP3    H115061   7.213   5.833   1.183
 5040TIP3    H215062   7.140   5.865   1.312
 5041TIP3   OH215063   6.652   5.333   1.045
 5041TIP3    H115064   6.627   5.270   1.113
 5041TIP3    H215065   6.570   5.355   1.001
 5042TIP3   OH215066   7.096   5.832   1.487
 5042TIP3    H115067   7.006   5.861   1.501
 5042TIP3    H215068   7.149   5.905   1.518
 5043TIP3   OH215069   7.774   6.480   1.154
 5043TIP3    H115070   7.706   6.504   1.091
 5043TIP3    H215071   7.733   6.413   1.209
 5044TIP3   OH215072   7.241   6.514   1.662
 5044TIP3    H115073   7.292   6.486   1.738
 5044TIP3    H215074   7.214   6.604   1.684
 5045TIP3   OH215075   6.504   6.210   1.294
 5045TIP3    H115076   6.549   6.166   1.223
 5045TIP3    H215077   6.524   6.157   1.371
 5046TIP3   OH215078   6.391   6.143   1.853
 5046TIP3    H115079   6.407   6.124   1.946
 5046TIP3    H215080   6.321   6.082   1.829
 5047TIP3   OH215081   7.147   6.273   1.859
 5047TIP3    H115082   7.096   6.232   1.789
 5047TIP3    H215083   7.238   6.251   1.839
 5048TIP3   OH215084   7.366   6.756   1.501
 5048TIP3    H115085   7.274   6.731   1.506
 5048TIP3    H215086   7.376   6.826   1.565
 5049TIP3   OH215087   7.533   6.263   1.108
 5049TIP3    H115088   7.454   6.316   1.094
 5049TIP3    H215089   7.504   6.174   1.091
 5050TIP3   OH215090   6.637   6.577   0.886
 5050TIP3    H115091   6.626   6.609   0.796
 5050TIP3    H215092   6.549   6.577   0.922
 5051TIP3   OH215093   6.207   5.820   0.569
 5051TIP3    H115094   6.258   5.898   0.547
 5051TIP3    H215095   6.136   5.852   0.624
 5052TIP3   OH215096   6.719   6.303   0.879
 5052TIP3    H115097   6.662   6.375   0.905
 5052TIP3    H215098   6.669   6.224   0.898
 5053TIP3   OH215099   6.918   6.831   1.403
 5053TIP3    H115100   6.957   6.879   1.330
 5053TIP3    H215101   6.992   6.798   1.453
 5054TIP3   OH215102   7.187   6.508   1.396
 5054TIP3    H115103   7.189   6.504   1.491
 5054TIP3    H215104   7.278   6.496   1.369
 5055TIP3   OH215105   7.490   7.020   1.358
 5055TIP3    H115106   7.397   7.006   1.377
 5055TIP3    H215107   7.491   7.057   1.270
 5056TIP3   OH215108   6.595   5.646   1.859
 5056TIP3    H115109   6.500   5.655   1.863
 5056TIP3    H215110   6.618   5.597   1.938
 5057TIP3   OH215111   6.333   6.727   1.536
 5057TIP3    H115112   6.377   6.665   1.595
 5057TIP3    H215113   6.389   6.804   1.536
 5058TIP3   OH215114   6.265   6.072   0.682
 5058TIP3    H115115   6.186   6.120   0.706
 5058TIP3    H215116   6.320   6.137   0.637
 5059TIP3   OH215117   7.092   5.579   0.709
 5059TIP3    H115118   7.124   5.663   0.677
 5059TIP3    H215119   7.150   5.556   0.781
 5060TIP3   OH215120   7.134   5.329   0.903
 5060TIP3    H115121   7.172   5.411   0.935
 5060TIP3    H215122   7.184   5.309   0.824
 5061TIP3   OH215123   6.708   5.374   0.627
 5061TIP3    H115124   6.667   5.459   0.615
 5061TIP3    H215125   6.778   5.389   0.690
 5062TIP3   OH215126   7.861   5.867   1.595
 5062TIP3    H115127   7.782   5.817   1.615
 5062TIP3    H215128   7.917   5.805   1.548
 5063TIP3   OH215129   7.521   5.978   1.125
 5063TIP3    H115130   7.442   5.970   1.071
 5063TIP3    H215131   7.593   5.961   1.065
 5064TIP3   OH215132   6.250   5.569   0.653
 5064TIP3    H115133   6.233   5.657   0.621
 5064TIP3    H215134   6.341   5.551   0.629
 5065TIP3   OH215135   6.602   5.277   1.456
 5065TIP3    H115136   6.577   5.242   1.371
 5065TIP3    H215137   6.599   5.201   1.515
 5066TIP3   OH215138   6.179   6.531   0.850
 5066TIP3    H115139   6.097   6.567   0.886
 5066TIP3    H215140   6.158   6.510   0.759
 5067TIP3   OH215141   6.330   7.066   1.919
 5067TIP3    H115142   6.413   7.068   1.968
 5067TIP3    H215143   6.317   6.974   1.898
 5068TIP3   OH215144   6.802   6.989   1.968
 5068TIP3    H115145   6.891   6.958   1.988
 5068TIP3    H215146   6.769   6.927   1.903
 5069TIP3   OH215147   7.400   6.928   1.708
 5069TIP3    H115148   7.413   6.857   1.771
 5069TIP3    H215149   7.486   6.969   1.700
 5070TIP3   OH215150   6.440   6.459   2.105
 5070TIP3    H115151   6.460   6.366   2.114
 5070TIP3    H215152   6.353   6.462   2.066
 5071TIP3   OH215153   7.057   6.540   1.892
 5071TIP3    H115154   7.007   6.552   1.811
 5071TIP3    H215155   7.099   6.455   1.881
 5072TIP3   OH215156   7.585   6.604   1.561
 5072TIP3    H115157   7.643   6.645   1.496
 5072TIP3    H215158   7.501   6.648   1.548
 5073TIP3   OH215159   6.565   6.200   2.100
 5073TIP3    H115160   6.646   6.167   2.062
 5073TIP3    H215161   6.588   6.226   2.189
 5074TIP3   OH215162   6.843   6.050   1.779
 5074TIP3    H115163   6.779   6.121   1.786
 5074TIP3    H215164   6.912   6.086   1.723
 5075TIP3   OH215165   7.410   6.455   1.884
 5075TIP3    H115166   7.491   6.421   1.846
 5075TIP3    H215167   7.414   6.429   1.976
 5076TIP3   OH215168   7.021   5.863   1.879
 5076TIP3    H115169   7.025   5.784   1.825
 5076TIP3    H215170   6.961   5.921   1.832
 5077TIP3   OH215171   7.036   5.650   1.690
 5077TIP3    H115172   7.059   5.702   1.613
 5077TIP3    H215173   6.944   5.629   1.678
 5078TIP3   OH215174   7.034   6.166   1.625
 5078TIP3    H115175   7.115   6.142   1.581
 5078TIP3    H215176   6.998   6.238   1.573
 5079TIP3   OH215177   7.663   6.124   1.897
 5079TIP3    H115178   7.666   6.070   1.976
 5079TIP3    H215179   7.696   6.209   1.925
 5080TIP3   OH215180   7.654   6.389   1.702
 5080TIP3    H115181   7.616   6.466   1.660
 5080TIP3    H215182   7.743   6.385   1.667
 5081TIP3   OH215183   6.895   5.955   2.116
 5081TIP3    H115184   6.829   5.888   2.136
 5081TIP3    H215185   6.927   5.932   2.029
 5082TIP3   OH215186   7.175   5.417   1.736
 5082TIP3    H115187   7.126   5.499   1.722
 5082TIP3    H215188   7.108   5.349   1.737
 5083TIP3   OH215189   7.274   5.931   1.973
 5083TIP3    H115190   7.269   5.929   2.069
 5083TIP3    H215191   7.186   5.908   1.944
 5084TIP3   OH215192   7.491   5.788   1.889
 5084TIP3    H115193   7.424   5.834   1.939
 5084TIP3    H215194   7.572   5.801   1.939
 5085TIP3   OH215195   7.756   5.819   1.982
 5085TIP3    H115196   7.770   5.726   2.003
 5085TIP3    H215197   7.750   5.862   2.067
 5086TIP3   OH215198   6.738   5.730   2.178
 5086TIP3    H115199   6.744   5.640   2.145
 5086TIP3    H215200   6.776   5.725   2.266
 5087TIP3   OH215201   7.232   5.417   2.013
 5087TIP3    H115202   7.301   5.351   2.015
 5087TIP3    H215203   7.202   5.418   1.923
 5088TIP3   OH215204   7.308   5.629   2.173
 5088TIP3    H115205   7.281   5.559   2.113
 5088TIP3    H215206   7.236   5.691   2.173
 5089TIP3   OH215207   6.019   6.807   0.817
 5089TIP3    H115208   5.961   6.748   0.770
 5089TIP3    H215209   5.972   6.829   0.898
 5090TIP3   OH215210   5.903   6.710   1.221
 5090TIP3    H115211   5.963   6.636   1.231
 5090TIP3    H215212   5.931   6.773   1.288
 5091TIP3   OH215213   7.866   6.821   1.799
 5091TIP3    H115214   7.790   6.798   1.853
 5091TIP3    H215215   7.911   6.889   1.848
 5092TIP3   OH215216   6.260   6.117   1.485
 5092TIP3    H115217   6.252   6.087   1.394
 5092TIP3    H215218   6.354   6.117   1.502
 5093TIP3   OH215219   7.918   6.398   1.603
 5093TIP3    H115220   7.959   6.318   1.636
 5093TIP3    H215221   7.931   6.394   1.508
 5094TIP3   OH215222   8.139   6.201   1.631
 5094TIP3    H115223   8.061   6.150   1.652
 5094TIP3    H215224   8.175   6.227   1.716
 5095TIP3   OH215225   7.768   5.894   0.994
 5095TIP3    H115226   7.852   5.916   0.954
 5095TIP3    H215227   7.782   5.907   1.088
 5096TIP3   OH215228   7.883   6.136   1.423
 5096TIP3    H115229   7.848   6.130   1.512
 5096TIP3    H215230   7.836   6.210   1.384
 5097TIP3   OH215231   6.474   5.789   2.121
 5097TIP3    H115232   6.568   5.787   2.137
 5097TIP3    H215233   6.441   5.708   2.159
 5098TIP3   OH215234   8.283   5.693   1.873
 5098TIP3    H115235   8.354   5.629   1.862
 5098TIP3    H215236   8.281   5.742   1.791
 5099TIP3   OH215237   6.424   5.490   1.475
 5099TIP3    H115238   6.486   5.417   1.480
 5099TIP3    H215239   6.479   5.568   1.475
 5100TIP3   OH215240   6.225   5.760   1.558
 5100TIP3    H115241   6.268   5.762   1.472
 5100TIP3    H215242   6.262   5.835   1.605
 5101TIP3   OH215243   8.157   5.825   1.663
 5101TIP3    H115244   8.103   5.859   1.734
 5101TIP3    H215245   8.124   5.736   1.648
 5102TIP3   OH215246   6.184   5.231   1.056
 5102TIP3    H115247   6.097   5.238   1.096
 5102TIP3    H215248   6.193   5.309   1.003
 5103TIP3   OH215249   6.441   5.328   1.851
 5103TIP3    H115250   6.394   5.325   1.934
 5103TIP3    H215251   6.384   5.378   1.793
 5104TIP3   OH215252   6.468   6.782   1.939
 5104TIP3    H115253   6.375   6.765   1.925
 5104TIP3    H215254   6.480   6.773   2.034
 5105TIP3   OH215255   6.685   6.785   1.520
 5105TIP3    H115256   6.621   6.850   1.493
 5105TIP3    H215257   6.766   6.812   1.476
 5106TIP3   OH215258   7.106   7.048   1.631
 5106TIP3    H115259   7.131   7.042   1.724
 5106TIP3    H215260   7.148   7.128   1.601
 5107TIP3   OH215261   7.285   7.239   1.541
 5107TIP3    H115262   7.367   7.198   1.567
 5107TIP3    H215263   7.305   7.333   1.538
 5108TIP3   OH215264   8.062   5.569   1.601
 5108TIP3    H115265   7.989   5.578   1.540
 5108TIP3    H215266   8.111   5.493   1.569
 5109TIP3   OH215267   6.318   7.114   1.561
 5109TIP3    H115268   6.228   7.127   1.532
 5109TIP3    H215269   6.335   7.186   1.622
 5110TIP3   OH215270   6.489   6.947   1.456
 5110TIP3    H115271   6.433   7.012   1.497
 5110TIP3    H215272   6.476   6.960   1.362
 5111TIP3   OH215273   6.996   7.027   1.209
 5111TIP3    H115274   7.023   7.022   1.118
 5111TIP3    H215275   7.052   7.095   1.247
 5112TIP3   OH215276   7.319   6.971   1.124
 5112TIP3    H115277   7.270   6.989   1.204
 5112TIP3    H215278   7.256   6.986   1.053
 5113TIP3   OH215279   6.229   6.863   1.318
 5113TIP3    H115280   6.263   6.815   1.393
 5113TIP3    H215281   6.306   6.878   1.262
 5114TIP3   OH215282   6.447   6.656   1.099
 5114TIP3    H115283   6.446   6.600   1.177
 5114TIP3    H215284   6.532   6.700   1.103
 5115TIP3   OH215285   6.684   6.805   1.120
 5115TIP3    H115286   6.725   6.725   1.152
 5115TIP3    H215287   6.742   6.836   1.051
 5116TIP3   OH215288   7.300   5.488   1.369
 5116TIP3    H115289   7.224   5.430   1.367
 5116TIP3    H215290   7.357   5.454   1.300
 5117TIP3   OH215291   7.757   5.480   1.034
 5117TIP3    H115292   7.791   5.450   0.949
 5117TIP3    H215293   7.719   5.401   1.073
 5118TIP3   OH215294   7.953   5.437   0.835
 5118TIP3    H115295   8.020   5.464   0.772
 5118TIP3    H215296   7.984   5.472   0.919
 5119TIP3   OH215297   6.526   5.164   1.218
 5119TIP3    H115298   6.435   5.136   1.228
 5119TIP3    H215299   6.576   5.083   1.218
 5120TIP3   OH215300   6.350   5.075   0.902
 5120TIP3    H115301   6.346   5.134   0.827
 5120TIP3    H215302   6.300   5.119   0.971
 5121TIP3   OH215303   6.971   5.211   1.106
 5121TIP3    H115304   7.028   5.248   1.038
 5121TIP3    H215305   6.995   5.258   1.186
 5122TIP3   OH215306   7.500   5.422   1.192
 5122TIP3    H115307   7.476   5.406   1.101
 5122TIP3    H215308   7.558   5.349   1.215
 5123TIP3   OH215309   6.449   5.290   0.704
 5123TIP3    H115310   6.419   5.219   0.646
 5123TIP3    H215311   6.519   5.332   0.655
 5124TIP3   OH215312   6.898   5.414   0.813
 5124TIP3    H115313   6.955   5.352   0.857
 5124TIP3    H215314   6.957   5.473   0.766
 5125TIP3   OH215315   6.745   5.457   2.093
 5125TIP3    H115316   6.709   5.391   2.151
 5125TIP3    H215317   6.837   5.464   2.118
 5126TIP3   OH215318   6.993   5.462   2.215
 5126TIP3    H115319   7.076   5.439   2.172
 5126TIP3    H215320   6.983   5.395   2.283
 5127TIP3   OH215321   7.807   5.548   2.009
 5127TIP3    H115322   7.823   5.523   2.100
 5127TIP3    H215323   7.893   5.546   1.968
 5128TIP3   OH215324   8.004   6.048   0.972
 5128TIP3    H115325   8.084   6.036   0.923
 5128TIP3    H215326   8.028   6.105   1.045
 5129TIP3   OH215327   0.497   6.520   2.882
 5129TIP3    H115328   0.519   6.596   2.936
 5129TIP3    H215329   0.524   6.544   2.793
 5130TIP3   OH215330   8.544   6.408   2.515
 5130TIP3    H115331   8.606   6.433   2.584
 5130TIP3    H215332   8.572   6.460   2.439
 5131TIP3   OH215333   0.569   6.736   3.038
 5131TIP3    H115334   0.497   6.783   2.994
 5131TIP3    H215335   0.547   6.741   3.131
 5132TIP3   OH215336   0.137   6.456   2.718
 5132TIP3    H115337   0.217   6.409   2.697
 5132TIP3    H215338   0.166   6.544   2.743
 5133TIP3   OH215339   0.312   6.398   3.076
 5133TIP3    H115340   0.257   6.467   3.114
 5133TIP3    H215341   0.355   6.441   3.001
 5134TIP3   OH215342   0.207   7.469   3.023
 5134TIP3    H115343   0.197   7.378   2.995
 5134TIP3    H215344   0.169   7.521   2.951
 5135TIP3   OH215345   0.412   7.091   2.892
 5135TIP3    H115346   0.329   7.139   2.901
 5135TIP3    H215347   0.435   7.100   2.800
 5136TIP3   OH215348   0.232   6.024   2.143
 5136TIP3    H115349   0.150   6.050   2.185
 5136TIP3    H215350   0.258   6.099   2.091
 5137TIP3   OH215351   0.366   7.752   3.031
 5137TIP3    H115352   0.420   7.719   3.103
 5137TIP3    H215353   0.319   7.827   3.069
 5138TIP3   OH215354   0.178   7.239   2.863
 5138TIP3    H115355   0.213   7.283   2.785
 5138TIP3    H215356   0.105   7.186   2.830
 5139TIP3   OH215357   0.469   7.456   3.109
 5139TIP3    H115358   0.378   7.482   3.092
 5139TIP3    H215359   0.503   7.432   3.023
 5140TIP3   OH215360   0.014   6.818   2.662
 5140TIP3    H115361  -0.056   6.763   2.696
 5140TIP3    H215362   0.093   6.788   2.707
 5141TIP3   OH215363   0.278   6.595   3.791
 5141TIP3    H115364   0.255   6.514   3.744
 5141TIP3    H215365   0.193   6.632   3.816
 5142TIP3   OH215366   0.302   6.943   2.237
 5142TIP3    H115367   0.231   6.915   2.295
 5142TIP3    H215368   0.363   6.990   2.294
 5143TIP3   OH215369   0.316   7.353   2.658
 5143TIP3    H115370   0.371   7.284   2.622
 5143TIP3    H215371   0.329   7.428   2.600
 5144TIP3   OH215372   0.121   6.822   2.406
 5144TIP3    H115373   0.108   6.729   2.387
 5144TIP3    H215374   0.080   6.836   2.491
 5145TIP3   OH215375   0.353   7.256   3.265
 5145TIP3    H115376   0.414   7.182   3.264
 5145TIP3    H215377   0.391   7.319   3.203
 5146TIP3   OH215378   0.557   7.075   3.264
 5146TIP3    H115379   0.501   6.997   3.271
 5146TIP3    H215380   0.641   7.047   3.300
 5147TIP3   OH215381   0.096   6.552   2.322
 5147TIP3    H115382   0.149   6.473   2.328
 5147TIP3    H215383   0.081   6.564   2.228
 5148TIP3   OH215384   0.234   6.708   2.785
 5148TIP3    H115385   0.316   6.728   2.740
 5148TIP3    H215386   0.245   6.745   2.872
 5149TIP3   OH215387   0.312   6.855   3.002
 5149TIP3    H115388   0.319   6.844   3.097
 5149TIP3    H215389   0.342   6.944   2.986
 5150TIP3   OH215390   0.768   6.477   3.562
 5150TIP3    H115391   0.825   6.414   3.517
 5150TIP3    H215392   0.727   6.526   3.492
 5151TIP3   OH215393   0.212   6.301   2.334
 5151TIP3    H115394   0.249   6.277   2.419
 5151TIP3    H215395   0.143   6.236   2.318
 5152TIP3   OH215396   0.622   6.592   3.365
 5152TIP3    H115397   0.552   6.658   3.371
 5152TIP3    H215398   0.583   6.520   3.316
 5153TIP3   OH215399   0.302   6.230   1.982
 5153TIP3    H115400   0.334   6.186   1.902
 5153TIP3    H215401   0.338   6.318   1.977
 5154TIP3   OH215402   0.521   6.354   3.254
 5154TIP3    H115403   0.440   6.359   3.204
 5154TIP3    H215404   0.550   6.263   3.244
 5155TIP3   OH215405   0.347   6.245   2.569
 5155TIP3    H115406   0.416   6.184   2.546
 5155TIP3    H215407   0.385   6.332   2.554
 5156TIP3   OH215408   0.064   6.193   2.801
 5156TIP3    H115409   0.086   6.281   2.771
 5156TIP3    H215410   0.025   6.150   2.725
 5157TIP3   OH215411   8.613   6.110   2.296
 5157TIP3    H115412   8.536   6.140   2.249
 5157TIP3    H215413   8.590   6.023   2.328
 5158TIP3   OH215414   0.276   6.337   3.682
 5158TIP3    H115415   0.308   6.323   3.771
 5158TIP3    H215416   0.355   6.333   3.628
 5159TIP3   OH215417   1.495   7.252   1.972
 5159TIP3    H115418   1.458   7.333   1.938
 5159TIP3    H215419   1.432   7.184   1.946
 5160TIP3   OH215420   1.468   7.231   2.348
 5160TIP3    H115421   1.509   7.218   2.434
 5160TIP3    H215422   1.424   7.148   2.330
 5161TIP3   OH215423   0.756   7.126   2.722
 5161TIP3    H115424   0.789   7.057   2.779
 5161TIP3    H215425   0.832   7.183   2.706
 5162TIP3   OH215426   1.655   7.503   1.997
 5162TIP3    H115427   1.628   7.416   2.027
 5162TIP3    H215428   1.683   7.549   2.076
 5163TIP3   OH215429   0.762   7.524   2.478
 5163TIP3    H115430   0.730   7.434   2.470
 5163TIP3    H215431   0.831   7.531   2.412
 5164TIP3   OH215432   0.425   6.699   2.196
 5164TIP3    H115433   0.390   6.787   2.190
 5164TIP3    H215434   0.390   6.664   2.277
 5165TIP3   OH215435   0.518   7.040   2.386
 5165TIP3    H115436   0.565   6.964   2.419
 5165TIP3    H215437   0.583   7.090   2.338
 5166TIP3   OH215438   1.283   7.439   2.404
 5166TIP3    H115439   1.320   7.365   2.356
 5166TIP3    H215440   1.359   7.481   2.444
 5167TIP3   OH215441   2.291   6.797   2.383
 5167TIP3    H115442   2.317   6.876   2.431
 5167TIP3    H215443   2.304   6.820   2.291
 5168TIP3   OH215444   1.693   6.967   2.408
 5168TIP3    H115445   1.722   6.880   2.435
 5168TIP3    H215446   1.651   6.953   2.323
 5169TIP3   OH215447   1.037   6.621   2.361
 5169TIP3    H115448   1.010   6.697   2.310
 5169TIP3    H215449   0.984   6.548   2.327
 5170TIP3   OH215450   1.746   6.719   2.008
 5170TIP3    H115451   1.813   6.708   2.075
 5170TIP3    H215452   1.792   6.758   1.933
 5171TIP3   OH215453   0.660   6.826   2.486
 5171TIP3    H115454   0.744   6.810   2.530
 5171TIP3    H215455   0.667   6.775   2.405
 5172TIP3   OH215456   1.095   7.036   2.292
 5172TIP3    H115457   1.188   7.011   2.300
 5172TIP3    H215458   1.052   6.955   2.264
 5173TIP3   OH215459   2.363   7.009   2.548
 5173TIP3    H115460   2.273   7.042   2.548
 5173TIP3    H215461   2.401   7.043   2.629
 5174TIP3   OH215462   1.015   6.620   2.818
 5174TIP3    H115463   0.960   6.652   2.746
 5174TIP3    H215464   0.962   6.634   2.896
 5175TIP3   OH215465   1.381   7.456   1.840
 5175TIP3    H115466   1.355   7.448   1.748
 5175TIP3    H215467   1.380   7.550   1.857
 5176TIP3   OH215468   1.129   7.347   2.602
 5176TIP3    H115469   1.060   7.405   2.633
 5176TIP3    H215470   1.173   7.396   2.532
 5177TIP3   OH215471   1.928   6.714   2.219
 5177TIP3    H115472   1.867   6.701   2.292
 5177TIP3    H215473   1.969   6.799   2.237
 5178TIP3   OH215474   0.904   6.724   2.584
 5178TIP3    H115475   0.960   6.797   2.610
 5178TIP3    H215476   0.951   6.681   2.513
 5179TIP3   OH215477   0.929   7.498   2.694
 5179TIP3    H115478   0.874   7.517   2.619
 5179TIP3    H215479   0.873   7.514   2.770
 5180TIP3   OH215480   1.776   7.682   2.164
 5180TIP3    H115481   1.779   7.678   2.259
 5180TIP3    H215482   1.799   7.773   2.142
 5181TIP3   OH215483   2.093   6.686   2.547
 5181TIP3    H115484   2.008   6.718   2.516
 5181TIP3    H215485   2.156   6.717   2.482
 5182TIP3   OH215486   1.360   6.318   2.539
 5182TIP3    H115487   1.352   6.225   2.564
 5182TIP3    H215488   1.285   6.360   2.580
 5183TIP3   OH215489   1.705   7.584   1.734
 5183TIP3    H115490   1.687   7.506   1.683
 5183TIP3    H215491   1.682   7.560   1.824
 5184TIP3   OH215492   2.071   7.665   2.498
 5184TIP3    H115493   2.009   7.599   2.466
 5184TIP3    H215494   2.055   7.742   2.444
 5185TIP3   OH215495   1.334   7.088   1.815
 5185TIP3    H115496   1.241   7.103   1.829
 5185TIP3    H215497   1.347   7.103   1.721
 5186TIP3   OH215498   1.315   6.827   1.555
 5186TIP3    H115499   1.373   6.898   1.583
 5186TIP3    H215500   1.368   6.775   1.494
 5187TIP3   OH215501   2.190   7.329   2.365
 5187TIP3    H115502   2.105   7.371   2.369
 5187TIP3    H215503   2.228   7.359   2.283
 5188TIP3   OH215504   1.660   7.148   1.778
 5188TIP3    H115505   1.608   7.183   1.850
 5188TIP3    H215506   1.746   7.130   1.817
 5189TIP3   OH215507   1.880   7.204   2.679
 5189TIP3    H115508   1.879   7.281   2.735
 5189TIP3    H215509   1.796   7.207   2.632
 5190TIP3   OH215510   0.893   7.191   2.186
 5190TIP3    H115511   0.829   7.130   2.150
 5190TIP3    H215512   0.965   7.136   2.215
 5191TIP3   OH215513   0.982   7.509   2.308
 5191TIP3    H115514   0.949   7.518   2.218
 5191TIP3    H215515   1.073   7.481   2.297
 5192TIP3   OH215516   0.986   7.135   2.522
 5192TIP3    H115517   1.023   7.105   2.439
 5192TIP3    H215518   1.040   7.209   2.547
 5193TIP3   OH215519   1.521   7.800   2.421
 5193TIP3    H115520   1.433   7.838   2.424
 5193TIP3    H215521   1.511   7.718   2.373
 5194TIP3   OH215522   1.168   7.575   2.818
 5194TIP3    H115523   1.129   7.652   2.860
 5194TIP3    H215524   1.097   7.538   2.766
 5195TIP3   OH215525   1.503   7.025   1.588
 5195TIP3    H115526   1.555   7.081   1.646
 5195TIP3    H215527   1.527   7.052   1.500
 5196TIP3   OH215528   0.911   7.232   2.973
 5196TIP3    H115529   0.923   7.310   3.026
 5196TIP3    H215530   0.817   7.213   2.980
 5197TIP3   OH215531   2.007   6.270   1.647
 5197TIP3    H115532   1.922   6.287   1.688
 5197TIP3    H215533   2.021   6.346   1.590
 5198TIP3   OH215534   0.696   7.035   2.077
 5198TIP3    H115535   0.628   7.084   2.031
 5198TIP3    H215536   0.723   6.968   2.014
 5199TIP3   OH215537   0.522   7.381   2.852
 5199TIP3    H115538   0.458   7.358   2.785
 5199TIP3    H215539   0.560   7.297   2.878
 5200TIP3   OH215540   0.409   7.573   2.519
 5200TIP3    H115541   0.497   7.586   2.484
 5200TIP3    H215542   0.408   7.622   2.601
 5201TIP3   OH215543   2.184   8.029   2.560
 5201TIP3    H115544   2.167   7.978   2.481
 5201TIP3    H215545   2.143   8.114   2.543
 5202TIP3   OH215546   2.122   7.162   2.870
 5202TIP3    H115547   2.040   7.167   2.820
 5202TIP3    H215548   2.144   7.069   2.871
 5203TIP3   OH215549   0.748   7.525   2.897
 5203TIP3    H115550   0.783   7.481   2.975
 5203TIP3    H215551   0.669   7.475   2.876
 5204TIP3   OH215552   1.124   6.411   2.666
 5204TIP3    H115553   1.041   6.377   2.633
 5204TIP3    H215554   1.101   6.489   2.717
 5205TIP3   OH215555   1.667   6.524   2.863
 5205TIP3    H115556   1.736   6.500   2.925
 5205TIP3    H215557   1.585   6.508   2.911
 5206TIP3   OH215558   1.890   6.946   2.781
 5206TIP3    H115559   1.846   6.942   2.865
 5206TIP3    H215560   1.869   7.033   2.747
 5207TIP3   OH215561   1.587   7.078   1.338
 5207TIP3    H115562   1.554   7.044   1.254
 5207TIP3    H215563   1.668   7.124   1.315
 5208TIP3   OH215564   1.274   6.443   1.639
 5208TIP3    H115565   1.240   6.449   1.728
 5208TIP3    H215566   1.246   6.357   1.608
 5209TIP3   OH215567   1.063   6.928   2.682
 5209TIP3    H115568   1.014   6.936   2.764
 5209TIP3    H215569   1.034   7.003   2.629
 5210TIP3   OH215570   0.934   6.828   2.215
 5210TIP3    H115571   0.843   6.803   2.228
 5210TIP3    H215572   0.956   6.796   2.128
 5211TIP3   OH215573   1.455   6.877   1.927
 5211TIP3    H115574   1.409   6.952   1.889
 5211TIP3    H215575   1.511   6.844   1.856
 5212TIP3   OH215576   1.630   7.152   2.995
 5212TIP3    H115577   1.599   7.085   3.057
 5212TIP3    H215578   1.721   7.167   3.019
 5213TIP3   OH215579   1.603   6.908   2.157
 5213TIP3    H115580   1.534   6.931   2.094
 5213TIP3    H215581   1.646   6.832   2.119
 5214TIP3   OH215582   0.886   6.944   2.893
 5214TIP3    H115583   0.905   7.009   2.960
 5214TIP3    H215584   0.871   6.863   2.941
 5215TIP3   OH215585   0.929   6.412   1.580
 5215TIP3    H115586   0.913   6.446   1.668
 5215TIP3    H215587   0.842   6.388   1.547
 5216TIP3   OH215588   0.471   6.470   2.477
 5216TIP3    H115589   0.548   6.501   2.525
 5216TIP3    H215590   0.507   6.431   2.397
 5217TIP3   OH215591   0.425   6.484   2.015
 5217TIP3    H115592   0.471   6.500   1.933
 5217TIP3    H215593   0.424   6.569   2.059
 5218TIP3   OH215594   1.616   7.164   2.577
 5218TIP3    H115595   1.649   7.099   2.515
 5218TIP3    H215596   1.582   7.112   2.650
 5219TIP3   OH215597   1.307   6.618   2.259
 5219TIP3    H115598   1.226   6.616   2.310
 5219TIP3    H215599   1.376   6.602   2.324
 5220TIP3   OH215600   0.700   6.684   2.254
 5220TIP3    H115601   0.613   6.678   2.217
 5220TIP3    H215602   0.738   6.597   2.241
 5221TIP3   OH215603   1.007   6.716   1.984
 5221TIP3    H115604   1.102   6.706   1.979
 5221TIP3    H215605   0.975   6.686   1.899
 5222TIP3   OH215606   1.756   6.696   2.440
 5222TIP3    H115607   1.744   6.708   2.534
 5222TIP3    H215608   1.684   6.637   2.414
 5223TIP3   OH215609   0.867   6.642   1.761
 5223TIP3    H115610   0.804   6.702   1.800
 5223TIP3    H215611   0.918   6.695   1.701
 5224TIP3   OH215612   0.909   7.476   3.115
 5224TIP3    H115613   0.988   7.480   3.168
 5224TIP3    H215614   0.848   7.536   3.158
 5225TIP3   OH215615   1.360   6.968   2.355
 5225TIP3    H115616   1.420   6.906   2.313
 5225TIP3    H215617   1.353   6.936   2.445
 5226TIP3   OH215618   0.852   6.446   2.236
 5226TIP3    H115619   0.822   6.369   2.285
 5226TIP3    H215620   0.877   6.411   2.151
 5227TIP3   OH215621   1.332   6.886   2.623
 5227TIP3    H115622   1.243   6.912   2.649
 5227TIP3    H215623   1.389   6.938   2.679
 5228TIP3   OH215624   1.073   7.135   1.862
 5228TIP3    H115625   1.007   7.146   1.793
 5228TIP3    H215626   1.069   7.216   1.913
 5229TIP3   OH215627   1.949   7.460   2.354
 5229TIP3    H115628   1.972   7.514   2.279
 5229TIP3    H215629   1.865   7.419   2.331
 5230TIP3   OH215630   1.528   6.543   1.639
 5230TIP3    H115631   1.434   6.525   1.635
 5230TIP3    H215632   1.534   6.638   1.647
 5231TIP3   OH215633   1.457   7.524   2.763
 5231TIP3    H115634   1.493   7.511   2.851
 5231TIP3    H215635   1.374   7.570   2.777
 5232TIP3   OH215636   1.610   6.801   1.709
 5232TIP3    H115637   1.705   6.811   1.719
 5232TIP3    H215638   1.583   6.877   1.657
 5233TIP3   OH215639   0.751   7.251   2.416
 5233TIP3    H115640   0.795   7.249   2.331
 5233TIP3    H215641   0.809   7.201   2.474
 5234TIP3   OH215642   1.273   7.436   1.588
 5234TIP3    H115643   1.268   7.530   1.572
 5234TIP3    H215644   1.187   7.412   1.622
 5235TIP3   OH215645   0.642   7.181   3.020
 5235TIP3    H115646   0.641   7.164   3.115
 5235TIP3    H215647   0.570   7.128   2.986
 5236TIP3   OH215648   1.377   7.251   3.049
 5236TIP3    H115649   1.309   7.195   3.011
 5236TIP3    H215650   1.458   7.220   3.011
 5237TIP3   OH215651   1.624   7.781   2.675
 5237TIP3    H115652   1.583   7.796   2.590
 5237TIP3    H215653   1.606   7.861   2.725
 5238TIP3   OH215654   2.017   6.894   1.538
 5238TIP3    H115655   1.960   6.848   1.477
 5238TIP3    H215656   2.024   6.983   1.503
 5239TIP3   OH215657   2.290   7.705   2.646
 5239TIP3    H115658   2.202   7.716   2.609
 5239TIP3    H215659   2.346   7.688   2.571
 5240TIP3   OH215660   1.738   7.701   1.455
 5240TIP3    H115661   1.753   7.660   1.540
 5240TIP3    H215662   1.701   7.630   1.401
 5241TIP3   OH215663   1.718   7.335   2.263
 5241TIP3    H115664   1.628   7.308   2.283
 5241TIP3    H215665   1.757   7.259   2.219
 5242TIP3   OH215666   0.886   7.591   2.041
 5242TIP3    H115667   0.929   7.676   2.047
 5242TIP3    H215668   0.802   7.610   1.999
 5243TIP3   OH215669   1.032   7.360   2.019
 5243TIP3    H115670   0.974   7.436   2.008
 5243TIP3    H215671   0.986   7.304   2.082
 5244TIP3   OH215672   1.535   7.505   2.500
 5244TIP3    H115673   1.509   7.519   2.591
 5244TIP3    H215674   1.614   7.452   2.506
 5245TIP3   OH215675   1.610   7.466   1.362
 5245TIP3    H115676   1.612   7.415   1.443
 5245TIP3    H215677   1.520   7.499   1.357
 5246TIP3   OH215678   0.844   6.699   3.026
 5246TIP3    H115679   0.749   6.707   3.029
 5246TIP3    H215680   0.867   6.647   3.103
 5247TIP3   OH215681   1.680   7.350   1.597
 5247TIP3    H115682   1.667   7.277   1.658
 5247TIP3    H215683   1.773   7.345   1.574
 5248TIP3   OH215684   1.715   6.744   2.704
 5248TIP3    H115685   1.784   6.795   2.746
 5248TIP3    H215686   1.698   6.671   2.764
 5249TIP3   OH215687   1.587   6.506   1.908
 5249TIP3    H115688   1.563   6.524   1.817
 5249TIP3    H215689   1.628   6.587   1.938
 5250TIP3   OH215690   1.276   6.685   1.997
 5250TIP3    H115691   1.337   6.754   1.972
 5250TIP3    H215692   1.288   6.676   2.092
 5251TIP3   OH215693   1.548   6.990   2.777
 5251TIP3    H115694   1.572   7.036   2.858
 5251TIP3    H215695   1.592   6.905   2.784
 5252TIP3   OH215696   1.402   6.404   2.091
 5252TIP3    H115697   1.378   6.482   2.141
 5252TIP3    H215698   1.468   6.435   2.028
 5253TIP3   OH215699   0.915   6.410   1.914
 5253TIP3    H115700   0.894   6.497   1.881
 5253TIP3    H215701   1.010   6.404   1.908
 5254TIP3   OH215702   2.154   6.890   2.765
 5254TIP3    H115703   2.059   6.902   2.776
 5254TIP3    H215704   2.161   6.828   2.691
 5255TIP3   OH215705   1.818   7.094   2.154
 5255TIP3    H115706   1.739   7.040   2.164
 5255TIP3    H215707   1.883   7.053   2.211
 5256TIP3   OH215708   0.865   6.321   2.623
 5256TIP3    H115709   0.835   6.288   2.538
 5256TIP3    H215710   0.857   6.247   2.682
 5257TIP3   OH215711   1.592   7.940   2.894
 5257TIP3    H115712   1.599   7.894   2.978
 5257TIP3    H215713   1.660   8.008   2.897
 5258TIP3   OH215714   0.642   7.430   3.321
 5258TIP3    H115715   0.704   7.360   3.304
 5258TIP3    H215716   0.591   7.437   3.240
 5259TIP3   OH215717   1.299   7.510   3.046
 5259TIP3    H115718   1.257   7.523   2.962
 5259TIP3    H215719   1.332   7.420   3.043
 5260TIP3   OH215720   1.779   7.560   2.663
 5260TIP3    H115721   1.852   7.620   2.674
 5260TIP3    H215722   1.701   7.613   2.679
 5261TIP3   OH215723   0.826   7.225   3.283
 5261TIP3    H115724   0.883   7.151   3.262
 5261TIP3    H215725   0.850   7.250   3.372
 5262TIP3   OH215726   0.785   6.902   1.850
 5262TIP3    H115727   0.876   6.931   1.855
 5262TIP3    H215728   0.767   6.896   1.756
 5263TIP3   OH215729   1.161   7.115   2.929
 5263TIP3    H115730   1.078   7.163   2.933
 5263TIP3    H215731   1.203   7.147   2.849
 5264TIP3   OH215732   1.038   6.829   1.629
 5264TIP3    H115733   1.016   6.818   1.536
 5264TIP3    H215734   1.133   6.823   1.632
 5265TIP3   OH215735   1.661   7.500   3.046
 5265TIP3    H115736   1.730   7.462   2.991
 5265TIP3    H215737   1.655   7.441   3.121
 5266TIP3   OH215738   1.816   7.182   1.226
 5266TIP3    H115739   1.816   7.142   1.139
 5266TIP3    H215740   1.799   7.275   1.210
 5267TIP3   OH215741   1.272   6.900   3.052
 5267TIP3    H115742   1.276   6.825   2.993
 5267TIP3    H215743   1.230   6.969   3.001
 5268TIP3   OH215744   1.276   6.701   2.849
 5268TIP3    H115745   1.301   6.740   2.765
 5268TIP3    H215746   1.184   6.677   2.838
 5269TIP3   OH215747   1.322   7.211   2.730
 5269TIP3    H115748   1.407   7.249   2.706
 5269TIP3    H215749   1.258   7.264   2.684
 5270TIP3   OH215750   1.884   7.178   3.117
 5270TIP3    H115751   1.920   7.096   3.150
 5270TIP3    H215752   1.961   7.231   3.094
 5271TIP3   OH215753   1.905   7.418   2.856
 5271TIP3    H115754   1.846   7.470   2.801
 5271TIP3    H215755   1.993   7.438   2.823
 5272TIP3   OH215756   1.156   6.992   3.294
 5272TIP3    H115757   1.090   6.927   3.316
 5272TIP3    H215758   1.189   6.965   3.208
 5273TIP3   OH215759   1.400   6.467   2.940
 5273TIP3    H115760   1.358   6.547   2.911
 5273TIP3    H215761   1.333   6.399   2.930
 5274TIP3   OH215762   1.527   6.953   3.150
 5274TIP3    H115763   1.523   6.940   3.245
 5274TIP3    H215764   1.439   6.929   3.119
 5275TIP3   OH215765   1.765   6.887   3.012
 5275TIP3    H115766   1.691   6.890   3.073
 5275TIP3    H215767   1.840   6.865   3.067
 5276TIP3   OH215768   2.010   6.856   3.149
 5276TIP3    H115769   2.022   6.762   3.164
 5276TIP3    H215770   2.002   6.893   3.237
 5277TIP3   OH215771   0.999   6.765   3.352
 5277TIP3    H115772   0.998   6.677   3.315
 5277TIP3    H215773   1.037   6.753   3.440
 5278TIP3   OH215774   1.470   6.454   3.206
 5278TIP3    H115775   1.541   6.390   3.202
 5278TIP3    H215776   1.438   6.460   3.116
 5279TIP3   OH215777   1.565   6.678   3.335
 5279TIP3    H115778   1.529   6.606   3.283
 5279TIP3    H215779   1.491   6.737   3.348
 5280TIP3   OH215780   2.050   7.946   2.851
 5280TIP3    H115781   2.031   8.009   2.921
 5280TIP3    H215782   2.145   7.947   2.843
 5281TIP3   OH215783   1.950   7.356   1.554
 5281TIP3    H115784   2.003   7.423   1.512
 5281TIP3    H215785   2.003   7.325   1.627
 5282TIP3   OH215786   2.088   7.227   1.751
 5282TIP3    H115787   2.024   7.186   1.810
 5282TIP3    H215788   2.155   7.263   1.809
 5283TIP3   OH215789   2.089   7.607   2.165
 5283TIP3    H115790   2.164   7.550   2.145
 5283TIP3    H215791   2.039   7.610   2.084
 5284TIP3   OH215792   2.012   7.134   1.406
 5284TIP3    H115793   1.944   7.136   1.339
 5284TIP3    H215794   1.993   7.209   1.463
 5285TIP3   OH215795   1.856   6.793   1.345
 5285TIP3    H115796   1.814   6.823   1.265
 5285TIP3    H215797   1.850   6.698   1.342
 5286TIP3   OH215798   1.902   7.080   1.894
 5286TIP3    H115799   1.904   6.985   1.879
 5286TIP3    H215800   1.880   7.089   1.986
 5287TIP3   OH215801   0.499   7.150   2.637
 5287TIP3    H115802   0.496   7.116   2.548
 5287TIP3    H215803   0.593   7.149   2.659
 5288TIP3   OH215804   2.149   7.481   2.751
 5288TIP3    H115805   2.211   7.410   2.731
 5288TIP3    H215806   2.178   7.553   2.696
 5289TIP3   OH215807   2.330   7.278   2.740
 5289TIP3    H115808   2.263   7.234   2.791
 5289TIP3    H215809   2.411   7.230   2.760
 5290TIP3   OH215810   1.828   6.524   1.336
 5290TIP3    H115811   1.889   6.483   1.398
 5290TIP3    H215812   1.746   6.477   1.350
 5291TIP3   OH215813   1.892   6.809   1.779
 5291TIP3    H115814   1.932   6.723   1.788
 5291TIP3    H215815   1.932   6.846   1.700
 5292TIP3   OH215816   2.029   6.964   2.286
 5292TIP3    H115817   2.111   6.985   2.240
 5292TIP3    H215818   2.040   7.003   2.373
 5293TIP3   OH215819   2.100   7.113   2.512
 5293TIP3    H115820   2.028   7.145   2.567
 5293TIP3    H215821   2.133   7.191   2.468
 5294TIP3   OH215822   0.763   6.905   3.346
 5294TIP3    H115823   0.842   6.851   3.341
 5294TIP3    H215824   0.692   6.843   3.361
 5295TIP3   OH215825   2.567   6.726   3.058
 5295TIP3    H115826   2.629   6.665   3.018
 5295TIP3    H215827   2.528   6.773   2.985
 5296TIP3   OH215828   1.988   6.552   1.849
 5296TIP3    H115829   1.983   6.550   1.945
 5296TIP3    H215830   1.929   6.482   1.821
 5297TIP3   OH215831   0.691   6.537   2.632
 5297TIP3    H115832   0.747   6.460   2.642
 5297TIP3    H215833   0.752   6.610   2.622
 5298TIP3   OH215834   0.483   6.799   2.704
 5298TIP3    H115835   0.535   6.795   2.623
 5298TIP3    H215836   0.514   6.878   2.747
 5299TIP3   OH215837   2.418   6.837   2.861
 5299TIP3    H115838   2.337   6.879   2.893
 5299TIP3    H215839   2.387   6.766   2.805
 5300TIP3   OH215840   2.077   6.468   1.475
 5300TIP3    H115841   2.102   6.420   1.396
 5300TIP3    H215842   2.122   6.553   1.467
 5301TIP3   OH215843   0.478   6.322   2.228
 5301TIP3    H115844   0.389   6.300   2.257
 5301TIP3    H215845   0.465   6.379   2.152
 5302TIP3   OH215846   0.689   6.374   3.022
 5302TIP3    H115847   0.644   6.375   3.107
 5302TIP3    H215848   0.626   6.415   2.962
 5303TIP3   OH215849   0.745   7.683   3.182
 5303TIP3    H115850   0.707   7.719   3.102
 5303TIP3    H215851   0.740   7.755   3.245
 5304TIP3   OH215852   2.327   6.589   2.752
 5304TIP3    H115853   2.237   6.572   2.724
 5304TIP3    H215854   2.370   6.504   2.747
 5305TIP3   OH215855   1.537   6.514   2.385
 5305TIP3    H115856   1.496   6.445   2.437
 5305TIP3    H215857   1.603   6.469   2.333
 5306TIP3   OH215858   2.031   6.444   2.250
 5306TIP3    H115859   2.040   6.539   2.246
 5306TIP3    H215860   1.937   6.429   2.260
 5307TIP3   OH215861   0.770   6.220   2.383
 5307TIP3    H115862   0.680   6.188   2.389
 5307TIP3    H215863   0.823   6.140   2.377
 5308TIP3   OH215864   0.606   6.120   2.053
 5308TIP3    H115865   0.630   6.168   1.974
 5308TIP3    H215866   0.565   6.185   2.110
 5309TIP3   OH215867   1.247   6.260   2.279
 5309TIP3    H115868   1.298   6.308   2.212
 5309TIP3    H215869   1.285   6.288   2.362
 5310TIP3   OH215870   1.754   6.396   2.248
 5310TIP3    H115871   1.742   6.355   2.162
 5310TIP3    H215872   1.753   6.323   2.309
 5311TIP3   OH215873   1.802   6.349   1.817
 5311TIP3    H115874   1.720   6.395   1.838
 5311TIP3    H215875   1.791   6.262   1.855
 5312TIP3   OH215876   0.710   6.258   1.818
 5312TIP3    H115877   0.749   6.193   1.760
 5312TIP3    H215878   0.784   6.300   1.861
 5313TIP3   OH215879   1.189   6.447   1.899
 5313TIP3    H115880   1.235   6.382   1.952
 5313TIP3    H215881   1.221   6.531   1.930
 5314TIP3   OH215882   1.000   6.495   3.265
 5314TIP3    H115883   0.962   6.430   3.324
 5314TIP3    H215884   1.092   6.500   3.293
 5315TIP3   OH215885   1.249   6.502   3.389
 5315TIP3    H115886   1.328   6.481   3.339
 5315TIP3    H215887   1.242   6.432   3.454
 5316TIP3   OH215888   2.071   6.587   3.179
 5316TIP3    H115889   2.086   6.560   3.270
 5316TIP3    H215890   2.158   6.583   3.139
 5317TIP3   OH215891   3.248   7.496   1.431
 5317TIP3    H115892   3.237   7.583   1.395
 5317TIP3    H215893   3.186   7.441   1.382
 5318TIP3   OH215894   3.262   7.496   1.836
 5318TIP3    H115895   3.308   7.484   1.919
 5318TIP3    H215896   3.220   7.412   1.820
 5319TIP3   OH215897   2.555   7.376   2.191
 5319TIP3    H115898   2.579   7.310   2.257
 5319TIP3    H215899   2.637   7.419   2.169
 5320TIP3   OH215900   3.515   7.789   1.492
 5320TIP3    H115901   3.507   7.720   1.558
 5320TIP3    H215902   3.540   7.867   1.543
 5321TIP3   OH215903   2.583   7.736   1.917
 5321TIP3    H115904   2.579   7.652   1.871
 5321TIP3    H215905   2.664   7.776   1.887
 5322TIP3   OH215906   2.236   7.000   1.681
 5322TIP3    H115907   2.198   7.085   1.702
 5322TIP3    H215908   2.167   6.952   1.635
 5323TIP3   OH215909   2.319   7.301   1.884
 5323TIP3    H115910   2.363   7.222   1.913
 5323TIP3    H215911   2.390   7.361   1.859
 5324TIP3   OH215912   3.091   7.723   1.845
 5324TIP3    H115913   3.127   7.642   1.809
 5324TIP3    H215914   3.166   7.769   1.882
 5325TIP3   OH215915   4.098   7.050   1.870
 5325TIP3    H115916   4.118   7.133   1.913
 5325TIP3    H215917   4.116   7.067   1.777
 5326TIP3   OH215918   3.480   7.218   1.889
 5326TIP3    H115919   3.519   7.134   1.914
 5326TIP3    H215920   3.440   7.201   1.804
 5327TIP3   OH215921   2.824   6.873   1.847
 5327TIP3    H115922   2.807   6.947   1.790
 5327TIP3    H215923   2.779   6.800   1.806
 5328TIP3   OH215924   3.517   6.973   1.499
 5328TIP3    H115925   3.584   6.963   1.567
 5328TIP3    H215926   3.565   7.007   1.424
 5329TIP3   OH215927   2.452   7.079   1.977
 5329TIP3    H115928   2.535   7.059   2.023
 5329TIP3    H215929   2.458   7.030   1.895
 5330TIP3   OH215930   2.885   7.280   1.778
 5330TIP3    H115931   2.979   7.264   1.787
 5330TIP3    H215932   2.850   7.197   1.743
 5331TIP3   OH215933   4.161   7.267   2.037
 5331TIP3    H115934   4.073   7.304   2.030
 5331TIP3    H215935   4.196   7.304   2.118
 5332TIP3   OH215936   2.809   6.871   2.298
 5332TIP3    H115937   2.756   6.908   2.228
 5332TIP3    H215938   2.758   6.887   2.378
 5333TIP3   OH215939   3.203   7.719   1.266
 5333TIP3    H115940   3.145   7.702   1.192
 5333TIP3    H215941   3.169   7.800   1.305
 5334TIP3   OH215942   2.958   7.609   2.058
 5334TIP3    H115943   2.899   7.676   2.092
 5334TIP3    H215944   3.006   7.653   1.987
 5335TIP3   OH215945   3.699   6.992   1.702
 5335TIP3    H115946   3.659   6.972   1.786
 5335TIP3    H215947   3.755   7.068   1.719
 5336TIP3   OH215948   2.695   6.975   2.069
 5336TIP3    H115949   2.749   7.050   2.094
 5336TIP3    H215950   2.741   6.934   1.997
 5337TIP3   OH215951   2.783   7.790   2.156
 5337TIP3    H115952   2.735   7.867   2.126
 5337TIP3    H215953   2.743   7.767   2.240
 5338TIP3   OH215954   2.104   7.536   1.413
 5338TIP3    H115955   2.081   7.529   1.321
 5338TIP3    H215956   2.086   7.628   1.436
 5339TIP3   OH215957   3.568   8.004   1.659
 5339TIP3    H115958   3.496   8.016   1.721
 5339TIP3    H215959   3.591   8.092   1.631
 5340TIP3   OH215960   3.894   6.940   2.034
 5340TIP3    H115961   3.808   6.963   1.999
 5340TIP3    H215962   3.956   6.969   1.967
 5341TIP3   OH215963   3.155   6.571   2.022
 5341TIP3    H115964   3.150   6.479   2.049
 5341TIP3    H215965   3.080   6.613   2.064
 5342TIP3   OH215966   3.463   7.837   1.219
 5342TIP3    H115967   3.383   7.784   1.219
 5342TIP3    H215968   3.498   7.827   1.307
 5343TIP3   OH215969   3.786   7.954   1.997
 5343TIP3    H115970   3.776   7.878   1.940
 5343TIP3    H215971   3.761   8.028   1.942
 5344TIP3   OH215972   3.094   7.347   1.247
 5344TIP3    H115973   3.015   7.401   1.238
 5344TIP3    H215974   3.098   7.296   1.166
 5345TIP3   OH215975   3.063   7.197   1.017
 5345TIP3    H115976   3.116   7.123   0.985
 5345TIP3    H215977   2.972   7.168   1.004
 5346TIP3   OH215978   3.989   7.610   1.878
 5346TIP3    H115979   3.904   7.655   1.876
 5346TIP3    H215980   4.024   7.621   1.789
 5347TIP3   OH215981   3.455   7.430   1.267
 5347TIP3    H115982   3.398   7.453   1.340
 5347TIP3    H215983   3.539   7.409   1.308
 5348TIP3   OH215984   3.676   7.468   2.169
 5348TIP3    H115985   3.676   7.551   2.217
 5348TIP3    H215986   3.595   7.468   2.119
 5349TIP3   OH215987   2.685   7.419   1.641
 5349TIP3    H115988   2.642   7.360   1.578
 5349TIP3    H215989   2.758   7.368   1.675
 5350TIP3   OH215990   2.824   7.797   1.800
 5350TIP3    H115991   2.822   7.782   1.705
 5350TIP3    H215992   2.915   7.781   1.825
 5351TIP3   OH215993   2.790   7.402   2.005
 5351TIP3    H115994   2.825   7.363   1.924
 5351TIP3    H215995   2.850   7.475   2.024
 5352TIP3   OH215996   3.363   8.038   1.840
 5352TIP3    H115997   3.281   8.083   1.860
 5352TIP3    H215998   3.354   7.952   1.880
 5353TIP3   OH215999   2.976   7.887   2.334
 5353TIP3    H116000   2.939   7.971   2.362
 5353TIP3    H216001   2.910   7.850   2.276
 5354TIP3   OH216002   3.369   7.284   1.051
 5354TIP3    H116003   3.402   7.335   1.126
 5354TIP3    H216004   3.338   7.350   0.989
 5355TIP3   OH216005   2.704   7.497   2.418
 5355TIP3    H116006   2.718   7.570   2.479
 5355TIP3    H216007   2.613   7.472   2.431
 5356TIP3   OH216008   3.791   6.528   1.133
 5356TIP3    H116009   3.712   6.547   1.183
 5356TIP3    H216010   3.802   6.603   1.076
 5357TIP3   OH216011   2.540   7.266   1.457
 5357TIP3    H116012   2.471   7.315   1.412
 5357TIP3    H216013   2.505   7.178   1.467
 5358TIP3   OH216014   2.325   7.606   2.385
 5358TIP3    H116015   2.230   7.597   2.386
 5358TIP3    H216016   2.357   7.524   2.421
 5359TIP3   OH216017   2.294   7.769   2.014
 5359TIP3    H116018   2.298   7.840   1.950
 5359TIP3    H216019   2.202   7.765   2.040
 5360TIP3   OH216020   6.771   0.135   2.087
 5360TIP3    H116021   6.839   0.085   2.042
 5360TIP3    H216022   6.800   0.138   2.178
 5361TIP3   OH216023   3.922   7.427   2.347
 5361TIP3    H116024   3.843   7.437   2.294
 5361TIP3    H216025   3.943   7.334   2.343
 5362TIP3   OH216026   2.508   7.740   2.251
 5362TIP3    H116027   2.561   7.793   2.310
 5362TIP3    H216028   2.445   7.696   2.309
 5363TIP3   OH216029   2.917   6.659   2.149
 5363TIP3    H116030   2.836   6.625   2.111
 5363TIP3    H216031   2.889   6.738   2.197
 5364TIP3   OH216032   3.464   6.781   2.351
 5364TIP3    H116033   3.534   6.756   2.411
 5364TIP3    H216034   3.383   6.763   2.399
 5365TIP3   OH216035   3.682   7.206   2.263
 5365TIP3    H116036   3.642   7.204   2.350
 5365TIP3    H216037   3.666   7.295   2.231
 5366TIP3   OH216038   3.069   6.702   1.119
 5366TIP3    H116039   3.031   6.710   1.207
 5366TIP3    H216040   3.027   6.624   1.082
 5367TIP3   OH216041   2.853   7.183   2.159
 5367TIP3    H116042   2.809   7.194   2.244
 5367TIP3    H216043   2.831   7.262   2.110
 5368TIP3   OH216044   2.740   7.068   1.675
 5368TIP3    H116045   2.650   7.044   1.699
 5368TIP3    H216046   2.749   7.039   1.584
 5369TIP3   OH216047   3.223   7.152   1.401
 5369TIP3    H116048   3.179   7.224   1.355
 5369TIP3    H216049   3.283   7.115   1.336
 5370TIP3   OH216050   3.421   7.414   2.486
 5370TIP3    H116051   3.391   7.345   2.546
 5370TIP3    H216052   3.514   7.424   2.506
 5371TIP3   OH216053   3.378   7.169   1.639
 5371TIP3    H116054   3.315   7.198   1.573
 5371TIP3    H216055   3.420   7.093   1.600
 5372TIP3   OH216056   2.676   7.196   2.375
 5372TIP3    H116057   2.712   7.258   2.438
 5372TIP3    H216058   2.664   7.116   2.424
 5373TIP3   OH216059   2.701   6.671   1.081
 5373TIP3    H116060   2.691   6.746   1.140
 5373TIP3    H216061   2.677   6.706   0.995
 5374TIP3   OH216062   2.223   6.702   1.510
 5374TIP3    H116063   2.270   6.737   1.435
 5374TIP3    H216064   2.154   6.766   1.528
 5375TIP3   OH216065   3.414   7.416   2.061
 5375TIP3    H116066   3.444   7.351   1.997
 5375TIP3    H216067   3.380   7.364   2.133
 5376TIP3   OH216068   3.097   6.872   1.735
 5376TIP3    H116069   3.021   6.870   1.792
 5376TIP3    H216070   3.172   6.860   1.793
 5377TIP3   OH216071   2.499   6.947   1.737
 5377TIP3    H116072   2.408   6.958   1.709
 5377TIP3    H216073   2.519   6.855   1.717
 5378TIP3   OH216074   2.755   6.962   1.421
 5378TIP3    H116075   2.850   6.969   1.413
 5378TIP3    H216076   2.723   6.970   1.331
 5379TIP3   OH216077   3.560   6.955   1.942
 5379TIP3    H116078   3.537   6.972   2.033
 5379TIP3    H216079   3.494   6.892   1.912
 5380TIP3   OH216080   2.637   6.953   1.169
 5380TIP3    H116081   2.550   6.936   1.133
 5380TIP3    H216082   2.684   6.997   1.098
 5381TIP3   OH216083   2.719   7.667   2.625
 5381TIP3    H116084   2.798   7.707   2.662
 5381TIP3    H216085   2.648   7.697   2.681
 5382TIP3   OH216086   3.153   7.227   1.840
 5382TIP3    H116087   3.221   7.181   1.791
 5382TIP3    H216088   3.154   7.186   1.926
 5383TIP3   OH216089   2.686   6.683   1.691
 5383TIP3    H116090   2.739   6.606   1.710
 5383TIP3    H216091   2.679   6.684   1.595
 5384TIP3   OH216092   3.125   7.135   2.110
 5384TIP3    H116093   3.037   7.164   2.133
 5384TIP3    H216094   3.183   7.187   2.166
 5385TIP3   OH216095   2.859   7.502   1.209
 5385TIP3    H116096   2.797   7.431   1.194
 5385TIP3    H216097   2.843   7.529   1.300
 5386TIP3   OH216098   3.748   7.740   1.828
 5386TIP3    H116099   3.784   7.788   1.754
 5386TIP3    H216100   3.666   7.702   1.795
 5387TIP3   OH216101   3.324   6.798   1.125
 5387TIP3    H116102   3.230   6.780   1.117
 5387TIP3    H216103   3.330   6.893   1.132
 5388TIP3   OH216104   3.276   7.778   2.234
 5388TIP3    H116105   3.297   7.756   2.325
 5388TIP3    H216106   3.284   7.873   2.230
 5389TIP3   OH216107   3.392   7.058   1.198
 5389TIP3    H116108   3.486   7.056   1.218
 5389TIP3    H216109   3.382   7.130   1.137
 5390TIP3   OH216110   2.550   7.466   1.872
 5390TIP3    H116111   2.589   7.453   1.786
 5390TIP3    H216112   2.616   7.434   1.934
 5391TIP3   OH216113   3.015   7.673   1.059
 5391TIP3    H116114   2.946   7.721   1.013
 5391TIP3    H216115   2.968   7.604   1.106
 5392TIP3   OH216116   2.459   7.419   2.533
 5392TIP3    H116117   2.508   7.423   2.615
 5392TIP3    H216118   2.394   7.350   2.547
 5393TIP3   OH216119   3.184   7.548   2.518
 5393TIP3    H116120   3.129   7.514   2.447
 5393TIP3    H216121   3.271   7.511   2.500
 5394TIP3   OH216122   3.390   8.031   2.169
 5394TIP3    H116123   3.390   8.108   2.112
 5394TIP3    H216124   3.452   8.052   2.239
 5395TIP3   OH216125   3.810   7.144   1.067
 5395TIP3    H116126   3.794   7.101   0.982
 5395TIP3    H216127   3.787   7.235   1.052
 5396TIP3   OH216128   4.036   7.975   2.105
 5396TIP3    H116129   3.944   7.980   2.081
 5396TIP3    H216130   4.082   7.963   2.021
 5397TIP3   OH216131   3.565   7.962   0.989
 5397TIP3    H116132   3.528   7.932   1.072
 5397TIP3    H216133   3.562   7.885   0.932
 5398TIP3   OH216134   3.515   7.607   1.726
 5398TIP3    H116135   3.426   7.584   1.752
 5398TIP3    H216136   3.553   7.524   1.695
 5399TIP3   OH216137   2.644   7.825   1.455
 5399TIP3    H116138   2.662   7.918   1.464
 5399TIP3    H216139   2.549   7.818   1.462
 5400TIP3   OH216140   2.238   7.127   1.248
 5400TIP3    H116141   2.277   7.213   1.262
 5400TIP3    H216142   2.159   7.128   1.303
 5401TIP3   OH216143   2.793   7.593   1.455
 5401TIP3    H116144   2.744   7.675   1.460
 5401TIP3    H216145   2.759   7.539   1.526
 5402TIP3   OH216146   3.328   7.793   1.963
 5402TIP3    H116147   3.305   7.782   2.055
 5402TIP3    H216148   3.416   7.754   1.956
 5403TIP3   OH216149   3.213   7.599   0.870
 5403TIP3    H116150   3.296   7.592   0.918
 5403TIP3    H216151   3.151   7.634   0.933
 5404TIP3   OH216152   2.644   6.950   2.510
 5404TIP3    H116153   2.549   6.956   2.518
 5404TIP3    H216154   2.671   6.896   2.585
 5405TIP3   OH216155   3.425   7.584   1.043
 5405TIP3    H116156   3.415   7.537   1.127
 5405TIP3    H216157   3.510   7.627   1.050
 5406TIP3   OH216158   2.737   7.640   0.897
 5406TIP3    H116159   2.707   7.560   0.854
 5406TIP3    H216160   2.668   7.661   0.960
 5407TIP3   OH216161   2.604   7.691   1.140
 5407TIP3    H116162   2.670   7.633   1.177
 5407TIP3    H216163   2.626   7.778   1.174
 5408TIP3   OH216164   2.327   7.386   1.320
 5408TIP3    H116165   2.256   7.427   1.369
 5408TIP3    H216166   2.342   7.446   1.246
 5409TIP3   OH216167   3.492   7.013   2.202
 5409TIP3    H116168   3.570   7.058   2.235
 5409TIP3    H216169   3.484   6.936   2.258
 5410TIP3   OH216170   3.376   6.756   1.394
 5410TIP3    H116171   3.358   6.775   1.302
 5410TIP3    H216172   3.417   6.836   1.427
 5411TIP3   OH216173   3.035   6.962   1.477
 5411TIP3    H116174   3.099   7.029   1.450
 5411TIP3    H216175   3.057   6.944   1.569
 5412TIP3   OH216176   3.334   7.248   2.263
 5412TIP3    H116177   3.364   7.289   2.344
 5412TIP3    H216178   3.383   7.166   2.258
 5413TIP3   OH216179   3.189   6.658   1.570
 5413TIP3    H116180   3.167   6.736   1.622
 5413TIP3    H216181   3.258   6.686   1.511
 5414TIP3   OH216182   2.701   6.685   1.410
 5414TIP3    H116183   2.699   6.781   1.411
 5414TIP3    H216184   2.792   6.664   1.387
 5415TIP3   OH216185   3.948   7.157   2.253
 5415TIP3    H116186   3.853   7.162   2.261
 5415TIP3    H216187   3.963   7.106   2.174
 5416TIP3   OH216188   3.610   7.353   1.645
 5416TIP3    H116189   3.533   7.297   1.657
 5416TIP3    H216190   3.677   7.311   1.699
 5417TIP3   OH216191   2.350   7.570   1.104
 5417TIP3    H116192   2.415   7.638   1.121
 5417TIP3    H216193   2.394   7.508   1.046
 5418TIP3   OH216194   2.276   6.850   1.282
 5418TIP3    H116195   2.273   6.945   1.276
 5418TIP3    H216196   2.258   6.819   1.193
 5419TIP3   OH216197   2.672   6.531   2.084
 5419TIP3    H116198   2.688   6.463   2.018
 5419TIP3    H216199   2.659   6.483   2.166
 5420TIP3   OH216200   6.273   0.127   2.385
 5420TIP3    H116201   6.314   0.120   2.471
 5420TIP3    H216202   6.302   0.212   2.351
 5421TIP3   OH216203   2.517   7.730   2.796
 5421TIP3    H116204   2.537   7.682   2.876
 5421TIP3    H216205   2.434   7.694   2.766
 5422TIP3   OH216206   2.506   7.390   0.974
 5422TIP3    H116207   2.557   7.356   1.048
 5422TIP3    H216208   2.567   7.387   0.900
 5423TIP3   OH216209   3.120   7.812   2.548
 5423TIP3    H116210   3.077   7.837   2.467
 5423TIP3    H216211   3.150   7.722   2.533
 5424TIP3   OH216212   2.947   7.554   0.753
 5424TIP3    H116213   2.892   7.614   0.803
 5424TIP3    H216214   2.895   7.474   0.745
 5425TIP3   OH216215   3.574   7.817   2.120
 5425TIP3    H116216   3.649   7.870   2.090
 5425TIP3    H216217   3.506   7.881   2.139
 5426TIP3   OH216218   2.631   7.429   2.756
 5426TIP3    H116219   2.697   7.473   2.702
 5426TIP3    H216220   2.634   7.475   2.840
 5427TIP3   OH216221   2.677   7.299   1.172
 5427TIP3    H116222   2.652   7.243   1.245
 5427TIP3    H216223   2.712   7.238   1.106
 5428TIP3   OH216224   2.937   7.355   2.404
 5428TIP3    H116225   2.862   7.414   2.408
 5428TIP3    H216226   2.996   7.395   2.340
 5429TIP3   OH216227   3.469   7.742   2.516
 5429TIP3    H116228   3.536   7.706   2.458
 5429TIP3    H216229   3.469   7.683   2.592
 5430TIP3   OH216230   3.444   7.498   0.713
 5430TIP3    H116231   3.454   7.403   0.701
 5430TIP3    H216232   3.501   7.537   0.647
 5431TIP3   OH216233   3.068   7.158   2.538
 5431TIP3    H116234   3.072   7.082   2.479
 5431TIP3    H216235   3.024   7.226   2.486
 5432TIP3   OH216236   3.070   6.956   2.337
 5432TIP3    H116237   3.098   6.995   2.253
 5432TIP3    H216238   2.979   6.930   2.322
 5433TIP3   OH216239   3.114   7.484   2.243
 5433TIP3    H116240   3.204   7.498   2.216
 5433TIP3    H216241   3.061   7.532   2.179
 5434TIP3   OH216242   3.685   7.439   2.590
 5434TIP3    H116243   3.722   7.351   2.600
 5434TIP3    H216244   3.759   7.493   2.563
 5435TIP3   OH216245   3.698   7.697   2.332
 5435TIP3    H116246   3.644   7.750   2.273
 5435TIP3    H216247   3.787   7.713   2.302
 5436TIP3   OH216248   2.949   7.250   2.778
 5436TIP3    H116249   2.878   7.187   2.795
 5436TIP3    H216250   2.979   7.229   2.689
 5437TIP3   OH216251   3.198   6.725   2.430
 5437TIP3    H116252   3.155   6.805   2.400
 5437TIP3    H216253   3.132   6.657   2.419
 5438TIP3   OH216254   3.324   7.206   2.636
 5438TIP3    H116255   3.314   7.194   2.730
 5438TIP3    H216256   3.238   7.185   2.600
 5439TIP3   OH216257   3.568   7.157   2.503
 5439TIP3    H116258   3.491   7.155   2.559
 5439TIP3    H216259   3.640   7.130   2.560
 5440TIP3   OH216260   3.803   7.119   2.651
 5440TIP3    H116261   3.817   7.025   2.659
 5440TIP3    H216262   3.799   7.150   2.742
 5441TIP3   OH216263   2.782   7.033   2.843
 5441TIP3    H116264   2.787   6.945   2.806
 5441TIP3    H216265   2.821   7.024   2.930
 5442TIP3   OH216266   3.270   6.713   2.696
 5442TIP3    H116267   3.339   6.647   2.691
 5442TIP3    H216268   3.238   6.720   2.606
 5443TIP3   OH216269   3.359   6.930   2.840
 5443TIP3    H116270   3.331   6.857   2.785
 5443TIP3    H216271   3.285   6.990   2.840
 5444TIP3   OH216272   2.077   7.517   1.144
 5444TIP3    H116273   2.163   7.547   1.115
 5444TIP3    H216274   2.057   7.443   1.088
 5445TIP3   OH216275   6.837   0.136   2.354
 5445TIP3    H116276   6.760   0.172   2.397
 5445TIP3    H216277   6.891   0.104   2.426
 5446TIP3   OH216278   3.705   7.633   1.061
 5446TIP3    H116279   3.775   7.690   1.029
 5446TIP3    H216280   3.739   7.595   1.142
 5447TIP3   OH216281   3.857   7.499   1.243
 5447TIP3    H116282   3.808   7.442   1.302
 5447TIP3    H216283   3.935   7.525   1.293
 5448TIP3   OH216284   3.939   7.876   1.676
 5448TIP3    H116285   3.984   7.803   1.633
 5448TIP3    H216286   3.955   7.951   1.620
 5449TIP3   OH216287   3.748   7.381   0.962
 5449TIP3    H116288   3.693   7.384   0.883
 5449TIP3    H216289   3.732   7.465   1.005
 5450TIP3   OH216290   3.518   7.062   0.854
 5450TIP3    H116291   3.609   7.088   0.841
 5450TIP3    H216292   3.523   6.973   0.887
 5451TIP3   OH216293   3.687   7.330   1.383
 5451TIP3    H116294   3.687   7.235   1.371
 5451TIP3    H216295   3.668   7.343   1.475
 5452TIP3   OH216296   2.295   7.427   2.125
 5452TIP3    H116297   2.288   7.386   2.039
 5452TIP3    H216298   2.387   7.414   2.150
 5453TIP3   OH216299   3.949   7.744   2.231
 5453TIP3    H116300   4.012   7.676   2.206
 5453TIP3    H216301   3.978   7.822   2.184
 5454TIP3   OH216302   4.137   7.547   2.224
 5454TIP3    H116303   4.066   7.502   2.271
 5454TIP3    H216304   4.215   7.495   2.243
 5455TIP3   OH216305   3.582   6.797   0.890
 5455TIP3    H116306   3.671   6.793   0.925
 5455TIP3    H216307   3.559   6.706   0.873
 5456TIP3   OH216308   3.667   7.051   1.281
 5456TIP3    H116309   3.711   6.967   1.294
 5456TIP3    H216310   3.713   7.090   1.207
 5457TIP3   OH216311   3.826   7.229   1.776
 5457TIP3    H116312   3.907   7.247   1.728
 5457TIP3    H216313   3.840   7.268   1.863
 5458TIP3   OH216314   3.900   7.380   2.003
 5458TIP3    H116315   3.825   7.408   2.055
 5458TIP3    H216316   3.933   7.460   1.962
 5459TIP3   OH216317   2.517   7.081   2.779
 5459TIP3    H116318   2.612   7.082   2.795
 5459TIP3    H216319   2.487   7.000   2.820
 5460TIP3   OH216320   4.353   6.984   2.542
 5460TIP3    H116321   4.419   6.923   2.508
 5460TIP3    H216322   4.322   7.031   2.465
 5461TIP3   OH216323   3.783   6.805   1.320
 5461TIP3    H116324   3.824   6.788   1.405
 5461TIP3    H216325   3.721   6.733   1.309
 5462TIP3   OH216326   2.487   6.748   2.092
 5462TIP3    H116327   2.553   6.678   2.093
 5462TIP3    H216328   2.537   6.829   2.088
 5463TIP3   OH216329   2.276   7.047   2.196
 5463TIP3    H116330   2.329   7.054   2.116
 5463TIP3    H216331   2.301   7.124   2.248
 5464TIP3   OH216332   4.213   7.100   2.341
 5464TIP3    H116333   4.131   7.140   2.371
 5464TIP3    H216334   4.185   7.025   2.289
 5465TIP3   OH216335   3.842   6.758   0.974
 5465TIP3    H116336   3.884   6.694   0.916
 5465TIP3    H216337   3.907   6.826   0.986
 5466TIP3   OH216338   2.255   6.550   1.768
 5466TIP3    H116339   2.161   6.560   1.786
 5466TIP3    H216340   2.270   6.603   1.689
 5467TIP3   OH216341   2.486   6.655   2.524
 5467TIP3    H116342   2.433   6.637   2.602
 5467TIP3    H216343   2.424   6.691   2.461
 5468TIP3   OH216344   2.510   7.929   2.591
 5468TIP3    H116345   2.505   7.874   2.670
 5468TIP3    H216346   2.538   8.014   2.623
 5469TIP3   OH216347   4.123   6.853   2.235
 5469TIP3    H116348   4.035   6.846   2.199
 5469TIP3    H216349   4.158   6.764   2.232
 5470TIP3   OH216350   3.325   6.775   1.867
 5470TIP3    H116351   3.288   6.702   1.917
 5470TIP3    H216352   3.396   6.735   1.816
 5471TIP3   OH216353   3.833   6.683   1.769
 5471TIP3    H116354   3.871   6.732   1.696
 5471TIP3    H216355   3.740   6.705   1.767
 5472TIP3   OH216356   3.947   6.763   1.536
 5472TIP3    H116357   4.018   6.707   1.503
 5472TIP3    H216358   3.980   6.852   1.523
 5473TIP3   OH216359   2.390   6.398   1.529
 5473TIP3    H116360   2.435   6.433   1.452
 5473TIP3    H216361   2.299   6.426   1.519
 5474TIP3   OH216362   3.029   6.524   1.765
 5474TIP3    H116363   3.080   6.565   1.695
 5474TIP3    H216364   3.075   6.546   1.845
 5475TIP3   OH216365   3.546   6.663   1.742
 5475TIP3    H116366   3.558   6.629   1.654
 5475TIP3    H216367   3.548   6.586   1.799
 5476TIP3   OH216368   3.596   6.601   1.314
 5476TIP3    H116369   3.514   6.648   1.333
 5476TIP3    H216370   3.585   6.516   1.356
 5477TIP3   OH216371   2.503   6.511   1.294
 5477TIP3    H116372   2.549   6.457   1.229
 5477TIP3    H216373   2.570   6.571   1.326
 5478TIP3   OH216374   2.980   6.711   1.382
 5478TIP3    H116375   3.039   6.657   1.435
 5478TIP3    H216376   2.998   6.801   1.408
 5479TIP3   OH216377   2.793   6.761   2.757
 5479TIP3    H116378   2.757   6.693   2.814
 5479TIP3    H216379   2.885   6.767   2.782
 5480TIP3   OH216380   3.043   6.764   2.877
 5480TIP3    H116381   3.122   6.741   2.829
 5480TIP3    H216382   3.034   6.695   2.943
 5481TIP3   OH216383   3.866   6.849   2.667
 5481TIP3    H116384   3.882   6.819   2.756
 5481TIP3    H216385   3.952   6.843   2.624
 5482TIP3   OH216386   4.939   7.777   1.027
 5482TIP3    H116387   4.988   7.859   1.032
 5482TIP3    H216388   5.003   7.713   0.998
 5483TIP3   OH216389   4.949   7.737   1.383
 5483TIP3    H116390   5.016   7.727   1.452
 5483TIP3    H216391   4.918   7.648   1.367
 5484TIP3   OH216392   4.363   7.644   1.685
 5484TIP3    H116393   4.385   7.571   1.743
 5484TIP3    H216394   4.434   7.708   1.699
 5485TIP3   OH216395   5.347   8.134   0.922
 5485TIP3    H116396   5.352   8.056   0.867
 5485TIP3    H216397   5.372   8.103   1.009
 5486TIP3   OH216398   4.320   8.026   1.470
 5486TIP3    H116399   4.302   7.934   1.454
 5486TIP3    H216400   4.400   8.044   1.420
 5487TIP3   OH216401   4.037   7.253   1.186
 5487TIP3    H116402   4.027   7.346   1.165
 5487TIP3    H216403   3.952   7.215   1.169
 5488TIP3   OH216404   4.103   7.561   1.366
 5488TIP3    H116405   4.152   7.484   1.392
 5488TIP3    H216406   4.168   7.630   1.356
 5489TIP3   OH216407   4.872   7.998   1.368
 5489TIP3    H116408   4.880   7.902   1.362
 5489TIP3    H216409   4.960   8.028   1.390
 5490TIP3   OH216410   5.864   7.343   1.426
 5490TIP3    H116411   5.885   7.417   1.483
 5490TIP3    H216412   5.922   7.354   1.351
 5491TIP3   OH216413   5.321   7.504   1.439
 5491TIP3    H116414   5.346   7.415   1.463
 5491TIP3    H216415   5.259   7.494   1.367
 5492TIP3   OH216416   4.596   7.151   1.355
 5492TIP3    H116417   4.574   7.226   1.300
 5492TIP3    H216418   4.541   7.080   1.322
 5493TIP3   OH216419   5.370   7.106   1.022
 5493TIP3    H116420   5.427   7.154   1.082
 5493TIP3    H216421   5.356   7.165   0.949
 5494TIP3   OH216422   4.242   7.347   1.469
 5494TIP3    H116423   4.325   7.332   1.514
 5494TIP3    H216424   4.244   7.288   1.394
 5495TIP3   OH216425   4.709   7.554   1.287
 5495TIP3    H116426   4.789   7.516   1.322
 5495TIP3    H216427   4.666   7.481   1.241
 5496TIP3   OH216428   5.964   7.563   1.556
 5496TIP3    H116429   5.878   7.604   1.565
 5496TIP3    H216430   6.014   7.597   1.630
 5497TIP3   OH216431   4.609   7.131   1.793
 5497TIP3    H116432   4.557   7.172   1.723
 5497TIP3    H216433   4.557   7.145   1.872
 5498TIP3   OH216434   4.983   7.994   0.742
 5498TIP3    H116435   4.900   7.971   0.700
 5498TIP3    H216436   4.960   8.062   0.805
 5499TIP3   OH216437   4.723   7.919   1.594
 5499TIP3    H116438   4.655   7.978   1.628
 5499TIP3    H216439   4.768   7.970   1.527
 5500TIP3   OH216440   5.507   7.189   1.255
 5500TIP3    H116441   5.441   7.192   1.325
 5500TIP3    H216442   5.554   7.272   1.263
 5501TIP3   OH216443   4.482   7.252   1.579
 5501TIP3    H116444   4.537   7.327   1.601
 5501TIP3    H216445   4.527   7.211   1.505
 5502TIP3   OH216446   4.514   8.091   1.678
 5502TIP3    H116447   4.457   8.080   1.602
 5502TIP3    H216448   4.455   8.109   1.751
 5503TIP3   OH216449   3.886   7.787   0.937
 5503TIP3    H116450   3.869   7.813   0.846
 5503TIP3    H216451   3.878   7.869   0.986
 5504TIP3   OH216452   8.222   0.244   1.243
 5504TIP3    H116453   8.166   0.230   1.319
 5504TIP3    H216454   8.162   0.251   1.169
 5505TIP3   OH216455   5.665   7.171   1.520
 5505TIP3    H116456   5.579   7.211   1.513
 5505TIP3    H216457   5.727   7.242   1.502
 5506TIP3   OH216458   4.955   6.833   1.523
 5506TIP3    H116459   4.913   6.798   1.444
 5506TIP3    H216460   4.883   6.873   1.572
 5507TIP3   OH216461   8.450   0.104   1.576
 5507TIP3    H116462   8.450   0.054   1.494
 5507TIP3    H216463   8.455   0.195   1.547
 5508TIP3   OH216464   4.809   7.593   0.714
 5508TIP3    H116465   4.746   7.665   0.715
 5508TIP3    H216466   4.863   7.609   0.636
 5509TIP3   OH216467   5.815   7.856   1.413
 5509TIP3    H116468   5.766   7.814   1.484
 5509TIP3    H216469   5.767   7.831   1.333
 5510TIP3   OH216470   5.216   7.531   0.720
 5510TIP3    H116471   5.174   7.610   0.755
 5510TIP3    H216472   5.303   7.531   0.760
 5511TIP3   OH216473   4.489   7.699   1.221
 5511TIP3    H116474   4.449   7.641   1.157
 5511TIP3    H216475   4.561   7.648   1.259
 5512TIP3   OH216476   4.574   8.053   1.368
 5512TIP3    H116477   4.618   7.993   1.308
 5512TIP3    H216478   4.642   8.117   1.391
 5513TIP3   OH216479   4.612   7.681   1.517
 5513TIP3    H116480   4.653   7.657   1.435
 5513TIP3    H216481   4.653   7.765   1.540
 5514TIP3   OH216482   7.987   0.187   1.384
 5514TIP3    H116483   7.894   0.201   1.370
 5514TIP3    H216484   7.994   0.095   1.410
 5515TIP3   OH216485   7.588   0.062   1.851
 5515TIP3    H116486   7.559   0.151   1.871
 5515TIP3    H216487   7.526   0.031   1.784
 5516TIP3   OH216488   4.501   7.756   1.937
 5516TIP3    H116489   4.514   7.841   1.979
 5516TIP3    H216490   4.408   7.737   1.949
 5517TIP3   OH216491   5.552   6.844   0.475
 5517TIP3    H116492   5.551   6.755   0.511
 5517TIP3    H216493   5.472   6.849   0.423
 5518TIP3   OH216494   4.368   7.595   1.003
 5518TIP3    H116495   4.334   7.664   0.946
 5518TIP3    H216496   4.291   7.559   1.045
 5519TIP3   OH216497   4.147   7.926   1.861
 5519TIP3    H116498   4.079   7.912   1.795
 5519TIP3    H216499   4.180   7.839   1.881
 5520TIP3   OH216500   6.901  -0.021   1.530
 5520TIP3    H116501   6.994  -0.026   1.507
 5520TIP3    H216502   6.870   0.058   1.486
 5521TIP3   OH216503   8.534   0.372   1.611
 5521TIP3    H116504   8.621   0.385   1.571
 5521TIP3    H216505   8.553   0.345   1.701
 5522TIP3   OH216506   4.347   8.118   1.897
 5522TIP3    H116507   4.401   8.066   1.956
 5522TIP3    H216508   4.272   8.061   1.877
 5523TIP3   OH216509   4.716   6.924   1.640
 5523TIP3    H116510   4.631   6.891   1.612
 5523TIP3    H216511   4.695   7.004   1.690
 5524TIP3   OH216512   5.271   6.968   1.821
 5524TIP3    H116513   5.337   6.975   1.890
 5524TIP3    H216514   5.188   6.984   1.866
 5525TIP3   OH216515   5.489   7.456   1.741
 5525TIP3    H116516   5.455   7.478   1.828
 5525TIP3    H216517   5.529   7.536   1.709
 5526TIP3   OH216518   4.828   7.022   0.549
 5526TIP3    H116519   4.745   7.041   0.592
 5526TIP3    H216520   4.806   6.957   0.482
 5527TIP3   OH216521   4.652   7.453   1.657
 5527TIP3    H116522   4.604   7.463   1.739
 5527TIP3    H216523   4.636   7.534   1.610
 5528TIP3   OH216524   4.460   7.395   1.218
 5528TIP3    H116525   4.398   7.323   1.228
 5528TIP3    H216526   4.532   7.356   1.168
 5529TIP3   OH216527   4.990   7.492   0.927
 5529TIP3    H116528   4.987   7.571   0.874
 5529TIP3    H216529   5.010   7.422   0.865
 5530TIP3   OH216530   5.209   7.682   1.983
 5530TIP3    H116531   5.181   7.611   2.041
 5530TIP3    H216532   5.303   7.690   1.997
 5531TIP3   OH216533   5.158   7.483   1.222
 5531TIP3    H116534   5.137   7.553   1.160
 5531TIP3    H216535   5.216   7.424   1.173
 5532TIP3   OH216536   4.477   7.460   1.868
 5532TIP3    H116537   4.500   7.523   1.935
 5532TIP3    H216538   4.463   7.378   1.916
 5533TIP3   OH216539   4.423   6.984   0.551
 5533TIP3    H116540   4.478   6.927   0.607
 5533TIP3    H216541   4.372   7.036   0.613
 5534TIP3   OH216542   4.067   6.993   1.461
 5534TIP3    H116543   4.145   7.023   1.508
 5534TIP3    H216544   4.102   6.953   1.381
 5535TIP3   OH216545   4.020   6.967   1.018
 5535TIP3    H116546   4.062   7.007   0.942
 5535TIP3    H216547   3.961   7.034   1.052
 5536TIP3   OH216548   5.141   7.678   1.564
 5536TIP3    H116549   5.224   7.652   1.524
 5536TIP3    H216550   5.134   7.621   1.641
 5537TIP3   OH216551   4.858   7.079   1.308
 5537TIP3    H116552   4.773   7.113   1.335
 5537TIP3    H216553   4.920   7.119   1.369
 5538TIP3   OH216554   4.292   7.188   1.249
 5538TIP3    H116555   4.202   7.192   1.218
 5538TIP3    H216556   4.315   7.095   1.242
 5539TIP3   OH216557   4.583   7.113   1.001
 5539TIP3    H116558   4.644   7.182   1.027
 5539TIP3    H216559   4.505   7.161   0.972
 5540TIP3   OH216560   5.340   7.222   1.471
 5540TIP3    H116561   5.319   7.246   1.561
 5540TIP3    H216562   5.274   7.156   1.448
 5541TIP3   OH216563   4.419   7.277   0.661
 5541TIP3    H116564   4.436   7.206   0.723
 5541TIP3    H216565   4.482   7.263   0.591
 5542TIP3   OH216566   4.502   7.991   2.085
 5542TIP3    H116567   4.578   8.029   2.129
 5542TIP3    H216568   4.431   8.000   2.149
 5543TIP3   OH216569   4.938   7.449   1.376
 5543TIP3    H116570   5.030   7.461   1.352
 5543TIP3    H216571   4.941   7.415   1.466
 5544TIP3   OH216572   4.434   6.951   1.256
 5544TIP3    H116573   4.403   6.874   1.304
 5544TIP3    H216574   4.462   6.916   1.172
 5545TIP3   OH216575   4.919   7.382   1.638
 5545TIP3    H116576   4.833   7.421   1.654
 5545TIP3    H216577   4.979   7.436   1.689
 5546TIP3   OH216578   4.603   7.770   0.706
 5546TIP3    H116579   4.570   7.686   0.672
 5546TIP3    H216580   4.576   7.770   0.798
 5547TIP3   OH216581   5.572   8.055   1.352
 5547TIP3    H116582   5.613   8.033   1.269
 5547TIP3    H216583   5.522   7.977   1.375
 5548TIP3   OH216584   5.226   7.142   0.490
 5548TIP3    H116585   5.233   7.050   0.465
 5548TIP3    H216586   5.136   7.166   0.468
 5549TIP3   OH216587   5.035   8.059   1.714
 5549TIP3    H116588   5.049   8.028   1.804
 5549TIP3    H216589   5.073   8.147   1.714
 5550TIP3   OH216590   5.336   7.384   0.521
 5550TIP3    H116591   5.316   7.291   0.514
 5550TIP3    H216592   5.304   7.409   0.608
 5551TIP3   OH216593   4.312   7.746   1.421
 5551TIP3    H116594   4.376   7.738   1.351
 5551TIP3    H216595   4.354   7.707   1.498
 5552TIP3   OH216596   4.236   7.694   1.994
 5552TIP3    H116597   4.247   7.675   2.087
 5552TIP3    H216598   4.158   7.644   1.969
 5553TIP3   OH216599   4.972   7.823   2.009
 5553TIP3    H116600   4.906   7.767   1.967
 5553TIP3    H216601   5.056   7.783   1.986
 5554TIP3   OH216602   8.045   0.186   1.669
 5554TIP3    H116603   8.028   0.235   1.589
 5554TIP3    H216604   8.086   0.249   1.728
 5555TIP3   OH216605   0.115   0.088   1.651
 5555TIP3    H116606   0.021   0.103   1.660
 5555TIP3    H216607   0.127   0.064   1.560
 5556TIP3   OH216608   5.399   7.841   1.356
 5556TIP3    H116609   5.307   7.825   1.337
 5556TIP3    H216610   5.443   7.758   1.337
 5557TIP3   OH216611   7.295   0.046   1.046
 5557TIP3    H116612   7.335   0.064   0.961
 5557TIP3    H216613   7.208   0.011   1.024
 5558TIP3   OH216614   3.970   7.346   0.786
 5558TIP3    H116615   4.027   7.375   0.857
 5558TIP3    H216616   3.881   7.362   0.818
 5559TIP3   OH216617   4.465   7.870   1.003
 5559TIP3    H116618   4.449   7.939   1.067
 5559TIP3    H216619   4.482   7.792   1.057
 5560TIP3   OH216620   5.133   8.031   1.464
 5560TIP3    H116621   5.084   8.028   1.546
 5560TIP3    H216622   5.224   8.017   1.489
 5561TIP3   OH216623   4.439   7.209   2.000
 5561TIP3    H116624   4.344   7.217   2.006
 5561TIP3    H216625   4.465   7.162   2.079
 5562TIP3   OH216626   4.363   7.944   0.573
 5562TIP3    H116627   4.347   7.851   0.590
 5562TIP3    H216628   4.425   7.971   0.641
 5563TIP3   OH216629   4.139   7.701   0.888
 5563TIP3    H116630   4.052   7.719   0.924
 5563TIP3    H216631   4.153   7.772   0.824
 5564TIP3   OH216632   5.281   7.273   1.731
 5564TIP3    H116633   5.361   7.319   1.754
 5564TIP3    H216634   5.291   7.186   1.770
 5565TIP3   OH216635   5.071   7.050   0.877
 5565TIP3    H116636   5.065   6.996   0.799
 5565TIP3    H216637   5.161   7.083   0.877
 5566TIP3   OH216638   4.837   7.199   0.893
 5566TIP3    H116639   4.905   7.177   0.829
 5566TIP3    H216640   4.885   7.214   0.974
 5567TIP3   OH216641   5.125   7.504   1.774
 5567TIP3    H116642   5.163   7.555   1.846
 5567TIP3    H216643   5.181   7.426   1.768
 5568TIP3   OH216644   4.972   6.904   1.130
 5568TIP3    H116645   4.957   6.981   1.186
 5568TIP3    H216646   5.058   6.920   1.091
 5569TIP3   OH216647   4.519   6.854   1.018
 5569TIP3    H116648   4.540   6.946   1.001
 5569TIP3    H216649   4.597   6.806   0.990
 5570TIP3   OH216650   5.751   7.379   1.720
 5570TIP3    H116651   5.658   7.372   1.738
 5570TIP3    H216652   5.765   7.471   1.699
 5571TIP3   OH216653   5.449   7.617   1.193
 5571TIP3    H116654   5.360   7.584   1.184
 5571TIP3    H216655   5.497   7.545   1.235
 5572TIP3   OH216656   4.121   7.899   0.692
 5572TIP3    H116657   4.202   7.946   0.668
 5572TIP3    H216658   4.114   7.829   0.627
 5573TIP3   OH216659   4.092   7.105   0.797
 5573TIP3    H116660   4.043   7.187   0.799
 5573TIP3    H216661   4.047   7.051   0.733
 5574TIP3   OH216662   4.458   6.833   1.606
 5574TIP3    H116663   4.424   6.798   1.524
 5574TIP3    H216664   4.451   6.760   1.668
 5575TIP3   OH216665   8.180   0.346   1.841
 5575TIP3    H116666   8.160   0.299   1.921
 5575TIP3    H216667   8.269   0.379   1.854
 5576TIP3   OH216668   4.277   7.997   2.248
 5576TIP3    H116669   4.291   7.906   2.273
 5576TIP3    H216670   4.190   7.998   2.209
 5577TIP3   OH216671   4.898   8.093   2.044
 5577TIP3    H116672   4.847   8.112   1.965
 5577TIP3    H216673   4.934   8.005   2.029
 5578TIP3   OH216674   8.217  -0.027   1.623
 5578TIP3    H116675   8.306   0.009   1.623
 5578TIP3    H216676   8.162   0.046   1.652
 5579TIP3   OH216677   4.408   7.734   2.254
 5579TIP3    H116678   4.489   7.721   2.205
 5579TIP3    H216679   4.436   7.768   2.339
 5580TIP3   OH216680   4.522   7.530   0.617
 5580TIP3    H116681   4.547   7.474   0.690
 5580TIP3    H216682   4.482   7.471   0.554
 5581TIP3   OH216683   4.747   7.630   1.904
 5581TIP3    H116684   4.667   7.682   1.909
 5581TIP3    H216685   4.792   7.663   1.826
 5582TIP3   OH216686   5.247   8.029   2.033
 5582TIP3    H116687   5.290   7.978   1.964
 5582TIP3    H216688   5.246   7.970   2.109
 5583TIP3   OH216689   4.864   7.418   2.030
 5583TIP3    H116690   4.867   7.342   1.972
 5583TIP3    H216691   4.826   7.487   1.976
 5584TIP3   OH216692   4.869   7.203   1.843
 5584TIP3    H116693   4.899   7.248   1.764
 5584TIP3    H216694   4.778   7.181   1.825
 5585TIP3   OH216695   4.895   7.738   1.706
 5585TIP3    H116696   4.982   7.747   1.668
 5585TIP3    H216697   4.845   7.811   1.670
 5586TIP3   OH216698   5.475   7.701   2.084
 5586TIP3    H116699   5.504   7.610   2.083
 5586TIP3    H216700   5.553   7.751   2.063
 5587TIP3   OH216701   4.741   7.513   2.264
 5587TIP3    H116702   4.675   7.447   2.285
 5587TIP3    H216703   4.774   7.488   2.178
 5588TIP3   OH216704   4.999   6.969   1.913
 5588TIP3    H116705   4.959   7.053   1.890
 5588TIP3    H216706   4.928   6.906   1.900
 5589TIP3   OH216707   5.124   7.462   2.123
 5589TIP3    H116708   5.114   7.450   2.217
 5589TIP3    H216709   5.038   7.442   2.087
 5590TIP3   OH216710   5.373   7.428   1.991
 5590TIP3    H116711   5.294   7.422   2.045
 5590TIP3    H216712   5.443   7.396   2.047
 5591TIP3   OH216713   5.603   7.380   2.141
 5591TIP3    H116714   5.617   7.286   2.150
 5591TIP3    H216715   5.596   7.411   2.231
 5592TIP3   OH216716   4.582   7.288   2.326
 5592TIP3    H116717   4.589   7.199   2.292
 5592TIP3    H216718   4.619   7.282   2.415
 5593TIP3   OH216719   5.070   6.968   2.179
 5593TIP3    H116720   5.142   6.905   2.175
 5593TIP3    H216721   5.038   6.974   2.089
 5594TIP3   OH216722   5.153   7.188   2.324
 5594TIP3    H116723   5.125   7.115   2.269
 5594TIP3    H216724   5.079   7.249   2.325
 5595TIP3   OH216725   3.831   7.808   0.660
 5595TIP3    H116726   3.792   7.876   0.604
 5595TIP3    H216727   3.778   7.730   0.644
 5596TIP3   OH216728   8.599   0.284   1.875
 5596TIP3    H116729   8.531   0.279   1.942
 5596TIP3    H216730   8.667   0.339   1.914
 5597TIP3   OH216731   5.691   8.075   1.096
 5597TIP3    H116732   5.767   8.017   1.105
 5597TIP3    H216733   5.707   8.123   1.015
 5598TIP3   OH216734   5.440   7.701   0.873
 5598TIP3    H116735   5.507   7.632   0.871
 5598TIP3    H216736   5.475   7.766   0.934
 5599TIP3   OH216737   4.093   7.648   1.629
 5599TIP3    H116738   4.081   7.621   1.538
 5599TIP3    H216739   4.188   7.655   1.639
 5600TIP3   OH216740   5.918   7.840   1.800
 5600TIP3    H116741   5.841   7.803   1.758
 5600TIP3    H216742   5.984   7.770   1.797
 5601TIP3   OH216743   5.461   7.443   0.786
 5601TIP3    H116744   5.426   7.361   0.821
 5601TIP3    H216745   5.541   7.417   0.741
 5602TIP3   OH216746   5.620   7.443   1.310
 5602TIP3    H116747   5.709   7.456   1.279
 5602TIP3    H216748   5.620   7.478   1.399
 5603TIP3   OH216749   4.318   7.345   2.269
 5603TIP3    H116750   4.412   7.343   2.286
 5603TIP3    H216751   4.285   7.263   2.307
 5604TIP3   OH216752   6.154   7.240   2.033
 5604TIP3    H116753   6.216   7.178   1.994
 5604TIP3    H216754   6.120   7.289   1.958
 5605TIP3   OH216755   5.550   7.099   0.755
 5605TIP3    H116756   5.611   7.047   0.808
 5605TIP3    H216757   5.472   7.044   0.749
 5606TIP3   OH216758   4.286   7.053   1.618
 5606TIP3    H116759   4.345   6.978   1.624
 5606TIP3    H216760   4.344   7.129   1.613
 5607TIP3   OH216761   4.069   7.321   1.686
 5607TIP3    H116762   4.118   7.314   1.604
 5607TIP3    H216763   4.088   7.409   1.718
 5608TIP3   OH216764   6.007   7.373   1.844
 5608TIP3    H116765   5.937   7.412   1.897
 5608TIP3    H216766   5.962   7.311   1.787
 5609TIP3   OH216767   4.057   6.815   1.236
 5609TIP3    H116768   3.966   6.804   1.261
 5609TIP3    H216769   4.054   6.872   1.158
 5610TIP3   OH216770   4.280   6.881   1.997
 5610TIP3    H116771   4.234   6.880   2.081
 5610TIP3    H216772   4.224   6.933   1.939
 5611TIP3   OH216773   7.265   0.190   2.121
 5611TIP3    H116774   7.254   0.146   2.037
 5611TIP3    H216775   7.179   0.228   2.140
 5612TIP3   OH216776   5.911   7.113   1.744
 5612TIP3    H116777   5.821   7.114   1.712
 5612TIP3    H216778   5.940   7.023   1.729
 5613TIP3   OH216779   5.124   7.048   1.448
 5613TIP3    H116780   5.078   6.967   1.469
 5613TIP3    H216781   5.148   7.039   1.356
 5614TIP3   OH216782   5.632   6.934   1.287
 5614TIP3    H116783   5.720   6.971   1.278
 5614TIP3    H216784   5.574   7.010   1.292
 5615TIP3   OH216785   5.725   7.043   0.962
 5615TIP3    H116786   5.759   6.953   0.956
 5615TIP3    H216787   5.787   7.088   1.018
 5616TIP3   OH216788   4.360   6.720   1.376
 5616TIP3    H116789   4.269   6.689   1.384
 5616TIP3    H216790   4.412   6.640   1.366
 5617TIP3   OH216791   4.152   6.612   1.074
 5617TIP3    H116792   4.160   6.668   0.996
 5617TIP3    H216793   4.126   6.672   1.144
 5618TIP3   OH216794   4.798   6.785   1.298
 5618TIP3    H116795   4.860   6.812   1.230
 5618TIP3    H216796   4.748   6.864   1.319
 5619TIP3   OH216797   5.346   6.901   1.301
 5619TIP3    H116798   5.427   6.882   1.253
 5619TIP3    H216799   5.326   6.820   1.347
 5620TIP3   OH216800   5.425   6.745   0.810
 5620TIP3    H116801   5.388   6.821   0.767
 5620TIP3    H216802   5.464   6.779   0.891
 5621TIP3   OH216803   4.313   6.781   0.860
 5621TIP3    H116804   4.355   6.726   0.794
 5621TIP3    H216805   4.381   6.798   0.925
 5622TIP3   OH216806   4.788   6.918   0.933
 5622TIP3    H116807   4.863   6.932   0.990
 5622TIP3    H216808   4.743   7.002   0.930
 5623TIP3   OH216809   4.589   7.013   2.241
 5623TIP3    H116810   4.552   6.948   2.300
 5623TIP3    H216811   4.681   7.020   2.266
 5624TIP3   OH216812   4.837   7.019   2.363
 5624TIP3    H116813   4.919   6.996   2.319
 5624TIP3    H216814   4.828   6.952   2.431
 5625TIP3   OH216815   5.662   7.108   2.156
 5625TIP3    H116816   5.677   7.078   2.246
 5625TIP3    H216817   5.748   7.104   2.114
 5626TIP3   OH216818   6.194   7.974   1.142
 5626TIP3    H116819   6.217   7.885   1.117
 5626TIP3    H216820   6.277   8.020   1.147
 5627TIP3   OH216821   5.966   7.561   0.926
 5627TIP3    H116822   6.047   7.595   0.964
 5627TIP3    H216823   5.975   7.576   0.832
 5628TIP3   OH216824   6.434   7.466   1.401
 5628TIP3    H116825   6.394   7.415   1.330
 5628TIP3    H216826   6.371   7.460   1.473
 5629TIP3   OH216827   6.270   7.497   1.145
 5629TIP3    H116828   6.271   7.593   1.149
 5629TIP3    H216829   6.357   7.474   1.114
 5630TIP3   OH216830   6.794   7.202   0.965
 5630TIP3    H116831   6.837   7.122   0.935
 5630TIP3    H216832   6.704   7.176   0.981
 5631TIP3   OH216833   6.294   8.036   1.483
 5631TIP3    H116834   6.317   8.093   1.557
 5631TIP3    H216835   6.217   7.988   1.513
 5632TIP3   OH216836   5.861   8.129   1.387
 5632TIP3    H116837   5.953   8.133   1.360
 5632TIP3    H216838   5.841   8.035   1.391
 5633TIP3   OH216839  -0.016   0.307   1.023
 5633TIP3    H116840   0.070   0.348   1.022
 5633TIP3    H216841  -0.052   0.325   0.936
 5634TIP3   OH216842   0.391   0.280   1.467
 5634TIP3    H116843   0.392   0.194   1.426
 5634TIP3    H216844   0.298   0.306   1.467
 5635TIP3   OH216845   6.537   7.141   1.033
 5635TIP3    H116846   6.487   7.202   0.979
 5635TIP3    H216847   6.542   7.184   1.119
 5636TIP3   OH216848   7.108   7.248   1.333
 5636TIP3    H116849   7.174   7.231   1.400
 5636TIP3    H216850   7.025   7.243   1.379
 5637TIP3   OH216851   6.404   7.745   1.153
 5637TIP3    H116852   6.375   7.769   1.241
 5637TIP3    H216853   6.430   7.828   1.113
 5638TIP3   OH216854   6.269   7.721   1.402
 5638TIP3    H116855   6.284   7.765   1.486
 5638TIP3    H216856   6.289   7.629   1.419
 5639TIP3   OH216857   5.868   7.325   0.831
 5639TIP3    H116858   5.922   7.401   0.853
 5639TIP3    H216859   5.929   7.251   0.833
 5640TIP3   OH216860   0.616   0.154   1.638
 5640TIP3    H116861   0.631   0.248   1.632
 5640TIP3    H216862   0.529   0.146   1.678
 5641TIP3   OH216863   6.731   7.648   1.002
 5641TIP3    H116864   6.676   7.573   1.021
 5641TIP3    H216865   6.810   7.634   1.053
 5642TIP3   OH216866   6.052   7.923   1.544
 5642TIP3    H116867   6.045   7.915   1.639
 5642TIP3    H216868   5.965   7.897   1.512
 5643TIP3   OH216869   6.218   7.460   1.556
 5643TIP3    H116870   6.126   7.480   1.538
 5643TIP3    H216871   6.215   7.385   1.615
 5644TIP3   OH216872   6.247   7.091   1.064
 5644TIP3    H116873   6.258   7.052   0.977
 5644TIP3    H216874   6.218   7.019   1.119
 5645TIP3   OH216875   0.365   0.116   1.753
 5645TIP3    H116876   0.389   0.024   1.761
 5645TIP3    H216877   0.276   0.114   1.717
 5646TIP3   OH216878   6.244   7.976   1.764
 5646TIP3    H116879   6.321   7.922   1.747
 5646TIP3    H216880   6.263   8.020   1.846
 5647TIP3   OH216881   6.496   7.940   1.330
 5647TIP3    H116882   6.423   7.972   1.383
 5647TIP3    H216883   6.572   7.946   1.388
 5648TIP3   OH216884   6.637   7.675   1.566
 5648TIP3    H116885   6.661   7.584   1.581
 5648TIP3    H216886   6.622   7.681   1.471
 5649TIP3   OH216887   6.702   7.423   1.442
 5649TIP3    H116888   6.760   7.473   1.384
 5649TIP3    H216889   6.615   7.458   1.425
 5650TIP3   OH216890   6.471   7.802   1.745
 5650TIP3    H116891   6.433   7.721   1.780
 5650TIP3    H216892   6.527   7.773   1.674
 5651TIP3   OH216893   6.870   7.201   1.464
 5651TIP3    H116894   6.820   7.280   1.445
 5651TIP3    H216895   6.825   7.132   1.415
 5652TIP3   OH216896   6.831   7.836   1.696
 5652TIP3    H116897   6.910   7.793   1.730
 5652TIP3    H216898   6.785   7.767   1.648
 5653TIP3   OH216899   6.367   7.561   1.831
 5653TIP3    H116900   6.364   7.476   1.787
 5653TIP3    H216901   6.409   7.544   1.915
 5654TIP3   OH216902   6.861   7.205   1.733
 5654TIP3    H116903   6.908   7.126   1.761
 5654TIP3    H216904   6.864   7.203   1.637
 5655TIP3   OH216905   6.929   7.450   1.830
 5655TIP3    H116906   6.910   7.366   1.788
 5655TIP3    H216907   6.845   7.497   1.829
 5656TIP3   OH216908   5.930   7.953   1.060
 5656TIP3    H116909   5.964   7.946   0.971
 5656TIP3    H216910   6.009   7.955   1.115
 5657TIP3   OH216911   6.101   7.629   1.790
 5657TIP3    H116912   6.196   7.620   1.792
 5657TIP3    H216913   6.068   7.544   1.818
 5658TIP3   OH216914   6.058   7.325   1.245
 5658TIP3    H116915   6.070   7.247   1.192
 5658TIP3    H216916   6.147   7.361   1.255
 5659TIP3   OH216917   5.858   7.542   1.184
 5659TIP3    H116918   5.890   7.548   1.094
 5659TIP3    H216919   5.914   7.602   1.233
 5660TIP3   OH216920   6.061   7.169   1.517
 5660TIP3    H116921   6.003   7.163   1.593
 5660TIP3    H216922   6.016   7.229   1.458
 5661TIP3   OH216923   0.485   0.489   1.612
 5661TIP3    H116924   0.452   0.414   1.563
 5661TIP3    H216925   0.433   0.490   1.692
 5662TIP3   OH216926   6.249   6.953   0.830
 5662TIP3    H116927   6.172   6.902   0.803
 5662TIP3    H216928   6.295   6.971   0.748
 5663TIP3   OH216929   6.372   7.291   1.761
 5663TIP3    H116930   6.343   7.216   1.813
 5663TIP3    H216931   6.466   7.297   1.777
 5664TIP3   OH216932   6.626   7.277   1.865
 5664TIP3    H116933   6.706   7.254   1.818
 5664TIP3    H216934   6.615   7.208   1.930
 5665TIP3   OH216935   1.856   0.490   5.791
 5665TIP3    H116936   1.783   0.461   5.845
 5665TIP3    H216937   1.876   0.578   5.823
 5666TIP3   OH216938   1.470   0.933   5.789
 5666TIP3    H116939   1.507   0.867   5.729
 5666TIP3    H216940   1.477   0.892   5.876
 5667TIP3   OH216941   8.157   8.116   6.182
 5667TIP3    H116942   8.070   8.130   6.220
 5667TIP3    H216943   8.202   8.061   6.246
 5668TIP3   OH216944   1.467   0.431   5.546
 5668TIP3    H116945   1.420   0.377   5.483
 5668TIP3    H216946   1.409   0.507   5.559
 5669TIP3   OH216947   1.877   0.742   5.916
 5669TIP3    H116948   1.790   0.733   5.955
 5669TIP3    H216949   1.875   0.825   5.869
 5670TIP3   OH216950   1.575   0.773   5.591
 5670TIP3    H116951   1.625   0.691   5.583
 5670TIP3    H216952   1.633   0.840   5.555
 5671TIP3   OH216953   1.721   0.550   5.548
 5671TIP3    H116954   1.651   0.486   5.536
 5671TIP3    H216955   1.781   0.509   5.610
 5672TIP3   OH216956   2.102   0.636   6.249
 5672TIP3    H116957   2.070   0.572   6.185
 5672TIP3    H216958   2.085   0.721   6.208
 5673TIP3   OH216959   1.788   0.167   5.502
 5673TIP3    H116960   1.708   0.117   5.520
 5673TIP3    H216961   1.858   0.116   5.544
 5674TIP3   OH216962   1.633   0.712   6.035
 5674TIP3    H116963   1.562   0.756   6.083
 5674TIP3    H216964   1.649   0.632   6.084
 5675TIP3   OH216965   1.318   0.672   5.560
 5675TIP3    H116966   1.403   0.708   5.585
 5675TIP3    H216967   1.269   0.748   5.527
 5676TIP3   OH216968   1.947   0.606   4.974
 5676TIP3    H116969   1.970   0.699   4.981
 5676TIP3    H216970   2.025   0.564   4.938
 5677TIP3   OH216971   2.345   0.986   6.326
 5677TIP3    H116972   2.349   0.892   6.341
 5677TIP3    H216973   2.264   1.014   6.369
 5678TIP3   OH216974   1.213   0.890   5.418
 5678TIP3    H116975   1.174   0.875   5.332
 5678TIP3    H216976   1.184   0.978   5.443
 5679TIP3   OH216977   1.418   0.813   5.056
 5679TIP3    H116978   1.468   0.739   5.022
 5679TIP3    H216979   1.450   0.825   5.145
 5680TIP3   OH216980   1.473   0.854   5.320
 5680TIP3    H116981   1.388   0.857   5.364
 5680TIP3    H216982   1.527   0.800   5.377
 5681TIP3   OH216983   0.187   6.613   3.198
 5681TIP3    H116984   0.105   6.649   3.232
 5681TIP3    H216985   0.256   6.668   3.236
 5682TIP3   OH216986   1.624   0.085   5.134
 5682TIP3    H116987   1.582   0.069   5.050
 5682TIP3    H216988   1.718   0.088   5.113
 5683TIP3   OH216989   2.057   1.333   6.418
 5683TIP3    H116990   2.053   1.353   6.325
 5683TIP3    H216991   2.135   1.380   6.449
 5684TIP3   OH216992   1.726   0.756   6.378
 5684TIP3    H116993   1.638   0.789   6.356
 5684TIP3    H216994   1.749   0.801   6.459
 5685TIP3   OH216995   7.907   7.952   5.261
 5685TIP3    H116996   7.838   7.895   5.226
 5685TIP3    H216997   7.889   8.038   5.223
 5686TIP3   OH216998   2.353   0.695   6.347
 5686TIP3    H116999   2.258   0.688   6.339
 5686TIP3    H217000   2.386   0.668   6.261
 5687TIP3   OH217001   1.789   0.643   5.213
 5687TIP3    H117002   1.787   0.562   5.264
 5687TIP3    H217003   1.843   0.622   5.137
 5688TIP3   OH217004   1.817   0.266   6.051
 5688TIP3    H117005   1.734   0.224   6.028
 5688TIP3    H217006   1.884   0.213   6.008
 5689TIP3   OH217007   1.394   0.804   6.166
 5689TIP3    H117008   1.371   0.895   6.144
 5689TIP3    H217009   1.332   0.779   6.234
 5690TIP3   OH217010   1.704   0.486   6.175
 5690TIP3    H117011   1.739   0.495   6.264
 5690TIP3    H217012   1.749   0.410   6.139
 5691TIP3   OH217013   1.622   0.367   5.086
 5691TIP3    H117014   1.678   0.380   5.163
 5691TIP3    H217015   1.583   0.280   5.099
 5692TIP3   OH217016   1.865   1.027   6.253
 5692TIP3    H117017   1.785   0.975   6.245
 5692TIP3    H217018   1.861   1.090   6.182
 5693TIP3   OH217019   1.797   0.358   5.294
 5693TIP3    H117020   1.775   0.299   5.366
 5693TIP3    H217021   1.891   0.344   5.280
 5694TIP3   OH217022   1.176   0.563   5.309
 5694TIP3    H117023   1.182   0.570   5.404
 5694TIP3    H217024   1.166   0.654   5.279
 5695TIP3   OH217025   1.896   1.003   5.828
 5695TIP3    H117026   1.853   1.053   5.759
 5695TIP3    H217027   1.989   1.020   5.815
 5696TIP3   OH217028   1.200   0.555   5.034
 5696TIP3    H117029   1.191   0.531   5.126
 5696TIP3    H217030   1.263   0.493   4.999
 5697TIP3   OH217031   1.823   0.859   6.614
 5697TIP3    H117032   1.855   0.795   6.677
 5697TIP3    H217033   1.883   0.934   6.623
 5698TIP3   OH217034   1.572   0.619   4.944
 5698TIP3    H117035   1.618   0.561   5.005
 5698TIP3    H217036   1.631   0.625   4.868
 5699TIP3   OH217037   1.888   0.538   6.399
 5699TIP3    H117038   1.969   0.576   6.365
 5699TIP3    H217039   1.826   0.610   6.401
 5700TIP3   OH217040   1.880   0.138   4.994
 5700TIP3    H117041   1.901   0.097   4.910
 5700TIP3    H217042   1.858   0.229   4.971
 5701TIP3   OH217043   2.032   0.378   6.578
 5701TIP3    H117044   1.964   0.420   6.525
 5701TIP3    H217045   2.114   0.398   6.532
 5702TIP3   OH217046   0.914   0.918   5.224
 5702TIP3    H117047   0.993   0.873   5.195
 5702TIP3    H217048   0.863   0.931   5.144
 5703TIP3   OH217049   2.162   1.067   5.820
 5703TIP3    H117050   2.181   1.095   5.909
 5703TIP3    H217051   2.222   1.117   5.765
 5704TIP3   OH217052   2.182   1.098   6.102
 5704TIP3    H117053   2.135   1.015   6.099
 5704TIP3    H217054   2.255   1.082   6.162
 5705TIP3   OH217055   2.240   0.784   6.656
 5705TIP3    H117056   2.161   0.789   6.710
 5705TIP3    H217057   2.280   0.871   6.665
 5706TIP3   OH217058   2.068   0.311   5.288
 5706TIP3    H117059   2.131   0.376   5.257
 5706TIP3    H217060   2.103   0.282   5.373
 5707TIP3   OH217061   2.166   0.193   5.518
 5707TIP3    H117062   2.097   0.143   5.561
 5707TIP3    H217063   2.223   0.222   5.589
 5708TIP3   OH217064   2.323   0.468   5.875
 5708TIP3    H117065   2.337   0.555   5.837
 5708TIP3    H217066   2.228   0.456   5.874
 5709TIP3   OH217067   2.037   0.861   6.111
 5709TIP3    H117068   1.970   0.906   6.162
 5709TIP3    H217069   1.989   0.822   6.038
 5710TIP3   OH217070   2.102   0.082   5.144
 5710TIP3    H117071   2.024   0.082   5.088
 5710TIP3    H217072   2.091   0.159   5.199
 5711TIP3   OH217073   7.691   7.861   5.121
 5711TIP3    H117074   7.617   7.916   5.097
 5711TIP3    H217075   7.659   7.771   5.109
 5712TIP3   OH217076   7.724   8.119   5.639
 5712TIP3    H117077   7.739   8.033   5.598
 5712TIP3    H217078   7.733   8.102   5.733
 5713TIP3   OH217079   2.276   0.436   6.462
 5713TIP3    H117080   2.342   0.368   6.451
 5713TIP3    H217081   2.310   0.510   6.411
 5714TIP3   OH217082   2.434   0.210   6.483
 5714TIP3    H117083   2.385   0.193   6.564
 5714TIP3    H217084   2.520   0.172   6.498
 5715TIP3   OH217085   7.843   8.103   5.993
 5715TIP3    H117086   7.926   8.063   5.966
 5715TIP3    H217087   7.856   8.126   6.085
 5716TIP3   OH217088   2.166   0.069   6.266
 5716TIP3    H117089   2.098   0.032   6.323
 5716TIP3    H217090   2.175   0.160   6.296
 5717TIP3   OH217091   1.739   0.943   5.462
 5717TIP3    H117092   1.778   0.908   5.382
 5717TIP3    H217093   1.790   1.023   5.479
 5718TIP3   OH217094   1.439   1.074   6.492
 5718TIP3    H117095   1.481   1.036   6.569
 5718TIP3    H217096   1.510   1.113   6.443
 5719TIP3   OH217097   1.645   1.209   6.369
 5719TIP3    H117098   1.709   1.151   6.327
 5719TIP3    H217099   1.696   1.261   6.431
 5720TIP3   OH217100   1.349   1.065   6.085
 5720TIP3    H117101   1.279   1.086   6.022
 5720TIP3    H217102   1.360   1.146   6.135
 5721TIP3   OH217103   1.619   1.011   6.135
 5721TIP3    H117104   1.526   1.018   6.114
 5721TIP3    H217105   1.663   1.071   6.075
 5722TIP3   OH217106   1.824   1.180   6.027
 5722TIP3    H117107   1.812   1.265   5.984
 5722TIP3    H217108   1.847   1.120   5.956
 5723TIP3   OH217109   1.155   0.806   5.152
 5723TIP3    H117110   1.242   0.823   5.115
 5723TIP3    H217111   1.118   0.737   5.096
 5724TIP3   OH217112   2.094   1.059   6.416
 5724TIP3    H117113   2.016   1.032   6.369
 5724TIP3    H217114   2.084   1.154   6.427
 5725TIP3   OH217115   3.358   0.453   5.176
 5725TIP3    H117116   3.325   0.539   5.148
 5725TIP3    H217117   3.290   0.392   5.149
 5726TIP3   OH217118   3.354   0.446   5.586
 5726TIP3    H117119   3.399   0.421   5.666
 5726TIP3    H217120   3.310   0.366   5.557
 5727TIP3   OH217121   2.625   0.331   5.922
 5727TIP3    H117122   2.660   0.275   5.991
 5727TIP3    H217123   2.702   0.361   5.874
 5728TIP3   OH217124   3.626   0.747   5.262
 5728TIP3    H117125   3.608   0.682   5.331
 5728TIP3    H217126   3.652   0.826   5.310
 5729TIP3   OH217127   2.647   0.729   5.637
 5729TIP3    H117128   2.635   0.634   5.637
 5729TIP3    H217129   2.741   0.741   5.627
 5730TIP3   OH217130   8.057   8.086   5.448
 5730TIP3    H117131   8.001   8.163   5.456
 5730TIP3    H217132   8.010   8.027   5.389
 5731TIP3   OH217133   2.419   0.259   5.668
 5731TIP3    H117134   2.450   0.170   5.658
 5731TIP3    H217135   2.465   0.309   5.601
 5732TIP3   OH217136   3.281   1.181   5.270
 5732TIP3    H117137   3.310   1.113   5.209
 5732TIP3    H217138   3.282   1.138   5.356
 5733TIP3   OH217139   3.165   0.662   5.600
 5733TIP3    H117140   3.208   0.582   5.570
 5733TIP3    H217141   3.237   0.719   5.629
 5734TIP3   OH217142   3.592   0.156   5.647
 5734TIP3    H117143   3.661   0.090   5.648
 5734TIP3    H217144   3.546   0.142   5.565
 5735TIP3   OH217145   0.009   7.929   5.651
 5735TIP3    H117146   0.002   7.991   5.579
 5735TIP3    H217147   0.039   7.848   5.611
 5736TIP3   OH217148   0.722   8.029   5.280
 5736TIP3    H117149   0.765   7.946   5.301
 5736TIP3    H217150   0.773   8.065   5.208
 5737TIP3   OH217151   8.267   8.121   5.714
 5737TIP3    H117152   8.346   8.103   5.764
 5737TIP3    H217153   8.275   8.066   5.636
 5738TIP3   OH217154   2.966   0.218   5.535
 5738TIP3    H117155   3.061   0.206   5.536
 5738TIP3    H217156   2.931   0.134   5.507
 5739TIP3   OH217157   4.217   0.186   5.693
 5739TIP3    H117158   4.141   0.236   5.723
 5739TIP3    H217159   4.253   0.147   5.772
 5740TIP3   OH217160   3.236   0.655   5.030
 5740TIP3    H117161   3.208   0.636   4.940
 5740TIP3    H217162   3.190   0.737   5.052
 5741TIP3   OH217163   3.010   0.578   5.814
 5741TIP3    H117164   2.956   0.649   5.850
 5741TIP3    H217165   3.057   0.619   5.741
 5742TIP3   OH217166   8.495   8.068   5.854
 5742TIP3    H117167   8.570   8.120   5.883
 5742TIP3    H217168   8.532   8.006   5.792
 5743TIP3   OH217169   2.851   0.783   5.917
 5743TIP3    H117170   2.836   0.872   5.885
 5743TIP3    H217171   2.774   0.763   5.971
 5744TIP3   OH217172   2.242   0.486   5.166
 5744TIP3    H117173   2.202   0.493   5.079
 5744TIP3    H217174   2.270   0.575   5.186
 5745TIP3   OH217175   3.673   0.990   5.407
 5745TIP3    H117176   3.586   0.982   5.444
 5745TIP3    H217177   3.671   1.074   5.360
 5746TIP3   OH217178   3.369   1.015   5.064
 5746TIP3    H117179   3.422   0.936   5.052
 5746TIP3    H217180   3.424   1.086   5.031
 5747TIP3   OH217181   3.527   0.800   5.009
 5747TIP3    H117182   3.505   0.716   4.968
 5747TIP3    H217183   3.567   0.775   5.092
 5748TIP3   OH217184   3.908   0.879   5.751
 5748TIP3    H117185   3.888   0.806   5.693
 5748TIP3    H217186   3.893   0.957   5.698
 5749TIP3   OH217187   3.187   0.298   5.019
 5749TIP3    H117188   3.107   0.344   4.992
 5749TIP3    H217189   3.239   0.291   4.939
 5750TIP3   OH217190   3.143   0.114   4.713
 5750TIP3    H117191   3.211   0.159   4.764
 5750TIP3    H217192   3.192   0.050   4.660
 5751TIP3   OH217193   4.088   0.556   5.615
 5751TIP3    H117194   4.002   0.596   5.605
 5751TIP3    H217195   4.128   0.561   5.528
 5752TIP3   OH217196   3.539   0.389   4.982
 5752TIP3    H117197   3.484   0.413   5.057
 5752TIP3    H217198   3.620   0.356   5.020
 5753TIP3   OH217199   3.756   0.417   5.890
 5753TIP3    H117200   3.756   0.493   5.947
 5753TIP3    H217201   3.668   0.413   5.854
 5754TIP3   OH217202   2.774   0.358   5.387
 5754TIP3    H117203   2.738   0.298   5.321
 5754TIP3    H217204   2.844   0.308   5.428
 5755TIP3   OH217205   2.909   0.777   5.533
 5755TIP3    H117206   2.885   0.758   5.443
 5755TIP3    H217207   2.996   0.738   5.544
 5756TIP3   OH217208   2.869   0.348   5.760
 5756TIP3    H117209   2.908   0.308   5.683
 5756TIP3    H217210   2.925   0.424   5.779
 5757TIP3   OH217211   3.432   0.983   5.532
 5757TIP3    H117212   3.420   1.061   5.585
 5757TIP3    H217213   3.418   0.910   5.592
 5758TIP3   OH217214   3.053   0.884   6.078
 5758TIP3    H117215   2.994   0.943   6.125
 5758TIP3    H217216   2.995   0.832   6.022
 5759TIP3   OH217217   3.369   0.245   4.814
 5759TIP3    H117218   3.438   0.288   4.865
 5759TIP3    H217219   3.403   0.244   4.725
 5760TIP3   OH217220   2.814   0.463   6.186
 5760TIP3    H117221   2.818   0.548   6.229
 5760TIP3    H217222   2.721   0.439   6.188
 5761TIP3   OH217223   3.114   0.913   5.041
 5761TIP3    H117224   3.203   0.942   5.060
 5761TIP3    H217225   3.063   0.994   5.031
 5762TIP3   OH217226   2.847   1.045   6.166
 5762TIP3    H117227   2.818   1.056   6.075
 5762TIP3    H217228   2.766   1.030   6.215
 5763TIP3   OH217229   2.654   0.200   5.189
 5763TIP3    H117230   2.574   0.237   5.153
 5763TIP3    H217231   2.634   0.107   5.202
 5764TIP3   OH217232   3.710   0.841   4.395
 5764TIP3    H117233   3.714   0.936   4.393
 5764TIP3    H217234   3.801   0.813   4.390
 5765TIP3   OH217235   2.445   0.578   6.118
 5765TIP3    H117236   2.406   0.543   6.037
 5765TIP3    H217237   2.482   0.501   6.162
 5766TIP3   OH217238   2.337   0.733   5.789
 5766TIP3    H117239   2.422   0.766   5.759
 5766TIP3    H217240   2.293   0.810   5.825
 5767TIP3   OH217241   4.134   1.248   5.837
 5767TIP3    H117242   4.139   1.153   5.834
 5767TIP3    H217243   4.042   1.268   5.850
 5768TIP3   OH217244   3.241   1.027   5.937
 5768TIP3    H117245   3.235   1.118   5.966
 5768TIP3    H217246   3.174   0.982   5.989
 5769TIP3   OH217247   3.004   1.135   4.914
 5769TIP3    H117248   2.959   1.114   4.833
 5769TIP3    H217249   2.975   1.224   4.935
 5770TIP3   OH217250   2.445   0.985   5.273
 5770TIP3    H117251   2.493   0.973   5.355
 5770TIP3    H217252   2.399   0.903   5.260
 5771TIP3   OH217253   3.251   1.116   4.793
 5771TIP3    H117254   3.171   1.114   4.846
 5771TIP3    H217255   3.318   1.076   4.848
 5772TIP3   OH217256   4.026   0.366   6.078
 5772TIP3    H117257   3.963   0.436   6.096
 5772TIP3    H217258   3.973   0.294   6.046
 5773TIP3   OH217259   2.632   0.783   6.086
 5773TIP3    H117260   2.681   0.780   6.168
 5773TIP3    H217261   2.564   0.716   6.096
 5774TIP3   OH217262   3.838   0.182   6.020
 5774TIP3    H117263   3.772   0.116   6.040
 5774TIP3    H217264   3.794   0.244   5.962
 5775TIP3   OH217265   3.459   0.246   4.556
 5775TIP3    H117266   3.418   0.221   4.472
 5775TIP3    H217267   3.535   0.297   4.530
 5776TIP3   OH217268   2.968   0.140   5.926
 5776TIP3    H117269   2.910   0.157   6.000
 5776TIP3    H217270   2.945   0.208   5.862
 5777TIP3   OH217271   8.563   8.102   5.440
 5777TIP3    H117272   8.472   8.073   5.448
 5777TIP3    H217273   8.587   8.081   5.350
 5778TIP3   OH217274   3.303   0.105   5.175
 5778TIP3    H117275   3.253   0.174   5.131
 5778TIP3    H217276   3.353   0.063   5.105
 5779TIP3   OH217277   3.514   0.372   6.223
 5779TIP3    H117278   3.486   0.303   6.281
 5779TIP3    H217279   3.607   0.386   6.244
 5780TIP3   OH217280   3.466   0.128   5.401
 5780TIP3    H117281   3.403   0.150   5.333
 5780TIP3    H217282   3.509   0.048   5.370
 5781TIP3   OH217283   2.764   0.176   6.112
 5781TIP3    H117284   2.797   0.224   6.188
 5781TIP3    H217285   2.729   0.095   6.150
 5782TIP3   OH217286   8.166   7.834   5.265
 5782TIP3    H117287   8.181   7.838   5.170
 5782TIP3    H217288   8.073   7.856   5.275
 5783TIP3   OH217289   3.489   0.348   5.810
 5783TIP3    H117290   3.528   0.284   5.750
 5783TIP3    H217291   3.460   0.296   5.885
 5784TIP3   OH217292   8.309   7.992   5.458
 5784TIP3    H117293   8.222   8.031   5.452
 5784TIP3    H217294   8.304   7.913   5.404
 5785TIP3   OH217295   0.008   8.026   5.184
 5785TIP3    H117296   0.099   8.004   5.167
 5785TIP3    H217297  -0.037   8.009   5.101
 5786TIP3   OH217298   8.468   8.007   4.946
 5786TIP3    H117299   8.381   7.988   4.910
 5786TIP3    H217300   8.515   8.049   4.874
 5787TIP3   OH217301   3.844   1.582   5.907
 5787TIP3    H117302   3.835   1.604   5.815
 5787TIP3    H217303   3.921   1.631   5.936
 5788TIP3   OH217304   2.788   0.705   6.323
 5788TIP3    H117305   2.869   0.724   6.370
 5788TIP3    H217306   2.720   0.710   6.390
 5789TIP3   OH217307   3.241   0.184   5.570
 5789TIP3    H117308   3.314   0.142   5.524
 5789TIP3    H217309   3.245   0.148   5.659
 5790TIP3   OH217310   3.236   0.106   5.834
 5790TIP3    H117311   3.148   0.107   5.872
 5790TIP3    H217312   3.292   0.137   5.904
 5791TIP3   OH217313   2.951   0.436   4.950
 5791TIP3    H117314   2.886   0.367   4.938
 5791TIP3    H217315   2.935   0.469   5.038
 5792TIP3   OH217316   3.846   0.681   5.571
 5792TIP3    H117317   3.878   0.728   5.494
 5792TIP3    H217318   3.763   0.643   5.542
 5793TIP3   OH217319   0.429   7.929   4.785
 5793TIP3    H117320   0.398   7.850   4.829
 5793TIP3    H217321   0.447   7.990   4.856
 5794TIP3   OH217322   3.366   0.763   5.971
 5794TIP3    H117323   3.405   0.750   6.058
 5794TIP3    H217324   3.321   0.848   5.977
 5795TIP3   OH217325   3.421   0.000   4.949
 5795TIP3    H117326   3.515  -0.018   4.959
 5795TIP3    H217327   3.417   0.080   4.897
 5796TIP3   OH217328   2.650   0.446   5.617
 5796TIP3    H117329   2.680   0.428   5.528
 5796TIP3    H217330   2.720   0.413   5.673
 5797TIP3   OH217331   3.090   0.598   4.778
 5797TIP3    H117332   3.040   0.677   4.793
 5797TIP3    H217333   3.048   0.531   4.832
 5798TIP3   OH217334   2.551   0.382   6.282
 5798TIP3    H117335   2.611   0.403   6.354
 5798TIP3    H217336   2.506   0.302   6.311
 5799TIP3   OH217337   3.270   0.509   6.268
 5799TIP3    H117338   3.203   0.452   6.231
 5799TIP3    H217339   3.352   0.474   6.234
 5800TIP3   OH217340   3.513   1.041   5.857
 5800TIP3    H117341   3.418   1.028   5.864
 5800TIP3    H217342   3.538   1.080   5.941
 5801TIP3   OH217343   3.946   0.158   4.749
 5801TIP3    H117344   3.906   0.086   4.700
 5801TIP3    H217345   3.928   0.236   4.696
 5802TIP3   OH217346   4.152   0.978   5.836
 5802TIP3    H117347   4.060   0.952   5.837
 5802TIP3    H217348   4.185   0.946   5.752
 5803TIP3   OH217349   3.643   0.905   4.679
 5803TIP3    H117350   3.614   0.841   4.743
 5803TIP3    H217351   3.650   0.857   4.597
 5804TIP3   OH217352   3.602   0.560   5.481
 5804TIP3    H117353   3.512   0.537   5.503
 5804TIP3    H217354   3.638   0.482   5.440
 5805TIP3   OH217355   2.773   0.768   5.286
 5805TIP3    H117356   2.768   0.847   5.232
 5805TIP3    H217357   2.681   0.745   5.303
 5806TIP3   OH217358   2.337   0.057   5.005
 5806TIP3    H117359   2.378   0.142   5.019
 5806TIP3    H217360   2.254   0.062   5.052
 5807TIP3   OH217361   2.874   0.529   5.190
 5807TIP3    H117362   2.852   0.618   5.219
 5807TIP3    H217363   2.845   0.473   5.262
 5808TIP3   OH217364   3.052   1.103   5.734
 5808TIP3    H117365   3.090   1.176   5.685
 5808TIP3    H217366   3.125   1.068   5.785
 5809TIP3   OH217367   2.699   0.994   5.148
 5809TIP3    H117368   2.606   1.004   5.168
 5809TIP3    H217369   2.731   1.084   5.136
 5810TIP3   OH217370   3.409   0.760   5.699
 5810TIP3    H117371   3.399   0.755   5.794
 5810TIP3    H217372   3.483   0.702   5.680
 5811TIP3   OH217373   3.379   0.631   4.583
 5811TIP3    H117374   3.440   0.616   4.655
 5811TIP3    H217375   3.294   0.606   4.617
 5812TIP3   OH217376   3.664   1.262   5.744
 5812TIP3    H117377   3.591   1.201   5.757
 5812TIP3    H217378   3.635   1.319   5.673
 5813TIP3   OH217379   3.728   1.116   4.390
 5813TIP3    H117380   3.770   1.188   4.343
 5813TIP3    H217381   3.649   1.155   4.427
 5814TIP3   OH217382   3.558   0.582   4.786
 5814TIP3    H117383   3.543   0.512   4.850
 5814TIP3    H217384   3.652   0.583   4.773
 5815TIP3   OH217385   2.483   0.992   5.898
 5815TIP3    H117386   2.535   0.932   5.951
 5815TIP3    H217387   2.497   1.078   5.938
 5816TIP3   OH217388   2.735   0.618   4.591
 5816TIP3    H117389   2.747   0.528   4.560
 5816TIP3    H217390   2.728   0.610   4.686
 5817TIP3   OH217391   2.730   0.626   4.865
 5817TIP3    H117392   2.778   0.562   4.917
 5817TIP3    H217393   2.783   0.705   4.868
 5818TIP3   OH217394   2.433   0.312   5.065
 5818TIP3    H117395   2.368   0.359   5.117
 5818TIP3    H217396   2.454   0.373   4.994
 5819TIP3   OH217397   2.939   0.817   4.845
 5819TIP3    H117398   2.988   0.846   4.921
 5819TIP3    H217399   2.934   0.894   4.788
 5820TIP3   OH217400   0.283   7.982   5.187
 5820TIP3    H117401   0.330   8.065   5.184
 5820TIP3    H217402   0.328   7.931   5.254
 5821TIP3   OH217403   3.423   0.194   6.032
 5821TIP3    H117404   3.445   0.267   6.090
 5821TIP3    H217405   3.440   0.115   6.084
 5822TIP3   OH217406   3.683   0.316   5.378
 5822TIP3    H117407   3.610   0.255   5.393
 5822TIP3    H217408   3.755   0.279   5.428
 5823TIP3   OH217409   2.458   0.513   4.864
 5823TIP3    H117410   2.526   0.579   4.874
 5823TIP3    H217411   2.493   0.450   4.801
 5824TIP3   OH217412   8.141   7.891   4.991
 5824TIP3    H117413   8.115   7.982   5.003
 5824TIP3    H217414   8.067   7.852   4.944
 5825TIP3   OH217415   3.691   1.256   5.320
 5825TIP3    H117416   3.649   1.304   5.249
 5825TIP3    H217417   3.785   1.269   5.305
 5826TIP3   OH217418   2.284   0.758   5.222
 5826TIP3    H117419   2.213   0.759   5.287
 5826TIP3    H217420   2.243   0.792   5.143
 5827TIP3   OH217421   2.473   1.296   6.312
 5827TIP3    H117422   2.553   1.303   6.364
 5827TIP3    H217423   2.455   1.202   6.309
 5828TIP3   OH217424   2.934   1.225   6.361
 5828TIP3    H117425   3.028   1.218   6.376
 5828TIP3    H217426   2.916   1.162   6.291
 5829TIP3   OH217427   2.920   0.798   4.503
 5829TIP3    H117428   2.846   0.747   4.538
 5829TIP3    H217429   2.992   0.735   4.496
 5830TIP3   OH217430   3.575   1.147   6.102
 5830TIP3    H117431   3.584   1.079   6.168
 5830TIP3    H217432   3.640   1.213   6.127
 5831TIP3   OH217433   2.581   0.698   6.510
 5831TIP3    H117434   2.592   0.607   6.537
 5831TIP3    H217435   2.495   0.700   6.467
 5832TIP3   OH217436   2.587   0.321   4.722
 5832TIP3    H117437   2.640   0.289   4.795
 5832TIP3    H217438   2.649   0.330   4.650
 5833TIP3   OH217439   3.201   0.779   6.285
 5833TIP3    H117440   3.157   0.800   6.202
 5833TIP3    H217441   3.233   0.690   6.274
 5834TIP3   OH217442   3.081   0.560   4.506
 5834TIP3    H117443   3.078   0.565   4.601
 5834TIP3    H217444   3.085   0.466   4.487
 5835TIP3   OH217445   3.679   0.813   5.898
 5835TIP3    H117446   3.756   0.843   5.850
 5835TIP3    H217447   3.612   0.879   5.879
 5836TIP3   OH217448   2.726   0.414   6.491
 5836TIP3    H117449   2.802   0.357   6.474
 5836TIP3    H217450   2.743   0.453   6.576
 5837TIP3   OH217451   2.759   0.241   4.927
 5837TIP3    H117452   2.737   0.213   5.016
 5837TIP3    H217453   2.799   0.164   4.887
 5838TIP3   OH217454   3.062   0.340   6.165
 5838TIP3    H117455   2.978   0.387   6.166
 5838TIP3    H217456   3.101   0.363   6.080
 5839TIP3   OH217457   2.876   0.049   4.763
 5839TIP3    H117458   2.847   0.061   4.673
 5839TIP3    H217459   2.971   0.065   4.761
 5840TIP3   OH217460   3.562   0.706   6.272
 5840TIP3    H117461   3.623   0.656   6.216
 5840TIP3    H217462   3.553   0.652   6.350
 5841TIP3   OH217463   3.667   0.375   4.425
 5841TIP3    H117464   3.653   0.328   4.342
 5841TIP3    H217465   3.635   0.463   4.408
 5842TIP3   OH217466   3.145   0.115   6.290
 5842TIP3    H117467   3.130   0.044   6.227
 5842TIP3    H217468   3.119   0.194   6.243
 5843TIP3   OH217469   3.199   0.429   5.949
 5843TIP3    H117470   3.284   0.441   5.905
 5843TIP3    H217471   3.139   0.487   5.902
 5844TIP3   OH217472   3.770   0.404   6.332
 5844TIP3    H117473   3.799   0.339   6.396
 5844TIP3    H217474   3.840   0.469   6.330
 5845TIP3   OH217475   3.803   0.642   6.068
 5845TIP3    H117476   3.744   0.700   6.020
 5845TIP3    H217477   3.890   0.662   6.034
 5846TIP3   OH217478   2.953   0.211   6.483
 5846TIP3    H117479   2.977   0.174   6.568
 5846TIP3    H217480   3.022   0.181   6.424
 5847TIP3   OH217481   3.411   0.159   6.356
 5847TIP3    H117482   3.426   0.124   6.444
 5847TIP3    H217483   3.318   0.143   6.340
 5848TIP3   OH217484   2.184   0.483   4.890
 5848TIP3    H117485   2.277   0.503   4.879
 5848TIP3    H217486   2.173   0.397   4.848
 5849TIP3   OH217487   2.075   1.058   5.280
 5849TIP3    H117488   2.074   0.979   5.225
 5849TIP3    H217489   2.114   1.030   5.363
 5850TIP3   OH217490   2.198   0.953   5.501
 5850TIP3    H117491   2.177   0.879   5.559
 5850TIP3    H217492   2.261   1.005   5.551
 5851TIP3   OH217493   3.959   1.317   5.302
 5851TIP3    H117494   3.974   1.358   5.387
 5851TIP3    H217495   4.015   1.365   5.242
 5852TIP3   OH217496   3.966   1.356   5.586
 5852TIP3    H117497   3.925   1.269   5.583
 5852TIP3    H217498   4.051   1.341   5.627
 5853TIP3   OH217499   4.036   1.050   6.164
 5853TIP3    H117500   3.963   1.054   6.226
 5853TIP3    H217501   4.083   1.133   6.177
 5854TIP3   OH217502   3.833   0.578   4.764
 5854TIP3    H117503   3.897   0.644   4.737
 5854TIP3    H217504   3.866   0.544   4.848
 5855TIP3   OH217505   3.937   0.465   4.991
 5855TIP3    H117506   3.878   0.411   5.042
 5855TIP3    H217507   4.001   0.498   5.054
 5856TIP3   OH217508   4.020   0.816   5.399
 5856TIP3    H117509   4.081   0.750   5.365
 5856TIP3    H217510   4.022   0.886   5.334
 5857TIP3   OH217511   3.842   1.103   5.601
 5857TIP3    H117512   3.772   1.147   5.649
 5857TIP3    H217513   3.797   1.060   5.528
 5858TIP3   OH217514   3.883   0.372   4.591
 5858TIP3    H117515   3.807   0.366   4.533
 5858TIP3    H217516   3.862   0.443   4.651
 5859TIP3   OH217517   0.891   8.119   4.610
 5859TIP3    H117518   0.826   8.159   4.552
 5859TIP3    H217519   0.904   8.031   4.573
 5860TIP3   OH217520   3.761   0.291   5.117
 5860TIP3    H117521   3.761   0.196   5.113
 5860TIP3    H217522   3.738   0.312   5.207
 5861TIP3   OH217523   4.048   0.704   5.963
 5861TIP3    H117524   4.115   0.639   5.943
 5861TIP3    H217525   4.038   0.755   5.883
 5862TIP3   OH217526   4.225   0.501   5.942
 5862TIP3    H117527   4.160   0.439   5.976
 5862TIP3    H217528   4.303   0.486   5.996
 5863TIP3   OH217529   0.904   8.123   5.091
 5863TIP3    H117530   0.982   8.121   5.146
 5863TIP3    H217531   0.921   8.059   5.022
 5864TIP3   OH217532   3.908   0.232   5.507
 5864TIP3    H117533   3.986   0.264   5.462
 5864TIP3    H217534   3.924   0.252   5.599
 5865TIP3   OH217535   3.992   0.336   5.752
 5865TIP3    H117536   3.914   0.365   5.801
 5865TIP3    H217537   4.029   0.417   5.717
 5866TIP3   OH217538   2.664   0.087   6.562
 5866TIP3    H117539   2.739   0.142   6.583
 5866TIP3    H217540   2.660   0.023   6.633
 5867TIP3   OH217541   2.411   0.134   5.936
 5867TIP3    H117542   2.442   0.070   5.872
 5867TIP3    H217543   2.420   0.091   6.021
 5868TIP3   OH217544   3.511   1.214   4.948
 5868TIP3    H117545   3.569   1.204   4.873
 5868TIP3    H217546   3.554   1.279   5.004
 5869TIP3   OH217547   2.623   1.010   6.329
 5869TIP3    H117548   2.529   0.995   6.323
 5869TIP3    H217549   2.641   1.013   6.423
 5870TIP3   OH217550   2.823   1.058   5.881
 5870TIP3    H117551   2.770   1.132   5.849
 5870TIP3    H217552   2.907   1.069   5.838
 5871TIP3   OH217553   3.231   1.295   6.013
 5871TIP3    H117554   3.269   1.287   6.100
 5871TIP3    H217555   3.292   1.352   5.965
 5872TIP3   OH217556   3.414   1.456   5.882
 5872TIP3    H117557   3.478   1.401   5.836
 5872TIP3    H217558   3.468   1.509   5.941
 5873TIP3   OH217559   2.484   1.302   5.928
 5873TIP3    H117560   2.393   1.321   5.904
 5873TIP3    H217561   2.506   1.369   5.993
 5874TIP3   OH217562   2.715   1.291   5.776
 5874TIP3    H117563   2.632   1.297   5.824
 5874TIP3    H217564   2.692   1.316   5.686
 5875TIP3   OH217565   3.136   1.312   5.568
 5875TIP3    H117566   3.063   1.321   5.508
 5875TIP3    H217567   3.145   1.398   5.609
 5876TIP3   OH217568   3.399   1.245   5.621
 5876TIP3    H117569   3.308   1.266   5.601
 5876TIP3    H217570   3.450   1.312   5.574
 5877TIP3   OH217571   3.596   1.419   5.520
 5877TIP3    H117572   3.598   1.507   5.481
 5877TIP3    H217573   3.630   1.362   5.452
 5878TIP3   OH217574   2.398   1.086   5.648
 5878TIP3    H117575   2.423   1.061   5.737
 5878TIP3    H217576   2.469   1.051   5.593
 5879TIP3   OH217577   2.597   0.966   5.506
 5879TIP3    H117578   2.610   0.883   5.552
 5879TIP3    H217579   2.684   1.007   5.505
 5880TIP3   OH217580   2.867   1.055   5.528
 5880TIP3    H117581   2.885   0.962   5.514
 5880TIP3    H217582   2.919   1.079   5.604
 5881TIP3   OH217583   2.952   1.032   4.657
 5881TIP3    H117584   3.039   1.062   4.629
 5881TIP3    H217585   2.929   0.963   4.595
 5882TIP3   OH217586   3.669   1.175   4.721
 5882TIP3    H117587   3.665   1.079   4.711
 5882TIP3    H217588   3.626   1.209   4.643
 5883TIP3   OH217589   2.268   0.889   4.675
 5883TIP3    H117590   2.253   0.885   4.770
 5883TIP3    H217591   2.353   0.846   4.662
 5884TIP3   OH217592   3.879   1.309   5.913
 5884TIP3    H117593   3.806   1.279   5.859
 5884TIP3    H217594   3.867   1.404   5.918
 5885TIP3   OH217595   5.157   0.721   4.664
 5885TIP3    H117596   5.138   0.813   4.643
 5885TIP3    H217597   5.080   0.673   4.632
 5886TIP3   OH217598   5.153   0.719   5.060
 5886TIP3    H117599   5.184   0.710   5.150
 5886TIP3    H217600   5.125   0.631   5.035
 5887TIP3   OH217601   4.474   0.542   5.462
 5887TIP3    H117602   4.465   0.591   5.544
 5887TIP3    H217603   4.535   0.594   5.410
 5888TIP3   OH217604   5.415   1.007   4.748
 5888TIP3    H117605   5.401   0.946   4.820
 5888TIP3    H217606   5.445   1.088   4.789
 5889TIP3   OH217607   4.445   0.991   5.123
 5889TIP3    H117608   4.429   0.897   5.128
 5889TIP3    H217609   4.539   0.999   5.109
 5890TIP3   OH217610   4.141   0.320   4.874
 5890TIP3    H117611   4.075   0.379   4.911
 5890TIP3    H217612   4.090   0.256   4.823
 5891TIP3   OH217613   4.182   0.532   5.111
 5891TIP3    H117614   4.230   0.451   5.128
 5891TIP3    H217615   4.244   0.588   5.064
 5892TIP3   OH217616   5.077   1.436   4.756
 5892TIP3    H117617   5.110   1.368   4.698
 5892TIP3    H217618   5.073   1.395   4.842
 5893TIP3   OH217619   4.958   0.925   5.090
 5893TIP3    H117620   5.000   0.847   5.052
 5893TIP3    H217621   5.030   0.979   5.120
 5894TIP3   OH217622   5.379   0.475   5.122
 5894TIP3    H117623   5.394   0.394   5.171
 5894TIP3    H217624   5.337   0.448   5.041
 5895TIP3   OH217625   4.651   0.058   5.173
 5895TIP3    H117626   4.656   0.059   5.077
 5895TIP3    H217627   4.662  -0.035   5.196
 5896TIP3   OH217628   5.349   0.051   4.838
 5896TIP3    H117629   5.442   0.065   4.817
 5896TIP3    H217630   5.303   0.076   4.758
 5897TIP3   OH217631   4.338   0.319   5.192
 5897TIP3    H117632   4.397   0.286   5.260
 5897TIP3    H217633   4.385   0.306   5.110
 5898TIP3   OH217634   4.811   0.552   5.000
 5898TIP3    H117635   4.904   0.531   5.011
 5898TIP3    H217636   4.779   0.485   4.940
 5899TIP3   OH217637   6.055   0.514   5.222
 5899TIP3    H117638   5.964   0.537   5.240
 5899TIP3    H217639   6.075   0.443   5.282
 5900TIP3   OH217640   5.060   0.932   4.507
 5900TIP3    H117641   5.018   0.899   4.427
 5900TIP3    H217642   5.004   1.005   4.535
 5901TIP3   OH217643   4.812   0.842   5.311
 5901TIP3    H117644   4.756   0.912   5.344
 5901TIP3    H217645   4.857   0.881   5.236
 5902TIP3   OH217646   4.518   0.198   5.354
 5902TIP3    H117647   4.598   0.241   5.382
 5902TIP3    H217648   4.548   0.127   5.296
 5903TIP3   OH217649   4.648   1.043   5.407
 5903TIP3    H117650   4.633   1.131   5.371
 5903TIP3    H217651   4.571   1.025   5.460
 5904TIP3   OH217652   4.018   0.755   4.655
 5904TIP3    H117653   3.985   0.775   4.568
 5904TIP3    H217654   4.044   0.839   4.692
 5905TIP3   OH217655   5.468   1.247   4.889
 5905TIP3    H117656   5.381   1.238   4.929
 5905TIP3    H217657   5.465   1.332   4.845
 5906TIP3   OH217658   5.176   1.275   4.551
 5906TIP3    H117659   5.228   1.196   4.537
 5906TIP3    H217660   5.231   1.347   4.521
 5907TIP3   OH217661   5.315   1.044   4.493
 5907TIP3    H117662   5.235   0.991   4.495
 5907TIP3    H217663   5.360   1.024   4.574
 5908TIP3   OH217664   5.704   1.138   5.236
 5908TIP3    H117665   5.684   1.067   5.176
 5908TIP3    H217666   5.687   1.218   5.186
 5909TIP3   OH217667   4.987   0.589   4.481
 5909TIP3    H117668   4.897   0.621   4.472
 5909TIP3    H217669   5.023   0.594   4.393
 5910TIP3   OH217670   4.930   0.390   4.222
 5910TIP3    H117671   5.012   0.418   4.264
 5910TIP3    H217672   4.934   0.295   4.224
 5911TIP3   OH217673   5.894   0.828   5.099
 5911TIP3    H117674   5.807   0.865   5.090
 5911TIP3    H217675   5.929   0.829   5.010
 5912TIP3   OH217676   5.330   0.631   4.471
 5912TIP3    H117677   5.277   0.665   4.543
 5912TIP3    H217678   5.415   0.612   4.512
 5913TIP3   OH217679   5.549   0.691   5.371
 5913TIP3    H117680   5.554   0.772   5.422
 5913TIP3    H217681   5.459   0.691   5.336
 5914TIP3   OH217682   4.557   0.635   4.869
 5914TIP3    H117683   4.519   0.575   4.805
 5914TIP3    H217684   4.636   0.592   4.899
 5915TIP3   OH217685   4.704   1.033   5.018
 5915TIP3    H117686   4.685   1.016   4.925
 5915TIP3    H217687   4.791   0.996   5.032
 5916TIP3   OH217688   4.683   0.613   5.235
 5916TIP3    H117689   4.724   0.593   5.151
 5916TIP3    H217690   4.727   0.693   5.264
 5917TIP3   OH217691   5.231   1.237   5.021
 5917TIP3    H117692   5.216   1.319   5.069
 5917TIP3    H217693   5.214   1.168   5.084
 5918TIP3   OH217694   4.846   1.148   5.570
 5918TIP3    H117695   4.789   1.209   5.617
 5918TIP3    H217696   4.787   1.097   5.515
 5919TIP3   OH217697   5.175   0.511   4.276
 5919TIP3    H117698   5.225   0.544   4.351
 5919TIP3    H217699   5.226   0.536   4.199
 5920TIP3   OH217700   4.594   0.742   5.660
 5920TIP3    H117701   4.607   0.827   5.703
 5920TIP3    H217702   4.513   0.709   5.699
 5921TIP3   OH217703   4.921   1.167   4.554
 5921TIP3    H117704   5.005   1.212   4.563
 5921TIP3    H217705   4.864   1.230   4.511
 5922TIP3   OH217706   4.639   1.318   5.651
 5922TIP3    H117707   4.620   1.322   5.558
 5922TIP3    H217708   4.556   1.296   5.692
 5923TIP3   OH217709   4.432   0.475   4.673
 5923TIP3    H117710   4.352   0.516   4.640
 5923TIP3    H217711   4.402   0.390   4.706
 5924TIP3   OH217712   5.507   1.090   3.908
 5924TIP3    H117713   5.505   1.184   3.891
 5924TIP3    H217714   5.597   1.064   3.887
 5925TIP3   OH217715   4.217   0.877   5.592
 5925TIP3    H117716   4.148   0.854   5.530
 5925TIP3    H217717   4.252   0.792   5.620
 5926TIP3   OH217718   4.079   1.045   5.241
 5926TIP3    H117719   4.175   1.053   5.244
 5926TIP3    H217720   4.048   1.125   5.284
 5927TIP3   OH217721   5.940   1.525   5.300
 5927TIP3    H117722   5.947   1.430   5.309
 5927TIP3    H217723   5.858   1.547   5.345
 5928TIP3   OH217724   5.036   1.285   5.425
 5928TIP3    H117725   5.031   1.376   5.455
 5928TIP3    H217726   4.970   1.239   5.477
 5929TIP3   OH217727   4.814   1.389   4.382
 5929TIP3    H117728   4.765   1.373   4.301
 5929TIP3    H217729   4.782   1.474   4.412
 5930TIP3   OH217730   4.250   1.243   4.761
 5930TIP3    H117731   4.295   1.236   4.845
 5930TIP3    H217732   4.202   1.160   4.753
 5931TIP3   OH217733   5.013   1.313   4.009
 5931TIP3    H117734   5.063   1.240   3.974
 5931TIP3    H217735   5.049   1.327   4.097
 5932TIP3   OH217736   5.068   1.360   4.278
 5932TIP3    H117737   4.982   1.363   4.321
 5932TIP3    H217738   5.128   1.332   4.346
 5933TIP3   OH217739   5.797   0.676   5.543
 5933TIP3    H117740   5.726   0.728   5.580
 5933TIP3    H217741   5.752   0.606   5.495
 5934TIP3   OH217742   4.430   1.050   5.575
 5934TIP3    H117743   4.477   1.035   5.658
 5934TIP3    H217744   4.356   0.990   5.578
 5935TIP3   OH217745   5.630   0.441   5.450
 5935TIP3    H117746   5.602   0.434   5.542
 5935TIP3    H217747   5.586   0.519   5.418
 5936TIP3   OH217748   5.303   0.519   4.026
 5936TIP3    H117749   5.243   0.563   3.966
 5936TIP3    H217750   5.385   0.567   4.019
 5937TIP3   OH217751   4.740   0.394   5.388
 5937TIP3    H117752   4.748   0.433   5.475
 5937TIP3    H217753   4.721   0.469   5.330
 5938TIP3   OH217754   4.679   0.376   4.845
 5938TIP3    H117755   4.645   0.345   4.929
 5938TIP3    H217756   4.684   0.297   4.790
 5939TIP3   OH217757   5.131   0.412   4.625
 5939TIP3    H117758   5.086   0.480   4.575
 5939TIP3    H217759   5.175   0.359   4.559
 5940TIP3   OH217760   5.289   0.669   5.677
 5940TIP3    H117761   5.311   0.633   5.763
 5940TIP3    H217762   5.350   0.742   5.665
 5941TIP3   OH217763   5.292   0.440   4.850
 5941TIP3    H117764   5.232   0.471   4.782
 5941TIP3    H217765   5.249   0.362   4.886
 5942TIP3   OH217766   4.552   0.479   5.806
 5942TIP3    H117767   4.645   0.498   5.801
 5942TIP3    H217768   4.539   0.402   5.752
 5943TIP3   OH217769   4.285   0.053   4.736
 5943TIP3    H117770   4.248   0.084   4.653
 5943TIP3    H217771   4.212   0.010   4.781
 5944TIP3   OH217772   5.278   0.649   5.300
 5944TIP3    H117773   5.316   0.594   5.232
 5944TIP3    H217774   5.257   0.589   5.372
 5945TIP3   OH217775   4.376   0.203   4.938
 5945TIP3    H117776   4.301   0.261   4.929
 5945TIP3    H217777   4.360   0.134   4.874
 5946TIP3   OH217778   4.671   0.133   4.626
 5946TIP3    H117779   4.741   0.199   4.624
 5946TIP3    H217780   4.609   0.162   4.560
 5947TIP3   OH217781   4.500   0.203   4.424
 5947TIP3    H117782   4.419   0.158   4.398
 5947TIP3    H217783   4.543   0.225   4.342
 5948TIP3   OH217784   5.642   1.847   5.394
 5948TIP3    H117785   5.638   1.869   5.301
 5948TIP3    H217786   5.720   1.893   5.425
 5949TIP3   OH217787   4.579   0.980   5.814
 5949TIP3    H117788   4.662   0.989   5.862
 5949TIP3    H217789   4.513   0.966   5.882
 5950TIP3   OH217790   5.061   0.454   5.061
 5950TIP3    H117791   5.100   0.371   5.034
 5950TIP3    H217792   5.049   0.445   5.156
 5951TIP3   OH217793   5.012   0.417   5.326
 5951TIP3    H117794   4.924   0.410   5.363
 5951TIP3    H217795   5.064   0.457   5.396
 5952TIP3   OH217796   4.736   0.697   4.437
 5952TIP3    H117797   4.667   0.632   4.425
 5952TIP3    H217798   4.720   0.733   4.524
 5953TIP3   OH217799   5.646   0.939   5.058
 5953TIP3    H117800   5.677   0.988   4.981
 5953TIP3    H217801   5.560   0.906   5.032
 5954TIP3   OH217802   5.140   0.084   4.232
 5954TIP3    H117803   5.094   0.009   4.269
 5954TIP3    H217804   5.151   0.144   4.306
 5955TIP3   OH217805   5.161   1.010   5.468
 5955TIP3    H117806   5.215   1.004   5.546
 5955TIP3    H217807   5.123   1.098   5.472
 5956TIP3   OH217808   5.250   0.238   4.427
 5956TIP3    H117809   5.291   0.219   4.511
 5956TIP3    H217810   5.314   0.290   4.380
 5957TIP3   OH217811   4.447   0.708   5.110
 5957TIP3    H117812   4.475   0.692   5.020
 5957TIP3    H217813   4.518   0.673   5.164
 5958TIP3   OH217814   4.905   0.842   4.277
 5958TIP3    H117815   4.863   0.927   4.274
 5958TIP3    H217816   4.847   0.787   4.330
 5959TIP3   OH217817   4.331   0.661   5.722
 5959TIP3    H117818   4.364   0.645   5.810
 5959TIP3    H217819   4.257   0.601   5.714
 5960TIP3   OH217820   5.047   0.772   5.754
 5960TIP3    H117821   4.985   0.733   5.692
 5960TIP3    H217822   5.133   0.743   5.724
 5961TIP3   OH217823   5.307   1.295   5.349
 5961TIP3    H117824   5.211   1.287   5.355
 5961TIP3    H217825   5.332   1.339   5.430
 5962TIP3   OH217826   5.727   0.383   4.232
 5962TIP3    H117827   5.781   0.320   4.185
 5962TIP3    H217828   5.717   0.456   4.171
 5963TIP3   OH217829   5.947   1.249   5.319
 5963TIP3    H117830   5.854   1.229   5.326
 5963TIP3    H217831   5.971   1.220   5.231
 5964TIP3   OH217832   5.430   1.167   4.173
 5964TIP3    H117833   5.407   1.100   4.237
 5964TIP3    H217834   5.449   1.118   4.093
 5965TIP3   OH217835   5.399   0.832   4.972
 5965TIP3    H117836   5.310   0.804   4.991
 5965TIP3    H217837   5.439   0.758   4.926
 5966TIP3   OH217838   4.568   1.038   4.764
 5966TIP3    H117839   4.564   1.116   4.708
 5966TIP3    H217840   4.476   1.022   4.788
 5967TIP3   OH217841   4.105   0.386   4.432
 5967TIP3    H117842   4.156   0.459   4.468
 5967TIP3    H217843   4.026   0.383   4.485
 5968TIP3   OH217844   4.670   0.799   4.676
 5968TIP3    H117845   4.650   0.889   4.702
 5968TIP3    H217846   4.635   0.745   4.747
 5969TIP3   OH217847   4.849   1.359   5.219
 5969TIP3    H117848   4.884   1.432   5.169
 5969TIP3    H217849   4.923   1.326   5.270
 5970TIP3   OH217850   4.482   1.261   4.612
 5970TIP3    H117851   4.395   1.267   4.653
 5970TIP3    H217852   4.517   1.350   4.616
 5971TIP3   OH217853   5.202   1.017   5.193
 5971TIP3    H117854   5.194   1.008   5.288
 5971TIP3    H217855   5.281   0.968   5.171
 5972TIP3   OH217856   5.182   0.898   4.069
 5972TIP3    H117857   5.240   0.867   4.138
 5972TIP3    H217858   5.094   0.878   4.101
 5973TIP3   OH217859   5.458   1.521   5.231
 5973TIP3    H117860   5.383   1.462   5.240
 5973TIP3    H217861   5.433   1.580   5.159
 5974TIP3   OH217862   5.513   1.365   3.874
 5974TIP3    H117863   5.542   1.428   3.808
 5974TIP3    H217864   5.440   1.407   3.918
 5975TIP3   OH217865   5.359   0.792   4.245
 5975TIP3    H117866   5.345   0.754   4.332
 5975TIP3    H217867   5.452   0.814   4.243
 5976TIP3   OH217868   4.274   1.254   5.383
 5976TIP3    H117869   4.328   1.192   5.432
 5976TIP3    H217870   4.297   1.340   5.418
 5977TIP3   OH217871   4.550   0.869   4.069
 5977TIP3    H117872   4.565   0.777   4.048
 5977TIP3    H217873   4.534   0.869   4.164
 5978TIP3   OH217874   4.495   0.881   4.340
 5978TIP3    H117875   4.566   0.849   4.396
 5978TIP3    H217876   4.496   0.976   4.352
 5979TIP3   OH217877   4.222   0.601   4.553
 5979TIP3    H117878   4.155   0.644   4.607
 5979TIP3    H217879   4.241   0.664   4.484
 5980TIP3   OH217880   4.762   1.070   4.277
 5980TIP3    H117881   4.680   1.092   4.320
 5980TIP3    H217882   4.782   1.146   4.222
 5981TIP3   OH217883   5.133   0.066   4.659
 5981TIP3    H117884   5.077   0.111   4.596
 5981TIP3    H217885   5.078   0.050   4.735
 5982TIP3   OH217886   5.231   0.465   5.495
 5982TIP3    H117887   5.239   0.526   5.568
 5982TIP3    H217888   5.271   0.384   5.528
 5983TIP3   OH217889   4.512   1.152   4.362
 5983TIP3    H117890   4.489   1.221   4.300
 5983TIP3    H217891   4.500   1.192   4.448
 5984TIP3   OH217892   5.507   0.607   4.853
 5984TIP3    H117893   5.431   0.550   4.864
 5984TIP3    H217894   5.573   0.572   4.913
 5985TIP3   OH217895   4.239   0.769   4.331
 5985TIP3    H117896   4.311   0.831   4.340
 5985TIP3    H217897   4.273   0.701   4.274
 5986TIP3   OH217898   4.175   0.135   4.503
 5986TIP3    H117899   4.163   0.227   4.481
 5986TIP3    H217900   4.107   0.089   4.454
 5987TIP3   OH217901   5.485   1.512   4.805
 5987TIP3    H117902   5.443   1.562   4.735
 5987TIP3    H217903   5.579   1.526   4.792
 5988TIP3   OH217904   4.080   1.015   4.741
 5988TIP3    H117905   4.037   1.053   4.818
 5988TIP3    H217906   4.040   1.060   4.667
 5989TIP3   OH217907   4.276   1.546   5.811
 5989TIP3    H117908   4.347   1.545   5.875
 5989TIP3    H217909   4.268   1.456   5.781
 5990TIP3   OH217910   4.686   1.509   5.852
 5990TIP3    H117911   4.779   1.511   5.874
 5990TIP3    H217912   4.680   1.443   5.783
 5991TIP3   OH217913   4.691   1.070   3.944
 5991TIP3    H117914   4.651   0.999   3.995
 5991TIP3    H217915   4.768   1.029   3.903
 5992TIP3   OH217916   5.364   1.411   5.590
 5992TIP3    H117917   5.371   1.341   5.655
 5992TIP3    H217918   5.439   1.468   5.608
 5993TIP3   OH217919   5.135   1.101   3.885
 5993TIP3    H117920   5.169   1.037   3.948
 5993TIP3    H217921   5.197   1.097   3.812
 5994TIP3   OH217922   4.373   0.987   6.010
 5994TIP3    H117923   4.394   0.899   6.039
 5994TIP3    H217924   4.290   0.977   5.962
 5995TIP3   OH217925   4.371   0.570   4.201
 5995TIP3    H117926   4.419   0.545   4.280
 5995TIP3    H217927   4.438   0.582   4.135
 5996TIP3   OH217928   4.995   1.044   5.778
 5996TIP3    H117929   4.951   1.067   5.696
 5996TIP3    H217930   5.023   0.953   5.766
 5997TIP3   OH217931   4.898   0.783   4.006
 5997TIP3    H117932   4.889   0.796   4.100
 5997TIP3    H217933   4.898   0.688   3.994
 5998TIP3   OH217934   5.470   1.069   5.374
 5998TIP3    H117935   5.548   1.102   5.329
 5998TIP3    H217936   5.405   1.138   5.362
 5999TIP3   OH217937   4.492   0.710   5.973
 5999TIP3    H117938   4.544   0.635   5.943
 5999TIP3    H217939   4.527   0.731   6.059
 6000TIP3   OH217940   4.539   0.505   4.419
 6000TIP3    H117941   4.509   0.496   4.510
 6000TIP3    H217942   4.560   0.416   4.392
 6001TIP3   OH217943   4.795   0.563   5.599
 6001TIP3    H117944   4.728   0.627   5.624
 6001TIP3    H217945   4.862   0.614   5.554
 6002TIP3   OH217946   4.651   0.318   4.226
 6002TIP3    H117947   4.620   0.333   4.137
 6002TIP3    H217948   4.731   0.370   4.233
 6003TIP3   OH217949   5.357   0.954   5.733
 6003TIP3    H117950   5.450   0.940   5.712
 6003TIP3    H217951   5.348   0.922   5.823
 6004TIP3   OH217952   5.504   0.640   3.890
 6004TIP3    H117953   5.486   0.597   3.807
 6004TIP3    H217954   5.465   0.728   3.881
 6005TIP3   OH217955   4.980   0.358   5.654
 6005TIP3    H117956   4.932   0.279   5.628
 6005TIP3    H217957   4.916   0.428   5.650
 6006TIP3   OH217958   4.990   0.703   5.469
 6006TIP3    H117959   5.080   0.727   5.445
 6006TIP3    H217960   4.935   0.757   5.413
 6007TIP3   OH217961   5.598   0.707   5.794
 6007TIP3    H117962   5.611   0.661   5.876
 6007TIP3    H217963   5.635   0.794   5.810
 6008TIP3   OH217964   5.602   0.913   5.550
 6008TIP3    H117965   5.539   0.968   5.501
 6008TIP3    H217966   5.687   0.934   5.511
 6009TIP3   OH217967   4.774   0.527   5.994
 6009TIP3    H117968   4.718   0.481   6.056
 6009TIP3    H217969   4.819   0.458   5.946
 6010TIP3   OH217970   5.226   0.378   5.783
 6010TIP3    H117971   5.232   0.298   5.835
 6010TIP3    H217972   5.142   0.371   5.738
 6011TIP3   OH217973   4.497   1.352   4.171
 6011TIP3    H117974   4.588   1.335   4.146
 6011TIP3    H217975   4.461   1.404   4.100
 6012TIP3   OH217976   3.968   0.747   4.366
 6012TIP3    H117977   4.062   0.763   4.357
 6012TIP3    H217978   3.954   0.662   4.324
 6013TIP3   OH217979   3.877   1.328   4.813
 6013TIP3    H117980   3.811   1.274   4.769
 6013TIP3    H217981   3.921   1.268   4.873
 6014TIP3   OH217982   4.018   1.163   4.985
 6014TIP3    H117983   4.008   1.097   5.053
 6014TIP3    H217984   4.069   1.233   5.026
 6015TIP3   OH217985   5.755   1.568   4.795
 6015TIP3    H117986   5.770   1.600   4.884
 6015TIP3    H217987   5.804   1.627   4.739
 6016TIP3   OH217988   5.767   1.606   5.075
 6016TIP3    H117989   5.724   1.520   5.073
 6016TIP3    H217990   5.839   1.595   5.137
 6017TIP3   OH217991   5.811   1.305   5.642
 6017TIP3    H117992   5.743   1.313   5.708
 6017TIP3    H217993   5.859   1.387   5.647
 6018TIP3   OH217994   5.632   0.831   4.239
 6018TIP3    H117995   5.692   0.900   4.209
 6018TIP3    H217996   5.667   0.804   4.324
 6019TIP3   OH217997   5.743   0.726   4.462
 6019TIP3    H117998   5.680   0.675   4.513
 6019TIP3    H217999   5.812   0.749   4.525
 6020TIP3   OH218000   5.811   1.077   4.883
 6020TIP3    H118001   5.869   1.012   4.845
 6020TIP3    H218002   5.812   1.150   4.821
 6021TIP3   OH218003   5.633   1.359   5.087
 6021TIP3    H118004   5.565   1.405   5.136
 6021TIP3    H218005   5.587   1.318   5.014
 6022TIP3   OH218006   5.690   0.612   4.083
 6022TIP3    H118007   5.627   0.619   4.011
 6022TIP3    H218008   5.671   0.687   4.139
 6023TIP3   OH218009   5.499   0.275   4.004
 6023TIP3    H118010   5.583   0.270   3.958
 6023TIP3    H218011   5.518   0.238   4.091
 6024TIP3   OH218012   5.567   0.563   4.590
 6024TIP3    H118013   5.595   0.471   4.586
 6024TIP3    H218014   5.554   0.579   4.683
 6025TIP3   OH218015   4.211   0.615   5.370
 6025TIP3    H118016   4.194   0.587   5.280
 6025TIP3    H218017   4.302   0.590   5.386
 6026TIP3   OH218018   5.838   0.975   5.434
 6026TIP3    H118019   5.912   0.920   5.408
 6026TIP3    H218020   5.822   1.030   5.357
 6027TIP3   OH218021   6.043   0.790   5.440
 6027TIP3    H118022   5.968   0.741   5.472
 6027TIP3    H218023   6.112   0.772   5.503
 6028TIP3   OH218024   5.638   0.300   4.535
 6028TIP3    H118025   5.615   0.223   4.483
 6028TIP3    H218026   5.730   0.316   4.513
 6029TIP3   OH218027   5.705   0.503   5.006
 6029TIP3    H118028   5.789   0.514   4.962
 6029TIP3    H218029   5.722   0.526   5.097
 6030TIP3   OH218030   5.796   0.614   5.242
 6030TIP3    H118031   5.713   0.643   5.281
 6030TIP3    H218032   5.831   0.692   5.199
 6031TIP3   OH218033   4.379   0.393   6.149
 6031TIP3    H118034   4.449   0.349   6.102
 6031TIP3    H218035   4.336   0.324   6.199
 6032TIP3   OH218036   4.155   0.301   5.414
 6032TIP3    H118037   4.211   0.314   5.338
 6032TIP3    H218038   4.214   0.304   5.489
 6033TIP3   OH218039   5.313   1.474   4.436
 6033TIP3    H118040   5.370   1.468   4.360
 6033TIP3    H218041   5.351   1.543   4.489
 6034TIP3   OH218042   4.412   1.277   5.812
 6034TIP3    H118043   4.320   1.250   5.814
 6034TIP3    H218044   4.453   1.228   5.884
 6035TIP3   OH218045   4.621   1.319   5.369
 6035TIP3    H118046   4.569   1.391   5.335
 6035TIP3    H218047   4.705   1.327   5.325
 6036TIP3   OH218048   5.026   1.552   5.505
 6036TIP3    H118049   5.063   1.545   5.593
 6036TIP3    H218050   5.090   1.604   5.456
 6037TIP3   OH218051   5.217   1.705   5.378
 6037TIP3    H118052   5.283   1.654   5.330
 6037TIP3    H218053   5.268   1.764   5.434
 6038TIP3   OH218054   4.280   1.557   5.421
 6038TIP3    H118055   4.190   1.577   5.397
 6038TIP3    H218056   4.304   1.625   5.484
 6039TIP3   OH218057   4.508   1.545   5.262
 6039TIP3    H118058   4.425   1.554   5.309
 6039TIP3    H218059   4.487   1.574   5.173
 6040TIP3   OH218060   4.930   1.566   5.053
 6040TIP3    H118061   4.860   1.580   4.989
 6040TIP3    H218062   4.943   1.652   5.094
 6041TIP3   OH218063   5.194   1.500   5.104
 6041TIP3    H118064   5.103   1.521   5.085
 6041TIP3    H218065   5.245   1.568   5.060
 6042TIP3   OH218066   5.393   1.675   5.007
 6042TIP3    H118067   5.392   1.763   4.970
 6042TIP3    H218068   5.424   1.619   4.936
 6043TIP3   OH218069   4.190   1.343   5.131
 6043TIP3    H118070   4.213   1.318   5.221
 6043TIP3    H218071   4.263   1.311   5.078
 6044TIP3   OH218072   4.394   1.227   4.995
 6044TIP3    H118073   4.405   1.144   5.041
 6044TIP3    H218074   4.481   1.267   4.997
 6045TIP3   OH218075   4.662   1.311   5.015
 6045TIP3    H118076   4.681   1.218   5.002
 6045TIP3    H218077   4.716   1.336   5.090
 6046TIP3   OH218078   3.969   1.138   4.525
 6046TIP3    H118079   3.885   1.103   4.497
 6046TIP3    H218080   3.971   1.228   4.492
 6047TIP3   OH218081   4.755   1.288   4.102
 6047TIP3    H118082   4.840   1.316   4.068
 6047TIP3    H218083   4.725   1.221   4.041
 6048TIP3   OH218084   5.467   1.435   4.207
 6048TIP3    H118085   5.458   1.340   4.199
 6048TIP3    H218086   5.423   1.470   4.129
 6049TIP3   OH218087   4.062   1.139   4.170
 6049TIP3    H118088   4.067   1.154   4.264
 6049TIP3    H218089   4.143   1.093   4.148
 6050TIP3   OH218090   5.683   1.574   5.393
 6050TIP3    H118091   5.607   1.543   5.344
 6050TIP3    H218092   5.669   1.668   5.404
 6051TIP3   OH218093   6.943   0.978   4.168
 6051TIP3    H118094   6.927   1.069   4.143
 6051TIP3    H218095   6.873   0.929   4.125
 6052TIP3   OH218096   6.974   0.995   4.544
 6052TIP3    H118097   7.008   0.912   4.576
 6052TIP3    H218098   6.916   0.971   4.472
 6053TIP3   OH218099   6.255   0.828   4.912
 6053TIP3    H118100   6.258   0.791   5.000
 6053TIP3    H218101   6.335   0.881   4.906
 6054TIP3   OH218102   7.217   1.266   4.229
 6054TIP3    H118103   7.207   1.204   4.301
 6054TIP3    H218104   7.246   1.347   4.271
 6055TIP3   OH218105   6.247   1.258   4.612
 6055TIP3    H118106   6.229   1.164   4.620
 6055TIP3    H218107   6.342   1.262   4.599
 6056TIP3   OH218108   5.935   0.604   4.304
 6056TIP3    H118109   5.865   0.650   4.349
 6056TIP3    H218110   5.892   0.526   4.267
 6057TIP3   OH218111   5.983   0.764   4.592
 6057TIP3    H118112   6.033   0.691   4.629
 6057TIP3    H218113   6.036   0.794   4.518
 6058TIP3   OH218114   6.875   1.691   4.243
 6058TIP3    H118115   6.905   1.629   4.177
 6058TIP3    H218116   6.871   1.641   4.324
 6059TIP3   OH218117   7.121   0.760   4.616
 6059TIP3    H118118   7.175   0.705   4.673
 6059TIP3    H218119   7.142   0.730   4.527
 6060TIP3   OH218120   6.476   0.318   4.589
 6060TIP3    H118121   6.543   0.313   4.521
 6060TIP3    H218122   6.479   0.232   4.632
 6061TIP3   OH218123   7.167   0.313   4.337
 6061TIP3    H118124   7.256   0.282   4.323
 6061TIP3    H218125   7.147   0.367   4.260
 6062TIP3   OH218126   6.138   0.571   4.729
 6062TIP3    H118127   6.218   0.557   4.779
 6062TIP3    H218128   6.163   0.556   4.637
 6063TIP3   OH218129   6.578   0.777   4.497
 6063TIP3    H118130   6.673   0.772   4.503
 6063TIP3    H218131   6.555   0.717   4.427
 6064TIP3   OH218132   7.847   0.731   4.711
 6064TIP3    H118133   7.764   0.772   4.733
 6064TIP3    H218134   7.848   0.650   4.762
 6065TIP3   OH218135   6.825   1.178   4.021
 6065TIP3    H118136   6.801   1.157   3.931
 6065TIP3    H218137   6.780   1.261   4.039
 6066TIP3   OH218138   6.354   0.434   4.862
 6066TIP3    H118139   6.430   0.487   4.838
 6066TIP3    H218140   6.364   0.354   4.811
 6067TIP3   OH218141   6.439   1.283   4.870
 6067TIP3    H118142   6.419   1.371   4.839
 6067TIP3    H218143   6.362   1.259   4.923
 6068TIP3   OH218144   5.816   1.011   4.136
 6068TIP3    H118145   5.786   1.030   4.048
 6068TIP3    H218146   5.841   1.096   4.172
 6069TIP3   OH218147   7.266   1.506   4.377
 6069TIP3    H118148   7.176   1.495   4.408
 6069TIP3    H218149   7.265   1.589   4.330
 6070TIP3   OH218150   6.965   1.533   4.034
 6070TIP3    H118151   7.014   1.452   4.020
 6070TIP3    H218152   7.024   1.602   4.004
 6071TIP3   OH218153   7.119   1.317   3.976
 6071TIP3    H118154   7.116   1.237   3.923
 6071TIP3    H218155   7.156   1.290   4.060
 6072TIP3   OH218156   7.487   1.398   4.729
 6072TIP3    H118157   7.479   1.326   4.666
 6072TIP3    H218158   7.474   1.477   4.677
 6073TIP3   OH218159   6.780   0.843   3.986
 6073TIP3    H118160   6.694   0.880   3.968
 6073TIP3    H218161   6.823   0.839   3.900
 6074TIP3   OH218162   6.713   0.654   3.718
 6074TIP3    H118163   6.798   0.689   3.746
 6074TIP3    H218164   6.733   0.566   3.688
 6075TIP3   OH218165   7.686   1.067   4.568
 6075TIP3    H118166   7.596   1.101   4.571
 6075TIP3    H218167   7.714   1.081   4.478
 6076TIP3   OH218168   7.123   0.910   3.962
 6076TIP3    H118169   7.074   0.934   4.040
 6076TIP3    H218170   7.208   0.881   3.994
 6077TIP3   OH218171   7.360   0.968   4.858
 6077TIP3    H118172   7.346   1.060   4.883
 6077TIP3    H218173   7.272   0.935   4.840
 6078TIP3   OH218174   6.342   0.880   4.366
 6078TIP3    H118175   6.307   0.820   4.300
 6078TIP3    H218176   6.424   0.839   4.395
 6079TIP3   OH218177   6.498   1.301   4.477
 6079TIP3    H118178   6.447   1.291   4.397
 6079TIP3    H218179   6.582   1.258   4.458
 6080TIP3   OH218180   6.502   0.880   4.742
 6080TIP3    H118181   6.529   0.853   4.654
 6080TIP3    H218182   6.519   0.974   4.745
 6081TIP3   OH218183   7.020   1.488   4.496
 6081TIP3    H118184   7.003   1.566   4.549
 6081TIP3    H218185   7.010   1.415   4.557
 6082TIP3   OH218186   6.619   1.353   5.057
 6082TIP3    H118187   6.570   1.418   5.107
 6082TIP3    H218188   6.553   1.305   5.007
 6083TIP3   OH218189   6.957   0.776   3.777
 6083TIP3    H118190   7.024   0.809   3.838
 6083TIP3    H218191   7.001   0.775   3.692
 6084TIP3   OH218192   6.389   0.999   5.137
 6084TIP3    H118193   6.406   1.075   5.192
 6084TIP3    H218194   6.298   0.977   5.155
 6085TIP3   OH218195   6.710   1.430   4.051
 6085TIP3    H118196   6.797   1.469   4.052
 6085TIP3    H218197   6.657   1.490   3.998
 6086TIP3   OH218198   6.447   1.551   5.139
 6086TIP3    H118199   6.415   1.562   5.049
 6086TIP3    H218200   6.368   1.536   5.191
 6087TIP3   OH218201   6.212   0.711   4.174
 6087TIP3    H118202   6.150   0.771   4.131
 6087TIP3    H218203   6.159   0.638   4.203
 6088TIP3   OH218204   7.305   1.351   3.392
 6088TIP3    H118205   7.303   1.445   3.374
 6088TIP3    H218206   7.394   1.324   3.370
 6089TIP3   OH218207   6.005   1.153   5.070
 6089TIP3    H118208   5.936   1.128   5.008
 6089TIP3    H218209   6.041   1.070   5.101
 6090TIP3   OH218210   5.864   1.312   4.734
 6090TIP3    H118211   5.956   1.330   4.750
 6090TIP3    H218212   5.818   1.390   4.766
 6091TIP3   OH218213   7.730   1.770   4.786
 6091TIP3    H118214   7.733   1.674   4.793
 6091TIP3    H218215   7.647   1.794   4.826
 6092TIP3   OH218216   6.777   1.579   4.970
 6092TIP3    H118217   6.813   1.666   4.951
 6092TIP3    H218218   6.746   1.585   5.061
 6093TIP3   OH218219   6.610   1.644   3.871
 6093TIP3    H118220   6.566   1.626   3.788
 6093TIP3    H218221   6.577   1.729   3.898
 6094TIP3   OH218222   6.044   1.499   4.243
 6094TIP3    H118223   6.087   1.493   4.328
 6094TIP3    H218224   5.994   1.417   4.236
 6095TIP3   OH218225   6.812   1.572   3.496
 6095TIP3    H118226   6.862   1.499   3.460
 6095TIP3    H218227   6.847   1.585   3.584
 6096TIP3   OH218228   6.864   1.617   3.765
 6096TIP3    H118229   6.779   1.620   3.809
 6096TIP3    H218230   6.924   1.584   3.832
 6097TIP3   OH218231   7.553   0.919   5.072
 6097TIP3    H118232   7.492   0.982   5.034
 6097TIP3    H218233   7.534   0.837   5.026
 6098TIP3   OH218234   6.235   1.301   5.054
 6098TIP3    H118235   6.276   1.292   5.141
 6098TIP3    H218236   6.154   1.251   5.061
 6099TIP3   OH218237   7.475   0.681   4.962
 6099TIP3    H118238   7.429   0.651   5.040
 6099TIP3    H218239   7.415   0.662   4.890
 6100TIP3   OH218240   7.071   0.763   3.525
 6100TIP3    H118241   7.016   0.772   3.446
 6100TIP3    H218242   7.151   0.811   3.504
 6101TIP3   OH218243   6.552   0.636   4.857
 6101TIP3    H118244   6.524   0.633   4.948
 6101TIP3    H218245   6.526   0.723   4.827
 6102TIP3   OH218246   6.482   0.619   4.302
 6102TIP3    H118247   6.404   0.590   4.349
 6102TIP3    H218248   6.484   0.565   4.223
 6103TIP3   OH218249   6.960   0.678   4.103
 6103TIP3    H118250   6.904   0.748   4.070
 6103TIP3    H218251   6.964   0.614   4.032
 6104TIP3   OH218252   7.076   0.911   5.165
 6104TIP3    H118253   7.083   0.865   5.249
 6104TIP3    H218254   7.159   0.958   5.156
 6105TIP3   OH218255   7.101   0.691   4.338
 6105TIP3    H118256   7.047   0.722   4.266
 6105TIP3    H218257   7.055   0.614   4.371
 6106TIP3   OH218258   6.248   0.706   5.170
 6106TIP3    H118259   6.246   0.772   5.240
 6106TIP3    H218260   6.181   0.643   5.196
 6107TIP3   OH218261   6.037   0.336   4.227
 6107TIP3    H118262   6.119   0.289   4.214
 6107TIP3    H218263   5.999   0.344   4.139
 6108TIP3   OH218264   7.084   0.906   4.839
 6108TIP3    H118265   7.094   0.867   4.752
 6108TIP3    H218266   7.076   0.832   4.898
 6109TIP3   OH218267   6.108   0.481   4.475
 6109TIP3    H118268   6.053   0.522   4.408
 6109TIP3    H218269   6.180   0.442   4.427
 6110TIP3   OH218270   6.460   0.415   4.114
 6110TIP3    H118271   6.546   0.405   4.072
 6110TIP3    H218272   6.399   0.428   4.041
 6111TIP3   OH218273   6.293   0.426   3.903
 6111TIP3    H118274   6.225   0.384   3.850
 6111TIP3    H218275   6.343   0.479   3.841
 6112TIP3   OH218276   7.438   2.101   4.877
 6112TIP3    H118277   7.433   2.123   4.784
 6112TIP3    H218278   7.516   2.149   4.908
 6113TIP3   OH218279   6.393   1.225   5.300
 6113TIP3    H118280   6.469   1.239   5.358
 6113TIP3    H218281   6.318   1.229   5.359
 6114TIP3   OH218282   6.839   0.721   4.526
 6114TIP3    H118283   6.900   0.655   4.495
 6114TIP3    H218284   6.845   0.717   4.621
 6115TIP3   OH218285   6.817   0.670   4.793
 6115TIP3    H118286   6.728   0.666   4.828
 6115TIP3    H218287   6.872   0.686   4.869
 6116TIP3   OH218288   6.528   0.958   3.933
 6116TIP3    H118289   6.459   0.894   3.921
 6116TIP3    H218290   6.515   0.992   4.022
 6117TIP3   OH218291   7.448   1.204   4.545
 6117TIP3    H118292   7.481   1.250   4.468
 6117TIP3    H218293   7.364   1.167   4.517
 6118TIP3   OH218294   6.927   0.345   3.694
 6118TIP3    H118295   6.887   0.267   3.734
 6118TIP3    H218296   6.949   0.401   3.769
 6119TIP3   OH218297   6.931   1.294   4.974
 6119TIP3    H118298   6.971   1.232   5.034
 6119TIP3    H218299   7.004   1.343   4.936
 6120TIP3   OH218300   7.012   0.486   3.906
 6120TIP3    H118301   7.057   0.451   3.983
 6120TIP3    H218302   7.076   0.548   3.869
 6121TIP3   OH218303   6.250   0.980   4.608
 6121TIP3    H118304   6.276   0.949   4.522
 6121TIP3    H218305   6.281   0.913   4.669
 6122TIP3   OH218306   6.699   1.100   3.773
 6122TIP3    H118307   6.657   1.186   3.771
 6122TIP3    H218308   6.640   1.046   3.827
 6123TIP3   OH218309   6.115   0.951   5.221
 6123TIP3    H118310   6.129   0.927   5.313
 6123TIP3    H218311   6.048   0.890   5.191
 6124TIP3   OH218312   6.834   1.016   5.238
 6124TIP3    H118313   6.768   0.962   5.195
 6124TIP3    H218314   6.917   0.985   5.203
 6125TIP3   OH218315   7.079   1.515   4.875
 6125TIP3    H118316   7.045   1.577   4.811
 6125TIP3    H218317   7.110   1.569   4.947
 6126TIP3   OH218318   7.522   0.653   3.726
 6126TIP3    H118319   7.468   0.594   3.672
 6126TIP3    H218320   7.520   0.736   3.680
 6127TIP3   OH218321   7.735   1.491   4.808
 6127TIP3    H118322   7.641   1.476   4.811
 6127TIP3    H218323   7.763   1.453   4.725
 6128TIP3   OH218324   7.227   1.420   3.655
 6128TIP3    H118325   7.200   1.349   3.713
 6128TIP3    H218326   7.246   1.378   3.572
 6129TIP3   OH218327   7.214   1.097   4.449
 6129TIP3    H118328   7.128   1.067   4.481
 6129TIP3    H218329   7.249   1.021   4.402
 6130TIP3   OH218330   6.347   1.292   4.248
 6130TIP3    H118331   6.349   1.369   4.191
 6130TIP3    H218332   6.254   1.272   4.259
 6131TIP3   OH218333   5.919   0.632   3.928
 6131TIP3    H118334   5.972   0.706   3.957
 6131TIP3    H218335   5.841   0.635   3.984
 6132TIP3   OH218336   6.462   1.050   4.178
 6132TIP3    H118337   6.437   1.140   4.197
 6132TIP3    H218338   6.420   0.998   4.247
 6133TIP3   OH218339   6.638   1.622   4.709
 6133TIP3    H118340   6.670   1.688   4.647
 6133TIP3    H218341   6.688   1.638   4.789
 6134TIP3   OH218342   6.278   1.518   4.099
 6134TIP3    H118343   6.191   1.525   4.138
 6134TIP3    H218344   6.313   1.607   4.102
 6135TIP3   OH218345   7.015   1.260   4.668
 6135TIP3    H118346   7.098   1.248   4.714
 6135TIP3    H218347   7.000   1.177   4.623
 6136TIP3   OH218348   6.990   1.156   3.555
 6136TIP3    H118349   7.036   1.140   3.637
 6136TIP3    H218350   6.903   1.118   3.568
 6137TIP3   OH218351   7.249   1.789   4.709
 6137TIP3    H118352   7.163   1.749   4.698
 6137TIP3    H218353   7.255   1.855   4.640
 6138TIP3   OH218354   7.312   1.625   3.358
 6138TIP3    H118355   7.338   1.690   3.293
 6138TIP3    H218356   7.238   1.666   3.404
 6139TIP3   OH218357   7.155   1.108   3.774
 6139TIP3    H118358   7.136   1.036   3.834
 6139TIP3    H218359   7.250   1.103   3.759
 6140TIP3   OH218360   6.073   1.504   4.864
 6140TIP3    H118361   6.129   1.444   4.912
 6140TIP3    H218362   6.083   1.588   4.909
 6141TIP3   OH218363   6.346   1.128   3.558
 6141TIP3    H118364   6.355   1.036   3.532
 6141TIP3    H218365   6.328   1.125   3.652
 6142TIP3   OH218366   6.291   1.137   3.829
 6142TIP3    H118367   6.367   1.106   3.878
 6142TIP3    H218368   6.293   1.232   3.839
 6143TIP3   OH218369   6.027   0.860   4.040
 6143TIP3    H118370   5.958   0.901   4.092
 6143TIP3    H218371   6.043   0.921   3.969
 6144TIP3   OH218372   6.560   1.331   3.773
 6144TIP3    H118373   6.475   1.354   3.811
 6144TIP3    H218374   6.582   1.405   3.717
 6145TIP3   OH218375   6.894   0.298   4.145
 6145TIP3    H118376   6.845   0.379   4.154
 6145TIP3    H218377   6.872   0.248   4.224
 6146TIP3   OH218378   6.997   0.705   5.002
 6146TIP3    H118379   7.013   0.778   5.061
 6146TIP3    H218380   7.024   0.628   5.052
 6147TIP3   OH218381   6.307   1.409   3.849
 6147TIP3    H118382   6.284   1.478   3.786
 6147TIP3    H218383   6.295   1.450   3.935
 6148TIP3   OH218384   7.310   0.872   4.331
 6148TIP3    H118385   7.245   0.803   4.348
 6148TIP3    H218386   7.383   0.852   4.390
 6149TIP3   OH218387   6.034   1.027   3.818
 6149TIP3    H118388   6.106   1.089   3.827
 6149TIP3    H218389   6.067   0.959   3.759
 6150TIP3   OH218390   5.900   0.369   3.994
 6150TIP3    H118391   5.916   0.457   3.960
 6150TIP3    H218392   5.841   0.328   3.930
 6151TIP3   OH218393   7.283   1.769   4.290
 6151TIP3    H118394   7.239   1.817   4.221
 6151TIP3    H218395   7.376   1.788   4.277
 6152TIP3   OH218396   5.874   1.273   4.224
 6152TIP3    H118397   5.831   1.310   4.301
 6152TIP3    H218398   5.831   1.316   4.150
 6153TIP3   OH218399   6.059   1.806   5.286
 6153TIP3    H118400   6.141   1.808   5.336
 6153TIP3    H218401   6.034   1.714   5.286
 6154TIP3   OH218402   6.524   1.737   5.335
 6154TIP3    H118403   6.619   1.733   5.347
 6154TIP3    H218404   6.506   1.673   5.266
 6155TIP3   OH218405   6.504   1.327   3.453
 6155TIP3    H118406   6.456   1.256   3.496
 6155TIP3    H218407   6.578   1.284   3.410
 6156TIP3   OH218408   7.161   1.670   5.082
 6156TIP3    H118409   7.165   1.602   5.149
 6156TIP3    H218410   7.238   1.724   5.099
 6157TIP3   OH218411   6.941   1.362   3.376
 6157TIP3    H118412   6.975   1.298   3.438
 6157TIP3    H218413   6.999   1.356   3.300
 6158TIP3   OH218414   6.175   1.228   5.473
 6158TIP3    H118415   6.178   1.147   5.523
 6158TIP3    H218416   6.090   1.227   5.430
 6159TIP3   OH218417   6.164   0.827   3.687
 6159TIP3    H118418   6.214   0.806   3.766
 6159TIP3    H218419   6.231   0.839   3.619
 6160TIP3   OH218420   6.790   1.287   5.265
 6160TIP3    H118421   6.727   1.295   5.194
 6160TIP3    H218422   6.821   1.197   5.260
 6161TIP3   OH218423   6.720   1.046   3.506
 6161TIP3    H118424   6.702   1.057   3.599
 6161TIP3    H218425   6.706   0.952   3.490
 6162TIP3   OH218426   7.250   1.303   4.842
 6162TIP3    H118427   7.332   1.333   4.802
 6162TIP3    H218428   7.197   1.382   4.851
 6163TIP3   OH218429   6.333   0.918   5.454
 6163TIP3    H118430   6.418   0.874   5.453
 6163TIP3    H218431   6.339   0.981   5.526
 6164TIP3   OH218432   6.330   0.766   3.911
 6164TIP3    H118433   6.303   0.734   3.997
 6164TIP3    H218434   6.368   0.690   3.867
 6165TIP3   OH218435   6.629   0.862   5.088
 6165TIP3    H118436   6.545   0.907   5.101
 6165TIP3    H218437   6.668   0.907   5.013
 6166TIP3   OH218438   6.444   0.584   3.733
 6166TIP3    H118439   6.419   0.595   3.642
 6166TIP3    H218440   6.533   0.621   3.738
 6167TIP3   OH218441   7.149   1.215   5.234
 6167TIP3    H118442   7.231   1.184   5.197
 6167TIP3    H218443   7.146   1.177   5.322
 6168TIP3   OH218444   7.279   0.882   3.386
 6168TIP3    H118445   7.254   0.837   3.306
 6168TIP3    H218446   7.248   0.972   3.374
 6169TIP3   OH218447   6.748   0.638   5.192
 6169TIP3    H118448   6.755   0.573   5.122
 6169TIP3    H218449   6.703   0.713   5.152
 6170TIP3   OH218450   6.805   0.978   4.904
 6170TIP3    H118451   6.887   0.929   4.899
 6170TIP3    H218452   6.817   1.051   4.843
 6171TIP3   OH218453   7.338   0.990   5.295
 6171TIP3    H118454   7.361   0.925   5.361
 6171TIP3    H218455   7.410   1.053   5.298
 6172TIP3   OH218456   7.384   1.191   5.052
 6172TIP3    H118457   7.324   1.236   4.992
 6172TIP3    H218458   7.470   1.203   5.013
 6173TIP3   OH218459   6.582   0.771   5.468
 6173TIP3    H118460   6.556   0.679   5.471
 6173TIP3    H218461   6.650   0.775   5.401
 6174TIP3   OH218462   7.017   0.578   5.246
 6174TIP3    H118463   7.043   0.553   5.335
 6174TIP3    H218464   6.923   0.597   5.253
 6175TIP3   OH218465   6.295   1.612   3.661
 6175TIP3    H118466   6.387   1.598   3.637
 6175TIP3    H218467   6.258   1.661   3.587
 6176TIP3   OH218468   5.763   0.999   3.851
 6176TIP3    H118469   5.856   1.016   3.841
 6176TIP3    H218470   5.750   0.915   3.807
 6177TIP3   OH218471   5.675   1.587   4.299
 6177TIP3    H118472   5.609   1.534   4.254
 6177TIP3    H218473   5.718   1.526   4.359
 6178TIP3   OH218474   5.815   1.420   4.470
 6178TIP3    H118475   5.805   1.354   4.539
 6178TIP3    H218476   5.865   1.491   4.512
 6179TIP3   OH218477   7.543   1.849   4.268
 6179TIP3    H118478   7.570   1.881   4.354
 6179TIP3    H218479   7.613   1.877   4.209
 6180TIP3   OH218480   7.558   1.871   4.555
 6180TIP3    H118481   7.526   1.781   4.554
 6180TIP3    H218482   7.645   1.865   4.593
 6181TIP3   OH218483   7.604   1.560   5.131
 6181TIP3    H118484   7.536   1.567   5.199
 6181TIP3    H218485   7.653   1.642   5.138
 6182TIP3   OH218486   7.431   1.086   3.741
 6182TIP3    H118487   7.492   1.152   3.711
 6182TIP3    H218488   7.478   1.040   3.811
 6183TIP3   OH218489   7.571   0.941   3.928
 6183TIP3    H118490   7.500   0.903   3.980
 6183TIP3    H218491   7.625   0.987   3.992
 6184TIP3   OH218492   7.619   1.332   4.368
 6184TIP3    H118493   7.675   1.266   4.326
 6184TIP3    H218494   7.624   1.408   4.310
 6185TIP3   OH218495   7.431   1.618   4.575
 6185TIP3    H118496   7.362   1.668   4.617
 6185TIP3    H218497   7.388   1.578   4.499
 6186TIP3   OH218498   7.479   0.876   3.570
 6186TIP3    H118499   7.408   0.875   3.506
 6186TIP3    H218500   7.458   0.949   3.629
 6187TIP3   OH218501   7.317   0.532   3.582
 6187TIP3    H118502   7.262   0.583   3.522
 6187TIP3    H218503   7.341   0.454   3.532
 6188TIP3   OH218504   7.364   0.824   4.069
 6188TIP3    H118505   7.385   0.731   4.072
 6188TIP3    H218506   7.352   0.849   4.161
 6189TIP3   OH218507   5.993   0.873   4.843
 6189TIP3    H118508   5.980   0.842   4.754
 6189TIP3    H218509   6.087   0.863   4.859
 6190TIP3   OH218510   7.626   1.223   4.937
 6190TIP3    H118511   7.692   1.155   4.918
 6190TIP3    H218512   7.627   1.279   4.859
 6191TIP3   OH218513   7.819   1.038   4.902
 6191TIP3    H118514   7.768   0.964   4.868
 6191TIP3    H218515   7.889   0.997   4.953
 6192TIP3   OH218516   7.414   0.557   4.029
 6192TIP3    H118517   7.404   0.486   3.967
 6192TIP3    H218518   7.508   0.564   4.044
 6193TIP3   OH218519   7.525   0.810   4.483
 6193TIP3    H118520   7.612   0.794   4.447
 6193TIP3    H218521   7.488   0.723   4.498
 6194TIP3   OH218522   7.626   0.883   4.772
 6194TIP3    H118523   7.535   0.886   4.801
 6194TIP3    H218524   7.626   0.926   4.687
 6195TIP3   OH218525   6.220   0.680   5.643
 6195TIP3    H118526   6.265   0.625   5.580
 6195TIP3    H218527   6.242   0.644   5.729
 6196TIP3   OH218528   5.968   0.530   4.941
 6196TIP3    H118529   6.017   0.551   4.862
 6196TIP3    H218530   6.023   0.562   5.013
 6197TIP3   OH218531   7.109   1.731   3.924
 6197TIP3    H118532   7.167   1.721   3.848
 6197TIP3    H218533   7.150   1.799   3.977
 6198TIP3   OH218534   6.223   1.521   5.301
 6198TIP3    H118535   6.128   1.516   5.292
 6198TIP3    H218536   6.237   1.518   5.396
 6199TIP3   OH218537   6.411   1.565   4.853
 6199TIP3    H118538   6.353   1.636   4.827
 6199TIP3    H218539   6.490   1.577   4.802
 6200TIP3   OH218540   6.839   1.841   4.983
 6200TIP3    H118541   6.874   1.832   5.072
 6200TIP3    H218542   6.906   1.891   4.936
 6201TIP3   OH218543   7.033   1.978   4.851
 6201TIP3    H118544   7.102   1.936   4.801
 6201TIP3    H218545   7.079   2.034   4.913
 6202TIP3   OH218546   6.077   1.816   4.901
 6202TIP3    H118547   5.986   1.833   4.877
 6202TIP3    H218548   6.097   1.883   4.967
 6203TIP3   OH218549   6.306   1.799   4.749
 6203TIP3    H118550   6.224   1.808   4.797
 6203TIP3    H218551   6.286   1.829   4.660
 6204TIP3   OH218552   6.729   1.819   4.541
 6204TIP3    H118553   6.664   1.834   4.472
 6204TIP3    H218554   6.744   1.905   4.579
 6205TIP3   OH218555   6.994   1.748   4.601
 6205TIP3    H118556   6.903   1.768   4.582
 6205TIP3    H218557   7.044   1.812   4.549
 6206TIP3   OH218558   7.187   1.934   4.488
 6206TIP3    H118559   7.187   2.023   4.452
 6206TIP3    H218560   7.219   1.879   4.416
 6207TIP3   OH218561   5.985   1.601   4.616
 6207TIP3    H118562   6.008   1.575   4.705
 6207TIP3    H218563   6.057   1.568   4.562
 6208TIP3   OH218564   6.187   1.486   4.477
 6208TIP3    H118565   6.200   1.405   4.526
 6208TIP3    H218566   6.273   1.528   4.478
 6209TIP3   OH218567   6.455   1.576   4.494
 6209TIP3    H118568   6.476   1.485   4.476
 6209TIP3    H218569   6.504   1.597   4.574
 6210TIP3   OH218570   5.757   1.393   4.008
 6210TIP3    H118571   5.672   1.361   3.977
 6210TIP3    H218572   5.762   1.483   3.975
 6211TIP3   OH218573   6.557   1.552   3.599
 6211TIP3    H118574   6.640   1.580   3.562
 6211TIP3    H218575   6.528   1.480   3.542
 6212TIP3   OH218576   7.262   1.688   3.695
 6212TIP3    H118577   7.254   1.593   3.686
 6212TIP3    H218578   7.218   1.723   3.617
 6213TIP3   OH218579   5.855   1.389   3.652
 6213TIP3    H118580   5.859   1.411   3.745
 6213TIP3    H218581   5.938   1.346   3.634
 6214TIP3   OH218582   7.475   1.828   4.882
 6214TIP3    H118583   7.400   1.799   4.829
 6214TIP3    H218584   7.465   1.923   4.888
 6215TIP3   OH218585   8.088   1.152   4.377
 6215TIP3    H118586   8.067   1.148   4.471
 6215TIP3    H218587   8.166   1.207   4.373
 6216TIP3   OH218588   8.003   1.500   4.134
 6216TIP3    H118589   8.010   1.406   4.116
 6216TIP3    H218590   8.068   1.516   4.202
 6217TIP3   OH218591   7.816   0.792   3.909
 6217TIP3    H118592   7.737   0.841   3.885
 6217TIP3    H218593   7.842   0.748   3.828
 6218TIP3   OH218594   7.780   1.053   4.075
 6218TIP3    H118595   7.833   0.974   4.086
 6218TIP3    H218596   7.840   1.117   4.036
 6219TIP3   OH218597   7.945   0.832   4.144
 6219TIP3    H118598   8.039   0.814   4.145
 6219TIP3    H218599   7.918   0.814   4.054
 6220TIP3   OH218600   8.168   1.560   4.348
 6220TIP3    H118601   8.188   1.654   4.344
 6220TIP3    H218602   8.112   1.551   4.425
 6221TIP3   OH218603   7.615   1.261   3.626
 6221TIP3    H118604   7.577   1.283   3.541
 6221TIP3    H218605   7.636   1.346   3.665
 6222TIP3   OH218606   8.184   1.232   4.640
 6222TIP3    H118607   8.186   1.322   4.672
 6222TIP3    H218608   8.097   1.200   4.663
 6223TIP3   OH218609   8.215   1.821   4.649
 6223TIP3    H118610   8.203   1.823   4.555
 6223TIP3    H218611   8.129   1.797   4.684
 6224TIP3   OH218612   7.804   1.368   4.576
 6224TIP3    H118613   7.738   1.355   4.508
 6224TIP3    H218614   7.841   1.281   4.590
 6225TIP3   OH218615   7.702   1.550   4.212
 6225TIP3    H118616   7.792   1.538   4.184
 6225TIP3    H218617   7.704   1.627   4.270
 6226TIP3   OH218618   7.842   1.745   3.747
 6226TIP3    H118619   7.895   1.738   3.827
 6226TIP3    H218620   7.798   1.661   3.740
 6227TIP3   OH218621   7.992   1.567   4.557
 6227TIP3    H118622   8.046   1.548   4.633
 6227TIP3    H218623   7.923   1.501   4.560
 6228TIP3   OH218624   7.857   0.614   3.705
 6228TIP3    H118625   7.830   0.627   3.614
 6228TIP3    H218626   7.810   0.536   3.733
 6229TIP3   OH218627   8.160   1.476   4.766
 6229TIP3    H118628   8.223   1.547   4.777
 6229TIP3    H218629   8.101   1.485   4.842
 6230TIP3   OH218630   8.034   1.214   4.104
 6230TIP3    H118631   8.112   1.206   4.049
 6230TIP3    H218632   8.062   1.182   4.190
 6231TIP3   OH218633   7.931   1.131   4.667
 6231TIP3    H118634   7.929   1.118   4.762
 6231TIP3    H218635   7.850   1.091   4.636
 6232TIP3   OH218636   7.694   0.883   3.402
 6232TIP3    H118637   7.751   0.955   3.430
 6232TIP3    H218638   7.621   0.885   3.464
 6233TIP3   OH218639   8.041   1.751   3.552
 6233TIP3    H118640   7.965   1.749   3.611
 6233TIP3    H218641   8.098   1.819   3.589
 6234TIP3   OH218642   7.844   1.746   4.367
 6234TIP3    H118643   7.902   1.697   4.424
 6234TIP3    H218644   7.849   1.836   4.398
 6235TIP3   OH218645   7.812   1.109   3.494
 6235TIP3    H118646   7.759   1.152   3.562
 6235TIP3    H218647   7.841   1.180   3.437
 6236TIP3   OH218648   7.826   1.329   3.309
 6236TIP3    H118649   7.853   1.403   3.363
 6236TIP3    H218650   7.850   1.354   3.220
 6237TIP3   OH218651   7.759   0.626   3.457
 6237TIP3    H118652   7.738   0.716   3.434
 6237TIP3    H218653   7.676   0.578   3.447
 6238TIP3   OH218654   7.660   1.525   3.712
 6238TIP3    H118655   7.619   1.566   3.788
 6238TIP3    H218656   7.625   1.572   3.636
 6239TIP3   OH218657   7.842   2.058   4.774
 6239TIP3    H118658   7.924   2.057   4.823
 6239TIP3    H218659   7.821   1.965   4.761
 6240TIP3   OH218660   8.311   1.970   4.851
 6240TIP3    H118661   8.335   2.055   4.816
 6240TIP3    H218662   8.279   1.920   4.776
 6241TIP3   OH218663   7.963   1.469   4.964
 6241TIP3    H118664   7.965   1.378   4.995
 6241TIP3    H218665   7.879   1.477   4.920
 6242TIP3   OH218666   8.112   1.181   4.944
 6242TIP3    H118667   8.181   1.203   4.881
 6242TIP3    H218668   8.130   1.237   5.020
 6243TIP3   OH218669   7.559   1.256   3.331
 6243TIP3    H118670   7.653   1.273   3.328
 6243TIP3    H218671   7.549   1.168   3.296
 6244TIP3   OH218672   7.467   1.841   3.790
 6244TIP3    H118673   7.402   1.787   3.746
 6244TIP3    H218674   7.510   1.781   3.852
 6245TIP3   OH218675   7.609   1.677   3.963
 6245TIP3    H118676   7.600   1.612   4.033
 6245TIP3    H218677   7.662   1.747   4.001
 6246TIP3   OH218678   7.809   1.125   4.334
 6246TIP3    H118679   7.788   1.098   4.244
 6246TIP3    H218680   7.904   1.137   4.334
 6247TIP3   OH218681   8.027   0.939   5.053
 6247TIP3    H118682   8.073   1.013   5.013
 6247TIP3    H218683   8.087   0.865   5.043
 6248TIP3   OH218684   7.790   0.799   4.389
 6248TIP3    H118685   7.839   0.811   4.307
 6248TIP3    H218686   7.813   0.875   4.442
 6249TIP3   OH218687   8.004   1.760   4.823
 6249TIP3    H118688   7.912   1.760   4.796
 6249TIP3    H218689   8.001   1.755   4.918
 6250TIP3   OH218690   8.214   1.828   4.363
 6250TIP3    H118691   8.155   1.883   4.310
 6250TIP3    H218692   8.300   1.867   4.351
 6251TIP3   OH218693   7.839   2.009   4.427
 6251TIP3    H118694   7.770   2.070   4.401
 6251TIP3    H218695   7.916   2.064   4.441
 6252TIP3   OH218696   8.083   2.005   4.200
 6252TIP3    H118697   8.072   2.061   4.277
 6252TIP3    H218698   8.060   2.061   4.126
 6253TIP3   OH218699   7.784   1.858   4.105
 6253TIP3    H118700   7.810   1.844   4.196
 6253TIP3    H218701   7.857   1.824   4.054
 6254TIP3   OH218702   7.994   1.732   3.981
 6254TIP3    H118703   7.999   1.649   4.028
 6254TIP3    H218704   8.079   1.773   3.996
 6255TIP3   OH218705   7.560   1.647   3.485
 6255TIP3    H118706   7.473   1.617   3.457
 6255TIP3    H218707   7.562   1.739   3.460
 6256TIP3   OH218708   7.635   1.650   3.150
 6256TIP3    H118709   7.629   1.672   3.243
 6256TIP3    H218710   7.713   1.596   3.143
 6257TIP3   OH218711   1.203   2.000   5.323
 6257TIP3    H118712   1.177   2.089   5.299
 6257TIP3    H218713   1.133   1.944   5.290
 6258TIP3   OH218714   1.210   1.998   5.725
 6258TIP3    H118715   1.250   1.974   5.808
 6258TIP3    H218716   1.166   1.918   5.695
 6259TIP3   OH218717   0.511   1.872   6.069
 6259TIP3    H118718   0.569   1.801   6.100
 6259TIP3    H218719   0.565   1.922   6.009
 6260TIP3   OH218720   1.469   2.300   5.413
 6260TIP3    H118721   1.459   2.236   5.484
 6260TIP3    H218722   1.493   2.381   5.458
 6261TIP3   OH218723   0.511   2.294   5.795
 6261TIP3    H118724   0.505   2.199   5.803
 6261TIP3    H218725   0.598   2.310   5.760
 6262TIP3   OH218726   1.122   2.736   5.423
 6262TIP3    H118727   1.151   2.673   5.358
 6262TIP3    H218728   1.125   2.689   5.506
 6263TIP3   OH218729   1.014   2.212   5.759
 6263TIP3    H118730   1.057   2.140   5.714
 6263TIP3    H218731   1.086   2.268   5.789
 6264TIP3   OH218732   2.040   1.540   5.760
 6264TIP3    H118733   2.060   1.621   5.805
 6264TIP3    H218734   2.075   1.552   5.672
 6265TIP3   OH218735   1.378   1.693   5.789
 6265TIP3    H118736   1.431   1.617   5.814
 6265TIP3    H218737   1.373   1.688   5.693
 6266TIP3   OH218738   0.776   1.389   5.726
 6266TIP3    H118739   0.731   1.455   5.673
 6266TIP3    H218740   0.740   1.305   5.696
 6267TIP3   OH218741   1.470   1.463   5.371
 6267TIP3    H118742   1.536   1.454   5.439
 6267TIP3    H218743   1.517   1.499   5.296
 6268TIP3   OH218744   7.016   8.116   2.605
 6268TIP3    H118745   7.077   8.048   2.576
 6268TIP3    H218746   6.938   8.103   2.550
 6269TIP3   OH218747   0.823   1.765   5.677
 6269TIP3    H118748   0.915   1.739   5.678
 6269TIP3    H218749   0.778   1.691   5.635
 6270TIP3   OH218750   2.101   1.753   5.930
 6270TIP3    H118751   2.014   1.793   5.923
 6270TIP3    H218752   2.138   1.791   6.010
 6271TIP3   OH218753   1.105   2.219   5.182
 6271TIP3    H118754   1.063   2.190   5.101
 6271TIP3    H218755   1.053   2.293   5.210
 6272TIP3   OH218756   0.861   2.138   5.979
 6272TIP3    H118757   0.799   2.204   6.009
 6272TIP3    H218758   0.901   2.177   5.901
 6273TIP3   OH218759   1.638   1.484   5.586
 6273TIP3    H118760   1.603   1.457   5.671
 6273TIP3    H218761   1.695   1.558   5.607
 6274TIP3   OH218762   0.703   1.483   5.983
 6274TIP3    H118763   0.769   1.552   5.985
 6274TIP3    H218764   0.718   1.438   5.900
 6275TIP3   OH218765   0.691   2.336   6.079
 6275TIP3    H118766   0.682   2.424   6.042
 6275TIP3    H218767   0.612   2.324   6.131
 6276TIP3   OH218768   0.048   2.045   5.305
 6276TIP3    H118769   0.032   2.040   5.210
 6276TIP3    H218770   0.120   1.985   5.320
 6277TIP3   OH218771   1.513   2.546   5.553
 6277TIP3    H118772   1.425   2.539   5.591
 6277TIP3    H218773   1.510   2.629   5.505
 6278TIP3   OH218774   1.830   1.437   5.920
 6278TIP3    H118775   1.745   1.460   5.884
 6278TIP3    H218776   1.893   1.464   5.853
 6279TIP3   OH218777   1.136   1.082   5.902
 6279TIP3    H118778   1.146   0.987   5.907
 6279TIP3    H218779   1.067   1.096   5.837
 6280TIP3   OH218780   1.217   2.582   5.213
 6280TIP3    H118781   1.268   2.502   5.200
 6280TIP3    H218782   1.273   2.652   5.182
 6281TIP3   OH218783   1.359   2.354   5.164
 6281TIP3    H118784   1.291   2.288   5.155
 6281TIP3    H218785   1.407   2.329   5.243
 6282TIP3   OH218786   1.741   2.444   5.898
 6282TIP3    H118787   1.729   2.369   5.840
 6282TIP3    H218788   1.725   2.520   5.843
 6283TIP3   OH218789   1.031   1.847   5.166
 6283TIP3    H118790   0.947   1.890   5.150
 6283TIP3    H218791   1.074   1.846   5.081
 6284TIP3   OH218792   1.001   1.642   4.862
 6284TIP3    H118793   1.066   1.693   4.912
 6284TIP3    H218794   1.052   1.576   4.817
 6285TIP3   OH218795   1.933   2.094   5.762
 6285TIP3    H118796   1.850   2.142   5.761
 6285TIP3    H218797   1.971   2.112   5.676
 6286TIP3   OH218798   1.387   1.931   5.131
 6286TIP3    H118799   1.333   1.959   5.205
 6286TIP3    H218800   1.471   1.908   5.171
 6287TIP3   OH218801   1.628   1.963   6.069
 6287TIP3    H118802   1.632   2.043   6.120
 6287TIP3    H218803   1.555   1.976   6.009
 6288TIP3   OH218804   0.643   1.952   5.572
 6288TIP3    H118805   0.580   1.901   5.522
 6288TIP3    H218806   0.711   1.889   5.597
 6289TIP3   OH218807   0.757   2.316   5.689
 6289TIP3    H118808   0.744   2.323   5.594
 6289TIP3    H218809   0.848   2.289   5.699
 6290TIP3   OH218810   0.772   1.879   5.922
 6290TIP3    H118811   0.778   1.852   5.831
 6290TIP3    H218812   0.785   1.974   5.920
 6291TIP3   OH218813   1.276   2.537   5.685
 6291TIP3    H118814   1.262   2.618   5.733
 6291TIP3    H218815   1.257   2.468   5.749
 6292TIP3   OH218816   0.892   2.445   6.234
 6292TIP3    H118817   0.834   2.507   6.278
 6292TIP3    H218818   0.834   2.395   6.177
 6293TIP3   OH218819   1.221   1.791   4.960
 6293TIP3    H118820   1.279   1.850   5.009
 6293TIP3    H218821   1.249   1.800   4.869
 6294TIP3   OH218822   0.651   1.980   6.364
 6294TIP3    H118823   0.662   2.071   6.391
 6294TIP3    H218824   0.556   1.971   6.352
 6295TIP3   OH218825   0.969   2.460   5.224
 6295TIP3    H118826   1.051   2.509   5.227
 6295TIP3    H218827   0.910   2.515   5.174
 6296TIP3   OH218828   0.682   2.609   6.317
 6296TIP3    H118829   0.661   2.621   6.225
 6296TIP3    H218830   0.597   2.598   6.360
 6297TIP3   OH218831   1.553   2.395   4.566
 6297TIP3    H118832   1.552   2.489   4.550
 6297TIP3    H218833   1.643   2.367   4.548
 6298TIP3   OH218834   0.304   2.125   6.223
 6298TIP3    H118835   0.243   2.077   6.167
 6298TIP3    H218836   0.332   2.061   6.289
 6299TIP3   OH218837   0.204   2.348   5.857
 6299TIP3    H118838   0.180   2.257   5.873
 6299TIP3    H218839   0.145   2.399   5.913
 6300TIP3   OH218840   1.975   2.795   5.965
 6300TIP3    H118841   1.979   2.701   5.979
 6300TIP3    H218842   1.895   2.823   6.008
 6301TIP3   OH218843   1.092   2.578   6.100
 6301TIP3    H118844   1.085   2.670   6.125
 6301TIP3    H218845   1.019   2.535   6.144
 6302TIP3   OH218846   0.860   2.686   5.047
 6302TIP3    H118847   0.813   2.667   4.966
 6302TIP3    H218848   0.828   2.773   5.073
 6303TIP3   OH218849   1.060   2.616   4.672
 6303TIP3    H118850   1.111   2.543   4.637
 6303TIP3    H218851   1.095   2.629   4.760
 6304TIP3   OH218852   1.112   2.661   4.942
 6304TIP3    H118853   1.027   2.663   4.985
 6304TIP3    H218854   1.172   2.627   5.009
 6305TIP3   OH218855   1.866   1.920   6.240
 6305TIP3    H118856   1.786   1.928   6.189
 6305TIP3    H218857   1.886   1.826   6.238
 6306TIP3   OH218858   0.472   2.338   6.261
 6306TIP3    H118859   0.533   2.307   6.327
 6306TIP3    H218860   0.412   2.265   6.247
 6307TIP3   OH218861   1.407   1.282   6.248
 6307TIP3    H118862   1.493   1.262   6.285
 6307TIP3    H218863   1.346   1.270   6.321
 6308TIP3   OH218864   1.608   1.694   6.139
 6308TIP3    H118865   1.578   1.691   6.229
 6308TIP3    H218866   1.611   1.788   6.118
 6309TIP3   OH218867   1.304   1.787   4.700
 6309TIP3    H118868   1.259   1.786   4.615
 6309TIP3    H218869   1.386   1.834   4.683
 6310TIP3   OH218870   1.013   1.195   4.997
 6310TIP3    H118871   0.979   1.209   5.085
 6310TIP3    H218872   0.974   1.112   4.969
 6311TIP3   OH218873   0.883   1.705   6.091
 6311TIP3    H118874   0.812   1.687   6.153
 6311TIP3    H218875   0.842   1.758   6.023
 6312TIP3   OH218876   0.656   1.574   5.559
 6312TIP3    H118877   0.585   1.633   5.534
 6312TIP3    H218878   0.673   1.522   5.481
 6313TIP3   OH218879   1.172   1.654   5.302
 6313TIP3    H118880   1.119   1.722   5.261
 6313TIP3    H218881   1.225   1.618   5.231
 6314TIP3   OH218882   1.344   1.906   6.361
 6314TIP3    H118883   1.322   1.841   6.427
 6314TIP3    H218884   1.436   1.927   6.378
 6315TIP3   OH218885   1.345   1.663   5.518
 6315TIP3    H118886   1.281   1.690   5.452
 6315TIP3    H218887   1.384   1.583   5.482
 6316TIP3   OH218888   0.670   1.711   6.264
 6316TIP3    H118889   0.649   1.794   6.306
 6316TIP3    H218890   0.595   1.654   6.284
 6317TIP3   OH218891   0.669   1.193   4.990
 6317TIP3    H118892   0.654   1.187   5.085
 6317TIP3    H218893   0.597   1.246   4.958
 6318TIP3   OH218894   1.338   1.901   5.960
 6318TIP3    H118895   1.363   1.831   5.899
 6318TIP3    H218896   1.331   1.857   6.045
 6319TIP3   OH218897   1.051   1.382   5.628
 6319TIP3    H118898   0.970   1.380   5.678
 6319TIP3    H218899   1.120   1.364   5.693
 6320TIP3   OH218900   0.709   1.434   5.333
 6320TIP3    H118901   0.801   1.448   5.310
 6320TIP3    H218902   0.661   1.457   5.253
 6321TIP3   OH218903   1.503   1.448   5.841
 6321TIP3    H118904   1.477   1.462   5.932
 6321TIP3    H218905   1.437   1.387   5.807
 6322TIP3   OH218906   0.576   1.471   5.092
 6322TIP3    H118907   0.509   1.427   5.040
 6322TIP3    H218908   0.633   1.514   5.028
 6323TIP3   OH218909   1.684   3.146   6.052
 6323TIP3    H118910   1.675   3.161   5.958
 6323TIP3    H218911   1.762   3.197   6.077
 6324TIP3   OH218912   0.632   2.241   6.465
 6324TIP3    H118913   0.711   2.272   6.509
 6324TIP3    H218914   0.564   2.246   6.533
 6325TIP3   OH218915   1.108   1.715   5.709
 6325TIP3    H118916   1.126   1.669   5.627
 6325TIP3    H218917   1.185   1.701   5.763
 6326TIP3   OH218918   0.789   1.982   5.118
 6326TIP3    H118919   0.715   1.924   5.102
 6326TIP3    H218920   0.771   2.023   5.202
 6327TIP3   OH218921   1.696   2.235   5.723
 6327TIP3    H118922   1.732   2.283   5.649
 6327TIP3    H218923   1.616   2.196   5.690
 6328TIP3   OH218924   1.263   1.304   5.007
 6328TIP3    H118925   1.170   1.284   5.004
 6328TIP3    H218926   1.267   1.398   5.023
 6329TIP3   OH218927   1.205   2.310   6.134
 6329TIP3    H118928   1.261   2.309   6.211
 6329TIP3    H218929   1.169   2.399   6.133
 6330TIP3   OH218930   1.326   1.565   5.086
 6330TIP3    H118931   1.422   1.570   5.093
 6330TIP3    H218932   1.302   1.641   5.033
 6331TIP3   OH218933   0.516   2.023   5.806
 6331TIP3    H118934   0.558   2.003   5.722
 6331TIP3    H218935   0.448   1.956   5.815
 6332TIP3   OH218936   0.948   2.139   4.958
 6332TIP3    H118937   0.903   2.224   4.955
 6332TIP3    H218938   0.890   2.084   5.010
 6333TIP3   OH218939   0.377   1.946   6.421
 6333TIP3    H118940   0.418   1.948   6.507
 6333TIP3    H218941   0.296   1.897   6.433
 6334TIP3   OH218942   1.120   2.066   6.422
 6334TIP3    H118943   1.052   2.006   6.391
 6334TIP3    H218944   1.202   2.029   6.388
 6335TIP3   OH218945   1.357   2.590   6.015
 6335TIP3    H118946   1.262   2.581   6.024
 6335TIP3    H218947   1.384   2.639   6.092
 6336TIP3   OH218948   1.753   1.652   4.909
 6336TIP3    H118949   1.702   1.603   4.845
 6336TIP3    H218950   1.754   1.741   4.876
 6337TIP3   OH218951   1.989   2.510   5.992
 6337TIP3    H118952   1.894   2.501   5.983
 6337TIP3    H218953   2.023   2.484   5.907
 6338TIP3   OH218954   1.475   2.464   4.832
 6338TIP3    H118955   1.448   2.393   4.891
 6338TIP3    H218956   1.492   2.420   4.749
 6339TIP3   OH218957   1.464   2.103   5.626
 6339TIP3    H118958   1.373   2.082   5.646
 6339TIP3    H218959   1.499   2.022   5.587
 6340TIP3   OH218960   0.599   2.341   5.426
 6340TIP3    H118961   0.588   2.423   5.378
 6340TIP3    H218962   0.511   2.303   5.429
 6341TIP3   OH218963   0.142   1.611   5.129
 6341TIP3    H118964   0.192   1.692   5.138
 6341TIP3    H218965   0.091   1.606   5.210
 6342TIP3   OH218966   0.724   2.104   5.351
 6342TIP3    H118967   0.698   2.193   5.372
 6342TIP3    H218968   0.699   2.053   5.428
 6343TIP3   OH218969   0.906   2.660   5.895
 6343TIP3    H118970   0.930   2.729   5.834
 6343TIP3    H218971   0.989   2.634   5.935
 6344TIP3   OH218972   0.507   2.574   5.290
 6344TIP3    H118973   0.424   2.595   5.332
 6344TIP3    H218974   0.554   2.658   5.286
 6345TIP3   OH218975   1.252   2.315   5.860
 6345TIP3    H118976   1.240   2.310   5.955
 6345TIP3    H218977   1.339   2.278   5.845
 6346TIP3   OH218978   1.238   2.199   4.725
 6346TIP3    H118979   1.287   2.173   4.803
 6346TIP3    H218980   1.152   2.158   4.735
 6347TIP3   OH218981   1.501   2.826   5.896
 6347TIP3    H118982   1.426   2.767   5.901
 6347TIP3    H218983   1.480   2.884   5.822
 6348TIP3   OH218984   1.565   2.670   4.539
 6348TIP3    H118985   1.606   2.739   4.487
 6348TIP3    H218986   1.487   2.711   4.577
 6349TIP3   OH218987   1.408   2.118   4.925
 6349TIP3    H118988   1.394   2.063   5.001
 6349TIP3    H218989   1.503   2.126   4.918
 6350TIP3   OH218990   0.392   2.484   6.037
 6350TIP3    H118991   0.424   2.458   6.124
 6350TIP3    H218992   0.323   2.548   6.056
 6351TIP3   OH218993   0.604   2.165   4.735
 6351TIP3    H118994   0.611   2.073   4.709
 6351TIP3    H218995   0.587   2.162   4.830
 6352TIP3   OH218996   0.546   2.187   5.006
 6352TIP3    H118997   0.614   2.157   5.067
 6352TIP3    H218998   0.546   2.282   5.016
 6353TIP3   OH218999   0.252   1.855   5.200
 6353TIP3    H119000   0.316   1.832   5.267
 6353TIP3    H219001   0.294   1.925   5.151
 6354TIP3   OH219002   1.403   1.514   6.097
 6354TIP3    H119003   1.483   1.561   6.120
 6354TIP3    H219004   1.404   1.436   6.152
 6355TIP3   OH219005   1.315   1.251   5.276
 6355TIP3    H119006   1.298   1.267   5.183
 6355TIP3    H219007   1.361   1.329   5.306
 6356TIP3   OH219008   0.811   2.373   4.951
 6356TIP3    H119009   0.728   2.399   4.992
 6356TIP3    H219010   0.831   2.444   4.891
 6357TIP3   OH219011   0.998   1.451   5.368
 6357TIP3    H119012   1.057   1.523   5.343
 6357TIP3    H219013   1.013   1.439   5.462
 6358TIP3   OH219014   1.230   1.726   6.173
 6358TIP3    H119015   1.278   1.767   6.245
 6358TIP3    H219016   1.281   1.647   6.152
 6359TIP3   OH219017   1.139   1.161   5.467
 6359TIP3    H119018   1.119   1.243   5.512
 6359TIP3    H219019   1.201   1.187   5.399
 6360TIP3   OH219020   0.562   2.461   5.037
 6360TIP3    H119021   0.538   2.528   4.973
 6360TIP3    H219022   0.539   2.499   5.122
 6361TIP3   OH219023   0.662   1.169   5.263
 6361TIP3    H119024   0.652   1.255   5.303
 6361TIP3    H219025   0.756   1.153   5.263
 6362TIP3   OH219026   1.880   1.652   6.142
 6362TIP3    H119027   1.785   1.648   6.146
 6362TIP3    H219028   1.903   1.603   6.063
 6363TIP3   OH219029   1.556   1.847   5.536
 6363TIP3    H119030   1.483   1.786   5.536
 6363TIP3    H219031   1.625   1.803   5.585
 6364TIP3   OH219032   0.295   2.063   5.006
 6364TIP3    H119033   0.366   2.127   5.013
 6364TIP3    H219034   0.325   2.000   4.940
 6365TIP3   OH219035   0.218   1.327   5.075
 6365TIP3    H119036   0.253   1.405   5.117
 6365TIP3    H219037   0.123   1.341   5.072
 6366TIP3   OH219038   1.531   2.813   5.466
 6366TIP3    H119039   1.490   2.863   5.396
 6366TIP3    H219040   1.625   2.826   5.453
 6367TIP3   OH219041   0.174   2.402   5.353
 6367TIP3    H119042   0.105   2.347   5.391
 6367TIP3    H219043   0.164   2.391   5.258
 6368TIP3   OH219044   0.316   2.801   6.491
 6368TIP3    H119045   0.376   2.843   6.553
 6368TIP3    H219046   0.354   2.715   6.476
 6369TIP3   OH219047   0.778   2.785   6.511
 6369TIP3    H119048   0.870   2.764   6.526
 6369TIP3    H219049   0.751   2.727   6.440
 6370TIP3   OH219050   0.755   2.370   4.629
 6370TIP3    H119051   0.708   2.298   4.673
 6370TIP3    H219052   0.829   2.327   4.587
 6371TIP3   OH219053   1.410   2.716   6.251
 6371TIP3    H119054   1.412   2.643   6.313
 6371TIP3    H219055   1.486   2.769   6.274
 6372TIP3   OH219056   1.192   2.407   4.551
 6372TIP3    H119057   1.224   2.343   4.614
 6372TIP3    H219058   1.253   2.402   4.478
 6373TIP3   OH219059   0.412   2.231   6.635
 6373TIP3    H119060   0.435   2.138   6.643
 6373TIP3    H219061   0.320   2.232   6.611
 6374TIP3   OH219062   0.419   1.868   4.858
 6374TIP3    H119063   0.468   1.843   4.936
 6374TIP3    H219064   0.485   1.880   4.791
 6375TIP3   OH219065   1.056   2.346   6.431
 6375TIP3    H119066   1.013   2.366   6.348
 6375TIP3    H219067   1.092   2.258   6.419
 6376TIP3   OH219068   0.976   2.087   4.689
 6376TIP3    H119069   0.954   2.098   4.781
 6376TIP3    H219070   0.960   1.994   4.672
 6377TIP3   OH219071   1.518   2.363   6.040
 6377TIP3    H119072   1.597   2.395   5.996
 6377TIP3    H219073   1.455   2.435   6.031
 6378TIP3   OH219074   0.529   1.975   6.648
 6378TIP3    H119075   0.615   1.947   6.615
 6378TIP3    H219076   0.543   1.991   6.741
 6379TIP3   OH219077   0.583   1.798   5.078
 6379TIP3    H119078   0.552   1.762   5.162
 6379TIP3    H219079   0.628   1.725   5.036
 6380TIP3   OH219080   0.915   1.912   6.301
 6380TIP3    H119081   0.827   1.926   6.334
 6380TIP3    H219082   0.924   1.975   6.229
 6381TIP3   OH219083   0.725   1.614   4.913
 6381TIP3    H119084   0.695   1.617   4.822
 6381TIP3    H219085   0.821   1.619   4.907
 6382TIP3   OH219086   1.399   2.254   6.420
 6382TIP3    H119087   1.483   2.229   6.381
 6382TIP3    H219088   1.393   2.201   6.499
 6383TIP3   OH219089   1.528   1.910   4.590
 6383TIP3    H119090   1.513   1.868   4.505
 6383TIP3    H219091   1.502   2.001   4.576
 6384TIP3   OH219092   0.990   1.674   6.426
 6384TIP3    H119093   0.943   1.600   6.387
 6384TIP3    H219094   0.954   1.751   6.382
 6385TIP3   OH219095   1.061   1.969   6.062
 6385TIP3    H119096   1.142   2.016   6.043
 6385TIP3    H219097   0.992   2.027   6.029
 6386TIP3   OH219098   1.607   1.946   6.466
 6386TIP3    H119099   1.641   1.875   6.521
 6386TIP3    H219100   1.685   1.994   6.438
 6387TIP3   OH219101   1.655   2.200   6.210
 6387TIP3    H119102   1.597   2.258   6.160
 6387TIP3    H219103   1.743   2.221   6.178
 6388TIP3   OH219104   0.869   1.773   6.657
 6388TIP3    H119105   0.806   1.710   6.691
 6388TIP3    H219106   0.911   1.728   6.584
 6389TIP3   OH219107   1.098   1.204   6.301
 6389TIP3    H119108   1.072   1.257   6.225
 6389TIP3    H219109   1.051   1.121   6.289
 6390TIP3   OH219110   1.261   1.704   6.521
 6390TIP3    H119111   1.264   1.695   6.617
 6390TIP3    H219112   1.172   1.678   6.497
 6391TIP3   OH219113   1.501   1.645   6.380
 6391TIP3    H119114   1.431   1.646   6.445
 6391TIP3    H219115   1.580   1.623   6.430
 6392TIP3   OH219116   1.746   1.603   6.507
 6392TIP3    H119117   1.761   1.511   6.531
 6392TIP3    H219118   1.732   1.648   6.590
 6393TIP3   OH219119   1.244   1.258   6.526
 6393TIP3    H119120   1.304   1.183   6.526
 6393TIP3    H219121   1.179   1.236   6.459
 6394TIP3   OH219122   1.299   1.443   6.715
 6394TIP3    H119123   1.281   1.377   6.648
 6394TIP3    H219124   1.220   1.498   6.716
 6395TIP3   OH219125   0.548   2.665   4.847
 6395TIP3    H119126   0.637   2.645   4.818
 6395TIP3    H219127   0.507   2.707   4.770
 6396TIP3   OH219128   0.024   2.029   5.027
 6396TIP3    H119129   0.119   2.042   5.023
 6396TIP3    H219130   0.010   1.942   4.990
 6397TIP3   OH219131   8.529   2.701   5.529
 6397TIP3    H119132   8.501   2.649   5.453
 6397TIP3    H219133   8.583   2.641   5.581
 6398TIP3   OH219134   0.084   2.534   5.678
 6398TIP3    H119135   0.122   2.453   5.710
 6398TIP3    H219136   0.005   2.546   5.731
 6399TIP3   OH219137   1.800   2.868   5.455
 6399TIP3    H119138   1.823   2.904   5.540
 6399TIP3    H219139   1.857   2.914   5.393
 6400TIP3   OH219140   1.814   2.908   5.738
 6400TIP3    H119141   1.769   2.824   5.731
 6400TIP3    H219142   1.888   2.890   5.797
 6401TIP3   OH219143   1.861   2.603   6.314
 6401TIP3    H119144   1.791   2.610   6.379
 6401TIP3    H219145   1.908   2.686   6.319
 6402TIP3   OH219146   1.688   2.115   4.921
 6402TIP3    H119147   1.747   2.184   4.890
 6402TIP3    H219148   1.732   2.078   4.997
 6403TIP3   OH219149   1.813   1.974   5.124
 6403TIP3    H119150   1.745   1.937   5.180
 6403TIP3    H219151   1.878   2.010   5.185
 6404TIP3   OH219152   1.871   2.371   5.555
 6404TIP3    H119153   1.923   2.304   5.511
 6404TIP3    H219154   1.871   2.445   5.495
 6405TIP3   OH219155   1.677   2.664   5.746
 6405TIP3    H119156   1.608   2.708   5.796
 6405TIP3    H219157   1.631   2.622   5.674
 6406TIP3   OH219158   1.733   1.889   4.771
 6406TIP3    H119159   1.663   1.887   4.706
 6406TIP3    H219160   1.715   1.967   4.823
 6407TIP3   OH219161   1.604   1.547   4.707
 6407TIP3    H119162   1.556   1.582   4.632
 6407TIP3    H219163   1.577   1.456   4.712
 6408TIP3   OH219164   1.615   1.837   5.263
 6408TIP3    H119165   1.619   1.742   5.250
 6408TIP3    H219166   1.600   1.847   5.357
 6409TIP3   OH219167   0.260   1.914   5.954
 6409TIP3    H119168   0.248   1.832   5.908
 6409TIP3    H219169   0.338   1.900   6.008
 6410TIP3   OH219170   1.911   2.256   6.121
 6410TIP3    H119171   1.974   2.187   6.104
 6410TIP3    H219172   1.936   2.327   6.062
 6411TIP3   OH219173   2.076   2.039   6.110
 6411TIP3    H119174   2.006   1.997   6.159
 6411TIP3    H219175   2.154   1.986   6.129
 6412TIP3   OH219176   1.518   1.291   4.715
 6412TIP3    H119177   1.585   1.222   4.725
 6412TIP3    H219178   1.435   1.244   4.724
 6413TIP3   OH219179   1.614   1.563   5.146
 6413TIP3    H119180   1.656   1.477   5.158
 6413TIP3    H219181   1.659   1.601   5.070
 6414TIP3   OH219182   1.769   1.718   5.667
 6414TIP3    H119183   1.849   1.737   5.617
 6414TIP3    H219184   1.784   1.757   5.753
 6415TIP3   OH219185   1.844   1.868   5.892
 6415TIP3    H119186   1.776   1.900   5.951
 6415TIP3    H219187   1.878   1.946   5.849
 6416TIP3   OH219188   2.300   1.474   6.431
 6416TIP3    H119189   2.364   1.412   6.394
 6416TIP3    H219190   2.268   1.522   6.355
 6417TIP3   OH219191   1.721   1.312   5.201
 6417TIP3    H119192   1.767   1.296   5.283
 6417TIP3    H219193   1.657   1.240   5.195
 6418TIP3   OH219194   2.153   1.598   6.240
 6418TIP3    H119195   2.083   1.639   6.291
 6418TIP3    H219196   2.109   1.531   6.188
 6419TIP3   OH219197   1.358   2.779   5.100
 6419TIP3    H119198   1.414   2.768   5.022
 6419TIP3    H219199   1.402   2.847   5.151
 6420TIP3   OH219200   0.446   2.560   6.474
 6420TIP3    H119201   0.421   2.474   6.441
 6420TIP3    H219202   0.452   2.548   6.569
 6421TIP3   OH219203   0.676   2.611   6.031
 6421TIP3    H119204   0.624   2.683   5.996
 6421TIP3    H219205   0.761   2.619   5.987
 6422TIP3   OH219206   1.077   2.847   6.169
 6422TIP3    H119207   1.114   2.843   6.257
 6422TIP3    H219208   1.139   2.900   6.119
 6423TIP3   OH219209   1.265   3.004   6.042
 6423TIP3    H119210   1.330   2.954   5.993
 6423TIP3    H219211   1.316   3.062   6.098
 6424TIP3   OH219212   2.059   1.349   6.131
 6424TIP3    H119213   1.972   1.340   6.092
 6424TIP3    H219214   2.098   1.262   6.124
 6425TIP3   OH219215   0.356   2.875   6.055
 6425TIP3    H119216   0.262   2.873   6.076
 6425TIP3    H219217   0.398   2.905   6.136
 6426TIP3   OH219218   0.577   2.837   5.907
 6426TIP3    H119219   0.495   2.853   5.954
 6426TIP3    H219220   0.559   2.868   5.818
 6427TIP3   OH219221   0.980   2.870   5.720
 6427TIP3    H119222   0.921   2.894   5.649
 6427TIP3    H219223   0.994   2.952   5.767
 6428TIP3   OH219224   1.242   2.799   5.769
 6428TIP3    H119225   1.151   2.820   5.750
 6428TIP3    H219226   1.292   2.866   5.722
 6429TIP3   OH219227   1.440   2.975   5.670
 6429TIP3    H119228   1.439   3.063   5.632
 6429TIP3    H219229   1.470   2.919   5.598
 6430TIP3   OH219230   1.283   1.282   5.764
 6430TIP3    H119231   1.243   1.212   5.816
 6430TIP3    H219232   1.345   1.238   5.707
 6431TIP3   OH219233   1.776   1.176   5.653
 6431TIP3    H119234   1.812   1.220   5.576
 6431TIP3    H219235   1.682   1.188   5.646
 6432TIP3   OH219236   1.895   1.238   5.406
 6432TIP3    H119237   1.955   1.176   5.365
 6432TIP3    H219238   1.937   1.323   5.395
 6433TIP3   OH219239   0.979   1.064   5.677
 6433TIP3    H119240   1.030   1.093   5.602
 6433TIP3    H219241   0.921   0.996   5.643
 6434TIP3   OH219242   1.490   1.154   5.630
 6434TIP3    H119243   1.492   1.118   5.541
 6434TIP3    H219244   1.486   1.078   5.687
 6435TIP3   OH219245   1.547   1.104   5.223
 6435TIP3    H119246   1.459   1.141   5.234
 6435TIP3    H219247   1.537   1.012   5.248
 6436TIP3   OH219248   0.052   2.397   5.093
 6436TIP3    H119249  -0.015   2.329   5.091
 6436TIP3    H219250   0.009   2.474   5.055
 6437TIP3   OH219251   0.936   1.211   5.256
 6437TIP3    H119252   0.978   1.142   5.308
 6437TIP3    H219253   0.963   1.293   5.300
 6438TIP3   OH219254   0.804   2.595   4.775
 6438TIP3    H119255   0.888   2.623   4.738
 6438TIP3    H219256   0.775   2.524   4.718
 6439TIP3   OH219257   1.508   2.732   4.870
 6439TIP3    H119258   1.501   2.637   4.861
 6439TIP3    H219259   1.467   2.768   4.791
 6440TIP3   OH219260   0.137   2.419   4.818
 6440TIP3    H119261   0.122   2.403   4.911
 6440TIP3    H219262   0.222   2.379   4.800
 6441TIP3   OH219263   1.811   1.339   6.544
 6441TIP3    H119264   1.818   1.302   6.632
 6441TIP3    H219265   1.900   1.334   6.509
 6442TIP3   OH219266   1.725   2.872   6.061
 6442TIP3    H119267   1.651   2.840   6.009
 6442TIP3    H219268   1.713   2.967   6.066
 6443TIP3   OH219269   2.987   2.254   4.830
 6443TIP3    H119270   2.968   2.341   4.796
 6443TIP3    H219271   2.927   2.196   4.783
 6444TIP3   OH219272   3.012   2.248   5.184
 6444TIP3    H119273   2.954   2.200   5.243
 6444TIP3    H219274   2.987   2.218   5.097
 6445TIP3   OH219275   2.304   2.129   5.577
 6445TIP3    H119276   2.336   2.059   5.634
 6445TIP3    H219277   2.373   2.194   5.578
 6446TIP3   OH219278   3.261   2.564   4.892
 6446TIP3    H119279   3.242   2.510   4.968
 6446TIP3    H219280   3.291   2.647   4.928
 6447TIP3   OH219281   2.287   2.545   5.274
 6447TIP3    H119282   2.273   2.451   5.283
 6447TIP3    H219283   2.381   2.554   5.259
 6448TIP3   OH219284   1.970   1.747   5.066
 6448TIP3    H119285   1.931   1.833   5.083
 6448TIP3    H219286   1.904   1.700   5.016
 6449TIP3   OH219287   2.045   2.046   5.262
 6449TIP3    H119288   2.097   1.969   5.287
 6449TIP3    H219289   2.108   2.104   5.220
 6450TIP3   OH219290   2.914   2.995   4.906
 6450TIP3    H119291   2.951   2.927   4.850
 6450TIP3    H219292   2.907   2.954   4.992
 6451TIP3   OH219293   2.807   2.481   5.240
 6451TIP3    H119294   2.850   2.419   5.181
 6451TIP3    H219295   2.879   2.530   5.280
 6452TIP3   OH219296   3.838   1.792   5.247
 6452TIP3    H119297   3.858   1.874   5.292
 6452TIP3    H219298   3.868   1.806   5.158
 6453TIP3   OH219299   3.149   1.899   5.298
 6453TIP3    H119300   3.205   1.822   5.289
 6453TIP3    H219301   3.123   1.921   5.209
 6454TIP3   OH219302   2.565   1.615   5.217
 6454TIP3    H119303   2.539   1.692   5.168
 6454TIP3    H219304   2.513   1.544   5.180
 6455TIP3   OH219305   3.268   1.725   4.861
 6455TIP3    H119306   3.335   1.717   4.929
 6455TIP3    H219307   3.315   1.760   4.785
 6456TIP3   OH219308   2.191   1.827   5.352
 6456TIP3    H119309   2.276   1.811   5.395
 6456TIP3    H219310   2.195   1.776   5.271
 6457TIP3   OH219311   2.623   2.032   5.142
 6457TIP3    H119312   2.701   2.009   5.091
 6457TIP3    H219313   2.565   1.956   5.131
 6458TIP3   OH219314   3.899   2.003   5.420
 6458TIP3    H119315   3.816   2.049   5.407
 6458TIP3    H219316   3.938   2.045   5.497
 6459TIP3   OH219317   2.536   1.609   5.684
 6459TIP3    H119318   2.487   1.644   5.610
 6459TIP3    H219319   2.482   1.629   5.761
 6460TIP3   OH219320   2.904   2.469   4.670
 6460TIP3    H119321   2.865   2.444   4.586
 6460TIP3    H219322   2.855   2.547   4.698
 6461TIP3   OH219323   2.642   2.394   5.446
 6461TIP3    H119324   2.585   2.461   5.484
 6461TIP3    H219325   2.687   2.439   5.375
 6462TIP3   OH219326   3.443   1.741   5.068
 6462TIP3    H119327   3.406   1.717   5.153
 6462TIP3    H219328   3.501   1.815   5.087
 6463TIP3   OH219329   2.434   1.716   5.447
 6463TIP3    H119330   2.493   1.788   5.472
 6463TIP3    H219331   2.479   1.674   5.373
 6464TIP3   OH219332   2.487   2.597   5.556
 6464TIP3    H119333   2.473   2.685   5.521
 6464TIP3    H219334   2.410   2.580   5.611
 6465TIP3   OH219335   1.866   2.297   4.804
 6465TIP3    H119336   1.830   2.316   4.717
 6465TIP3    H219337   1.890   2.382   4.840
 6466TIP3   OH219338   3.308   2.803   5.034
 6466TIP3    H119339   3.222   2.798   5.076
 6466TIP3    H219340   3.308   2.888   4.990
 6467TIP3   OH219341   3.632   1.675   5.405
 6467TIP3    H119342   3.548   1.696   5.365
 6467TIP3    H219343   3.697   1.707   5.343
 6468TIP3   OH219344   2.893   1.318   5.408
 6468TIP3    H119345   2.884   1.225   5.430
 6468TIP3    H219346   2.817   1.360   5.448
 6469TIP3   OH219347   3.021   2.829   4.710
 6469TIP3    H119348   3.072   2.751   4.688
 6469TIP3    H219349   3.072   2.902   4.676
 6470TIP3   OH219350   3.156   2.601   4.637
 6470TIP3    H119351   3.082   2.540   4.640
 6470TIP3    H219352   3.205   2.583   4.717
 6471TIP3   OH219353   3.535   2.703   5.391
 6471TIP3    H119354   3.532   2.630   5.329
 6471TIP3    H219355   3.520   2.781   5.337
 6472TIP3   OH219356   2.835   2.099   4.658
 6472TIP3    H119357   2.752   2.144   4.640
 6472TIP3    H219358   2.880   2.098   4.574
 6473TIP3   OH219359   2.795   1.900   4.355
 6473TIP3    H119360   2.860   1.950   4.405
 6473TIP3    H219361   2.847   1.838   4.304
 6474TIP3   OH219362   3.733   2.343   5.249
 6474TIP3    H119363   3.654   2.396   5.252
 6474TIP3    H219364   3.772   2.363   5.164
 6475TIP3   OH219365   3.178   2.186   4.630
 6475TIP3    H119366   3.127   2.215   4.705
 6475TIP3    H219367   3.264   2.164   4.666
 6476TIP3   OH219368   3.450   2.239   5.547
 6476TIP3    H119369   3.443   2.310   5.611
 6476TIP3    H219370   3.416   2.277   5.466
 6477TIP3   OH219371   2.404   2.173   5.033
 6477TIP3    H119372   2.363   2.119   4.965
 6477TIP3    H219373   2.481   2.123   5.061
 6478TIP3   OH219374   2.545   2.589   5.167
 6478TIP3    H119375   2.524   2.577   5.075
 6478TIP3    H219376   2.635   2.557   5.176
 6479TIP3   OH219377   2.554   2.138   5.392
 6479TIP3    H119378   2.583   2.115   5.304
 6479TIP3    H219379   2.585   2.228   5.405
 6480TIP3   OH219380   3.075   2.789   5.175
 6480TIP3    H119381   3.058   2.876   5.213
 6480TIP3    H219382   3.051   2.728   5.245
 6481TIP3   OH219383   2.686   2.698   5.720
 6481TIP3    H119384   2.629   2.759   5.767
 6481TIP3    H219385   2.627   2.648   5.664
 6482TIP3   OH219386   3.020   2.046   4.448
 6482TIP3    H119387   3.078   2.106   4.496
 6482TIP3    H219388   3.047   2.055   4.357
 6483TIP3   OH219389   2.452   2.254   5.827
 6483TIP3    H119390   2.460   2.341   5.864
 6483TIP3    H219391   2.359   2.233   5.834
 6484TIP3   OH219392   2.772   2.711   4.711
 6484TIP3    H119393   2.853   2.761   4.718
 6484TIP3    H219394   2.710   2.771   4.668
 6485TIP3   OH219395   2.478   2.862   5.803
 6485TIP3    H119396   2.454   2.872   5.711
 6485TIP3    H219397   2.395   2.846   5.848
 6486TIP3   OH219398   3.532   1.277   4.501
 6486TIP3    H119399   3.454   1.297   4.554
 6486TIP3    H219400   3.546   1.354   4.447
 6487TIP3   OH219401   2.287   2.021   4.827
 6487TIP3    H119402   2.209   2.061   4.790
 6487TIP3    H219403   2.269   1.927   4.828
 6488TIP3   OH219404   3.348   2.649   4.053
 6488TIP3    H119405   3.347   2.744   4.039
 6488TIP3    H219406   3.438   2.623   4.035
 6489TIP3   OH219407   2.069   2.409   5.753
 6489TIP3    H119408   2.001   2.393   5.687
 6489TIP3    H219409   2.105   2.323   5.773
 6490TIP3   OH219410   1.918   2.603   5.398
 6490TIP3    H119411   2.012   2.618   5.400
 6490TIP3    H219412   1.880   2.683   5.435
 6491TIP3   OH219413   3.773   3.056   5.454
 6491TIP3    H119414   3.775   2.962   5.467
 6491TIP3    H219415   3.691   3.085   5.494
 6492TIP3   OH219416   2.874   2.838   5.575
 6492TIP3    H119417   2.871   2.929   5.603
 6492TIP3    H219418   2.807   2.794   5.628
 6493TIP3   OH219419   2.658   2.943   4.535
 6493TIP3    H119420   2.612   2.930   4.453
 6493TIP3    H219421   2.628   3.028   4.567
 6494TIP3   OH219422   2.089   2.794   4.908
 6494TIP3    H119423   2.133   2.789   4.993
 6494TIP3    H219424   2.041   2.711   4.901
 6495TIP3   OH219425   2.855   2.870   4.160
 6495TIP3    H119426   2.909   2.798   4.126
 6495TIP3    H219427   2.890   2.886   4.247
 6496TIP3   OH219428   2.911   2.919   4.427
 6496TIP3    H119429   2.828   2.921   4.475
 6496TIP3    H219430   2.978   2.904   4.494
 6497TIP3   OH219431   3.671   2.176   5.739
 6497TIP3    H119432   3.590   2.191   5.691
 6497TIP3    H219433   3.685   2.082   5.734
 6498TIP3   OH219434   2.274   2.593   5.730
 6498TIP3    H119435   2.324   2.577   5.810
 6498TIP3    H219436   2.200   2.533   5.736
 6499TIP3   OH219437   2.656   1.409   5.532
 6499TIP3    H119438   2.573   1.376   5.497
 6499TIP3    H219439   2.632   1.487   5.582
 6500TIP3   OH219440   3.195   1.541   5.717
 6500TIP3    H119441   3.265   1.518   5.778
 6500TIP3    H219442   3.114   1.524   5.766
 6501TIP3   OH219443   3.395   1.972   5.619
 6501TIP3    H119444   3.367   1.966   5.710
 6501TIP3    H219445   3.404   2.066   5.602
 6502TIP3   OH219446   3.094   2.033   4.182
 6502TIP3    H119447   3.055   2.037   4.094
 6502TIP3    H219448   3.176   2.083   4.173
 6503TIP3   OH219449   2.830   1.454   4.483
 6503TIP3    H119450   2.806   1.443   4.575
 6503TIP3    H219451   2.769   1.397   4.436
 6504TIP3   OH219452   2.599   1.911   5.546
 6504TIP3    H119453   2.550   1.930   5.626
 6504TIP3    H219454   2.592   1.991   5.494
 6505TIP3   OH219455   2.461   1.824   5.074
 6505TIP3    H119456   2.374   1.788   5.091
 6505TIP3    H219457   2.476   1.808   4.981
 6506TIP3   OH219458   2.952   1.887   4.792
 6506TIP3    H119459   2.905   1.960   4.752
 6506TIP3    H219460   3.015   1.859   4.726
 6507TIP3   OH219461   3.139   2.175   5.866
 6507TIP3    H119462   3.115   2.106   5.928
 6507TIP3    H219463   3.231   2.194   5.886
 6508TIP3   OH219464   3.129   1.915   5.015
 6508TIP3    H119465   3.056   1.932   4.955
 6508TIP3    H219466   3.176   1.841   4.976
 6509TIP3   OH219467   2.428   1.950   5.759
 6509TIP3    H119468   2.441   2.017   5.827
 6509TIP3    H219469   2.410   1.870   5.809
 6510TIP3   OH219470   2.470   1.454   4.499
 6510TIP3    H119471   2.440   1.442   4.589
 6510TIP3    H219472   2.396   1.496   4.454
 6511TIP3   OH219473   2.036   1.461   5.338
 6511TIP3    H119474   2.094   1.496   5.406
 6511TIP3    H219475   2.052   1.517   5.262
 6512TIP3   OH219476   1.979   1.485   4.884
 6512TIP3    H119477   2.021   1.508   4.801
 6512TIP3    H219478   1.902   1.542   4.888
 6513TIP3   OH219479   3.159   2.153   5.445
 6513TIP3    H119480   3.172   2.198   5.362
 6513TIP3    H219481   3.123   2.219   5.504
 6514TIP3   OH219482   2.827   1.605   5.102
 6514TIP3    H119483   2.746   1.606   5.153
 6514TIP3    H219484   2.897   1.598   5.167
 6515TIP3   OH219485   2.232   1.680   5.124
 6515TIP3    H119486   2.145   1.688   5.084
 6515TIP3    H219487   2.265   1.596   5.093
 6516TIP3   OH219488   2.506   1.761   4.816
 6516TIP3    H119489   2.591   1.722   4.799
 6516TIP3    H219490   2.453   1.740   4.739
 6517TIP3   OH219491   3.321   1.675   5.305
 6517TIP3    H119492   3.291   1.686   5.396
 6517TIP3    H219493   3.274   1.598   5.274
 6518TIP3   OH219494   2.357   1.733   4.583
 6518TIP3    H119495   2.294   1.680   4.535
 6518TIP3    H219496   2.415   1.768   4.514
 6519TIP3   OH219497   3.481   3.403   5.543
 6519TIP3    H119498   3.473   3.424   5.450
 6519TIP3    H219499   3.559   3.449   5.572
 6520TIP3   OH219500   2.433   2.506   5.957
 6520TIP3    H119501   2.513   2.528   6.005
 6520TIP3    H219502   2.364   2.510   6.023
 6521TIP3   OH219503   2.385   1.445   5.085
 6521TIP3    H119504   2.363   1.365   5.132
 6521TIP3    H219505   2.397   1.417   4.994
 6522TIP3   OH219506   2.598   2.238   4.604
 6522TIP3    H119507   2.524   2.182   4.582
 6522TIP3    H219508   2.574   2.278   4.688
 6523TIP3   OH219509   3.503   2.490   5.219
 6523TIP3    H119510   3.534   2.539   5.142
 6523TIP3    H219511   3.421   2.450   5.190
 6524TIP3   OH219512   3.071   1.576   4.464
 6524TIP3    H119513   2.978   1.555   4.471
 6524TIP3    H219514   3.077   1.667   4.494
 6525TIP3   OH219515   2.991   2.546   5.629
 6525TIP3    H119516   3.048   2.545   5.706
 6525TIP3    H219517   2.955   2.635   5.627
 6526TIP3   OH219518   3.126   1.821   4.579
 6526TIP3    H119519   3.221   1.827   4.588
 6526TIP3    H219520   3.102   1.899   4.528
 6527TIP3   OH219521   2.292   2.258   5.274
 6527TIP3    H119522   2.329   2.238   5.188
 6527TIP3    H219523   2.345   2.208   5.335
 6528TIP3   OH219524   2.748   2.399   4.441
 6528TIP3    H119525   2.702   2.483   4.439
 6528TIP3    H219526   2.693   2.342   4.495
 6529TIP3   OH219527   2.187   2.190   5.888
 6529TIP3    H119528   2.207   2.187   5.981
 6529TIP3    H219529   2.115   2.128   5.877
 6530TIP3   OH219530   2.902   2.320   5.903
 6530TIP3    H119531   2.836   2.256   5.876
 6530TIP3    H219532   2.986   2.281   5.878
 6531TIP3   OH219533   3.146   2.823   5.516
 6531TIP3    H119534   3.050   2.830   5.519
 6531TIP3    H219535   3.176   2.880   5.587
 6532TIP3   OH219536   3.541   1.906   4.397
 6532TIP3    H119537   3.485   1.860   4.335
 6532TIP3    H219538   3.546   1.996   4.363
 6533TIP3   OH219539   3.785   2.765   5.483
 6533TIP3    H119540   3.690   2.760   5.473
 6533TIP3    H219541   3.819   2.741   5.396
 6534TIP3   OH219542   3.265   2.725   4.319
 6534TIP3    H119543   3.243   2.658   4.384
 6534TIP3    H219544   3.286   2.675   4.240
 6535TIP3   OH219545   3.274   2.340   5.158
 6535TIP3    H119546   3.179   2.329   5.163
 6535TIP3    H219547   3.304   2.266   5.105
 6536TIP3   OH219548   2.410   2.591   4.915
 6536TIP3    H119549   2.409   2.668   4.858
 6536TIP3    H219550   2.318   2.580   4.941
 6537TIP3   OH219551   1.968   1.875   4.627
 6537TIP3    H119552   2.012   1.959   4.645
 6537TIP3    H219553   1.888   1.878   4.679
 6538TIP3   OH219554   2.510   2.345   4.838
 6538TIP3    H119555   2.487   2.436   4.857
 6538TIP3    H219556   2.471   2.294   4.909
 6539TIP3   OH219557   2.688   2.916   5.369
 6539TIP3    H119558   2.722   2.990   5.319
 6539TIP3    H219559   2.763   2.886   5.421
 6540TIP3   OH219560   2.325   2.814   4.763
 6540TIP3    H119561   2.238   2.822   4.802
 6540TIP3    H219562   2.360   2.903   4.766
 6541TIP3   OH219563   3.048   2.564   5.356
 6541TIP3    H119564   3.030   2.558   5.450
 6541TIP3    H219565   3.143   2.561   5.349
 6542TIP3   OH219566   3.035   2.454   4.217
 6542TIP3    H119567   3.090   2.424   4.290
 6542TIP3    H219568   2.947   2.423   4.239
 6543TIP3   OH219569   3.294   3.082   5.378
 6543TIP3    H119570   3.213   3.031   5.379
 6543TIP3    H219571   3.282   3.145   5.307
 6544TIP3   OH219572   3.360   2.925   4.027
 6544TIP3    H119573   3.403   2.996   3.979
 6544TIP3    H219574   3.283   2.966   4.066
 6545TIP3   OH219575   2.380   1.701   5.892
 6545TIP3    H119576   2.284   1.707   5.901
 6545TIP3    H219577   2.409   1.659   5.973
 6546TIP3   OH219578   3.207   2.355   4.407
 6546TIP3    H119579   3.193   2.311   4.491
 6546TIP3    H219580   3.301   2.370   4.403
 6547TIP3   OH219581   2.113   2.810   5.529
 6547TIP3    H119582   2.168   2.753   5.583
 6547TIP3    H219583   2.129   2.898   5.562
 6548TIP3   OH219584   2.393   2.422   4.220
 6548TIP3    H119585   2.403   2.330   4.196
 6548TIP3    H219586   2.372   2.420   4.314
 6549TIP3   OH219587   2.331   2.438   4.491
 6549TIP3    H119588   2.400   2.412   4.552
 6549TIP3    H219589   2.329   2.534   4.498
 6550TIP3   OH219590   2.064   2.128   4.702
 6550TIP3    H119591   1.998   2.173   4.755
 6550TIP3    H219592   2.082   2.188   4.629
 6551TIP3   OH219593   3.229   1.764   5.551
 6551TIP3    H119594   3.303   1.807   5.595
 6551TIP3    H219595   3.208   1.689   5.607
 6552TIP3   OH219596   3.119   1.518   4.754
 6552TIP3    H119597   3.102   1.545   4.664
 6552TIP3    H219598   3.163   1.593   4.794
 6553TIP3   OH219599   2.602   2.627   4.437
 6553TIP3    H119600   2.516   2.651   4.473
 6553TIP3    H219601   2.629   2.704   4.387
 6554TIP3   OH219602   2.776   1.669   4.835
 6554TIP3    H119603   2.834   1.743   4.815
 6554TIP3    H219604   2.787   1.656   4.929
 6555TIP3   OH219605   3.087   1.981   5.670
 6555TIP3    H119606   3.079   2.063   5.720
 6555TIP3    H219607   3.116   1.917   5.735
 6556TIP3   OH219608   2.942   1.408   4.940
 6556TIP3    H119609   2.912   1.483   4.992
 6556TIP3    H219610   3.010   1.444   4.883
 6557TIP3   OH219611   2.348   2.709   4.511
 6557TIP3    H119612   2.326   2.778   4.448
 6557TIP3    H219613   2.338   2.750   4.596
 6558TIP3   OH219614   3.672   1.914   5.633
 6558TIP3    H119615   3.576   1.910   5.627
 6558TIP3    H219616   3.703   1.885   5.547
 6559TIP3   OH219617   3.345   2.098   5.031
 6559TIP3    H119618   3.273   2.035   5.034
 6559TIP3    H219619   3.418   2.053   5.075
 6560TIP3   OH219620   2.081   2.312   4.490
 6560TIP3    H119621   2.149   2.379   4.499
 6560TIP3    H219622   2.116   2.250   4.427
 6561TIP3   OH219623   2.002   1.598   4.630
 6561TIP3    H119624   2.010   1.694   4.633
 6561TIP3    H219625   1.923   1.582   4.578
 6562TIP3   OH219626   3.325   3.068   4.948
 6562TIP3    H119627   3.282   3.117   4.878
 6562TIP3    H219628   3.418   3.088   4.938
 6563TIP3   OH219629   2.393   1.325   5.493
 6563TIP3    H119630   2.366   1.295   5.407
 6563TIP3    H219631   2.386   1.248   5.549
 6564TIP3   OH219632   1.919   2.563   4.891
 6564TIP3    H119633   1.877   2.603   4.967
 6564TIP3    H219634   1.878   2.608   4.816
 6565TIP3   OH219635   2.118   3.102   5.966
 6565TIP3    H119636   2.201   3.111   6.013
 6565TIP3    H219637   2.112   3.008   5.947
 6566TIP3   OH219638   2.567   3.041   5.996
 6566TIP3    H119639   2.661   3.030   6.005
 6566TIP3    H219640   2.542   2.982   5.925
 6567TIP3   OH219641   2.549   2.623   4.114
 6567TIP3    H119642   2.501   2.554   4.160
 6567TIP3    H219643   2.627   2.578   4.079
 6568TIP3   OH219644   3.205   2.967   5.743
 6568TIP3    H119645   3.211   2.898   5.810
 6568TIP3    H219646   3.280   3.023   5.760
 6569TIP3   OH219647   2.989   2.660   4.039
 6569TIP3    H119648   3.022   2.599   4.105
 6569TIP3    H219649   3.055   2.660   3.970
 6570TIP3   OH219650   2.223   2.509   6.143
 6570TIP3    H119651   2.243   2.416   6.158
 6570TIP3    H219652   2.136   2.508   6.103
 6571TIP3   OH219653   2.214   2.122   4.347
 6571TIP3    H119654   2.266   2.099   4.424
 6571TIP3    H219655   2.278   2.134   4.277
 6572TIP3   OH219656   2.840   2.595   5.924
 6572TIP3    H119657   2.794   2.617   5.843
 6572TIP3    H219658   2.871   2.505   5.911
 6573TIP3   OH219659   2.752   2.348   4.169
 6573TIP3    H119660   2.739   2.361   4.263
 6573TIP3    H219661   2.742   2.253   4.157
 6574TIP3   OH219662   3.309   2.603   5.512
 6574TIP3    H119663   3.389   2.640   5.473
 6574TIP3    H219664   3.249   2.677   5.518
 6575TIP3   OH219665   2.338   2.243   6.141
 6575TIP3    H119666   2.418   2.202   6.108
 6575TIP3    H219667   2.359   2.268   6.230
 6576TIP3   OH219668   2.393   2.057   4.556
 6576TIP3    H119669   2.371   2.028   4.645
 6576TIP3    H219670   2.435   1.982   4.516
 6577TIP3   OH219671   2.710   2.141   5.786
 6577TIP3    H119672   2.624   2.182   5.793
 6577TIP3    H219673   2.746   2.174   5.703
 6578TIP3   OH219674   2.521   1.861   4.401
 6578TIP3    H119675   2.491   1.868   4.310
 6578TIP3    H219676   2.616   1.871   4.396
 6579TIP3   OH219677   3.194   2.513   5.905
 6579TIP3    H119678   3.285   2.500   5.877
 6579TIP3    H219679   3.185   2.460   5.983
 6580TIP3   OH219680   3.319   2.165   4.081
 6580TIP3    H119681   3.306   2.124   3.995
 6580TIP3    H219682   3.294   2.256   4.068
 6581TIP3   OH219683   2.804   1.916   5.914
 6581TIP3    H119684   2.799   1.840   5.855
 6581TIP3    H219685   2.771   1.989   5.862
 6582TIP3   OH219686   2.787   1.711   5.718
 6582TIP3    H119687   2.787   1.770   5.643
 6582TIP3    H219688   2.700   1.672   5.718
 6583TIP3   OH219689   2.851   2.271   5.577
 6583TIP3    H119690   2.899   2.349   5.605
 6583TIP3    H219691   2.776   2.304   5.528
 6584TIP3   OH219692   3.406   2.196   5.973
 6584TIP3    H119693   3.442   2.127   6.029
 6584TIP3    H219694   3.480   2.255   5.959
 6585TIP3   OH219695   3.454   2.466   5.701
 6585TIP3    H119696   3.394   2.519   5.647
 6585TIP3    H219697   3.541   2.490   5.668
 6586TIP3   OH219698   2.678   2.005   6.149
 6586TIP3    H119699   2.611   1.942   6.175
 6586TIP3    H219700   2.711   1.972   6.066
 6587TIP3   OH219701   2.931   1.478   5.802
 6587TIP3    H119702   2.884   1.557   5.774
 6587TIP3    H219703   2.866   1.408   5.794
 6588TIP3   OH219704   3.063   1.956   6.013
 6588TIP3    H119705   3.061   1.945   6.108
 6588TIP3    H219706   2.974   1.936   5.985
 6589TIP3   OH219707   3.294   1.892   5.863
 6589TIP3    H119708   3.227   1.903   5.930
 6589TIP3    H219709   3.374   1.873   5.911
 6590TIP3   OH219710   3.537   1.853   6.002
 6590TIP3    H119711   3.548   1.762   6.029
 6590TIP3    H219712   3.521   1.901   6.084
 6591TIP3   OH219713   2.521   1.777   6.216
 6591TIP3    H119714   2.529   1.686   6.187
 6591TIP3    H219715   2.556   1.777   6.305
 6592TIP3   OH219716   3.006   1.459   6.069
 6592TIP3    H119717   3.075   1.394   6.064
 6592TIP3    H219718   2.974   1.467   5.979
 6593TIP3   OH219719   3.094   1.683   6.205
 6593TIP3    H119720   3.062   1.609   6.153
 6593TIP3    H219721   3.018   1.742   6.211
 6594TIP3   OH219722   2.335   2.905   4.317
 6594TIP3    H119723   2.428   2.896   4.297
 6594TIP3    H219724   2.300   2.959   4.246
 6595TIP3   OH219725   1.808   2.297   4.515
 6595TIP3    H119726   1.902   2.312   4.509
 6595TIP3    H219727   1.795   2.211   4.475
 6596TIP3   OH219728   1.717   2.883   4.965
 6596TIP3    H119729   1.652   2.831   4.918
 6596TIP3    H219730   1.762   2.820   5.022
 6597TIP3   OH219731   1.860   2.714   5.134
 6597TIP3    H119732   1.849   2.650   5.204
 6597TIP3    H219733   1.910   2.785   5.173
 6598TIP3   OH219734   3.585   3.150   4.936
 6598TIP3    H119735   3.614   3.179   5.022
 6598TIP3    H219736   3.653   3.181   4.876
 6599TIP3   OH219737   3.605   3.168   5.224
 6599TIP3    H119738   3.565   3.081   5.217
 6599TIP3    H219739   3.685   3.154   5.274
 6600TIP3   OH219740   3.660   2.851   5.799
 6600TIP3    H119741   3.589   2.862   5.862
 6600TIP3    H219742   3.707   2.935   5.801
 6601TIP3   OH219743   3.487   2.367   4.409
 6601TIP3    H119744   3.543   2.438   4.378
 6601TIP3    H219745   3.534   2.331   4.484
 6602TIP3   OH219746   3.619   2.226   4.610
 6602TIP3    H119747   3.552   2.197   4.672
 6602TIP3    H219748   3.686   2.267   4.665
 6603TIP3   OH219749   3.667   2.625   5.039
 6603TIP3    H119750   3.721   2.558   4.997
 6603TIP3    H219751   3.675   2.702   4.982
 6604TIP3   OH219752   3.472   2.919   5.235
 6604TIP3    H119753   3.403   2.967   5.281
 6604TIP3    H219754   3.428   2.881   5.159
 6605TIP3   OH219755   3.530   2.144   4.256
 6605TIP3    H119756   3.457   2.144   4.193
 6605TIP3    H219757   3.516   2.221   4.309
 6606TIP3   OH219758   3.385   1.798   4.201
 6606TIP3    H119759   3.339   1.839   4.127
 6606TIP3    H219760   3.374   1.704   4.186
 6607TIP3   OH219761   3.411   2.097   4.757
 6607TIP3    H119762   3.425   2.003   4.746
 6607TIP3    H219763   3.395   2.108   4.851
 6608TIP3   OH219764   2.039   2.151   5.515
 6608TIP3    H119765   2.029   2.119   5.425
 6608TIP3    H219766   2.133   2.152   5.530
 6609TIP3   OH219767   3.708   2.513   5.606
 6609TIP3    H119768   3.773   2.445   5.587
 6609TIP3    H219769   3.736   2.589   5.554
 6610TIP3   OH219770   3.873   2.293   5.596
 6610TIP3    H119771   3.805   2.255   5.651
 6610TIP3    H219772   3.951   2.242   5.615
 6611TIP3   OH219773   3.348   1.525   4.170
 6611TIP3    H119774   3.417   1.504   4.233
 6611TIP3    H219775   3.272   1.474   4.200
 6612TIP3   OH219776   3.411   1.812   4.634
 6612TIP3    H119777   3.456   1.728   4.646
 6612TIP3    H219778   3.456   1.853   4.560
 6613TIP3   OH219779   3.567   1.975   5.151
 6613TIP3    H119780   3.646   1.996   5.101
 6613TIP3    H219781   3.584   2.012   5.237
 6614TIP3   OH219782   3.646   2.118   5.378
 6614TIP3    H119783   3.586   2.153   5.444
 6614TIP3    H219784   3.680   2.195   5.333
 6615TIP3   OH219785   2.257   1.837   6.155
 6615TIP3    H119786   2.351   1.839   6.176
 6615TIP3    H219787   2.225   1.756   6.196
 6616TIP3   OH219788   4.088   1.716   5.924
 6616TIP3    H119789   4.157   1.660   5.888
 6616TIP3    H219790   4.060   1.769   5.849
 6617TIP3   OH219791   3.522   1.560   4.683
 6617TIP3    H119792   3.569   1.544   4.765
 6617TIP3    H219793   3.460   1.487   4.676
 6618TIP3   OH219794   2.222   1.543   5.528
 6618TIP3    H119795   2.278   1.465   5.528
 6618TIP3    H219796   2.280   1.615   5.503
 6619TIP3   OH219797   2.008   1.813   5.566
 6619TIP3    H119798   2.063   1.807   5.488
 6619TIP3    H219799   2.029   1.899   5.604
 6620TIP3   OH219800   3.948   1.852   5.734
 6620TIP3    H119801   3.881   1.892   5.788
 6620TIP3    H219802   3.902   1.787   5.682
 6621TIP3   OH219803   3.577   1.481   4.322
 6621TIP3    H119804   3.622   1.418   4.265
 6621TIP3    H219805   3.635   1.557   4.324
 6622TIP3   OH219806   1.945   1.269   5.041
 6622TIP3    H119807   1.868   1.294   5.092
 6622TIP3    H219808   1.965   1.345   4.987
 6623TIP3   OH219809   3.147   3.028   4.582
 6623TIP3    H119810   3.208   3.024   4.509
 6623TIP3    H219811   3.181   3.098   4.638
 6624TIP3   OH219812   2.220   1.374   5.895
 6624TIP3    H119813   2.175   1.378   5.979
 6624TIP3    H219814   2.163   1.423   5.834
 6625TIP3   OH219815   2.251   2.832   5.969
 6625TIP3    H119816   2.160   2.806   5.960
 6625TIP3    H219817   2.275   2.811   6.059
 6626TIP3   OH219818   2.460   2.873   5.518
 6626TIP3    H119819   2.408   2.946   5.485
 6626TIP3    H219820   2.545   2.883   5.475
 6627TIP3   OH219821   2.869   3.105   5.653
 6627TIP3    H119822   2.906   3.101   5.741
 6627TIP3    H219823   2.931   3.159   5.603
 6628TIP3   OH219824   3.059   3.265   5.531
 6628TIP3    H119825   3.128   3.222   5.480
 6628TIP3    H219826   3.106   3.328   5.587
 6629TIP3   OH219827   3.848   1.609   5.619
 6629TIP3    H119828   3.764   1.610   5.572
 6629TIP3    H219829   3.880   1.519   5.609
 6630TIP3   OH219830   2.117   3.097   5.562
 6630TIP3    H119831   2.029   3.125   5.537
 6630TIP3    H219832   2.146   3.161   5.627
 6631TIP3   OH219833   2.349   3.101   5.409
 6631TIP3    H119834   2.265   3.105   5.454
 6631TIP3    H219835   2.331   3.132   5.321
 6632TIP3   OH219836   2.772   3.122   5.205
 6632TIP3    H119837   2.704   3.138   5.140
 6632TIP3    H219838   2.787   3.207   5.245
 6633TIP3   OH219839   3.037   3.052   5.250
 6633TIP3    H119840   2.946   3.077   5.235
 6633TIP3    H219841   3.088   3.120   5.207
 6634TIP3   OH219842   3.234   3.228   5.154
 6634TIP3    H119843   3.234   3.318   5.120
 6634TIP3    H219844   3.266   3.175   5.081
 6635TIP3   OH219845   2.027   2.897   5.280
 6635TIP3    H119846   2.055   2.874   5.368
 6635TIP3    H219847   2.099   2.867   5.224
 6636TIP3   OH219848   2.232   2.781   5.144
 6636TIP3    H119849   2.245   2.699   5.192
 6636TIP3    H219850   2.318   2.824   5.146
 6637TIP3   OH219851   2.498   2.868   5.167
 6637TIP3    H119852   2.519   2.775   5.156
 6637TIP3    H219853   2.553   2.897   5.241
 6638TIP3   OH219854   3.044   1.513   5.252
 6638TIP3    H119855   3.007   1.442   5.306
 6638TIP3    H219856   3.116   1.472   5.204
 6639TIP3   OH219857   3.572   1.419   5.133
 6639TIP3    H119858   3.612   1.468   5.062
 6639TIP3    H219859   3.483   1.454   5.140
 6640TIP3   OH219860   3.685   1.508   4.900
 6640TIP3    H119861   3.754   1.447   4.872
 6640TIP3    H219862   3.723   1.595   4.889
 6641TIP3   OH219863   2.309   1.223   5.249
 6641TIP3    H119864   2.220   1.189   5.258
 6641TIP3    H219865   2.364   1.144   5.243
 6642TIP3   OH219866   2.786   1.257   5.138
 6642TIP3    H119867   2.828   1.316   5.075
 6642TIP3    H219868   2.816   1.289   5.224
 6643TIP3   OH219869   3.278   1.416   5.134
 6643TIP3    H119870   3.291   1.387   5.044
 6643TIP3    H219871   3.283   1.335   5.186
 6644TIP3   OH219872   3.330   1.350   4.675
 6644TIP3    H119873   3.254   1.403   4.701
 6644TIP3    H219874   3.314   1.264   4.714
 6645TIP3   OH219875   1.806   2.690   4.678
 6645TIP3    H119876   1.721   2.658   4.647
 6645TIP3    H219877   1.813   2.778   4.642
 6646TIP3   OH219878   2.747   1.400   4.743
 6646TIP3    H119879   2.818   1.384   4.806
 6646TIP3    H219880   2.718   1.489   4.762
 6647TIP3   OH219881   2.599   2.850   4.262
 6647TIP3    H119882   2.683   2.879   4.226
 6647TIP3    H219883   2.573   2.777   4.205
 6648TIP3   OH219884   3.306   2.993   4.357
 6648TIP3    H119885   3.297   2.898   4.347
 6648TIP3    H219886   3.264   3.029   4.278
 6649TIP3   OH219887   2.529   1.501   6.132
 6649TIP3    H119888   2.493   1.436   6.191
 6649TIP3    H219889   2.621   1.508   6.158
 6650TIP3   OH219890   2.778   1.504   6.251
 6650TIP3    H119891   2.860   1.485   6.206
 6650TIP3    H219892   2.772   1.438   6.320
 6651TIP3   OH219893   1.895   2.694   4.315
 6651TIP3    H119894   1.897   2.722   4.406
 6651TIP3    H219895   1.979   2.651   4.301
 6652TIP3   OH219896   3.600   1.585   6.047
 6652TIP3    H119897   3.616   1.561   6.139
 6652TIP3    H219898   3.687   1.583   6.007
 6653TIP3   OH219899   3.520   3.128   5.547
 6653TIP3    H119900   3.445   3.099   5.494
 6653TIP3    H219901   3.509   3.223   5.552
 6654TIP3   OH219902   4.798   2.511   4.292
 6654TIP3    H119903   4.771   2.600   4.269
 6654TIP3    H219904   4.723   2.456   4.265
 6655TIP3   OH219905   4.848   2.512   4.687
 6655TIP3    H119906   4.854   2.479   4.777
 6655TIP3    H219907   4.759   2.491   4.661
 6656TIP3   OH219908   4.102   2.394   5.061
 6656TIP3    H119909   4.140   2.334   5.126
 6656TIP3    H219910   4.177   2.443   5.027
 6657TIP3   OH219911   5.063   2.814   4.383
 6657TIP3    H119912   5.059   2.748   4.453
 6657TIP3    H219913   5.085   2.895   4.429
 6658TIP3   OH219914   3.999   2.773   4.787
 6658TIP3    H119915   4.003   2.681   4.762
 6658TIP3    H219916   4.090   2.799   4.800
 6659TIP3   OH219917   3.771   1.996   4.541
 6659TIP3    H119918   3.737   2.083   4.564
 6659TIP3    H219919   3.697   1.953   4.497
 6660TIP3   OH219920   3.847   2.309   4.746
 6660TIP3    H119921   3.898   2.233   4.773
 6660TIP3    H219922   3.912   2.376   4.726
 6661TIP3   OH219923   4.710   3.255   4.394
 6661TIP3    H119924   4.745   3.183   4.342
 6661TIP3    H219925   4.693   3.216   4.480
 6662TIP3   OH219926   5.634   2.051   4.736
 6662TIP3    H119927   5.652   2.134   4.781
 6662TIP3    H219928   5.654   2.068   4.644
 6663TIP3   OH219929   5.010   2.221   4.762
 6663TIP3    H119930   5.046   2.136   4.783
 6663TIP3    H219931   4.976   2.212   4.672
 6664TIP3   OH219932   4.362   1.880   4.719
 6664TIP3    H119933   4.344   1.954   4.661
 6664TIP3    H219934   4.307   1.809   4.685
 6665TIP3   OH219935   5.059   1.980   4.350
 6665TIP3    H119936   5.123   1.972   4.421
 6665TIP3    H219937   5.109   2.017   4.277
 6666TIP3   OH219938   3.987   2.089   4.843
 6666TIP3    H119939   4.072   2.079   4.886
 6666TIP3    H219940   3.996   2.040   4.761
 6667TIP3   OH219941   4.413   2.285   4.653
 6667TIP3    H119942   4.505   2.261   4.666
 6667TIP3    H219943   4.373   2.206   4.617
 6668TIP3   OH219944   5.692   2.268   4.905
 6668TIP3    H119945   5.607   2.311   4.894
 6668TIP3    H219946   5.729   2.307   4.984
 6669TIP3   OH219947   4.345   1.880   5.166
 6669TIP3    H119948   4.299   1.921   5.092
 6669TIP3    H219949   4.291   1.899   5.242
 6670TIP3   OH219950   4.701   2.730   4.147
 6670TIP3    H119951   4.660   2.704   4.065
 6670TIP3    H219952   4.650   2.805   4.177
 6671TIP3   OH219953   5.229   1.992   4.566
 6671TIP3    H119954   5.184   1.974   4.649
 6671TIP3    H219955   5.285   2.067   4.585
 6672TIP3   OH219956   4.235   1.994   4.939
 6672TIP3    H119957   4.287   2.073   4.958
 6672TIP3    H219958   4.282   1.951   4.867
 6673TIP3   OH219959   4.302   2.799   5.087
 6673TIP3    H119960   4.308   2.808   4.992
 6673TIP3    H219961   4.214   2.829   5.109
 6674TIP3   OH219962   3.660   2.553   4.292
 6674TIP3    H119963   3.628   2.576   4.204
 6674TIP3    H219964   3.684   2.637   4.331
 6675TIP3   OH219965   5.111   3.061   4.521
 6675TIP3    H119966   5.026   3.052   4.565
 6675TIP3    H219967   5.106   3.147   4.477
 6676TIP3   OH219968   5.430   1.933   4.897
 6676TIP3    H119969   5.344   1.962   4.866
 6676TIP3    H219970   5.492   1.965   4.832
 6677TIP3   OH219971   4.688   1.574   4.891
 6677TIP3    H119972   4.679   1.483   4.916
 6677TIP3    H219973   4.613   1.618   4.932
 6678TIP3   OH219974   4.814   3.092   4.190
 6678TIP3    H119975   4.866   3.013   4.177
 6678TIP3    H219976   4.870   3.163   4.159
 6679TIP3   OH219977   4.950   2.860   4.135
 6679TIP3    H119978   4.873   2.802   4.136
 6679TIP3    H219979   4.997   2.837   4.215
 6680TIP3   OH219980   5.339   2.956   4.878
 6680TIP3    H119981   5.321   2.881   4.822
 6680TIP3    H219982   5.320   3.032   4.824
 6681TIP3   OH219983   4.626   2.350   4.140
 6681TIP3    H119984   4.544   2.397   4.123
 6681TIP3    H219985   4.674   2.355   4.057
 6682TIP3   OH219986   4.592   2.157   3.839
 6682TIP3    H119987   4.655   2.206   3.891
 6682TIP3    H219988   4.644   2.092   3.792
 6683TIP3   OH219989   5.526   2.606   4.734
 6683TIP3    H119990   5.444   2.654   4.737
 6683TIP3    H219991   5.560   2.624   4.646
 6684TIP3   OH219992   4.982   2.440   4.104
 6684TIP3    H119993   4.928   2.469   4.176
 6684TIP3    H219994   5.066   2.418   4.144
 6685TIP3   OH219995   5.211   2.473   5.042
 6685TIP3    H119996   5.212   2.556   5.090
 6685TIP3    H219997   5.128   2.472   4.996
 6686TIP3   OH219998   4.208   2.422   4.516
 6686TIP3    H119999   4.180   2.367   4.443
 6686TIP3    H220000   4.285   2.377   4.551
 6687TIP3   OH220001   4.324   2.447   4.866
 6687TIP3    H120002   4.357   2.403   4.788
 6687TIP3    H220003   4.353   2.538   4.856
 6688TIP3   OH220004   4.882   3.054   4.662
 6688TIP3    H120005   4.860   3.132   4.714
 6688TIP3    H220006   4.872   2.981   4.723
 6689TIP3   OH220007   4.482   2.959   5.214
 6689TIP3    H120008   4.420   3.022   5.251
 6689TIP3    H220009   4.427   2.897   5.166
 6690TIP3   OH220010   4.816   2.302   3.933
 6690TIP3    H120011   4.875   2.360   3.981
 6690TIP3    H220012   4.843   2.312   3.842
 6691TIP3   OH220013   4.247   2.501   5.339
 6691TIP3    H120014   4.257   2.595   5.353
 6691TIP3    H220015   4.153   2.487   5.332
 6692TIP3   OH220016   4.568   2.968   4.189
 6692TIP3    H120017   4.648   3.021   4.199
 6692TIP3    H220018   4.502   3.030   4.158
 6693TIP3   OH220019   4.271   3.120   5.298
 6693TIP3    H120020   4.244   3.127   5.206
 6693TIP3    H220021   4.190   3.101   5.345
 6694TIP3   OH220022   5.325   1.532   3.989
 6694TIP3    H120023   5.249   1.554   4.042
 6694TIP3    H220024   5.340   1.610   3.935
 6695TIP3   OH220025   4.088   2.270   4.302
 6695TIP3    H120026   4.013   2.321   4.271
 6695TIP3    H220027   4.049   2.188   4.332
 6696TIP3   OH220028   5.143   2.904   3.541
 6696TIP3    H120029   5.141   2.999   3.526
 6696TIP3    H220030   5.234   2.879   3.522
 6697TIP3   OH220031   3.862   2.668   5.241
 6697TIP3    H120032   3.799   2.651   5.172
 6697TIP3    H220033   3.904   2.583   5.257
 6698TIP3   OH220034   3.749   2.845   4.881
 6698TIP3    H120035   3.835   2.823   4.846
 6698TIP3    H220036   3.763   2.924   4.933
 6699TIP3   OH220037   5.571   3.319   4.936
 6699TIP3    H120038   5.576   3.224   4.948
 6699TIP3    H220039   5.491   3.345   4.982
 6700TIP3   OH220040   4.683   3.084   5.074
 6700TIP3    H120041   4.671   3.178   5.087
 6700TIP3    H220042   4.609   3.044   5.118
 6701TIP3   OH220043   4.452   3.212   4.017
 6701TIP3    H120044   4.401   3.194   3.937
 6701TIP3    H220045   4.416   3.294   4.050
 6702TIP3   OH220046   3.886   3.053   4.402
 6702TIP3    H120047   3.935   3.045   4.484
 6702TIP3    H220048   3.845   2.967   4.390
 6703TIP3   OH220049   4.652   3.129   3.647
 6703TIP3    H120050   4.704   3.056   3.613
 6703TIP3    H220051   4.686   3.142   3.736
 6704TIP3   OH220052   4.705   3.173   3.917
 6704TIP3    H120053   4.619   3.180   3.958
 6704TIP3    H220054   4.762   3.140   3.987
 6705TIP3   OH220055   5.460   2.434   5.212
 6705TIP3    H120056   5.377   2.446   5.165
 6705TIP3    H220057   5.477   2.340   5.205
 6706TIP3   OH220058   4.055   2.865   5.207
 6706TIP3    H120059   4.110   2.852   5.285
 6706TIP3    H220060   3.986   2.800   5.215
 6707TIP3   OH220061   4.452   1.666   5.020
 6707TIP3    H120062   4.367   1.636   4.986
 6707TIP3    H220063   4.432   1.748   5.065
 6708TIP3   OH220064   4.998   1.781   5.216
 6708TIP3    H120065   5.067   1.759   5.278
 6708TIP3    H220066   4.916   1.765   5.264
 6709TIP3   OH220067   5.216   2.207   5.129
 6709TIP3    H120068   5.175   2.204   5.215
 6709TIP3    H220069   5.202   2.297   5.098
 6710TIP3   OH220070   4.893   2.289   3.668
 6710TIP3    H120071   4.853   2.290   3.581
 6710TIP3    H220072   4.973   2.340   3.658
 6711TIP3   OH220073   4.601   1.709   3.986
 6711TIP3    H120074   4.568   1.715   4.076
 6711TIP3    H220075   4.564   1.627   3.953
 6712TIP3   OH220076   4.387   2.214   5.015
 6712TIP3    H120077   4.344   2.224   5.100
 6712TIP3    H220078   4.371   2.297   4.969
 6713TIP3   OH220079   4.271   2.072   4.547
 6713TIP3    H120080   4.181   2.050   4.571
 6713TIP3    H220081   4.281   2.038   4.458
 6714TIP3   OH220082   4.755   2.148   4.274
 6714TIP3    H120083   4.707   2.221   4.235
 6714TIP3    H220084   4.815   2.119   4.206
 6715TIP3   OH220085   4.940   2.420   5.351
 6715TIP3    H120086   4.914   2.354   5.415
 6715TIP3    H220087   5.032   2.438   5.372
 6716TIP3   OH220088   4.920   2.174   4.507
 6716TIP3    H120089   4.852   2.203   4.447
 6716TIP3    H220090   4.961   2.099   4.463
 6717TIP3   OH220091   4.230   2.220   5.244
 6717TIP3    H120092   4.245   2.288   5.310
 6717TIP3    H220093   4.214   2.140   5.295
 6718TIP3   OH220094   4.263   1.687   3.960
 6718TIP3    H120095   4.256   1.693   4.055
 6718TIP3    H220096   4.188   1.736   3.927
 6719TIP3   OH220097   3.818   1.732   4.835
 6719TIP3    H120098   3.884   1.771   4.893
 6719TIP3    H220099   3.859   1.734   4.748
 6720TIP3   OH220100   3.734   1.713   4.335
 6720TIP3    H120101   3.779   1.749   4.258
 6720TIP3    H220102   3.673   1.781   4.361
 6721TIP3   OH220103   4.946   2.417   4.938
 6721TIP3    H120104   4.975   2.354   4.873
 6721TIP3    H220105   4.908   2.364   5.008
 6722TIP3   OH220106   4.627   1.861   4.599
 6722TIP3    H120107   4.550   1.869   4.655
 6722TIP3    H220108   4.701   1.868   4.659
 6723TIP3   OH220109   4.033   1.949   4.612
 6723TIP3    H120110   3.945   1.952   4.575
 6723TIP3    H220111   4.064   1.860   4.592
 6724TIP3   OH220112   4.288   1.946   4.303
 6724TIP3    H120113   4.382   1.963   4.292
 6724TIP3    H220114   4.250   1.967   4.218
 6725TIP3   OH220115   5.088   1.957   4.805
 6725TIP3    H120116   5.069   1.974   4.898
 6725TIP3    H220117   5.016   1.900   4.776
 6726TIP3   OH220118   4.168   1.970   4.058
 6726TIP3    H120119   4.101   1.927   4.004
 6726TIP3    H220120   4.221   2.020   3.996
 6727TIP3   OH220121   5.282   3.660   5.033
 6727TIP3    H120122   5.275   3.678   4.939
 6727TIP3    H220123   5.359   3.708   5.061
 6728TIP3   OH220124   4.223   2.762   5.445
 6728TIP3    H120125   4.303   2.791   5.488
 6728TIP3    H220126   4.154   2.779   5.510
 6729TIP3   OH220127   4.671   2.197   4.709
 6729TIP3    H120128   4.758   2.186   4.670
 6729TIP3    H220129   4.680   2.164   4.798
 6730TIP3   OH220130   4.179   1.704   4.594
 6730TIP3    H120131   4.150   1.627   4.643
 6730TIP3    H220132   4.212   1.669   4.511
 6731TIP3   OH220133   4.653   2.129   4.988
 6731TIP3    H120134   4.567   2.171   4.997
 6731TIP3    H220135   4.712   2.186   5.037
 6732TIP3   OH220136   4.395   2.491   4.084
 6732TIP3    H120137   4.317   2.440   4.060
 6732TIP3    H220138   4.372   2.532   4.168
 6733TIP3   OH220139   5.295   2.750   4.701
 6733TIP3    H120140   5.329   2.802   4.628
 6733TIP3    H220141   5.215   2.710   4.667
 6734TIP3   OH220142   4.855   1.812   3.981
 6734TIP3    H120143   4.761   1.794   3.981
 6734TIP3    H220144   4.861   1.906   3.996
 6735TIP3   OH220145   4.781   2.813   5.092
 6735TIP3    H120146   4.836   2.818   5.170
 6735TIP3    H220147   4.744   2.901   5.083
 6736TIP3   OH220148   4.919   2.072   4.056
 6736TIP3    H120149   5.014   2.079   4.069
 6736TIP3    H220150   4.896   2.151   4.008
 6737TIP3   OH220151   4.060   2.489   4.740
 6737TIP3    H120152   4.104   2.483   4.655
 6737TIP3    H220153   4.131   2.481   4.804
 6738TIP3   OH220154   4.542   2.657   3.923
 6738TIP3    H120155   4.495   2.740   3.923
 6738TIP3    H220156   4.489   2.599   3.978
 6739TIP3   OH220157   3.977   2.443   5.372
 6739TIP3    H120158   3.991   2.433   5.467
 6739TIP3    H220159   3.902   2.386   5.353
 6740TIP3   OH220160   4.704   2.570   5.396
 6740TIP3    H120161   4.636   2.514   5.358
 6740TIP3    H220162   4.786   2.534   5.363
 6741TIP3   OH220163   4.950   3.119   4.989
 6741TIP3    H120164   4.857   3.101   4.994
 6741TIP3    H220165   4.973   3.155   5.074
 6742TIP3   OH220166   5.339   2.161   3.883
 6742TIP3    H120167   5.284   2.115   3.820
 6742TIP3    H220168   5.343   2.251   3.849
 6743TIP3   OH220169   5.586   3.038   4.962
 6743TIP3    H120170   5.491   3.025   4.960
 6743TIP3    H220171   5.617   3.005   4.878
 6744TIP3   OH220172   5.071   2.978   3.812
 6744TIP3    H120173   5.041   2.913   3.875
 6744TIP3    H220174   5.084   2.928   3.731
 6745TIP3   OH220175   5.082   2.612   4.586
 6745TIP3    H120176   4.995   2.589   4.617
 6745TIP3    H220177   5.115   2.532   4.546
 6746TIP3   OH220178   4.172   2.834   4.340
 6746TIP3    H120179   4.162   2.919   4.297
 6746TIP3    H220180   4.161   2.853   4.433
 6747TIP3   OH220181   3.763   2.137   4.106
 6747TIP3    H120182   3.808   2.219   4.126
 6747TIP3    H220183   3.685   2.139   4.161
 6748TIP3   OH220184   4.303   2.596   4.314
 6748TIP3    H120185   4.269   2.685   4.322
 6748TIP3    H220186   4.279   2.554   4.396
 6749TIP3   OH220187   4.461   3.190   4.854
 6749TIP3    H120188   4.514   3.258   4.811
 6749TIP3    H220189   4.523   3.120   4.874
 6750TIP3   OH220190   4.105   3.086   4.235
 6750TIP3    H120191   4.024   3.089   4.285
 6750TIP3    H220192   4.144   3.173   4.246
 6751TIP3   OH220193   4.881   2.834   4.831
 6751TIP3    H120194   4.845   2.817   4.918
 6751TIP3    H220195   4.913   2.749   4.801
 6752TIP3   OH220196   4.828   2.711   3.702
 6752TIP3    H120197   4.884   2.682   3.774
 6752TIP3    H220198   4.741   2.680   3.725
 6753TIP3   OH220199   5.101   3.331   4.873
 6753TIP3    H120200   5.032   3.268   4.892
 6753TIP3    H220201   5.067   3.384   4.802
 6754TIP3   OH220202   5.152   3.180   3.511
 6754TIP3    H120203   5.185   3.247   3.452
 6754TIP3    H220204   5.077   3.220   3.555
 6755TIP3   OH220205   4.179   1.961   5.374
 6755TIP3    H120206   4.084   1.966   5.380
 6755TIP3    H220207   4.206   1.919   5.456
 6756TIP3   OH220208   5.006   2.614   3.886
 6756TIP3    H120209   4.990   2.568   3.968
 6756TIP3    H220210   5.101   2.626   3.883
 6757TIP3   OH220211   3.904   3.067   5.021
 6757TIP3    H120212   3.965   3.006   5.063
 6757TIP3    H220213   3.935   3.153   5.047
 6758TIP3   OH220214   4.189   2.681   3.714
 6758TIP3    H120215   4.200   2.589   3.690
 6758TIP3    H220216   4.173   2.679   3.808
 6759TIP3   OH220217   4.126   2.697   3.986
 6759TIP3    H120218   4.181   2.673   4.061
 6759TIP3    H220219   4.124   2.793   3.989
 6760TIP3   OH220220   3.860   2.387   4.189
 6760TIP3    H120221   3.797   2.433   4.244
 6760TIP3    H220222   3.880   2.448   4.118
 6761TIP3   OH220223   5.027   2.012   5.066
 6761TIP3    H120224   5.102   2.062   5.100
 6761TIP3    H220225   5.020   1.937   5.125
 6762TIP3   OH220226   4.914   1.763   4.252
 6762TIP3    H120227   4.893   1.783   4.161
 6762TIP3    H220228   4.955   1.843   4.286
 6763TIP3   OH220229   4.396   2.885   3.919
 6763TIP3    H120230   4.310   2.906   3.957
 6763TIP3    H220231   4.420   2.963   3.871
 6764TIP3   OH220232   4.568   1.958   4.343
 6764TIP3    H120233   4.630   2.027   4.319
 6764TIP3    H220234   4.587   1.940   4.435
 6765TIP3   OH220235   4.856   2.253   5.138
 6765TIP3    H120236   4.883   2.303   5.214
 6765TIP3    H220237   4.909   2.173   5.141
 6766TIP3   OH220238   4.730   1.659   4.434
 6766TIP3    H120239   4.705   1.734   4.487
 6766TIP3    H220240   4.798   1.692   4.376
 6767TIP3   OH220241   4.141   2.969   3.991
 6767TIP3    H120242   4.121   3.038   3.927
 6767TIP3    H220243   4.127   3.010   4.076
 6768TIP3   OH220244   4.243   1.676   4.240
 6768TIP3    H120245   4.232   1.767   4.268
 6768TIP3    H220246   4.337   1.661   4.245
 6769TIP3   OH220247   5.484   2.166   5.121
 6769TIP3    H120248   5.388   2.165   5.127
 6769TIP3    H220249   5.503   2.134   5.033
 6770TIP3   OH220250   5.154   2.351   4.500
 6770TIP3    H120251   5.071   2.306   4.518
 6770TIP3    H220252   5.217   2.308   4.558
 6771TIP3   OH220253   3.876   2.571   3.977
 6771TIP3    H120254   3.945   2.637   3.990
 6771TIP3    H220255   3.913   2.510   3.913
 6772TIP3   OH220256   3.794   1.860   4.111
 6772TIP3    H120257   3.809   1.954   4.119
 6772TIP3    H220258   3.732   1.852   4.038
 6773TIP3   OH220259   5.124   3.330   4.443
 6773TIP3    H120260   5.082   3.380   4.372
 6773TIP3    H220261   5.218   3.343   4.428
 6774TIP3   OH220262   4.188   1.583   4.979
 6774TIP3    H120263   4.159   1.551   4.893
 6774TIP3    H220264   4.179   1.507   5.036
 6775TIP3   OH220265   3.708   2.818   4.380
 6775TIP3    H120266   3.675   2.863   4.457
 6775TIP3    H220267   3.672   2.867   4.306
 6776TIP3   OH220268   3.911   3.365   5.438
 6776TIP3    H120269   3.995   3.369   5.485
 6776TIP3    H220270   3.896   3.272   5.424
 6777TIP3   OH220271   4.381   3.286   5.487
 6777TIP3    H120272   4.474   3.262   5.490
 6777TIP3    H220273   4.345   3.233   5.416
 6778TIP3   OH220274   4.343   2.881   3.601
 6778TIP3    H120275   4.297   2.812   3.648
 6778TIP3    H220276   4.419   2.837   3.562
 6779TIP3   OH220277   5.005   3.221   5.238
 6779TIP3    H120278   5.016   3.151   5.302
 6779TIP3    H220279   5.079   3.280   5.253
 6780TIP3   OH220280   4.784   2.920   3.527
 6780TIP3    H120281   4.816   2.855   3.589
 6780TIP3    H220282   4.846   2.914   3.453
 6781TIP3   OH220283   4.017   2.763   5.636
 6781TIP3    H120284   4.036   2.670   5.643
 6781TIP3    H220285   3.931   2.767   5.593
 6782TIP3   OH220286   4.007   2.381   3.831
 6782TIP3    H120287   4.059   2.358   3.908
 6782TIP3    H220288   4.073   2.394   3.762
 6783TIP3   OH220289   4.636   2.851   5.413
 6783TIP3    H120290   4.591   2.876   5.332
 6783TIP3    H220291   4.670   2.763   5.396
 6784TIP3   OH220292   4.550   2.600   3.655
 6784TIP3    H120293   4.535   2.615   3.748
 6784TIP3    H220294   4.538   2.506   3.643
 6785TIP3   OH220295   5.118   2.888   5.034
 6785TIP3    H120296   5.194   2.919   4.985
 6785TIP3    H220297   5.046   2.944   5.004
 6786TIP3   OH220298   4.130   2.501   5.629
 6786TIP3    H120299   4.205   2.504   5.570
 6786TIP3    H220300   4.166   2.525   5.715
 6787TIP3   OH220301   4.182   2.316   4.038
 6787TIP3    H120302   4.163   2.289   4.128
 6787TIP3    H220303   4.230   2.242   4.001
 6788TIP3   OH220304   4.505   2.400   5.273
 6788TIP3    H120305   4.420   2.442   5.287
 6788TIP3    H220306   4.538   2.439   5.192
 6789TIP3   OH220307   4.318   2.122   3.887
 6789TIP3    H120308   4.290   2.130   3.796
 6789TIP3    H220309   4.413   2.132   3.883
 6790TIP3   OH220310   4.994   2.770   5.396
 6790TIP3    H120311   5.060   2.730   5.339
 6790TIP3    H220312   4.991   2.713   5.473
 6791TIP3   OH220313   5.117   2.421   3.566
 6791TIP3    H120314   5.103   2.381   3.480
 6791TIP3    H220315   5.091   2.512   3.554
 6792TIP3   OH220316   4.598   2.172   5.398
 6792TIP3    H120317   4.602   2.098   5.337
 6792TIP3    H220318   4.569   2.246   5.345
 6793TIP3   OH220319   4.606   1.958   5.207
 6793TIP3    H120320   4.633   2.001   5.126
 6793TIP3    H220321   4.514   1.935   5.193
 6794TIP3   OH220322   4.635   2.530   5.069
 6794TIP3    H120323   4.727   2.518   5.044
 6794TIP3    H220324   4.619   2.623   5.057
 6795TIP3   OH220325   5.207   2.456   5.451
 6795TIP3    H120326   5.257   2.375   5.461
 6795TIP3    H220327   5.273   2.523   5.434
 6796TIP3   OH220328   5.242   2.709   5.193
 6796TIP3    H120329   5.187   2.771   5.146
 6796TIP3    H220330   5.331   2.726   5.161
 6797TIP3   OH220331   4.481   2.253   5.641
 6797TIP3    H120332   4.409   2.191   5.657
 6797TIP3    H220333   4.510   2.233   5.552
 6798TIP3   OH220334   4.729   1.724   5.293
 6798TIP3    H120335   4.689   1.806   5.263
 6798TIP3    H220336   4.662   1.658   5.280
 6799TIP3   OH220337   4.857   2.207   5.502
 6799TIP3    H120338   4.847   2.197   5.597
 6799TIP3    H220339   4.770   2.189   5.467
 6800TIP3   OH220340   5.099   2.157   5.366
 6800TIP3    H120341   5.022   2.161   5.423
 6800TIP3    H220342   5.171   2.137   5.426
 6801TIP3   OH220343   5.336   2.123   5.518
 6801TIP3    H120344   5.349   2.029   5.527
 6801TIP3    H220345   5.330   2.156   5.608
 6802TIP3   OH220346   4.316   2.028   5.704
 6802TIP3    H120347   4.325   1.938   5.673
 6802TIP3    H220348   4.356   2.027   5.791
 6803TIP3   OH220349   4.804   1.718   5.554
 6803TIP3    H120350   4.874   1.653   5.551
 6803TIP3    H220351   4.772   1.724   5.464
 6804TIP3   OH220352   4.891   1.931   5.708
 6804TIP3    H120353   4.865   1.862   5.646
 6804TIP3    H220354   4.819   1.993   5.707
 6805TIP3   OH220355   4.131   3.168   3.800
 6805TIP3    H120356   4.224   3.154   3.781
 6805TIP3    H220357   4.099   3.220   3.727
 6806TIP3   OH220358   3.604   2.555   4.001
 6806TIP3    H120359   3.698   2.571   3.996
 6806TIP3    H220360   3.593   2.468   3.961
 6807TIP3   OH220361   3.519   3.140   4.451
 6807TIP3    H120362   3.452   3.088   4.407
 6807TIP3    H220363   3.561   3.079   4.511
 6808TIP3   OH220364   3.658   2.972   4.625
 6808TIP3    H120365   3.651   2.908   4.696
 6808TIP3    H220366   3.710   3.044   4.662
 6809TIP3   OH220367   5.395   3.380   4.431
 6809TIP3    H120368   5.412   3.412   4.520
 6809TIP3    H220369   5.450   3.434   4.375
 6810TIP3   OH220370   5.409   3.415   4.713
 6810TIP3    H120371   5.361   3.333   4.708
 6810TIP3    H220372   5.480   3.398   4.775
 6811TIP3   OH220373   5.463   3.110   5.283
 6811TIP3    H120374   5.390   3.119   5.344
 6811TIP3    H220375   5.507   3.195   5.286
 6812TIP3   OH220376   5.286   2.624   3.892
 6812TIP3    H120377   5.343   2.696   3.864
 6812TIP3    H220378   5.329   2.588   3.970
 6813TIP3   OH220379   5.413   2.483   4.095
 6813TIP3    H120380   5.345   2.446   4.152
 6813TIP3    H220381   5.476   2.521   4.155
 6814TIP3   OH220382   5.465   2.888   4.530
 6814TIP3    H120383   5.514   2.820   4.483
 6814TIP3    H220384   5.461   2.961   4.468
 6815TIP3   OH220385   5.272   3.172   4.721
 6815TIP3    H120386   5.204   3.216   4.772
 6815TIP3    H220387   5.225   3.131   4.648
 6816TIP3   OH220388   5.327   2.399   3.741
 6816TIP3    H120389   5.255   2.399   3.679
 6816TIP3    H220390   5.312   2.477   3.795
 6817TIP3   OH220391   5.188   2.051   3.684
 6817TIP3    H120392   5.139   2.094   3.614
 6817TIP3    H220393   5.176   1.957   3.668
 6818TIP3   OH220394   5.212   2.344   4.232
 6818TIP3    H120395   5.216   2.250   4.219
 6818TIP3    H220396   5.196   2.355   4.326
 6819TIP3   OH220397   3.837   2.403   5.004
 6819TIP3    H120398   3.828   2.376   4.913
 6819TIP3    H220399   3.931   2.410   5.019
 6820TIP3   OH220400   5.495   2.765   5.096
 6820TIP3    H120401   5.563   2.700   5.076
 6820TIP3    H220402   5.505   2.831   5.027
 6821TIP3   OH220403   5.672   2.554   5.085
 6821TIP3    H120404   5.599   2.515   5.133
 6821TIP3    H220405   5.747   2.499   5.108
 6822TIP3   OH220406   5.144   1.779   3.653
 6822TIP3    H120407   5.207   1.757   3.722
 6822TIP3    H220408   5.061   1.742   3.684
 6823TIP3   OH220409   5.207   2.068   4.121
 6823TIP3    H120410   5.251   1.984   4.134
 6823TIP3    H220411   5.252   2.108   4.046
 6824TIP3   OH220412   5.363   2.225   4.644
 6824TIP3    H120413   5.443   2.245   4.596
 6824TIP3    H220414   5.374   2.268   4.729
 6825TIP3   OH220415   5.434   2.382   4.869
 6825TIP3    H120416   5.360   2.412   4.921
 6825TIP3    H220417   5.465   2.460   4.824
 6826TIP3   OH220418   4.053   2.089   5.643
 6826TIP3    H120419   4.147   2.088   5.661
 6826TIP3    H220420   4.020   2.011   5.685
 6827TIP3   OH220421   5.894   1.983   5.412
 6827TIP3    H120422   5.954   1.923   5.370
 6827TIP3    H220423   5.856   2.034   5.340
 6828TIP3   OH220424   5.321   1.817   4.169
 6828TIP3    H120425   5.367   1.802   4.252
 6828TIP3    H220426   5.258   1.746   4.164
 6829TIP3   OH220427   4.023   1.806   5.010
 6829TIP3    H120428   4.080   1.729   5.009
 6829TIP3    H220429   4.081   1.880   4.991
 6830TIP3   OH220430   3.805   2.073   5.055
 6830TIP3    H120431   3.860   2.064   4.977
 6830TIP3    H220432   3.824   2.161   5.088
 6831TIP3   OH220433   5.747   2.105   5.220
 6831TIP3    H120434   5.670   2.147   5.260
 6831TIP3    H220435   5.710   2.038   5.163
 6832TIP3   OH220436   5.373   1.736   3.810
 6832TIP3    H120437   5.420   1.674   3.753
 6832TIP3    H220438   5.429   1.813   3.812
 6833TIP3   OH220439   3.792   1.559   4.553
 6833TIP3    H120440   3.708   1.557   4.598
 6833TIP3    H220441   3.782   1.622   4.483
 6834TIP3   OH220442   4.956   3.287   4.072
 6834TIP3    H120443   5.013   3.279   3.996
 6834TIP3    H220444   4.995   3.356   4.126
 6835TIP3   OH220445   4.017   1.628   5.386
 6835TIP3    H120446   3.970   1.637   5.469
 6835TIP3    H220447   3.963   1.677   5.323
 6836TIP3   OH220448   4.050   3.082   5.466
 6836TIP3    H120449   3.957   3.065   5.451
 6836TIP3    H220450   4.060   3.078   5.561
 6837TIP3   OH220451   4.219   3.132   5.028
 6837TIP3    H120452   4.207   3.216   4.984
 6837TIP3    H220453   4.277   3.082   4.970
 6838TIP3   OH220454   4.663   3.358   5.142
 6838TIP3    H120455   4.703   3.353   5.229
 6838TIP3    H220456   4.723   3.414   5.091
 6839TIP3   OH220457   4.849   3.519   5.015
 6839TIP3    H120458   4.909   3.466   4.962
 6839TIP3    H220459   4.906   3.574   5.069
 6840TIP3   OH220460   5.651   1.864   5.101
 6840TIP3    H120461   5.567   1.865   5.057
 6840TIP3    H220462   5.680   1.773   5.094
 6841TIP3   OH220463   3.920   3.371   5.048
 6841TIP3    H120464   3.828   3.391   5.027
 6841TIP3    H220465   3.945   3.438   5.111
 6842TIP3   OH220466   4.152   3.367   4.895
 6842TIP3    H120467   4.068   3.370   4.942
 6842TIP3    H220468   4.130   3.394   4.806
 6843TIP3   OH220469   4.574   3.384   4.682
 6843TIP3    H120470   4.498   3.393   4.625
 6843TIP3    H220471   4.583   3.469   4.724
 6844TIP3   OH220472   4.834   3.318   4.747
 6844TIP3    H120473   4.743   3.336   4.724
 6844TIP3    H220474   4.884   3.384   4.699
 6845TIP3   OH220475   5.036   3.489   4.651
 6845TIP3    H120476   5.028   3.576   4.612
 6845TIP3    H220477   5.065   3.434   4.578
 6846TIP3   OH220478   3.829   3.155   4.766
 6846TIP3    H120479   3.852   3.133   4.856
 6846TIP3    H220480   3.901   3.122   4.713
 6847TIP3   OH220481   4.032   3.027   4.634
 6847TIP3    H120482   4.040   2.945   4.683
 6847TIP3    H220483   4.119   3.067   4.639
 6848TIP3   OH220484   4.294   3.126   4.648
 6848TIP3    H120485   4.308   3.032   4.657
 6848TIP3    H220486   4.337   3.165   4.724
 6849TIP3   OH220487   4.867   1.785   4.735
 6849TIP3    H120488   4.825   1.713   4.783
 6849TIP3    H220489   4.934   1.743   4.682
 6850TIP3   OH220490   5.367   1.678   4.622
 6850TIP3    H120491   5.406   1.729   4.551
 6850TIP3    H220492   5.278   1.712   4.629
 6851TIP3   OH220493   5.482   1.764   4.389
 6851TIP3    H120494   5.551   1.705   4.360
 6851TIP3    H220495   5.518   1.852   4.377
 6852TIP3   OH220496   4.103   1.477   4.736
 6852TIP3    H120497   4.013   1.445   4.744
 6852TIP3    H220498   4.157   1.398   4.731
 6853TIP3   OH220499   3.904   1.367   4.379
 6853TIP3    H120500   3.938   1.420   4.307
 6853TIP3    H220501   3.872   1.431   4.443
 6854TIP3   OH220502   4.577   1.517   4.630
 6854TIP3    H120503   4.623   1.567   4.562
 6854TIP3    H220504   4.615   1.548   4.712
 6855TIP3   OH220505   5.076   1.662   4.605
 6855TIP3    H120506   5.094   1.628   4.517
 6855TIP3    H220507   5.079   1.585   4.661
 6856TIP3   OH220508   5.133   1.608   4.172
 6856TIP3    H120509   5.054   1.656   4.195
 6856TIP3    H220510   5.120   1.521   4.212
 6857TIP3   OH220511   3.603   2.948   4.163
 6857TIP3    H120512   3.518   2.916   4.134
 6857TIP3    H220513   3.608   3.038   4.130
 6858TIP3   OH220514   4.027   1.511   4.156
 6858TIP3    H120515   4.074   1.454   4.095
 6858TIP3    H220516   4.095   1.569   4.191
 6859TIP3   OH220517   4.519   1.705   4.251
 6859TIP3    H120518   4.581   1.657   4.306
 6859TIP3    H220519   4.530   1.797   4.276
 6860TIP3   OH220520   4.394   3.108   3.746
 6860TIP3    H120521   4.479   3.136   3.710
 6860TIP3    H220522   4.368   3.035   3.690
 6861TIP3   OH220523   5.107   3.247   3.842
 6861TIP3    H120524   5.099   3.152   3.836
 6861TIP3    H220525   5.061   3.280   3.766
 6862TIP3   OH220526   4.336   1.752   5.631
 6862TIP3    H120527   4.299   1.687   5.691
 6862TIP3    H220528   4.429   1.756   5.654
 6863TIP3   OH220529   4.594   1.747   5.738
 6863TIP3    H120530   4.661   1.756   5.670
 6863TIP3    H220531   4.620   1.670   5.788
 6864TIP3   OH220532   3.693   2.949   3.805
 6864TIP3    H120533   3.697   2.973   3.897
 6864TIP3    H220534   3.777   2.907   3.787
 6865TIP3   OH220535   5.399   1.851   5.533
 6865TIP3    H120536   5.415   1.822   5.623
 6865TIP3    H220537   5.485   1.847   5.491
 6866TIP3   OH220538   5.322   3.386   5.036
 6866TIP3    H120539   5.248   3.355   4.984
 6866TIP3    H220540   5.308   3.481   5.043
 6867TIP3   OH220541   6.594   2.769   3.780
 6867TIP3    H120542   6.566   2.857   3.755
 6867TIP3    H220543   6.523   2.712   3.752
 6868TIP3   OH220544   6.594   2.763   4.196
 6868TIP3    H120545   6.642   2.746   4.276
 6868TIP3    H220546   6.550   2.680   4.176
 6869TIP3   OH220547   5.893   2.638   4.547
 6869TIP3    H120548   5.927   2.580   4.616
 6869TIP3    H220549   5.972   2.672   4.504
 6870TIP3   OH220550   6.857   3.070   3.873
 6870TIP3    H120551   6.846   3.005   3.942
 6870TIP3    H220552   6.881   3.150   3.920
 6871TIP3   OH220553   5.883   3.055   4.241
 6871TIP3    H120554   5.866   2.961   4.249
 6871TIP3    H220555   5.978   3.061   4.230
 6872TIP3   OH220556   5.569   2.258   4.025
 6872TIP3    H120557   5.532   2.342   4.049
 6872TIP3    H220558   5.497   2.210   3.984
 6873TIP3   OH220559   5.644   2.566   4.232
 6873TIP3    H120560   5.694   2.489   4.261
 6873TIP3    H220561   5.711   2.629   4.205
 6874TIP3   OH220562   6.511   3.508   3.881
 6874TIP3    H120563   6.542   3.439   3.822
 6874TIP3    H220564   6.497   3.463   3.964
 6875TIP3   OH220565   6.399   2.987   4.208
 6875TIP3    H120566   6.441   2.908   4.175
 6875TIP3    H220567   6.471   3.042   4.238
 6876TIP3   OH220568   7.424   2.305   4.222
 6876TIP3    H120569   7.442   2.391   4.261
 6876TIP3    H220570   7.457   2.313   4.132
 6877TIP3   OH220571   6.808   2.477   4.242
 6877TIP3    H120572   6.846   2.392   4.268
 6877TIP3    H220573   6.772   2.462   4.155
 6878TIP3   OH220574   6.161   2.136   4.203
 6878TIP3    H120575   6.141   2.210   4.145
 6878TIP3    H220576   6.107   2.065   4.170
 6879TIP3   OH220577   6.857   2.236   3.835
 6879TIP3    H120578   6.922   2.228   3.905
 6879TIP3    H220579   6.906   2.270   3.760
 6880TIP3   OH220580   5.784   2.347   4.330
 6880TIP3    H120581   5.868   2.332   4.375
 6880TIP3    H220582   5.791   2.296   4.250
 6881TIP3   OH220583   6.213   2.547   4.137
 6881TIP3    H120584   6.307   2.529   4.145
 6881TIP3    H220585   6.177   2.465   4.102
 6882TIP3   OH220586   7.478   2.520   4.398
 6882TIP3    H120587   7.395   2.566   4.384
 6882TIP3    H220588   7.518   2.564   4.473
 6883TIP3   OH220589   6.143   2.137   4.655
 6883TIP3    H120590   6.093   2.172   4.582
 6883TIP3    H220591   6.088   2.153   4.732
 6884TIP3   OH220592   6.494   2.988   3.640
 6884TIP3    H120593   6.453   2.962   3.557
 6884TIP3    H220594   6.442   3.063   3.670
 6885TIP3   OH220595   6.242   2.912   4.424
 6885TIP3    H120596   6.186   2.982   4.458
 6885TIP3    H220597   6.289   2.953   4.351
 6886TIP3   OH220598   7.025   2.254   4.051
 6886TIP3    H120599   6.984   2.234   4.135
 6886TIP3    H220600   7.082   2.328   4.069
 6887TIP3   OH220601   6.031   2.244   4.425
 6887TIP3    H120602   6.085   2.320   4.448
 6887TIP3    H220603   6.078   2.203   4.352
 6888TIP3   OH220604   6.081   3.112   4.528
 6888TIP3    H120605   6.065   3.200   4.495
 6888TIP3    H220606   6.003   3.092   4.581
 6889TIP3   OH220607   5.460   2.812   3.777
 6889TIP3    H120608   5.423   2.832   3.692
 6889TIP3    H220609   5.484   2.898   3.813
 6890TIP3   OH220610   6.902   3.315   4.014
 6890TIP3    H120611   6.815   3.308   4.054
 6890TIP3    H220612   6.901   3.399   3.968
 6891TIP3   OH220613   7.226   2.192   4.386
 6891TIP3    H120614   7.141   2.221   4.354
 6891TIP3    H220615   7.289   2.222   4.320
 6892TIP3   OH220616   6.487   1.836   4.375
 6892TIP3    H120617   6.475   1.744   4.398
 6892TIP3    H220618   6.413   1.881   4.416
 6893TIP3   OH220619   6.607   3.351   3.670
 6893TIP3    H120620   6.659   3.271   3.659
 6893TIP3    H220621   6.665   3.422   3.642
 6894TIP3   OH220622   6.749   3.123   3.623
 6894TIP3    H120623   6.681   3.056   3.615
 6894TIP3    H220624   6.796   3.099   3.703
 6895TIP3   OH220625   7.132   3.211   4.360
 6895TIP3    H120626   7.116   3.136   4.302
 6895TIP3    H220627   7.117   3.288   4.304
 6896TIP3   OH220628   6.422   2.611   3.627
 6896TIP3    H120629   6.340   2.658   3.609
 6896TIP3    H220630   6.469   2.611   3.544
 6897TIP3   OH220631   6.390   2.412   3.325
 6897TIP3    H120632   6.455   2.462   3.375
 6897TIP3    H220633   6.441   2.347   3.277
 6898TIP3   OH220634   7.316   2.864   4.219
 6898TIP3    H120635   7.232   2.911   4.222
 6898TIP3    H220636   7.349   2.878   4.131
 6899TIP3   OH220637   6.778   2.698   3.591
 6899TIP3    H120638   6.724   2.727   3.665
 6899TIP3    H220639   6.862   2.674   3.631
 6900TIP3   OH220640   7.007   2.730   4.530
 6900TIP3    H120641   7.005   2.813   4.577
 6900TIP3    H220642   6.925   2.728   4.481
 6901TIP3   OH220643   6.008   2.682   4.000
 6901TIP3    H120644   5.971   2.624   3.934
 6901TIP3    H220645   6.082   2.634   4.036
 6902TIP3   OH220646   6.143   3.102   4.138
 6902TIP3    H120647   6.120   3.087   4.046
 6902TIP3    H220648   6.230   3.065   4.148
 6903TIP3   OH220649   6.117   2.675   4.367
 6903TIP3    H120650   6.155   2.641   4.286
 6903TIP3    H220651   6.166   2.756   4.383
 6904TIP3   OH220652   6.666   3.309   4.147
 6904TIP3    H120653   6.650   3.389   4.197
 6904TIP3    H220654   6.649   3.238   4.210
 6905TIP3   OH220655   6.279   3.214   4.692
 6905TIP3    H120656   6.220   3.273   4.739
 6905TIP3    H220657   6.222   3.162   4.636
 6906TIP3   OH220658   6.611   2.559   3.422
 6906TIP3    H120659   6.670   2.617   3.470
 6906TIP3    H220660   6.638   2.569   3.330
 6907TIP3   OH220661   6.037   2.760   4.825
 6907TIP3    H120662   6.042   2.853   4.848
 6907TIP3    H220663   5.943   2.742   4.820
 6908TIP3   OH220664   6.360   3.229   3.684
 6908TIP3    H120665   6.441   3.279   3.686
 6908TIP3    H220666   6.298   3.285   3.637
 6909TIP3   OH220667   6.071   3.374   4.778
 6909TIP3    H120668   6.043   3.383   4.686
 6909TIP3    H220669   5.989   3.357   4.825
 6910TIP3   OH220670   7.123   1.789   3.477
 6910TIP3    H120671   7.046   1.810   3.529
 6910TIP3    H220672   7.137   1.866   3.422
 6911TIP3   OH220673   5.881   2.528   3.796
 6911TIP3    H120674   5.807   2.577   3.761
 6911TIP3    H220675   5.845   2.441   3.817
 6912TIP3   OH220676   6.936   3.163   3.028
 6912TIP3    H120677   6.936   3.257   3.011
 6912TIP3    H220678   7.025   3.135   3.010
 6913TIP3   OH220679   5.662   2.925   4.726
 6913TIP3    H120680   5.592   2.910   4.662
 6913TIP3    H220681   5.696   2.837   4.745
 6914TIP3   OH220682   5.504   3.122   4.372
 6914TIP3    H120683   5.597   3.142   4.386
 6914TIP3    H220684   5.458   3.199   4.405
 6915TIP3   OH220685   7.364   3.573   4.422
 6915TIP3    H120686   7.369   3.478   4.431
 6915TIP3    H220687   7.283   3.597   4.467
 6916TIP3   OH220688   6.470   3.352   4.550
 6916TIP3    H120689   6.464   3.443   4.578
 6916TIP3    H220690   6.401   3.307   4.600
 6917TIP3   OH220691   6.250   3.460   3.506
 6917TIP3    H120692   6.200   3.443   3.425
 6917TIP3    H220693   6.216   3.544   3.537
 6918TIP3   OH220694   5.684   3.307   3.882
 6918TIP3    H120695   5.728   3.301   3.967
 6918TIP3    H220696   5.634   3.226   3.875
 6919TIP3   OH220697   6.449   3.385   3.133
 6919TIP3    H120698   6.500   3.312   3.098
 6919TIP3    H220699   6.484   3.398   3.222
 6920TIP3   OH220700   6.502   3.430   3.403
 6920TIP3    H120701   6.415   3.436   3.443
 6920TIP3    H220702   6.558   3.393   3.472
 6921TIP3   OH220703   7.250   2.695   4.700
 6921TIP3    H120704   7.169   2.704   4.650
 6921TIP3    H220705   7.270   2.601   4.697
 6922TIP3   OH220706   5.864   3.109   4.698
 6922TIP3    H120707   5.912   3.098   4.780
 6922TIP3    H220708   5.791   3.048   4.705
 6923TIP3   OH220709   6.251   1.924   4.508
 6923TIP3    H120710   6.168   1.892   4.474
 6923TIP3    H220711   6.229   2.004   4.555
 6924TIP3   OH220712   6.795   2.035   4.700
 6924TIP3    H120713   6.867   2.021   4.762
 6924TIP3    H220714   6.716   2.023   4.752
 6925TIP3   OH220715   7.011   2.463   4.615
 6925TIP3    H120716   6.970   2.460   4.702
 6925TIP3    H220717   6.997   2.553   4.585
 6926TIP3   OH220718   6.691   2.555   3.160
 6926TIP3    H120719   6.647   2.554   3.074
 6926TIP3    H220720   6.772   2.603   3.144
 6927TIP3   OH220721   6.398   1.964   3.473
 6927TIP3    H120722   6.363   1.970   3.562
 6927TIP3    H220723   6.362   1.883   3.438
 6928TIP3   OH220724   6.187   2.453   4.517
 6928TIP3    H120725   6.140   2.462   4.600
 6928TIP3    H220726   6.167   2.533   4.468
 6929TIP3   OH220727   6.070   2.332   4.034
 6929TIP3    H120728   5.981   2.309   4.059
 6929TIP3    H220729   6.079   2.297   3.945
 6930TIP3   OH220730   6.551   2.408   3.762
 6930TIP3    H120731   6.503   2.480   3.721
 6930TIP3    H220732   6.610   2.377   3.693
 6931TIP3   OH220733   6.736   2.677   4.838
 6931TIP3    H120734   6.709   2.610   4.901
 6931TIP3    H220735   6.828   2.693   4.859
 6932TIP3   OH220736   6.716   2.424   3.990
 6932TIP3    H120737   6.649   2.450   3.926
 6932TIP3    H220738   6.761   2.350   3.949
 6933TIP3   OH220739   6.020   2.468   4.735
 6933TIP3    H120740   6.030   2.535   4.804
 6933TIP3    H220741   6.002   2.387   4.783
 6934TIP3   OH220742   6.063   1.945   3.447
 6934TIP3    H120743   6.054   1.949   3.543
 6934TIP3    H220744   5.986   1.991   3.414
 6935TIP3   OH220745   5.611   1.988   4.317
 6935TIP3    H120746   5.681   2.025   4.371
 6935TIP3    H220747   5.651   1.977   4.230
 6936TIP3   OH220748   5.531   1.967   3.822
 6936TIP3    H120749   5.575   2.003   3.745
 6936TIP3    H220750   5.469   2.036   3.847
 6937TIP3   OH220751   6.750   2.677   4.416
 6937TIP3    H120752   6.776   2.610   4.353
 6937TIP3    H220753   6.708   2.628   4.487
 6938TIP3   OH220754   6.427   2.124   4.086
 6938TIP3    H120755   6.349   2.127   4.142
 6938TIP3    H220756   6.500   2.120   4.148
 6939TIP3   OH220757   5.831   2.209   4.098
 6939TIP3    H120758   5.742   2.213   4.062
 6939TIP3    H220759   5.860   2.119   4.079
 6940TIP3   OH220760   6.085   2.206   3.790
 6940TIP3    H120761   6.179   2.219   3.778
 6940TIP3    H220762   6.046   2.225   3.705
 6941TIP3   OH220763   6.886   2.213   4.291
 6941TIP3    H120764   6.865   2.230   4.383
 6941TIP3    H220765   6.816   2.154   4.262
 6942TIP3   OH220766   5.963   2.231   3.547
 6942TIP3    H120767   5.898   2.185   3.494
 6942TIP3    H220768   6.017   2.278   3.482
 6943TIP3   OH220769   7.074   3.916   4.514
 6943TIP3    H120770   7.066   3.930   4.420
 6943TIP3    H220771   7.149   3.969   4.541
 6944TIP3   OH220772   6.023   3.021   4.932
 6944TIP3    H120773   6.102   3.045   4.979
 6944TIP3    H220774   5.953   3.029   4.997
 6945TIP3   OH220775   6.483   2.487   4.194
 6945TIP3    H120776   6.553   2.442   4.147
 6945TIP3    H220777   6.483   2.447   4.281
 6946TIP3   OH220778   5.977   1.961   4.080
 6946TIP3    H120779   5.948   1.885   4.130
 6946TIP3    H220780   6.005   1.925   3.995
 6947TIP3   OH220781   6.455   2.393   4.465
 6947TIP3    H120782   6.367   2.426   4.485
 6947TIP3    H220783   6.513   2.448   4.517
 6948TIP3   OH220784   6.187   2.753   3.573
 6948TIP3    H120785   6.113   2.697   3.552
 6948TIP3    H220786   6.164   2.792   3.657
 6949TIP3   OH220787   7.081   3.005   4.183
 6949TIP3    H120788   7.115   3.054   4.109
 6949TIP3    H220789   7.000   2.965   4.151
 6950TIP3   OH220790   6.652   2.067   3.470
 6950TIP3    H120791   6.558   2.047   3.468
 6950TIP3    H220792   6.656   2.161   3.484
 6951TIP3   OH220793   6.592   3.086   4.587
 6951TIP3    H120794   6.639   3.078   4.671
 6951TIP3    H220795   6.551   3.172   4.590
 6952TIP3   OH220796   6.715   2.329   3.545
 6952TIP3    H120797   6.810   2.334   3.555
 6952TIP3    H220798   6.692   2.407   3.494
 6953TIP3   OH220799   5.879   2.764   4.231
 6953TIP3    H120800   5.917   2.748   4.145
 6953TIP3    H220801   5.945   2.731   4.293
 6954TIP3   OH220802   6.339   2.914   3.413
 6954TIP3    H120803   6.292   2.998   3.412
 6954TIP3    H220804   6.284   2.857   3.467
 6955TIP3   OH220805   5.766   2.692   4.856
 6955TIP3    H120806   5.769   2.672   4.949
 6955TIP3    H220807   5.691   2.643   4.823
 6956TIP3   OH220808   6.500   2.828   4.879
 6956TIP3    H120809   6.432   2.769   4.848
 6956TIP3    H220810   6.581   2.789   4.849
 6957TIP3   OH220811   6.742   3.366   4.474
 6957TIP3    H120812   6.647   3.355   4.480
 6957TIP3    H220813   6.767   3.408   4.557
 6958TIP3   OH220814   7.135   2.419   3.369
 6958TIP3    H120815   7.079   2.372   3.307
 6958TIP3    H220816   7.138   2.508   3.336
 6959TIP3   OH220817   7.378   3.294   4.447
 6959TIP3    H120818   7.283   3.279   4.445
 6959TIP3    H220819   7.409   3.261   4.363
 6960TIP3   OH220820   6.866   3.234   3.296
 6960TIP3    H120821   6.839   3.165   3.356
 6960TIP3    H220822   6.880   3.189   3.213
 6961TIP3   OH220823   6.849   2.871   4.084
 6961TIP3    H120824   6.759   2.848   4.106
 6961TIP3    H220825   6.885   2.790   4.046
 6962TIP3   OH220826   6.000   3.104   3.888
 6962TIP3    H120827   5.999   3.181   3.831
 6962TIP3    H220828   5.909   3.094   3.916
 6963TIP3   OH220829   5.563   2.393   3.597
 6963TIP3    H120830   5.605   2.477   3.617
 6963TIP3    H220831   5.483   2.394   3.649
 6964TIP3   OH220832   6.099   2.860   3.805
 6964TIP3    H120833   6.076   2.950   3.830
 6964TIP3    H220834   6.069   2.807   3.879
 6965TIP3   OH220835   6.281   3.430   4.344
 6965TIP3    H120836   6.317   3.504   4.294
 6965TIP3    H220837   6.356   3.397   4.394
 6966TIP3   OH220838   5.918   3.331   3.736
 6966TIP3    H120839   5.831   3.336   3.776
 6966TIP3    H220840   5.951   3.421   3.739
 6967TIP3   OH220841   6.638   3.085   4.315
 6967TIP3    H120842   6.625   3.081   4.410
 6967TIP3    H220843   6.717   3.033   4.299
 6968TIP3   OH220844   6.626   2.969   3.189
 6968TIP3    H120845   6.678   2.943   3.265
 6968TIP3    H220846   6.540   2.930   3.204
 6969TIP3   OH220847   6.892   3.592   4.357
 6969TIP3    H120848   6.819   3.531   4.368
 6969TIP3    H220849   6.865   3.649   4.285
 6970TIP3   OH220850   6.948   3.438   2.996
 6970TIP3    H120851   6.978   3.503   2.933
 6970TIP3    H220852   6.874   3.479   3.041
 6971TIP3   OH220853   5.971   2.214   4.861
 6971TIP3    H120854   5.876   2.222   4.868
 6971TIP3    H220855   5.997   2.167   4.941
 6972TIP3   OH220856   6.799   2.886   3.385
 6972TIP3    H120857   6.785   2.831   3.462
 6972TIP3    H220858   6.894   2.895   3.379
 6973TIP3   OH220859   5.711   3.315   4.505
 6973TIP3    H120860   5.762   3.254   4.557
 6973TIP3    H220861   5.725   3.400   4.547
 6974TIP3   OH220862   5.986   2.936   3.195
 6974TIP3    H120863   5.995   2.844   3.169
 6974TIP3    H220864   5.966   2.933   3.288
 6975TIP3   OH220865   5.924   2.952   3.466
 6975TIP3    H120866   5.992   2.924   3.527
 6975TIP3    H220867   5.923   3.047   3.473
 6976TIP3   OH220868   5.659   2.644   3.677
 6976TIP3    H120869   5.593   2.690   3.730
 6976TIP3    H220870   5.676   2.704   3.604
 6977TIP3   OH220871   6.823   2.269   4.552
 6977TIP3    H120872   6.898   2.318   4.585
 6977TIP3    H220873   6.816   2.193   4.609
 6978TIP3   OH220874   6.709   2.018   3.740
 6978TIP3    H120875   6.689   2.037   3.649
 6978TIP3    H220876   6.752   2.098   3.772
 6979TIP3   OH220877   6.195   3.143   3.411
 6979TIP3    H120878   6.109   3.166   3.447
 6979TIP3    H220879   6.218   3.218   3.355
 6980TIP3   OH220880   6.366   2.215   3.830
 6980TIP3    H120881   6.428   2.283   3.805
 6980TIP3    H220882   6.385   2.197   3.922
 6981TIP3   OH220883   6.659   2.513   4.618
 6981TIP3    H120884   6.684   2.560   4.697
 6981TIP3    H220885   6.710   2.432   4.622
 6982TIP3   OH220886   6.525   1.916   3.921
 6982TIP3    H120887   6.501   1.993   3.973
 6982TIP3    H220888   6.593   1.947   3.862
 6983TIP3   OH220889   5.942   3.223   3.484
 6983TIP3    H120890   5.919   3.293   3.422
 6983TIP3    H220891   5.930   3.264   3.570
 6984TIP3   OH220892   6.038   1.934   3.727
 6984TIP3    H120893   6.028   2.025   3.756
 6984TIP3    H220894   6.133   1.919   3.732
 6985TIP3   OH220895   7.280   2.427   4.616
 6985TIP3    H120896   7.184   2.423   4.617
 6985TIP3    H220897   7.304   2.399   4.528
 6986TIP3   OH220898   6.941   2.614   3.992
 6986TIP3    H120899   6.865   2.558   4.004
 6986TIP3    H220900   7.010   2.573   4.044
 6987TIP3   OH220901   5.674   2.826   3.463
 6987TIP3    H120902   5.743   2.892   3.472
 6987TIP3    H220903   5.708   2.764   3.399
 6988TIP3   OH220904   5.591   2.116   3.598
 6988TIP3    H120905   5.605   2.210   3.607
 6988TIP3    H220906   5.525   2.107   3.530
 6989TIP3   OH220907   6.923   3.582   3.933
 6989TIP3    H120908   6.881   3.634   3.865
 6989TIP3    H220909   7.016   3.596   3.920
 6990TIP3   OH220910   5.990   1.838   4.463
 6990TIP3    H120911   5.960   1.807   4.378
 6990TIP3    H220912   5.978   1.763   4.522
 6991TIP3   OH220913   5.511   3.081   3.860
 6991TIP3    H120914   5.467   3.119   3.936
 6991TIP3    H220915   5.470   3.125   3.785
 6992TIP3   OH220916   5.703   3.622   4.926
 6992TIP3    H120917   5.786   3.624   4.974
 6992TIP3    H220918   5.681   3.529   4.918
 6993TIP3   OH220919   6.173   3.544   4.970
 6993TIP3    H120920   6.265   3.522   4.978
 6993TIP3    H220921   6.141   3.488   4.899
 6994TIP3   OH220922   6.140   3.138   3.089
 6994TIP3    H120923   6.093   3.067   3.132
 6994TIP3    H220924   6.215   3.095   3.048
 6995TIP3   OH220925   6.799   3.477   4.719
 6995TIP3    H120926   6.808   3.408   4.784
 6995TIP3    H220927   6.873   3.535   4.735
 6996TIP3   OH220928   6.580   3.176   3.013
 6996TIP3    H120929   6.613   3.112   3.076
 6996TIP3    H220930   6.641   3.171   2.939
 6997TIP3   OH220931   5.815   3.020   5.119
 6997TIP3    H120932   5.831   2.926   5.129
 6997TIP3    H220933   5.729   3.025   5.078
 6998TIP3   OH220934   5.805   2.636   3.318
 6998TIP3    H120935   5.857   2.613   3.396
 6998TIP3    H220936   5.869   2.648   3.249
 6999TIP3   OH220937   6.433   3.107   4.895
 6999TIP3    H120938   6.387   3.128   4.814
 6999TIP3    H220939   6.466   3.018   4.882
 7000TIP3   OH220940   6.358   2.856   3.145
 7000TIP3    H120941   6.339   2.869   3.238
 7000TIP3    H220942   6.344   2.762   3.131
 7001TIP3   OH220943   6.910   3.141   4.509
 7001TIP3    H120944   6.987   3.171   4.462
 7001TIP3    H220945   6.844   3.208   4.494
 7002TIP3   OH220946   5.931   2.760   5.123
 7002TIP3    H120947   6.009   2.744   5.070
 7002TIP3    H220948   5.965   2.785   5.209
 7003TIP3   OH220949   5.981   2.572   3.528
 7003TIP3    H120950   5.959   2.541   3.616
 7003TIP3    H220951   6.027   2.499   3.488
 7004TIP3   OH220952   6.292   2.649   4.779
 7004TIP3    H120953   6.207   2.692   4.787
 7004TIP3    H220954   6.326   2.678   4.694
 7005TIP3   OH220955   6.115   2.381   3.374
 7005TIP3    H120956   6.086   2.386   3.283
 7005TIP3    H220957   6.211   2.388   3.369
 7006TIP3   OH220958   6.790   3.028   4.878
 7006TIP3    H120959   6.860   2.990   4.823
 7006TIP3    H220960   6.786   2.972   4.955
 7007TIP3   OH220961   6.915   2.680   3.051
 7007TIP3    H120962   6.900   2.638   2.966
 7007TIP3    H220963   6.888   2.771   3.038
 7008TIP3   OH220964   6.397   2.420   4.889
 7008TIP3    H120965   6.399   2.349   4.825
 7008TIP3    H220966   6.362   2.495   4.840
 7009TIP3   OH220967   6.405   2.215   4.689
 7009TIP3    H120968   6.431   2.256   4.607
 7009TIP3    H220969   6.313   2.192   4.676
 7010TIP3   OH220970   6.415   2.748   4.558
 7010TIP3    H120971   6.504   2.781   4.542
 7010TIP3    H220972   6.358   2.809   4.513
 7011TIP3   OH220973   7.004   2.707   4.939
 7011TIP3    H120974   7.050   2.624   4.951
 7011TIP3    H220975   7.073   2.770   4.918
 7012TIP3   OH220976   7.036   2.970   4.678
 7012TIP3    H120977   6.981   3.029   4.627
 7012TIP3    H220978   7.125   2.986   4.646
 7013TIP3   OH220979   6.278   2.510   5.129
 7013TIP3    H120980   6.207   2.449   5.149
 7013TIP3    H220981   6.306   2.487   5.041
 7014TIP3   OH220982   6.525   1.980   4.784
 7014TIP3    H120983   6.487   2.061   4.752
 7014TIP3    H220984   6.457   1.914   4.770
 7015TIP3   OH220985   6.653   2.464   4.990
 7015TIP3    H120986   6.642   2.454   5.084
 7015TIP3    H220987   6.567   2.443   4.953
 7016TIP3   OH220988   6.893   2.412   4.853
 7016TIP3    H120989   6.816   2.417   4.909
 7016TIP3    H220990   6.965   2.392   4.912
 7017TIP3   OH220991   7.125   2.379   5.007
 7017TIP3    H120992   7.144   2.285   5.017
 7017TIP3    H220993   7.121   2.412   5.097
 7018TIP3   OH220994   6.112   2.289   5.193
 7018TIP3    H120995   6.118   2.200   5.159
 7018TIP3    H220996   6.149   2.285   5.281
 7019TIP3   OH220997   6.596   1.971   5.049
 7019TIP3    H120998   6.676   1.920   5.037
 7019TIP3    H220999   6.560   1.979   4.960
 7020TIP3   OH221000   6.685   2.188   5.194
 7020TIP3    H121001   6.653   2.117   5.137
 7020TIP3    H221002   6.613   2.252   5.196
 7021TIP3   OH221003   5.930   3.424   3.293
 7021TIP3    H121004   6.022   3.410   3.271
 7021TIP3    H221005   5.895   3.475   3.221
 7022TIP3   OH221006   5.400   2.811   3.488
 7022TIP3    H121007   5.495   2.827   3.482
 7022TIP3    H221008   5.388   2.725   3.448
 7023TIP3   OH221009   5.311   3.401   3.939
 7023TIP3    H121010   5.247   3.348   3.892
 7023TIP3    H221011   5.355   3.340   3.998
 7024TIP3   OH221012   5.452   3.233   4.108
 7024TIP3    H121013   5.440   3.166   4.175
 7024TIP3    H221014   5.504   3.301   4.150
 7025TIP3   OH221015   7.187   3.649   3.916
 7025TIP3    H121016   7.214   3.678   4.003
 7025TIP3    H221017   7.250   3.690   3.856
 7026TIP3   OH221018   7.206   3.675   4.200
 7026TIP3    H121019   7.159   3.593   4.191
 7026TIP3    H221020   7.277   3.656   4.260
 7027TIP3   OH221021   7.255   3.370   4.770
 7027TIP3    H121022   7.183   3.375   4.833
 7027TIP3    H221023   7.296   3.456   4.774
 7028TIP3   OH221024   7.078   2.884   3.381
 7028TIP3    H121025   7.137   2.954   3.352
 7028TIP3    H221026   7.123   2.846   3.457
 7029TIP3   OH221027   7.205   2.741   3.582
 7029TIP3    H121028   7.138   2.704   3.640
 7029TIP3    H221029   7.270   2.778   3.642
 7030TIP3   OH221030   7.252   3.144   4.014
 7030TIP3    H121031   7.302   3.073   3.974
 7030TIP3    H221032   7.256   3.215   3.950
 7031TIP3   OH221033   7.068   3.432   4.208
 7031TIP3    H121034   6.999   3.476   4.258
 7031TIP3    H221035   7.021   3.390   4.135
 7032TIP3   OH221036   7.121   2.657   3.231
 7032TIP3    H121037   7.050   2.657   3.167
 7032TIP3    H221038   7.105   2.735   3.284
 7033TIP3   OH221039   6.983   2.310   3.170
 7033TIP3    H121040   6.935   2.350   3.097
 7033TIP3    H221041   6.971   2.216   3.158
 7034TIP3   OH221042   7.006   2.603   3.722
 7034TIP3    H121043   7.013   2.508   3.711
 7034TIP3    H221044   6.988   2.614   3.816
 7035TIP3   OH221045   5.629   2.664   4.488
 7035TIP3    H121046   5.620   2.634   4.397
 7035TIP3    H221047   5.723   2.665   4.503
 7036TIP3   OH221048   7.290   3.023   4.581
 7036TIP3    H121049   7.357   2.956   4.566
 7036TIP3    H221050   7.303   3.086   4.510
 7037TIP3   OH221051   7.465   2.811   4.577
 7037TIP3    H121052   7.390   2.772   4.622
 7037TIP3    H221053   7.539   2.754   4.598
 7038TIP3   OH221054   6.938   2.040   3.143
 7038TIP3    H121055   7.003   2.014   3.209
 7038TIP3    H221056   6.856   1.999   3.172
 7039TIP3   OH221057   7.003   2.324   3.607
 7039TIP3    H121058   7.048   2.241   3.620
 7039TIP3    H221059   7.048   2.364   3.532
 7040TIP3   OH221060   7.157   2.489   4.126
 7040TIP3    H121061   7.238   2.509   4.078
 7040TIP3    H221062   7.170   2.528   4.212
 7041TIP3   OH221063   7.227   2.640   4.356
 7041TIP3    H121064   7.153   2.671   4.408
 7041TIP3    H221065   7.259   2.718   4.310
 7042TIP3   OH221066   5.848   2.347   5.133
 7042TIP3    H121067   5.942   2.346   5.151
 7042TIP3    H221068   5.815   2.267   5.174
 7043TIP3   OH221069   7.686   2.240   4.901
 7043TIP3    H121070   7.745   2.179   4.856
 7043TIP3    H221071   7.649   2.293   4.830
 7044TIP3   OH221072   7.116   2.073   3.657
 7044TIP3    H121073   7.162   2.058   3.740
 7044TIP3    H221074   7.053   2.002   3.651
 7045TIP3   OH221075   5.821   2.059   4.484
 7045TIP3    H121076   5.878   1.982   4.488
 7045TIP3    H221077   5.882   2.132   4.469
 7046TIP3   OH221078   5.605   2.322   4.548
 7046TIP3    H121079   5.657   2.316   4.468
 7046TIP3    H221080   5.619   2.410   4.581
 7047TIP3   OH221081   7.533   2.357   4.708
 7047TIP3    H121082   7.448   2.397   4.726
 7047TIP3    H221083   7.513   2.283   4.651
 7048TIP3   OH221084   7.169   1.993   3.297
 7048TIP3    H121085   7.215   1.931   3.239
 7048TIP3    H221086   7.226   2.070   3.299
 7049TIP3   OH221087   5.591   1.823   4.045
 7049TIP3    H121088   5.505   1.817   4.087
 7049TIP3    H221089   5.578   1.882   3.971
 7050TIP3   OH221090   6.754   3.549   3.563
 7050TIP3    H121091   6.805   3.536   3.484
 7050TIP3    H221092   6.803   3.615   3.613
 7051TIP3   OH221093   5.813   1.882   4.865
 7051TIP3    H121094   5.768   1.886   4.949
 7051TIP3    H221095   5.758   1.934   4.806
 7052TIP3   OH221096   5.849   3.338   4.944
 7052TIP3    H121097   5.755   3.323   4.933
 7052TIP3    H221098   5.863   3.329   5.038
 7053TIP3   OH221099   6.053   3.386   4.493
 7053TIP3    H121100   5.999   3.458   4.460
 7053TIP3    H221101   6.137   3.398   4.449
 7054TIP3   OH221102   6.461   3.618   4.628
 7054TIP3    H121103   6.499   3.613   4.716
 7054TIP3    H221104   6.522   3.673   4.579
 7055TIP3   OH221105   6.647   3.776   4.500
 7055TIP3    H121106   6.710   3.724   4.450
 7055TIP3    H221107   6.701   3.832   4.555
 7056TIP3   OH221108   7.443   2.122   4.587
 7056TIP3    H121109   7.363   2.126   4.534
 7056TIP3    H221110   7.477   2.033   4.574
 7057TIP3   OH221111   5.717   3.627   4.542
 7057TIP3    H121112   5.625   3.644   4.519
 7057TIP3    H221113   5.739   3.695   4.605
 7058TIP3   OH221114   5.943   3.614   4.384
 7058TIP3    H121115   5.861   3.622   4.432
 7058TIP3    H221116   5.923   3.643   4.295
 7059TIP3   OH221117   6.365   3.638   4.176
 7059TIP3    H121118   6.292   3.648   4.115
 7059TIP3    H221119   6.373   3.723   4.219
 7060TIP3   OH221120   6.629   3.573   4.231
 7060TIP3    H121121   6.537   3.592   4.210
 7060TIP3    H221122   6.679   3.639   4.183
 7061TIP3   OH221123   6.831   3.748   4.133
 7061TIP3    H121124   6.827   3.835   4.093
 7061TIP3    H221125   6.862   3.690   4.064
 7062TIP3   OH221126   5.627   3.407   4.255
 7062TIP3    H121127   5.650   3.383   4.345
 7062TIP3    H221128   5.699   3.374   4.201
 7063TIP3   OH221129   5.829   3.292   4.116
 7063TIP3    H121130   5.841   3.210   4.163
 7063TIP3    H221131   5.915   3.334   4.119
 7064TIP3   OH221132   6.096   3.381   4.138
 7064TIP3    H121133   6.116   3.288   4.126
 7064TIP3    H221134   6.147   3.407   4.215
 7065TIP3   OH221135   6.659   2.039   4.223
 7065TIP3    H121136   6.618   1.967   4.271
 7065TIP3    H221137   6.727   1.997   4.170
 7066TIP3   OH221138   7.161   1.936   4.112
 7066TIP3    H121139   7.202   1.985   4.041
 7066TIP3    H221140   7.071   1.969   4.115
 7067TIP3   OH221141   7.275   2.020   3.878
 7067TIP3    H121142   7.346   1.961   3.850
 7067TIP3    H221143   7.310   2.108   3.864
 7068TIP3   OH221144   5.900   1.735   4.222
 7068TIP3    H121145   5.810   1.704   4.230
 7068TIP3    H221146   5.953   1.656   4.214
 7069TIP3   OH221147   5.713   1.631   3.874
 7069TIP3    H121148   5.741   1.683   3.799
 7069TIP3    H221149   5.677   1.695   3.936
 7070TIP3   OH221150   6.373   1.774   4.115
 7070TIP3    H121151   6.419   1.821   4.046
 7070TIP3    H221152   6.411   1.808   4.197
 7071TIP3   OH221153   6.871   1.920   4.093
 7071TIP3    H121154   6.889   1.887   4.005
 7071TIP3    H221155   6.876   1.842   4.149
 7072TIP3   OH221156   6.929   1.864   3.660
 7072TIP3    H121157   6.849   1.912   3.682
 7072TIP3    H221158   6.918   1.778   3.699
 7073TIP3   OH221159   5.397   3.206   3.644
 7073TIP3    H121160   5.312   3.173   3.616
 7073TIP3    H221161   5.400   3.296   3.612
 7074TIP3   OH221162   5.824   1.768   3.641
 7074TIP3    H121163   5.870   1.709   3.581
 7074TIP3    H221164   5.893   1.825   3.676
 7075TIP3   OH221165   6.314   1.963   3.737
 7075TIP3    H121166   6.375   1.913   3.791
 7075TIP3    H221167   6.328   2.054   3.763
 7076TIP3   OH221168   6.193   3.364   3.234
 7076TIP3    H121169   6.276   3.392   3.197
 7076TIP3    H221170   6.165   3.292   3.177
 7077TIP3   OH221171   6.899   3.503   3.331
 7077TIP3    H121172   6.892   3.408   3.323
 7077TIP3    H221173   6.855   3.537   3.253
 7078TIP3   OH221174   6.120   2.014   5.108
 7078TIP3    H121175   6.083   1.948   5.166
 7078TIP3    H221176   6.211   2.021   5.134
 7079TIP3   OH221177   6.368   2.020   5.230
 7079TIP3    H121178   6.449   1.998   5.183
 7079TIP3    H221179   6.360   1.951   5.296
 7080TIP3   OH221180   5.492   3.205   3.291
 7080TIP3    H121181   5.494   3.223   3.385
 7080TIP3    H221182   5.574   3.161   3.272
 7081TIP3   OH221183   7.202   2.112   5.024
 7081TIP3    H121184   7.217   2.082   5.113
 7081TIP3    H221185   7.287   2.107   4.981
 7082TIP3   OH221186   7.115   3.642   4.521
 7082TIP3    H121187   7.041   3.610   4.469
 7082TIP3    H221188   7.100   3.736   4.528
 7083TIP3   OH221189   8.345   3.095   3.598
 7083TIP3    H121190   8.377   3.095   3.689
 7083TIP3    H221191   8.409   3.042   3.550
 7084TIP3   OH221192   7.664   2.878   4.053
 7084TIP3    H121193   7.700   2.828   4.126
 7084TIP3    H221194   7.740   2.897   3.997
 7085TIP3   OH221195   7.648   3.319   3.745
 7085TIP3    H121196   7.637   3.224   3.748
 7085TIP3    H221197   7.740   3.332   3.725
 7086TIP3   OH221198   7.363   2.518   3.509
 7086TIP3    H121199   7.324   2.602   3.534
 7086TIP3    H221200   7.291   2.469   3.470
 7087TIP3   OH221201   7.437   2.819   3.717
 7087TIP3    H121202   7.486   2.741   3.742
 7087TIP3    H221203   7.503   2.879   3.682
 7088TIP3   OH221204   8.209   3.682   3.359
 7088TIP3    H121205   8.299   3.658   3.335
 7088TIP3    H221206   8.198   3.645   3.447
 7089TIP3   OH221207   8.127   3.296   3.770
 7089TIP3    H121208   8.199   3.234   3.772
 7089TIP3    H221209   8.169   3.382   3.775
 7090TIP3   OH221210   7.883   2.374   3.708
 7090TIP3    H121211   7.857   2.437   3.641
 7090TIP3    H221212   7.852   2.290   3.675
 7091TIP3   OH221213   7.571   2.595   3.804
 7091TIP3    H121214   7.650   2.577   3.855
 7091TIP3    H221215   7.581   2.540   3.726
 7092TIP3   OH221216   8.005   2.805   3.511
 7092TIP3    H121217   8.040   2.787   3.598
 7092TIP3    H221218   7.945   2.732   3.493
 7093TIP3   OH221219   7.913   2.390   4.161
 7093TIP3    H121220   7.855   2.428   4.095
 7093TIP3    H221221   7.868   2.404   4.244
 7094TIP3   OH221222   8.338   3.388   3.103
 7094TIP3    H121223   8.346   3.302   3.062
 7094TIP3    H221224   8.258   3.382   3.155
 7095TIP3   OH221225   7.998   3.151   3.966
 7095TIP3    H121226   7.935   3.214   4.002
 7095TIP3    H221227   8.043   3.200   3.897
 7096TIP3   OH221228   7.794   2.495   3.935
 7096TIP3    H121229   7.856   2.566   3.953
 7096TIP3    H221230   7.833   2.447   3.861
 7097TIP3   OH221231   7.844   3.370   4.024
 7097TIP3    H121232   7.832   3.455   3.982
 7097TIP3    H221233   7.767   3.360   4.079
 7098TIP3   OH221234   7.253   3.070   3.265
 7098TIP3    H121235   7.215   3.089   3.179
 7098TIP3    H221236   7.278   3.156   3.299
 7099TIP3   OH221237   8.153   2.784   3.066
 7099TIP3    H121238   8.083   2.849   3.067
 7099TIP3    H221239   8.226   2.827   3.111
 7100TIP3   OH221240   7.752   2.923   3.503
 7100TIP3    H121241   7.723   2.894   3.417
 7100TIP3    H221242   7.847   2.913   3.501
 7101TIP3   OH221243   7.898   3.368   3.631
 7101TIP3    H121244   7.902   3.325   3.545
 7101TIP3    H221245   7.977   3.337   3.676
 7102TIP3   OH221246   7.879   2.918   3.884
 7102TIP3    H121247   7.935   2.882   3.814
 7102TIP3    H221248   7.922   2.999   3.910
 7103TIP3   OH221249   8.419   3.490   3.827
 7103TIP3    H121250   8.430   3.574   3.781
 7103TIP3    H221251   8.451   3.425   3.764
 7104TIP3   OH221252   8.044   3.479   4.180
 7104TIP3    H121253   7.982   3.540   4.218
 7104TIP3    H221254   7.992   3.426   4.119
 7105TIP3   OH221255   7.815   3.037   4.323
 7105TIP3    H121256   7.813   3.131   4.344
 7105TIP3    H221257   7.723   3.012   4.317
 7106TIP3   OH221258   8.071   3.537   3.177
 7106TIP3    H121259   8.097   3.591   3.251
 7106TIP3    H221260   8.017   3.594   3.122
 7107TIP3   OH221261   7.848   3.649   4.264
 7107TIP3    H121262   7.819   3.653   4.173
 7107TIP3    H221263   7.769   3.628   4.314
 7108TIP3   OH221264   7.666   2.780   3.271
 7108TIP3    H121265   7.591   2.830   3.238
 7108TIP3    H221266   7.629   2.696   3.298
 7109TIP3   OH221267   7.451   3.182   4.211
 7109TIP3    H121268   7.383   3.164   4.145
 7109TIP3    H221269   7.485   3.096   4.234
 7110TIP3   OH221270   7.320   3.365   3.848
 7110TIP3    H121271   7.415   3.364   3.837
 7110TIP3    H221272   7.302   3.444   3.899
 7111TIP3   OH221273   8.222   3.640   4.041
 7111TIP3    H121274   8.207   3.719   4.093
 7111TIP3    H221275   8.173   3.572   4.087
 7112TIP3   OH221276   7.969   3.716   2.996
 7112TIP3    H121277   7.929   3.698   2.911
 7112TIP3    H221278   7.953   3.809   3.011
 7113TIP3   OH221279   7.474   3.569   3.370
 7113TIP3    H121280   7.518   3.562   3.455
 7113TIP3    H221281   7.427   3.487   3.360
 7114TIP3   OH221282   8.227   3.654   2.699
 7114TIP3    H121283   8.285   3.603   2.641
 7114TIP3    H221284   8.259   3.635   2.787
 7115TIP3   OH221285   8.258   3.641   2.997
 7115TIP3    H121286   8.222   3.729   3.011
 7115TIP3    H221287   8.215   3.588   3.064
 7116TIP3   OH221288   7.638   3.381   4.200
 7116TIP3    H121289   7.691   3.364   4.278
 7116TIP3    H221290   7.571   3.313   4.201
 7117TIP3   OH221291   8.020   2.188   4.004
 7117TIP3    H121292   7.939   2.157   3.964
 7117TIP3    H221293   7.992   2.258   4.064
 7118TIP3   OH221294   7.962   2.691   4.034
 7118TIP3    H121295   7.911   2.709   4.113
 7118TIP3    H221296   7.935   2.760   3.973
 7119TIP3   OH221297   7.855   2.568   3.511
 7119TIP3    H121298   7.761   2.551   3.521
 7119TIP3    H221299   7.877   2.530   3.426
 7120TIP3   OH221300   7.784   2.716   4.246
 7120TIP3    H121301   7.839   2.768   4.304
 7120TIP3    H221302   7.775   2.632   4.292
 7121TIP3   OH221303   7.870   2.206   2.932
 7121TIP3    H121304   7.863   2.204   3.028
 7121TIP3    H221305   7.788   2.248   2.903
 7122TIP3   OH221306   7.398   2.246   3.799
 7122TIP3    H121307   7.465   2.280   3.859
 7122TIP3    H221308   7.446   2.226   3.719
 7123TIP3   OH221309   7.328   2.224   3.310
 7123TIP3    H121310   7.374   2.257   3.234
 7123TIP3    H221311   7.266   2.293   3.333
 7124TIP3   OH221312   8.141   2.404   3.606
 7124TIP3    H121313   8.054   2.368   3.623
 7124TIP3    H221314   8.161   2.456   3.684
 7125TIP3   OH221315   7.617   2.443   3.571
 7125TIP3    H121316   7.528   2.462   3.543
 7125TIP3    H221317   7.633   2.354   3.540
 7126TIP3   OH221318   7.896   2.460   3.261
 7126TIP3    H121319   7.978   2.490   3.223
 7126TIP3    H221320   7.831   2.474   3.191
 7127TIP3   OH221321   7.732   2.484   3.045
 7127TIP3    H121322   7.671   2.430   2.995
 7127TIP3    H221323   7.784   2.530   2.979
 7128TIP3   OH221324   7.801   3.297   4.422
 7128TIP3    H121325   7.883   3.311   4.468
 7128TIP3    H221326   7.735   3.296   4.492
 7129TIP3   OH221327   0.171   4.330   5.294
 7129TIP3    H121328   0.158   4.242   5.259
 7129TIP3    H221329   0.105   4.339   5.362
 7130TIP3   OH221330   7.796   2.173   3.545
 7130TIP3    H121331   7.747   2.104   3.590
 7130TIP3    H221332   7.887   2.141   3.544
 7131TIP3   OH221333   8.234   2.716   4.051
 7131TIP3    H121334   8.139   2.706   4.050
 7131TIP3    H221335   8.267   2.632   4.083
 7132TIP3   OH221336   7.965   2.985   3.064
 7132TIP3    H121337   7.882   2.941   3.044
 7132TIP3    H221338   7.947   3.034   3.144
 7133TIP3   OH221339   8.296   3.350   4.023
 7133TIP3    H121340   8.362   3.349   4.092
 7133TIP3    H221341   8.315   3.428   3.971
 7134TIP3   OH221342   7.665   3.037   3.734
 7134TIP3    H121343   7.691   3.009   3.646
 7134TIP3    H221344   7.728   2.997   3.793
 7135TIP3   OH221345   8.079   3.109   2.846
 7135TIP3    H121346   8.037   3.195   2.857
 7135TIP3    H221347   8.053   3.059   2.923
 7136TIP3   OH221348   7.548   2.960   4.351
 7136TIP3    H121349   7.555   2.929   4.441
 7136TIP3    H221350   7.480   2.904   4.312
 7137TIP3   OH221351   8.309   3.116   4.361
 7137TIP3    H121352   8.237   3.063   4.396
 7137TIP3    H221353   8.377   3.054   4.338
 7138TIP3   OH221354   8.591   3.527   4.040
 7138TIP3    H121355   8.525   3.511   3.973
 7138TIP3    H221356   8.545   3.577   4.107
 7139TIP3   OH221357   7.783   3.353   3.347
 7139TIP3    H121358   7.779   3.437   3.300
 7139TIP3    H221359   7.694   3.340   3.380
 7140TIP3   OH221360   7.355   2.647   3.085
 7140TIP3    H121361   7.397   2.731   3.104
 7140TIP3    H221362   7.275   2.648   3.138
 7141TIP3   OH221363   7.901   3.109   3.299
 7141TIP3    H121364   7.852   3.191   3.308
 7141TIP3    H221365   7.952   3.103   3.380
 7142TIP3   OH221366   8.043   3.702   3.841
 7142TIP3    H121367   8.081   3.767   3.783
 7142TIP3    H221368   8.116   3.673   3.896
 7143TIP3   OH221369   7.706   3.594   3.224
 7143TIP3    H121370   7.621   3.599   3.267
 7143TIP3    H221371   7.739   3.684   3.227
 7144TIP3   OH221372   7.756   2.462   4.374
 7144TIP3    H121373   7.660   2.466   4.379
 7144TIP3    H221374   7.781   2.409   4.450
 7145TIP3   OH221375   7.493   3.578   3.996
 7145TIP3    H121376   7.543   3.516   4.049
 7145TIP3    H221377   7.512   3.663   4.035
 7146TIP3   OH221378   7.763   3.199   2.660
 7146TIP3    H121379   7.780   3.106   2.651
 7146TIP3    H221380   7.799   3.222   2.746
 7147TIP3   OH221381   7.676   3.207   3.011
 7147TIP3    H121382   7.770   3.191   3.012
 7147TIP3    H221383   7.668   3.302   3.002
 7148TIP3   OH221384   7.445   2.898   3.161
 7148TIP3    H121385   7.383   2.947   3.214
 7148TIP3    H221386   7.461   2.955   3.085
 7149TIP3   OH221387   7.889   3.329   2.864
 7149TIP3    H121388   7.823   3.389   2.899
 7149TIP3    H221389   7.970   3.380   2.864
 7150TIP3   OH221390   7.693   3.483   2.974
 7150TIP3    H121391   7.675   3.555   2.914
 7150TIP3    H221392   7.698   3.524   3.061
 7151TIP3   OH221393   7.834   2.185   3.206
 7151TIP3    H121394   7.840   2.274   3.241
 7151TIP3    H221395   7.887   2.132   3.266
 7152TIP3   OH221396   7.456   3.069   2.940
 7152TIP3    H121397   7.524   3.129   2.969
 7152TIP3    H221398   7.498   3.017   2.872
 7153TIP3   OH221399   7.389   2.371   3.086
 7153TIP3    H121400   7.400   2.466   3.094
 7153TIP3    H221401   7.321   2.360   3.020
 7154TIP3   OH221402   7.765   2.094   3.949
 7154TIP3    H121403   7.742   2.058   3.864
 7154TIP3    H221404   7.764   2.019   4.008
 7155TIP3   OH221405   7.307   3.340   3.346
 7155TIP3    H121406   7.261   3.376   3.422
 7155TIP3    H221407   7.266   3.383   3.270
 7156TIP3   OH221408   7.507   3.875   4.421
 7156TIP3    H121409   7.589   3.879   4.470
 7156TIP3    H221410   7.493   3.781   4.405
 7157TIP3   OH221411   7.956   3.811   4.458
 7157TIP3    H121412   8.046   3.781   4.471
 7157TIP3    H221413   7.923   3.760   4.385
 7158TIP3   OH221414   7.961   3.371   2.567
 7158TIP3    H121415   7.890   3.318   2.602
 7158TIP3    H221416   8.036   3.312   2.564
 7159TIP3   OH221417   7.599   3.275   4.611
 7159TIP3    H121418   7.620   3.182   4.619
 7159TIP3    H221419   7.515   3.277   4.566
 7160TIP3   OH221420   7.606   2.896   2.786
 7160TIP3    H121421   7.647   2.868   2.867
 7160TIP3    H221422   7.679   2.909   2.725
 7161TIP3   OH221423   8.207   3.368   4.362
 7161TIP3    H121424   8.151   3.393   4.289
 7161TIP3    H221425   8.225   3.275   4.349
 7162TIP3   OH221426   8.069   3.099   2.570
 7162TIP3    H121427   8.104   3.110   2.658
 7162TIP3    H221428   8.000   3.034   2.579
 7163TIP3   OH221429   7.717   3.022   4.610
 7163TIP3    H121430   7.791   2.998   4.553
 7163TIP3    H221431   7.757   3.041   4.695
 7164TIP3   OH221432   7.753   2.818   3.006
 7164TIP3    H121433   7.734   2.792   3.096
 7164TIP3    H221434   7.804   2.745   2.971
 7165TIP3   OH221435   8.027   2.886   4.246
 7165TIP3    H121436   7.958   2.949   4.268
 7165TIP3    H221437   8.089   2.937   4.194
 7166TIP3   OH221438   7.890   2.620   2.868
 7166TIP3    H121439   7.867   2.623   2.775
 7166TIP3    H221440   7.983   2.598   2.868
 7167TIP3   OH221441   8.037   2.667   4.403
 7167TIP3    H121442   8.102   2.599   4.385
 7167TIP3    H221443   8.051   2.733   4.336
 7168TIP3   OH221444   8.176   2.439   4.118
 7168TIP3    H121445   8.180   2.440   4.022
 7168TIP3    H221446   8.083   2.429   4.138
 7169TIP3   OH221447   8.201   2.993   4.070
 7169TIP3    H121448   8.199   2.911   4.020
 7169TIP3    H221449   8.135   3.048   4.027
 7170TIP3   OH221450   8.013   2.766   4.651
 7170TIP3    H121451   7.950   2.716   4.702
 7170TIP3    H221452   8.015   2.722   4.565
 7171TIP3   OH221453   8.310   2.216   4.230
 7171TIP3    H121454   8.261   2.282   4.181
 7171TIP3    H221455   8.253   2.194   4.304
 7172TIP3   OH221456   8.331   2.720   4.473
 7172TIP3    H121457   8.354   2.708   4.566
 7172TIP3    H221458   8.307   2.632   4.443
 7173TIP3   OH221459   7.880   2.536   4.725
 7173TIP3    H121460   7.874   2.452   4.679
 7173TIP3    H221461   7.931   2.517   4.804
 7174TIP3   OH221462   8.393   2.414   4.794
 7174TIP3    H121463   8.311   2.364   4.786
 7174TIP3    H221464   8.370   2.503   4.767
 7175TIP3   OH221465   7.703   3.688   2.790
 7175TIP3    H121466   7.788   3.656   2.760
 7175TIP3    H221467   7.669   3.739   2.716
 7176TIP3   OH221468   7.188   3.063   2.977
 7176TIP3    H121469   7.282   3.077   2.968
 7176TIP3    H221470   7.173   2.977   2.938
 7177TIP3   OH221471   7.104   3.658   3.425
 7177TIP3    H121472   7.040   3.604   3.379
 7177TIP3    H221473   7.149   3.597   3.484
 7178TIP3   OH221474   7.245   3.492   3.597
 7178TIP3    H121475   7.236   3.424   3.663
 7178TIP3    H221476   7.295   3.561   3.640
 7179TIP3   OH221477   7.412   2.924   3.969
 7179TIP3    H121478   7.408   2.892   3.879
 7179TIP3    H221479   7.504   2.920   3.992
 7180TIP3   OH221480   7.631   2.602   4.630
 7180TIP3    H121481   7.724   2.601   4.652
 7180TIP3    H221482   7.597   2.520   4.666
 7181TIP3   OH221483   7.593   2.308   3.987
 7181TIP3    H121484   7.651   2.232   3.984
 7181TIP3    H221485   7.652   2.383   3.977
 7182TIP3   OH221486   7.399   2.584   4.030
 7182TIP3    H121487   7.445   2.574   3.947
 7182TIP3    H221488   7.432   2.667   4.066
 7183TIP3   OH221489   7.386   2.081   3.536
 7183TIP3    H121490   7.300   2.075   3.575
 7183TIP3    H221491   7.374   2.138   3.459
 7184TIP3   OH221492   7.618   2.163   4.366
 7184TIP3    H121493   7.568   2.165   4.447
 7184TIP3    H221494   7.561   2.204   4.301
 7185TIP3   OH221495   7.638   3.606   4.439
 7185TIP3    H121496   7.546   3.581   4.427
 7185TIP3    H221497   7.660   3.573   4.526
 7186TIP3   OH221498   7.820   3.645   3.986
 7186TIP3    H121499   7.764   3.712   3.945
 7186TIP3    H221500   7.905   3.657   3.944
 7187TIP3   OH221501   8.220   3.883   4.169
 7187TIP3    H121502   8.270   3.875   4.250
 7187TIP3    H221503   8.270   3.946   4.116
 7188TIP3   OH221504   8.365   4.071   4.026
 7188TIP3    H121505   8.390   4.021   3.948
 7188TIP3    H221506   8.431   4.140   4.031
 7189TIP3   OH221507   7.498   3.875   4.029
 7189TIP3    H121508   7.409   3.902   4.008
 7189TIP3    H221509   7.529   3.942   4.091
 7190TIP3   OH221510   7.710   3.860   3.859
 7190TIP3    H121511   7.627   3.868   3.906
 7190TIP3    H221512   7.691   3.893   3.771
 7191TIP3   OH221513   8.120   3.910   3.675
 7191TIP3    H121514   8.041   3.925   3.623
 7191TIP3    H221515   8.129   3.990   3.728
 7192TIP3   OH221516   8.439   3.733   3.709
 7192TIP3    H121517   8.429   3.829   3.706
 7192TIP3    H221518   8.493   3.713   3.632
 7193TIP3   OH221519   7.417   3.672   3.746
 7193TIP3    H121520   7.442   3.644   3.834
 7193TIP3    H221521   7.487   3.640   3.690
 7194TIP3   OH221522   7.615   3.554   3.605
 7194TIP3    H121523   7.624   3.472   3.652
 7194TIP3    H221524   7.703   3.593   3.607
 7195TIP3   OH221525   7.878   3.647   3.621
 7195TIP3    H121526   7.898   3.555   3.604
 7195TIP3    H221527   7.930   3.669   3.698
 7196TIP3   OH221528   7.695   1.977   3.709
 7196TIP3    H121529   7.605   1.945   3.719
 7196TIP3    H221530   7.749   1.898   3.710
 7197TIP3   OH221531   7.506   1.890   3.364
 7197TIP3    H121532   7.531   1.944   3.290
 7197TIP3    H221533   7.471   1.951   3.429
 7198TIP3   OH221534   8.062   2.101   3.582
 7198TIP3    H121535   8.138   2.122   3.527
 7198TIP3    H221536   8.100   2.074   3.666
 7199TIP3   OH221537   7.192   3.465   3.131
 7199TIP3    H121538   7.108   3.431   3.100
 7199TIP3    H221539   7.195   3.555   3.098
 7200TIP3   OH221540   7.599   2.039   3.140
 7200TIP3    H121541   7.637   1.975   3.080
 7200TIP3    H221542   7.672   2.095   3.166
 7201TIP3   OH221543   7.952   3.607   2.715
 7201TIP3    H121544   8.046   3.617   2.731
 7201TIP3    H221545   7.944   3.528   2.663
 7202TIP3   OH221546   7.848   2.292   4.602
 7202TIP3    H121547   7.832   2.211   4.651
 7202TIP3    H221548   7.925   2.273   4.549
 7203TIP3   OH221549   8.167   2.268   4.755
 7203TIP3    H121550   8.150   2.246   4.663
 7203TIP3    H221551   8.121   2.199   4.804
 7204TIP3   OH221552   7.291   3.462   2.778
 7204TIP3    H121553   7.295   3.476   2.872
 7204TIP3    H221554   7.373   3.417   2.757
 7205TIP3   OH221555   0.845   3.815   4.962
 7205TIP3    H121556   0.810   3.902   4.942
 7205TIP3    H221557   0.775   3.755   4.935
 7206TIP3   OH221558   0.850   3.803   5.367
 7206TIP3    H121559   0.893   3.788   5.451
 7206TIP3    H221560   0.808   3.720   5.345
 7207TIP3   OH221561   0.180   3.575   5.672
 7207TIP3    H121562   0.228   3.547   5.750
 7207TIP3    H221563   0.177   3.671   5.680
 7208TIP3   OH221564   1.102   4.115   5.048
 7208TIP3    H121565   1.094   4.049   5.116
 7208TIP3    H221566   1.129   4.195   5.093
 7209TIP3   OH221567   0.055   4.059   5.373
 7209TIP3    H121568   0.041   3.964   5.368
 7209TIP3    H221569   0.121   4.070   5.442
 7210TIP3   OH221570   8.477   3.592   5.315
 7210TIP3    H121571   8.497   3.533   5.388
 7210TIP3    H221572   8.562   3.625   5.286
 7211TIP3   OH221573   0.744   4.555   5.049
 7211TIP3    H121574   0.777   4.484   4.994
 7211TIP3    H221575   0.748   4.520   5.138
 7212TIP3   OH221576   0.694   4.041   5.359
 7212TIP3    H121577   0.735   3.958   5.334
 7212TIP3    H221578   0.766   4.095   5.391
 7213TIP3   OH221579   1.677   3.349   5.398
 7213TIP3    H121580   1.690   3.435   5.437
 7213TIP3    H221581   1.717   3.354   5.311
 7214TIP3   OH221582   1.063   3.524   5.423
 7214TIP3    H121583   1.099   3.439   5.449
 7214TIP3    H221584   1.030   3.509   5.334
 7215TIP3   OH221585   0.417   3.197   5.372
 7215TIP3    H121586   0.396   3.266   5.309
 7215TIP3    H221587   0.375   3.118   5.337
 7216TIP3   OH221588   1.107   3.279   5.012
 7216TIP3    H121589   1.173   3.270   5.081
 7216TIP3    H221590   1.156   3.314   4.937
 7217TIP3   OH221591  -0.018   3.440   5.520
 7217TIP3    H121592   0.026   3.497   5.584
 7217TIP3    H221593   0.049   3.423   5.453
 7218TIP3   OH221594   0.495   3.557   5.273
 7218TIP3    H121595   0.588   3.542   5.292
 7218TIP3    H221596   0.467   3.479   5.226
 7219TIP3   OH221597   1.732   3.564   5.576
 7219TIP3    H121598   1.652   3.613   5.556
 7219TIP3    H221599   1.774   3.613   5.646
 7220TIP3   OH221600   0.405   3.163   5.833
 7220TIP3    H121601   0.355   3.205   5.762
 7220TIP3    H221602   0.357   3.185   5.913
 7221TIP3   OH221603   0.713   4.024   4.836
 7221TIP3    H121604   0.708   4.017   4.740
 7221TIP3    H221605   0.663   4.103   4.857
 7222TIP3   OH221606   0.555   3.924   5.565
 7222TIP3    H121607   0.522   3.979   5.636
 7222TIP3    H221608   0.594   3.986   5.503
 7223TIP3   OH221609   1.273   3.297   5.229
 7223TIP3    H121610   1.233   3.278   5.314
 7223TIP3    H221611   1.331   3.371   5.246
 7224TIP3   OH221612   0.306   3.284   5.611
 7224TIP3    H121613   0.350   3.367   5.632
 7224TIP3    H221614   0.352   3.251   5.535
 7225TIP3   OH221615   0.299   4.249   5.782
 7225TIP3    H121616   0.303   4.230   5.688
 7225TIP3    H221617   0.235   4.187   5.817
 7226TIP3   OH221618   1.150   4.361   5.191
 7226TIP3    H121619   1.060   4.353   5.225
 7226TIP3    H221620   1.150   4.445   5.145
 7227TIP3   OH221621   1.477   3.231   5.560
 7227TIP3    H121622   1.391   3.261   5.529
 7227TIP3    H221623   1.539   3.264   5.495
 7228TIP3   OH221624   0.753   2.907   5.537
 7228TIP3    H121625   0.750   2.812   5.550
 7228TIP3    H221626   0.676   2.940   5.582
 7229TIP3   OH221627   0.843   4.383   4.855
 7229TIP3    H121628   0.892   4.302   4.842
 7229TIP3    H221629   0.901   4.453   4.826
 7230TIP3   OH221630   1.001   4.170   4.794
 7230TIP3    H121631   1.007   4.091   4.740
 7230TIP3    H221632   1.040   4.144   4.878
 7231TIP3   OH221633   1.385   4.255   5.536
 7231TIP3    H121634   1.372   4.181   5.476
 7231TIP3    H221635   1.369   4.333   5.481
 7232TIP3   OH221636   0.684   3.646   4.804
 7232TIP3    H121637   0.607   3.699   4.784
 7232TIP3    H221638   0.735   3.646   4.723
 7233TIP3   OH221639   0.648   3.459   4.498
 7233TIP3    H121640   0.714   3.508   4.548
 7233TIP3    H221641   0.697   3.391   4.453
 7234TIP3   OH221642   1.568   3.903   5.391
 7234TIP3    H121643   1.486   3.953   5.393
 7234TIP3    H221644   1.605   3.921   5.305
 7235TIP3   OH221645   1.027   3.746   4.770
 7235TIP3    H121646   0.973   3.773   4.844
 7235TIP3    H221647   1.111   3.720   4.808
 7236TIP3   OH221648   1.256   3.774   5.706
 7236TIP3    H121649   1.255   3.857   5.752
 7236TIP3    H221650   1.173   3.772   5.658
 7237TIP3   OH221651   0.312   3.728   5.163
 7237TIP3    H121652   0.249   3.668   5.124
 7237TIP3    H221653   0.382   3.671   5.197
 7238TIP3   OH221654   0.436   4.114   5.287
 7238TIP3    H121655   0.422   4.103   5.193
 7238TIP3    H221656   0.528   4.091   5.300
 7239TIP3   OH221657   0.442   3.684   5.510
 7239TIP3    H121658   0.467   3.650   5.424
 7239TIP3    H221659   0.501   3.759   5.524
 7240TIP3   OH221660   0.908   4.350   5.318
 7240TIP3    H121661   0.906   4.432   5.366
 7240TIP3    H221662   0.909   4.282   5.386
 7241TIP3   OH221663   0.560   4.270   5.865
 7241TIP3    H121664   0.530   4.329   5.935
 7241TIP3    H221665   0.479   4.239   5.824
 7242TIP3   OH221666   0.867   3.603   4.599
 7242TIP3    H121667   0.926   3.661   4.647
 7242TIP3    H221668   0.894   3.613   4.507
 7243TIP3   OH221669   0.304   3.777   6.009
 7243TIP3    H121670   0.376   3.839   6.021
 7243TIP3    H221671   0.268   3.765   6.096
 7244TIP3   OH221672   0.578   4.281   4.868
 7244TIP3    H121673   0.668   4.311   4.882
 7244TIP3    H221674   0.546   4.336   4.796
 7245TIP3   OH221675   0.391   4.428   6.012
 7245TIP3    H121676   0.345   4.407   5.931
 7245TIP3    H221677   0.335   4.393   6.082
 7246TIP3   OH221678   1.371   2.835   4.651
 7246TIP3    H121679   1.295   2.856   4.705
 7246TIP3    H221680   1.386   2.913   4.597
 7247TIP3   OH221681   0.093   3.588   5.088
 7247TIP3    H121682   0.022   3.626   5.037
 7247TIP3    H221683   0.112   3.505   5.045
 7248TIP3   OH221684   1.191   4.204   4.205
 7248TIP3    H121685   1.196   4.297   4.183
 7248TIP3    H221686   1.280   4.171   4.193
 7249TIP3   OH221687   1.616   4.617   5.599
 7249TIP3    H121688   1.621   4.522   5.610
 7249TIP3    H221689   1.536   4.642   5.646
 7250TIP3   OH221690   0.744   4.393   5.714
 7250TIP3    H121691   0.746   4.482   5.748
 7250TIP3    H221692   0.676   4.349   5.765
 7251TIP3   OH221693   0.499   4.494   4.683
 7251TIP3    H121694   0.467   4.481   4.593
 7251TIP3    H221695   0.509   4.589   4.691
 7252TIP3   OH221696   0.693   4.415   4.317
 7252TIP3    H121697   0.750   4.346   4.282
 7252TIP3    H221698   0.729   4.433   4.404
 7253TIP3   OH221699   0.757   4.466   4.579
 7253TIP3    H121700   0.677   4.457   4.630
 7253TIP3    H221701   0.827   4.441   4.640
 7254TIP3   OH221702   1.495   3.732   5.884
 7254TIP3    H121703   1.418   3.747   5.828
 7254TIP3    H221704   1.516   3.639   5.870
 7255TIP3   OH221705   0.511   2.960   5.669
 7255TIP3    H121706   0.433   2.908   5.652
 7255TIP3    H221707   0.479   3.035   5.719
 7256TIP3   OH221708   1.044   3.083   5.886
 7256TIP3    H121709   1.114   3.058   5.947
 7256TIP3    H221710   0.963   3.066   5.933
 7257TIP3   OH221711   1.269   3.507   5.792
 7257TIP3    H121712   1.226   3.504   5.877
 7257TIP3    H221713   1.251   3.595   5.759
 7258TIP3   OH221714   0.942   3.604   4.338
 7258TIP3    H121715   0.900   3.596   4.253
 7258TIP3    H221716   1.023   3.651   4.321
 7259TIP3   OH221717   0.646   3.011   4.646
 7259TIP3    H121718   0.615   3.012   4.737
 7259TIP3    H221719   0.614   2.927   4.611
 7260TIP3   OH221720   0.482   3.485   5.690
 7260TIP3    H121721   0.437   3.504   5.773
 7260TIP3    H221722   0.463   3.560   5.634
 7261TIP3   OH221723   0.335   3.361   5.163
 7261TIP3    H121724   0.241   3.341   5.169
 7261TIP3    H221725   0.362   3.324   5.079
 7262TIP3   OH221726   0.815   3.452   4.942
 7262TIP3    H121727   0.765   3.522   4.901
 7262TIP3    H221728   0.872   3.420   4.872
 7263TIP3   OH221729   0.993   3.716   6.013
 7263TIP3    H121730   0.966   3.650   6.077
 7263TIP3    H221731   1.085   3.734   6.034
 7264TIP3   OH221732   0.971   3.469   5.171
 7264TIP3    H121733   0.907   3.495   5.105
 7264TIP3    H221734   1.017   3.394   5.132
 7265TIP3   OH221735   0.318   3.522   5.901
 7265TIP3    H121736   0.295   3.595   5.957
 7265TIP3    H221737   0.294   3.444   5.952
 7266TIP3   OH221738   0.312   2.973   4.624
 7266TIP3    H121739   0.299   2.983   4.719
 7266TIP3    H221740   0.242   3.024   4.585
 7267TIP3   OH221741   8.463   3.036   5.523
 7267TIP3    H121742   8.493   3.049   5.613
 7267TIP3    H221743   8.542   3.046   5.470
 7268TIP3   OH221744   8.480   3.076   5.043
 7268TIP3    H121745   8.521   3.106   4.963
 7268TIP3    H221746   8.458   3.156   5.091
 7269TIP3   OH221747   0.993   3.719   5.597
 7269TIP3    H121748   1.024   3.656   5.531
 7269TIP3    H221749   0.959   3.665   5.668
 7270TIP3   OH221750   0.683   3.173   5.264
 7270TIP3    H121751   0.608   3.182   5.322
 7270TIP3    H221752   0.759   3.171   5.323
 7271TIP3   OH221753   0.082   3.268   5.168
 7271TIP3    H121754  -0.002   3.277   5.214
 7271TIP3    H221755   0.093   3.173   5.159
 7272TIP3   OH221756   0.378   3.236   4.929
 7272TIP3    H121757   0.473   3.249   4.926
 7272TIP3    H221758   0.349   3.253   4.839
 7273TIP3   OH221759   1.137   3.260   5.472
 7273TIP3    H121760   1.117   3.275   5.564
 7273TIP3    H221761   1.067   3.204   5.440
 7274TIP3   OH221762   0.252   3.265   4.690
 7274TIP3    H121763   0.193   3.220   4.630
 7274TIP3    H221764   0.297   3.329   4.636
 7275TIP3   OH221765   1.329   4.960   5.695
 7275TIP3    H121766   1.323   4.978   5.601
 7275TIP3    H221767   1.408   5.007   5.722
 7276TIP3   OH221768   0.300   4.081   6.038
 7276TIP3    H121769   0.369   4.037   6.089
 7276TIP3    H221770   0.219   4.061   6.085
 7277TIP3   OH221771   0.751   3.522   5.363
 7277TIP3    H121772   0.825   3.483   5.316
 7277TIP3    H221773   0.755   3.482   5.451
 7278TIP3   OH221774   0.242   3.028   5.237
 7278TIP3    H121775   0.197   2.962   5.290
 7278TIP3    H221776   0.267   2.981   5.157
 7279TIP3   OH221777   0.738   3.423   5.628
 7279TIP3    H121778   0.650   3.452   5.650
 7279TIP3    H221779   0.796   3.474   5.685
 7280TIP3   OH221780   0.459   3.797   4.757
 7280TIP3    H121781   0.396   3.725   4.766
 7280TIP3    H221782   0.462   3.836   4.844
 7281TIP3   OH221783   1.334   4.049   5.359
 7281TIP3    H121784   1.370   4.098   5.284
 7281TIP3    H221785   1.254   4.010   5.325
 7282TIP3   OH221786   0.900   3.112   4.645
 7282TIP3    H121787   0.806   3.094   4.643
 7282TIP3    H221788   0.906   3.206   4.660
 7283TIP3   OH221789   0.850   4.121   5.761
 7283TIP3    H121790   0.888   4.111   5.848
 7283TIP3    H221791   0.814   4.210   5.761
 7284TIP3   OH221792   0.968   3.372   4.721
 7284TIP3    H121793   1.063   3.376   4.732
 7284TIP3    H221794   0.946   3.450   4.670
 7285TIP3   OH221795   0.097   3.782   5.331
 7285TIP3    H121796   0.144   3.759   5.251
 7285TIP3    H221797   0.164   3.819   5.388
 7286TIP3   OH221798   0.614   3.940   4.574
 7286TIP3    H121799   0.577   4.028   4.573
 7286TIP3    H221800   0.562   3.892   4.638
 7287TIP3   OH221801   0.765   3.868   6.054
 7287TIP3    H121802   0.692   3.811   6.029
 7287TIP3    H221803   0.843   3.823   6.021
 7288TIP3   OH221804   1.011   4.409   5.643
 7288TIP3    H121805   0.917   4.396   5.647
 7288TIP3    H221806   1.033   4.452   5.726
 7289TIP3   OH221807   1.379   3.463   4.545
 7289TIP3    H121808   1.325   3.415   4.482
 7289TIP3    H221809   1.382   3.552   4.510
 7290TIP3   OH221810   1.630   4.337   5.628
 7290TIP3    H121811   1.535   4.323   5.622
 7290TIP3    H221812   1.663   4.307   5.543
 7291TIP3   OH221813   1.103   4.281   4.462
 7291TIP3    H121814   1.094   4.209   4.525
 7291TIP3    H221815   1.133   4.239   4.382
 7292TIP3   OH221816   1.102   3.916   5.261
 7292TIP3    H121817   1.012   3.893   5.284
 7292TIP3    H221818   1.138   3.836   5.222
 7293TIP3   OH221819   0.316   4.147   5.006
 7293TIP3    H121820   0.389   4.201   4.974
 7293TIP3    H221821   0.258   4.139   4.930
 7294TIP3   OH221822   8.278   3.488   4.675
 7294TIP3    H121823   8.365   3.508   4.709
 7294TIP3    H221824   8.246   3.417   4.731
 7295TIP3   OH221825   0.448   3.903   5.006
 7295TIP3    H121826   0.395   3.983   5.005
 7295TIP3    H221827   0.401   3.844   5.064
 7296TIP3   OH221828   0.568   4.460   5.505
 7296TIP3    H121829   0.611   4.530   5.456
 7296TIP3    H221830   0.637   4.426   5.562
 7297TIP3   OH221831   0.052   4.350   4.858
 7297TIP3    H121832  -0.030   4.389   4.890
 7297TIP3    H221833   0.112   4.424   4.851
 7298TIP3   OH221834   0.919   4.131   5.493
 7298TIP3    H121835   0.897   4.120   5.586
 7298TIP3    H221836   1.005   4.090   5.484
 7299TIP3   OH221837   0.880   4.013   4.378
 7299TIP3    H121838   0.932   3.998   4.456
 7299TIP3    H221839   0.794   3.974   4.398
 7300TIP3   OH221840   1.146   4.650   5.539
 7300TIP3    H121841   1.074   4.587   5.536
 7300TIP3    H221842   1.130   4.706   5.463
 7301TIP3   OH221843   1.209   4.476   4.167
 7301TIP3    H121844   1.251   4.547   4.118
 7301TIP3    H221845   1.132   4.517   4.207
 7302TIP3   OH221846   0.235   3.300   6.040
 7302TIP3    H121847   0.160   3.256   6.002
 7302TIP3    H221848   0.252   3.253   6.122
 7303TIP3   OH221849   1.048   3.958   4.593
 7303TIP3    H121850   1.032   3.884   4.652
 7303TIP3    H221851   1.141   3.954   4.574
 7304TIP3   OH221852   0.283   3.959   4.346
 7304TIP3    H121853   0.292   3.869   4.314
 7304TIP3    H221854   0.294   3.952   4.440
 7305TIP3   OH221855   0.287   3.960   4.619
 7305TIP3    H121856   0.348   3.899   4.659
 7305TIP3    H221857   0.236   3.994   4.692
 7306TIP3   OH221858   8.527   3.709   4.908
 7306TIP3    H121859   8.452   3.730   4.963
 7306TIP3    H221860   8.536   3.785   4.850
 7307TIP3   OH221861   1.079   3.311   5.734
 7307TIP3    H121862   1.157   3.355   5.767
 7307TIP3    H221863   1.069   3.235   5.792
 7308TIP3   OH221864   0.959   3.063   4.916
 7308TIP3    H121865   0.940   3.081   4.824
 7308TIP3    H221866   1.003   3.142   4.948
 7309TIP3   OH221867   0.515   4.190   4.568
 7309TIP3    H121868   0.436   4.209   4.619
 7309TIP3    H221869   0.515   4.256   4.499
 7310TIP3   OH221870   0.643   3.249   5.003
 7310TIP3    H121871   0.703   3.320   4.981
 7310TIP3    H221872   0.656   3.233   5.096
 7311TIP3   OH221873   0.922   3.546   5.797
 7311TIP3    H121874   0.945   3.595   5.876
 7311TIP3    H221875   0.974   3.466   5.802
 7312TIP3   OH221876   0.781   2.958   5.100
 7312TIP3    H121877   0.758   3.035   5.152
 7312TIP3    H221878   0.848   2.990   5.039
 7313TIP3   OH221879   0.286   4.274   4.693
 7313TIP3    H121880   0.222   4.212   4.729
 7313TIP3    H221881   0.282   4.349   4.752
 7314TIP3   OH221882   0.296   2.972   4.913
 7314TIP3    H121883   0.298   3.067   4.927
 7314TIP3    H221884   0.389   2.947   4.911
 7315TIP3   OH221885   1.538   3.471   5.794
 7315TIP3    H121886   1.443   3.463   5.790
 7315TIP3    H221887   1.567   3.459   5.703
 7316TIP3   OH221888   1.193   3.660   5.169
 7316TIP3    H121889   1.117   3.602   5.179
 7316TIP3    H221890   1.261   3.618   5.222
 7317TIP3   OH221891   8.573   3.879   4.680
 7317TIP3    H121892   8.600   3.971   4.680
 7317TIP3    H221893   8.618   3.840   4.605
 7318TIP3   OH221894   8.557   3.168   4.795
 7318TIP3    H121895   8.559   3.253   4.750
 7318TIP3    H221896   8.485   3.120   4.753
 7319TIP3   OH221897   1.170   4.627   5.108
 7319TIP3    H121898   1.126   4.674   5.037
 7319TIP3    H221899   1.263   4.647   5.096
 7320TIP3   OH221900   0.282   2.800   5.657
 7320TIP3    H121901   0.286   2.744   5.580
 7320TIP3    H221902   0.220   2.756   5.715
 7321TIP3   OH221903   0.309   4.676   6.110
 7321TIP3    H121904   0.390   4.721   6.130
 7321TIP3    H221905   0.336   4.595   6.066
 7322TIP3   OH221906   0.405   4.189   4.267
 7322TIP3    H121907   0.360   4.112   4.301
 7322TIP3    H221908   0.486   4.155   4.229
 7323TIP3   OH221909   1.055   4.518   5.893
 7323TIP3    H121910   1.062   4.449   5.958
 7323TIP3    H221911   1.131   4.574   5.908
 7324TIP3   OH221912   0.843   4.217   4.194
 7324TIP3    H121913   0.868   4.157   4.264
 7324TIP3    H221914   0.917   4.217   4.134
 7325TIP3   OH221915   0.051   3.751   4.451
 7325TIP3    H121916   0.057   3.666   4.492
 7325TIP3    H221917   0.122   3.752   4.387
 7326TIP3   OH221918   0.711   4.139   6.053
 7326TIP3    H121919   0.663   4.153   5.972
 7326TIP3    H221920   0.734   4.046   6.052
 7327TIP3   OH221921   0.600   3.897   4.304
 7327TIP3    H121922   0.594   3.906   4.399
 7327TIP3    H221923   0.595   3.802   4.289
 7328TIP3   OH221924   1.165   4.179   5.681
 7328TIP3    H121925   1.244   4.208   5.636
 7328TIP3    H221926   1.102   4.250   5.667
 7329TIP3   OH221927   0.281   3.774   6.281
 7329TIP3    H121928   0.256   3.690   6.320
 7329TIP3    H221929   0.235   3.839   6.334
 7330TIP3   OH221930   0.267   3.600   4.765
 7330TIP3    H121931   0.217   3.534   4.812
 7330TIP3    H221932   0.298   3.555   4.686
 7331TIP3   OH221933   0.579   3.683   5.945
 7331TIP3    H121934   0.486   3.700   5.931
 7331TIP3    H221935   0.622   3.711   5.864
 7332TIP3   OH221936   0.375   3.459   4.546
 7332TIP3    H121937   0.345   3.459   4.455
 7332TIP3    H221938   0.470   3.459   4.540
 7333TIP3   OH221939   1.048   4.073   6.051
 7333TIP3    H121940   1.115   4.034   5.994
 7333TIP3    H221941   1.045   4.015   6.127
 7334TIP3   OH221942   1.161   3.730   4.228
 7334TIP3    H121943   1.148   3.685   4.145
 7334TIP3    H221944   1.134   3.820   4.210
 7335TIP3   OH221945   0.662   3.450   6.060
 7335TIP3    H121946   0.664   3.378   5.997
 7335TIP3    H221947   0.636   3.527   6.008
 7336TIP3   OH221948   0.665   3.253   5.858
 7336TIP3    H121949   0.694   3.290   5.774
 7336TIP3    H221950   0.574   3.227   5.842
 7337TIP3   OH221951   0.711   3.774   5.729
 7337TIP3    H121952   0.801   3.800   5.714
 7337TIP3    H221953   0.659   3.830   5.671
 7338TIP3   OH221954   1.258   3.752   6.110
 7338TIP3    H121955   1.302   3.667   6.116
 7338TIP3    H221956   1.327   3.812   6.080
 7339TIP3   OH221957   1.286   4.012   5.856
 7339TIP3    H121958   1.232   4.071   5.803
 7339TIP3    H221959   1.376   4.028   5.825
 7340TIP3   OH221960   0.555   3.564   6.292
 7340TIP3    H121961   0.488   3.501   6.319
 7340TIP3    H221962   0.579   3.537   6.203
 7341TIP3   OH221963   0.782   3.024   5.965
 7341TIP3    H121964   0.740   3.102   5.930
 7341TIP3    H221965   0.720   2.953   5.945
 7342TIP3   OH221966   0.911   3.506   6.168
 7342TIP3    H121967   0.901   3.492   6.262
 7342TIP3    H221968   0.826   3.480   6.131
 7343TIP3   OH221969   1.147   3.457   6.028
 7343TIP3    H121970   1.070   3.461   6.083
 7343TIP3    H221971   1.219   3.434   6.087
 7344TIP3   OH221972   1.376   3.420   6.182
 7344TIP3    H121973   1.389   3.326   6.192
 7344TIP3    H221974   1.369   3.453   6.272
 7345TIP3   OH221975   0.396   3.367   6.396
 7345TIP3    H121976   0.362   3.290   6.350
 7345TIP3    H221977   0.438   3.332   6.474
 7346TIP3   OH221978   0.852   3.007   6.228
 7346TIP3    H121979   0.921   2.941   6.219
 7346TIP3    H221980   0.817   3.017   6.140
 7347TIP3   OH221981   0.947   3.228   6.360
 7347TIP3    H121982   0.918   3.155   6.305
 7347TIP3    H221983   0.872   3.286   6.365
 7348TIP3   OH221984   0.200   4.610   4.427
 7348TIP3    H121985   0.226   4.518   4.432
 7348TIP3    H221986   0.108   4.607   4.398
 7349TIP3   OH221987   1.426   4.717   5.092
 7349TIP3    H121988   1.463   4.734   5.179
 7349TIP3    H221989   1.498   4.738   5.031
 7350TIP3   OH221990   1.458   4.719   5.378
 7350TIP3    H121991   1.412   4.636   5.367
 7350TIP3    H221992   1.530   4.699   5.438
 7351TIP3   OH221993   1.509   4.408   5.952
 7351TIP3    H121994   1.436   4.419   6.014
 7351TIP3    H221995   1.554   4.493   5.953
 7352TIP3   OH221996   1.321   3.931   4.561
 7352TIP3    H121997   1.382   3.997   4.526
 7352TIP3    H221998   1.368   3.892   4.634
 7353TIP3   OH221999   1.456   3.795   4.760
 7353TIP3    H122000   1.394   3.756   4.821
 7353TIP3    H222001   1.527   3.829   4.815
 7354TIP3   OH222002   1.506   4.184   5.187
 7354TIP3    H122003   1.559   4.113   5.148
 7354TIP3    H222004   1.514   4.256   5.125
 7355TIP3   OH222005   1.316   4.477   5.386
 7355TIP3    H122006   1.247   4.520   5.436
 7355TIP3    H222007   1.270   4.435   5.313
 7356TIP3   OH222008   1.366   3.702   4.409
 7356TIP3    H122009   1.295   3.707   4.345
 7356TIP3    H222010   1.354   3.781   4.462
 7357TIP3   OH222011   1.227   3.351   4.346
 7357TIP3    H122012   1.179   3.389   4.272
 7357TIP3    H222013   1.219   3.256   4.333
 7358TIP3   OH222014   1.255   3.651   4.899
 7358TIP3    H122015   1.266   3.557   4.887
 7358TIP3    H222016   1.240   3.662   4.993
 7359TIP3   OH222017   1.541   4.066   5.758
 7359TIP3    H122018   1.607   3.998   5.741
 7359TIP3    H222019   1.556   4.131   5.690
 7360TIP3   OH222020   1.711   3.851   5.759
 7360TIP3    H122021   1.638   3.810   5.806
 7360TIP3    H222022   1.787   3.796   5.780
 7361TIP3   OH222023   1.188   3.078   4.311
 7361TIP3    H122024   1.253   3.058   4.378
 7361TIP3    H222025   1.106   3.040   4.344
 7362TIP3   OH222026   1.251   3.370   4.783
 7362TIP3    H122027   1.296   3.287   4.798
 7362TIP3    H222028   1.296   3.409   4.708
 7363TIP3   OH222029   1.405   3.532   5.305
 7363TIP3    H122030   1.486   3.552   5.257
 7363TIP3    H222031   1.418   3.571   5.391
 7364TIP3   OH222032   1.480   3.684   5.534
 7364TIP3    H122033   1.404   3.718   5.583
 7364TIP3    H222034   1.512   3.760   5.485
 7365TIP3   OH222035   0.007   3.365   6.337
 7365TIP3    H122036   0.054   3.282   6.332
 7365TIP3    H222037  -0.002   3.382   6.431
 7366TIP3   OH222038   1.945   3.279   6.078
 7366TIP3    H122039   2.007   3.221   6.034
 7366TIP3    H222040   1.904   3.328   6.007
 7367TIP3   OH222041   1.361   3.122   4.840
 7367TIP3    H122042   1.412   3.107   4.920
 7367TIP3    H222043   1.302   3.046   4.835
 7368TIP3   OH222044   0.117   3.020   5.677
 7368TIP3    H122045   0.184   2.955   5.656
 7368TIP3    H222046   0.113   3.077   5.600
 7369TIP3   OH222047   1.790   3.396   5.891
 7369TIP3    H122048   1.707   3.440   5.911
 7369TIP3    H222049   1.766   3.327   5.829
 7370TIP3   OH222050   1.412   3.040   4.468
 7370TIP3    H122051   1.461   2.977   4.415
 7370TIP3    H222052   1.472   3.114   4.479
 7371TIP3   OH222053   8.484   2.845   5.211
 7371TIP3    H122054   8.395   2.819   5.236
 7371TIP3    H222055   8.473   2.928   5.165
 7372TIP3   OH222056   0.994   4.577   4.739
 7372TIP3    H122057   1.050   4.572   4.662
 7372TIP3    H222058   1.033   4.645   4.793
 7373TIP3   OH222059   0.091   2.875   6.122
 7373TIP3    H122060   0.007   2.874   6.166
 7373TIP3    H222061   0.070   2.890   6.030
 7374TIP3   OH222062   0.303   4.440   5.559
 7374TIP3    H122063   0.273   4.531   5.549
 7374TIP3    H222064   0.397   4.444   5.544
 7375TIP3   OH222065   0.743   4.656   5.802
 7375TIP3    H122066   0.774   4.655   5.893
 7375TIP3    H222067   0.814   4.697   5.753
 7376TIP3   OH222068   0.947   4.796   5.687
 7376TIP3    H122069   1.021   4.750   5.646
 7376TIP3    H222070   0.987   4.862   5.743
 7377TIP3   OH222071   1.696   3.162   5.763
 7377TIP3    H122072   1.614   3.166   5.715
 7377TIP3    H222073   1.726   3.071   5.754
 7378TIP3   OH222074   0.254   4.705   5.557
 7378TIP3    H122075   0.208   4.753   5.626
 7378TIP3    H222076   0.207   4.726   5.477
 7379TIP3   OH222077   0.645   4.671   5.337
 7379TIP3    H122078   0.582   4.685   5.266
 7379TIP3    H222079   0.615   4.729   5.407
 7380TIP3   OH222080   0.902   4.613   5.399
 7380TIP3    H122081   0.811   4.636   5.377
 7380TIP3    H222082   0.954   4.684   5.361
 7381TIP3   OH222083   1.094   4.798   5.309
 7381TIP3    H122084   1.084   4.884   5.268
 7381TIP3    H222085   1.122   4.741   5.238
 7382TIP3   OH222086   8.269   2.743   3.666
 7382TIP3    H122087   8.342   2.774   3.719
 7382TIP3    H222088   8.310   2.685   3.601
 7383TIP3   OH222089   0.406   4.470   5.272
 7383TIP3    H122090   0.331   4.412   5.283
 7383TIP3    H222091   0.470   4.439   5.335
 7384TIP3   OH222092   0.919   3.095   5.394
 7384TIP3    H122093   0.874   3.027   5.444
 7384TIP3    H222094   0.984   3.048   5.342
 7385TIP3   OH222095   1.418   2.984   5.282
 7385TIP3    H122096   1.459   3.035   5.212
 7385TIP3    H222097   1.328   3.017   5.286
 7386TIP3   OH222098   1.535   3.072   5.049
 7386TIP3    H122099   1.602   3.009   5.021
 7386TIP3    H222100   1.575   3.158   5.034
 7387TIP3   OH222101   0.269   2.651   5.425
 7387TIP3    H122102   0.203   2.713   5.395
 7387TIP3    H222103   0.230   2.564   5.410
 7388TIP3   OH222104   8.555   2.649   5.030
 7388TIP3    H122105   8.597   2.690   4.955
 7388TIP3    H222106   8.538   2.721   5.091
 7389TIP3   OH222107   0.626   2.823   5.291
 7389TIP3    H122108   0.672   2.861   5.216
 7389TIP3    H222109   0.663   2.868   5.367
 7390TIP3   OH222110   1.124   2.961   5.268
 7390TIP3    H122111   1.144   2.926   5.181
 7390TIP3    H222112   1.126   2.886   5.326
 7391TIP3   OH222113   1.180   2.907   4.837
 7391TIP3    H122114   1.099   2.955   4.859
 7391TIP3    H222115   1.167   2.821   4.876
 7392TIP3   OH222116   0.088   2.805   4.827
 7392TIP3    H122117   0.139   2.746   4.772
 7392TIP3    H222118   0.153   2.864   4.865
 7393TIP3   OH222119   0.575   2.998   4.912
 7393TIP3    H122120   0.633   2.943   4.965
 7393TIP3    H222121   0.594   3.087   4.940
 7394TIP3   OH222122   0.433   4.419   4.413
 7394TIP3    H122123   0.517   4.442   4.373
 7394TIP3    H222124   0.398   4.349   4.359
 7395TIP3   OH222125   1.145   4.547   4.505
 7395TIP3    H122126   1.136   4.452   4.497
 7395TIP3    H222127   1.108   4.582   4.423
 7396TIP3   OH222128   0.442   2.957   6.299
 7396TIP3    H122129   0.400   2.902   6.365
 7396TIP3    H222130   0.518   2.995   6.343
 7397TIP3   OH222131   0.661   3.062   6.432
 7397TIP3    H122132   0.730   3.047   6.367
 7397TIP3    H222133   0.672   2.991   6.496
 7398TIP3   OH222134   1.445   3.151   6.197
 7398TIP3    H122135   1.462   3.121   6.287
 7398TIP3    H222136   1.529   3.144   6.153
 7399TIP3   OH222137   1.369   4.687   5.702
 7399TIP3    H122138   1.295   4.658   5.648
 7399TIP3    H222139   1.359   4.782   5.708
 7400TIP3   OH222140   1.928   3.957   5.236
 7400TIP3    H122141   1.963   3.892   5.296
 7400TIP3    H222142   2.001   3.980   5.179
 7401TIP3   OH222143   1.901   4.341   4.925
 7401TIP3    H122144   1.898   4.245   4.923
 7401TIP3    H222145   1.993   4.363   4.907
 7402TIP3   OH222146   1.606   3.565   4.684
 7402TIP3    H122147   1.576   3.654   4.701
 7402TIP3    H222148   1.531   3.522   4.642
 7403TIP3   OH222149   1.698   3.865   4.891
 7403TIP3    H122150   1.742   3.785   4.918
 7403TIP3    H222151   1.768   3.921   4.856
 7404TIP3   OH222152   2.546   4.821   4.544
 7404TIP3    H122153   2.582   4.753   4.487
 7404TIP3    H222154   2.529   4.777   4.627
 7405TIP3   OH222155   3.469   3.607   4.894
 7405TIP3    H122156   3.490   3.689   4.937
 7405TIP3    H222157   3.517   3.611   4.811
 7406TIP3   OH222158   2.948   3.786   4.886
 7406TIP3    H122159   2.935   3.697   4.919
 7406TIP3    H222160   2.889   3.792   4.810
 7407TIP3   OH222161   2.210   3.433   4.877
 7407TIP3    H122162   2.177   3.507   4.826
 7407TIP3    H222163   2.166   3.356   4.841
 7408TIP3   OH222164   2.896   3.525   4.488
 7408TIP3    H122165   2.954   3.516   4.563
 7408TIP3    H222166   2.950   3.568   4.421
 7409TIP3   OH222167   1.816   3.638   4.998
 7409TIP3    H122168   1.908   3.638   5.026
 7409TIP3    H222169   1.812   3.570   4.930
 7410TIP3   OH222170   3.526   3.827   5.056
 7410TIP3    H122171   3.448   3.881   5.044
 7410TIP3    H222172   3.570   3.863   5.133
 7411TIP3   OH222173   2.185   3.438   5.323
 7411TIP3    H122174   2.137   3.474   5.248
 7411TIP3    H222175   2.128   3.455   5.398
 7412TIP3   OH222176   2.562   4.288   4.287
 7412TIP3    H122177   2.504   4.249   4.222
 7412TIP3    H222178   2.508   4.354   4.331
 7413TIP3   OH222179   2.307   4.206   5.151
 7413TIP3    H122180   2.239   4.273   5.151
 7413TIP3    H222181   2.288   4.153   5.073
 7414TIP3   OH222182   3.068   3.516   4.708
 7414TIP3    H122183   3.014   3.511   4.787
 7414TIP3    H222184   3.114   3.599   4.716
 7415TIP3   OH222185   2.066   3.538   5.096
 7415TIP3    H122186   2.112   3.620   5.116
 7415TIP3    H222187   2.113   3.503   5.020
 7416TIP3   OH222188   2.120   4.414   5.193
 7416TIP3    H122189   2.106   4.501   5.156
 7416TIP3    H222190   2.041   4.396   5.244
 7417TIP3   OH222191   1.502   4.106   4.447
 7417TIP3    H122192   1.486   4.119   4.354
 7417TIP3    H222193   1.541   4.188   4.476
 7418TIP3   OH222194   2.956   4.632   4.685
 7418TIP3    H122195   2.872   4.609   4.725
 7418TIP3    H222196   2.939   4.713   4.638
 7419TIP3   OH222197   3.270   3.483   5.050
 7419TIP3    H122198   3.186   3.520   5.026
 7419TIP3    H222199   3.332   3.519   4.986
 7420TIP3   OH222200   2.531   3.137   5.045
 7420TIP3    H122201   2.518   3.044   5.064
 7420TIP3    H222202   2.455   3.180   5.084
 7421TIP3   OH222203   2.653   4.664   4.340
 7421TIP3    H122204   2.703   4.584   4.320
 7421TIP3    H222205   2.708   4.735   4.308
 7422TIP3   OH222206   2.787   4.440   4.254
 7422TIP3    H122207   2.712   4.380   4.257
 7422TIP3    H222208   2.860   4.388   4.289
 7423TIP3   OH222209   3.173   4.520   4.999
 7423TIP3    H122210   3.162   4.453   4.931
 7423TIP3    H222211   3.158   4.603   4.953
 7424TIP3   OH222212   2.477   3.920   4.285
 7424TIP3    H122213   2.394   3.963   4.303
 7424TIP3    H222214   2.494   3.938   4.192
 7425TIP3   OH222215   2.436   3.719   3.989
 7425TIP3    H122216   2.499   3.761   4.047
 7425TIP3    H222217   2.487   3.653   3.942
 7426TIP3   OH222218   2.777   4.017   4.293
 7426TIP3    H122219   2.693   4.054   4.320
 7426TIP3    H222220   2.795   3.950   4.359
 7427TIP3   OH222221   3.052   4.005   5.183
 7427TIP3    H122222   3.064   4.085   5.235
 7427TIP3    H222223   2.984   4.028   5.120
 7428TIP3   OH222224   2.147   4.395   4.797
 7428TIP3    H122225   2.108   4.381   4.711
 7428TIP3    H222226   2.207   4.321   4.807
 7429TIP3   OH222227   2.730   4.603   4.836
 7429TIP3    H122228   2.703   4.695   4.838
 7429TIP3    H222229   2.742   4.580   4.928
 7430TIP3   OH222230   2.326   4.512   5.353
 7430TIP3    H122231   2.264   4.569   5.397
 7430TIP3    H222232   2.272   4.458   5.295
 7431TIP3   OH222233   2.676   3.850   4.075
 7431TIP3    H122234   2.717   3.923   4.121
 7431TIP3    H222235   2.699   3.865   3.983
 7432TIP3   OH222236   2.074   4.076   5.523
 7432TIP3    H122237   2.075   4.171   5.525
 7432TIP3    H222238   1.985   4.053   5.497
 7433TIP3   OH222239   2.418   4.519   4.352
 7433TIP3    H122240   2.489   4.583   4.354
 7433TIP3    H222241   2.347   4.563   4.305
 7434TIP3   OH222242   2.115   4.675   5.436
 7434TIP3    H122243   2.090   4.682   5.343
 7434TIP3    H222244   2.032   4.658   5.481
 7435TIP3   OH222245   3.166   3.090   4.137
 7435TIP3    H122246   3.090   3.112   4.191
 7435TIP3    H222247   3.181   3.169   4.084
 7436TIP3   OH222248   2.986   4.463   3.694
 7436TIP3    H122249   2.982   4.557   3.676
 7436TIP3    H222250   3.075   4.437   3.669
 7437TIP3   OH222251   1.702   4.233   5.387
 7437TIP3    H122252   1.637   4.211   5.320
 7437TIP3    H222253   1.737   4.148   5.415
 7438TIP3   OH222254   1.596   4.401   5.024
 7438TIP3    H122255   1.681   4.380   4.987
 7438TIP3    H222256   1.613   4.475   5.083
 7439TIP3   OH222257   3.389   4.851   5.084
 7439TIP3    H122258   3.394   4.757   5.099
 7439TIP3    H222259   3.310   4.879   5.131
 7440TIP3   OH222260   2.506   4.658   5.206
 7440TIP3    H122261   2.504   4.747   5.240
 7440TIP3    H222262   2.444   4.610   5.260
 7441TIP3   OH222263   2.296   4.771   4.164
 7441TIP3    H122264   2.241   4.745   4.090
 7441TIP3    H222265   2.257   4.853   4.195
 7442TIP3   OH222266   1.730   4.612   4.555
 7442TIP3    H122267   1.780   4.600   4.636
 7442TIP3    H222268   1.692   4.525   4.538
 7443TIP3   OH222269   2.492   4.686   3.796
 7443TIP3    H122270   2.543   4.612   3.762
 7443TIP3    H222271   2.526   4.699   3.885
 7444TIP3   OH222272   2.547   4.731   4.065
 7444TIP3    H122273   2.461   4.739   4.105
 7444TIP3    H222274   2.602   4.694   4.134
 7445TIP3   OH222275   3.311   3.992   5.381
 7445TIP3    H122276   3.219   4.014   5.398
 7445TIP3    H222277   3.310   3.898   5.363
 7446TIP3   OH222278   1.901   4.419   5.362
 7446TIP3    H122279   1.953   4.407   5.442
 7446TIP3    H222280   1.832   4.354   5.368
 7447TIP3   OH222281   2.292   3.225   5.171
 7447TIP3    H122282   2.208   3.196   5.134
 7447TIP3    H222283   2.271   3.307   5.214
 7448TIP3   OH222284   2.838   3.336   5.366
 7448TIP3    H122285   2.907   3.321   5.430
 7448TIP3    H222286   2.756   3.326   5.416
 7449TIP3   OH222287   3.057   3.746   5.274
 7449TIP3    H122288   3.019   3.747   5.362
 7449TIP3    H222289   3.046   3.836   5.243
 7450TIP3   OH222290   2.736   3.854   3.808
 7450TIP3    H122291   2.696   3.850   3.721
 7450TIP3    H222292   2.817   3.904   3.795
 7451TIP3   OH222293   2.438   3.266   4.135
 7451TIP3    H122294   2.409   3.274   4.225
 7451TIP3    H222295   2.400   3.184   4.104
 7452TIP3   OH222296   2.208   3.757   5.175
 7452TIP3    H122297   2.232   3.816   5.247
 7452TIP3    H222298   2.216   3.811   5.097
 7453TIP3   OH222299   2.091   3.618   4.724
 7453TIP3    H122300   2.107   3.711   4.742
 7453TIP3    H222301   2.098   3.611   4.629
 7454TIP3   OH222302   2.599   3.709   4.418
 7454TIP3    H122303   2.555   3.785   4.381
 7454TIP3    H222304   2.653   3.676   4.347
 7455TIP3   OH222305   2.796   3.987   5.511
 7455TIP3    H122306   2.776   3.917   5.573
 7455TIP3    H222307   2.888   4.006   5.525
 7456TIP3   OH222308   2.777   3.716   4.676
 7456TIP3    H122309   2.716   3.783   4.647
 7456TIP3    H222310   2.780   3.653   4.604
 7457TIP3   OH222311   2.021   3.771   5.433
 7457TIP3    H122312   2.108   3.809   5.442
 7457TIP3    H222313   2.030   3.681   5.463
 7458TIP3   OH222314   2.100   3.244   4.110
 7458TIP3    H122315   2.097   3.252   4.205
 7458TIP3    H222316   2.027   3.298   4.079
 7459TIP3   OH222317   1.671   3.298   4.988
 7459TIP3    H122318   1.727   3.325   5.061
 7459TIP3    H222319   1.711   3.337   4.911
 7460TIP3   OH222320   1.576   3.269   4.487
 7460TIP3    H122321   1.622   3.305   4.412
 7460TIP3    H222322   1.518   3.340   4.517
 7461TIP3   OH222323   2.464   3.414   4.745
 7461TIP3    H122324   2.386   3.424   4.799
 7461TIP3    H222325   2.537   3.421   4.806
 7462TIP3   OH222326   1.821   3.443   4.805
 7462TIP3    H122327   1.759   3.485   4.745
 7462TIP3    H222328   1.903   3.440   4.756
 7463TIP3   OH222329   2.127   3.509   4.455
 7463TIP3    H122330   2.221   3.528   4.445
 7463TIP3    H222331   2.090   3.529   4.369
 7464TIP3   OH222332   2.924   3.511   4.948
 7464TIP3    H122333   2.905   3.531   5.040
 7464TIP3    H222334   2.848   3.463   4.917
 7465TIP3   OH222335   2.007   3.525   4.206
 7465TIP3    H122336   1.937   3.487   4.153
 7465TIP3    H222337   2.064   3.569   4.143
 7466TIP3   OH222338   3.119   5.218   5.182
 7466TIP3    H122339   3.117   5.233   5.088
 7466TIP3    H222340   3.199   5.261   5.212
 7467TIP3   OH222341   2.055   4.344   5.598
 7467TIP3    H122342   2.138   4.361   5.642
 7467TIP3    H222343   1.990   4.346   5.668
 7468TIP3   OH222344   2.062   3.243   4.748
 7468TIP3    H122345   2.013   3.175   4.794
 7468TIP3    H222346   2.062   3.214   4.656
 7469TIP3   OH222347   2.229   4.051   4.254
 7469TIP3    H122348   2.164   4.002   4.203
 7469TIP3    H222349   2.179   4.091   4.325
 7470TIP3   OH222350   2.689   3.371   4.110
 7470TIP3    H122351   2.596   3.351   4.121
 7470TIP3    H222352   2.698   3.462   4.138
 7471TIP3   OH222353   2.693   4.426   5.239
 7471TIP3    H122354   2.693   4.383   5.325
 7471TIP3    H222355   2.612   4.476   5.237
 7472TIP3   OH222356   2.757   3.620   4.201
 7472TIP3    H122357   2.852   3.621   4.216
 7472TIP3    H222358   2.740   3.701   4.152
 7473TIP3   OH222359   1.952   4.056   4.870
 7473TIP3    H122360   1.968   4.078   4.778
 7473TIP3    H222361   2.030   4.007   4.897
 7474TIP3   OH222362   2.375   4.206   4.083
 7474TIP3    H122363   2.335   4.293   4.082
 7474TIP3    H222364   2.320   4.154   4.142
 7475TIP3   OH222365   1.792   4.014   5.534
 7475TIP3    H122366   1.808   3.978   5.621
 7475TIP3    H222367   1.736   3.950   5.491
 7476TIP3   OH222368   2.574   4.150   5.547
 7476TIP3    H122369   2.523   4.118   5.473
 7476TIP3    H222370   2.661   4.113   5.535
 7477TIP3   OH222371   2.773   4.691   5.116
 7477TIP3    H122372   2.684   4.662   5.134
 7477TIP3    H222373   2.810   4.712   5.202
 7478TIP3   OH222374   3.185   3.725   4.030
 7478TIP3    H122375   3.130   3.675   3.971
 7478TIP3    H222376   3.185   3.814   3.994
 7479TIP3   OH222377   3.418   4.571   5.110
 7479TIP3    H122378   3.324   4.560   5.099
 7479TIP3    H222379   3.455   4.549   5.025
 7480TIP3   OH222380   2.914   4.539   3.961
 7480TIP3    H122381   2.870   4.477   4.018
 7480TIP3    H222382   2.928   4.491   3.879
 7481TIP3   OH222383   2.013   4.379   4.558
 7481TIP3    H122384   2.007   4.444   4.488
 7481TIP3    H222385   1.992   4.296   4.516
 7482TIP3   OH222386   1.591   3.696   4.244
 7482TIP3    H122387   1.644   3.773   4.265
 7482TIP3    H222388   1.519   3.699   4.308
 7483TIP3   OH222389   2.322   4.729   5.003
 7483TIP3    H122390   2.361   4.801   4.954
 7483TIP3    H222391   2.394   4.694   5.055
 7484TIP3   OH222392   1.947   4.642   4.384
 7484TIP3    H122393   1.868   4.637   4.439
 7484TIP3    H222394   1.979   4.731   4.397
 7485TIP3   OH222395   2.670   4.266   3.856
 7485TIP3    H122396   2.718   4.233   3.933
 7485TIP3    H222397   2.582   4.231   3.866
 7486TIP3   OH222398   2.923   4.904   5.025
 7486TIP3    H122399   2.859   4.834   5.037
 7486TIP3    H222400   2.892   4.952   4.948
 7487TIP3   OH222401   2.992   4.737   3.660
 7487TIP3    H122402   3.022   4.801   3.595
 7487TIP3    H222403   2.918   4.780   3.704
 7488TIP3   OH222404   2.011   3.493   5.539
 7488TIP3    H122405   1.918   3.515   5.536
 7488TIP3    H222406   2.013   3.406   5.579
 7489TIP3   OH222407   2.839   4.162   4.055
 7489TIP3    H122408   2.825   4.122   4.141
 7489TIP3    H222409   2.934   4.172   4.049
 7490TIP3   OH222410   1.742   4.610   5.177
 7490TIP3    H122411   1.797   4.545   5.219
 7490TIP3    H222412   1.768   4.693   5.216
 7491TIP3   OH222413   2.035   4.236   3.850
 7491TIP3    H122414   2.045   4.143   3.829
 7491TIP3    H222415   2.012   4.237   3.943
 7492TIP3   OH222416   1.958   4.260   4.110
 7492TIP3    H122417   1.964   4.213   4.194
 7492TIP3    H222418   1.971   4.352   4.133
 7493TIP3   OH222419   1.703   3.932   4.334
 7493TIP3    H122420   1.642   3.978   4.392
 7493TIP3    H222421   1.785   3.982   4.342
 7494TIP3   OH222422   2.860   3.566   5.207
 7494TIP3    H122423   2.933   3.620   5.238
 7494TIP3    H222424   2.856   3.493   5.270
 7495TIP3   OH222425   2.749   3.315   4.391
 7495TIP3    H122426   2.728   3.339   4.300
 7495TIP3    H222427   2.791   3.393   4.427
 7496TIP3   OH222428   2.252   4.449   4.078
 7496TIP3    H122429   2.164   4.462   4.112
 7496TIP3    H222430   2.266   4.523   4.018
 7497TIP3   OH222431   2.412   3.518   4.489
 7497TIP3    H122432   2.475   3.588   4.468
 7497TIP3    H222433   2.428   3.499   4.582
 7498TIP3   OH222434   2.671   3.841   5.306
 7498TIP3    H122435   2.717   3.893   5.373
 7498TIP3    H222436   2.732   3.770   5.286
 7499TIP3   OH222437   2.571   3.214   4.581
 7499TIP3    H122438   2.546   3.289   4.635
 7499TIP3    H222439   2.638   3.247   4.522
 7500TIP3   OH222440   1.995   4.531   4.141
 7500TIP3    H122441   1.970   4.602   4.081
 7500TIP3    H222442   1.977   4.566   4.228
 7501TIP3   OH222443   2.085   3.237   4.390
 7501TIP3    H122444   2.072   3.327   4.421
 7501TIP3    H222445   2.180   3.223   4.397
 7502TIP3   OH222446   3.327   3.726   5.275
 7502TIP3    H122447   3.232   3.716   5.276
 7502TIP3    H222448   3.351   3.718   5.183
 7503TIP3   OH222449   1.689   4.167   4.069
 7503TIP3    H122450   1.758   4.220   4.110
 7503TIP3    H222451   1.734   4.091   4.034
 7504TIP3   OH222452   1.635   3.417   4.262
 7504TIP3    H122453   1.656   3.510   4.271
 7504TIP3    H222454   1.562   3.415   4.200
 7505TIP3   OH222455   2.959   4.896   4.595
 7505TIP3    H122456   2.918   4.946   4.525
 7505TIP3    H222457   3.053   4.909   4.581
 7506TIP3   OH222458   2.027   3.140   5.129
 7506TIP3    H122459   2.000   3.114   5.041
 7506TIP3    H222460   2.016   3.062   5.183
 7507TIP3   OH222461   1.558   4.385   4.517
 7507TIP3    H122462   1.506   4.422   4.587
 7507TIP3    H222463   1.526   4.427   4.437
 7508TIP3   OH222464   1.751   4.926   5.591
 7508TIP3    H122465   1.835   4.930   5.638
 7508TIP3    H222466   1.737   4.832   5.576
 7509TIP3   OH222467   2.217   4.842   5.629
 7509TIP3    H122468   2.308   4.817   5.640
 7509TIP3    H222469   2.185   4.788   5.557
 7510TIP3   OH222470   2.186   4.439   3.750
 7510TIP3    H122471   2.137   4.369   3.793
 7510TIP3    H222472   2.262   4.395   3.711
 7511TIP3   OH222473   2.844   4.772   5.371
 7511TIP3    H122474   2.844   4.701   5.436
 7511TIP3    H222475   2.919   4.827   5.395
 7512TIP3   OH222476   2.625   4.475   3.678
 7512TIP3    H122477   2.658   4.411   3.740
 7512TIP3    H222478   2.684   4.470   3.604
 7513TIP3   OH222479   1.855   4.318   5.790
 7513TIP3    H122480   1.872   4.224   5.798
 7513TIP3    H222481   1.771   4.324   5.745
 7514TIP3   OH222482   1.839   3.956   3.967
 7514TIP3    H122483   1.884   3.933   4.049
 7514TIP3    H222484   1.910   3.966   3.903
 7515TIP3   OH222485   2.472   4.413   5.565
 7515TIP3    H122486   2.431   4.428   5.480
 7515TIP3    H222487   2.517   4.329   5.557
 7516TIP3   OH222488   2.402   4.159   3.812
 7516TIP3    H122489   2.377   4.171   3.904
 7516TIP3    H222490   2.384   4.066   3.795
 7517TIP3   OH222491   2.960   4.396   5.163
 7517TIP3    H122492   3.001   4.470   5.117
 7517TIP3    H222493   2.869   4.423   5.177
 7518TIP3   OH222494   1.973   4.058   5.789
 7518TIP3    H122495   2.032   4.056   5.714
 7518TIP3    H222496   2.027   4.087   5.862
 7519TIP3   OH222497   2.018   3.884   4.165
 7519TIP3    H122498   1.993   3.912   4.254
 7519TIP3    H222499   2.053   3.796   4.177
 7520TIP3   OH222500   2.268   3.905   5.427
 7520TIP3    H122501   2.209   3.970   5.465
 7520TIP3    H222502   2.339   3.957   5.389
 7521TIP3   OH222503   2.166   3.659   4.032
 7521TIP3    H122504   2.133   3.685   3.946
 7521TIP3    H222505   2.259   3.680   4.030
 7522TIP3   OH222506   2.863   4.333   5.613
 7522TIP3    H122507   2.954   4.351   5.589
 7522TIP3    H222508   2.869   4.266   5.681
 7523TIP3   OH222509   2.961   3.983   3.710
 7523TIP3    H122510   2.948   3.941   3.625
 7523TIP3    H222511   2.933   4.073   3.696
 7524TIP3   OH222512   2.441   3.726   5.560
 7524TIP3    H122513   2.453   3.649   5.504
 7524TIP3    H222514   2.395   3.789   5.504
 7525TIP3   OH222515   2.443   3.523   5.364
 7525TIP3    H122516   2.470   3.573   5.287
 7525TIP3    H222517   2.352   3.499   5.347
 7526TIP3   OH222518   2.463   4.055   5.315
 7526TIP3    H122519   2.527   4.005   5.265
 7526TIP3    H222520   2.419   4.109   5.249
 7527TIP3   OH222521   3.062   4.002   5.597
 7527TIP3    H122522   3.127   3.942   5.632
 7527TIP3    H222523   3.031   4.052   5.673
 7528TIP3   OH222524   3.114   4.237   5.315
 7528TIP3    H122525   3.053   4.294   5.269
 7528TIP3    H222526   3.201   4.267   5.287
 7529TIP3   OH222527   2.325   3.812   5.797
 7529TIP3    H122528   2.247   3.756   5.801
 7529TIP3    H222529   2.359   3.800   5.708
 7530TIP3   OH222530   2.567   3.286   5.446
 7530TIP3    H122531   2.527   3.368   5.416
 7530TIP3    H222532   2.500   3.220   5.430
 7531TIP3   OH222533   2.709   3.763   5.651
 7531TIP3    H122534   2.701   3.749   5.745
 7531TIP3    H222535   2.620   3.751   5.617
 7532TIP3   OH222536   2.946   3.701   5.517
 7532TIP3    H122537   2.868   3.717   5.569
 7532TIP3    H222538   3.018   3.705   5.580
 7533TIP3   OH222539   3.184   3.696   5.681
 7533TIP3    H122540   3.189   3.601   5.691
 7533TIP3    H222541   3.164   3.728   5.769
 7534TIP3   OH222542   2.159   3.585   5.810
 7534TIP3    H122543   2.148   3.526   5.735
 7534TIP3    H222544   2.228   3.543   5.862
 7535TIP3   OH222545   2.637   3.264   5.709
 7535TIP3    H122546   2.710   3.202   5.702
 7535TIP3    H222547   2.607   3.276   5.618
 7536TIP3   OH222548   2.713   3.473   5.871
 7536TIP3    H122549   2.686   3.409   5.805
 7536TIP3    H222550   2.645   3.541   5.869
 7537TIP3   OH222551   1.979   4.742   3.959
 7537TIP3    H122552   2.069   4.718   3.935
 7537TIP3    H222553   1.945   4.787   3.881
 7538TIP3   OH222554   1.444   4.102   4.166
 7538TIP3    H122555   1.532   4.132   4.143
 7538TIP3    H222556   1.435   4.017   4.122
 7539TIP3   OH222557   1.351   4.704   4.600
 7539TIP3    H122558   1.287   4.647   4.557
 7539TIP3    H222559   1.394   4.647   4.664
 7540TIP3   OH222560   1.483   4.547   4.785
 7540TIP3    H122561   1.478   4.476   4.849
 7540TIP3    H222562   1.542   4.612   4.825
 7541TIP3   OH222563   3.229   4.950   4.583
 7541TIP3    H122564   3.253   4.976   4.672
 7541TIP3    H222565   3.289   5.000   4.527
 7542TIP3   OH222566   3.262   4.981   4.862
 7542TIP3    H122567   3.209   4.902   4.859
 7542TIP3    H222568   3.332   4.961   4.924
 7543TIP3   OH222569   3.305   4.669   5.432
 7543TIP3    H122570   3.233   4.674   5.494
 7543TIP3    H222571   3.348   4.755   5.438
 7544TIP3   OH222572   3.123   4.188   4.047
 7544TIP3    H122573   3.167   4.262   4.006
 7544TIP3    H222574   3.187   4.154   4.110
 7545TIP3   OH222575   3.317   4.073   4.216
 7545TIP3    H122576   3.300   4.010   4.285
 7545TIP3    H222577   3.371   4.141   4.258
 7546TIP3   OH222578   3.334   4.439   4.665
 7546TIP3    H122579   3.308   4.369   4.606
 7546TIP3    H222580   3.317   4.519   4.616
 7547TIP3   OH222581   3.109   4.755   4.873
 7547TIP3    H122582   3.040   4.794   4.927
 7547TIP3    H222583   3.063   4.711   4.802
 7548TIP3   OH222584   3.164   3.962   3.892
 7548TIP3    H122585   3.094   3.961   3.827
 7548TIP3    H222586   3.148   4.041   3.944
 7549TIP3   OH222587   3.032   3.610   3.834
 7549TIP3    H122588   2.979   3.649   3.764
 7549TIP3    H222589   3.021   3.516   3.822
 7550TIP3   OH222590   1.672   3.966   5.146
 7550TIP3    H122591   1.672   3.934   5.055
 7550TIP3    H222592   1.765   3.972   5.169
 7551TIP3   OH222593   3.363   4.326   5.245
 7551TIP3    H122594   3.422   4.254   5.224
 7551TIP3    H222595   3.391   4.397   5.188
 7552TIP3   OH222596   3.512   4.096   5.230
 7552TIP3    H122597   3.437   4.062   5.278
 7552TIP3    H222598   3.585   4.040   5.256
 7553TIP3   OH222599   2.985   3.338   3.801
 7553TIP3    H122600   3.048   3.316   3.869
 7553TIP3    H222601   2.903   3.299   3.830
 7554TIP3   OH222602   3.037   3.610   4.253
 7554TIP3    H122603   3.086   3.530   4.271
 7554TIP3    H222604   3.091   3.656   4.188
 7555TIP3   OH222605   3.288   3.967   5.034
 7555TIP3    H122606   3.220   3.971   5.100
 7555TIP3    H222607   3.248   4.007   4.956
 7556TIP3   OH222608   1.887   3.645   5.808
 7556TIP3    H122609   1.983   3.640   5.806
 7556TIP3    H222610   1.859   3.560   5.843
 7557TIP3   OH222611   3.737   3.533   5.566
 7557TIP3    H122612   3.800   3.477   5.519
 7557TIP3    H222613   3.698   3.586   5.497
 7558TIP3   OH222614   3.165   3.372   4.320
 7558TIP3    H122615   3.211   3.360   4.403
 7558TIP3    H222616   3.100   3.301   4.318
 7559TIP3   OH222617   1.861   3.358   5.182
 7559TIP3    H122618   1.918   3.283   5.169
 7559TIP3    H222619   1.913   3.433   5.152
 7560TIP3   OH222620   1.648   3.631   5.219
 7560TIP3    H122621   1.699   3.620   5.138
 7560TIP3    H222622   1.672   3.717   5.251
 7561TIP3   OH222623   3.589   3.661   5.379
 7561TIP3    H122624   3.518   3.705   5.426
 7561TIP3    H222625   3.544   3.601   5.320
 7562TIP3   OH222626   3.210   3.295   3.956
 7562TIP3    H122627   3.260   3.232   3.904
 7562TIP3    H222628   3.269   3.370   3.964
 7563TIP3   OH222629   1.627   3.091   4.691
 7563TIP3    H122630   1.554   3.107   4.751
 7563TIP3    H222631   1.626   3.166   4.632
 7564TIP3   OH222632   2.799   4.856   4.222
 7564TIP3    H122633   2.854   4.843   4.145
 7564TIP3    H222634   2.842   4.925   4.271
 7565TIP3   OH222635   1.868   3.208   5.541
 7565TIP3    H122636   1.814   3.199   5.620
 7565TIP3    H222637   1.810   3.248   5.476
 7566TIP3   OH222638   1.890   4.650   5.603
 7566TIP3    H122639   1.798   4.627   5.594
 7566TIP3    H222640   1.910   4.638   5.696
 7567TIP3   OH222641   2.093   4.691   5.154
 7567TIP3    H122642   2.045   4.767   5.122
 7567TIP3    H222643   2.178   4.696   5.109
 7568TIP3   OH222644   2.507   4.925   5.296
 7568TIP3    H122645   2.547   4.914   5.382
 7568TIP3    H222646   2.573   4.972   5.245
 7569TIP3   OH222647   2.702   5.071   5.161
 7569TIP3    H122648   2.769   5.014   5.123
 7569TIP3    H222649   2.751   5.131   5.217
 7570TIP3   OH222650   3.486   3.423   5.255
 7570TIP3    H122651   3.405   3.429   5.204
 7570TIP3    H222652   3.515   3.332   5.243
 7571TIP3   OH222653   1.760   4.938   5.201
 7571TIP3    H122654   1.670   4.960   5.179
 7571TIP3    H222655   1.784   5.002   5.268
 7572TIP3   OH222656   1.991   4.925   5.050
 7572TIP3    H122657   1.907   4.931   5.096
 7572TIP3    H222658   1.970   4.947   4.959
 7573TIP3   OH222659   2.406   4.940   4.839
 7573TIP3    H122660   2.331   4.951   4.780
 7573TIP3    H222661   2.417   5.025   4.881
 7574TIP3   OH222662   2.673   4.871   4.851
 7574TIP3    H122663   2.581   4.895   4.847
 7574TIP3    H222664   2.720   4.949   4.822
 7575TIP3   OH222665   2.875   5.063   4.796
 7575TIP3    H122666   2.871   5.149   4.755
 7575TIP3    H222667   2.905   5.004   4.727
 7576TIP3   OH222668   1.668   4.714   4.927
 7576TIP3    H122669   1.693   4.686   5.016
 7576TIP3    H222670   1.738   4.680   4.872
 7577TIP3   OH222671   1.871   4.594   4.793
 7577TIP3    H122672   1.880   4.504   4.825
 7577TIP3    H222673   1.961   4.626   4.787
 7578TIP3   OH222674   2.144   4.678   4.793
 7578TIP3    H122675   2.157   4.584   4.777
 7578TIP3    H222676   2.198   4.696   4.870
 7579TIP3   OH222677   2.696   3.340   4.890
 7579TIP3    H122678   2.657   3.268   4.939
 7579TIP3    H222679   2.764   3.300   4.836
 7580TIP3   OH222680   3.204   3.233   4.761
 7580TIP3    H122681   3.253   3.281   4.694
 7580TIP3    H222682   3.126   3.286   4.776
 7581TIP3   OH222683   3.332   3.324   4.536
 7581TIP3    H122684   3.401   3.265   4.508
 7581TIP3    H222685   3.368   3.412   4.523
 7582TIP3   OH222686   1.946   3.031   4.888
 7582TIP3    H122687   1.854   3.003   4.893
 7582TIP3    H222688   1.995   2.950   4.880
 7583TIP3   OH222689   1.755   2.915   4.521
 7583TIP3    H122690   1.786   2.972   4.451
 7583TIP3    H222691   1.714   2.974   4.584
 7584TIP3   OH222692   2.420   3.070   4.777
 7584TIP3    H122693   2.461   3.120   4.707
 7584TIP3    H222694   2.447   3.115   4.857
 7585TIP3   OH222695   2.901   3.220   4.753
 7585TIP3    H122696   2.937   3.193   4.669
 7585TIP3    H222697   2.910   3.143   4.809
 7586TIP3   OH222698   2.974   3.166   4.320
 7586TIP3    H122699   2.894   3.215   4.342
 7586TIP3    H222700   2.961   3.080   4.360
 7587TIP3   OH222701   1.454   4.508   4.294
 7587TIP3    H122702   1.371   4.468   4.268
 7587TIP3    H222703   1.446   4.600   4.266
 7588TIP3   OH222704   1.870   3.070   4.304
 7588TIP3    H122705   1.919   3.015   4.242
 7588TIP3    H222706   1.936   3.129   4.340
 7589TIP3   OH222707   2.362   3.264   4.400
 7589TIP3    H122708   2.423   3.218   4.457
 7589TIP3    H222709   2.371   3.356   4.424
 7590TIP3   OH222710   2.235   4.665   3.895
 7590TIP3    H122711   2.319   4.692   3.859
 7590TIP3    H222712   2.208   4.591   3.840
 7591TIP3   OH222713   2.948   4.807   3.993
 7591TIP3    H122714   2.942   4.712   3.986
 7591TIP3    H222715   2.903   4.840   3.916
 7592TIP3   OH222716   2.158   3.287   5.760
 7592TIP3    H122717   2.127   3.226   5.827
 7592TIP3    H222718   2.248   3.305   5.784
 7593TIP3   OH222719   2.405   3.313   5.871
 7593TIP3    H122720   2.485   3.297   5.822
 7593TIP3    H222721   2.418   3.266   5.954
 7594TIP3   OH222722   1.539   4.505   3.964
 7594TIP3    H122723   1.544   4.503   4.059
 7594TIP3    H222724   1.620   4.463   3.935
 7595TIP3   OH222725   3.238   3.417   5.687
 7595TIP3    H122726   3.258   3.385   5.776
 7595TIP3    H222727   3.322   3.412   5.641
 7596TIP3   OH222728   3.149   4.942   5.188
 7596TIP3    H122729   3.072   4.917   5.137
 7596TIP3    H222730   3.142   5.037   5.196
 7597TIP3   OH222731   3.429   3.808   4.159
 7597TIP3    H122732   3.416   3.903   4.158
 7597TIP3    H222733   3.348   3.772   4.126
 7598TIP3   OH222734   4.338   5.081   4.026
 7598TIP3    H122735   4.375   5.005   3.981
 7598TIP3    H222736   4.321   5.050   4.116
 7599TIP3   OH222737   5.263   3.844   4.377
 7599TIP3    H122738   5.284   3.926   4.421
 7599TIP3    H222739   5.307   3.850   4.292
 7600TIP3   OH222740   4.680   4.061   4.385
 7600TIP3    H122741   4.689   3.969   4.409
 7600TIP3    H222742   4.640   4.060   4.298
 7601TIP3   OH222743   3.979   3.724   4.314
 7601TIP3    H122744   3.918   3.784   4.273
 7601TIP3    H222745   3.944   3.637   4.295
 7602TIP3   OH222746   4.696   3.786   3.980
 7602TIP3    H122747   4.757   3.771   4.052
 7602TIP3    H222748   4.750   3.825   3.911
 7603TIP3   OH222749   3.647   3.830   4.488
 7603TIP3    H122750   3.736   3.847   4.518
 7603TIP3    H222751   3.654   3.826   4.392
 7604TIP3   OH222752   5.328   4.070   4.538
 7604TIP3    H122753   5.248   4.120   4.525
 7604TIP3    H222754   5.366   4.105   4.618
 7605TIP3   OH222755   3.978   3.685   4.808
 7605TIP3    H122756   3.939   3.728   4.731
 7605TIP3    H222757   3.918   3.705   4.880
 7606TIP3   OH222758   4.340   4.544   3.764
 7606TIP3    H122759   4.291   4.514   3.688
 7606TIP3    H222760   4.288   4.617   3.799
 7607TIP3   OH222761   4.119   4.492   4.608
 7607TIP3    H122762   4.039   4.543   4.620
 7607TIP3    H222763   4.125   4.480   4.513
 7608TIP3   OH222764   4.867   3.783   4.192
 7608TIP3    H122765   4.817   3.779   4.274
 7608TIP3    H222766   4.951   3.821   4.217
 7609TIP3   OH222767   3.906   3.804   4.572
 7609TIP3    H122768   3.950   3.887   4.587
 7609TIP3    H222769   3.945   3.771   4.491
 7610TIP3   OH222770   3.877   4.641   4.627
 7610TIP3    H122771   3.882   4.734   4.604
 7610TIP3    H222772   3.821   4.638   4.704
 7611TIP3   OH222773   3.287   4.380   3.921
 7611TIP3    H122774   3.258   4.403   3.833
 7611TIP3    H222775   3.316   4.463   3.959
 7612TIP3   OH222776   5.057   3.748   4.546
 7612TIP3    H122777   4.971   3.779   4.517
 7612TIP3    H222778   5.117   3.775   4.476
 7613TIP3   OH222779   4.326   3.387   4.528
 7613TIP3    H122780   4.316   3.295   4.552
 7613TIP3    H222781   4.251   3.430   4.568
 7614TIP3   OH222782   4.454   4.902   3.844
 7614TIP3    H122783   4.508   4.823   3.832
 7614TIP3    H222784   4.507   4.972   3.807
 7615TIP3   OH222785   4.591   4.665   3.796
 7615TIP3    H122786   4.557   4.635   3.711
 7615TIP3    H222787   4.545   4.611   3.860
 7616TIP3   OH222788   4.979   4.783   4.458
 7616TIP3    H122789   4.931   4.707   4.424
 7616TIP3    H222790   4.941   4.858   4.412
 7617TIP3   OH222791   4.258   4.159   3.762
 7617TIP3    H122792   4.185   4.219   3.743
 7617TIP3    H222793   4.317   4.168   3.688
 7618TIP3   OH222794   4.232   3.971   3.473
 7618TIP3    H122795   4.293   4.016   3.531
 7618TIP3    H222796   4.285   3.906   3.426
 7619TIP3   OH222797   4.610   4.274   3.757
 7619TIP3    H122798   4.549   4.298   3.827
 7619TIP3    H222799   4.688   4.242   3.802
 7620TIP3   OH222800   4.864   4.275   4.672
 7620TIP3    H122801   4.853   4.358   4.720
 7620TIP3    H222802   4.797   4.279   4.604
 7621TIP3   OH222803   4.012   4.679   4.284
 7621TIP3    H122804   3.960   4.609   4.325
 7621TIP3    H222805   4.102   4.649   4.291
 7622TIP3   OH222806   4.462   4.121   3.574
 7622TIP3    H122807   4.518   4.183   3.620
 7622TIP3    H222808   4.487   4.130   3.482
 7623TIP3   OH222809   3.875   4.326   4.970
 7623TIP3    H122810   3.874   4.420   4.987
 7623TIP3    H222811   3.783   4.302   4.958
 7624TIP3   OH222812   4.206   4.779   3.831
 7624TIP3    H122813   4.285   4.833   3.842
 7624TIP3    H222814   4.142   4.838   3.791
 7625TIP3   OH222815   4.963   3.346   3.627
 7625TIP3    H122816   4.886   3.366   3.681
 7625TIP3    H222817   4.975   3.423   3.573
 7626TIP3   OH222818   3.710   4.069   3.905
 7626TIP3    H122819   3.626   4.111   3.891
 7626TIP3    H222820   3.692   4.001   3.970
 7627TIP3   OH222821   4.785   4.723   3.177
 7627TIP3    H122822   4.783   4.816   3.157
 7627TIP3    H222823   4.874   4.695   3.157
 7628TIP3   OH222824   3.509   4.470   4.873
 7628TIP3    H122825   3.444   4.451   4.805
 7628TIP3    H222826   3.530   4.385   4.911
 7629TIP3   OH222827   3.340   4.696   4.533
 7629TIP3    H122828   3.422   4.724   4.574
 7629TIP3    H222829   3.278   4.765   4.555
 7630TIP3   OH222830   5.206   5.120   4.571
 7630TIP3    H122831   5.208   5.025   4.584
 7630TIP3    H222832   5.128   5.149   4.619
 7631TIP3   OH222833   4.291   4.917   4.710
 7631TIP3    H122834   4.298   5.012   4.722
 7631TIP3    H222835   4.253   4.885   4.792
 7632TIP3   OH222836   4.093   5.022   3.656
 7632TIP3    H122837   4.042   4.999   3.578
 7632TIP3    H222838   4.054   5.104   3.686
 7633TIP3   OH222839   3.529   4.875   4.045
 7633TIP3    H122840   3.580   4.867   4.126
 7633TIP3    H222841   3.487   4.790   4.035
 7634TIP3   OH222842   4.291   4.946   3.284
 7634TIP3    H122843   4.342   4.873   3.248
 7634TIP3    H222844   4.324   4.957   3.373
 7635TIP3   OH222845   4.345   4.990   3.553
 7635TIP3    H122846   4.260   4.993   3.596
 7635TIP3    H222847   4.406   4.967   3.623
 7636TIP3   OH222848   5.094   4.238   4.852
 7636TIP3    H122849   5.014   4.254   4.802
 7636TIP3    H222850   5.111   4.145   4.842
 7637TIP3   OH222851   3.694   4.668   4.835
 7637TIP3    H122852   3.751   4.661   4.912
 7637TIP3    H222853   3.626   4.602   4.851
 7638TIP3   OH222854   4.087   3.482   4.650
 7638TIP3    H122855   4.002   3.451   4.620
 7638TIP3    H222856   4.068   3.561   4.700
 7639TIP3   OH222857   4.632   3.599   4.851
 7639TIP3    H122858   4.700   3.574   4.914
 7639TIP3    H222859   4.550   3.579   4.896
 7640TIP3   OH222860   4.858   4.015   4.772
 7640TIP3    H122861   4.813   4.014   4.857
 7640TIP3    H222862   4.841   4.104   4.738
 7641TIP3   OH222863   4.535   4.124   3.311
 7641TIP3    H122864   4.489   4.117   3.228
 7641TIP3    H222865   4.617   4.167   3.289
 7642TIP3   OH222866   4.241   3.522   3.623
 7642TIP3    H122867   4.209   3.528   3.713
 7642TIP3    H222868   4.202   3.441   3.589
 7643TIP3   OH222869   4.013   4.050   4.627
 7643TIP3    H122870   3.959   4.054   4.706
 7643TIP3    H222871   3.987   4.128   4.577
 7644TIP3   OH222872   4.389   3.972   3.914
 7644TIP3    H122873   4.339   4.041   3.870
 7644TIP3    H222874   4.446   3.936   3.846
 7645TIP3   OH222875   4.580   4.234   4.980
 7645TIP3    H122876   4.553   4.165   5.041
 7645TIP3    H222877   4.671   4.252   5.003
 7646TIP3   OH222878   4.572   3.994   4.129
 7646TIP3    H122879   4.496   4.007   4.072
 7646TIP3    H222880   4.612   3.913   4.097
 7647TIP3   OH222881   3.864   4.009   4.865
 7647TIP3    H122882   3.908   4.070   4.925
 7647TIP3    H222883   3.848   3.931   4.918
 7648TIP3   OH222884   3.902   3.503   3.596
 7648TIP3    H122885   3.896   3.504   3.692
 7648TIP3    H222886   3.825   3.553   3.567
 7649TIP3   OH222887   3.449   3.560   4.473
 7649TIP3    H122888   3.507   3.593   4.542
 7649TIP3    H222889   3.488   3.591   4.392
 7650TIP3   OH222890   3.372   3.524   3.972
 7650TIP3    H122891   3.418   3.558   3.896
 7650TIP3    H222892   3.315   3.596   4.000
 7651TIP3   OH222893   4.257   3.691   4.234
 7651TIP3    H122894   4.173   3.703   4.279
 7651TIP3    H222895   4.322   3.694   4.303
 7652TIP3   OH222896   3.699   3.766   4.225
 7652TIP3    H122897   3.610   3.770   4.189
 7652TIP3    H222898   3.730   3.678   4.201
 7653TIP3   OH222899   3.917   3.736   3.942
 7653TIP3    H122900   4.005   3.774   3.945
 7653TIP3    H222901   3.878   3.773   3.862
 7654TIP3   OH222902   4.720   3.779   4.432
 7654TIP3    H122903   4.704   3.797   4.524
 7654TIP3    H222904   4.647   3.723   4.405
 7655TIP3   OH222905   3.801   3.789   3.695
 7655TIP3    H122906   3.736   3.744   3.641
 7655TIP3    H222907   3.858   3.834   3.632
 7656TIP3   OH222908   4.921   5.475   4.673
 7656TIP3    H122909   4.916   5.493   4.579
 7656TIP3    H222910   4.999   5.522   4.703
 7657TIP3   OH222911   3.847   4.589   5.065
 7657TIP3    H122912   3.931   4.620   5.098
 7657TIP3    H222913   3.788   4.595   5.140
 7658TIP3   OH222914   3.827   3.509   4.220
 7658TIP3    H122915   3.795   3.437   4.275
 7658TIP3    H222916   3.858   3.466   4.141
 7659TIP3   OH222917   4.267   3.937   4.665
 7659TIP3    H122918   4.189   3.989   4.647
 7659TIP3    H222919   4.335   4.002   4.684
 7660TIP3   OH222920   4.016   4.319   3.729
 7660TIP3    H122921   3.950   4.256   3.699
 7660TIP3    H222922   4.003   4.323   3.824
 7661TIP3   OH222923   4.491   3.628   3.614
 7661TIP3    H122924   4.398   3.606   3.616
 7661TIP3    H222925   4.494   3.722   3.634
 7662TIP3   OH222926   4.468   4.686   4.733
 7662TIP3    H122927   4.449   4.655   4.822
 7662TIP3    H222928   4.396   4.746   4.713
 7663TIP3   OH222929   4.552   3.888   3.697
 7663TIP3    H122930   4.647   3.892   3.708
 7663TIP3    H222931   4.530   3.966   3.646
 7664TIP3   OH222932   4.167   4.468   3.559
 7664TIP3    H122933   4.125   4.554   3.558
 7664TIP3    H222934   4.112   4.415   3.616
 7665TIP3   OH222935   3.605   4.267   5.036
 7665TIP3    H122936   3.657   4.298   5.111
 7665TIP3    H222937   3.562   4.188   5.067
 7666TIP3   OH222938   4.327   4.345   5.048
 7666TIP3    H122939   4.258   4.296   5.003
 7666TIP3    H222940   4.408   4.319   5.003
 7667TIP3   OH222941   4.598   4.945   4.620
 7667TIP3    H122942   4.511   4.906   4.621
 7667TIP3    H222943   4.611   4.974   4.710
 7668TIP3   OH222944   4.977   3.976   3.519
 7668TIP3    H122945   4.922   3.929   3.457
 7668TIP3    H222946   4.982   4.065   3.484
 7669TIP3   OH222947   5.211   4.832   4.596
 7669TIP3    H122948   5.141   4.842   4.660
 7669TIP3    H222949   5.167   4.804   4.516
 7670TIP3   OH222950   4.710   4.787   3.440
 7670TIP3    H122951   4.688   4.709   3.491
 7670TIP3    H222952   4.728   4.754   3.352
 7671TIP3   OH222953   3.396   3.948   3.742
 7671TIP3    H122954   3.439   4.031   3.761
 7671TIP3    H222955   3.317   3.949   3.797
 7672TIP3   OH222956   4.126   4.983   4.490
 7672TIP3    H122957   4.175   5.053   4.447
 7672TIP3    H222958   4.185   4.951   4.558
 7673TIP3   OH222959   3.725   4.919   3.852
 7673TIP3    H122960   3.655   4.908   3.917
 7673TIP3    H222961   3.765   5.003   3.873
 7674TIP3   OH222962   4.468   4.525   3.333
 7674TIP3    H122963   4.512   4.501   3.414
 7674TIP3    H222964   4.382   4.482   3.338
 7675TIP3   OH222965   4.730   5.162   4.516
 7675TIP3    H122966   4.670   5.091   4.537
 7675TIP3    H222967   4.688   5.209   4.443
 7676TIP3   OH222968   4.790   4.997   3.146
 7676TIP3    H122969   4.821   5.063   3.085
 7676TIP3    H222970   4.715   5.037   3.189
 7677TIP3   OH222971   3.814   3.765   5.017
 7677TIP3    H122972   3.719   3.774   5.026
 7677TIP3    H222973   3.841   3.710   5.091
 7678TIP3   OH222974   4.634   4.462   3.547
 7678TIP3    H122975   4.617   4.404   3.621
 7678TIP3    H222976   4.728   4.456   3.533
 7679TIP3   OH222977   3.551   4.853   4.658
 7679TIP3    H122978   3.603   4.791   4.710
 7679TIP3    H222979   3.573   4.939   4.695
 7680TIP3   OH222980   3.827   4.494   3.342
 7680TIP3    H122981   3.833   4.403   3.314
 7680TIP3    H222982   3.804   4.489   3.434
 7681TIP3   OH222983   3.766   4.511   3.613
 7681TIP3    H122984   3.845   4.486   3.661
 7681TIP3    H222985   3.763   4.606   3.619
 7682TIP3   OH222986   3.480   4.202   3.824
 7682TIP3    H122987   3.417   4.250   3.877
 7682TIP3    H222988   3.504   4.262   3.754
 7683TIP3   OH222989   4.669   3.827   4.695
 7683TIP3    H122990   4.741   3.875   4.736
 7683TIP3    H222991   4.654   3.753   4.754
 7684TIP3   OH222992   4.548   3.572   3.886
 7684TIP3    H122993   4.527   3.592   3.795
 7684TIP3    H222994   4.590   3.652   3.919
 7685TIP3   OH222995   4.034   4.703   3.563
 7685TIP3    H122996   3.948   4.728   3.596
 7685TIP3    H222997   4.059   4.775   3.505
 7686TIP3   OH222998   4.198   3.780   3.979
 7686TIP3    H122999   4.263   3.848   3.957
 7686TIP3    H223000   4.217   3.758   4.070
 7687TIP3   OH223001   4.491   4.086   4.750
 7687TIP3    H123002   4.526   4.130   4.827
 7687TIP3    H223003   4.546   4.008   4.739
 7688TIP3   OH223004   4.366   3.481   4.077
 7688TIP3    H123005   4.345   3.558   4.130
 7688TIP3    H223006   4.434   3.512   4.017
 7689TIP3   OH223007   3.779   4.784   3.625
 7689TIP3    H123008   3.758   4.851   3.559
 7689TIP3    H223009   3.760   4.825   3.709
 7690TIP3   OH223010   3.885   3.474   3.874
 7690TIP3    H123011   3.875   3.564   3.905
 7690TIP3    H223012   3.979   3.457   3.880
 7691TIP3   OH223013   5.123   3.970   4.762
 7691TIP3    H123014   5.028   3.972   4.773
 7691TIP3    H223015   5.135   3.925   4.678
 7692TIP3   OH223016   3.516   4.384   3.615
 7692TIP3    H123017   3.585   4.449   3.624
 7692TIP3    H223018   3.550   4.321   3.551
 7693TIP3   OH223019   3.431   3.670   3.746
 7693TIP3    H123020   3.451   3.763   3.755
 7693TIP3    H223021   3.359   3.666   3.683
 7694TIP3   OH223022   4.771   5.150   4.105
 7694TIP3    H123023   4.720   5.184   4.031
 7694TIP3    H223024   4.862   5.163   4.079
 7695TIP3   OH223025   3.820   3.403   4.618
 7695TIP3    H123026   3.793   3.371   4.531
 7695TIP3    H223027   3.813   3.326   4.674
 7696TIP3   OH223028   3.354   4.644   4.012
 7696TIP3    H123029   3.312   4.685   4.088
 7696TIP3    H223030   3.315   4.688   3.936
 7697TIP3   OH223031   3.554   5.194   5.078
 7697TIP3    H123032   3.632   5.215   5.130
 7697TIP3    H223033   3.556   5.099   5.069
 7698TIP3   OH223034   4.005   5.107   5.117
 7698TIP3    H123035   4.086   5.132   5.161
 7698TIP3    H223036   4.028   5.032   5.062
 7699TIP3   OH223037   3.986   4.696   3.243
 7699TIP3    H123038   3.937   4.624   3.283
 7699TIP3    H223039   4.059   4.652   3.198
 7700TIP3   OH223040   4.638   5.039   4.875
 7700TIP3    H123041   4.647   4.969   4.939
 7700TIP3    H223042   4.712   5.097   4.891
 7701TIP3   OH223043   4.424   4.738   3.164
 7701TIP3    H123044   4.455   4.671   3.225
 7701TIP3    H223045   4.482   4.730   3.088
 7702TIP3   OH223046   3.650   4.591   5.267
 7702TIP3    H123047   3.672   4.499   5.279
 7702TIP3    H223048   3.562   4.589   5.228
 7703TIP3   OH223049   3.646   4.195   3.466
 7703TIP3    H123050   3.700   4.171   3.541
 7703TIP3    H223051   3.708   4.208   3.395
 7704TIP3   OH223052   4.376   4.621   4.981
 7704TIP3    H123053   4.320   4.697   4.998
 7704TIP3    H223054   4.326   4.547   5.014
 7705TIP3   OH223055   4.211   4.412   3.295
 7705TIP3    H123056   4.184   4.426   3.386
 7705TIP3    H223057   4.193   4.319   3.278
 7706TIP3   OH223058   4.730   4.662   4.659
 7706TIP3    H123059   4.749   4.751   4.627
 7706TIP3    H223060   4.638   4.665   4.684
 7707TIP3   OH223061   3.771   4.335   5.253
 7707TIP3    H123062   3.851   4.315   5.205
 7707TIP3    H223063   3.800   4.348   5.343
 7708TIP3   OH223064   3.829   4.129   3.667
 7708TIP3    H123065   3.792   4.096   3.749
 7708TIP3    H223066   3.872   4.053   3.627
 7709TIP3   OH223067   4.104   4.182   4.936
 7709TIP3    H123068   4.029   4.241   4.946
 7709TIP3    H223069   4.146   4.212   4.855
 7710TIP3   OH223070   3.957   3.932   3.519
 7710TIP3    H123071   3.929   3.940   3.428
 7710TIP3    H223072   4.053   3.940   3.515
 7711TIP3   OH223073   4.689   4.592   5.050
 7711TIP3    H123074   4.694   4.543   4.968
 7711TIP3    H223075   4.629   4.541   5.105
 7712TIP3   OH223076   4.760   4.239   3.197
 7712TIP3    H123077   4.745   4.196   3.113
 7712TIP3    H223078   4.734   4.330   3.183
 7713TIP3   OH223079   4.240   3.974   5.047
 7713TIP3    H123080   4.239   3.896   4.991
 7713TIP3    H223081   4.194   4.040   4.995
 7714TIP3   OH223082   4.234   3.759   4.867
 7714TIP3    H123083   4.257   3.812   4.791
 7714TIP3    H223084   4.143   3.732   4.851
 7715TIP3   OH223085   4.248   4.291   4.739
 7715TIP3    H123086   4.340   4.293   4.710
 7715TIP3    H223087   4.208   4.367   4.696
 7716TIP3   OH223088   4.843   4.270   5.085
 7716TIP3    H123089   4.893   4.189   5.091
 7716TIP3    H223090   4.908   4.337   5.064
 7717TIP3   OH223091   4.885   4.511   4.822
 7717TIP3    H123092   4.830   4.570   4.770
 7717TIP3    H223093   4.975   4.534   4.798
 7718TIP3   OH223094   4.119   4.068   5.284
 7718TIP3    H123095   4.049   4.005   5.301
 7718TIP3    H223096   4.147   4.050   5.195
 7719TIP3   OH223097   4.375   3.534   4.936
 7719TIP3    H123098   4.328   3.614   4.911
 7719TIP3    H223099   4.312   3.464   4.922
 7720TIP3   OH223100   4.496   4.025   5.139
 7720TIP3    H123101   4.480   4.015   5.233
 7720TIP3    H223102   4.412   4.003   5.099
 7721TIP3   OH223103   4.737   3.973   5.008
 7721TIP3    H123104   4.659   3.976   5.062
 7721TIP3    H223105   4.807   3.949   5.069
 7722TIP3   OH223106   4.980   3.933   5.149
 7722TIP3    H123107   4.990   3.838   5.157
 7722TIP3    H223108   4.975   3.965   5.239
 7723TIP3   OH223109   3.954   3.847   5.345
 7723TIP3    H123110   3.960   3.759   5.306
 7723TIP3    H223111   3.992   3.837   5.432
 7724TIP3   OH223112   4.439   3.525   5.202
 7724TIP3    H123113   4.506   3.456   5.197
 7724TIP3    H223114   4.408   3.534   5.113
 7725TIP3   OH223115   4.527   3.742   5.350
 7725TIP3    H123116   4.500   3.671   5.292
 7725TIP3    H223117   4.456   3.807   5.344
 7726TIP3   OH223118   3.773   4.989   3.439
 7726TIP3    H123119   3.865   4.973   3.418
 7726TIP3    H223120   3.738   5.036   3.363
 7727TIP3   OH223121   3.242   4.374   3.627
 7727TIP3    H123122   3.337   4.387   3.625
 7727TIP3    H223123   3.229   4.285   3.593
 7728TIP3   OH223124   3.152   4.961   4.091
 7728TIP3    H123125   3.088   4.907   4.044
 7728TIP3    H223126   3.197   4.900   4.150
 7729TIP3   OH223127   3.298   4.796   4.261
 7729TIP3    H123128   3.289   4.730   4.330
 7729TIP3    H223129   3.350   4.866   4.301
 7730TIP3   OH223130   5.035   5.208   4.070
 7730TIP3    H123131   5.057   5.239   4.158
 7730TIP3    H223132   5.084   5.266   4.011
 7731TIP3   OH223133   5.052   5.234   4.353
 7731TIP3    H123134   4.998   5.156   4.345
 7731TIP3    H223135   5.118   5.210   4.418
 7732TIP3   OH223136   5.100   4.929   4.896
 7732TIP3    H123137   5.029   4.929   4.960
 7732TIP3    H223138   5.145   5.012   4.909
 7733TIP3   OH223139   4.913   4.442   3.532
 7733TIP3    H123140   4.972   4.511   3.500
 7733TIP3    H223141   4.959   4.403   3.606
 7734TIP3   OH223142   5.036   4.295   3.734
 7734TIP3    H123143   4.975   4.243   3.785
 7734TIP3    H223144   5.104   4.321   3.796
 7735TIP3   OH223145   4.877   5.013   4.333
 7735TIP3    H123146   4.823   5.050   4.402
 7735TIP3    H223147   4.832   5.037   4.252
 7736TIP3   OH223148   4.962   4.216   3.381
 7736TIP3    H123149   4.894   4.213   3.315
 7736TIP3    H223150   4.943   4.294   3.433
 7737TIP3   OH223151   4.825   3.868   3.320
 7737TIP3    H123152   4.776   3.906   3.247
 7737TIP3    H223153   4.813   3.774   3.310
 7738TIP3   OH223154   4.846   4.158   3.890
 7738TIP3    H123155   4.846   4.067   3.861
 7738TIP3    H223156   4.818   4.153   3.981
 7739TIP3   OH223157   5.143   4.578   4.735
 7739TIP3    H123158   5.207   4.507   4.736
 7739TIP3    H223159   5.168   4.632   4.661
 7740TIP3   OH223160   5.316   4.372   4.770
 7740TIP3    H123161   5.239   4.323   4.799
 7740TIP3    H223162   5.385   4.306   4.764
 7741TIP3   OH223163   4.779   3.598   3.292
 7741TIP3    H123164   4.843   3.571   3.358
 7741TIP3    H223165   4.697   3.557   3.321
 7742TIP3   OH223166   4.848   3.892   3.760
 7742TIP3    H123167   4.888   3.806   3.774
 7742TIP3    H223168   4.891   3.926   3.681
 7743TIP3   OH223169   5.095   4.218   4.512
 7743TIP3    H123170   5.018   4.223   4.569
 7743TIP3    H223171   5.078   4.283   4.443
 7744TIP3   OH223172   3.691   3.897   5.282
 7744TIP3    H123173   3.785   3.896   5.297
 7744TIP3    H223174   3.658   3.818   5.324
 7745TIP3   OH223175   5.533   3.797   5.050
 7745TIP3    H123176   5.594   3.737   5.006
 7745TIP3    H223177   5.493   3.847   4.978
 7746TIP3   OH223178   4.952   3.637   3.810
 7746TIP3    H123179   5.000   3.621   3.891
 7746TIP3    H223180   4.890   3.564   3.803
 7747TIP3   OH223181   3.639   3.617   4.674
 7747TIP3    H123182   3.710   3.554   4.662
 7747TIP3    H223183   3.666   3.693   4.624
 7748TIP3   OH223184   5.385   3.912   4.854
 7748TIP3    H123185   5.305   3.955   4.886
 7748TIP3    H223186   5.352   3.841   4.798
 7749TIP3   OH223187   5.008   3.550   3.447
 7749TIP3    H123188   5.054   3.487   3.391
 7749TIP3    H223189   5.067   3.626   3.450
 7750TIP3   OH223190   3.424   3.357   4.184
 7750TIP3    H123191   3.343   3.363   4.235
 7750TIP3    H223192   3.417   3.428   4.120
 7751TIP3   OH223193   4.588   5.094   3.712
 7751TIP3    H123194   4.645   5.089   3.635
 7751TIP3    H223195   4.627   5.162   3.767
 7752TIP3   OH223196   3.658   3.450   5.029
 7752TIP3    H123197   3.610   3.451   5.112
 7752TIP3    H223198   3.599   3.492   4.966
 7753TIP3   OH223199   3.646   4.935   5.118
 7753TIP3    H123200   3.561   4.892   5.108
 7753TIP3    H223201   3.699   4.873   5.168
 7754TIP3   OH223202   3.873   4.912   4.571
 7754TIP3    H123203   3.836   5.000   4.572
 7754TIP3    H223204   3.967   4.926   4.558
 7755TIP3   OH223205   4.304   5.190   4.772
 7755TIP3    H123206   4.337   5.171   4.860
 7755TIP3    H223207   4.375   5.239   4.731
 7756TIP3   OH223208   4.501   5.336   4.647
 7756TIP3    H123209   4.566   5.279   4.606
 7756TIP3    H223210   4.552   5.394   4.703
 7757TIP3   OH223211   5.289   3.668   4.743
 7757TIP3    H123212   5.200   3.665   4.707
 7757TIP3    H223213   5.320   3.578   4.737
 7758TIP3   OH223214   3.554   5.185   4.679
 7758TIP3    H123215   3.464   5.209   4.660
 7758TIP3    H223216   3.579   5.242   4.753
 7759TIP3   OH223217   3.790   5.177   4.534
 7759TIP3    H123218   3.707   5.179   4.583
 7759TIP3    H223219   3.766   5.205   4.446
 7760TIP3   OH223220   4.215   5.195   4.319
 7760TIP3    H123221   4.136   5.209   4.266
 7760TIP3    H223222   4.225   5.277   4.367
 7761TIP3   OH223223   4.485   5.144   4.356
 7761TIP3    H123224   4.391   5.153   4.343
 7761TIP3    H223225   4.523   5.223   4.317
 7762TIP3   OH223226   4.684   5.337   4.289
 7762TIP3    H123227   4.675   5.420   4.241
 7762TIP3    H223228   4.713   5.274   4.222
 7763TIP3   OH223229   3.467   4.974   4.412
 7763TIP3    H123230   3.489   4.942   4.500
 7763TIP3    H223231   3.543   4.950   4.359
 7764TIP3   OH223232   3.686   4.877   4.281
 7764TIP3    H123233   3.708   4.808   4.343
 7764TIP3    H223234   3.768   4.923   4.265
 7765TIP3   OH223235   3.954   4.953   4.270
 7765TIP3    H123236   3.973   4.861   4.252
 7765TIP3    H223237   3.999   4.971   4.352
 7766TIP3   OH223238   4.503   3.596   4.369
 7766TIP3    H123239   4.462   3.526   4.420
 7766TIP3    H223240   4.572   3.552   4.319
 7767TIP3   OH223241   5.008   3.495   4.255
 7767TIP3    H123242   5.042   3.545   4.182
 7767TIP3    H223243   4.915   3.518   4.259
 7768TIP3   OH223244   5.121   3.585   4.022
 7768TIP3    H123245   5.189   3.522   3.994
 7768TIP3    H223246   5.162   3.671   4.010
 7769TIP3   OH223247   3.744   3.290   4.374
 7769TIP3    H123248   3.654   3.259   4.382
 7769TIP3    H223249   3.797   3.210   4.373
 7770TIP3   OH223250   3.541   3.175   4.011
 7770TIP3    H123251   3.575   3.231   3.941
 7770TIP3    H223252   3.507   3.236   4.076
 7771TIP3   OH223253   4.213   3.336   4.268
 7771TIP3    H123254   4.261   3.388   4.203
 7771TIP3    H223255   4.251   3.361   4.352
 7772TIP3   OH223256   4.721   3.476   4.240
 7772TIP3    H123257   4.725   3.438   4.152
 7772TIP3    H223258   4.719   3.401   4.299
 7773TIP3   OH223259   4.771   3.421   3.811
 7773TIP3    H123260   4.690   3.467   3.833
 7773TIP3    H223261   4.761   3.335   3.851
 7774TIP3   OH223262   3.237   4.765   3.794
 7774TIP3    H123263   3.153   4.731   3.764
 7774TIP3    H223264   3.240   4.855   3.761
 7775TIP3   OH223265   3.664   3.322   3.789
 7775TIP3    H123266   3.710   3.264   3.729
 7775TIP3    H223267   3.732   3.377   3.827
 7776TIP3   OH223268   4.162   3.521   3.887
 7776TIP3    H123269   4.222   3.481   3.949
 7776TIP3    H223270   4.161   3.614   3.911
 7777TIP3   OH223271   4.035   4.923   3.384
 7777TIP3    H123272   4.118   4.951   3.347
 7777TIP3    H223273   4.007   4.850   3.329
 7778TIP3   OH223274   4.740   5.058   3.481
 7778TIP3    H123275   4.734   4.963   3.472
 7778TIP3    H223276   4.695   5.092   3.403
 7779TIP3   OH223277   3.961   3.575   5.256
 7779TIP3    H123278   3.926   3.507   5.314
 7779TIP3    H223279   4.053   3.580   5.279
 7780TIP3   OH223280   4.212   3.580   5.377
 7780TIP3    H123281   4.290   3.559   5.325
 7780TIP3    H223282   4.205   3.509   5.440
 7781TIP3   OH223283   3.336   4.762   3.442
 7781TIP3    H123284   3.339   4.777   3.537
 7781TIP3    H223285   3.419   4.718   3.422
 7782TIP3   OH223286   5.038   3.660   5.169
 7782TIP3    H123287   5.055   3.633   5.259
 7782TIP3    H223288   5.124   3.656   5.126
 7783TIP3   OH223289   4.960   5.201   4.670
 7783TIP3    H123290   4.881   5.175   4.623
 7783TIP3    H223291   4.950   5.296   4.682
 7784TIP3   OH223292   6.253   4.595   3.408
 7784TIP3    H123293   6.212   4.679   3.390
 7784TIP3    H223294   6.187   4.530   3.383
 7785TIP3   OH223295   6.514   4.855   3.518
 7785TIP3    H123296   6.600   4.876   3.480
 7785TIP3    H223297   6.494   4.929   3.574
 7786TIP3   OH223298   5.484   4.900   3.901
 7786TIP3    H123299   5.435   4.822   3.928
 7786TIP3    H223300   5.560   4.901   3.960
 7787TIP3   OH223301   5.206   4.070   3.669
 7787TIP3    H123302   5.165   4.156   3.674
 7787TIP3    H223303   5.141   4.014   3.626
 7788TIP3   OH223304   6.147   5.321   3.519
 7788TIP3    H123305   6.177   5.254   3.456
 7788TIP3    H223306   6.149   5.277   3.604
 7789TIP3   OH223307   7.067   4.119   3.853
 7789TIP3    H123308   7.083   4.205   3.893
 7789TIP3    H223309   7.102   4.128   3.765
 7790TIP3   OH223310   6.452   4.264   3.880
 7790TIP3    H123311   6.527   4.213   3.910
 7790TIP3    H223312   6.385   4.199   3.859
 7791TIP3   OH223313   5.736   3.985   3.820
 7791TIP3    H123314   5.663   4.038   3.789
 7791TIP3    H223315   5.721   3.898   3.783
 7792TIP3   OH223316   6.496   4.036   3.458
 7792TIP3    H123317   6.548   4.052   3.537
 7792TIP3    H223318   6.544   4.083   3.389
 7793TIP3   OH223319   7.125   4.335   4.030
 7793TIP3    H123320   7.042   4.381   4.017
 7793TIP3    H223321   7.162   4.374   4.109
 7794TIP3   OH223322   5.782   3.936   4.302
 7794TIP3    H123323   5.738   3.973   4.225
 7794TIP3    H223324   5.722   3.954   4.374
 7795TIP3   OH223325   6.095   4.792   3.302
 7795TIP3    H123326   6.075   4.780   3.209
 7795TIP3    H223327   6.055   4.876   3.324
 7796TIP3   OH223328   5.897   4.754   4.130
 7796TIP3    H123329   5.817   4.807   4.128
 7796TIP3    H223330   5.938   4.770   4.046
 7797TIP3   OH223331   6.649   4.102   3.680
 7797TIP3    H123332   6.631   4.056   3.762
 7797TIP3    H223333   6.725   4.158   3.701
 7798TIP3   OH223334   5.670   4.042   4.079
 7798TIP3    H123335   5.713   4.127   4.089
 7798TIP3    H223336   5.693   4.014   3.990
 7799TIP3   OH223337   5.668   4.915   4.138
 7799TIP3    H123338   5.678   5.009   4.123
 7799TIP3    H223339   5.612   4.908   4.215
 7800TIP3   OH223340   5.090   4.627   3.415
 7800TIP3    H123341   5.057   4.646   3.327
 7800TIP3    H223342   5.115   4.712   3.450
 7801TIP3   OH223343   6.543   5.075   3.697
 7801TIP3    H123344   6.464   5.127   3.683
 7801TIP3    H223345   6.600   5.097   3.624
 7802TIP3   OH223346   6.861   4.006   4.021
 7802TIP3    H123347   6.773   4.020   3.986
 7802TIP3    H223348   6.920   4.037   3.953
 7803TIP3   OH223349   6.127   3.645   4.016
 7803TIP3    H123350   6.114   3.553   4.038
 7803TIP3    H223351   6.052   3.690   4.056
 7804TIP3   OH223352   6.240   5.156   3.313
 7804TIP3    H123353   6.289   5.075   3.298
 7804TIP3    H223354   6.299   5.225   3.282
 7805TIP3   OH223355   6.386   4.931   3.257
 7805TIP3    H123356   6.395   4.863   3.190
 7805TIP3    H223357   6.426   4.894   3.335
 7806TIP3   OH223358   6.774   5.037   3.992
 7806TIP3    H123359   6.778   4.975   3.919
 7806TIP3    H223360   6.756   5.121   3.951
 7807TIP3   OH223361   6.072   4.436   3.267
 7807TIP3    H123362   5.991   4.484   3.252
 7807TIP3    H223363   6.112   4.431   3.180
 7808TIP3   OH223364   6.027   4.227   2.961
 7808TIP3    H123365   6.092   4.275   3.011
 7808TIP3    H223366   6.077   4.160   2.914
 7809TIP3   OH223367   6.926   4.699   3.869
 7809TIP3    H123368   6.855   4.759   3.848
 7809TIP3    H223369   6.977   4.693   3.788
 7810TIP3   OH223370   6.426   4.512   3.214
 7810TIP3    H123371   6.374   4.544   3.288
 7810TIP3    H223372   6.508   4.483   3.254
 7811TIP3   OH223373   6.674   4.548   4.184
 7811TIP3    H123374   6.665   4.634   4.226
 7811TIP3    H223375   6.593   4.537   4.135
 7812TIP3   OH223376   5.780   4.949   3.738
 7812TIP3    H123377   5.729   4.926   3.661
 7812TIP3    H223378   5.865   4.910   3.723
 7813TIP3   OH223379   6.275   5.135   3.774
 7813TIP3    H123380   6.275   5.222   3.813
 7813TIP3    H223381   6.297   5.076   3.847
 7814TIP3   OH223382   5.913   5.024   4.326
 7814TIP3    H123383   5.852   5.082   4.371
 7814TIP3    H223384   5.856   4.961   4.281
 7815TIP3   OH223385   6.249   4.376   3.055
 7815TIP3    H123386   6.312   4.431   3.101
 7815TIP3    H223387   6.274   4.383   2.963
 7816TIP3   OH223388   5.986   5.050   3.324
 7816TIP3    H123389   6.072   5.090   3.328
 7816TIP3    H223390   5.933   5.112   3.275
 7817TIP3   OH223391   5.711   5.190   4.413
 7817TIP3    H123392   5.683   5.205   4.323
 7817TIP3    H223393   5.629   5.178   4.462
 7818TIP3   OH223394   6.760   3.603   3.113
 7818TIP3    H123395   6.683   3.624   3.166
 7818TIP3    H223396   6.773   3.681   3.059
 7819TIP3   OH223397   5.530   4.366   3.414
 7819TIP3    H123398   5.441   4.389   3.389
 7819TIP3    H223399   5.521   4.291   3.471
 7820TIP3   OH223400   6.580   4.980   2.662
 7820TIP3    H123401   6.580   5.074   2.644
 7820TIP3    H223402   6.669   4.952   2.640
 7821TIP3   OH223403   5.135   4.959   3.985
 7821TIP3    H123404   5.222   4.956   4.024
 7821TIP3    H223405   5.092   5.033   4.027
 7822TIP3   OH223406   7.008   5.386   4.064
 7822TIP3    H123407   7.010   5.291   4.074
 7822TIP3    H223408   6.924   5.412   4.102
 7823TIP3   OH223409   6.102   5.166   4.185
 7823TIP3    H123410   6.101   5.257   4.215
 7823TIP3    H223411   6.037   5.122   4.239
 7824TIP3   OH223412   5.885   5.271   3.146
 7824TIP3    H123413   5.839   5.254   3.064
 7824TIP3    H223414   5.851   5.356   3.175
 7825TIP3   OH223415   5.318   5.129   3.512
 7825TIP3    H123416   5.362   5.127   3.597
 7825TIP3    H223417   5.268   5.048   3.508
 7826TIP3   OH223418   6.086   5.199   2.770
 7826TIP3    H123419   6.137   5.126   2.735
 7826TIP3    H223420   6.120   5.213   2.858
 7827TIP3   OH223421   6.138   5.246   3.038
 7827TIP3    H123422   6.054   5.247   3.084
 7827TIP3    H223423   6.202   5.222   3.105
 7828TIP3   OH223424   6.897   4.498   4.349
 7828TIP3    H123425   6.818   4.515   4.297
 7828TIP3    H223426   6.914   4.405   4.338
 7829TIP3   OH223427   5.506   4.927   4.357
 7829TIP3    H123428   5.569   4.920   4.429
 7829TIP3    H223429   5.421   4.912   4.398
 7830TIP3   OH223430   5.891   3.734   4.141
 7830TIP3    H123431   5.807   3.702   4.108
 7830TIP3    H223432   5.870   3.815   4.188
 7831TIP3   OH223433   6.426   3.855   4.341
 7831TIP3    H123434   6.496   3.831   4.403
 7831TIP3    H223435   6.345   3.835   4.387
 7832TIP3   OH223436   6.651   4.275   4.257
 7832TIP3    H123437   6.610   4.270   4.344
 7832TIP3    H223438   6.643   4.367   4.233
 7833TIP3   OH223439   6.329   4.374   2.795
 7833TIP3    H123440   6.285   4.369   2.710
 7833TIP3    H223441   6.411   4.419   2.776
 7834TIP3   OH223442   6.037   3.777   3.112
 7834TIP3    H123443   6.008   3.778   3.204
 7834TIP3    H223444   5.998   3.697   3.076
 7835TIP3   OH223445   5.811   4.282   4.122
 7835TIP3    H123446   5.760   4.293   4.203
 7835TIP3    H223447   5.771   4.342   4.060
 7836TIP3   OH223448   6.182   4.207   3.377
 7836TIP3    H123449   6.145   4.288   3.343
 7836TIP3    H223450   6.250   4.184   3.314
 7837TIP3   OH223451   6.378   4.494   4.482
 7837TIP3    H123452   6.350   4.425   4.542
 7837TIP3    H223453   6.471   4.506   4.503
 7838TIP3   OH223454   5.674   4.262   4.366
 7838TIP3    H123455   5.739   4.309   4.418
 7838TIP3    H223456   5.654   4.184   4.418
 7839TIP3   OH223457   5.700   3.762   3.085
 7839TIP3    H123458   5.693   3.759   3.180
 7839TIP3    H223459   5.622   3.809   3.056
 7840TIP3   OH223460   5.258   3.810   3.963
 7840TIP3    H123461   5.330   3.837   4.019
 7840TIP3    H223462   5.296   3.807   3.875
 7841TIP3   OH223463   5.168   3.780   3.459
 7841TIP3    H123464   5.215   3.814   3.383
 7841TIP3    H223465   5.106   3.849   3.482
 7842TIP3   OH223466   6.444   4.471   4.062
 7842TIP3    H123467   6.448   4.400   3.998
 7842TIP3    H223468   6.384   4.438   4.130
 7843TIP3   OH223469   5.477   4.029   3.734
 7843TIP3    H123470   5.385   4.041   3.711
 7843TIP3    H223471   5.498   3.941   3.700
 7844TIP3   OH223472   5.713   3.992   3.418
 7844TIP3    H123473   5.803   4.025   3.413
 7844TIP3    H223474   5.670   4.029   3.341
 7845TIP3   OH223475   6.567   4.007   3.933
 7845TIP3    H123476   6.531   4.026   4.020
 7845TIP3    H223477   6.511   3.938   3.897
 7846TIP3   OH223478   5.589   4.056   3.180
 7846TIP3    H123479   5.528   4.005   3.127
 7846TIP3    H223480   5.647   4.097   3.117
 7847TIP3   OH223481   6.713   5.728   4.152
 7847TIP3    H123482   6.708   5.746   4.058
 7847TIP3    H223483   6.791   5.776   4.181
 7848TIP3   OH223484   5.666   4.879   4.576
 7848TIP3    H123485   5.747   4.881   4.627
 7848TIP3    H223486   5.598   4.862   4.640
 7849TIP3   OH223487   5.611   3.764   3.703
 7849TIP3    H123488   5.585   3.689   3.756
 7849TIP3    H223489   5.640   3.726   3.620
 7850TIP3   OH223490   6.075   4.192   4.149
 7850TIP3    H123491   5.990   4.231   4.127
 7850TIP3    H223492   6.131   4.267   4.168
 7851TIP3   OH223493   5.829   4.575   3.219
 7851TIP3    H123494   5.760   4.515   3.192
 7851TIP3    H223495   5.804   4.602   3.308
 7852TIP3   OH223496   6.743   4.887   3.762
 7852TIP3    H123497   6.786   4.913   3.680
 7852TIP3    H223498   6.659   4.934   3.759
 7853TIP3   OH223499   6.289   3.882   3.100
 7853TIP3    H123500   6.195   3.863   3.103
 7853TIP3    H223501   6.295   3.976   3.116
 7854TIP3   OH223502   6.210   4.893   4.174
 7854TIP3    H123503   6.242   4.876   4.262
 7854TIP3    H223504   6.171   4.980   4.178
 7855TIP3   OH223505   6.360   4.143   3.169
 7855TIP3    H123506   6.454   4.148   3.183
 7855TIP3    H223507   6.338   4.222   3.119
 7856TIP3   OH223508   5.979   4.728   3.047
 7856TIP3    H123509   5.932   4.811   3.046
 7856TIP3    H223510   5.928   4.672   3.106
 7857TIP3   OH223511   6.148   4.647   4.502
 7857TIP3    H123512   6.097   4.610   4.430
 7857TIP3    H223513   6.235   4.610   4.492
 7858TIP3   OH223514   6.376   5.170   4.113
 7858TIP3    H123515   6.281   5.166   4.121
 7858TIP3    H223516   6.405   5.218   4.191
 7859TIP3   OH223517   6.773   4.234   3.003
 7859TIP3    H123518   6.717   4.187   2.940
 7859TIP3    H223519   6.777   4.323   2.970
 7860TIP3   OH223520   7.024   5.097   4.082
 7860TIP3    H123521   6.929   5.089   4.075
 7860TIP3    H223522   7.057   5.070   3.996
 7861TIP3   OH223523   6.498   5.054   2.922
 7861TIP3    H123524   6.476   4.981   2.980
 7861TIP3    H223525   6.520   5.012   2.839
 7862TIP3   OH223526   5.618   4.907   3.512
 7862TIP3    H123527   5.630   4.983   3.456
 7862TIP3    H223528   5.527   4.912   3.542
 7863TIP3   OH223529   5.196   4.205   3.233
 7863TIP3    H123530   5.241   4.286   3.255
 7863TIP3    H223531   5.117   4.206   3.287
 7864TIP3   OH223532   5.710   4.646   3.461
 7864TIP3    H123533   5.684   4.738   3.473
 7864TIP3    H223534   5.627   4.599   3.453
 7865TIP3   OH223535   5.917   5.247   3.983
 7865TIP3    H123536   5.953   5.319   3.931
 7865TIP3    H223537   5.990   5.215   4.035
 7866TIP3   OH223538   5.555   5.146   3.371
 7866TIP3    H123539   5.467   5.152   3.410
 7866TIP3    H223540   5.590   5.235   3.377
 7867TIP3   OH223541   6.365   4.809   3.955
 7867TIP3    H123542   6.291   4.823   4.014
 7867TIP3    H223543   6.440   4.846   4.003
 7868TIP3   OH223544   6.268   4.785   2.832
 7868TIP3    H123545   6.315   4.769   2.915
 7868TIP3    H223546   6.182   4.747   2.846
 7869TIP3   OH223547   6.521   5.417   3.994
 7869TIP3    H123548   6.445   5.360   3.992
 7869TIP3    H223549   6.506   5.479   3.922
 7870TIP3   OH223550   6.591   5.256   2.636
 7870TIP3    H123551   6.633   5.328   2.590
 7870TIP3    H223552   6.512   5.294   2.675
 7871TIP3   OH223553   5.609   4.017   4.503
 7871TIP3    H123554   5.514   4.028   4.507
 7871TIP3    H223555   5.631   3.965   4.580
 7872TIP3   OH223556   6.441   4.736   3.051
 7872TIP3    H123557   6.425   4.658   3.104
 7872TIP3    H223558   6.534   4.733   3.030
 7873TIP3   OH223559   5.345   5.150   4.138
 7873TIP3    H123560   5.401   5.097   4.195
 7873TIP3    H223561   5.352   5.239   4.173
 7874TIP3   OH223562   5.619   4.750   2.830
 7874TIP3    H123563   5.630   4.659   2.803
 7874TIP3    H223564   5.599   4.746   2.923
 7875TIP3   OH223565   5.564   4.767   3.102
 7875TIP3    H123566   5.645   4.742   3.146
 7875TIP3    H223567   5.561   4.862   3.109
 7876TIP3   OH223568   5.287   4.456   3.314
 7876TIP3    H123569   5.221   4.502   3.366
 7876TIP3    H223570   5.306   4.516   3.242
 7877TIP3   OH223571   6.470   4.076   4.178
 7877TIP3    H123572   6.536   4.130   4.220
 7877TIP3    H223573   6.452   4.006   4.241
 7878TIP3   OH223574   6.344   3.826   3.370
 7878TIP3    H123575   6.323   3.846   3.278
 7878TIP3    H223576   6.388   3.905   3.402
 7879TIP3   OH223577   5.830   4.954   3.047
 7879TIP3    H123578   5.746   4.980   3.084
 7879TIP3    H223579   5.857   5.028   2.993
 7880TIP3   OH223580   5.994   4.024   3.446
 7880TIP3    H123581   6.062   4.085   3.415
 7880TIP3    H223582   5.993   4.037   3.541
 7881TIP3   OH223583   6.298   4.343   4.254
 7881TIP3    H123584   6.318   4.388   4.336
 7881TIP3    H223585   6.331   4.254   4.267
 7882TIP3   OH223586   6.178   3.731   3.569
 7882TIP3    H123587   6.208   3.779   3.646
 7882TIP3    H223588   6.233   3.765   3.498
 7883TIP3   OH223589   5.579   5.039   3.120
 7883TIP3    H123590   5.557   5.109   3.058
 7883TIP3    H223591   5.568   5.079   3.206
 7884TIP3   OH223592   5.684   3.728   3.363
 7884TIP3    H123593   5.675   3.819   3.392
 7884TIP3    H223594   5.778   3.709   3.370
 7885TIP3   OH223595   6.920   4.233   4.251
 7885TIP3    H123596   6.824   4.231   4.256
 7885TIP3    H223597   6.940   4.197   4.165
 7886TIP3   OH223598   6.604   4.395   3.631
 7886TIP3    H123599   6.559   4.313   3.651
 7886TIP3    H223600   6.688   4.387   3.675
 7887TIP3   OH223601   5.313   4.639   3.103
 7887TIP3    H123602   5.383   4.704   3.112
 7887TIP3    H223603   5.346   4.576   3.039
 7888TIP3   OH223604   5.227   3.927   3.234
 7888TIP3    H123605   5.243   4.021   3.242
 7888TIP3    H223606   5.159   3.920   3.167
 7889TIP3   OH223607   6.555   5.402   3.583
 7889TIP3    H123608   6.508   5.437   3.508
 7889TIP3    H223609   6.647   5.418   3.564
 7890TIP3   OH223610   5.632   3.642   4.100
 7890TIP3    H123611   5.602   3.613   4.014
 7890TIP3    H223612   5.621   3.566   4.156
 7891TIP3   OH223613   5.150   4.896   3.496
 7891TIP3    H123614   5.109   4.936   3.572
 7891TIP3    H223615   5.108   4.939   3.421
 7892TIP3   OH223616   5.339   5.443   4.557
 7892TIP3    H123617   5.418   5.453   4.609
 7892TIP3    H223618   5.329   5.349   4.545
 7893TIP3   OH223619   5.797   5.361   4.619
 7893TIP3    H123620   5.892   5.373   4.621
 7893TIP3    H223621   5.782   5.301   4.547
 7894TIP3   OH223622   5.777   4.952   2.727
 7894TIP3    H123623   5.730   4.881   2.770
 7894TIP3    H223624   5.852   4.909   2.686
 7895TIP3   OH223625   6.436   5.291   4.353
 7895TIP3    H123626   6.446   5.223   4.420
 7895TIP3    H223627   6.510   5.350   4.369
 7896TIP3   OH223628   6.218   4.989   2.651
 7896TIP3    H123629   6.252   4.926   2.714
 7896TIP3    H223630   6.278   4.984   2.577
 7897TIP3   OH223631   5.449   4.839   4.749
 7897TIP3    H123632   5.483   4.750   4.757
 7897TIP3    H223633   5.366   4.830   4.704
 7898TIP3   OH223634   5.443   4.451   2.954
 7898TIP3    H123635   5.496   4.428   3.030
 7898TIP3    H223636   5.506   4.462   2.882
 7899TIP3   OH223637   6.069   4.919   4.531
 7899TIP3    H123638   6.023   4.940   4.450
 7899TIP3    H223639   6.105   4.831   4.516
 7900TIP3   OH223640   5.995   4.670   2.779
 7900TIP3    H123641   5.977   4.683   2.872
 7900TIP3    H223642   5.982   4.577   2.765
 7901TIP3   OH223643   6.547   4.948   4.118
 7901TIP3    H123644   6.627   4.984   4.081
 7901TIP3    H223645   6.486   5.022   4.120
 7902TIP3   OH223646   5.589   4.603   4.760
 7902TIP3    H123647   5.629   4.520   4.734
 7902TIP3    H223648   5.619   4.618   4.849
 7903TIP3   OH223649   5.628   4.395   3.156
 7903TIP3    H123650   5.600   4.369   3.244
 7903TIP3    H223651   5.669   4.317   3.120
 7904TIP3   OH223652   5.889   4.440   4.417
 7904TIP3    H123653   5.846   4.521   4.443
 7904TIP3    H223654   5.946   4.466   4.344
 7905TIP3   OH223655   5.753   4.194   3.008
 7905TIP3    H123656   5.724   4.199   2.917
 7905TIP3    H223657   5.848   4.199   3.004
 7906TIP3   OH223658   6.432   4.844   4.524
 7906TIP3    H123659   6.497   4.803   4.466
 7906TIP3    H223660   6.428   4.785   4.599
 7907TIP3   OH223661   6.553   4.497   2.687
 7907TIP3    H123662   6.540   4.453   2.603
 7907TIP3    H223663   6.527   4.587   2.672
 7908TIP3   OH223664   6.035   4.234   4.530
 7908TIP3    H123665   6.034   4.156   4.476
 7908TIP3    H223666   5.989   4.300   4.478
 7909TIP3   OH223667   6.036   4.017   4.353
 7909TIP3    H123668   6.059   4.068   4.275
 7909TIP3    H223669   5.946   3.989   4.338
 7910TIP3   OH223670   6.056   4.559   4.239
 7910TIP3    H123671   6.122   4.536   4.173
 7910TIP3    H223672   6.001   4.624   4.197
 7911TIP3   OH223673   6.644   4.524   4.578
 7911TIP3    H123674   6.688   4.439   4.582
 7911TIP3    H223675   6.714   4.586   4.560
 7912TIP3   OH223676   6.675   4.798   4.311
 7912TIP3    H123677   6.619   4.852   4.255
 7912TIP3    H223678   6.764   4.817   4.280
 7913TIP3   OH223679   5.916   4.324   4.770
 7913TIP3    H123680   5.845   4.262   4.789
 7913TIP3    H223681   5.946   4.299   4.682
 7914TIP3   OH223682   6.166   3.785   4.421
 7914TIP3    H123683   6.123   3.867   4.397
 7914TIP3    H223684   6.099   3.718   4.408
 7915TIP3   OH223685   6.291   4.278   4.627
 7915TIP3    H123686   6.279   4.266   4.721
 7915TIP3    H223687   6.205   4.258   4.589
 7916TIP3   OH223688   6.534   4.231   4.495
 7916TIP3    H123689   6.455   4.232   4.550
 7916TIP3    H223690   6.604   4.205   4.555
 7917TIP3   OH223691   6.769   4.191   4.645
 7917TIP3    H123692   6.780   4.096   4.653
 7917TIP3    H223693   6.762   4.222   4.735
 7918TIP3   OH223694   5.750   4.103   4.829
 7918TIP3    H123695   5.754   4.014   4.794
 7918TIP3    H223696   5.787   4.096   4.917
 7919TIP3   OH223697   6.236   3.782   4.687
 7919TIP3    H123698   6.305   3.716   4.682
 7919TIP3    H223699   6.202   3.788   4.598
 7920TIP3   OH223700   6.324   4.000   4.830
 7920TIP3    H123701   6.295   3.928   4.774
 7920TIP3    H223702   6.251   4.062   4.830
 7921TIP3   OH223703   5.570   5.244   2.934
 7921TIP3    H123704   5.661   5.227   2.910
 7921TIP3    H223705   5.534   5.292   2.859
 7922TIP3   OH223706   5.039   4.625   3.125
 7922TIP3    H123707   5.134   4.640   3.119
 7922TIP3    H223708   5.026   4.539   3.086
 7923TIP3   OH223709   4.943   5.219   3.569
 7923TIP3    H123710   4.878   5.164   3.525
 7923TIP3    H223711   4.991   5.159   3.626
 7924TIP3   OH223712   5.097   5.059   3.731
 7924TIP3    H123713   5.089   4.995   3.802
 7924TIP3    H223714   5.144   5.132   3.770
 7925TIP3   OH223715   6.807   5.506   3.545
 7925TIP3    H123716   6.846   5.514   3.633
 7925TIP3    H223717   6.881   5.508   3.485
 7926TIP3   OH223718   6.851   5.499   3.829
 7926TIP3    H123719   6.804   5.415   3.829
 7926TIP3    H223720   6.934   5.479   3.873
 7927TIP3   OH223721   6.897   5.178   4.410
 7927TIP3    H123722   6.824   5.188   4.471
 7927TIP3    H223723   6.941   5.263   4.410
 7928TIP3   OH223724   6.716   4.701   3.019
 7928TIP3    H123725   6.775   4.770   2.987
 7928TIP3    H223726   6.762   4.662   3.093
 7929TIP3   OH223727   6.848   4.557   3.218
 7929TIP3    H123728   6.782   4.519   3.277
 7929TIP3    H223729   6.911   4.599   3.276
 7930TIP3   OH223730   6.709   5.262   3.855
 7930TIP3    H123731   6.635   5.307   3.897
 7930TIP3    H223732   6.671   5.223   3.776
 7931TIP3   OH223733   6.759   4.474   2.867
 7931TIP3    H123734   6.689   4.474   2.803
 7931TIP3    H223735   6.743   4.552   2.921
 7932TIP3   OH223736   6.619   4.124   2.805
 7932TIP3    H123737   6.571   4.162   2.732
 7932TIP3    H223738   6.608   4.029   2.795
 7933TIP3   OH223739   6.645   4.411   3.355
 7933TIP3    H123740   6.653   4.318   3.333
 7933TIP3    H223741   6.633   4.412   3.450
 7934TIP3   OH223742   6.933   4.841   4.218
 7934TIP3    H123743   6.996   4.770   4.202
 7934TIP3    H223744   6.957   4.909   4.155
 7935TIP3   OH223745   7.102   4.624   4.218
 7935TIP3    H123746   7.030   4.583   4.266
 7935TIP3    H223747   7.178   4.568   4.236
 7936TIP3   OH223748   6.576   3.853   2.778
 7936TIP3    H123749   6.640   3.827   2.845
 7936TIP3    H223750   6.494   3.812   2.807
 7937TIP3   OH223751   6.646   4.143   3.240
 7937TIP3    H123752   6.688   4.058   3.256
 7937TIP3    H223753   6.691   4.178   3.163
 7938TIP3   OH223754   6.822   4.305   3.774
 7938TIP3    H123755   6.901   4.329   3.725
 7938TIP3    H223756   6.834   4.346   3.859
 7939TIP3   OH223757   6.876   4.462   3.999
 7939TIP3    H123758   6.808   4.486   4.062
 7939TIP3    H223759   6.897   4.543   3.954
 7940TIP3   OH223760   5.484   4.154   4.766
 7940TIP3    H123761   5.578   4.155   4.785
 7940TIP3    H223762   5.453   4.074   4.809
 7941TIP3   OH223763   7.338   4.053   4.537
 7941TIP3    H123764   7.397   3.994   4.491
 7941TIP3    H223765   7.293   4.100   4.467
 7942TIP3   OH223766   6.755   3.889   3.292
 7942TIP3    H123767   6.798   3.874   3.376
 7942TIP3    H223768   6.690   3.819   3.286
 7943TIP3   OH223769   5.464   3.858   4.147
 7943TIP3    H123770   5.521   3.782   4.140
 7943TIP3    H223771   5.521   3.932   4.126
 7944TIP3   OH223772   7.178   4.166   4.350
 7944TIP3    H123773   7.097   4.208   4.377
 7944TIP3    H223774   7.150   4.097   4.290
 7945TIP3   OH223775   6.806   3.807   2.933
 7945TIP3    H123776   6.851   3.745   2.877
 7945TIP3    H223777   6.863   3.884   2.936
 7946TIP3   OH223778   5.223   3.633   3.683
 7946TIP3    H123779   5.137   3.630   3.724
 7946TIP3    H223780   5.213   3.694   3.610
 7947TIP3   OH223781   6.378   5.355   3.195
 7947TIP3    H123782   6.439   5.349   3.122
 7947TIP3    H223783   6.418   5.418   3.255
 7948TIP3   OH223784   5.453   3.695   4.515
 7948TIP3    H123785   5.406   3.692   4.598
 7948TIP3    H223786   5.393   3.738   4.454
 7949TIP3   OH223787   5.479   5.166   4.570
 7949TIP3    H123788   5.386   5.144   4.572
 7949TIP3    H223789   5.508   5.156   4.660
 7950TIP3   OH223790   5.687   5.193   4.126
 7950TIP3    H123791   5.635   5.267   4.096
 7950TIP3    H223792   5.773   5.206   4.086
 7951TIP3   OH223793   6.100   5.435   4.264
 7951TIP3    H123794   6.137   5.429   4.352
 7951TIP3    H223795   6.163   5.488   4.215
 7952TIP3   OH223796   6.290   5.591   4.137
 7952TIP3    H123797   6.357   5.541   4.090
 7952TIP3    H223798   6.340   5.650   4.194
 7953TIP3   OH223799   7.084   3.927   4.228
 7953TIP3    H123800   6.999   3.924   4.184
 7953TIP3    H223801   7.118   3.837   4.219
 7954TIP3   OH223802   5.347   5.440   4.175
 7954TIP3    H123803   5.256   5.460   4.151
 7954TIP3    H223804   5.370   5.508   4.239
 7955TIP3   OH223805   5.581   5.429   4.025
 7955TIP3    H123806   5.497   5.437   4.070
 7955TIP3    H223807   5.562   5.458   3.936
 7956TIP3   OH223808   6.001   5.454   3.816
 7956TIP3    H123809   5.933   5.469   3.751
 7956TIP3    H223810   6.012   5.539   3.859
 7957TIP3   OH223811   6.268   5.394   3.861
 7957TIP3    H123812   6.177   5.415   3.844
 7957TIP3    H223813   6.317   5.463   3.817
 7958TIP3   OH223814   6.469   5.575   3.773
 7958TIP3    H123815   6.465   5.661   3.730
 7958TIP3    H223816   6.500   5.516   3.705
 7959TIP3   OH223817   5.262   5.239   3.886
 7959TIP3    H123818   5.281   5.209   3.975
 7959TIP3    H223819   5.335   5.205   3.833
 7960TIP3   OH223820   5.464   5.123   3.745
 7960TIP3    H123821   5.472   5.043   3.797
 7960TIP3    H223822   5.550   5.165   3.752
 7961TIP3   OH223823   5.728   5.217   3.777
 7961TIP3    H123824   5.750   5.126   3.756
 7961TIP3    H223825   5.779   5.237   3.854
 7962TIP3   OH223826   6.283   3.824   3.811
 7962TIP3    H123827   6.252   3.771   3.885
 7962TIP3    H223828   6.369   3.788   3.791
 7963TIP3   OH223829   6.810   3.756   3.756
 7963TIP3    H123830   6.845   3.802   3.680
 7963TIP3    H223831   6.716   3.769   3.751
 7964TIP3   OH223832   6.912   3.836   3.515
 7964TIP3    H123833   6.981   3.776   3.485
 7964TIP3    H223834   6.949   3.923   3.502
 7965TIP3   OH223835   5.540   3.543   3.858
 7965TIP3    H123836   5.449   3.513   3.867
 7965TIP3    H223837   5.591   3.463   3.851
 7966TIP3   OH223838   5.346   3.444   3.511
 7966TIP3    H123839   5.375   3.497   3.437
 7966TIP3    H223840   5.311   3.507   3.574
 7967TIP3   OH223841   6.009   3.590   3.750
 7967TIP3    H123842   6.054   3.643   3.684
 7967TIP3    H223843   6.040   3.625   3.834
 7968TIP3   OH223844   6.532   3.731   3.731
 7968TIP3    H123845   6.540   3.698   3.641
 7968TIP3    H223846   6.529   3.653   3.785
 7969TIP3   OH223847   6.568   3.678   3.297
 7969TIP3    H123848   6.487   3.725   3.318
 7969TIP3    H223849   6.556   3.591   3.336
 7970TIP3   OH223850   5.034   5.021   3.281
 7970TIP3    H123851   4.949   4.988   3.251
 7970TIP3    H223852   5.037   5.112   3.250
 7971TIP3   OH223853   5.460   3.581   3.277
 7971TIP3    H123854   5.504   3.520   3.218
 7971TIP3    H223855   5.530   3.634   3.314
 7972TIP3   OH223856   5.963   3.762   3.379
 7972TIP3    H123857   6.024   3.724   3.443
 7972TIP3    H223858   5.965   3.856   3.397
 7973TIP3   OH223859   5.830   5.178   2.873
 7973TIP3    H123860   5.914   5.205   2.836
 7973TIP3    H223861   5.802   5.106   2.817
 7974TIP3   OH223862   6.537   5.321   2.968
 7974TIP3    H123863   6.529   5.226   2.959
 7974TIP3    H223864   6.493   5.356   2.890
 7975TIP3   OH223865   5.757   3.830   4.746
 7975TIP3    H123866   5.721   3.763   4.804
 7975TIP3    H223867   5.849   3.836   4.771
 7976TIP3   OH223868   6.007   3.836   4.867
 7976TIP3    H123869   6.087   3.813   4.818
 7976TIP3    H223870   5.998   3.767   4.933
 7977TIP3   OH223871   5.131   5.021   2.927
 7977TIP3    H123872   5.134   5.035   3.022
 7977TIP3    H223873   5.213   4.975   2.908
 7978TIP3   OH223874   6.832   3.919   4.656
 7978TIP3    H123875   6.848   3.890   4.746
 7978TIP3    H223876   6.917   3.913   4.613
 7979TIP3   OH223877   6.752   5.454   4.155
 7979TIP3    H123878   6.676   5.426   4.104
 7979TIP3    H223879   6.742   5.549   4.163
 7980TIP3   OH223880   7.988   4.853   2.934
 7980TIP3    H123881   7.962   4.939   2.902
 7980TIP3    H223882   7.918   4.794   2.903
 7981TIP3   OH223883   7.998   4.830   3.315
 7981TIP3    H123884   8.075   4.803   3.365
 7981TIP3    H223885   7.954   4.748   3.294
 7982TIP3   OH223886   7.334   4.719   3.680
 7982TIP3    H123887   7.367   4.657   3.746
 7982TIP3    H223888   7.410   4.738   3.625
 7983TIP3   OH223889   8.308   5.123   2.973
 7983TIP3    H123890   8.268   5.075   3.045
 7983TIP3    H223891   8.297   5.216   2.996
 7984TIP3   OH223892   7.318   5.130   3.364
 7984TIP3    H123893   7.298   5.037   3.372
 7984TIP3    H223894   7.412   5.134   3.350
 7985TIP3   OH223895   7.000   4.327   3.148
 7985TIP3    H123896   6.965   4.413   3.172
 7985TIP3    H223897   6.928   4.282   3.106
 7986TIP3   OH223898   7.074   4.646   3.362
 7986TIP3    H123899   7.127   4.570   3.386
 7986TIP3    H223900   7.138   4.714   3.341
 7987TIP3   OH223901   7.944   5.581   3.009
 7987TIP3    H123902   7.974   5.509   2.953
 7987TIP3    H223903   7.933   5.540   3.095
 7988TIP3   OH223904   7.814   5.048   3.330
 7988TIP3    H123905   7.857   4.965   3.308
 7988TIP3    H223906   7.886   5.106   3.356
 7989TIP3   OH223907   7.567   4.210   3.332
 7989TIP3    H123908   7.550   4.283   3.273
 7989TIP3    H223909   7.518   4.137   3.295
 7990TIP3   OH223910   8.224   4.281   3.004
 7990TIP3    H123911   8.299   4.251   3.055
 7990TIP3    H223912   8.261   4.340   2.938
 7991TIP3   OH223913   7.218   4.421   3.444
 7991TIP3    H123914   7.298   4.401   3.491
 7991TIP3    H223915   7.224   4.370   3.363
 7992TIP3   OH223916   7.638   4.616   3.266
 7992TIP3    H123917   7.732   4.599   3.274
 7992TIP3    H223918   7.603   4.535   3.230
 7993TIP3   OH223919   7.568   4.210   3.779
 7993TIP3    H123920   7.517   4.246   3.707
 7993TIP3    H223921   7.515   4.227   3.857
 7994TIP3   OH223922   7.924   5.066   2.767
 7994TIP3    H123923   7.888   5.033   2.684
 7994TIP3    H223924   7.866   5.138   2.791
 7995TIP3   OH223925   7.676   4.977   3.558
 7995TIP3    H123926   7.623   5.048   3.593
 7995TIP3    H223927   7.722   5.015   3.483
 7996TIP3   OH223928   8.498   4.333   3.160
 7996TIP3    H123929   8.519   4.310   3.250
 7996TIP3    H223930   8.494   4.429   3.160
 7997TIP3   OH223931   7.449   4.313   3.555
 7997TIP3    H123932   7.503   4.390   3.576
 7997TIP3    H223933   7.494   4.272   3.481
 7998TIP3   OH223934   7.516   5.182   3.654
 7998TIP3    H123935   7.498   5.269   3.619
 7998TIP3    H223936   7.441   5.163   3.711
 7999TIP3   OH223937   6.893   4.885   2.900
 7999TIP3    H123938   6.858   4.911   2.815
 7999TIP3    H223939   6.919   4.967   2.942
 8000TIP3   OH223940   8.225   5.378   3.028
 8000TIP3    H123941   8.181   5.376   3.112
 8000TIP3    H223942   8.278   5.457   3.030
 8001TIP3   OH223943   7.894   3.904   3.506
 8001TIP3    H123944   7.890   3.811   3.531
 8001TIP3    H223945   7.815   3.942   3.545
 8002TIP3   OH223946   8.028   5.423   2.790
 8002TIP3    H123947   8.089   5.349   2.793
 8002TIP3    H223948   8.085   5.499   2.773
 8003TIP3   OH223949   8.170   5.190   2.744
 8003TIP3    H123950   8.092   5.134   2.747
 8003TIP3    H223951   8.216   5.172   2.825
 8004TIP3   OH223952   8.571   5.324   3.401
 8004TIP3    H123953   8.510   5.256   3.372
 8004TIP3    H223954   8.520   5.405   3.394
 8005TIP3   OH223955   7.827   4.699   2.761
 8005TIP3    H123956   7.747   4.746   2.740
 8005TIP3    H223957   7.872   4.688   2.676
 8006TIP3   OH223958   7.798   4.460   2.453
 8006TIP3    H123959   7.863   4.518   2.494
 8006TIP3    H223960   7.850   4.392   2.411
 8007TIP3   OH223961   8.136   4.810   2.705
 8007TIP3    H123962   8.083   4.830   2.783
 8007TIP3    H223963   8.220   4.781   2.740
 8008TIP3   OH223964   8.392   4.769   3.711
 8008TIP3    H123965   8.354   4.846   3.754
 8008TIP3    H223966   8.349   4.765   3.626
 8009TIP3   OH223967   7.443   4.754   3.122
 8009TIP3    H123968   7.408   4.694   3.057
 8009TIP3    H223969   7.515   4.705   3.162
 8010TIP3   OH223970   7.575   5.176   3.256
 8010TIP3    H123971   7.554   5.158   3.165
 8010TIP3    H223972   7.658   5.132   3.272
 8011TIP3   OH223973   7.543   4.748   3.492
 8011TIP3    H123974   7.582   4.714   3.411
 8011TIP3    H223975   7.594   4.826   3.512
 8012TIP3   OH223976   8.119   5.390   3.276
 8012TIP3    H123977   8.089   5.468   3.323
 8012TIP3    H223978   8.089   5.317   3.329
 8013TIP3   OH223979   7.710   5.300   3.815
 8013TIP3    H123980   7.647   5.355   3.861
 8013TIP3    H223981   7.656   5.241   3.762
 8014TIP3   OH223982   7.989   4.647   2.541
 8014TIP3    H123983   8.046   4.709   2.586
 8014TIP3    H223984   8.018   4.649   2.450
 8015TIP3   OH223985   7.466   4.841   3.977
 8015TIP3    H123986   7.468   4.936   3.986
 8015TIP3    H223987   7.375   4.821   3.953
 8016TIP3   OH223988   7.784   5.300   2.809
 8016TIP3    H123989   7.865   5.351   2.810
 8016TIP3    H223990   7.721   5.357   2.764
 8017TIP3   OH223991   7.499   5.453   3.901
 8017TIP3    H123992   7.472   5.458   3.809
 8017TIP3    H223993   7.419   5.432   3.949
 8018TIP3   OH223994   7.315   4.598   2.919
 8018TIP3    H123995   7.239   4.645   2.887
 8018TIP3    H223996   7.282   4.512   2.944
 8019TIP3   OH223997   8.496   5.259   1.977
 8019TIP3    H123998   8.433   5.229   2.043
 8019TIP3    H223999   8.581   5.231   2.010
 8020TIP3   OH224000   7.103   4.992   3.839
 8020TIP3    H124001   7.064   4.969   3.755
 8020TIP3    H224002   7.137   4.910   3.874
 8021TIP3   OH224003   0.128   5.593   3.512
 8021TIP3    H124004   0.201   5.537   3.538
 8021TIP3    H224005   0.110   5.646   3.590
 8022TIP3   OH224006   7.893   5.436   3.668
 8022TIP3    H124007   7.892   5.526   3.700
 8022TIP3    H224008   7.830   5.389   3.723
 8023TIP3   OH224009   7.675   5.537   2.627
 8023TIP3    H124010   7.622   5.517   2.550
 8023TIP3    H224011   7.642   5.622   2.657
 8024TIP3   OH224012   7.116   5.381   3.012
 8024TIP3    H124013   7.157   5.377   3.098
 8024TIP3    H224014   7.067   5.299   3.005
 8025TIP3   OH224015   7.871   5.473   2.266
 8025TIP3    H124016   7.917   5.400   2.225
 8025TIP3    H224017   7.907   5.477   2.355
 8026TIP3   OH224018   7.928   5.498   2.535
 8026TIP3    H124019   7.840   5.507   2.571
 8026TIP3    H224020   7.978   5.457   2.605
 8027TIP3   OH224021   0.034   4.793   3.852
 8027TIP3    H124022  -0.053   4.796   3.812
 8027TIP3    H224023   0.052   4.700   3.866
 8028TIP3   OH224024   7.307   5.178   3.831
 8028TIP3    H124025   7.353   5.166   3.914
 8028TIP3    H224026   7.233   5.118   3.835
 8029TIP3   OH224027   7.665   3.998   3.627
 8029TIP3    H124028   7.579   3.970   3.595
 8029TIP3    H224029   7.647   4.079   3.674
 8030TIP3   OH224030   8.147   4.121   3.849
 8030TIP3    H124031   8.212   4.119   3.919
 8030TIP3    H224032   8.065   4.099   3.892
 8031TIP3   OH224033   8.540   4.538   3.844
 8031TIP3    H124034   8.457   4.518   3.887
 8031TIP3    H224035   8.516   4.564   3.755
 8032TIP3   OH224036   8.039   4.565   2.270
 8032TIP3    H124037   8.034   4.581   2.176
 8032TIP3    H224038   8.122   4.603   2.298
 8033TIP3   OH224039   7.821   4.029   2.606
 8033TIP3    H124040   7.789   4.031   2.696
 8033TIP3    H224041   7.779   3.952   2.567
 8034TIP3   OH224042   7.605   4.522   3.634
 8034TIP3    H124043   7.566   4.536   3.720
 8034TIP3    H224044   7.589   4.603   3.587
 8035TIP3   OH224045   7.495   4.405   3.155
 8035TIP3    H124046   7.405   4.381   3.177
 8035TIP3    H224047   7.509   4.369   3.068
 8036TIP3   OH224048   7.959   4.488   2.874
 8036TIP3    H124049   7.910   4.564   2.843
 8036TIP3    H224050   8.012   4.461   2.799
 8037TIP3   OH224051   8.164   4.746   3.955
 8037TIP3    H124052   8.135   4.678   4.015
 8037TIP3    H224053   8.256   4.758   3.974
 8038TIP3   OH224054   8.094   4.504   3.112
 8038TIP3    H124055   8.038   4.514   3.035
 8038TIP3    H224056   8.139   4.421   3.098
 8039TIP3   OH224057   7.444   4.532   3.861
 8039TIP3    H124058   7.511   4.579   3.910
 8039TIP3    H224059   7.427   4.453   3.913
 8040TIP3   OH224060   7.491   4.013   2.571
 8040TIP3    H124061   7.483   4.018   2.667
 8040TIP3    H224062   7.416   4.062   2.539
 8041TIP3   OH224063   7.041   4.060   3.443
 8041TIP3    H124064   7.110   4.098   3.497
 8041TIP3    H224065   7.082   4.049   3.357
 8042TIP3   OH224066   6.965   4.038   2.946
 8042TIP3    H124067   7.010   4.073   2.869
 8042TIP3    H224068   6.903   4.107   2.970
 8043TIP3   OH224069   7.814   4.230   3.203
 8043TIP3    H124070   7.737   4.224   3.259
 8043TIP3    H224071   7.886   4.199   3.257
 8044TIP3   OH224072   7.261   4.274   3.216
 8044TIP3    H124073   7.172   4.279   3.182
 8044TIP3    H224074   7.290   4.185   3.197
 8045TIP3   OH224075   7.512   4.275   2.915
 8045TIP3    H124076   7.606   4.287   2.900
 8045TIP3    H224077   7.472   4.294   2.830
 8046TIP3   OH224078   8.299   4.313   3.441
 8046TIP3    H124079   8.214   4.344   3.472
 8046TIP3    H224080   8.279   4.234   3.391
 8047TIP3   OH224081   7.387   4.298   2.674
 8047TIP3    H124082   7.322   4.250   2.621
 8047TIP3    H224083   7.438   4.347   2.610
 8048TIP3   OH224084   8.470   6.009   3.634
 8048TIP3    H124085   8.460   6.029   3.541
 8048TIP3    H224086   8.548   6.059   3.661
 8049TIP3   OH224087   7.449   5.103   4.065
 8049TIP3    H124088   7.532   5.124   4.108
 8049TIP3    H224089   7.383   5.112   4.134
 8050TIP3   OH224090   7.905   4.563   3.310
 8050TIP3    H124091   7.977   4.532   3.255
 8050TIP3    H224092   7.912   4.513   3.391
 8051TIP3   OH224093   7.404   4.027   3.199
 8051TIP3    H124094   7.375   3.951   3.250
 8051TIP3    H224095   7.438   3.991   3.118
 8052TIP3   OH224096   7.864   4.455   3.573
 8052TIP3    H124097   7.774   4.480   3.594
 8052TIP3    H224098   7.918   4.511   3.629
 8053TIP3   OH224099   7.598   4.840   2.690
 8053TIP3    H124100   7.528   4.776   2.673
 8053TIP3    H224101   7.579   4.873   2.778
 8054TIP3   OH224102   8.412   5.112   3.338
 8054TIP3    H124103   8.479   5.077   3.280
 8054TIP3    H224104   8.330   5.074   3.305
 8055TIP3   OH224105   8.053   4.161   2.575
 8055TIP3    H124106   7.963   4.130   2.588
 8055TIP3    H224107   8.050   4.254   2.599
 8056TIP3   OH224108   7.964   5.144   3.733
 8056TIP3    H124109   8.059   5.144   3.716
 8056TIP3    H224110   7.936   5.231   3.705
 8057TIP3   OH224111   8.108   4.420   2.653
 8057TIP3    H124112   8.196   4.434   2.688
 8057TIP3    H224113   8.089   4.499   2.601
 8058TIP3   OH224114   7.308   4.832   3.351
 8058TIP3    H124115   7.346   4.817   3.265
 8058TIP3    H224116   7.375   4.805   3.413
 8059TIP3   OH224117   7.772   4.989   2.543
 8059TIP3    H124118   7.728   5.073   2.540
 8059TIP3    H224119   7.712   4.932   2.592
 8060TIP3   OH224120   7.189   4.777   3.991
 8060TIP3    H124121   7.206   4.753   4.081
 8060TIP3    H224122   7.116   4.720   3.965
 8061TIP3   OH224123   7.939   4.902   3.997
 8061TIP3    H124124   7.889   4.894   3.916
 8061TIP3    H224125   8.023   4.861   3.978
 8062TIP3   OH224126   8.161   5.450   3.592
 8062TIP3    H124127   8.066   5.446   3.602
 8062TIP3    H224128   8.192   5.486   3.675
 8063TIP3   OH224129   0.213   5.324   3.518
 8063TIP3    H124130   0.123   5.344   3.491
 8063TIP3    H224131   0.238   5.250   3.463
 8064TIP3   OH224132   8.200   5.290   2.482
 8064TIP3    H124133   8.189   5.249   2.567
 8064TIP3    H224134   8.160   5.229   2.420
 8065TIP3   OH224135   8.202   4.987   3.202
 8065TIP3    H124136   8.116   4.948   3.221
 8065TIP3    H224137   8.254   4.914   3.169
 8066TIP3   OH224138   7.427   5.176   3.009
 8066TIP3    H124139   7.422   5.252   2.952
 8066TIP3    H224140   7.339   5.166   3.045
 8067TIP3   OH224141   6.994   4.464   2.721
 8067TIP3    H124142   7.039   4.546   2.741
 8067TIP3    H224143   6.915   4.465   2.775
 8068TIP3   OH224144   7.534   4.934   2.932
 8068TIP3    H124145   7.506   5.022   2.956
 8068TIP3    H224146   7.506   4.879   3.006
 8069TIP3   OH224147   7.707   5.502   3.467
 8069TIP3    H124148   7.744   5.575   3.418
 8069TIP3    H224149   7.780   5.470   3.522
 8070TIP3   OH224150   7.345   5.403   2.859
 8070TIP3    H124151   7.260   5.407   2.903
 8070TIP3    H224152   7.379   5.493   2.864
 8071TIP3   OH224153   8.057   5.153   3.405
 8071TIP3    H124154   8.093   5.142   3.493
 8071TIP3    H224155   8.113   5.098   3.349
 8072TIP3   OH224156   8.019   5.056   2.286
 8072TIP3    H124157   8.064   5.031   2.367
 8072TIP3    H224158   7.949   4.992   2.277
 8073TIP3   OH224159   8.275   5.712   3.522
 8073TIP3    H124160   8.211   5.642   3.514
 8073TIP3    H224161   8.277   5.753   3.435
 8074TIP3   OH224162   8.394   5.503   2.194
 8074TIP3    H124163   8.466   5.552   2.153
 8074TIP3    H224164   8.322   5.566   2.199
 8075TIP3   OH224165   7.397   4.274   3.988
 8075TIP3    H124166   7.303   4.291   3.989
 8075TIP3    H224167   7.408   4.199   4.046
 8076TIP3   OH224168   8.164   4.992   2.501
 8076TIP3    H124169   8.149   4.932   2.573
 8076TIP3    H224170   8.256   4.980   2.478
 8077TIP3   OH224171   7.131   5.370   3.627
 8077TIP3    H124172   7.104   5.279   3.615
 8077TIP3    H224173   7.208   5.364   3.684
 8078TIP3   OH224174   7.406   5.013   2.320
 8078TIP3    H124175   7.422   4.922   2.294
 8078TIP3    H224176   7.392   5.008   2.415
 8079TIP3   OH224177   7.358   5.023   2.593
 8079TIP3    H124178   7.433   4.993   2.644
 8079TIP3    H224179   7.359   5.118   2.603
 8080TIP3   OH224180   7.091   4.714   2.802
 8080TIP3    H124181   7.026   4.760   2.855
 8080TIP3    H224182   7.110   4.774   2.730
 8081TIP3   OH224183   8.121   4.356   3.701
 8081TIP3    H124184   8.207   4.394   3.687
 8081TIP3    H224185   8.138   4.274   3.748
 8082TIP3   OH224186   8.105   4.084   2.845
 8082TIP3    H124187   8.097   4.113   2.754
 8082TIP3    H224188   8.147   4.158   2.890
 8083TIP3   OH224189   7.627   5.217   2.536
 8083TIP3    H124190   7.541   5.238   2.572
 8083TIP3    H224191   7.648   5.291   2.479
 8084TIP3   OH224192   7.789   4.286   2.938
 8084TIP3    H124193   7.849   4.356   2.915
 8084TIP3    H224194   7.799   4.276   3.032
 8085TIP3   OH224195   8.018   4.607   3.755
 8085TIP3    H124196   8.073   4.659   3.813
 8085TIP3    H224197   8.064   4.523   3.746
 8086TIP3   OH224198   7.953   3.991   3.052
 8086TIP3    H124199   7.951   4.061   3.117
 8086TIP3    H224200   8.001   4.028   2.978
 8087TIP3   OH224201   7.374   5.297   2.608
 8087TIP3    H124202   7.349   5.366   2.547
 8087TIP3    H224203   7.361   5.335   2.694
 8088TIP3   OH224204   7.468   4.004   2.851
 8088TIP3    H124205   7.457   4.094   2.880
 8088TIP3    H224206   7.562   3.987   2.859
 8089TIP3   OH224207   8.270   4.721   3.124
 8089TIP3    H124208   8.201   4.659   3.102
 8089TIP3    H224209   8.266   4.728   3.220
 8090TIP3   OH224210   7.109   4.898   2.589
 8090TIP3    H124211   7.180   4.961   2.600
 8090TIP3    H224212   7.142   4.835   2.526
 8091TIP3   OH224213   7.024   4.186   2.722
 8091TIP3    H124214   7.037   4.281   2.730
 8091TIP3    H224215   6.956   4.177   2.655
 8092TIP3   OH224216   8.333   5.641   3.066
 8092TIP3    H124217   8.293   5.700   3.002
 8092TIP3    H224218   8.424   5.633   3.038
 8093TIP3   OH224219   7.407   3.909   3.591
 8093TIP3    H124220   7.381   3.876   3.504
 8093TIP3    H224221   7.400   3.832   3.648
 8094TIP3   OH224222   6.947   5.151   2.994
 8094TIP3    H124223   6.904   5.180   3.074
 8094TIP3    H224224   6.902   5.197   2.924
 8095TIP3   OH224225   7.135   5.693   4.051
 8095TIP3    H124226   7.219   5.695   4.097
 8095TIP3    H224227   7.117   5.600   4.039
 8096TIP3   OH224228   7.605   5.616   4.096
 8096TIP3    H124229   7.699   5.595   4.101
 8096TIP3    H224230   7.572   5.562   4.024
 8097TIP3   OH224231   7.571   5.205   2.213
 8097TIP3    H124232   7.518   5.140   2.259
 8097TIP3    H224233   7.646   5.156   2.180
 8098TIP3   OH224234   8.218   5.543   3.843
 8098TIP3    H124235   8.229   5.473   3.908
 8098TIP3    H224236   8.288   5.605   3.863
 8099TIP3   OH224237   7.981   5.269   2.127
 8099TIP3    H124238   8.011   5.203   2.190
 8099TIP3    H224239   8.045   5.266   2.056
 8100TIP3   OH224240   7.244   5.088   4.253
 8100TIP3    H124241   7.261   4.994   4.260
 8100TIP3    H224242   7.161   5.094   4.205
 8101TIP3   OH224243   7.235   4.707   2.442
 8101TIP3    H124244   7.286   4.682   2.519
 8101TIP3    H224245   7.301   4.721   2.373
 8102TIP3   OH224246   7.861   5.181   4.019
 8102TIP3    H124247   7.828   5.204   3.932
 8102TIP3    H224248   7.915   5.104   4.005
 8103TIP3   OH224249   7.756   4.939   2.272
 8103TIP3    H124250   7.759   4.951   2.367
 8103TIP3    H224251   7.747   4.845   2.260
 8104TIP3   OH224252   8.219   5.184   3.629
 8104TIP3    H124253   8.312   5.172   3.608
 8104TIP3    H224254   8.203   5.277   3.614
 8105TIP3   OH224255   7.362   4.827   4.245
 8105TIP3    H124256   7.426   4.827   4.175
 8105TIP3    H224257   7.411   4.856   4.322
 8106TIP3   OH224258   7.407   4.644   2.654
 8106TIP3    H124259   7.388   4.613   2.742
 8106TIP3    H224260   7.452   4.570   2.612
 8107TIP3   OH224261   7.675   4.683   3.901
 8107TIP3    H124262   7.612   4.749   3.930
 8107TIP3    H224263   7.735   4.730   3.844
 8108TIP3   OH224264   7.528   4.450   2.498
 8108TIP3    H124265   7.499   4.458   2.407
 8108TIP3    H224266   7.624   4.449   2.492
 8109TIP3   OH224267   8.193   5.096   4.037
 8109TIP3    H124268   8.234   5.054   3.961
 8109TIP3    H224269   8.193   5.028   4.105
 8110TIP3   OH224270   8.286   4.821   2.165
 8110TIP3    H124271   8.333   4.760   2.108
 8110TIP3    H224272   8.269   4.897   2.110
 8111TIP3   OH224273   7.825   4.485   4.014
 8111TIP3    H124274   7.833   4.411   3.954
 8111TIP3    H224275   7.783   4.554   3.963
 8112TIP3   OH224276   7.830   4.285   3.819
 8112TIP3    H124277   7.871   4.319   3.740
 8112TIP3    H224278   7.739   4.270   3.794
 8113TIP3   OH224279   7.834   4.837   3.746
 8113TIP3    H124280   7.906   4.794   3.701
 8113TIP3    H224281   7.798   4.898   3.681
 8114TIP3   OH224282   8.415   4.760   4.071
 8114TIP3    H124283   8.494   4.708   4.054
 8114TIP3    H224284   8.444   4.851   4.063
 8115TIP3   OH224285   8.332   5.010   3.814
 8115TIP3    H124286   8.279   5.060   3.752
 8115TIP3    H224287   8.413   5.060   3.823
 8116TIP3   OH224288   7.707   4.577   4.251
 8116TIP3    H124289   7.627   4.526   4.254
 8116TIP3    H224290   7.739   4.567   4.161
 8117TIP3   OH224291   7.901   4.045   3.937
 8117TIP3    H124292   7.866   4.125   3.897
 8117TIP3    H224293   7.841   3.976   3.909
 8118TIP3   OH224294   8.078   4.535   4.105
 8118TIP3    H124295   8.071   4.521   4.199
 8118TIP3    H224296   7.990   4.518   4.071
 8119TIP3   OH224297   8.293   4.442   3.955
 8119TIP3    H124298   8.210   4.470   3.993
 8119TIP3    H224299   8.355   4.444   4.028
 8120TIP3   OH224300   8.481   4.455   4.141
 8120TIP3    H124301   8.513   4.375   4.181
 8120TIP3    H224302   8.463   4.513   4.215
 8121TIP3   OH224303   7.543   4.349   4.287
 8121TIP3    H124304   7.537   4.264   4.243
 8121TIP3    H224305   7.616   4.339   4.348
 8122TIP3   OH224306   8.001   4.049   4.188
 8122TIP3    H124307   8.068   3.980   4.187
 8122TIP3    H224308   7.963   4.046   4.100
 8123TIP3   OH224309   8.111   4.263   4.320
 8123TIP3    H124310   8.077   4.193   4.264
 8123TIP3    H224311   8.041   4.328   4.322
 8124TIP3   OH224312   7.359   5.503   2.419
 8124TIP3    H124313   7.449   5.482   2.395
 8124TIP3    H224314   7.324   5.551   2.345
 8125TIP3   OH224315   6.835   4.886   2.601
 8125TIP3    H124316   6.930   4.899   2.601
 8125TIP3    H224317   6.823   4.797   2.567
 8126TIP3   OH224318   6.747   5.464   3.073
 8126TIP3    H124319   6.681   5.414   3.026
 8126TIP3    H224320   6.785   5.402   3.135
 8127TIP3   OH224321   6.866   5.278   3.247
 8127TIP3    H124322   6.834   5.210   3.307
 8127TIP3    H224323   6.917   5.336   3.303
 8128TIP3   OH224324  -0.010   5.665   2.976
 8128TIP3    H124325   0.049   5.683   3.049
 8128TIP3    H224326   0.041   5.686   2.898
 8129TIP3   OH224327   8.557   5.745   3.349
 8129TIP3    H124328   8.495   5.673   3.333
 8129TIP3    H224329   8.623   5.708   3.406
 8130TIP3   OH224330   0.059   5.485   3.890
 8130TIP3    H124331  -0.010   5.467   3.953
 8130TIP3    H224332   0.097   5.568   3.919
 8131TIP3   OH224333   8.441   4.991   2.445
 8131TIP3    H124334   8.535   5.007   2.433
 8131TIP3    H224335   8.428   4.996   2.540
 8132TIP3   OH224336   0.172   5.328   2.984
 8132TIP3    H124337   0.143   5.250   2.936
 8132TIP3    H224338   0.092   5.361   3.026
 8133TIP3   OH224339   8.398   5.522   3.335
 8133TIP3    H124340   8.331   5.512   3.402
 8133TIP3    H224341   8.353   5.509   3.252
 8134TIP3   OH224342   8.344   4.733   2.856
 8134TIP3    H124343   8.400   4.655   2.860
 8134TIP3    H224344   8.318   4.749   2.947
 8135TIP3   OH224345   7.067   4.698   3.639
 8135TIP3    H124346   7.049   4.705   3.545
 8135TIP3    H224347   7.161   4.713   3.647
 8136TIP3   OH224348   0.173   5.177   3.743
 8136TIP3    H124349   0.173   5.088   3.706
 8136TIP3    H224350   0.188   5.234   3.668
 8137TIP3   OH224351  -0.007   4.312   2.662
 8137TIP3    H124352  -0.020   4.256   2.738
 8137TIP3    H224353   0.073   4.361   2.681
 8138TIP3   OH224354   0.025   4.601   3.525
 8138TIP3    H124355  -0.010   4.685   3.499
 8138TIP3    H224356   0.119   4.615   3.532
 8139TIP3   OH224357   7.275   4.413   4.263
 8139TIP3    H124358   7.370   4.406   4.265
 8139TIP3    H224359   7.244   4.333   4.304
 8140TIP3   OH224360   7.243   4.131   3.622
 8140TIP3    H124361   7.298   4.053   3.620
 8140TIP3    H224362   7.304   4.203   3.605
 8141TIP3   OH224363   7.043   4.418   3.662
 8141TIP3    H124364   7.096   4.397   3.585
 8141TIP3    H224365   7.047   4.514   3.668
 8142TIP3   OH224366   7.024   3.897   3.172
 8142TIP3    H124367   6.937   3.889   3.211
 8142TIP3    H224368   7.011   3.955   3.096
 8143TIP3   OH224369   8.167   5.640   2.707
 8143TIP3    H124370   8.216   5.619   2.628
 8143TIP3    H224371   8.225   5.697   2.757
 8144TIP3   OH224372   7.249   3.979   4.004
 8144TIP3    H124373   7.194   3.967   4.082
 8144TIP3    H224374   7.191   4.018   3.940
 8145TIP3   OH224375   7.283   5.412   4.071
 8145TIP3    H124376   7.189   5.395   4.061
 8145TIP3    H224377   7.297   5.412   4.166
 8146TIP3   OH224378   7.478   5.457   3.617
 8146TIP3    H124379   7.425   5.530   3.584
 8146TIP3    H224380   7.563   5.468   3.574
 8147TIP3   OH224381   7.890   5.696   3.759
 8147TIP3    H124382   7.928   5.689   3.846
 8147TIP3    H224383   7.951   5.753   3.711
 8148TIP3   OH224384   8.071   5.862   3.635
 8148TIP3    H124385   8.142   5.812   3.595
 8148TIP3    H224386   8.115   5.921   3.696
 8149TIP3   OH224387   7.158   5.756   3.643
 8149TIP3    H124388   7.064   5.763   3.629
 8149TIP3    H224389   7.175   5.804   3.724
 8150TIP3   OH224390   7.382   5.690   3.504
 8150TIP3    H124391   7.302   5.709   3.554
 8150TIP3    H224392   7.360   5.713   3.414
 8151TIP3   OH224393   7.791   5.709   3.300
 8151TIP3    H124394   7.717   5.722   3.240
 8151TIP3    H224395   7.802   5.794   3.342
 8152TIP3   OH224396   8.051   5.642   3.357
 8152TIP3    H124397   7.960   5.664   3.337
 8152TIP3    H224398   8.102   5.712   3.317
 8153TIP3   OH224399   8.247   5.818   3.265
 8153TIP3    H124400   8.249   5.904   3.224
 8153TIP3    H224401   8.281   5.759   3.198
 8154TIP3   OH224402   7.046   5.481   3.389
 8154TIP3    H124403   7.074   5.459   3.478
 8154TIP3    H224404   7.116   5.447   3.333
 8155TIP3   OH224405   7.256   5.370   3.249
 8155TIP3    H124406   7.267   5.287   3.295
 8155TIP3    H224407   7.342   5.411   3.252
 8156TIP3   OH224408   7.527   5.454   3.260
 8156TIP3    H124409   7.545   5.361   3.246
 8156TIP3    H224410   7.577   5.477   3.338
 8157TIP3   OH224411   8.006   4.084   3.322
 8157TIP3    H124412   7.983   4.027   3.395
 8157TIP3    H224413   8.102   4.084   3.322
 8158TIP3   OH224414   7.330   3.804   3.346
 8158TIP3    H124415   7.240   3.772   3.354
 8158TIP3    H224416   7.383   3.725   3.340
 8159TIP3   OH224417   7.144   3.704   3.000
 8159TIP3    H124418   7.172   3.756   2.924
 8159TIP3    H224419   7.109   3.768   3.062
 8160TIP3   OH224420   7.792   3.853   3.243
 8160TIP3    H124421   7.842   3.904   3.179
 8160TIP3    H224422   7.827   3.880   3.328
 8161TIP3   OH224423   8.279   4.080   3.306
 8161TIP3    H124424   8.343   4.071   3.236
 8161TIP3    H224425   8.306   4.014   3.371
 8162TIP3   OH224426   8.308   3.912   2.744
 8162TIP3    H124427   8.234   3.960   2.781
 8162TIP3    H224428   8.271   3.830   2.713
 8163TIP3   OH224429   6.830   5.277   2.779
 8163TIP3    H124430   6.746   5.243   2.749
 8163TIP3    H224431   6.833   5.367   2.746
 8164TIP3   OH224432   7.255   3.840   2.765
 8164TIP3    H124433   7.302   3.780   2.707
 8164TIP3    H224434   7.324   3.897   2.801
 8165TIP3   OH224435   7.741   4.028   2.869
 8165TIP3    H124436   7.797   3.983   2.933
 8165TIP3    H224437   7.755   4.121   2.885
 8166TIP3   OH224438   7.616   5.434   2.357
 8166TIP3    H124439   7.700   5.465   2.322
 8166TIP3    H224440   7.593   5.361   2.300
 8167TIP3   OH224441   8.289   5.551   2.475
 8167TIP3    H124442   8.244   5.467   2.477
 8167TIP3    H224443   8.256   5.594   2.396
 8168TIP3   OH224444   7.546   4.072   4.226
 8168TIP3    H124445   7.512   4.006   4.286
 8168TIP3    H224446   7.636   4.085   4.253
 8169TIP3   OH224447   7.786   4.097   4.353
 8169TIP3    H124448   7.864   4.082   4.300
 8169TIP3    H224449   7.794   4.035   4.426
 8170TIP3   OH224450   6.928   5.277   2.416
 8170TIP3    H124451   6.930   5.287   2.511
 8170TIP3    H224452   7.010   5.232   2.395
 8171TIP3   OH224453   0.022   4.176   4.033
 8171TIP3    H124454   0.016   4.201   4.125
 8171TIP3    H224455   0.116   4.176   4.014
 8172TIP3   OH224456   8.513   5.739   3.658
 8172TIP3    H124457   8.432   5.721   3.610
 8172TIP3    H224458   8.516   5.834   3.668
 8173TIP3   OH224459   8.511   5.679   2.584
 8173TIP3    H124460   8.444   5.619   2.552
 8173TIP3    H224461   8.588   5.624   2.596
 8174TIP3   OH224462   0.505   5.595   4.607
 8174TIP3    H124463   0.463   5.674   4.571
 8174TIP3    H224464   0.435   5.530   4.609
 8175TIP3   OH224465   0.485   5.591   5.013
 8175TIP3    H124466   0.564   5.582   5.066
 8175TIP3    H224467   0.469   5.503   4.978
 8176TIP3   OH224468   0.754   5.973   4.632
 8176TIP3    H124469   0.713   5.905   4.686
 8176TIP3    H224470   0.782   6.039   4.695
 8177TIP3   OH224471   0.391   6.396   4.675
 8177TIP3    H124472   0.455   6.336   4.638
 8177TIP3    H224473   0.331   6.340   4.725
 8178TIP3   OH224474   0.390   5.829   4.915
 8178TIP3    H124475   0.413   5.743   4.951
 8178TIP3    H224476   0.396   5.889   4.989
 8179TIP3   OH224477   1.313   5.166   5.032
 8179TIP3    H124478   1.333   5.250   5.072
 8179TIP3    H224479   1.341   5.176   4.941
 8180TIP3   OH224480   0.711   5.296   5.052
 8180TIP3    H124481   0.761   5.215   5.060
 8180TIP3    H224482   0.673   5.292   4.964
 8181TIP3   OH224483   0.769   5.120   4.649
 8181TIP3    H124484   0.835   5.103   4.716
 8181TIP3    H224485   0.820   5.145   4.572
 8182TIP3   OH224486   1.376   5.382   5.203
 8182TIP3    H124487   1.290   5.423   5.195
 8182TIP3    H224488   1.414   5.421   5.283
 8183TIP3   OH224489   0.375   5.800   4.490
 8183TIP3    H124490   0.356   5.810   4.397
 8183TIP3    H224491   0.374   5.890   4.524
 8184TIP3   OH224492   0.940   5.110   4.855
 8184TIP3    H124493   0.909   5.074   4.938
 8184TIP3    H224494   0.993   5.186   4.880
 8185TIP3   OH224495   0.797   6.178   4.823
 8185TIP3    H124496   0.727   6.174   4.888
 8185TIP3    H224497   0.789   6.266   4.785
 8186TIP3   OH224498   1.109   5.053   5.194
 8186TIP3    H124499   1.024   5.065   5.151
 8186TIP3    H224500   1.173   5.085   5.130
 8187TIP3   OH224501   0.410   4.725   5.185
 8187TIP3    H124502   0.409   4.631   5.207
 8187TIP3    H224503   0.327   4.758   5.220
 8188TIP3   OH224504   0.564   6.217   4.555
 8188TIP3    H124505   0.576   6.132   4.512
 8188TIP3    H224506   0.588   6.281   4.489
 8189TIP3   OH224507   0.607   5.985   4.402
 8189TIP3    H124508   0.635   5.917   4.341
 8189TIP3    H224509   0.667   5.976   4.476
 8190TIP3   OH224510   1.028   6.089   5.186
 8190TIP3    H124511   1.017   6.011   5.132
 8190TIP3    H224512   1.012   6.163   5.127
 8191TIP3   OH224513   0.268   5.478   4.519
 8191TIP3    H124514   0.220   5.458   4.599
 8191TIP3    H224515   0.241   5.567   4.496
 8192TIP3   OH224516   0.360   5.160   4.214
 8192TIP3    H124517   0.322   5.246   4.199
 8192TIP3    H224518   0.418   5.147   4.139
 8193TIP3   OH224519   1.221   5.717   5.033
 8193TIP3    H124520   1.142   5.771   5.043
 8193TIP3    H224521   1.250   5.735   4.943
 8194TIP3   OH224522   0.691   5.574   4.406
 8194TIP3    H124523   0.630   5.582   4.480
 8194TIP3    H224524   0.772   5.542   4.446
 8195TIP3   OH224525   0.911   5.593   5.346
 8195TIP3    H124526   0.900   5.673   5.397
 8195TIP3    H224527   0.834   5.589   5.290
 8196TIP3   OH224528   0.597   6.171   5.009
 8196TIP3    H124529   0.528   6.209   5.064
 8196TIP3    H224530   0.612   6.084   5.047
 8197TIP3   OH224531   0.563   5.409   4.229
 8197TIP3    H124532   0.614   5.474   4.277
 8197TIP3    H224533   0.596   5.415   4.139
 8198TIP3   OH224534   1.017   4.639   4.272
 8198TIP3    H124535   0.944   4.657   4.332
 8198TIP3    H224536   1.029   4.720   4.223
 8199TIP3   OH224537   0.826   6.018   3.837
 8199TIP3    H124538   0.831   6.112   3.815
 8199TIP3    H224539   0.915   5.986   3.821
 8200TIP3   OH224540   1.255   6.446   5.239
 8200TIP3    H124541   1.260   6.351   5.252
 8200TIP3    H224542   1.173   6.471   5.281
 8201TIP3   OH224543   0.394   6.287   3.919
 8201TIP3    H124544   0.446   6.208   3.906
 8201TIP3    H224545   0.365   6.281   4.010
 8202TIP3   OH224546   0.378   6.320   4.193
 8202TIP3    H124547   0.296   6.293   4.235
 8202TIP3    H224548   0.443   6.315   4.263
 8203TIP3   OH224549   1.150   5.553   5.513
 8203TIP3    H124550   1.066   5.568   5.469
 8203TIP3    H224551   1.164   5.459   5.505
 8204TIP3   OH224552   0.759   4.904   5.518
 8204TIP3    H124553   0.829   4.873   5.575
 8204TIP3    H224554   0.680   4.862   5.552
 8205TIP3   OH224555   0.905   5.322   5.415
 8205TIP3    H124556   0.870   5.317   5.504
 8205TIP3    H224557   0.897   5.415   5.391
 8206TIP3   OH224558   0.641   5.393   3.966
 8206TIP3    H124559   0.580   5.401   3.893
 8206TIP3    H224560   0.712   5.453   3.943
 8207TIP3   OH224561   0.255   4.856   4.277
 8207TIP3    H124562   0.229   4.863   4.368
 8207TIP3    H224563   0.210   4.778   4.245
 8208TIP3   OH224564   0.465   5.272   4.565
 8208TIP3    H124565   0.394   5.326   4.531
 8208TIP3    H224566   0.513   5.244   4.487
 8209TIP3   OH224567   0.691   5.577   5.662
 8209TIP3    H124568   0.658   5.511   5.723
 8209TIP3    H224569   0.785   5.582   5.679
 8210TIP3   OH224570   0.620   5.290   4.794
 8210TIP3    H124571   0.558   5.323   4.729
 8210TIP3    H224572   0.672   5.225   4.747
 8211TIP3   OH224573   0.681   5.513   5.205
 8211TIP3    H124574   0.700   5.437   5.151
 8211TIP3    H224575   0.636   5.478   5.282
 8212TIP3   OH224576   0.359   5.049   4.954
 8212TIP3    H124577   0.296   4.980   4.978
 8212TIP3    H224578   0.441   5.021   4.995
 8213TIP3   OH224579   0.824   5.044   5.095
 8213TIP3    H124580   0.799   5.061   5.186
 8213TIP3    H224581   0.757   4.984   5.063
 8214TIP3   OH224582   0.955   6.813   5.337
 8214TIP3    H124583   0.962   6.790   5.244
 8214TIP3    H224584   1.043   6.837   5.363
 8215TIP3   OH224585   0.396   5.339   4.974
 8215TIP3    H124586   0.443   5.273   4.923
 8215TIP3    H224587   0.394   5.303   5.063
 8216TIP3   OH224588   0.393   5.307   5.248
 8216TIP3    H124589   0.340   5.387   5.240
 8216TIP3    H224590   0.458   5.327   5.315
 8217TIP3   OH224591   1.001   5.876   5.020
 8217TIP3    H124592   1.024   5.921   4.938
 8217TIP3    H224593   0.924   5.823   4.997
 8218TIP3   OH224594   0.520   4.928   4.281
 8218TIP3    H124595   0.426   4.929   4.266
 8218TIP3    H224596   0.544   5.020   4.289
 8219TIP3   OH224597   0.448   6.001   5.463
 8219TIP3    H124598   0.518   5.968   5.519
 8219TIP3    H224599   0.487   6.074   5.415
 8220TIP3   OH224600   0.630   5.175   4.358
 8220TIP3    H124601   0.724   5.185   4.370
 8220TIP3    H224602   0.605   5.248   4.302
 8221TIP3   OH224603   0.289   5.819   4.222
 8221TIP3    H124604   0.253   5.905   4.200
 8221TIP3    H224605   0.214   5.768   4.251
 8222TIP3   OH224606   0.429   5.662   5.721
 8222TIP3    H124607   0.393   5.724   5.657
 8222TIP3    H224608   0.520   5.652   5.695
 8223TIP3   OH224609   0.613   6.205   5.354
 8223TIP3    H124610   0.615   6.271   5.285
 8223TIP3    H224611   0.650   6.248   5.430
 8224TIP3   OH224612   1.024   5.279   4.182
 8224TIP3    H124613   0.967   5.232   4.121
 8224TIP3    H224614   1.029   5.368   4.147
 8225TIP3   OH224615   1.279   6.163   5.263
 8225TIP3    H124616   1.185   6.151   5.268
 8225TIP3    H224617   1.304   6.127   5.177
 8226TIP3   OH224618   0.753   6.082   4.100
 8226TIP3    H124619   0.734   6.003   4.151
 8226TIP3    H224620   0.779   6.049   4.014
 8227TIP3   OH224621   0.793   5.711   4.956
 8227TIP3    H124622   0.729   5.741   4.892
 8227TIP3    H224623   0.821   5.625   4.925
 8228TIP3   OH224624   0.639   5.914   5.088
 8228TIP3    H124625   0.573   5.866   5.138
 8228TIP3    H224626   0.701   5.847   5.059
 8229TIP3   OH224627   0.521   5.836   4.030
 8229TIP3    H124628   0.585   5.811   4.097
 8229TIP3    H224629   0.436   5.826   4.073
 8230TIP3   OH224630   0.750   6.433   5.119
 8230TIP3    H124631   0.665   6.408   5.082
 8230TIP3    H224632   0.769   6.517   5.078
 8231TIP3   OH224633   0.847   6.289   3.799
 8231TIP3    H124634   0.876   6.353   3.733
 8231TIP3    H224635   0.776   6.334   3.845
 8232TIP3   OH224636   0.703   5.784   4.230
 8232TIP3    H124637   0.685   5.713   4.291
 8232TIP3    H224638   0.796   5.776   4.209
 8233TIP3   OH224639   0.747   5.108   5.347
 8233TIP3    H124640   0.819   5.168   5.369
 8233TIP3    H224641   0.755   5.037   5.410
 8234TIP3   OH224642   0.668   4.902   4.521
 8234TIP3    H124643   0.622   4.932   4.443
 8234TIP3    H224644   0.693   4.982   4.567
 8235TIP3   OH224645   0.410   5.030   4.686
 8235TIP3    H124646   0.457   5.105   4.649
 8235TIP3    H224647   0.397   5.053   4.778
 8236TIP3   OH224648   0.601   5.328   5.427
 8236TIP3    H124649   0.606   5.309   5.520
 8236TIP3    H224650   0.656   5.261   5.386
 8237TIP3   OH224651   0.507   4.772   4.728
 8237TIP3    H124652   0.499   4.867   4.736
 8237TIP3    H224653   0.517   4.757   4.634
 8238TIP3   OH224654   1.173   5.282   5.423
 8238TIP3    H124655   1.077   5.283   5.425
 8238TIP3    H224656   1.195   5.242   5.339
 8239TIP3   OH224657   0.843   5.469   4.815
 8239TIP3    H124658   0.764   5.416   4.822
 8239TIP3    H224659   0.910   5.421   4.864
 8240TIP3   OH224660   0.813   6.450   4.758
 8240TIP3    H124661   0.771   6.486   4.681
 8240TIP3    H224662   0.907   6.459   4.741
 8241TIP3   OH224663   0.518   6.052   3.853
 8241TIP3    H124664   0.538   5.987   3.921
 8241TIP3    H224665   0.596   6.055   3.799
 8242TIP3   OH224666   0.140   5.725   3.986
 8242TIP3    H124667   0.141   5.820   3.976
 8242TIP3    H224668   0.213   5.706   4.044
 8243TIP3   OH224669   0.814   6.011   5.346
 8243TIP3    H124670   0.887   6.047   5.296
 8243TIP3    H224671   0.749   6.081   5.347
 8244TIP3   OH224672   0.084   5.188   4.224
 8244TIP3    H124673   0.100   5.220   4.135
 8244TIP3    H224674   0.166   5.145   4.249
 8245TIP3   OH224675   0.669   5.877   5.694
 8245TIP3    H124676   0.715   5.826   5.627
 8245TIP3    H224677   0.675   5.823   5.773
 8246TIP3   OH224678   0.829   5.555   3.849
 8246TIP3    H124679   0.813   5.511   3.765
 8246TIP3    H224680   0.789   5.641   3.838
 8247TIP3   OH224681   0.206   4.978   5.416
 8247TIP3    H124682   0.283   4.981   5.358
 8247TIP3    H224683   0.189   5.070   5.436
 8248TIP3   OH224684   0.304   5.768   5.494
 8248TIP3    H124685   0.364   5.703   5.458
 8248TIP3    H224686   0.342   5.852   5.467
 8249TIP3   OH224687   0.941   5.576   5.783
 8249TIP3    H124688   1.002   5.501   5.784
 8249TIP3    H224689   0.998   5.652   5.770
 8250TIP3   OH224690   0.945   5.828   5.501
 8250TIP3    H124691   0.890   5.895   5.460
 8250TIP3    H224692   1.033   5.845   5.466
 8251TIP3   OH224693   0.520   4.771   5.557
 8251TIP3    H124694   0.478   4.857   5.568
 8251TIP3    H224695   0.448   4.709   5.563
 8252TIP3   OH224696   0.624   5.381   5.833
 8252TIP3    H124697   0.635   5.362   5.926
 8252TIP3    H224698   0.559   5.318   5.803
 8253TIP3   OH224699   0.811   5.279   5.662
 8253TIP3    H124700   0.748   5.313   5.726
 8253TIP3    H224701   0.888   5.255   5.714
 8254TIP3   OH224702   1.033   5.234   5.822
 8254TIP3    H124703   1.043   5.140   5.833
 8254TIP3    H224704   1.024   5.268   5.911
 8255TIP3   OH224705   0.616   4.911   5.800
 8255TIP3    H124706   0.663   4.828   5.806
 8255TIP3    H224707   0.534   4.889   5.756
 8256TIP3   OH224708   0.570   5.114   5.971
 8256TIP3    H124709   0.591   5.040   5.913
 8256TIP3    H224710   0.497   5.083   6.024
 8257TIP3   OH224711   1.081   6.500   4.730
 8257TIP3    H124712   1.108   6.532   4.816
 8257TIP3    H224713   1.142   6.543   4.669
 8258TIP3   OH224714   1.111   6.533   5.010
 8258TIP3    H124715   1.060   6.452   5.004
 8258TIP3    H224716   1.175   6.515   5.079
 8259TIP3   OH224717   1.149   6.231   5.567
 8259TIP3    H124718   1.070   6.229   5.621
 8259TIP3    H224719   1.183   6.320   5.578
 8260TIP3   OH224720   0.971   5.744   4.195
 8260TIP3    H124721   1.032   5.810   4.163
 8260TIP3    H224722   1.015   5.705   4.270
 8261TIP3   OH224723   1.095   5.602   4.397
 8261TIP3    H124724   1.031   5.562   4.456
 8261TIP3    H224725   1.162   5.638   4.454
 8262TIP3   OH224726   1.148   6.003   4.824
 8262TIP3    H124727   1.199   5.934   4.782
 8262TIP3    H224728   1.147   6.074   4.760
 8263TIP3   OH224729   0.966   6.296   5.014
 8263TIP3    H124730   0.891   6.335   5.060
 8263TIP3    H224731   0.927   6.250   4.940
 8264TIP3   OH224732   1.015   5.517   4.045
 8264TIP3    H124733   0.952   5.524   3.973
 8264TIP3    H224734   0.998   5.594   4.099
 8265TIP3   OH224735   0.870   5.168   3.986
 8265TIP3    H124736   0.825   5.210   3.913
 8265TIP3    H224737   0.864   5.075   3.968
 8266TIP3   OH224738   0.904   5.460   4.543
 8266TIP3    H124739   0.914   5.366   4.530
 8266TIP3    H224740   0.889   5.470   4.637
 8267TIP3   OH224741   1.192   5.886   5.395
 8267TIP3    H124742   1.257   5.818   5.377
 8267TIP3    H224743   1.203   5.950   5.325
 8268TIP3   OH224744   1.361   5.670   5.386
 8268TIP3    H124745   1.286   5.632   5.433
 8268TIP3    H224746   1.434   5.612   5.408
 8269TIP3   OH224747   0.832   4.898   3.954
 8269TIP3    H124748   0.898   4.877   4.021
 8269TIP3    H224749   0.752   4.855   3.986
 8270TIP3   OH224750   0.908   5.183   4.419
 8270TIP3    H124751   0.950   5.097   4.430
 8270TIP3    H224752   0.952   5.221   4.343
 8271TIP3   OH224753   1.052   5.345   4.947
 8271TIP3    H124754   1.133   5.366   4.899
 8271TIP3    H224755   1.064   5.384   5.033
 8272TIP3   OH224756   1.121   5.498   5.171
 8272TIP3    H124757   1.052   5.532   5.227
 8272TIP3    H224758   1.155   5.575   5.125
 8273TIP3   OH224759   1.577   5.097   5.712
 8273TIP3    H124760   1.640   5.039   5.669
 8273TIP3    H224761   1.539   5.148   5.640
 8274TIP3   OH224762   1.010   4.928   4.466
 8274TIP3    H124763   1.052   4.916   4.551
 8274TIP3    H224764   0.952   4.852   4.457
 8275TIP3   OH224765   1.429   5.213   5.514
 8275TIP3    H124766   1.345   5.255   5.531
 8275TIP3    H224767   1.407   5.137   5.460
 8276TIP3   OH224768   1.059   4.855   4.105
 8276TIP3    H124769   1.108   4.790   4.054
 8276TIP3    H224770   1.118   4.930   4.111
 8277TIP3   OH224771   0.614   6.397   4.359
 8277TIP3    H124772   0.676   6.382   4.288
 8277TIP3    H224773   0.657   6.462   4.415
 8278TIP3   OH224774   0.651   6.589   5.341
 8278TIP3    H124775   0.690   6.533   5.274
 8278TIP3    H224776   0.669   6.545   5.424
 8279TIP3   OH224777   1.339   4.969   5.404
 8279TIP3    H124778   1.252   4.962   5.365
 8279TIP3    H224779   1.376   4.882   5.397
 8280TIP3   OH224780   0.501   6.472   5.008
 8280TIP3    H124781   0.414   6.489   4.973
 8280TIP3    H224782   0.554   6.546   4.979
 8281TIP3   OH224783   0.747   6.651   4.937
 8281TIP3    H124784   0.737   6.731   4.886
 8281TIP3    H224785   0.768   6.584   4.873
 8282TIP3   OH224786   0.573   4.906   5.043
 8282TIP3    H124787   0.534   4.845   5.105
 8282TIP3    H224788   0.634   4.854   4.992
 8283TIP3   OH224789   1.050   4.788   4.922
 8283TIP3    H124790   1.090   4.839   4.852
 8283TIP3    H224791   0.957   4.811   4.920
 8284TIP3   OH224792   1.161   4.882   4.691
 8284TIP3    H124793   1.231   4.823   4.663
 8284TIP3    H224794   1.199   4.970   4.680
 8285TIP3   OH224795   0.286   4.504   4.854
 8285TIP3    H124796   0.369   4.496   4.807
 8285TIP3    H224797   0.283   4.595   4.882
 8286TIP3   OH224798   0.770   4.783   4.905
 8286TIP3    H124799   0.750   4.759   4.815
 8286TIP3    H224800   0.769   4.701   4.953
 8287TIP3   OH224801   0.838   4.703   4.461
 8287TIP3    H124802   0.769   4.765   4.484
 8287TIP3    H224803   0.815   4.623   4.508
 8288TIP3   OH224804   0.217   4.864   4.563
 8288TIP3    H124805   0.263   4.783   4.541
 8288TIP3    H224806   0.285   4.922   4.597
 8289TIP3   OH224807   0.785   6.349   4.149
 8289TIP3    H124808   0.779   6.255   4.138
 8289TIP3    H224809   0.747   6.386   4.069
 8290TIP3   OH224810   1.094   4.967   5.842
 8290TIP3    H124811   1.111   4.936   5.931
 8290TIP3    H224812   1.180   4.963   5.799
 8291TIP3   OH224813   1.004   6.516   5.339
 8291TIP3    H124814   0.948   6.450   5.380
 8291TIP3    H224815   0.968   6.600   5.367
 8292TIP3   OH224816   2.276   5.892   4.078
 8292TIP3    H124817   2.245   5.979   4.052
 8292TIP3    H224818   2.206   5.832   4.051
 8293TIP3   OH224819   2.275   5.877   4.498
 8293TIP3    H124820   2.325   5.859   4.578
 8293TIP3    H224821   2.232   5.794   4.477
 8294TIP3   OH224822   1.576   5.751   4.847
 8294TIP3    H124823   1.610   5.695   4.917
 8294TIP3    H224824   1.653   5.778   4.797
 8295TIP3   OH224825   2.538   6.186   4.173
 8295TIP3    H124826   2.527   6.120   4.241
 8295TIP3    H224827   2.563   6.266   4.220
 8296TIP3   OH224828   1.560   6.169   4.549
 8296TIP3    H124829   1.543   6.074   4.552
 8296TIP3    H224830   1.655   6.175   4.540
 8297TIP3   OH224831   1.253   5.376   4.323
 8297TIP3    H124832   1.214   5.461   4.347
 8297TIP3    H224833   1.181   5.327   4.283
 8298TIP3   OH224834   1.327   5.679   4.531
 8298TIP3    H124835   1.376   5.602   4.560
 8298TIP3    H224836   1.394   5.741   4.503
 8299TIP3   OH224837   2.191   6.640   4.175
 8299TIP3    H124838   2.223   6.574   4.114
 8299TIP3    H224839   2.173   6.591   4.256
 8300TIP3   OH224840   2.083   6.099   4.510
 8300TIP3    H124841   2.125   6.019   4.479
 8300TIP3    H224842   2.154   6.155   4.538
 8301TIP3   OH224843   3.107   5.424   4.518
 8301TIP3    H124844   3.128   5.507   4.560
 8301TIP3    H224845   3.133   5.436   4.427
 8302TIP3   OH224846   2.492   5.593   4.543
 8302TIP3    H124847   2.529   5.508   4.569
 8302TIP3    H224848   2.455   5.577   4.456
 8303TIP3   OH224849   1.842   5.254   4.505
 8303TIP3    H124850   1.822   5.325   4.445
 8303TIP3    H224851   1.790   5.180   4.474
 8304TIP3   OH224852   2.539   5.352   4.134
 8304TIP3    H124853   2.603   5.343   4.204
 8304TIP3    H224854   2.589   5.385   4.060
 8305TIP3   OH224855   1.467   5.461   4.629
 8305TIP3    H124856   1.550   5.444   4.674
 8305TIP3    H224857   1.472   5.409   4.548
 8306TIP3   OH224858   1.893   5.661   4.443
 8306TIP3    H124859   1.987   5.645   4.450
 8306TIP3    H224860   1.857   5.580   4.408
 8307TIP3   OH224861   3.171   5.640   4.689
 8307TIP3    H124862   3.083   5.676   4.682
 8307TIP3    H224863   3.205   5.673   4.772
 8308TIP3   OH224864   1.825   5.250   4.954
 8308TIP3    H124865   1.773   5.284   4.881
 8308TIP3    H224866   1.771   5.266   5.031
 8309TIP3   OH224867   2.171   6.110   3.938
 8309TIP3    H124868   2.130   6.084   3.856
 8309TIP3    H224869   2.119   6.185   3.968
 8310TIP3   OH224870   1.924   6.027   4.726
 8310TIP3    H124871   1.868   6.097   4.759
 8310TIP3    H224872   1.971   6.066   4.653
 8311TIP3   OH224873   2.705   5.371   4.351
 8311TIP3    H124874   2.666   5.347   4.435
 8311TIP3    H224875   2.762   5.445   4.370
 8312TIP3   OH224876   1.711   5.359   4.726
 8312TIP3    H124877   1.766   5.433   4.750
 8312TIP3    H224878   1.757   5.316   4.654
 8313TIP3   OH224879   1.763   6.227   4.829
 8313TIP3    H124880   1.746   6.316   4.796
 8313TIP3    H224881   1.686   6.206   4.881
 8314TIP3   OH224882   1.143   5.926   4.078
 8314TIP3    H124883   1.110   5.945   3.990
 8314TIP3    H224884   1.165   6.011   4.114
 8315TIP3   OH224885   2.585   6.433   4.313
 8315TIP3    H124886   2.499   6.425   4.354
 8315TIP3    H224887   2.581   6.517   4.267
 8316TIP3   OH224888   2.902   5.322   4.687
 8316TIP3    H124889   2.817   5.343   4.650
 8316TIP3    H224890   2.965   5.347   4.619
 8317TIP3   OH224891   2.166   4.942   4.678
 8317TIP3    H124892   2.159   4.849   4.701
 8317TIP3    H224893   2.090   4.983   4.718
 8318TIP3   OH224894   2.288   6.468   3.976
 8318TIP3    H124895   2.337   6.386   3.964
 8318TIP3    H224896   2.347   6.536   3.945
 8319TIP3   OH224897   2.427   6.238   3.923
 8319TIP3    H124898   2.357   6.174   3.918
 8319TIP3    H224899   2.476   6.214   4.002
 8320TIP3   OH224900   2.817   6.326   4.660
 8320TIP3    H124901   2.800   6.251   4.603
 8320TIP3    H224902   2.801   6.403   4.605
 8321TIP3   OH224903   2.105   5.729   3.928
 8321TIP3    H124904   2.023   5.775   3.909
 8321TIP3    H224905   2.152   5.726   3.845
 8322TIP3   OH224906   2.072   5.529   3.624
 8322TIP3    H124907   2.138   5.578   3.674
 8322TIP3    H224908   2.122   5.462   3.578
 8323TIP3   OH224909   3.001   5.984   4.522
 8323TIP3    H124910   2.917   6.028   4.521
 8323TIP3    H224911   3.037   5.997   4.434
 8324TIP3   OH224912   2.460   5.816   3.891
 8324TIP3    H124913   2.407   5.845   3.964
 8324TIP3    H224914   2.543   5.789   3.931
 8325TIP3   OH224915   2.690   5.847   4.829
 8325TIP3    H124916   2.687   5.929   4.878
 8325TIP3    H224917   2.608   5.844   4.781
 8326TIP3   OH224918   1.689   5.794   4.302
 8326TIP3    H124919   1.653   5.736   4.235
 8326TIP3    H224920   1.762   5.746   4.339
 8327TIP3   OH224921   1.824   6.204   4.451
 8327TIP3    H124922   1.799   6.188   4.360
 8327TIP3    H224923   1.913   6.169   4.457
 8328TIP3   OH224924   1.795   5.791   4.670
 8328TIP3    H124925   1.833   5.755   4.590
 8328TIP3    H224926   1.845   5.871   4.687
 8329TIP3   OH224927   2.352   6.425   4.451
 8329TIP3    H124928   2.336   6.503   4.504
 8329TIP3    H224929   2.335   6.352   4.511
 8330TIP3   OH224930   1.962   6.331   4.992
 8330TIP3    H124931   1.902   6.390   5.038
 8330TIP3    H224932   1.905   6.278   4.936
 8331TIP3   OH224933   2.292   5.677   3.722
 8331TIP3    H124934   2.352   5.734   3.771
 8331TIP3    H224935   2.319   5.686   3.631
 8332TIP3   OH224936   1.720   5.879   5.127
 8332TIP3    H124937   1.723   5.972   5.149
 8332TIP3    H224938   1.626   5.859   5.122
 8333TIP3   OH224939   2.037   6.353   3.984
 8333TIP3    H124940   2.121   6.398   3.991
 8333TIP3    H224941   1.983   6.411   3.930
 8334TIP3   OH224942   1.753   6.492   5.077
 8334TIP3    H124943   1.726   6.498   4.986
 8334TIP3    H224944   1.673   6.473   5.125
 8335TIP3   OH224945   2.804   4.904   3.777
 8335TIP3    H124946   2.726   4.924   3.829
 8335TIP3    H224947   2.817   4.981   3.722
 8336TIP3   OH224948   1.564   5.642   4.096
 8336TIP3    H124949   1.488   5.689   4.061
 8336TIP3    H224950   1.532   5.554   4.114
 8337TIP3   OH224951   2.623   6.277   3.328
 8337TIP3    H124952   2.622   6.371   3.312
 8337TIP3    H224953   2.713   6.250   3.309
 8338TIP3   OH224954   1.342   6.041   5.026
 8338TIP3    H124955   1.274   6.024   4.961
 8338TIP3    H224956   1.377   5.955   5.047
 8339TIP3   OH224957   1.194   6.232   4.664
 8339TIP3    H124958   1.289   6.242   4.667
 8339TIP3    H224959   1.160   6.310   4.708
 8340TIP3   OH224960   3.047   6.689   4.724
 8340TIP3    H124961   3.054   6.594   4.734
 8340TIP3    H224962   2.967   6.713   4.770
 8341TIP3   OH224963   2.153   6.469   4.851
 8341TIP3    H124964   2.146   6.560   4.880
 8341TIP3    H224965   2.084   6.423   4.900
 8342TIP3   OH224966   1.928   6.570   3.822
 8342TIP3    H124967   1.867   6.565   3.748
 8342TIP3    H224968   1.901   6.647   3.871
 8343TIP3   OH224969   1.343   6.434   4.197
 8343TIP3    H124970   1.404   6.423   4.270
 8343TIP3    H224971   1.308   6.346   4.182
 8344TIP3   OH224972   2.134   6.502   3.435
 8344TIP3    H124973   2.186   6.429   3.401
 8344TIP3    H224974   2.165   6.514   3.525
 8345TIP3   OH224975   2.179   6.547   3.707
 8345TIP3    H124976   2.093   6.552   3.747
 8345TIP3    H224977   2.237   6.516   3.776
 8346TIP3   OH224978   2.935   5.805   4.994
 8346TIP3    H124979   2.854   5.813   4.943
 8346TIP3    H224980   2.955   5.711   4.992
 8347TIP3   OH224981   1.545   6.225   4.999
 8347TIP3    H124982   1.594   6.213   5.080
 8347TIP3    H224983   1.472   6.163   5.005
 8348TIP3   OH224984   1.931   5.037   4.804
 8348TIP3    H124985   1.847   5.003   4.773
 8348TIP3    H224986   1.908   5.117   4.852
 8349TIP3   OH224987   2.477   5.155   5.005
 8349TIP3    H124988   2.548   5.126   5.063
 8349TIP3    H224989   2.397   5.136   5.054
 8350TIP3   OH224990   2.696   5.582   4.920
 8350TIP3    H124991   2.655   5.579   5.006
 8350TIP3    H224992   2.679   5.671   4.888
 8351TIP3   OH224993   2.371   5.679   3.461
 8351TIP3    H124994   2.330   5.672   3.375
 8351TIP3    H224995   2.454   5.724   3.445
 8352TIP3   OH224996   2.078   5.085   3.772
 8352TIP3    H124997   2.045   5.089   3.862
 8352TIP3    H224998   2.043   5.003   3.738
 8353TIP3   OH224999   1.868   5.567   4.818
 8353TIP3    H125000   1.821   5.576   4.901
 8353TIP3    H225001   1.848   5.648   4.771
 8354TIP3   OH225002   1.750   5.448   4.335
 8354TIP3    H125003   1.661   5.422   4.360
 8354TIP3    H225004   1.761   5.413   4.246
 8355TIP3   OH225005   2.233   5.525   4.064
 8355TIP3    H125006   2.185   5.597   4.023
 8355TIP3    H225007   2.291   5.493   3.995
 8356TIP3   OH225008   2.416   5.795   5.141
 8356TIP3    H125009   2.389   5.725   5.201
 8356TIP3    H225010   2.509   5.808   5.160
 8357TIP3   OH225011   2.400   5.541   4.289
 8357TIP3    H125012   2.332   5.564   4.226
 8357TIP3    H225013   2.445   5.467   4.250
 8358TIP3   OH225014   1.701   5.583   5.037
 8358TIP3    H125015   1.718   5.646   5.107
 8358TIP3    H225016   1.684   5.500   5.082
 8359TIP3   OH225017   1.743   5.061   3.746
 8359TIP3    H125018   1.735   5.062   3.842
 8359TIP3    H225019   1.666   5.109   3.715
 8360TIP3   OH225020   1.293   5.105   4.613
 8360TIP3    H125021   1.364   5.138   4.667
 8360TIP3    H225022   1.335   5.078   4.532
 8361TIP3   OH225023   1.216   5.085   4.123
 8361TIP3    H125024   1.261   5.118   4.046
 8361TIP3    H225025   1.154   5.154   4.147
 8362TIP3   OH225026   2.433   5.792   4.717
 8362TIP3    H125027   2.460   5.726   4.653
 8362TIP3    H225028   2.392   5.742   4.787
 8363TIP3   OH225029   2.110   5.248   4.391
 8363TIP3    H125030   2.033   5.245   4.447
 8363TIP3    H225031   2.184   5.235   4.451
 8364TIP3   OH225032   1.514   5.320   4.398
 8364TIP3    H125033   1.425   5.324   4.362
 8364TIP3    H225034   1.542   5.230   4.381
 8365TIP3   OH225035   1.766   5.323   4.091
 8365TIP3    H125036   1.861   5.333   4.078
 8365TIP3    H225037   1.729   5.341   4.005
 8366TIP3   OH225038   2.569   5.330   4.597
 8366TIP3    H125039   2.547   5.347   4.689
 8366TIP3    H225040   2.504   5.268   4.567
 8367TIP3   OH225041   1.643   5.351   3.847
 8367TIP3    H125042   1.579   5.303   3.794
 8367TIP3    H225043   1.698   5.395   3.782
 8368TIP3   OH225044   2.758   7.032   4.819
 8368TIP3    H125045   2.756   7.045   4.724
 8368TIP3    H225046   2.836   7.079   4.848
 8369TIP3   OH225047   1.704   6.141   5.231
 8369TIP3    H125048   1.784   6.163   5.278
 8369TIP3    H225049   1.635   6.146   5.298
 8370TIP3   OH225050   2.164   5.605   4.495
 8370TIP3    H125051   2.229   5.554   4.447
 8370TIP3    H225052   2.162   5.565   4.582
 8371TIP3   OH225053   1.662   5.072   4.387
 8371TIP3    H125054   1.631   4.997   4.437
 8371TIP3    H225055   1.701   5.034   4.308
 8372TIP3   OH225056   2.136   5.511   4.762
 8372TIP3    H125057   2.048   5.541   4.786
 8372TIP3    H225058   2.195   5.563   4.816
 8373TIP3   OH225059   1.869   5.870   3.873
 8373TIP3    H125060   1.795   5.813   3.851
 8373TIP3    H225061   1.846   5.908   3.958
 8374TIP3   OH225062   2.763   6.120   4.484
 8374TIP3    H125063   2.796   6.168   4.409
 8374TIP3    H225064   2.682   6.079   4.453
 8375TIP3   OH225065   2.333   5.184   3.769
 8375TIP3    H125066   2.239   5.164   3.768
 8375TIP3    H225067   2.337   5.278   3.784
 8376TIP3   OH225068   2.277   6.203   4.886
 8376TIP3    H125069   2.322   6.193   4.970
 8376TIP3    H225070   2.235   6.289   4.891
 8377TIP3   OH225071   2.395   5.446   3.846
 8377TIP3    H125072   2.490   5.449   3.856
 8377TIP3    H225073   2.374   5.523   3.795
 8378TIP3   OH225074   1.560   5.881   4.530
 8378TIP3    H125075   1.598   5.864   4.444
 8378TIP3    H225076   1.626   5.850   4.592
 8379TIP3   OH225077   2.011   6.040   3.713
 8379TIP3    H125078   1.961   6.121   3.715
 8379TIP3    H225079   1.960   5.979   3.767
 8380TIP3   OH225080   1.450   5.813   5.159
 8380TIP3    H125081   1.454   5.789   5.251
 8380TIP3    H225082   1.379   5.760   5.123
 8381TIP3   OH225083   2.180   5.944   5.180
 8381TIP3    H125084   2.112   5.884   5.149
 8381TIP3    H225085   2.262   5.905   5.150
 8382TIP3   OH225086   2.425   6.485   4.774
 8382TIP3    H125087   2.330   6.472   4.780
 8382TIP3    H225088   2.449   6.525   4.857
 8383TIP3   OH225089   2.818   5.535   3.669
 8383TIP3    H125090   2.761   5.489   3.607
 8383TIP3    H225091   2.823   5.624   3.635
 8384TIP3   OH225092   3.064   6.412   4.747
 8384TIP3    H125093   2.970   6.394   4.746
 8384TIP3    H225094   3.095   6.378   4.664
 8385TIP3   OH225095   2.554   6.351   3.598
 8385TIP3    H125096   2.522   6.287   3.662
 8385TIP3    H225097   2.565   6.301   3.517
 8386TIP3   OH225098   2.531   5.985   4.385
 8386TIP3    H125099   2.441   5.962   4.406
 8386TIP3    H225100   2.568   5.905   4.347
 8387TIP3   OH225101   1.689   6.215   4.200
 8387TIP3    H125102   1.711   6.294   4.151
 8387TIP3    H225103   1.595   6.220   4.213
 8388TIP3   OH225104   1.247   5.509   3.895
 8388TIP3    H125105   1.291   5.592   3.914
 8388TIP3    H225106   1.169   5.509   3.951
 8389TIP3   OH225107   1.781   5.971   4.108
 8389TIP3    H125108   1.758   6.060   4.137
 8389TIP3    H225109   1.752   5.914   4.179
 8390TIP3   OH225110   1.962   6.544   4.645
 8390TIP3    H125111   1.997   6.617   4.595
 8390TIP3    H225112   2.038   6.510   4.694
 8391TIP3   OH225113   2.322   6.199   4.614
 8391TIP3    H125114   2.310   6.195   4.709
 8391TIP3    H225115   2.396   6.141   4.597
 8392TIP3   OH225116   2.308   6.085   3.488
 8392TIP3    H125117   2.360   6.057   3.564
 8392TIP3    H225118   2.223   6.043   3.501
 8393TIP3   OH225119   2.577   6.710   4.657
 8393TIP3    H125120   2.503   6.650   4.667
 8393TIP3    H225121   2.551   6.768   4.586
 8394TIP3   OH225122   2.631   6.552   3.296
 8394TIP3    H125123   2.660   6.620   3.235
 8394TIP3    H225124   2.556   6.591   3.341
 8395TIP3   OH225125   1.654   5.329   5.161
 8395TIP3    H125126   1.559   5.334   5.166
 8395TIP3    H225127   1.679   5.271   5.234
 8396TIP3   OH225128   2.481   6.001   3.683
 8396TIP3    H125129   2.467   5.946   3.760
 8396TIP3    H225130   2.577   6.009   3.677
 8397TIP3   OH225131   1.391   6.428   4.804
 8397TIP3    H125132   1.442   6.363   4.853
 8397TIP3    H225133   1.402   6.509   4.853
 8398TIP3   OH225134   1.672   6.052   3.497
 8398TIP3    H125135   1.677   5.958   3.478
 8398TIP3    H225136   1.643   6.056   3.588
 8399TIP3   OH225137   1.595   6.096   3.767
 8399TIP3    H125138   1.669   6.070   3.821
 8399TIP3    H225139   1.591   6.191   3.777
 8400TIP3   OH225140   1.342   5.759   3.976
 8400TIP3    H125141   1.277   5.805   4.029
 8400TIP3    H225142   1.361   5.820   3.904
 8401TIP3   OH225143   2.503   5.389   4.859
 8401TIP3    H125144   2.582   5.433   4.891
 8401TIP3    H225145   2.495   5.311   4.914
 8402TIP3   OH225146   2.390   5.135   4.040
 8402TIP3    H125147   2.371   5.153   3.948
 8402TIP3    H225148   2.434   5.214   4.071
 8403TIP3   OH225149   1.859   6.267   3.722
 8403TIP3    H125150   1.779   6.301   3.763
 8403TIP3    H225151   1.887   6.336   3.663
 8404TIP3   OH225152   2.047   5.332   4.133
 8404TIP3    H125153   2.110   5.400   4.108
 8404TIP3    H225154   2.067   5.315   4.225
 8405TIP3   OH225155   2.342   5.626   4.916
 8405TIP3    H125156   2.367   5.668   4.998
 8405TIP3    H225157   2.391   5.544   4.914
 8406TIP3   OH225158   2.206   5.037   4.225
 8406TIP3    H125159   2.185   5.114   4.277
 8406TIP3    H225160   2.274   5.066   4.164
 8407TIP3   OH225161   1.612   6.379   3.794
 8407TIP3    H125162   1.593   6.415   3.707
 8407TIP3    H225163   1.594   6.451   3.854
 8408TIP3   OH225164   1.720   5.050   4.024
 8408TIP3    H125165   1.710   5.140   4.057
 8408TIP3    H225166   1.814   5.033   4.030
 8409TIP3   OH225167   2.962   5.530   4.906
 8409TIP3    H125168   2.867   5.538   4.917
 8409TIP3    H225169   2.973   5.472   4.832
 8410TIP3   OH225170   2.623   5.730   4.292
 8410TIP3    H125171   2.547   5.673   4.302
 8410TIP3    H225172   2.691   5.688   4.345
 8411TIP3   OH225173   1.357   5.947   3.766
 8411TIP3    H125174   1.423   6.016   3.772
 8411TIP3    H225175   1.393   5.885   3.703
 8412TIP3   OH225176   1.273   5.231   3.898
 8412TIP3    H125177   1.289   5.325   3.906
 8412TIP3    H225178   1.211   5.223   3.825
 8413TIP3   OH225179   2.603   6.705   4.237
 8413TIP3    H125180   2.560   6.750   4.165
 8413TIP3    H225181   2.697   6.717   4.220
 8414TIP3   OH225182   1.667   4.950   4.770
 8414TIP3    H125183   1.640   4.916   4.685
 8414TIP3    H225184   1.660   4.876   4.829
 8415TIP3   OH225185   1.188   6.191   4.166
 8415TIP3    H125186   1.147   6.232   4.241
 8415TIP3    H225187   1.151   6.237   4.090
 8416TIP3   OH225188   1.386   6.731   5.220
 8416TIP3    H125189   1.470   6.729   5.267
 8416TIP3    H225190   1.358   6.639   5.218
 8417TIP3   OH225191   1.856   6.660   5.270
 8417TIP3    H125192   1.948   6.635   5.278
 8417TIP3    H225193   1.823   6.605   5.199
 8418TIP3   OH225194   1.827   6.249   3.387
 8418TIP3    H125195   1.778   6.180   3.432
 8418TIP3    H225196   1.901   6.203   3.346
 8419TIP3   OH225197   2.479   6.594   5.021
 8419TIP3    H125198   2.489   6.523   5.084
 8419TIP3    H225199   2.555   6.650   5.036
 8420TIP3   OH225200   2.265   6.292   3.314
 8420TIP3    H125201   2.294   6.227   3.378
 8420TIP3    H225202   2.327   6.284   3.242
 8421TIP3   OH225203   1.503   6.135   5.424
 8421TIP3    H125204   1.517   6.041   5.432
 8421TIP3    H225205   1.417   6.143   5.382
 8422TIP3   OH225206   1.487   5.755   3.622
 8422TIP3    H125207   1.539   5.730   3.698
 8422TIP3    H225208   1.552   5.764   3.551
 8423TIP3   OH225209   2.114   6.222   5.195
 8423TIP3    H125210   2.069   6.242   5.113
 8423TIP3    H225211   2.148   6.133   5.182
 8424TIP3   OH225212   2.042   5.974   3.447
 8424TIP3    H125213   2.020   5.989   3.539
 8424TIP3    H225214   2.027   5.880   3.434
 8425TIP3   OH225215   2.595   6.259   4.813
 8425TIP3    H125216   2.672   6.289   4.764
 8425TIP3    H225217   2.528   6.325   4.795
 8426TIP3   OH225218   1.617   5.876   5.423
 8426TIP3    H125219   1.694   5.859   5.369
 8426TIP3    H225220   1.652   5.900   5.509
 8427TIP3   OH225221   1.664   5.688   3.829
 8427TIP3    H125222   1.643   5.657   3.917
 8427TIP3    H225223   1.709   5.615   3.788
 8428TIP3   OH225224   1.972   5.765   5.082
 8428TIP3    H125225   1.887   5.809   5.089
 8428TIP3    H225226   2.006   5.793   4.997
 8429TIP3   OH225227   1.798   5.498   3.673
 8429TIP3    H125228   1.769   5.502   3.582
 8429TIP3    H225229   1.893   5.504   3.669
 8430TIP3   OH225230   2.475   6.143   5.178
 8430TIP3    H125231   2.542   6.104   5.122
 8430TIP3    H225232   2.471   6.086   5.254
 8431TIP3   OH225233   2.597   5.797   3.350
 8431TIP3    H125234   2.583   5.754   3.266
 8431TIP3    H225235   2.570   5.888   3.335
 8432TIP3   OH225236   2.076   5.536   5.191
 8432TIP3    H125237   2.079   5.464   5.129
 8432TIP3    H225238   2.041   5.610   5.142
 8433TIP3   OH225239   2.084   5.335   4.991
 8433TIP3    H125240   2.112   5.371   4.906
 8433TIP3    H225241   1.994   5.307   4.977
 8434TIP3   OH225242   2.095   5.861   4.861
 8434TIP3    H125243   2.185   5.886   4.839
 8434TIP3    H225244   2.041   5.924   4.815
 8435TIP3   OH225245   2.685   5.819   5.240
 8435TIP3    H125246   2.717   5.729   5.248
 8435TIP3    H225247   2.762   5.870   5.213
 8436TIP3   OH225248   2.717   6.086   4.983
 8436TIP3    H125249   2.664   6.147   4.931
 8436TIP3    H225250   2.807   6.099   4.951
 8437TIP3   OH225251   1.959   5.627   5.432
 8437TIP3    H125252   1.891   5.563   5.452
 8437TIP3    H225253   1.989   5.604   5.344
 8438TIP3   OH225254   2.210   5.101   5.085
 8438TIP3    H125255   2.168   5.181   5.054
 8438TIP3    H225256   2.144   5.033   5.072
 8439TIP3   OH225257   2.333   5.580   5.290
 8439TIP3    H125258   2.324   5.567   5.384
 8439TIP3    H225259   2.247   5.558   5.253
 8440TIP3   OH225260   2.580   5.540   5.159
 8440TIP3    H125261   2.501   5.535   5.214
 8440TIP3    H225262   2.650   5.507   5.216
 8441TIP3   OH225263   2.812   5.492   5.309
 8441TIP3    H125264   2.827   5.398   5.315
 8441TIP3    H225265   2.809   5.522   5.399
 8442TIP3   OH225266   1.795   5.406   5.496
 8442TIP3    H125267   1.800   5.318   5.458
 8442TIP3    H225268   1.834   5.397   5.583
 8443TIP3   OH225269   2.280   5.086   5.350
 8443TIP3    H125270   2.350   5.020   5.346
 8443TIP3    H225271   2.249   5.093   5.260
 8444TIP3   OH225272   2.369   5.302   5.495
 8444TIP3    H125273   2.341   5.230   5.439
 8444TIP3    H225274   2.295   5.363   5.494
 8445TIP3   OH225275   1.603   6.501   3.549
 8445TIP3    H125276   1.699   6.503   3.546
 8445TIP3    H225277   1.576   6.568   3.487
 8446TIP3   OH225278   1.085   5.924   3.794
 8446TIP3    H125279   1.178   5.944   3.786
 8446TIP3    H225280   1.075   5.838   3.753
 8447TIP3   OH225281   0.979   6.517   4.246
 8447TIP3    H125282   0.919   6.460   4.199
 8447TIP3    H225283   1.031   6.458   4.301
 8448TIP3   OH225284   1.127   6.348   4.410
 8448TIP3    H125285   1.121   6.284   4.481
 8448TIP3    H225286   1.184   6.417   4.445
 8449TIP3   OH225287   2.872   6.763   4.218
 8449TIP3    H125288   2.899   6.788   4.306
 8449TIP3    H225289   2.936   6.805   4.161
 8450TIP3   OH225290   2.900   6.782   4.499
 8450TIP3    H125291   2.848   6.702   4.491
 8450TIP3    H225292   2.967   6.761   4.565
 8451TIP3   OH225293   2.937   6.486   5.071
 8451TIP3    H125294   2.867   6.493   5.135
 8451TIP3    H225295   2.983   6.570   5.075
 8452TIP3   OH225296   2.761   6.000   3.682
 8452TIP3    H125297   2.821   6.069   3.653
 8452TIP3    H225298   2.804   5.961   3.758
 8453TIP3   OH225299   2.885   5.857   3.885
 8453TIP3    H125300   2.818   5.817   3.940
 8453TIP3    H225301   2.950   5.891   3.946
 8454TIP3   OH225302   2.938   6.256   4.315
 8454TIP3    H125303   2.991   6.187   4.276
 8454TIP3    H225304   2.937   6.326   4.249
 8455TIP3   OH225305   2.750   6.548   4.508
 8455TIP3    H125306   2.682   6.591   4.558
 8455TIP3    H225307   2.704   6.505   4.435
 8456TIP3   OH225308   2.804   5.774   3.530
 8456TIP3    H125309   2.733   5.773   3.466
 8456TIP3    H225310   2.786   5.851   3.584
 8457TIP3   OH225311   2.662   5.430   3.471
 8457TIP3    H125312   2.617   5.465   3.394
 8457TIP3    H225313   2.650   5.335   3.464
 8458TIP3   OH225314   2.687   5.716   4.022
 8458TIP3    H125315   2.693   5.622   4.009
 8458TIP3    H225316   2.670   5.727   4.116
 8459TIP3   OH225317   1.313   5.784   4.784
 8459TIP3    H125318   1.304   5.750   4.695
 8459TIP3    H225319   1.407   5.783   4.801
 8460TIP3   OH225320   2.973   6.135   4.883
 8460TIP3    H125321   3.040   6.068   4.869
 8460TIP3    H225322   2.981   6.194   4.808
 8461TIP3   OH225323   3.152   5.927   4.879
 8461TIP3    H125324   3.077   5.884   4.921
 8461TIP3    H225325   3.226   5.870   4.899
 8462TIP3   OH225326   2.616   5.161   3.450
 8462TIP3    H125327   2.684   5.130   3.510
 8462TIP3    H225328   2.537   5.114   3.476
 8463TIP3   OH225329   2.685   5.440   3.906
 8463TIP3    H125330   2.728   5.356   3.919
 8463TIP3    H225331   2.730   5.479   3.831
 8464TIP3   OH225332   2.838   5.605   4.426
 8464TIP3    H125333   2.920   5.623   4.378
 8464TIP3    H225334   2.853   5.642   4.513
 8465TIP3   OH225335   2.913   5.755   4.654
 8465TIP3    H125336   2.838   5.785   4.706
 8465TIP3    H225337   2.945   5.834   4.610
 8466TIP3   OH225338   1.531   5.460   5.437
 8466TIP3    H125339   1.625   5.457   5.452
 8466TIP3    H225340   1.498   5.379   5.477
 8467TIP3   OH225341   3.368   5.355   5.196
 8467TIP3    H125342   3.432   5.296   5.156
 8467TIP3    H225343   3.331   5.405   5.123
 8468TIP3   OH225344   2.796   5.189   3.957
 8468TIP3    H125345   2.842   5.174   4.040
 8468TIP3    H225346   2.733   5.117   3.950
 8469TIP3   OH225347   1.500   5.172   4.788
 8469TIP3    H125348   1.554   5.093   4.793
 8469TIP3    H225349   1.562   5.243   4.772
 8470TIP3   OH225350   1.289   5.441   4.847
 8470TIP3    H125351   1.340   5.433   4.766
 8470TIP3    H225352   1.315   5.525   4.884
 8471TIP3   OH225353   3.222   5.471   4.995
 8471TIP3    H125354   3.136   5.510   5.010
 8471TIP3    H225355   3.204   5.392   4.944
 8472TIP3   OH225356   2.851   5.108   3.597
 8472TIP3    H125357   2.895   5.045   3.539
 8472TIP3    H225358   2.909   5.184   3.599
 8473TIP3   OH225359   1.276   4.944   4.350
 8473TIP3    H125360   1.189   4.935   4.389
 8473TIP3    H225361   1.263   5.002   4.275
 8474TIP3   OH225362   2.450   6.648   3.864
 8474TIP3    H125363   2.504   6.644   3.785
 8474TIP3    H225364   2.482   6.725   3.911
 8475TIP3   OH225365   1.502   5.026   5.179
 8475TIP3    H125366   1.448   5.011   5.256
 8475TIP3    H225367   1.442   5.063   5.114
 8476TIP3   OH225368   1.535   6.454   5.247
 8476TIP3    H125369   1.441   6.439   5.234
 8476TIP3    H225370   1.549   6.438   5.340
 8477TIP3   OH225371   1.734   6.503   4.794
 8477TIP3    H125372   1.681   6.575   4.761
 8477TIP3    H225373   1.818   6.511   4.750
 8478TIP3   OH225374   2.142   6.736   4.931
 8478TIP3    H125375   2.180   6.729   5.018
 8478TIP3    H225376   2.204   6.789   4.882
 8479TIP3   OH225377   2.328   6.892   4.800
 8479TIP3    H125378   2.388   6.839   4.747
 8479TIP3    H225379   2.386   6.946   4.854
 8480TIP3   OH225380   3.136   5.224   4.892
 8480TIP3    H125381   3.047   5.209   4.861
 8480TIP3    H225382   3.178   5.139   4.887
 8481TIP3   OH225383   1.396   6.749   4.836
 8481TIP3    H125384   1.305   6.769   4.816
 8481TIP3    H225385   1.420   6.812   4.905
 8482TIP3   OH225386   1.628   6.734   4.687
 8482TIP3    H125387   1.543   6.739   4.732
 8482TIP3    H225388   1.609   6.758   4.597
 8483TIP3   OH225389   2.050   6.753   4.485
 8483TIP3    H125390   1.979   6.764   4.422
 8483TIP3    H225391   2.062   6.839   4.523
 8484TIP3   OH225392   2.316   6.694   4.533
 8484TIP3    H125393   2.222   6.706   4.515
 8484TIP3    H225394   2.360   6.753   4.472
 8485TIP3   OH225395   2.532   6.880   4.437
 8485TIP3    H125396   2.514   6.963   4.392
 8485TIP3    H225397   2.555   6.820   4.367
 8486TIP3   OH225398   1.310   6.526   4.556
 8486TIP3    H125399   1.337   6.500   4.644
 8486TIP3    H225400   1.378   6.492   4.499
 8487TIP3   OH225401   1.508   6.403   4.416
 8487TIP3    H125402   1.517   6.320   4.464
 8487TIP3    H225403   1.595   6.443   4.421
 8488TIP3   OH225404   1.772   6.478   4.447
 8488TIP3    H125405   1.796   6.385   4.445
 8488TIP3    H225406   1.829   6.515   4.515
 8489TIP3   OH225407   2.338   5.149   4.524
 8489TIP3    H125408   2.300   5.076   4.573
 8489TIP3    H225409   2.407   5.110   4.471
 8490TIP3   OH225410   2.843   5.064   4.414
 8490TIP3    H125411   2.880   5.113   4.340
 8490TIP3    H225412   2.750   5.084   4.411
 8491TIP3   OH225413   2.957   5.139   4.176
 8491TIP3    H125414   3.027   5.080   4.149
 8491TIP3    H225415   2.994   5.227   4.163
 8492TIP3   OH225416   1.583   4.845   4.528
 8492TIP3    H125417   1.493   4.812   4.535
 8492TIP3    H225418   1.637   4.767   4.524
 8493TIP3   OH225419   1.372   4.745   4.171
 8493TIP3    H125420   1.412   4.795   4.100
 8493TIP3    H225421   1.349   4.810   4.237
 8494TIP3   OH225422   2.044   4.900   4.418
 8494TIP3    H125423   2.098   4.942   4.351
 8494TIP3    H225424   2.089   4.919   4.500
 8495TIP3   OH225425   2.558   5.043   4.390
 8495TIP3    H125426   2.566   5.006   4.302
 8495TIP3    H225427   2.558   4.967   4.448
 8496TIP3   OH225428   2.610   4.979   3.960
 8496TIP3    H125429   2.529   5.025   3.983
 8496TIP3    H225430   2.600   4.892   3.999
 8497TIP3   OH225431   1.080   6.319   3.950
 8497TIP3    H125432   0.999   6.288   3.909
 8497TIP3    H225433   1.088   6.410   3.920
 8498TIP3   OH225434   1.505   4.884   3.944
 8498TIP3    H125435   1.551   4.821   3.889
 8498TIP3    H225436   1.574   4.940   3.979
 8499TIP3   OH225437   1.996   5.081   4.037
 8499TIP3    H125438   2.053   5.027   4.091
 8499TIP3    H225439   2.013   5.171   4.066
 8500TIP3   OH225440   1.877   6.473   3.533
 8500TIP3    H125441   1.961   6.505   3.500
 8500TIP3    H225442   1.855   6.400   3.475
 8501TIP3   OH225443   2.591   6.620   3.626
 8501TIP3    H125444   2.583   6.525   3.621
 8501TIP3    H225445   2.541   6.652   3.551
 8502TIP3   OH225446   1.805   5.133   5.411
 8502TIP3    H125447   1.769   5.066   5.468
 8502TIP3    H225448   1.897   5.139   5.434
 8503TIP3   OH225449   2.055   5.138   5.529
 8503TIP3    H125450   2.133   5.117   5.478
 8503TIP3    H225451   2.049   5.068   5.594
 8504TIP3   OH225452   1.164   6.321   3.597
 8504TIP3    H125453   1.173   6.348   3.688
 8504TIP3    H225454   1.247   6.277   3.576
 8505TIP3   OH225455   2.877   5.223   5.320
 8505TIP3    H125456   2.894   5.192   5.409
 8505TIP3    H225457   2.962   5.217   5.277
 8506TIP3   OH225458   2.798   6.757   4.822
 8506TIP3    H125459   2.724   6.727   4.771
 8506TIP3    H225460   2.783   6.852   4.832
 8507TIP3   OH225461   4.073   6.143   3.567
 8507TIP3    H125462   4.042   6.230   3.542
 8507TIP3    H225463   4.002   6.085   3.541
 8508TIP3   OH225464   4.068   6.136   3.987
 8508TIP3    H125465   4.119   6.118   4.065
 8508TIP3    H225466   4.027   6.052   3.965
 8509TIP3   OH225467   3.372   6.006   4.334
 8509TIP3    H125468   3.406   5.950   4.404
 8509TIP3    H225469   3.448   6.029   4.282
 8510TIP3   OH225470   4.333   6.445   3.662
 8510TIP3    H125471   4.324   6.378   3.729
 8510TIP3    H225472   4.359   6.524   3.709
 8511TIP3   OH225473   3.357   6.433   4.033
 8511TIP3    H125474   3.342   6.339   4.036
 8511TIP3    H225475   3.452   6.442   4.022
 8512TIP3   OH225476   3.047   5.634   3.811
 8512TIP3    H125477   3.005   5.717   3.834
 8512TIP3    H225478   2.977   5.583   3.771
 8513TIP3   OH225479   3.116   5.932   4.024
 8513TIP3    H125480   3.166   5.855   4.051
 8513TIP3    H225481   3.181   5.989   3.983
 8514TIP3   OH225482   3.990   6.881   3.671
 8514TIP3    H125483   4.019   6.816   3.607
 8514TIP3    H225484   3.993   6.834   3.755
 8515TIP3   OH225485   3.875   6.360   3.996
 8515TIP3    H125486   3.916   6.280   3.966
 8515TIP3    H225487   3.948   6.416   4.024
 8516TIP3   OH225488   4.909   5.682   4.005
 8516TIP3    H125489   4.929   5.764   4.050
 8516TIP3    H225490   4.934   5.699   3.914
 8517TIP3   OH225491   4.287   5.851   4.029
 8517TIP3    H125492   4.324   5.767   4.056
 8517TIP3    H225493   4.250   5.835   3.943
 8518TIP3   OH225494   3.638   5.510   3.991
 8518TIP3    H125495   3.617   5.582   3.931
 8518TIP3    H225496   3.586   5.437   3.959
 8519TIP3   OH225497   4.335   5.608   3.621
 8519TIP3    H125498   4.399   5.600   3.692
 8519TIP3    H225499   4.385   5.642   3.547
 8520TIP3   OH225500   3.263   5.717   4.115
 8520TIP3    H125501   3.346   5.700   4.160
 8520TIP3    H225502   3.268   5.666   4.035
 8521TIP3   OH225503   3.687   5.919   3.931
 8521TIP3    H125504   3.781   5.903   3.937
 8521TIP3    H225505   3.651   5.838   3.895
 8522TIP3   OH225506   4.970   5.897   4.176
 8522TIP3    H125507   4.881   5.932   4.171
 8522TIP3    H225508   5.005   5.932   4.258
 8523TIP3   OH225509   3.621   5.508   4.441
 8523TIP3    H125510   3.568   5.542   4.369
 8523TIP3    H225511   3.567   5.522   4.519
 8524TIP3   OH225512   3.965   6.359   3.430
 8524TIP3    H125513   3.925   6.334   3.346
 8524TIP3    H225514   3.914   6.435   3.458
 8525TIP3   OH225515   3.720   6.283   4.213
 8525TIP3    H125516   3.665   6.353   4.247
 8525TIP3    H225517   3.768   6.323   4.140
 8526TIP3   OH225518   4.500   5.628   3.837
 8526TIP3    H125519   4.461   5.605   3.921
 8526TIP3    H225520   4.557   5.702   3.857
 8527TIP3   OH225521   3.507   5.616   4.212
 8527TIP3    H125522   3.563   5.690   4.236
 8527TIP3    H225523   3.554   5.573   4.140
 8528TIP3   OH225524   3.559   6.485   4.316
 8528TIP3    H125525   3.542   6.573   4.283
 8528TIP3    H225526   3.482   6.463   4.368
 8529TIP3   OH225527   2.939   6.185   3.564
 8529TIP3    H125528   2.901   6.203   3.478
 8529TIP3    H225529   2.964   6.271   3.598
 8530TIP3   OH225530   4.377   6.692   3.803
 8530TIP3    H125531   4.289   6.685   3.839
 8530TIP3    H225532   4.378   6.775   3.756
 8531TIP3   OH225533   4.696   5.587   4.166
 8531TIP3    H125534   4.611   5.611   4.129
 8531TIP3    H225535   4.760   5.613   4.100
 8532TIP3   OH225536   3.967   5.212   4.163
 8532TIP3    H125537   3.963   5.119   4.187
 8532TIP3    H225538   3.891   5.251   4.205
 8533TIP3   OH225539   4.082   6.725   3.459
 8533TIP3    H125540   4.133   6.645   3.449
 8533TIP3    H225541   4.139   6.795   3.428
 8534TIP3   OH225542   4.229   6.501   3.411
 8534TIP3    H125543   4.171   6.426   3.393
 8534TIP3    H225544   4.274   6.477   3.492
 8535TIP3   OH225545   4.613   6.582   4.148
 8535TIP3    H125546   4.598   6.508   4.090
 8535TIP3    H225547   4.599   6.659   4.094
 8536TIP3   OH225548   3.899   5.985   3.415
 8536TIP3    H125549   3.818   6.031   3.395
 8536TIP3    H225550   3.947   5.983   3.332
 8537TIP3   OH225551   3.868   5.787   3.112
 8537TIP3    H125552   3.933   5.835   3.162
 8537TIP3    H225553   3.917   5.720   3.065
 8538TIP3   OH225554   4.798   6.239   4.010
 8538TIP3    H125555   4.714   6.284   4.010
 8538TIP3    H225556   4.835   6.254   3.923
 8539TIP3   OH225557   4.257   6.073   3.378
 8539TIP3    H125558   4.203   6.100   3.452
 8539TIP3    H225559   4.340   6.046   3.417
 8540TIP3   OH225560   4.487   6.104   4.317
 8540TIP3    H125561   4.484   6.186   4.366
 8540TIP3    H225562   4.404   6.102   4.269
 8541TIP3   OH225563   3.486   6.055   3.787
 8541TIP3    H125564   3.449   5.996   3.722
 8541TIP3    H225565   3.558   6.006   3.826
 8542TIP3   OH225566   3.619   6.479   3.927
 8542TIP3    H125567   3.595   6.460   3.836
 8542TIP3    H225568   3.705   6.440   3.938
 8543TIP3   OH225569   3.590   6.047   4.159
 8543TIP3    H125570   3.628   6.011   4.078
 8543TIP3    H225571   3.640   6.127   4.176
 8544TIP3   OH225572   4.136   6.685   3.930
 8544TIP3    H125573   4.127   6.763   3.986
 8544TIP3    H225574   4.125   6.611   3.990
 8545TIP3   OH225575   3.758   6.589   4.479
 8545TIP3    H125576   3.698   6.647   4.525
 8545TIP3    H225577   3.702   6.536   4.423
 8546TIP3   OH225578   4.089   5.933   3.210
 8546TIP3    H125579   4.149   5.990   3.259
 8546TIP3    H225580   4.116   5.942   3.119
 8547TIP3   OH225581   3.514   6.139   4.612
 8547TIP3    H125582   3.516   6.232   4.636
 8547TIP3    H225583   3.421   6.118   4.606
 8548TIP3   OH225584   3.834   6.604   3.470
 8548TIP3    H125585   3.917   6.651   3.475
 8548TIP3    H225586   3.776   6.663   3.421
 8549TIP3   OH225587   3.547   6.749   4.562
 8549TIP3    H125588   3.522   6.755   4.470
 8549TIP3    H225589   3.465   6.732   4.609
 8550TIP3   OH225590   4.601   5.161   3.264
 8550TIP3    H125591   4.523   5.181   3.316
 8550TIP3    H225592   4.614   5.239   3.209
 8551TIP3   OH225593   3.360   5.899   3.585
 8551TIP3    H125594   3.283   5.944   3.550
 8551TIP3    H225595   3.330   5.810   3.602
 8552TIP3   OH225596   4.422   6.540   2.813
 8552TIP3    H125597   4.423   6.635   2.798
 8552TIP3    H225598   4.511   6.511   2.790
 8553TIP3   OH225599   3.138   6.298   4.512
 8553TIP3    H125600   3.070   6.279   4.448
 8553TIP3    H225601   3.173   6.212   4.536
 8554TIP3   OH225602   2.995   6.481   4.149
 8554TIP3    H125603   3.091   6.484   4.144
 8554TIP3    H225604   2.971   6.558   4.200
 8555TIP3   OH225605   4.842   6.943   4.205
 8555TIP3    H125606   4.850   6.849   4.220
 8555TIP3    H225607   4.762   6.968   4.250
 8556TIP3   OH225608   3.948   6.728   4.337
 8556TIP3    H125609   3.942   6.819   4.366
 8556TIP3    H225610   3.881   6.682   4.388
 8557TIP3   OH225611   3.725   6.831   3.293
 8557TIP3    H125612   3.678   6.811   3.212
 8557TIP3    H225613   3.690   6.916   3.321
 8558TIP3   OH225614   3.161   6.686   3.672
 8558TIP3    H125615   3.205   6.677   3.757
 8558TIP3    H225616   3.111   6.604   3.663
 8559TIP3   OH225617   3.927   6.756   2.921
 8559TIP3    H125618   3.978   6.683   2.885
 8559TIP3    H225619   3.961   6.769   3.009
 8560TIP3   OH225620   3.978   6.802   3.190
 8560TIP3    H125621   3.893   6.805   3.234
 8560TIP3    H225622   4.037   6.765   3.256
 8561TIP3   OH225623   4.733   6.061   4.480
 8561TIP3    H125624   4.651   6.070   4.431
 8561TIP3    H225625   4.752   5.967   4.477
 8562TIP3   OH225626   3.340   6.483   4.485
 8562TIP3    H125627   3.391   6.469   4.565
 8562TIP3    H225628   3.269   6.419   4.491
 8563TIP3   OH225629   3.727   5.296   4.292
 8563TIP3    H125630   3.643   5.263   4.260
 8563TIP3    H225631   3.705   5.375   4.341
 8564TIP3   OH225632   4.274   5.408   4.489
 8564TIP3    H125633   4.344   5.383   4.549
 8564TIP3    H225634   4.194   5.390   4.537
 8565TIP3   OH225635   4.489   5.838   4.405
 8565TIP3    H125636   4.449   5.835   4.492
 8565TIP3    H225637   4.475   5.928   4.375
 8566TIP3   OH225638   4.169   5.935   2.949
 8566TIP3    H125639   4.126   5.928   2.864
 8566TIP3    H225640   4.251   5.981   2.931
 8567TIP3   OH225641   3.878   5.336   3.260
 8567TIP3    H125642   3.842   5.341   3.349
 8567TIP3    H225643   3.840   5.256   3.224
 8568TIP3   OH225644   3.665   5.823   4.305
 8568TIP3    H125645   3.619   5.831   4.388
 8568TIP3    H225646   3.645   5.904   4.259
 8569TIP3   OH225647   3.545   5.706   3.822
 8569TIP3    H125648   3.457   5.679   3.846
 8569TIP3    H225649   3.557   5.670   3.733
 8570TIP3   OH225650   4.029   5.782   3.550
 8570TIP3    H125651   3.980   5.853   3.509
 8570TIP3    H225652   4.087   5.749   3.481
 8571TIP3   OH225653   4.214   6.052   4.629
 8571TIP3    H125654   4.186   5.982   4.688
 8571TIP3    H225655   4.306   6.065   4.648
 8572TIP3   OH225656   4.195   5.798   3.776
 8572TIP3    H125657   4.128   5.821   3.713
 8572TIP3    H225658   4.240   5.723   3.737
 8573TIP3   OH225659   3.497   5.837   4.523
 8573TIP3    H125660   3.525   5.896   4.593
 8573TIP3    H225661   3.479   5.754   4.568
 8574TIP3   OH225662   3.543   5.320   3.233
 8574TIP3    H125663   3.533   5.319   3.328
 8574TIP3    H225664   3.464   5.364   3.201
 8575TIP3   OH225665   3.087   5.363   4.100
 8575TIP3    H125666   3.160   5.397   4.153
 8575TIP3    H225667   3.127   5.337   4.017
 8576TIP3   OH225668   3.010   5.339   3.611
 8576TIP3    H125669   3.057   5.374   3.535
 8576TIP3    H225670   2.947   5.407   3.634
 8577TIP3   OH225671   4.227   6.049   4.204
 8577TIP3    H125672   4.255   5.983   4.140
 8577TIP3    H225673   4.188   5.999   4.276
 8578TIP3   OH225674   3.906   5.504   3.876
 8578TIP3    H125675   3.828   5.501   3.932
 8578TIP3    H225676   3.979   5.492   3.937
 8579TIP3   OH225677   3.309   5.578   3.883
 8579TIP3    H125678   3.220   5.583   3.848
 8579TIP3    H225679   3.337   5.488   3.866
 8580TIP3   OH225680   3.563   5.580   3.578
 8580TIP3    H125681   3.657   5.590   3.565
 8580TIP3    H225682   3.524   5.598   3.492
 8581TIP3   OH225683   4.365   5.588   4.082
 8581TIP3    H125684   4.344   5.603   4.174
 8581TIP3    H225685   4.298   5.526   4.052
 8582TIP3   OH225686   3.439   5.609   3.335
 8582TIP3    H125687   3.375   5.559   3.285
 8582TIP3    H225688   3.493   5.651   3.269
 8583TIP3   OH225689   4.553   7.288   4.302
 8583TIP3    H125690   4.551   7.302   4.207
 8583TIP3    H225691   4.633   7.333   4.330
 8584TIP3   OH225692   3.497   6.402   4.717
 8584TIP3    H125693   3.578   6.421   4.764
 8584TIP3    H225694   3.429   6.404   4.784
 8585TIP3   OH225695   3.958   5.863   3.982
 8585TIP3    H125696   4.023   5.812   3.934
 8585TIP3    H225697   3.956   5.824   4.069
 8586TIP3   OH225698   3.457   5.331   3.870
 8586TIP3    H125699   3.426   5.257   3.922
 8586TIP3    H225700   3.492   5.292   3.790
 8587TIP3   OH225701   3.933   5.769   4.248
 8587TIP3    H125702   3.845   5.798   4.273
 8587TIP3    H225703   3.992   5.819   4.304
 8588TIP3   OH225704   3.663   6.127   3.357
 8588TIP3    H125705   3.590   6.068   3.337
 8588TIP3    H225706   3.641   6.165   3.443
 8589TIP3   OH225707   4.561   6.378   3.970
 8589TIP3    H125708   4.596   6.427   3.895
 8589TIP3    H225709   4.481   6.338   3.937
 8590TIP3   OH225710   4.130   5.440   3.256
 8590TIP3    H125711   4.037   5.418   3.255
 8590TIP3    H225712   4.133   5.534   3.271
 8591TIP3   OH225713   4.071   6.458   4.369
 8591TIP3    H125714   4.121   6.445   4.451
 8591TIP3    H225715   4.033   6.546   4.378
 8592TIP3   OH225716   4.191   5.702   3.333
 8592TIP3    H125717   4.287   5.706   3.344
 8592TIP3    H225718   4.170   5.780   3.282
 8593TIP3   OH225719   3.363   6.151   4.016
 8593TIP3    H125720   3.398   6.128   3.931
 8593TIP3    H225721   3.425   6.114   4.079
 8594TIP3   OH225722   3.817   6.285   3.198
 8594TIP3    H125723   3.770   6.369   3.197
 8594TIP3    H225724   3.763   6.227   3.251
 8595TIP3   OH225725   3.241   6.073   4.647
 8595TIP3    H125726   3.249   6.050   4.739
 8595TIP3    H225727   3.169   6.018   4.615
 8596TIP3   OH225728   3.978   6.202   4.664
 8596TIP3    H125729   3.912   6.141   4.631
 8596TIP3    H225730   4.061   6.163   4.637
 8597TIP3   OH225731   4.220   6.743   4.259
 8597TIP3    H125732   4.125   6.730   4.265
 8597TIP3    H225733   4.244   6.782   4.342
 8598TIP3   OH225734   4.614   5.790   3.155
 8598TIP3    H125735   4.558   5.743   3.093
 8598TIP3    H225736   4.617   5.879   3.122
 8599TIP3   OH225737   4.861   6.661   4.239
 8599TIP3    H125738   4.767   6.648   4.235
 8599TIP3    H225739   4.893   6.632   4.153
 8600TIP3   OH225740   4.337   6.607   3.079
 8600TIP3    H125741   4.316   6.537   3.141
 8600TIP3    H225742   4.358   6.561   2.998
 8601TIP3   OH225743   4.327   6.243   3.870
 8601TIP3    H125744   4.237   6.220   3.893
 8601TIP3    H225745   4.364   6.163   3.834
 8602TIP3   OH225746   3.477   6.477   3.676
 8602TIP3    H125747   3.476   6.554   3.620
 8602TIP3    H225748   3.385   6.458   3.693
 8603TIP3   OH225749   3.038   5.764   3.384
 8603TIP3    H125750   3.082   5.846   3.406
 8603TIP3    H225751   2.958   5.765   3.437
 8604TIP3   OH225752   3.576   6.232   3.591
 8604TIP3    H125753   3.557   6.321   3.619
 8604TIP3    H225754   3.548   6.177   3.664
 8605TIP3   OH225755   3.759   6.802   4.132
 8605TIP3    H125756   3.797   6.874   4.081
 8605TIP3    H225757   3.832   6.766   4.181
 8606TIP3   OH225758   3.393   6.705   3.523
 8606TIP3    H125759   3.307   6.708   3.565
 8606TIP3    H225760   3.425   6.795   3.527
 8607TIP3   OH225761   4.117   6.460   4.097
 8607TIP3    H125762   4.105   6.454   4.192
 8607TIP3    H225763   4.192   6.403   4.079
 8608TIP3   OH225764   4.105   6.341   2.978
 8608TIP3    H125765   4.158   6.318   3.054
 8608TIP3    H225766   4.020   6.301   2.994
 8609TIP3   OH225767   4.371   6.967   4.144
 8609TIP3    H125768   4.299   6.904   4.154
 8609TIP3    H225769   4.345   7.022   4.071
 8610TIP3   OH225770   4.438   6.818   2.788
 8610TIP3    H125771   4.483   6.894   2.752
 8610TIP3    H225772   4.357   6.853   2.824
 8611TIP3   OH225773   3.451   5.585   4.650
 8611TIP3    H125774   3.355   5.590   4.656
 8611TIP3    H225775   3.477   5.528   4.722
 8612TIP3   OH225776   4.277   6.266   3.178
 8612TIP3    H125777   4.261   6.206   3.251
 8612TIP3    H225778   4.372   6.271   3.170
 8613TIP3   OH225779   3.185   6.682   4.296
 8613TIP3    H125780   3.235   6.614   4.341
 8613TIP3    H225781   3.205   6.762   4.344
 8614TIP3   OH225782   3.457   6.309   2.983
 8614TIP3    H125783   3.469   6.217   2.956
 8614TIP3    H225784   3.441   6.304   3.077
 8615TIP3   OH225785   3.403   6.325   3.255
 8615TIP3    H125786   3.472   6.295   3.314
 8615TIP3    H225787   3.404   6.421   3.263
 8616TIP3   OH225788   3.136   6.014   3.465
 8616TIP3    H125789   3.071   6.060   3.517
 8616TIP3    H225790   3.155   6.074   3.392
 8617TIP3   OH225791   4.299   5.643   4.344
 8617TIP3    H125792   4.377   5.688   4.377
 8617TIP3    H225793   4.291   5.565   4.398
 8618TIP3   OH225794   4.188   5.391   3.527
 8618TIP3    H125795   4.167   5.409   3.435
 8618TIP3    H225796   4.230   5.471   3.559
 8619TIP3   OH225797   3.673   6.514   3.198
 8619TIP3    H125798   3.588   6.538   3.234
 8619TIP3    H225799   3.696   6.588   3.141
 8620TIP3   OH225800   3.844   5.588   3.619
 8620TIP3    H125801   3.907   5.657   3.595
 8620TIP3    H225802   3.863   5.570   3.711
 8621TIP3   OH225803   4.138   5.882   4.404
 8621TIP3    H125804   4.164   5.925   4.486
 8621TIP3    H225805   4.188   5.800   4.403
 8622TIP3   OH225806   4.004   5.292   3.712
 8622TIP3    H125807   3.982   5.370   3.763
 8622TIP3    H225808   4.071   5.322   3.650
 8623TIP3   OH225809   3.422   6.599   3.271
 8623TIP3    H125810   3.399   6.669   3.211
 8623TIP3    H225811   3.409   6.637   3.358
 8624TIP3   OH225812   3.517   5.307   3.511
 8624TIP3    H125813   3.506   5.397   3.544
 8624TIP3    H225814   3.611   5.291   3.518
 8625TIP3   OH225815   4.755   5.788   4.389
 8625TIP3    H125816   4.660   5.794   4.400
 8625TIP3    H225817   4.767   5.729   4.315
 8626TIP3   OH225818   4.420   5.987   3.779
 8626TIP3    H125819   4.343   5.931   3.791
 8626TIP3    H225820   4.488   5.946   3.832
 8627TIP3   OH225821   3.153   6.198   3.252
 8627TIP3    H125822   3.224   6.261   3.261
 8627TIP3    H225823   3.187   6.134   3.189
 8628TIP3   OH225824   3.073   5.487   3.389
 8628TIP3    H125825   3.079   5.583   3.393
 8628TIP3    H225826   3.010   5.470   3.319
 8629TIP3   OH225827   4.399   6.959   3.719
 8629TIP3    H125828   4.354   7.008   3.649
 8629TIP3    H225829   4.491   6.980   3.706
 8630TIP3   OH225830   3.464   5.210   4.256
 8630TIP3    H125831   3.436   5.176   4.171
 8630TIP3    H225832   3.455   5.136   4.316
 8631TIP3   OH225833   2.993   6.459   3.643
 8631TIP3    H125834   2.941   6.490   3.717
 8631TIP3    H225835   2.952   6.499   3.566
 8632TIP3   OH225836   3.181   6.998   4.718
 8632TIP3    H125837   3.264   7.000   4.765
 8632TIP3    H225838   3.162   6.905   4.708
 8633TIP3   OH225839   3.651   6.918   4.754
 8633TIP3    H125840   3.743   6.891   4.764
 8633TIP3    H225841   3.619   6.862   4.683
 8634TIP3   OH225842   3.618   6.508   2.878
 8634TIP3    H125843   3.569   6.438   2.921
 8634TIP3    H225844   3.693   6.464   2.838
 8635TIP3   OH225845   4.272   6.851   4.507
 8635TIP3    H125846   4.283   6.779   4.570
 8635TIP3    H225847   4.348   6.907   4.521
 8636TIP3   OH225848   4.059   6.547   2.801
 8636TIP3    H125849   4.089   6.483   2.865
 8636TIP3    H225850   4.121   6.541   2.729
 8637TIP3   OH225851   3.292   6.395   4.907
 8637TIP3    H125852   3.312   6.302   4.915
 8637TIP3    H225853   3.206   6.397   4.865
 8638TIP3   OH225854   3.282   6.007   3.106
 8638TIP3    H125855   3.333   5.982   3.182
 8638TIP3    H225856   3.347   6.018   3.036
 8639TIP3   OH225857   3.909   6.478   4.683
 8639TIP3    H125858   3.866   6.498   4.600
 8639TIP3    H225859   3.945   6.390   4.670
 8640TIP3   OH225860   3.830   6.229   2.929
 8640TIP3    H125861   3.815   6.241   3.023
 8640TIP3    H225862   3.820   6.135   2.915
 8641TIP3   OH225863   4.389   6.517   4.299
 8641TIP3    H125864   4.467   6.545   4.251
 8641TIP3    H225865   4.324   6.584   4.279
 8642TIP3   OH225866   3.410   6.140   4.906
 8642TIP3    H125867   3.487   6.114   4.855
 8642TIP3    H225868   3.444   6.159   4.993
 8643TIP3   OH225869   3.459   5.944   3.316
 8643TIP3    H125870   3.437   5.912   3.403
 8643TIP3    H225871   3.504   5.870   3.274
 8644TIP3   OH225872   3.761   6.017   4.566
 8644TIP3    H125873   3.679   6.066   4.574
 8644TIP3    H225874   3.798   6.047   4.483
 8645TIP3   OH225875   3.593   5.755   3.160
 8645TIP3    H125876   3.564   5.758   3.069
 8645TIP3    H225877   3.689   5.761   3.155
 8646TIP3   OH225878   4.271   6.400   4.664
 8646TIP3    H125879   4.340   6.361   4.609
 8646TIP3    H225880   4.268   6.344   4.741
 8647TIP3   OH225881   4.393   6.056   2.837
 8647TIP3    H125882   4.378   6.013   2.753
 8647TIP3    H225883   4.367   6.147   2.822
 8648TIP3   OH225884   3.872   5.794   4.679
 8648TIP3    H125885   3.876   5.720   4.618
 8648TIP3    H225886   3.835   5.866   4.628
 8649TIP3   OH225887   3.880   5.593   4.478
 8649TIP3    H125888   3.908   5.627   4.393
 8649TIP3    H225889   3.790   5.565   4.464
 8650TIP3   OH225890   3.891   6.118   4.351
 8650TIP3    H125891   3.981   6.140   4.328
 8650TIP3    H225892   3.838   6.181   4.303
 8651TIP3   OH225893   4.482   6.075   4.730
 8651TIP3    H125894   4.515   5.986   4.742
 8651TIP3    H225895   4.559   6.127   4.708
 8652TIP3   OH225896   4.513   6.343   4.468
 8652TIP3    H125897   4.460   6.404   4.417
 8652TIP3    H225898   4.603   6.357   4.437
 8653TIP3   OH225899   3.754   5.885   4.919
 8653TIP3    H125900   3.688   5.820   4.940
 8653TIP3    H225901   3.786   5.861   4.832
 8654TIP3   OH225902   4.007   5.357   4.568
 8654TIP3    H125903   3.963   5.436   4.539
 8654TIP3    H225904   3.942   5.288   4.558
 8655TIP3   OH225905   4.129   5.838   4.777
 8655TIP3    H125906   4.121   5.825   4.871
 8655TIP3    H225907   4.043   5.815   4.742
 8656TIP3   OH225908   4.374   5.793   4.644
 8656TIP3    H125909   4.296   5.790   4.700
 8656TIP3    H225910   4.445   5.763   4.701
 8657TIP3   OH225911   4.609   5.751   4.792
 8657TIP3    H125912   4.625   5.657   4.799
 8657TIP3    H225913   4.605   5.782   4.882
 8658TIP3   OH225914   3.592   5.664   4.984
 8658TIP3    H125915   3.597   5.577   4.945
 8658TIP3    H225916   3.632   5.655   5.071
 8659TIP3   OH225917   4.077   5.346   4.834
 8659TIP3    H125918   4.145   5.279   4.831
 8659TIP3    H225919   4.045   5.352   4.744
 8660TIP3   OH225920   4.165   5.562   4.979
 8660TIP3    H125921   4.138   5.488   4.923
 8660TIP3    H225922   4.090   5.621   4.979
 8661TIP3   OH225923   3.414   6.809   3.087
 8661TIP3    H125924   3.503   6.787   3.062
 8661TIP3    H225925   3.377   6.853   3.011
 8662TIP3   OH225926   2.880   6.184   3.275
 8662TIP3    H125927   2.975   6.198   3.269
 8662TIP3    H225928   2.866   6.098   3.237
 8663TIP3   OH225929   2.790   6.779   3.725
 8663TIP3    H125930   2.726   6.724   3.678
 8663TIP3    H225931   2.833   6.718   3.786
 8664TIP3   OH225932   2.927   6.613   3.899
 8664TIP3    H125933   2.915   6.543   3.963
 8664TIP3    H225934   2.979   6.679   3.945
 8665TIP3   OH225935   4.656   7.049   3.697
 8665TIP3    H125936   4.695   7.058   3.784
 8665TIP3    H225937   4.730   7.060   3.636
 8666TIP3   OH225938   4.685   7.045   3.983
 8666TIP3    H125939   4.641   6.961   3.977
 8666TIP3    H225940   4.764   7.028   4.035
 8667TIP3   OH225941   4.730   6.743   4.559
 8667TIP3    H125942   4.662   6.751   4.625
 8667TIP3    H225943   4.777   6.827   4.562
 8668TIP3   OH225944   4.555   6.253   3.171
 8668TIP3    H125945   4.615   6.321   3.139
 8668TIP3    H225946   4.600   6.215   3.246
 8669TIP3   OH225947   4.685   6.112   3.371
 8669TIP3    H125948   4.619   6.075   3.429
 8669TIP3    H225949   4.750   6.150   3.431
 8670TIP3   OH225950   4.736   6.516   3.801
 8670TIP3    H125951   4.789   6.446   3.763
 8670TIP3    H225952   4.742   6.588   3.738
 8671TIP3   OH225953   4.547   6.803   3.997
 8671TIP3    H125954   4.478   6.848   4.046
 8671TIP3    H225955   4.500   6.761   3.924
 8672TIP3   OH225956   4.599   6.029   3.017
 8672TIP3    H125957   4.528   6.030   2.953
 8672TIP3    H225958   4.582   6.106   3.072
 8673TIP3   OH225959   4.463   5.681   2.954
 8673TIP3    H125960   4.415   5.720   2.881
 8673TIP3    H225961   4.450   5.587   2.944
 8674TIP3   OH225962   4.483   5.974   3.509
 8674TIP3    H125963   4.490   5.879   3.498
 8674TIP3    H225964   4.466   5.986   3.603
 8675TIP3   OH225965   3.108   6.042   4.276
 8675TIP3    H125966   3.098   6.006   4.187
 8675TIP3    H225967   3.202   6.039   4.292
 8676TIP3   OH225968   4.769   6.391   4.369
 8676TIP3    H125969   4.836   6.323   4.354
 8676TIP3    H225970   4.780   6.452   4.296
 8677TIP3   OH225971   4.948   6.183   4.363
 8677TIP3    H125972   4.875   6.139   4.406
 8677TIP3    H225973   5.024   6.129   4.382
 8678TIP3   OH225974   4.417   5.411   2.927
 8678TIP3    H125975   4.481   5.385   2.993
 8678TIP3    H225976   4.335   5.371   2.956
 8679TIP3   OH225977   4.481   5.695   3.393
 8679TIP3    H125978   4.526   5.612   3.407
 8679TIP3    H225979   4.526   5.735   3.318
 8680TIP3   OH225980   4.635   5.860   3.914
 8680TIP3    H125981   4.716   5.879   3.866
 8680TIP3    H225982   4.649   5.899   4.000
 8681TIP3   OH225983   4.709   6.010   4.140
 8681TIP3    H125984   4.636   6.040   4.195
 8681TIP3    H225985   4.742   6.090   4.098
 8682TIP3   OH225986   3.327   5.720   4.930
 8682TIP3    H125987   3.421   5.716   4.943
 8682TIP3    H225988   3.293   5.638   4.966
 8683TIP3   OH225989   5.167   5.615   4.685
 8683TIP3    H125990   5.229   5.554   4.644
 8683TIP3    H225991   5.130   5.664   4.612
 8684TIP3   OH225992   4.595   5.445   3.445
 8684TIP3    H125993   4.639   5.431   3.529
 8684TIP3    H225994   4.532   5.374   3.439
 8685TIP3   OH225995   3.296   5.431   4.272
 8685TIP3    H125996   3.350   5.353   4.278
 8685TIP3    H225997   3.358   5.502   4.257
 8686TIP3   OH225998   3.083   5.695   4.332
 8686TIP3    H125999   3.133   5.686   4.251
 8686TIP3    H226000   3.117   5.775   4.373
 8687TIP3   OH226001   5.019   5.732   4.489
 8687TIP3    H126002   4.940   5.773   4.524
 8687TIP3    H226003   4.987   5.660   4.434
 8688TIP3   OH226004   4.647   5.365   3.083
 8688TIP3    H126005   4.691   5.303   3.026
 8688TIP3    H226006   4.705   5.441   3.086
 8689TIP3   OH226007   3.070   5.203   3.840
 8689TIP3    H126008   2.983   5.191   3.876
 8689TIP3    H226009   3.057   5.257   3.762
 8690TIP3   OH226010   4.224   6.924   3.347
 8690TIP3    H126011   4.281   6.909   3.271
 8690TIP3    H226012   4.272   6.986   3.401
 8691TIP3   OH226013   3.294   5.272   4.659
 8691TIP3    H126014   3.243   5.262   4.739
 8691TIP3    H226015   3.234   5.316   4.598
 8692TIP3   OH226016   3.323   6.719   4.728
 8692TIP3    H126017   3.230   6.698   4.719
 8692TIP3    H226018   3.344   6.696   4.818
 8693TIP3   OH226019   3.529   6.760   4.280
 8693TIP3    H126020   3.478   6.834   4.246
 8693TIP3    H226021   3.614   6.769   4.237
 8694TIP3   OH226022   3.938   6.996   4.418
 8694TIP3    H126023   3.977   6.987   4.505
 8694TIP3    H226024   4.002   7.046   4.368
 8695TIP3   OH226025   4.128   7.148   4.286
 8695TIP3    H126026   4.189   7.093   4.236
 8695TIP3    H226027   4.184   7.203   4.341
 8696TIP3   OH226028   4.929   5.482   4.382
 8696TIP3    H126029   4.839   5.463   4.357
 8696TIP3    H226030   4.973   5.397   4.378
 8697TIP3   OH226031   3.193   7.014   4.323
 8697TIP3    H126032   3.101   7.033   4.303
 8697TIP3    H226033   3.215   7.075   4.393
 8698TIP3   OH226034   3.423   6.992   4.173
 8698TIP3    H126035   3.340   6.999   4.220
 8698TIP3    H226036   3.402   7.015   4.083
 8699TIP3   OH226037   3.843   7.009   3.965
 8699TIP3    H126038   3.773   7.021   3.901
 8699TIP3    H226039   3.853   7.095   4.006
 8700TIP3   OH226040   4.108   6.949   4.021
 8700TIP3    H126041   4.016   6.966   3.998
 8700TIP3    H226042   4.158   7.014   3.972
 8701TIP3   OH226043   4.306   7.123   3.920
 8701TIP3    H126044   4.305   7.211   3.881
 8701TIP3    H226045   4.340   7.066   3.851
 8702TIP3   OH226046   3.105   6.786   4.050
 8702TIP3    H126047   3.131   6.757   4.138
 8702TIP3    H226048   3.175   6.753   3.993
 8703TIP3   OH226049   3.306   6.671   3.907
 8703TIP3    H126050   3.317   6.587   3.952
 8703TIP3    H226051   3.393   6.710   3.908
 8704TIP3   OH226052   3.575   6.757   3.925
 8704TIP3    H126053   3.594   6.664   3.910
 8704TIP3    H226054   3.627   6.780   4.002
 8705TIP3   OH226055   4.133   5.410   4.011
 8705TIP3    H126056   4.095   5.338   4.062
 8705TIP3    H226057   4.203   5.368   3.960
 8706TIP3   OH226058   4.644   5.295   3.902
 8706TIP3    H126059   4.683   5.348   3.833
 8706TIP3    H226060   4.554   5.326   3.908
 8707TIP3   OH226061   4.753   5.393   3.669
 8707TIP3    H126062   4.821   5.334   3.637
 8707TIP3    H226063   4.788   5.481   3.657
 8708TIP3   OH226064   3.379   5.107   4.014
 8708TIP3    H126065   3.289   5.073   4.021
 8708TIP3    H226066   3.433   5.028   4.009
 8709TIP3   OH226067   3.189   5.006   3.665
 8709TIP3    H126068   3.217   5.057   3.589
 8709TIP3    H226069   3.156   5.072   3.727
 8710TIP3   OH226070   3.843   5.162   3.908
 8710TIP3    H126071   3.897   5.203   3.840
 8710TIP3    H226072   3.887   5.183   3.990
 8711TIP3   OH226073   4.356   5.305   3.879
 8711TIP3    H126074   4.361   5.273   3.789
 8711TIP3    H226075   4.353   5.226   3.933
 8712TIP3   OH226076   4.408   5.237   3.447
 8712TIP3    H126077   4.327   5.284   3.469
 8712TIP3    H226078   4.395   5.150   3.485
 8713TIP3   OH226079   2.878   6.579   3.424
 8713TIP3    H126080   2.793   6.544   3.399
 8713TIP3    H226081   2.876   6.670   3.394
 8714TIP3   OH226082   3.301   5.142   3.430
 8714TIP3    H126083   3.346   5.080   3.372
 8714TIP3    H226084   3.372   5.197   3.464
 8715TIP3   OH226085   3.793   5.336   3.525
 8715TIP3    H126086   3.850   5.284   3.581
 8715TIP3    H226087   3.809   5.426   3.552
 8716TIP3   OH226088   3.670   6.735   3.021
 8716TIP3    H126089   3.755   6.762   2.985
 8716TIP3    H226090   3.642   6.663   2.965
 8717TIP3   OH226091   4.376   6.874   3.119
 8717TIP3    H126092   4.368   6.779   3.111
 8717TIP3    H226093   4.334   6.908   3.040
 8718TIP3   OH226094   3.601   5.395   4.893
 8718TIP3    H126095   3.566   5.328   4.952
 8718TIP3    H226096   3.694   5.400   4.915
 8719TIP3   OH226097   3.852   5.399   5.013
 8719TIP3    H126098   3.929   5.374   4.962
 8719TIP3    H226099   3.845   5.332   5.081
 8720TIP3   OH226100   2.974   6.578   3.079
 8720TIP3    H126101   2.974   6.583   3.174
 8720TIP3    H226102   3.056   6.533   3.057
 8721TIP3   OH226103   4.677   5.482   4.808
 8721TIP3    H126104   4.690   5.451   4.898
 8721TIP3    H226105   4.763   5.475   4.768
 8722TIP3   OH226106   4.593   7.013   4.310
 8722TIP3    H126107   4.520   6.983   4.256
 8722TIP3    H226108   4.582   7.108   4.315
 8723TIP3   OH226109   5.870   6.400   3.052
 8723TIP3    H126110   5.841   6.487   3.027
 8723TIP3    H226111   5.798   6.342   3.028
 8724TIP3   OH226112   5.866   6.389   3.470
 8724TIP3    H126113   5.916   6.375   3.551
 8724TIP3    H226114   5.823   6.306   3.453
 8725TIP3   OH226115   5.166   6.259   3.824
 8725TIP3    H126116   5.202   6.206   3.896
 8725TIP3    H226117   5.242   6.294   3.780
 8726TIP3   OH226118   6.131   6.702   3.148
 8726TIP3    H126119   6.120   6.636   3.216
 8726TIP3    H226120   6.156   6.781   3.195
 8727TIP3   OH226121   5.149   6.687   3.530
 8727TIP3    H126122   5.136   6.592   3.529
 8727TIP3    H226123   5.243   6.699   3.515
 8728TIP3   OH226124   4.843   5.888   3.297
 8728TIP3    H126125   4.805   5.972   3.322
 8728TIP3    H226126   4.771   5.839   3.258
 8729TIP3   OH226127   4.917   6.196   3.508
 8729TIP3    H126128   4.967   6.119   3.536
 8729TIP3    H226129   4.984   6.259   3.481
 8730TIP3   OH226130   5.779   7.142   3.155
 8730TIP3    H126131   5.815   7.073   3.099
 8730TIP3    H226132   5.756   7.097   3.236
 8731TIP3   OH226133   5.672   6.613   3.484
 8731TIP3    H126134   5.714   6.533   3.452
 8731TIP3    H226135   5.744   6.668   3.514
 8732TIP3   OH226136   6.695   5.939   3.492
 8732TIP3    H126137   6.717   6.022   3.533
 8732TIP3    H226138   6.721   5.950   3.400
 8733TIP3   OH226139   6.084   6.106   3.516
 8733TIP3    H126140   6.120   6.022   3.543
 8733TIP3    H226141   6.047   6.090   3.430
 8734TIP3   OH226142   5.435   5.766   3.478
 8734TIP3    H126143   5.415   5.840   3.420
 8734TIP3    H226144   5.380   5.695   3.446
 8735TIP3   OH226145   6.131   5.864   3.108
 8735TIP3    H126146   6.194   5.856   3.179
 8735TIP3    H226147   6.181   5.898   3.034
 8736TIP3   OH226148   5.059   5.977   3.602
 8736TIP3    H126149   5.142   5.962   3.648
 8736TIP3    H226150   5.065   5.925   3.522
 8737TIP3   OH226151   5.486   6.176   3.414
 8737TIP3    H126152   5.580   6.159   3.423
 8737TIP3    H226153   5.450   6.095   3.380
 8738TIP3   OH226154   6.763   6.155   3.660
 8738TIP3    H126155   6.675   6.193   3.655
 8738TIP3    H226156   6.800   6.190   3.740
 8739TIP3   OH226157   5.418   5.766   3.929
 8739TIP3    H126158   5.366   5.801   3.857
 8739TIP3    H226159   5.364   5.781   4.007
 8740TIP3   OH226160   5.770   6.617   2.908
 8740TIP3    H126161   5.729   6.590   2.826
 8740TIP3    H226162   5.718   6.691   2.939
 8741TIP3   OH226163   5.513   6.543   3.701
 8741TIP3    H126164   5.459   6.614   3.735
 8741TIP3    H226165   5.561   6.582   3.628
 8742TIP3   OH226166   6.296   5.884   3.325
 8742TIP3    H126167   6.257   5.863   3.409
 8742TIP3    H226168   6.354   5.958   3.343
 8743TIP3   OH226169   5.303   5.874   3.700
 8743TIP3    H126170   5.358   5.949   3.724
 8743TIP3    H226171   5.351   5.831   3.628
 8744TIP3   OH226172   5.355   6.750   3.802
 8744TIP3    H126173   5.335   6.836   3.765
 8744TIP3    H226174   5.279   6.728   3.856
 8745TIP3   OH226175   4.730   6.434   3.048
 8745TIP3    H126176   4.694   6.460   2.964
 8745TIP3    H226177   4.753   6.517   3.090
 8746TIP3   OH226178   6.178   6.948   3.290
 8746TIP3    H126179   6.092   6.937   3.329
 8746TIP3    H226180   6.175   7.033   3.246
 8747TIP3   OH226181   6.498   5.831   3.662
 8747TIP3    H126182   6.413   5.857   3.628
 8747TIP3    H226183   6.560   5.858   3.594
 8748TIP3   OH226184   5.760   5.469   3.649
 8748TIP3    H126185   5.752   5.378   3.676
 8748TIP3    H226186   5.686   5.513   3.690
 8749TIP3   OH226187   5.881   6.981   2.949
 8749TIP3    H126188   5.933   6.901   2.938
 8749TIP3    H226189   5.938   7.051   2.918
 8750TIP3   OH226190   6.019   6.751   2.899
 8750TIP3    H126191   5.947   6.688   2.896
 8750TIP3    H226192   6.068   6.727   2.978
 8751TIP3   OH226193   6.403   6.841   3.634
 8751TIP3    H126194   6.388   6.768   3.574
 8751TIP3    H226195   6.383   6.919   3.583
 8752TIP3   OH226196   5.696   6.240   2.902
 8752TIP3    H126197   5.615   6.287   2.884
 8752TIP3    H226198   5.743   6.241   2.819
 8753TIP3   OH226199   5.662   6.045   2.598
 8753TIP3    H126200   5.728   6.093   2.649
 8753TIP3    H226201   5.713   5.978   2.552
 8754TIP3   OH226202   6.594   6.495   3.495
 8754TIP3    H126203   6.511   6.541   3.496
 8754TIP3    H226204   6.629   6.511   3.407
 8755TIP3   OH226205   6.054   6.327   2.864
 8755TIP3    H126206   6.000   6.356   2.937
 8755TIP3    H226207   6.137   6.302   2.904
 8756TIP3   OH226208   6.283   6.360   3.803
 8756TIP3    H126209   6.281   6.442   3.851
 8756TIP3    H226210   6.200   6.358   3.755
 8757TIP3   OH226211   5.284   6.313   3.272
 8757TIP3    H126212   5.248   6.253   3.207
 8757TIP3    H226213   5.357   6.265   3.311
 8758TIP3   OH226214   5.413   6.722   3.419
 8758TIP3    H126215   5.393   6.706   3.327
 8758TIP3    H226216   5.501   6.687   3.431
 8759TIP3   OH226217   5.387   6.306   3.643
 8759TIP3    H126218   5.426   6.271   3.562
 8759TIP3    H226219   5.436   6.386   3.661
 8760TIP3   OH226220   5.941   6.930   3.418
 8760TIP3    H126221   5.919   7.012   3.462
 8760TIP3    H226222   5.923   6.862   3.483
 8761TIP3   OH226223   5.550   6.849   3.973
 8761TIP3    H126224   5.486   6.908   4.013
 8761TIP3    H226225   5.498   6.796   3.912
 8762TIP3   OH226226   5.885   6.190   2.695
 8762TIP3    H126227   5.945   6.247   2.744
 8762TIP3    H226228   5.912   6.199   2.604
 8763TIP3   OH226229   5.316   6.400   4.079
 8763TIP3    H126230   5.320   6.489   4.114
 8763TIP3    H226231   5.223   6.377   4.083
 8764TIP3   OH226232   5.636   6.855   2.955
 8764TIP3    H126233   5.716   6.906   2.962
 8764TIP3    H226234   5.572   6.916   2.919
 8765TIP3   OH226235   5.339   7.013   4.046
 8765TIP3    H126236   5.308   7.021   3.956
 8765TIP3    H226237   5.259   6.993   4.096
 8766TIP3   OH226238   6.396   5.419   2.748
 8766TIP3    H126239   6.319   5.439   2.801
 8766TIP3    H226240   6.409   5.496   2.694
 8767TIP3   OH226241   5.158   6.156   3.068
 8767TIP3    H126242   5.081   6.203   3.036
 8767TIP3    H226243   5.125   6.069   3.092
 8768TIP3   OH226244   6.216   6.789   2.304
 8768TIP3    H126245   6.213   6.883   2.286
 8768TIP3    H226246   6.305   6.763   2.282
 8769TIP3   OH226247   4.935   6.556   4.000
 8769TIP3    H126248   4.868   6.537   3.934
 8769TIP3    H226249   4.972   6.470   4.021
 8770TIP3   OH226250   4.820   6.734   3.634
 8770TIP3    H126251   4.908   6.717   3.601
 8770TIP3    H226252   4.832   6.807   3.696
 8771TIP3   OH226253   6.643   7.222   3.719
 8771TIP3    H126254   6.636   7.126   3.727
 8771TIP3    H226255   6.595   7.256   3.794
 8772TIP3   OH226256   5.740   6.986   3.828
 8772TIP3    H126257   5.734   7.077   3.856
 8772TIP3    H226258   5.673   6.940   3.878
 8773TIP3   OH226259   5.521   7.094   2.779
 8773TIP3    H126260   5.468   7.076   2.701
 8773TIP3    H226261   5.487   7.177   2.812
 8774TIP3   OH226262   4.947   6.958   3.155
 8774TIP3    H126263   5.002   6.951   3.233
 8774TIP3    H226264   4.899   6.875   3.151
 8775TIP3   OH226265   5.722   7.013   2.409
 8775TIP3    H126266   5.773   6.940   2.374
 8775TIP3    H226267   5.756   7.026   2.497
 8776TIP3   OH226268   5.774   7.058   2.678
 8776TIP3    H126269   5.688   7.064   2.720
 8776TIP3    H226270   5.831   7.024   2.747
 8777TIP3   OH226271   6.526   6.319   3.972
 8777TIP3    H126272   6.445   6.328   3.921
 8777TIP3    H226273   6.547   6.226   3.967
 8778TIP3   OH226274   5.139   6.740   3.975
 8778TIP3    H126275   5.190   6.724   4.054
 8778TIP3    H226276   5.066   6.678   3.980
 8779TIP3   OH226277   5.525   5.554   3.783
 8779TIP3    H126278   5.442   5.523   3.748
 8779TIP3    H226279   5.503   5.634   3.831
 8780TIP3   OH226280   6.066   5.668   3.981
 8780TIP3    H126281   6.137   5.645   4.041
 8780TIP3    H226282   5.986   5.653   4.031
 8781TIP3   OH226283   6.289   6.093   3.889
 8781TIP3    H126284   6.248   6.090   3.975
 8781TIP3    H226285   6.273   6.182   3.858
 8782TIP3   OH226286   5.962   6.185   2.432
 8782TIP3    H126287   5.923   6.181   2.345
 8782TIP3    H226288   6.044   6.233   2.419
 8783TIP3   OH226289   5.672   5.595   2.747
 8783TIP3    H126290   5.639   5.601   2.837
 8783TIP3    H226291   5.635   5.513   2.713
 8784TIP3   OH226292   5.459   6.082   3.791
 8784TIP3    H126293   5.415   6.091   3.875
 8784TIP3    H226294   5.438   6.163   3.744
 8785TIP3   OH226295   5.343   5.961   3.309
 8785TIP3    H126296   5.254   5.938   3.334
 8785TIP3    H226297   5.353   5.925   3.221
 8786TIP3   OH226298   5.825   6.037   3.037
 8786TIP3    H126299   5.777   6.109   2.996
 8786TIP3    H226300   5.884   6.005   2.968
 8787TIP3   OH226301   6.007   6.303   4.117
 8787TIP3    H126302   5.981   6.235   4.178
 8787TIP3    H226303   6.100   6.319   4.135
 8788TIP3   OH226304   5.990   6.053   3.264
 8788TIP3    H126305   5.923   6.077   3.201
 8788TIP3    H226306   6.035   5.979   3.224
 8789TIP3   OH226307   5.298   6.093   4.015
 8789TIP3    H126308   5.327   6.153   4.084
 8789TIP3    H226309   5.280   6.011   4.060
 8790TIP3   OH226310   5.336   5.575   2.721
 8790TIP3    H126311   5.328   5.577   2.816
 8790TIP3    H226312   5.259   5.622   2.689
 8791TIP3   OH226313   4.883   5.615   3.589
 8791TIP3    H126314   4.953   5.653   3.643
 8791TIP3    H226315   4.924   5.596   3.505
 8792TIP3   OH226316   4.807   5.595   3.096
 8792TIP3    H126317   4.852   5.631   3.020
 8792TIP3    H226318   4.745   5.664   3.121
 8793TIP3   OH226319   6.025   6.306   3.690
 8793TIP3    H126320   6.051   6.239   3.627
 8793TIP3    H226321   5.984   6.257   3.761
 8794TIP3   OH226322   5.700   5.755   3.361
 8794TIP3    H126323   5.623   5.756   3.417
 8794TIP3    H226324   5.774   5.748   3.421
 8795TIP3   OH226325   5.105   5.837   3.370
 8795TIP3    H126326   5.016   5.841   3.336
 8795TIP3    H226327   5.133   5.747   3.354
 8796TIP3   OH226328   5.359   5.834   3.065
 8796TIP3    H126329   5.453   5.847   3.053
 8796TIP3    H226330   5.320   5.854   2.980
 8797TIP3   OH226331   6.160   5.842   3.567
 8797TIP3    H126332   6.140   5.858   3.659
 8797TIP3    H226333   6.091   5.782   3.538
 8798TIP3   OH226334   5.236   5.862   2.822
 8798TIP3    H126335   5.170   5.815   2.770
 8798TIP3    H226336   5.290   5.907   2.756
 8799TIP3   OH226337   6.339   7.551   3.813
 8799TIP3    H126338   6.366   7.534   3.723
 8799TIP3    H226339   6.389   7.488   3.865
 8800TIP3   OH226340   5.296   6.658   4.203
 8800TIP3    H126341   5.374   6.684   4.252
 8800TIP3    H226342   5.228   6.649   4.269
 8801TIP3   OH226343   5.756   6.117   3.470
 8801TIP3    H126344   5.825   6.069   3.424
 8801TIP3    H226345   5.754   6.078   3.558
 8802TIP3   OH226346   5.252   5.590   3.355
 8802TIP3    H126347   5.221   5.515   3.406
 8802TIP3    H226348   5.283   5.553   3.273
 8803TIP3   OH226349   5.728   6.024   3.739
 8803TIP3    H126350   5.640   6.056   3.761
 8803TIP3    H226351   5.787   6.078   3.792
 8804TIP3   OH226352   5.462   6.385   2.849
 8804TIP3    H126353   5.388   6.327   2.827
 8804TIP3    H226354   5.436   6.426   2.931
 8805TIP3   OH226355   6.357   6.633   3.457
 8805TIP3    H126356   6.391   6.682   3.382
 8805TIP3    H226357   6.275   6.594   3.425
 8806TIP3   OH226358   5.925   5.698   2.740
 8806TIP3    H126359   5.831   5.678   2.741
 8806TIP3    H226360   5.929   5.792   2.757
 8807TIP3   OH226361   5.860   6.711   3.861
 8807TIP3    H126362   5.914   6.703   3.940
 8807TIP3    H226363   5.826   6.800   3.865
 8808TIP3   OH226364   5.988   5.958   2.819
 8808TIP3    H126365   6.083   5.962   2.831
 8808TIP3    H226366   5.967   6.037   2.769
 8809TIP3   OH226367   5.152   6.395   3.504
 8809TIP3    H126368   5.190   6.381   3.417
 8809TIP3    H226369   5.219   6.364   3.565
 8810TIP3   OH226370   5.613   6.542   2.681
 8810TIP3    H126371   5.566   6.625   2.682
 8810TIP3    H226372   5.560   6.485   2.737
 8811TIP3   OH226373   5.044   6.332   4.133
 8811TIP3    H126374   5.065   6.310   4.223
 8811TIP3    H226375   4.972   6.274   4.109
 8812TIP3   OH226376   5.770   6.453   4.144
 8812TIP3    H126377   5.703   6.392   4.114
 8812TIP3    H226378   5.853   6.412   4.117
 8813TIP3   OH226379   6.011   6.979   3.757
 8813TIP3    H126380   5.915   6.980   3.765
 8813TIP3    H226381   6.042   7.035   3.828
 8814TIP3   OH226382   6.410   6.046   2.643
 8814TIP3    H126383   6.354   6.000   2.581
 8814TIP3    H226384   6.413   6.136   2.610
 8815TIP3   OH226385   6.649   6.917   3.726
 8815TIP3    H126386   6.554   6.907   3.718
 8815TIP3    H226387   6.684   6.890   3.641
 8816TIP3   OH226388   6.140   6.864   2.571
 8816TIP3    H126389   6.114   6.797   2.635
 8816TIP3    H226390   6.157   6.815   2.491
 8817TIP3   OH226391   6.123   6.500   3.356
 8817TIP3    H126392   6.033   6.479   3.380
 8817TIP3    H226393   6.158   6.419   3.319
 8818TIP3   OH226394   5.267   6.746   3.170
 8818TIP3    H126395   5.263   6.811   3.100
 8818TIP3    H226396   5.208   6.780   3.237
 8819TIP3   OH226397   4.833   6.021   2.871
 8819TIP3    H126398   4.878   6.103   2.892
 8819TIP3    H226399   4.754   6.022   2.925
 8820TIP3   OH226400   5.359   6.498   3.075
 8820TIP3    H126401   5.333   6.585   3.104
 8820TIP3    H226402   5.336   6.441   3.148
 8821TIP3   OH226403   5.541   7.066   3.631
 8821TIP3    H126404   5.576   7.137   3.578
 8821TIP3    H226405   5.617   7.030   3.676
 8822TIP3   OH226406   5.178   6.964   3.000
 8822TIP3    H126407   5.094   6.966   3.045
 8822TIP3    H226408   5.211   7.054   3.008
 8823TIP3   OH226409   5.911   6.710   3.590
 8823TIP3    H126410   5.897   6.707   3.684
 8823TIP3    H226411   5.994   6.664   3.577
 8824TIP3   OH226412   5.899   6.597   2.468
 8824TIP3    H126413   5.958   6.570   2.538
 8824TIP3    H226414   5.813   6.566   2.496
 8825TIP3   OH226415   6.138   7.230   3.620
 8825TIP3    H126416   6.059   7.178   3.606
 8825TIP3    H226417   6.136   7.297   3.551
 8826TIP3   OH226418   6.222   7.064   2.272
 8826TIP3    H126419   6.255   7.131   2.212
 8826TIP3    H226420   6.147   7.106   2.315
 8827TIP3   OH226421   5.249   5.838   4.139
 8827TIP3    H126422   5.154   5.847   4.147
 8827TIP3    H226423   5.275   5.787   4.216
 8828TIP3   OH226424   6.078   6.510   2.654
 8828TIP3    H126425   6.062   6.458   2.732
 8828TIP3    H226426   6.174   6.519   2.650
 8829TIP3   OH226427   4.966   6.931   3.786
 8829TIP3    H126428   5.031   6.881   3.835
 8829TIP3    H226429   4.975   7.021   3.818
 8830TIP3   OH226430   5.249   6.566   2.469
 8830TIP3    H126431   5.263   6.474   2.443
 8830TIP3    H226432   5.236   6.562   2.564
 8831TIP3   OH226433   5.198   6.581   2.742
 8831TIP3    H126434   5.260   6.552   2.810
 8831TIP3    H226435   5.198   6.676   2.749
 8832TIP3   OH226436   4.932   6.270   2.951
 8832TIP3    H126437   4.867   6.315   3.004
 8832TIP3    H226438   4.952   6.331   2.880
 8833TIP3   OH226439   6.098   5.898   3.829
 8833TIP3    H126440   6.174   5.945   3.863
 8833TIP3    H226441   6.088   5.823   3.887
 8834TIP3   OH226442   5.983   5.647   3.012
 8834TIP3    H126443   5.964   5.667   2.920
 8834TIP3    H226444   6.026   5.726   3.045
 8835TIP3   OH226445   5.468   6.771   2.681
 8835TIP3    H126446   5.382   6.792   2.719
 8835TIP3    H226447   5.492   6.848   2.631
 8836TIP3   OH226448   5.639   5.845   3.105
 8836TIP3    H126449   5.702   5.913   3.081
 8836TIP3    H226450   5.658   5.826   3.197
 8837TIP3   OH226451   5.935   6.141   3.891
 8837TIP3    H126452   5.957   6.185   3.973
 8837TIP3    H226453   5.984   6.059   3.893
 8838TIP3   OH226454   5.801   5.545   3.196
 8838TIP3    H126455   5.779   5.622   3.248
 8838TIP3    H226456   5.869   5.575   3.136
 8839TIP3   OH226457   5.214   6.853   2.754
 8839TIP3    H126458   5.192   6.924   2.693
 8839TIP3    H226459   5.199   6.891   2.840
 8840TIP3   OH226460   5.315   5.563   3.000
 8840TIP3    H126461   5.303   5.653   3.031
 8840TIP3    H226462   5.409   5.547   3.006
 8841TIP3   OH226463   6.556   6.048   3.883
 8841TIP3    H126464   6.461   6.052   3.890
 8841TIP3    H226465   6.573   5.998   3.803
 8842TIP3   OH226466   6.215   6.244   3.265
 8842TIP3    H126467   6.138   6.188   3.278
 8842TIP3    H226468   6.283   6.203   3.318
 8843TIP3   OH226469   4.949   6.454   2.739
 8843TIP3    H126470   5.019   6.519   2.750
 8843TIP3    H226471   4.984   6.392   2.675
 8844TIP3   OH226472   4.864   5.744   2.872
 8844TIP3    H126473   4.875   5.838   2.879
 8844TIP3    H226474   4.791   5.732   2.811
 8845TIP3   OH226475   6.194   7.217   3.208
 8845TIP3    H126476   6.154   7.265   3.136
 8845TIP3    H226477   6.288   7.229   3.196
 8846TIP3   OH226478   5.263   5.473   3.735
 8846TIP3    H126479   5.233   5.439   3.650
 8846TIP3    H226480   5.253   5.399   3.795
 8847TIP3   OH226481   4.775   6.696   3.140
 8847TIP3    H126482   4.745   6.744   3.218
 8847TIP3    H226483   4.742   6.747   3.067
 8848TIP3   OH226484   4.978   7.252   4.204
 8848TIP3    H126485   5.062   7.255   4.250
 8848TIP3    H226486   4.964   7.160   4.185
 8849TIP3   OH226487   5.446   7.170   4.248
 8849TIP3    H126488   5.541   7.170   4.239
 8849TIP3    H226489   5.415   7.119   4.174
 8850TIP3   OH226490   5.414   6.759   2.361
 8850TIP3    H126491   5.363   6.693   2.408
 8850TIP3    H226492   5.491   6.711   2.330
 8851TIP3   OH226493   6.083   7.106   3.995
 8851TIP3    H126494   6.076   7.032   4.055
 8851TIP3    H226495   6.175   7.133   4.000
 8852TIP3   OH226496   5.854   6.803   2.290
 8852TIP3    H126497   5.886   6.739   2.353
 8852TIP3    H226498   5.916   6.799   2.218
 8853TIP3   OH226499   5.093   6.621   4.390
 8853TIP3    H126500   5.112   6.528   4.390
 8853TIP3    H226501   5.007   6.628   4.349
 8854TIP3   OH226502   5.080   6.266   2.591
 8854TIP3    H126503   5.132   6.242   2.669
 8854TIP3    H226504   5.145   6.277   2.522
 8855TIP3   OH226505   5.701   6.725   4.172
 8855TIP3    H126506   5.658   6.752   4.091
 8855TIP3    H226507   5.734   6.637   4.154
 8856TIP3   OH226508   5.608   6.489   2.410
 8856TIP3    H126509   5.600   6.501   2.505
 8856TIP3    H226510   5.603   6.394   2.398
 8857TIP3   OH226511   6.182   6.762   3.783
 8857TIP3    H126512   6.259   6.795   3.736
 8857TIP3    H226513   6.116   6.830   3.771
 8858TIP3   OH226514   5.228   6.363   4.379
 8858TIP3    H126515   5.308   6.320   4.349
 8858TIP3    H226516   5.246   6.387   4.470
 8859TIP3   OH226517   5.256   6.203   2.802
 8859TIP3    H126518   5.233   6.174   2.891
 8859TIP3    H226519   5.301   6.128   2.763
 8860TIP3   OH226520   5.562   6.276   4.047
 8860TIP3    H126521   5.479   6.323   4.054
 8860TIP3    H226522   5.598   6.303   3.962
 8861TIP3   OH226523   5.389   6.010   2.648
 8861TIP3    H126524   5.360   6.015   2.557
 8861TIP3    H226525   5.484   6.018   2.643
 8862TIP3   OH226526   6.068   6.652   4.149
 8862TIP3    H126527   6.139   6.618   4.095
 8862TIP3    H226528   6.066   6.595   4.226
 8863TIP3   OH226529   6.187   6.310   2.326
 8863TIP3    H126530   6.173   6.268   2.241
 8863TIP3    H226531   6.160   6.401   2.312
 8864TIP3   OH226532   5.668   6.057   4.174
 8864TIP3    H126533   5.671   5.983   4.114
 8864TIP3    H226534   5.630   6.128   4.121
 8865TIP3   OH226535   5.678   5.849   3.970
 8865TIP3    H126536   5.706   5.888   3.887
 8865TIP3    H226537   5.587   5.824   3.955
 8866TIP3   OH226538   5.689   6.373   3.828
 8866TIP3    H126539   5.777   6.407   3.815
 8866TIP3    H226540   5.632   6.437   3.786
 8867TIP3   OH226541   6.277   6.333   4.212
 8867TIP3    H126542   6.317   6.247   4.224
 8867TIP3    H226543   6.350   6.389   4.186
 8868TIP3   OH226544   6.311   6.598   3.955
 8868TIP3    H126545   6.256   6.656   3.903
 8868TIP3    H226546   6.401   6.616   3.925
 8869TIP3   OH226547   5.484   6.174   4.376
 8869TIP3    H126548   5.454   6.093   4.416
 8869TIP3    H226549   5.556   6.148   4.319
 8870TIP3   OH226550   5.800   5.614   4.066
 8870TIP3    H126551   5.759   5.694   4.035
 8870TIP3    H226552   5.734   5.546   4.052
 8871TIP3   OH226553   5.930   6.081   4.259
 8871TIP3    H126554   5.940   6.016   4.328
 8871TIP3    H226555   5.837   6.078   4.236
 8872TIP3   OH226556   6.173   6.047   4.126
 8872TIP3    H126557   6.094   6.046   4.179
 8872TIP3    H226558   6.243   6.021   4.187
 8873TIP3   OH226559   6.403   6.010   4.284
 8873TIP3    H126560   6.418   5.916   4.293
 8873TIP3    H226561   6.394   6.041   4.375
 8874TIP3   OH226562   5.389   5.925   4.471
 8874TIP3    H126563   5.398   5.838   4.431
 8874TIP3    H226564   5.434   5.917   4.555
 8875TIP3   OH226565   5.879   5.607   4.331
 8875TIP3    H126566   5.948   5.541   4.324
 8875TIP3    H226567   5.844   5.615   4.243
 8876TIP3   OH226568   5.952   5.865   4.427
 8876TIP3    H126569   5.927   5.776   4.401
 8876TIP3    H226570   5.904   5.880   4.508
 8877TIP3   OH226571   5.206   7.058   2.567
 8877TIP3    H126572   5.296   7.039   2.543
 8877TIP3    H226573   5.172   7.108   2.492
 8878TIP3   OH226574   4.675   6.444   2.747
 8878TIP3    H126575   4.770   6.456   2.751
 8878TIP3    H226576   4.664   6.354   2.715
 8879TIP3   OH226577   4.580   7.031   3.218
 8879TIP3    H126578   4.518   6.972   3.174
 8879TIP3    H226579   4.632   6.974   3.273
 8880TIP3   OH226580   4.741   6.869   3.379
 8880TIP3    H126581   4.731   6.807   3.452
 8880TIP3    H226582   4.796   6.939   3.414
 8881TIP3   OH226583   6.465   7.271   3.201
 8881TIP3    H126584   6.486   7.295   3.291
 8881TIP3    H226585   6.522   7.326   3.148
 8882TIP3   OH226586   6.492   7.296   3.485
 8882TIP3    H126587   6.438   7.216   3.483
 8882TIP3    H226588   6.553   7.281   3.557
 8883TIP3   OH226589   6.512   7.020   4.067
 8883TIP3    H126590   6.439   7.023   4.129
 8883TIP3    H226591   6.513   7.107   4.027
 8884TIP3   OH226592   6.357   6.513   2.654
 8884TIP3    H126593   6.416   6.582   2.626
 8884TIP3    H226594   6.399   6.475   2.731
 8885TIP3   OH226595   6.479   6.369   2.857
 8885TIP3    H126596   6.412   6.331   2.914
 8885TIP3    H226597   6.544   6.405   2.918
 8886TIP3   OH226598   6.531   6.770   3.289
 8886TIP3    H126599   6.585   6.702   3.248
 8886TIP3    H226600   6.531   6.841   3.224
 8887TIP3   OH226601   6.332   7.068   3.495
 8887TIP3    H126602   6.264   7.112   3.547
 8887TIP3    H226603   6.284   7.028   3.422
 8888TIP3   OH226604   6.395   6.285   2.504
 8888TIP3    H126605   6.323   6.286   2.441
 8888TIP3    H226606   6.380   6.363   2.558
 8889TIP3   OH226607   6.258   5.937   2.443
 8889TIP3    H126608   6.209   5.976   2.370
 8889TIP3    H226609   6.246   5.843   2.431
 8890TIP3   OH226610   6.280   6.230   2.996
 8890TIP3    H126611   6.287   6.135   2.986
 8890TIP3    H226612   6.262   6.243   3.089
 8891TIP3   OH226613   4.903   6.298   3.763
 8891TIP3    H126614   4.894   6.265   3.674
 8891TIP3    H226615   4.997   6.294   3.781
 8892TIP3   OH226616   6.568   6.658   3.865
 8892TIP3    H126617   6.633   6.590   3.849
 8892TIP3    H226618   6.586   6.725   3.798
 8893TIP3   OH226619   6.740   6.442   3.852
 8893TIP3    H126620   6.665   6.400   3.896
 8893TIP3    H226621   6.814   6.385   3.871
 8894TIP3   OH226622   6.214   5.665   2.412
 8894TIP3    H126623   6.278   5.642   2.478
 8894TIP3    H226624   6.132   5.626   2.442
 8895TIP3   OH226625   6.277   5.951   2.880
 8895TIP3    H126626   6.322   5.867   2.895
 8895TIP3    H226627   6.322   5.990   2.806
 8896TIP3   OH226628   6.430   6.119   3.399
 8896TIP3    H126629   6.511   6.137   3.352
 8896TIP3    H226630   6.444   6.157   3.486
 8897TIP3   OH226631   6.504   6.269   3.628
 8897TIP3    H126632   6.430   6.299   3.681
 8897TIP3    H226633   6.536   6.348   3.585
 8898TIP3   OH226634   5.124   5.975   4.409
 8898TIP3    H126635   5.218   5.972   4.425
 8898TIP3    H226636   5.091   5.895   4.449
 8899TIP3   OH226637   6.963   5.867   4.172
 8899TIP3    H126638   7.025   5.808   4.128
 8899TIP3    H226639   6.924   5.918   4.101
 8900TIP3   OH226640   6.392   5.701   2.933
 8900TIP3    H126641   6.438   5.686   3.016
 8900TIP3    H226642   6.329   5.629   2.927
 8901TIP3   OH226643   5.092   5.690   3.758
 8901TIP3    H126644   5.148   5.613   3.762
 8901TIP3    H226645   5.152   5.763   3.744
 8902TIP3   OH226646   4.878   5.952   3.819
 8902TIP3    H126647   4.930   5.947   3.738
 8902TIP3    H226648   4.908   6.032   3.861
 8903TIP3   OH226649   6.814   5.985   3.975
 8903TIP3    H126650   6.730   6.025   3.994
 8903TIP3    H226651   6.794   5.910   3.920
 8904TIP3   OH226652   6.441   5.623   2.568
 8904TIP3    H126653   6.487   5.560   2.513
 8904TIP3    H226654   6.501   5.698   2.573
 8905TIP3   OH226655   4.867   5.455   3.323
 8905TIP3    H126656   4.780   5.446   3.363
 8905TIP3    H226657   4.852   5.512   3.247
 8906TIP3   OH226658   6.024   7.177   2.833
 8906TIP3    H126659   6.081   7.166   2.758
 8906TIP3    H226660   6.066   7.243   2.887
 8907TIP3   OH226661   5.083   5.512   4.141
 8907TIP3    H126662   5.035   5.513   4.224
 8907TIP3    H226663   5.029   5.564   4.081
 8908TIP3   OH226664   5.117   6.978   4.216
 8908TIP3    H126665   5.027   6.956   4.193
 8908TIP3    H226666   5.125   6.956   4.309
 8909TIP3   OH226667   5.297   7.026   3.757
 8909TIP3    H126668   5.235   7.079   3.707
 8909TIP3    H226669   5.382   7.045   3.717
 8910TIP3   OH226670   5.738   7.254   3.907
 8910TIP3    H126671   5.777   7.244   3.993
 8910TIP3    H226672   5.804   7.300   3.855
 8911TIP3   OH226673   5.935   7.394   3.772
 8911TIP3    H126674   6.004   7.341   3.733
 8911TIP3    H226675   5.982   7.454   3.830
 8912TIP3   OH226676   6.725   5.742   3.863
 8912TIP3    H126677   6.639   5.736   3.821
 8912TIP3    H226678   6.763   5.655   3.853
 8913TIP3   OH226679   4.967   7.201   3.851
 8913TIP3    H126680   4.913   7.245   3.786
 8913TIP3    H226681   5.014   7.272   3.895
 8914TIP3   OH226682   5.630   7.266   3.454
 8914TIP3    H126683   5.554   7.273   3.397
 8914TIP3    H226684   5.640   7.354   3.492
 8915TIP3   OH226685   5.894   7.196   3.489
 8915TIP3    H126686   5.800   7.214   3.478
 8915TIP3    H226687   5.937   7.266   3.441
 8916TIP3   OH226688   6.119   7.398   3.404
 8916TIP3    H126689   6.110   7.483   3.360
 8916TIP3    H226690   6.143   7.337   3.334
 8917TIP3   OH226691   4.895   7.054   3.543
 8917TIP3    H126692   4.932   7.006   3.617
 8917TIP3    H226693   4.964   7.116   3.518
 8918TIP3   OH226694   5.120   6.911   3.362
 8918TIP3    H126695   5.120   6.846   3.433
 8918TIP3    H226696   5.153   6.991   3.402
 8919TIP3   OH226697   5.429   7.006   3.377
 8919TIP3    H126698   5.415   6.911   3.376
 8919TIP3    H226699   5.445   7.028   3.468
 8920TIP3   OH226700   5.931   5.667   3.495
 8920TIP3    H126701   5.891   5.596   3.545
 8920TIP3    H226702   5.999   5.624   3.443
 8921TIP3   OH226703   6.434   5.554   3.384
 8921TIP3    H126704   6.478   5.605   3.316
 8921TIP3    H226705   6.347   5.592   3.390
 8922TIP3   OH226706   6.552   5.648   3.153
 8922TIP3    H126707   6.622   5.587   3.131
 8922TIP3    H226708   6.590   5.734   3.140
 8923TIP3   OH226709   5.172   5.365   3.496
 8923TIP3    H126710   5.082   5.333   3.503
 8923TIP3    H226711   5.225   5.286   3.487
 8924TIP3   OH226712   4.986   5.261   3.150
 8924TIP3    H126713   5.014   5.313   3.075
 8924TIP3    H226714   4.951   5.325   3.213
 8925TIP3   OH226715   5.648   5.404   3.390
 8925TIP3    H126716   5.696   5.451   3.323
 8925TIP3    H226717   5.685   5.434   3.473
 8926TIP3   OH226718   6.143   5.547   3.366
 8926TIP3    H126719   6.166   5.513   3.279
 8926TIP3    H226720   6.147   5.471   3.424
 8927TIP3   OH226721   6.203   5.493   2.932
 8927TIP3    H126722   6.123   5.541   2.956
 8927TIP3    H226723   6.192   5.407   2.971
 8928TIP3   OH226724   4.680   6.836   2.925
 8928TIP3    H126725   4.596   6.803   2.895
 8928TIP3    H226726   4.682   6.928   2.897
 8929TIP3   OH226727   5.099   5.399   2.916
 8929TIP3    H126728   5.144   5.338   2.858
 8929TIP3    H226729   5.168   5.454   2.951
 8930TIP3   OH226730   5.590   5.592   3.011
 8930TIP3    H126731   5.650   5.542   3.067
 8930TIP3    H226732   5.604   5.683   3.038
 8931TIP3   OH226733   5.464   6.990   2.504
 8931TIP3    H126734   5.549   7.017   2.469
 8931TIP3    H226735   5.438   6.916   2.449
 8932TIP3   OH226736   6.177   7.133   2.604
 8932TIP3    H126737   6.169   7.038   2.598
 8932TIP3    H226738   6.131   7.166   2.527
 8933TIP3   OH226739   5.389   5.648   4.372
 8933TIP3    H126740   5.351   5.585   4.433
 8933TIP3    H226741   5.481   5.652   4.396
 8934TIP3   OH226742   5.637   5.641   4.488
 8934TIP3    H126743   5.724   5.631   4.449
 8934TIP3    H226744   5.635   5.575   4.558
 8935TIP3   OH226745   4.768   6.837   2.568
 8935TIP3    H126746   4.769   6.845   2.663
 8935TIP3    H226747   4.849   6.792   2.546
 8936TIP3   OH226748   6.471   5.739   4.293
 8936TIP3    H126749   6.486   5.708   4.382
 8936TIP3    H226750   6.556   5.732   4.250
 8937TIP3   OH226751   7.656   6.641   2.547
 8937TIP3    H126752   7.625   6.725   2.513
 8937TIP3    H226753   7.578   6.585   2.544
 8938TIP3   OH226754   7.661   6.644   2.962
 8938TIP3    H126755   7.709   6.624   3.042
 8938TIP3    H226756   7.615   6.562   2.941
 8939TIP3   OH226757   6.963   6.520   3.309
 8939TIP3    H126758   6.996   6.463   3.378
 8939TIP3    H226759   7.042   6.549   3.262
 8940TIP3   OH226760   7.913   6.927   2.621
 8940TIP3    H126761   7.892   6.852   2.676
 8940TIP3    H226762   7.945   6.994   2.682
 8941TIP3   OH226763   6.948   6.943   3.004
 8941TIP3    H126764   6.932   6.849   3.011
 8941TIP3    H226765   7.043   6.951   2.994
 8942TIP3   OH226766   6.640   6.146   2.784
 8942TIP3    H126767   6.600   6.229   2.809
 8942TIP3    H226768   6.568   6.096   2.746
 8943TIP3   OH226769   6.711   6.447   2.994
 8943TIP3    H126770   6.761   6.371   3.023
 8943TIP3    H226771   6.777   6.508   2.961
 8944TIP3   OH226772   7.549   7.450   2.627
 8944TIP3    H126773   7.604   7.392   2.574
 8944TIP3    H226774   7.552   7.412   2.714
 8945TIP3   OH226775   7.462   6.874   2.965
 8945TIP3    H126776   7.501   6.794   2.929
 8945TIP3    H226777   7.537   6.925   2.996
 8946TIP3   OH226778   8.459   6.224   3.006
 8946TIP3    H126779   8.485   6.289   3.071
 8946TIP3    H226780   8.429   6.276   2.931
 8947TIP3   OH226781   7.875   6.359   2.997
 8947TIP3    H126782   7.910   6.275   3.023
 8947TIP3    H226783   7.833   6.343   2.912
 8948TIP3   OH226784   7.234   6.023   2.962
 8948TIP3    H126785   7.211   6.095   2.904
 8948TIP3    H226786   7.179   5.950   2.933
 8949TIP3   OH226787   7.917   6.127   2.597
 8949TIP3    H126788   7.983   6.115   2.665
 8949TIP3    H226789   7.967   6.156   2.520
 8950TIP3   OH226790   6.856   6.232   3.089
 8950TIP3    H126791   6.938   6.214   3.135
 8950TIP3    H226792   6.862   6.181   3.009
 8951TIP3   OH226793   7.279   6.432   2.903
 8951TIP3    H126794   7.373   6.415   2.910
 8951TIP3    H226795   7.243   6.351   2.867
 8952TIP3   OH226796   8.532   6.413   3.179
 8952TIP3    H126797   8.450   6.460   3.193
 8952TIP3    H226798   8.575   6.413   3.264
 8953TIP3   OH226799   7.216   6.021   3.413
 8953TIP3    H126800   7.162   6.056   3.342
 8953TIP3    H226801   7.162   6.031   3.491
 8954TIP3   OH226802   7.540   6.854   2.416
 8954TIP3    H126803   7.513   6.837   2.326
 8954TIP3    H226804   7.507   6.942   2.434
 8955TIP3   OH226805   7.313   6.797   3.185
 8955TIP3    H126806   7.256   6.866   3.220
 8955TIP3    H226807   7.358   6.838   3.111
 8956TIP3   OH226808   8.095   6.134   2.809
 8956TIP3    H126809   8.051   6.111   2.891
 8956TIP3    H226810   8.146   6.212   2.829
 8957TIP3   OH226811   7.101   6.128   3.184
 8957TIP3    H126812   7.156   6.203   3.209
 8957TIP3    H226813   7.148   6.086   3.113
 8958TIP3   OH226814   7.149   6.994   3.289
 8958TIP3    H126815   7.132   7.083   3.258
 8958TIP3    H226816   7.072   6.972   3.342
 8959TIP3   OH226817   6.533   6.699   2.536
 8959TIP3    H126818   6.496   6.719   2.450
 8959TIP3    H226819   6.558   6.784   2.572
 8960TIP3   OH226820   8.005   7.123   2.799
 8960TIP3    H126821   7.921   7.139   2.842
 8960TIP3    H226822   8.016   7.199   2.741
 8961TIP3   OH226823   8.277   6.080   3.160
 8961TIP3    H126824   8.189   6.095   3.127
 8961TIP3    H226825   8.335   6.118   3.095
 8962TIP3   OH226826   7.553   5.715   3.137
 8962TIP3    H126827   7.545   5.623   3.163
 8962TIP3    H226828   7.477   5.758   3.177
 8963TIP3   OH226829   7.693   7.261   2.466
 8963TIP3    H126830   7.739   7.178   2.457
 8963TIP3    H226831   7.694   7.299   2.378
 8964TIP3   OH226832   7.819   7.026   2.380
 8964TIP3    H126833   7.813   6.955   2.317
 8964TIP3    H226834   7.852   6.984   2.460
 8965TIP3   OH226835   8.193   7.074   3.124
 8965TIP3    H126836   8.177   7.009   3.055
 8965TIP3    H226837   8.181   7.158   3.080
 8966TIP3   OH226838   8.367   6.743   2.964
 8966TIP3    H126839   8.289   6.794   2.941
 8966TIP3    H226840   8.438   6.808   2.966
 8967TIP3   OH226841   7.846   6.584   2.356
 8967TIP3    H126842   7.782   6.600   2.425
 8967TIP3    H226843   7.922   6.548   2.402
 8968TIP3   OH226844   8.073   6.621   3.289
 8968TIP3    H126845   8.072   6.699   3.344
 8968TIP3    H226846   7.988   6.621   3.245
 8969TIP3   OH226847   7.075   6.569   2.766
 8969TIP3    H126848   7.038   6.511   2.699
 8969TIP3    H226849   7.148   6.519   2.802
 8970TIP3   OH226850   7.209   6.990   2.898
 8970TIP3    H126851   7.185   6.971   2.808
 8970TIP3    H226852   7.296   6.951   2.909
 8971TIP3   OH226853   7.184   6.560   3.132
 8971TIP3    H126854   7.221   6.525   3.051
 8971TIP3    H226855   7.234   6.640   3.148
 8972TIP3   OH226856   7.768   7.185   2.911
 8972TIP3    H126857   7.734   7.270   2.940
 8972TIP3    H226858   7.731   7.122   2.972
 8973TIP3   OH226859   7.346   7.094   3.455
 8973TIP3    H126860   7.289   7.154   3.502
 8973TIP3    H226861   7.288   7.043   3.400
 8974TIP3   OH226862   7.107   6.649   3.584
 8974TIP3    H126863   7.111   6.742   3.607
 8974TIP3    H226864   7.013   6.629   3.579
 8975TIP3   OH226865   7.451   7.119   2.435
 8975TIP3    H126866   7.519   7.177   2.471
 8975TIP3    H226867   7.382   7.179   2.407
 8976TIP3   OH226868   7.140   7.260   3.539
 8976TIP3    H126869   7.111   7.265   3.448
 8976TIP3    H226870   7.061   7.240   3.588
 8977TIP3   OH226871   8.191   5.683   2.251
 8977TIP3    H126872   8.111   5.702   2.299
 8977TIP3    H226873   8.202   5.757   2.191
 8978TIP3   OH226874   6.951   6.414   2.564
 8978TIP3    H126875   6.875   6.458   2.526
 8978TIP3    H226876   6.921   6.324   2.579
 8979TIP3   OH226877   6.729   6.810   3.488
 8979TIP3    H126878   6.660   6.792   3.424
 8979TIP3    H226879   6.764   6.724   3.510
 8980TIP3   OH226880   6.583   7.000   3.126
 8980TIP3    H126881   6.678   7.008   3.130
 8980TIP3    H226882   6.550   7.076   3.173
 8981TIP3   OH226883   7.530   7.229   3.304
 8981TIP3    H126884   7.529   7.320   3.335
 8981TIP3    H226885   7.464   7.185   3.357
 8982TIP3   OH226886   7.317   7.364   2.257
 8982TIP3    H126887   7.281   7.334   2.173
 8982TIP3    H226888   7.258   7.435   2.284
 8983TIP3   OH226889   6.752   7.197   2.646
 8983TIP3    H126890   6.796   7.190   2.730
 8983TIP3    H226891   6.703   7.115   2.636
 8984TIP3   OH226892   7.519   7.272   1.936
 8984TIP3    H126893   7.575   7.202   1.902
 8984TIP3    H226894   7.552   7.288   2.024
 8985TIP3   OH226895   7.574   7.278   2.207
 8985TIP3    H126896   7.490   7.316   2.231
 8985TIP3    H226897   7.570   7.188   2.238
 8986TIP3   OH226898   8.343   6.559   3.453
 8986TIP3    H126899   8.259   6.579   3.413
 8986TIP3    H226900   8.354   6.465   3.441
 8987TIP3   OH226901   6.930   6.995   3.457
 8987TIP3    H126902   6.978   6.987   3.539
 8987TIP3    H226903   6.858   6.933   3.465
 8988TIP3   OH226904   7.317   5.808   3.262
 8988TIP3    H126905   7.232   5.773   3.235
 8988TIP3    H226906   7.296   5.886   3.312
 8989TIP3   OH226907   7.859   5.923   3.464
 8989TIP3    H126908   7.929   5.904   3.527
 8989TIP3    H226909   7.778   5.907   3.512
 8990TIP3   OH226910   8.066   6.356   3.374
 8990TIP3    H126911   8.028   6.350   3.462
 8990TIP3    H226912   8.055   6.447   3.349
 8991TIP3   OH226913   7.818   6.356   1.926
 8991TIP3    H126914   7.749   6.386   1.867
 8991TIP3    H226915   7.869   6.436   1.945
 8992TIP3   OH226916   7.470   5.847   2.226
 8992TIP3    H126917   7.440   5.859   2.316
 8992TIP3    H226918   7.429   5.765   2.198
 8993TIP3   OH226919   7.257   6.336   3.279
 8993TIP3    H126920   7.210   6.343   3.362
 8993TIP3    H226921   7.236   6.417   3.233
 8994TIP3   OH226922   7.140   6.218   2.794
 8994TIP3    H126923   7.051   6.194   2.818
 8994TIP3    H226924   7.151   6.183   2.706
 8995TIP3   OH226925   7.592   6.307   2.470
 8995TIP3    H126926   7.535   6.337   2.399
 8995TIP3    H226927   7.670   6.275   2.426
 8996TIP3   OH226928   7.808   6.562   3.603
 8996TIP3    H126929   7.779   6.494   3.663
 8996TIP3    H226930   7.901   6.574   3.623
 8997TIP3   OH226931   7.773   6.319   2.741
 8997TIP3    H126932   7.713   6.358   2.677
 8997TIP3    H226933   7.812   6.245   2.694
 8998TIP3   OH226934   7.089   6.350   3.497
 8998TIP3    H126935   7.104   6.413   3.568
 8998TIP3    H226936   7.072   6.267   3.542
 8999TIP3   OH226937   7.128   5.832   2.206
 8999TIP3    H126938   7.123   5.834   2.301
 8999TIP3    H226939   7.051   5.880   2.177
 9000TIP3   OH226940   6.682   5.870   3.074
 9000TIP3    H126941   6.752   5.906   3.130
 9000TIP3    H226942   6.726   5.848   2.992
 9001TIP3   OH226943   6.603   5.852   2.585
 9001TIP3    H126944   6.648   5.887   2.508
 9001TIP3    H226945   6.541   5.921   2.610
 9002TIP3   OH226946   7.819   6.558   3.176
 9002TIP3    H126947   7.846   6.491   3.113
 9002TIP3    H226948   7.781   6.508   3.248
 9003TIP3   OH226949   7.503   6.021   2.846
 9003TIP3    H126950   7.423   6.019   2.899
 9003TIP3    H226951   7.574   6.007   2.908
 9004TIP3   OH226952   6.902   6.093   2.856
 9004TIP3    H126953   6.813   6.097   2.822
 9004TIP3    H226954   6.929   6.003   2.842
 9005TIP3   OH226955   7.158   6.093   2.551
 9005TIP3    H126956   7.252   6.106   2.535
 9005TIP3    H226957   7.117   6.110   2.466
 9006TIP3   OH226958   7.955   6.095   3.049
 9006TIP3    H126959   7.934   6.112   3.141
 9006TIP3    H226960   7.887   6.035   3.020
 9007TIP3   OH226961   7.024   6.112   2.314
 9007TIP3    H126962   6.959   6.067   2.260
 9007TIP3    H226963   7.076   6.161   2.250
 9008TIP3   OH226964   7.092   6.910   3.689
 9008TIP3    H126965   7.172   6.930   3.738
 9008TIP3    H226966   7.022   6.918   3.754
 9009TIP3   OH226967   7.549   6.376   2.956
 9009TIP3    H126968   7.611   6.322   2.906
 9009TIP3    H226969   7.547   6.337   3.043
 9010TIP3   OH226970   7.047   5.844   2.848
 9010TIP3    H126971   7.017   5.768   2.898
 9010TIP3    H226972   7.078   5.806   2.765
 9011TIP3   OH226973   7.525   6.284   3.222
 9011TIP3    H126974   7.437   6.312   3.246
 9011TIP3    H226975   7.583   6.336   3.278
 9012TIP3   OH226976   7.220   6.694   2.312
 9012TIP3    H126977   7.187   6.605   2.304
 9012TIP3    H226978   7.225   6.709   2.407
 9013TIP3   OH226979   8.134   6.901   2.916
 9013TIP3    H126980   8.103   6.976   2.863
 9013TIP3    H226981   8.063   6.837   2.909
 9014TIP3   OH226982   7.709   5.982   2.198
 9014TIP3    H126983   7.617   5.960   2.212
 9014TIP3    H226984   7.717   6.073   2.227
 9015TIP3   OH226985   7.663   6.966   3.345
 9015TIP3    H126986   7.707   6.954   3.429
 9015TIP3    H226987   7.617   7.050   3.355
 9016TIP3   OH226988   7.794   6.231   2.295
 9016TIP3    H126989   7.888   6.244   2.304
 9016TIP3    H226990   7.764   6.305   2.243
 9017TIP3   OH226991   6.950   6.658   2.995
 9017TIP3    H126992   6.988   6.638   2.909
 9017TIP3    H226993   7.013   6.622   3.058
 9018TIP3   OH226994   7.417   6.809   2.155
 9018TIP3    H126995   7.377   6.895   2.163
 9018TIP3    H226996   7.362   6.751   2.208
 9019TIP3   OH226997   6.835   6.583   3.620
 9019TIP3    H126998   6.843   6.563   3.713
 9019TIP3    H226999   6.761   6.530   3.590
 9020TIP3   OH227000   7.571   6.711   3.638
 9020TIP3    H127001   7.503   6.650   3.609
 9020TIP3    H227002   7.653   6.671   3.610
 9021TIP3   OH227003   7.803   7.230   3.228
 9021TIP3    H127004   7.709   7.215   3.220
 9021TIP3    H227005   7.813   7.263   3.317
 9022TIP3   OH227006   8.199   6.288   2.145
 9022TIP3    H127007   8.167   6.241   2.068
 9022TIP3    H227008   8.209   6.379   2.116
 9023TIP3   OH227009   7.913   6.738   2.859
 9023TIP3    H127010   7.823   6.715   2.881
 9023TIP3    H227011   7.949   6.660   2.818
 9024TIP3   OH227012   7.072   6.984   2.649
 9024TIP3    H127013   7.067   7.062   2.593
 9024TIP3    H227014   6.981   6.960   2.665
 9025TIP3   OH227015   6.627   6.277   2.356
 9025TIP3    H127016   6.673   6.358   2.377
 9025TIP3    H227017   6.549   6.279   2.411
 9026TIP3   OH227018   7.192   6.742   2.580
 9026TIP3    H127019   7.163   6.831   2.601
 9026TIP3    H227020   7.154   6.688   2.650
 9027TIP3   OH227021   7.341   7.307   3.109
 9027TIP3    H127022   7.378   7.377   3.055
 9027TIP3    H227023   7.415   7.274   3.160
 9028TIP3   OH227024   6.986   7.213   2.501
 9028TIP3    H127025   6.899   7.216   2.541
 9028TIP3    H227026   7.016   7.303   2.503
 9029TIP3   OH227027   7.702   6.964   3.073
 9029TIP3    H127028   7.693   6.959   3.168
 9029TIP3    H227029   7.770   6.899   3.052
 9030TIP3   OH227030   7.666   6.813   1.987
 9030TIP3    H127031   7.729   6.806   2.059
 9030TIP3    H227032   7.582   6.791   2.026
 9031TIP3   OH227033   7.909   7.474   3.151
 9031TIP3    H127034   7.885   7.385   3.179
 9031TIP3    H227035   7.889   7.475   3.057
 9032TIP3   OH227036   7.042   6.097   3.621
 9032TIP3    H127037   6.947   6.101   3.623
 9032TIP3    H227038   7.065   6.034   3.689
 9033TIP3   OH227039   7.855   6.793   2.183
 9033TIP3    H127040   7.839   6.720   2.242
 9033TIP3    H227041   7.949   6.789   2.164
 9034TIP3   OH227042   6.778   7.196   3.269
 9034TIP3    H127043   6.830   7.131   3.316
 9034TIP3    H227044   6.785   7.275   3.321
 9035TIP3   OH227045   7.045   6.813   1.958
 9035TIP3    H127046   7.062   6.722   1.934
 9035TIP3    H227047   7.028   6.811   2.052
 9036TIP3   OH227048   6.995   6.834   2.226
 9036TIP3    H127049   7.072   6.792   2.264
 9036TIP3    H227050   7.006   6.927   2.244
 9037TIP3   OH227051   6.728   6.525   2.439
 9037TIP3    H127052   6.663   6.572   2.491
 9037TIP3    H227053   6.750   6.586   2.368
 9038TIP3   OH227054   7.892   6.149   3.308
 9038TIP3    H127055   7.961   6.203   3.346
 9038TIP3    H227056   7.882   6.075   3.368
 9039TIP3   OH227057   7.773   5.914   2.486
 9039TIP3    H127058   7.753   5.940   2.396
 9039TIP3    H227059   7.815   5.990   2.525
 9040TIP3   OH227060   7.281   7.042   2.176
 9040TIP3    H127061   7.195   7.054   2.217
 9040TIP3    H227062   7.287   7.112   2.112
 9041TIP3   OH227063   7.439   6.104   2.582
 9041TIP3    H127064   7.492   6.176   2.548
 9041TIP3    H227065   7.466   6.096   2.674
 9042TIP3   OH227066   7.729   6.399   3.381
 9042TIP3    H127067   7.753   6.446   3.461
 9042TIP3    H227068   7.776   6.315   3.388
 9043TIP3   OH227069   7.596   5.809   2.681
 9043TIP3    H127070   7.573   5.886   2.732
 9043TIP3    H227071   7.661   5.840   2.618
 9044TIP3   OH227072   7.023   7.106   2.251
 9044TIP3    H127073   6.993   7.174   2.190
 9044TIP3    H227074   7.007   7.143   2.338
 9045TIP3   OH227075   7.111   5.821   2.485
 9045TIP3    H127076   7.100   5.911   2.516
 9045TIP3    H227077   7.206   5.806   2.490
 9046TIP3   OH227078   8.327   6.287   3.360
 9046TIP3    H127079   8.233   6.305   3.372
 9046TIP3    H227080   8.329   6.219   3.293
 9047TIP3   OH227081   8.004   6.493   2.754
 9047TIP3    H127082   7.925   6.439   2.765
 9047TIP3    H227083   8.069   6.450   2.809
 9048TIP3   OH227084   6.745   6.712   2.228
 9048TIP3    H127085   6.818   6.774   2.238
 9048TIP3    H227086   6.777   6.648   2.165
 9049TIP3   OH227087   6.659   6.000   2.359
 9049TIP3    H127088   6.672   6.094   2.366
 9049TIP3    H227089   6.586   5.990   2.298
 9050TIP3   OH227090   7.055   5.718   3.232
 9050TIP3    H127091   7.025   5.684   3.148
 9050TIP3    H227092   7.043   5.645   3.293
 9051TIP3   OH227093   6.584   6.970   2.619
 9051TIP3    H127094   6.535   7.003   2.695
 9051TIP3    H227095   6.543   7.012   2.544
 9052TIP3   OH227096   6.765   7.506   3.686
 9052TIP3    H127097   6.848   7.504   3.733
 9052TIP3    H227098   6.729   7.418   3.696
 9053TIP3   OH227099   7.245   7.429   3.729
 9053TIP3    H127100   7.332   7.393   3.742
 9053TIP3    H227101   7.208   7.378   3.658
 9054TIP3   OH227102   7.203   7.024   1.881
 9054TIP3    H127103   7.156   6.950   1.920
 9054TIP3    H227104   7.278   6.984   1.837
 9055TIP3   OH227105   7.834   7.331   3.477
 9055TIP3    H127106   7.849   7.265   3.544
 9055TIP3    H227107   7.912   7.386   3.480
 9056TIP3   OH227108   7.678   7.062   1.861
 9056TIP3    H127109   7.670   6.976   1.901
 9056TIP3    H227110   7.671   7.047   1.767
 9057TIP3   OH227111   6.884   6.902   3.874
 9057TIP3    H127112   6.900   6.808   3.883
 9057TIP3    H227113   6.797   6.908   3.836
 9058TIP3   OH227114   6.868   6.517   2.084
 9058TIP3    H127115   6.917   6.492   2.162
 9058TIP3    H227116   6.935   6.529   2.016
 9059TIP3   OH227117   7.505   6.985   3.654
 9059TIP3    H127118   7.457   7.005   3.573
 9059TIP3    H227119   7.537   6.896   3.641
 9060TIP3   OH227120   7.379   6.731   1.892
 9060TIP3    H127121   7.381   6.754   1.985
 9060TIP3    H227122   7.387   6.636   1.891
 9061TIP3   OH227123   7.977   7.014   3.284
 9061TIP3    H127124   8.053   7.041   3.233
 9061TIP3    H227125   7.908   7.075   3.260
 9062TIP3   OH227126   7.003   6.644   3.881
 9062TIP3    H127127   7.082   6.628   3.830
 9062TIP3    H227128   7.035   6.670   3.968
 9063TIP3   OH227129   7.044   6.459   2.291
 9063TIP3    H127130   7.033   6.430   2.382
 9063TIP3    H227131   7.092   6.387   2.249
 9064TIP3   OH227132   7.360   6.535   3.542
 9064TIP3    H127133   7.275   6.578   3.549
 9064TIP3    H227134   7.393   6.562   3.457
 9065TIP3   OH227135   7.171   6.263   2.141
 9065TIP3    H127136   7.160   6.266   2.046
 9065TIP3    H227137   7.263   6.281   2.155
 9066TIP3   OH227138   7.863   6.901   3.641
 9066TIP3    H127139   7.934   6.863   3.589
 9066TIP3    H227140   7.858   6.845   3.719
 9067TIP3   OH227141   7.982   6.566   1.825
 9067TIP3    H127142   7.956   6.514   1.748
 9067TIP3    H227143   7.952   6.655   1.804
 9068TIP3   OH227144   7.465   6.307   3.652
 9068TIP3    H127145   7.468   6.234   3.589
 9068TIP3    H227146   7.429   6.380   3.602
 9069TIP3   OH227147   7.475   6.105   3.451
 9069TIP3    H127148   7.502   6.141   3.366
 9069TIP3    H227149   7.384   6.078   3.437
 9070TIP3   OH227150   7.483   6.628   3.319
 9070TIP3    H127151   7.573   6.655   3.300
 9070TIP3    H227152   7.429   6.693   3.274
 9071TIP3   OH227153   8.071   6.585   3.712
 9071TIP3    H127154   8.101   6.518   3.774
 9071TIP3    H227155   8.152   6.629   3.683
 9072TIP3   OH227156   8.109   6.848   3.451
 9072TIP3    H127157   8.054   6.908   3.402
 9072TIP3    H227158   8.198   6.864   3.418
 9073TIP3   OH227159   7.347   6.396   3.892
 9073TIP3    H127160   7.278   6.333   3.912
 9073TIP3    H227161   7.377   6.373   3.804
 9074TIP3   OH227162   7.596   5.870   3.546
 9074TIP3    H127163   7.553   5.950   3.515
 9074TIP3    H227164   7.530   5.802   3.532
 9075TIP3   OH227165   7.720   6.353   3.755
 9075TIP3    H127166   7.710   6.339   3.849
 9075TIP3    H227167   7.634   6.330   3.718
 9076TIP3   OH227168   7.955   6.294   3.610
 9076TIP3    H127169   7.884   6.298   3.674
 9076TIP3    H227170   8.033   6.279   3.662
 9077TIP3   OH227171   8.201   6.266   3.743
 9077TIP3    H127172   8.209   6.174   3.768
 9077TIP3    H227173   8.189   6.312   3.826
 9078TIP3   OH227174   7.180   6.179   3.958
 9078TIP3    H127175   7.183   6.091   3.921
 9078TIP3    H227176   7.219   6.170   4.045
 9079TIP3   OH227177   7.664   5.856   3.812
 9079TIP3    H127178   7.734   5.791   3.807
 9079TIP3    H227179   7.633   5.864   3.722
 9080TIP3   OH227180   7.756   6.072   3.957
 9080TIP3    H127181   7.727   6.001   3.900
 9080TIP3    H227182   7.683   6.134   3.956
 9081TIP3   OH227183   6.993   7.318   2.071
 9081TIP3    H127184   7.084   7.306   2.045
 9081TIP3    H227185   6.954   7.368   1.999
 9082TIP3   OH227186   6.472   6.700   2.244
 9082TIP3    H127187   6.567   6.714   2.242
 9082TIP3    H227188   6.460   6.611   2.209
 9083TIP3   OH227189   6.379   7.290   2.701
 9083TIP3    H127190   6.315   7.235   2.656
 9083TIP3    H227191   6.423   7.230   2.761
 9084TIP3   OH227192   6.521   7.126   2.874
 9084TIP3    H127193   6.511   7.057   2.939
 9084TIP3    H227194   6.572   7.194   2.918
 9085TIP3   OH227195   8.341   7.283   3.533
 9085TIP3    H127196   8.270   7.259   3.592
 9085TIP3    H227197   8.359   7.375   3.555
 9086TIP3   OH227198   8.132   6.773   2.147
 9086TIP3    H127199   8.180   6.856   2.149
 9086TIP3    H227200   8.161   6.727   2.226
 9087TIP3   OH227201   8.230   6.650   2.367
 9087TIP3    H127202   8.165   6.590   2.402
 9087TIP3    H227203   8.309   6.635   2.419
 9088TIP3   OH227204   8.182   6.532   2.013
 9088TIP3    H127205   8.120   6.534   1.941
 9088TIP3    H227206   8.170   6.615   2.059
 9089TIP3   OH227207   8.070   6.198   1.916
 9089TIP3    H127208   7.987   6.245   1.920
 9089TIP3    H227209   8.046   6.107   1.898
 9090TIP3   OH227210   8.063   6.470   2.485
 9090TIP3    H127211   8.071   6.376   2.468
 9090TIP3    H227212   8.047   6.476   2.580
 9091TIP3   OH227213   6.700   6.553   3.248
 9091TIP3    H127214   6.691   6.519   3.159
 9091TIP3    H227215   6.794   6.552   3.265
 9092TIP3   OH227216   8.359   6.905   3.345
 9092TIP3    H127217   8.434   6.846   3.330
 9092TIP3    H227218   8.353   6.957   3.265
 9093TIP3   OH227219   8.560   6.706   3.358
 9093TIP3    H127220   8.490   6.651   3.394
 9093TIP3    H227221   8.628   6.705   3.425
 9094TIP3   OH227222   8.017   5.916   1.892
 9094TIP3    H127223   8.076   5.908   1.967
 9094TIP3    H227224   7.933   5.884   1.926
 9095TIP3   OH227225   8.077   6.207   2.378
 9095TIP3    H127226   8.116   6.121   2.394
 9095TIP3    H227227   8.122   6.240   2.300
 9096TIP3   OH227228   8.219   6.372   2.887
 9096TIP3    H127229   8.296   6.406   2.841
 9096TIP3    H227230   8.223   6.411   2.974
 9097TIP3   OH227231   8.274   6.528   3.113
 9097TIP3    H127232   8.204   6.560   3.170
 9097TIP3    H227233   8.306   6.606   3.068
 9098TIP3   OH227234   6.914   6.232   3.896
 9098TIP3    H127235   7.009   6.230   3.911
 9098TIP3    H227236   6.882   6.151   3.935
 9099TIP3   OH227237   0.117   6.114   3.655
 9099TIP3    H127238   0.189   6.059   3.686
 9099TIP3    H227239   0.145   6.203   3.676
 9100TIP3   OH227240   8.171   5.957   2.452
 9100TIP3    H127241   8.218   5.940   2.533
 9100TIP3    H227242   8.111   5.883   2.443
 9101TIP3   OH227243   6.889   5.942   3.245
 9101TIP3    H127244   6.943   5.864   3.254
 9101TIP3    H227245   6.953   6.013   3.230
 9102TIP3   OH227246   6.674   6.209   3.305
 9102TIP3    H127247   6.727   6.202   3.225
 9102TIP3    H227248   6.703   6.291   3.346
 9103TIP3   OH227249   8.584   6.341   3.460
 9103TIP3    H127250   8.576   6.343   3.555
 9103TIP3    H227251   8.505   6.295   3.430
 9104TIP3   OH227252   8.236   5.880   2.064
 9104TIP3    H127253   8.255   5.815   1.995
 9104TIP3    H227254   8.322   5.909   2.094
 9105TIP3   OH227255   6.661   5.706   2.808
 9105TIP3    H127256   6.575   5.700   2.851
 9105TIP3    H227257   6.648   5.765   2.735
 9106TIP3   OH227258   6.892   5.817   3.646
 9106TIP3    H127259   6.838   5.789   3.720
 9106TIP3    H227260   6.828   5.843   3.579
 9107TIP3   OH227261   6.923   7.218   3.706
 9107TIP3    H127262   6.828   7.213   3.698
 9107TIP3    H227263   6.941   7.210   3.799
 9108TIP3   OH227264   7.114   7.268   3.257
 9108TIP3    H127265   7.061   7.340   3.224
 9108TIP3    H227266   7.198   7.278   3.213
 9109TIP3   OH227267   7.525   7.493   3.391
 9109TIP3    H127268   7.559   7.484   3.480
 9109TIP3    H227269   7.591   7.545   3.345
 9110TIP3   OH227270   7.724   7.643   3.270
 9110TIP3    H127271   7.789   7.585   3.230
 9110TIP3    H227272   7.775   7.707   3.318
 9111TIP3   OH227273   8.495   6.011   3.345
 9111TIP3    H127274   8.412   6.023   3.298
 9111TIP3    H227275   8.510   5.917   3.345
 9112TIP3   OH227276   6.783   7.524   3.295
 9112TIP3    H127277   6.691   7.542   3.274
 9112TIP3    H227278   6.804   7.583   3.366
 9113TIP3   OH227279   7.011   7.498   3.145
 9113TIP3    H127280   6.930   7.507   3.195
 9113TIP3    H227281   6.988   7.526   3.057
 9114TIP3   OH227282   7.421   7.500   2.929
 9114TIP3    H127283   7.344   7.521   2.876
 9114TIP3    H227284   7.440   7.581   2.976
 9115TIP3   OH227285   7.691   7.456   2.952
 9115TIP3    H127286   7.596   7.455   2.953
 9115TIP3    H227287   7.714   7.548   2.933
 9116TIP3   OH227288   6.697   7.300   3.022
 9116TIP3    H127289   6.720   7.273   3.111
 9116TIP3    H227290   6.768   7.265   2.967
 9117TIP3   OH227291   6.895   7.181   2.880
 9117TIP3    H127292   6.905   7.097   2.924
 9117TIP3    H227293   6.983   7.220   2.883
 9118TIP3   OH227294   7.162   7.265   2.900
 9118TIP3    H127295   7.181   7.172   2.885
 9118TIP3    H227296   7.211   7.287   2.978
 9119TIP3   OH227297   7.730   5.918   2.980
 9119TIP3    H127298   7.690   5.848   3.032
 9119TIP3    H227299   7.798   5.875   2.930
 9120TIP3   OH227300   8.238   5.839   2.896
 9120TIP3    H127301   8.269   5.890   2.821
 9120TIP3    H227302   8.143   5.852   2.896
 9121TIP3   OH227303   8.358   5.905   2.653
 9121TIP3    H127304   8.423   5.835   2.646
 9121TIP3    H227305   8.409   5.986   2.641
 9122TIP3   OH227306   6.968   5.615   2.988
 9122TIP3    H127307   6.880   5.581   3.001
 9122TIP3    H227308   7.024   5.537   2.983
 9123TIP3   OH227309   6.770   5.510   2.633
 9123TIP3    H127310   6.803   5.563   2.561
 9123TIP3    H227311   6.739   5.574   2.698
 9124TIP3   OH227312   7.442   5.661   2.875
 9124TIP3    H127313   7.492   5.711   2.810
 9124TIP3    H227314   7.480   5.687   2.959
 9125TIP3   OH227315   7.953   5.803   2.856
 9125TIP3    H127316   7.977   5.767   2.771
 9125TIP3    H227317   7.950   5.728   2.915
 9126TIP3   OH227318   7.990   5.745   2.429
 9126TIP3    H127319   7.909   5.794   2.445
 9126TIP3    H227320   7.975   5.660   2.469
 9127TIP3   OH227321   6.468   7.091   2.403
 9127TIP3    H127322   6.383   7.056   2.375
 9127TIP3    H227323   6.467   7.182   2.372
 9128TIP3   OH227324   6.893   5.656   2.405
 9128TIP3    H127325   6.939   5.596   2.346
 9128TIP3    H227326   6.962   5.713   2.440
 9129TIP3   OH227327   7.388   5.851   2.492
 9129TIP3    H127328   7.445   5.802   2.550
 9129TIP3    H227329   7.401   5.943   2.517
 9130TIP3   OH227330   7.254   7.263   2.000
 9130TIP3    H127331   7.341   7.284   1.967
 9130TIP3    H227332   7.225   7.189   1.947
 9131TIP3   OH227333   7.192   5.908   3.879
 9131TIP3    H127334   7.156   5.837   3.932
 9131TIP3    H227335   7.284   5.913   3.903
 9132TIP3   OH227336   7.444   5.908   3.992
 9132TIP3    H127337   7.521   5.887   3.939
 9132TIP3    H227338   7.438   5.836   4.055
 9133TIP3   OH227339   6.565   7.090   2.063
 9133TIP3    H127340   6.565   7.099   2.158
 9133TIP3    H227341   6.649   7.048   2.043
 9134TIP3   OH227342   8.244   6.001   3.795
 9134TIP3    H127343   8.268   5.977   3.885
 9134TIP3    H227344   8.327   5.999   3.747
 9135TIP3   OH227345   8.504   6.135   2.577
 9135TIP3    H127346   8.562   6.114   2.504
 9135TIP3    H227347   8.479   6.227   2.562
 9136TIP3   OH227348   8.475   6.466   2.840
 9136TIP3    H127349   8.563   6.467   2.802
 9136TIP3    H227350   8.476   6.537   2.904
 9137TIP3   OH227351   0.960   6.980   4.660
 9137TIP3    H127352   0.982   7.064   4.700
 9137TIP3    H227353   0.997   6.985   4.572
 9138TIP3   OH227354   0.357   6.950   4.298
 9138TIP3    H127355   0.421   6.934   4.367
 9138TIP3    H227356   0.409   6.961   4.219
 9139TIP3   OH227357   1.023   7.189   4.842
 9139TIP3    H127358   0.934   7.222   4.832
 9139TIP3    H227359   1.051   7.223   4.927
 9140TIP3   OH227360   0.570   6.937   4.485
 9140TIP3    H127361   0.640   6.881   4.450
 9140TIP3    H227362   0.616   7.016   4.513
 9141TIP3   OH227363   0.740   6.908   4.815
 9141TIP3    H127364   0.667   6.930   4.758
 9141TIP3    H227365   0.818   6.925   4.761
 9142TIP3   OH227366   0.703   7.875   4.793
 9142TIP3    H127367   0.676   7.789   4.759
 9142TIP3    H227368   0.625   7.929   4.788
 9143TIP3   OH227369   0.850   7.531   4.683
 9143TIP3    H127370   0.764   7.573   4.684
 9143TIP3    H227371   0.876   7.535   4.591
 9144TIP3   OH227372   0.666   6.451   3.927
 9144TIP3    H127373   0.573   6.460   3.947
 9144TIP3    H227374   0.689   6.531   3.879
 9145TIP3   OH227375   3.650   0.115   4.840
 9145TIP3    H127376   3.692   0.080   4.762
 9145TIP3    H227377   3.723   0.145   4.895
 9146TIP3   OH227378   0.776   7.341   5.117
 9146TIP3    H127379   0.706   7.353   5.180
 9146TIP3    H227380   0.780   7.246   5.104
 9147TIP3   OH227381   0.602   7.652   4.659
 9147TIP3    H127382   0.637   7.697   4.582
 9147TIP3    H227383   0.527   7.603   4.626
 9148TIP3   OH227384   0.669   7.088   3.811
 9148TIP3    H127385   0.615   7.043   3.746
 9148TIP3    H227386   0.666   7.180   3.786
 9149TIP3   OH227387   0.948   7.929   4.889
 9149TIP3    H127388   0.856   7.928   4.862
 9149TIP3    H227389   0.996   7.902   4.811
 9150TIP3   OH227390   0.767   7.073   5.057
 9150TIP3    H127391   0.739   7.007   5.121
 9150TIP3    H227392   0.763   7.027   4.973
 9151TIP3   OH227393   0.468   7.266   4.449
 9151TIP3    H127394   0.403   7.196   4.461
 9151TIP3    H227395   0.546   7.234   4.495
 9152TIP3   OH227396   0.442   7.368   3.498
 9152TIP3    H127397   0.392   7.309   3.441
 9152TIP3    H227398   0.520   7.391   3.447
 9153TIP3   OH227399   0.724   7.011   5.476
 9153TIP3    H127400   0.753   6.921   5.460
 9153TIP3    H227401   0.641   7.002   5.522
 9154TIP3   OH227402   0.586   7.561   3.852
 9154TIP3    H127403   0.656   7.616   3.819
 9154TIP3    H227404   0.626   7.510   3.923
 9155TIP3   OH227405   0.728   7.414   4.034
 9155TIP3    H127406   0.669   7.364   4.090
 9155TIP3    H227407   0.797   7.444   4.093
 9156TIP3   OH227408   0.755   7.759   4.467
 9156TIP3    H127409   0.809   7.689   4.431
 9156TIP3    H227410   0.785   7.838   4.422
 9157TIP3   OH227411   0.637   7.337   3.692
 9157TIP3    H127412   0.561   7.328   3.634
 9157TIP3    H227413   0.615   7.412   3.748
 9158TIP3   OH227414   0.527   6.991   3.597
 9158TIP3    H127415   0.479   7.004   3.515
 9158TIP3    H227416   0.509   6.900   3.621
 9159TIP3   OH227417   0.565   7.262   4.187
 9159TIP3    H127418   0.552   7.171   4.162
 9159TIP3    H227419   0.523   7.270   4.273
 9160TIP3   OH227420   0.815   7.696   5.034
 9160TIP3    H127421   0.879   7.625   5.024
 9160TIP3    H227422   0.832   7.753   4.958
 9161TIP3   OH227423   0.991   7.485   5.033
 9161TIP3    H127424   0.915   7.434   5.064
 9161TIP3    H227425   1.067   7.431   5.055
 9162TIP3   OH227426   0.485   6.735   3.671
 9162TIP3    H127427   0.561   6.696   3.714
 9162TIP3    H227428   0.410   6.687   3.705
 9163TIP3   OH227429   0.544   6.998   4.085
 9163TIP3    H127430   0.583   6.911   4.090
 9163TIP3    H227431   0.562   7.028   3.996
 9164TIP3   OH227432   0.693   7.166   4.580
 9164TIP3    H127433   0.773   7.185   4.531
 9164TIP3    H227434   0.708   7.203   4.667
 9165TIP3   OH227435   0.772   7.303   4.812
 9165TIP3    H127436   0.741   7.332   4.898
 9165TIP3    H227437   0.799   7.383   4.768
 9166TIP3   OH227438   1.227   6.916   5.339
 9166TIP3    H127439   1.284   6.852   5.296
 9166TIP3    H227440   1.187   6.965   5.268
 9167TIP3   OH227441   0.643   6.739   4.099
 9167TIP3    H127442   0.680   6.712   4.183
 9167TIP3    H227443   0.574   6.675   4.082
 9168TIP3   OH227444   1.067   7.041   5.153
 9168TIP3    H127445   1.001   7.073   5.214
 9168TIP3    H227446   1.023   6.970   5.106
 9169TIP3   OH227447   0.733   6.658   3.765
 9169TIP3    H127448   0.761   6.603   3.692
 9169TIP3    H227449   0.785   6.738   3.755
 9170TIP3   OH227450   0.979   6.774   5.052
 9170TIP3    H127451   0.892   6.745   5.025
 9170TIP3    H227452   1.033   6.695   5.045
 9171TIP3   OH227453   0.694   6.589   4.556
 9171TIP3    H127454   0.733   6.639   4.485
 9171TIP3    H227455   0.606   6.624   4.566
 9172TIP3   OH227456   0.793   6.702   4.332
 9172TIP3    H127457   0.859   6.638   4.304
 9172TIP3    H227458   0.833   6.787   4.311
 9173TIP3   OH227459   0.421   6.642   4.577
 9173TIP3    H127460   0.386   6.642   4.488
 9173TIP3    H227461   0.414   6.551   4.606
 9174TIP3   OH227462   0.431   6.555   4.058
 9174TIP3    H127463   0.375   6.568   3.982
 9174TIP3    H227464   0.410   6.466   4.088
 9175TIP3   OH227465   1.940   7.681   3.756
 9175TIP3    H127466   1.916   7.752   3.696
 9175TIP3    H227467   1.876   7.612   3.738
 9176TIP3   OH227468   1.909   7.665   4.132
 9176TIP3    H127469   1.957   7.648   4.213
 9176TIP3    H227470   1.874   7.580   4.107
 9177TIP3   OH227471   1.209   7.563   4.485
 9177TIP3    H127472   1.243   7.503   4.551
 9177TIP3    H227473   1.286   7.590   4.436
 9178TIP3   OH227474   2.102   7.928   3.794
 9178TIP3    H127475   2.086   7.840   3.829
 9178TIP3    H227476   2.122   7.980   3.872
 9179TIP3   OH227477   1.257   7.877   4.248
 9179TIP3    H127478   1.213   7.799   4.217
 9179TIP3    H227479   1.330   7.889   4.187
 9180TIP3   OH227480   0.890   7.190   3.962
 9180TIP3    H127481   0.845   7.272   3.983
 9180TIP3    H227482   0.823   7.135   3.923
 9181TIP3   OH227483   0.958   7.480   4.172
 9181TIP3    H127484   1.000   7.397   4.194
 9181TIP3    H227485   1.030   7.538   4.149
 9182TIP3   OH227486   1.742   7.881   4.168
 9182TIP3    H127487   1.782   7.799   4.139
 9182TIP3    H227488   1.812   7.927   4.214
 9183TIP3   OH227489   2.744   7.233   4.152
 9183TIP3    H127490   2.764   7.318   4.191
 9183TIP3    H227491   2.770   7.242   4.060
 9184TIP3   OH227492   2.138   7.408   4.184
 9184TIP3    H127493   2.170   7.321   4.208
 9184TIP3    H227494   2.095   7.395   4.099
 9185TIP3   OH227495   1.476   7.069   4.148
 9185TIP3    H127496   1.455   7.137   4.083
 9185TIP3    H227497   1.437   6.990   4.113
 9186TIP3   OH227498   2.179   7.167   3.765
 9186TIP3    H127499   2.243   7.154   3.835
 9186TIP3    H227500   2.231   7.197   3.691
 9187TIP3   OH227501   1.106   7.265   4.259
 9187TIP3    H127502   1.188   7.246   4.304
 9187TIP3    H227503   1.109   7.213   4.179
 9188TIP3   OH227504   1.537   7.464   4.077
 9188TIP3    H127505   1.630   7.444   4.087
 9188TIP3    H227506   1.498   7.383   4.044
 9189TIP3   OH227507   2.807   7.454   4.321
 9189TIP3    H127508   2.716   7.484   4.314
 9189TIP3    H227509   2.832   7.476   4.411
 9190TIP3   OH227510   1.462   7.064   4.593
 9190TIP3    H127511   1.407   7.094   4.520
 9190TIP3    H227512   1.407   7.078   4.671
 9191TIP3   OH227513   1.879   7.853   3.551
 9191TIP3    H127514   1.806   7.834   3.492
 9191TIP3    H227515   1.874   7.948   3.566
 9192TIP3   OH227516   1.587   7.784   4.369
 9192TIP3    H127517   1.528   7.848   4.409
 9192TIP3    H227518   1.632   7.834   4.300
 9193TIP3   OH227519   2.347   7.184   3.976
 9193TIP3    H127520   2.315   7.142   4.056
 9193TIP3    H227521   2.401   7.257   4.008
 9194TIP3   OH227522   1.346   7.170   4.365
 9194TIP3    H127523   1.405   7.241   4.390
 9194TIP3    H227524   1.389   7.126   4.292
 9195TIP3   OH227525   1.397   7.947   4.466
 9195TIP3    H127526   1.340   7.922   4.393
 9195TIP3    H227527   1.336   7.970   4.537
 9196TIP3   OH227528   0.798   7.694   3.733
 9196TIP3    H127529   0.749   7.675   3.653
 9196TIP3    H227530   0.829   7.784   3.721
 9197TIP3   OH227531   5.084   0.021   3.953
 9197TIP3    H127532   5.074   0.012   4.048
 9197TIP3    H227533   5.129   0.104   3.941
 9198TIP3   OH227534   2.534   7.142   4.324
 9198TIP3    H127535   2.447   7.156   4.287
 9198TIP3    H227536   2.594   7.163   4.253
 9199TIP3   OH227537   1.822   6.788   4.328
 9199TIP3    H127538   1.801   6.700   4.297
 9199TIP3    H227539   1.739   6.821   4.364
 9200TIP3   OH227540   2.162   7.986   3.532
 9200TIP3    H127541   2.134   7.912   3.478
 9200TIP3    H227542   2.134   7.962   3.621
 9201TIP3   OH227543   2.512   8.068   4.307
 9201TIP3    H127544   2.488   8.000   4.244
 9201TIP3    H227545   2.448   8.138   4.293
 9202TIP3   OH227546   1.776   7.528   3.586
 9202TIP3    H127547   1.694   7.578   3.585
 9202TIP3    H227548   1.803   7.523   3.495
 9203TIP3   OH227549   1.708   7.332   3.267
 9203TIP3    H127550   1.776   7.381   3.314
 9203TIP3    H227551   1.755   7.262   3.222
 9204TIP3   OH227552   2.637   7.787   4.161
 9204TIP3    H127553   2.549   7.824   4.148
 9204TIP3    H227554   2.679   7.796   4.075
 9205TIP3   OH227555   2.099   7.597   3.542
 9205TIP3    H127556   2.046   7.620   3.619
 9205TIP3    H227557   2.183   7.570   3.578
 9206TIP3   OH227558   2.327   7.651   4.455
 9206TIP3    H127559   2.323   7.727   4.513
 9206TIP3    H227560   2.243   7.652   4.409
 9207TIP3   OH227561   1.349   7.600   3.928
 9207TIP3    H127562   1.306   7.539   3.867
 9207TIP3    H227563   1.416   7.547   3.971
 9208TIP3   OH227564   1.480   7.923   4.098
 9208TIP3    H127565   1.472   7.888   4.009
 9208TIP3    H227566   1.573   7.916   4.118
 9209TIP3   OH227567   1.424   7.581   4.297
 9209TIP3    H127568   1.465   7.542   4.220
 9209TIP3    H227569   1.482   7.654   4.321
 9210TIP3   OH227570   4.848   0.128   4.198
 9210TIP3    H127571   4.761   0.167   4.192
 9210TIP3    H227572   4.836   0.037   4.171
 9211TIP3   OH227573   1.615   8.017   4.606
 9211TIP3    H127574   1.577   8.091   4.653
 9211TIP3    H227575   1.546   7.987   4.548
 9212TIP3   OH227576   1.932   7.474   3.360
 9212TIP3    H127577   1.995   7.525   3.409
 9212TIP3    H227578   1.966   7.473   3.270
 9213TIP3   OH227579   1.355   7.664   4.753
 9213TIP3    H127580   1.363   7.749   4.797
 9213TIP3    H227581   1.260   7.647   4.753
 9214TIP3   OH227582   2.442   6.717   3.413
 9214TIP3    H127583   2.364   6.734   3.466
 9214TIP3    H227584   2.452   6.795   3.359
 9215TIP3   OH227585   1.222   7.434   3.748
 9215TIP3    H127586   1.139   7.466   3.713
 9215TIP3    H227587   1.206   7.341   3.766
 9216TIP3   OH227588   0.987   7.814   4.634
 9216TIP3    H127589   0.910   7.790   4.582
 9216TIP3    H227590   1.019   7.731   4.670
 9217TIP3   OH227591   0.882   7.975   4.365
 9217TIP3    H127592   0.951   8.035   4.336
 9217TIP3    H227593   0.801   8.018   4.340
 9218TIP3   OH227594   5.455   0.372   4.308
 9218TIP3    H127595   5.547   0.350   4.320
 9218TIP3    H227596   5.453   0.468   4.310
 9219TIP3   OH227597   2.567   7.610   4.620
 9219TIP3    H127598   2.484   7.613   4.572
 9219TIP3    H227599   2.588   7.517   4.626
 9220TIP3   OH227600   1.203   7.972   4.653
 9220TIP3    H127601   1.244   7.936   4.731
 9220TIP3    H227602   1.125   7.918   4.639
 9221TIP3   OH227603   1.571   6.854   4.445
 9221TIP3    H127604   1.490   6.820   4.407
 9221TIP3    H227605   1.543   6.931   4.494
 9222TIP3   OH227606   2.108   6.974   4.644
 9222TIP3    H127607   2.177   6.947   4.704
 9222TIP3    H227608   2.026   6.952   4.689
 9223TIP3   OH227609   2.340   7.394   4.564
 9223TIP3    H127610   2.295   7.390   4.648
 9223TIP3    H227611   2.314   7.479   4.527
 9224TIP3   OH227612   2.018   7.458   3.102
 9224TIP3    H127613   1.973   7.433   3.022
 9224TIP3    H227614   2.049   7.547   3.086
 9225TIP3   OH227615   1.727   6.897   3.383
 9225TIP3    H127616   1.713   6.903   3.478
 9225TIP3    H227617   1.683   6.815   3.358
 9226TIP3   OH227618   1.507   7.375   4.460
 9226TIP3    H127619   1.457   7.380   4.541
 9226TIP3    H227620   1.477   7.450   4.408
 9227TIP3   OH227621   1.383   7.262   3.974
 9227TIP3    H127622   1.297   7.228   3.999
 9227TIP3    H227623   1.400   7.225   3.888
 9228TIP3   OH227624   1.884   7.319   3.715
 9228TIP3    H127625   1.840   7.390   3.670
 9228TIP3    H227626   1.944   7.281   3.650
 9229TIP3   OH227627   2.075   7.598   4.774
 9229TIP3    H127628   2.045   7.530   4.835
 9229TIP3    H227629   2.167   7.612   4.797
 9230TIP3   OH227630   2.060   7.362   3.924
 9230TIP3    H127631   1.979   7.372   3.873
 9230TIP3    H227632   2.101   7.284   3.889
 9231TIP3   OH227633   1.329   7.386   4.669
 9231TIP3    H127634   1.348   7.452   4.736
 9231TIP3    H227635   1.316   7.305   4.717
 9232TIP3   OH227636   1.389   6.878   3.395
 9232TIP3    H127637   1.386   6.872   3.490
 9232TIP3    H227638   1.308   6.922   3.370
 9233TIP3   OH227639   0.926   6.922   4.256
 9233TIP3    H127640   1.006   6.952   4.301
 9233TIP3    H227641   0.956   6.894   4.170
 9234TIP3   OH227642   0.871   6.900   3.764
 9234TIP3    H127643   0.914   6.933   3.685
 9234TIP3    H227644   0.802   6.964   3.782
 9235TIP3   OH227645   2.067   7.604   4.353
 9235TIP3    H127646   2.099   7.539   4.290
 9235TIP3    H227647   2.034   7.552   4.426
 9236TIP3   OH227648   1.742   7.133   4.060
 9236TIP3    H127649   1.664   7.093   4.100
 9236TIP3    H227650   1.815   7.082   4.094
 9237TIP3   OH227651   1.152   7.124   4.029
 9237TIP3    H127652   1.064   7.129   3.994
 9237TIP3    H227653   1.182   7.035   4.007
 9238TIP3   OH227654   1.403   7.138   3.734
 9238TIP3    H127655   1.498   7.134   3.721
 9238TIP3    H227656   1.368   7.147   3.645
 9239TIP3   OH227657   2.202   7.141   4.237
 9239TIP3    H127658   2.172   7.155   4.327
 9239TIP3    H227659   2.140   7.078   4.200
 9240TIP3   OH227660   1.272   7.171   3.493
 9240TIP3    H127661   1.206   7.116   3.450
 9240TIP3    H227662   1.328   7.201   3.421
 9241TIP3   OH227663   1.347   7.902   4.886
 9241TIP3    H127664   1.430   7.918   4.932
 9241TIP3    H227665   1.288   7.968   4.922
 9242TIP3   OH227666   1.802   7.401   4.133
 9242TIP3    H127667   1.807   7.317   4.086
 9242TIP3    H227668   1.801   7.376   4.225
 9243TIP3   OH227669   1.324   6.877   4.019
 9243TIP3    H127670   1.279   6.805   4.062
 9243TIP3    H227671   1.398   6.836   3.974
 9244TIP3   OH227672   1.774   7.334   4.401
 9244TIP3    H127673   1.685   7.354   4.430
 9244TIP3    H227674   1.831   7.379   4.463
 9245TIP3   OH227675   1.550   7.676   3.605
 9245TIP3    H127676   1.471   7.625   3.585
 9245TIP3    H227677   1.527   7.725   3.684
 9246TIP3   OH227678   2.397   7.909   4.101
 9246TIP3    H127679   2.403   7.947   4.013
 9246TIP3    H227680   2.315   7.860   4.100
 9247TIP3   OH227681   1.970   7.012   3.369
 9247TIP3    H127682   1.880   6.984   3.380
 9247TIP3    H227683   1.975   7.098   3.411
 9248TIP3   OH227684   1.916   7.991   4.537
 9248TIP3    H127685   1.923   7.935   4.614
 9248TIP3    H227686   1.856   8.061   4.563
 9249TIP3   OH227687   2.038   7.250   3.492
 9249TIP3    H127688   2.133   7.254   3.498
 9249TIP3    H227689   2.014   7.326   3.440
 9250TIP3   OH227690   1.188   7.631   4.150
 9250TIP3    H127691   1.233   7.624   4.066
 9250TIP3    H227692   1.250   7.597   4.214
 9251TIP3   OH227693   1.653   7.823   3.386
 9251TIP3    H127694   1.613   7.910   3.391
 9251TIP3    H227695   1.599   7.768   3.444
 9252TIP3   OH227696   1.088   7.613   4.802
 9252TIP3    H127697   1.096   7.594   4.895
 9252TIP3    H227698   1.012   7.563   4.773
 9253TIP3   OH227699   1.821   7.691   4.833
 9253TIP3    H127700   1.753   7.637   4.792
 9253TIP3    H227701   1.902   7.663   4.791
 9254TIP3   OH227702   4.955   0.135   4.450
 9254TIP3    H127703   4.898   0.137   4.373
 9254TIP3    H227704   4.914   0.196   4.511
 9255TIP3   OH227705   2.458   7.337   3.310
 9255TIP3    H127706   2.400   7.292   3.249
 9255TIP3    H227707   2.467   7.425   3.273
 9256TIP3   OH227708   5.613   0.081   4.372
 9256TIP3    H127709   5.529   0.041   4.351
 9256TIP3    H227710   5.662   0.080   4.290
 9257TIP3   OH227711   2.221   7.987   3.172
 9257TIP3    H127712   2.206   7.921   3.240
 9257TIP3    H227713   2.306   7.965   3.135
 9258TIP3   OH227714   2.158   7.772   4.046
 9258TIP3    H127715   2.070   7.740   4.067
 9258TIP3    H227716   2.202   7.697   4.005
 9259TIP3   OH227717   1.232   7.974   3.824
 9259TIP3    H127718   1.213   8.042   3.759
 9259TIP3    H227719   1.170   7.904   3.804
 9260TIP3   OH227720   0.867   7.303   3.542
 9260TIP3    H127721   0.922   7.375   3.572
 9260TIP3    H227722   0.787   7.311   3.593
 9261TIP3   OH227723   1.467   7.826   3.836
 9261TIP3    H127724   1.389   7.880   3.820
 9261TIP3    H227725   1.432   7.743   3.868
 9262TIP3   OH227726   1.980   7.959   4.275
 9262TIP3    H127727   1.955   7.973   4.366
 9262TIP3    H227728   2.058   7.904   4.280
 9263TIP3   OH227729   1.895   7.895   3.202
 9263TIP3    H127730   1.952   7.849   3.263
 9263TIP3    H227731   1.822   7.835   3.188
 9264TIP3   OH227732   1.294   7.138   4.803
 9264TIP3    H127733   1.199   7.145   4.808
 9264TIP3    H227734   1.318   7.079   4.874
 9265TIP3   OH227735   2.118   7.782   3.345
 9265TIP3    H127736   2.090   7.721   3.413
 9265TIP3    H227737   2.212   7.768   3.337
 9266TIP3   OH227738   1.305   7.783   3.137
 9266TIP3    H127739   1.321   7.745   3.051
 9266TIP3    H227740   1.212   7.805   3.138
 9267TIP3   OH227741   1.300   8.001   3.340
 9267TIP3    H127742   1.328   7.910   3.350
 9267TIP3    H227743   1.297   8.036   3.429
 9268TIP3   OH227744   0.996   7.533   3.631
 9268TIP3    H127745   0.931   7.574   3.688
 9268TIP3    H227746   0.998   7.588   3.553
 9269TIP3   OH227747   2.136   7.208   4.502
 9269TIP3    H127748   2.220   7.243   4.532
 9269TIP3    H227749   2.124   7.128   4.553
 9270TIP3   OH227750   2.035   6.951   3.666
 9270TIP3    H127751   2.001   6.974   3.580
 9270TIP3    H227752   2.073   7.032   3.699
 9271TIP3   OH227753   1.683   7.149   3.788
 9271TIP3    H127754   1.754   7.208   3.762
 9271TIP3    H227755   1.697   7.134   3.881
 9272TIP3   OH227756   1.986   7.439   4.553
 9272TIP3    H127757   2.017   7.475   4.636
 9272TIP3    H227758   2.031   7.355   4.544
 9273TIP3   OH227759   1.909   6.857   3.905
 9273TIP3    H127760   1.815   6.843   3.900
 9273TIP3    H227761   1.934   6.885   3.818
 9274TIP3   OH227762   1.364   6.849   3.672
 9274TIP3    H127763   1.358   6.935   3.715
 9274TIP3    H227764   1.427   6.800   3.725
 9275TIP3   OH227765   2.600   7.329   4.538
 9275TIP3    H127766   2.508   7.345   4.554
 9275TIP3    H227767   2.601   7.267   4.464
 9276TIP3   OH227768   2.268   7.543   3.934
 9276TIP3    H127769   2.192   7.484   3.936
 9276TIP3    H227770   2.335   7.498   3.985
 9277TIP3   OH227771   0.974   7.694   3.407
 9277TIP3    H127772   0.983   7.785   3.378
 9277TIP3    H227773   1.026   7.644   3.345
 9278TIP3   OH227774   0.927   7.033   3.532
 9278TIP3    H127775   0.910   7.127   3.540
 9278TIP3    H227776   0.859   7.001   3.473
 9279TIP3   OH227777   1.305   6.768   4.407
 9279TIP3    H127778   1.276   6.738   4.321
 9279TIP3    H227779   1.299   6.691   4.463
 9280TIP3   OH227780   4.899   0.278   4.671
 9280TIP3    H127781   4.909   0.230   4.753
 9280TIP3    H227782   4.972   0.339   4.671
 9281TIP3   OH227783   1.101   7.870   5.111
 9281TIP3    H127784   1.157   7.794   5.093
 9281TIP3    H227785   1.057   7.888   5.028
 9282TIP3   OH227786   1.139   7.530   3.265
 9282TIP3    H127787   1.190   7.485   3.333
 9282TIP3    H227788   1.198   7.532   3.189
 9283TIP3   OH227789   1.751   7.951   4.827
 9283TIP3    H127790   1.708   7.963   4.742
 9283TIP3    H227791   1.780   7.860   4.827
 9284TIP3   OH227792   1.649   7.768   3.109
 9284TIP3    H127793   1.621   7.781   3.200
 9284TIP3    H227794   1.629   7.676   3.091
 9285TIP3   OH227795   2.226   8.004   4.435
 9285TIP3    H127796   2.292   8.065   4.468
 9285TIP3    H227797   2.143   8.047   4.456
 9286TIP3   OH227798   1.269   7.653   5.067
 9286TIP3    H127799   1.348   7.628   5.020
 9286TIP3    H227800   1.300   7.683   5.152
 9287TIP3   OH227801   1.339   7.486   3.495
 9287TIP3    H127802   1.302   7.448   3.575
 9287TIP3    H227803   1.373   7.411   3.446
 9288TIP3   OH227804   1.604   7.556   4.712
 9288TIP3    H127805   1.520   7.602   4.716
 9288TIP3    H227806   1.648   7.594   4.635
 9289TIP3   OH227807   1.435   7.301   3.313
 9289TIP3    H127808   1.407   7.282   3.224
 9289TIP3    H227809   1.531   7.305   3.307
 9290TIP3   OH227810   2.119   7.948   4.828
 9290TIP3    H127811   2.180   7.904   4.769
 9290TIP3    H227812   2.112   7.889   4.903
 9291TIP3   OH227813   2.302   7.595   2.957
 9291TIP3    H127814   2.266   7.535   2.890
 9291TIP3    H227815   2.227   7.648   2.984
 9292TIP3   OH227816   1.719   7.340   4.828
 9292TIP3    H127817   1.722   7.266   4.769
 9292TIP3    H227818   1.676   7.410   4.778
 9293TIP3   OH227819   1.722   7.145   4.625
 9293TIP3    H127820   1.750   7.176   4.539
 9293TIP3    H227821   1.631   7.119   4.613
 9294TIP3   OH227822   1.769   7.662   4.526
 9294TIP3    H127823   1.851   7.653   4.478
 9294TIP3    H227824   1.712   7.712   4.468
 9295TIP3   OH227825   2.333   7.620   4.891
 9295TIP3    H127826   2.365   7.530   4.892
 9295TIP3    H227827   2.412   7.673   4.877
 9296TIP3   OH227828   2.350   7.864   4.632
 9296TIP3    H127829   2.294   7.917   4.575
 9296TIP3    H227830   2.439   7.891   4.610
 9297TIP3   OH227831   1.595   7.441   5.064
 9297TIP3    H127832   1.528   7.376   5.087
 9297TIP3    H227833   1.627   7.413   4.978
 9298TIP3   OH227834   1.845   6.913   4.723
 9298TIP3    H127835   1.803   6.992   4.689
 9298TIP3    H227836   1.781   6.843   4.709
 9299TIP3   OH227837   1.973   7.394   4.926
 9299TIP3    H127838   1.962   7.383   5.020
 9299TIP3    H227839   1.888   7.370   4.889
 9300TIP3   OH227840   2.221   7.345   4.801
 9300TIP3    H127841   2.143   7.340   4.855
 9300TIP3    H227842   2.292   7.314   4.857
 9301TIP3   OH227843   2.459   7.308   4.945
 9301TIP3    H127844   2.473   7.213   4.949
 9301TIP3    H227845   2.453   7.335   5.036
 9302TIP3   OH227846   1.436   7.219   5.130
 9302TIP3    H127847   1.438   7.130   5.094
 9302TIP3    H227848   1.473   7.210   5.217
 9303TIP3   OH227849   1.917   6.899   4.988
 9303TIP3    H127850   1.985   6.832   4.982
 9303TIP3    H227851   1.884   6.907   4.898
 9304TIP3   OH227852   2.004   7.117   5.131
 9304TIP3    H127853   1.977   7.044   5.076
 9304TIP3    H227854   1.930   7.177   5.129
 9305TIP3   OH227855   0.715   7.646   3.479
 9305TIP3    H127856   0.803   7.664   3.447
 9305TIP3    H227857   0.686   7.569   3.431
 9306TIP3   OH227858   5.396   0.262   4.653
 9306TIP3    H127859   5.377   0.326   4.721
 9306TIP3    H227860   5.486   0.282   4.625
 9307TIP3   OH227861   2.390   7.788   3.335
 9307TIP3    H127862   2.457   7.852   3.308
 9307TIP3    H227863   2.429   7.744   3.411
 9308TIP3   OH227864   2.523   7.662   3.534
 9308TIP3    H127865   2.462   7.618   3.592
 9308TIP3    H227866   2.589   7.700   3.593
 9309TIP3   OH227867   2.459   7.574   3.176
 9309TIP3    H127868   2.399   7.574   3.101
 9309TIP3    H227869   2.432   7.650   3.228
 9310TIP3   OH227870   2.298   7.237   3.114
 9310TIP3    H127871   2.242   7.278   3.048
 9310TIP3    H227872   2.290   7.143   3.098
 9311TIP3   OH227873   2.331   7.516   3.666
 9311TIP3    H127874   2.338   7.422   3.653
 9311TIP3    H227875   2.315   7.525   3.760
 9312TIP3   OH227876   0.945   7.569   4.429
 9312TIP3    H127877   0.937   7.536   4.339
 9312TIP3    H227878   1.039   7.577   4.443
 9313TIP3   OH227879   2.601   7.953   4.559
 9313TIP3    H127880   2.670   7.889   4.544
 9313TIP3    H227881   2.588   7.995   4.474
 9314TIP3   OH227882   2.785   7.748   4.536
 9314TIP3    H127883   2.710   7.699   4.570
 9314TIP3    H227884   2.860   7.691   4.552
 9315TIP3   OH227885   2.260   6.966   3.074
 9315TIP3    H127886   2.322   6.940   3.142
 9315TIP3    H227887   2.178   6.924   3.100
 9316TIP3   OH227888   2.327   7.250   3.542
 9316TIP3    H127889   2.368   7.165   3.557
 9316TIP3    H227890   2.372   7.286   3.466
 9317TIP3   OH227891   2.479   7.416   4.064
 9317TIP3    H127892   2.560   7.436   4.017
 9317TIP3    H227893   2.492   7.451   4.152
 9318TIP3   OH227894   2.549   7.561   4.292
 9318TIP3    H127895   2.474   7.589   4.344
 9318TIP3    H227896   2.581   7.641   4.250
 9319TIP3   OH227897   1.172   7.284   5.082
 9319TIP3    H127898   1.267   7.277   5.092
 9319TIP3    H227899   1.137   7.202   5.117
 9320TIP3   OH227900   3.005   7.177   4.830
 9320TIP3    H127901   3.067   7.115   4.793
 9320TIP3    H227902   2.968   7.223   4.755
 9321TIP3   OH227903   2.433   7.001   3.594
 9321TIP3    H127904   2.477   6.986   3.678
 9321TIP3    H227905   2.371   6.929   3.587
 9322TIP3   OH227906   1.138   6.987   4.433
 9322TIP3    H127907   1.191   6.907   4.433
 9322TIP3    H227908   1.200   7.057   4.412
 9323TIP3   OH227909   0.935   7.255   4.485
 9323TIP3    H127910   0.976   7.236   4.400
 9323TIP3    H227911   0.978   7.336   4.514
 9324TIP3   OH227912   2.858   7.282   4.621
 9324TIP3    H127913   2.768   7.316   4.619
 9324TIP3    H227914   2.852   7.198   4.575
 9325TIP3   OH227915   2.488   6.922   3.234
 9325TIP3    H127916   2.532   6.858   3.178
 9325TIP3    H227917   2.548   6.997   3.236
 9326TIP3   OH227918   0.916   6.774   4.002
 9326TIP3    H127919   0.825   6.754   4.024
 9326TIP3    H227920   0.911   6.823   3.920
 9327TIP3   OH227921   1.136   6.834   4.817
 9327TIP3    H127922   1.082   6.824   4.896
 9327TIP3    H227923   1.078   6.875   4.753
 9328TIP3   OH227924   4.070   0.013   4.942
 9328TIP3    H127925   4.018   0.065   4.882
 9328TIP3    H227926   4.047   0.046   5.029
 9329TIP3   OH227927   2.776   7.026   4.530
 9329TIP3    H127928   2.686   7.008   4.503
 9329TIP3    H227929   2.820   6.941   4.525
 9330TIP3   OH227930   1.954   6.976   4.158
 9330TIP3    H127931   1.918   6.912   4.219
 9330TIP3    H227932   1.957   6.931   4.074
 9331TIP3   OH227933   2.490   6.866   4.046
 9331TIP3    H127934   2.524   6.916   3.972
 9331TIP3    H227935   2.395   6.874   4.039
 9332TIP3   OH227936   2.597   6.957   3.812
 9332TIP3    H127937   2.667   6.898   3.784
 9332TIP3    H227938   2.633   7.045   3.799
 9333TIP3   OH227939   1.208   6.671   4.168
 9333TIP3    H127940   1.118   6.639   4.171
 9333TIP3    H227941   1.262   6.591   4.161
 9334TIP3   OH227942   1.040   6.561   3.818
 9334TIP3    H127943   1.068   6.610   3.740
 9334TIP3    H227944   1.005   6.627   3.877
 9335TIP3   OH227945   2.216   6.866   4.021
 9335TIP3    H127946   2.144   6.860   3.959
 9335TIP3    H227947   2.203   6.793   4.081
 9336TIP3   OH227948   2.249   6.791   3.595
 9336TIP3    H127949   2.170   6.841   3.617
 9336TIP3    H227950   2.236   6.706   3.637
 9337TIP3   OH227951   1.147   6.693   3.580
 9337TIP3    H127952   1.194   6.632   3.523
 9337TIP3    H227953   1.215   6.748   3.617
 9338TIP3   OH227954   1.701   6.912   3.650
 9338TIP3    H127955   1.665   6.847   3.709
 9338TIP3    H227956   1.694   6.995   3.698
 9339TIP3   OH227957   1.441   6.946   5.048
 9339TIP3    H127958   1.406   6.875   5.103
 9339TIP3    H227959   1.533   6.952   5.073
 9340TIP3   OH227960   1.691   6.953   5.169
 9340TIP3    H127961   1.769   6.928   5.120
 9340TIP3    H227962   1.681   6.883   5.234
 9341TIP3   OH227963   2.516   7.036   4.955
 9341TIP3    H127964   2.531   7.005   5.045
 9341TIP3    H227965   2.601   7.029   4.913
 9342TIP3   OH227966   3.727   7.922   3.242
 9342TIP3    H127967   3.711   8.007   3.199
 9342TIP3    H227968   3.657   7.865   3.207
 9343TIP3   OH227969   3.702   7.929   3.616
 9343TIP3    H127970   3.748   7.918   3.700
 9343TIP3    H227971   3.665   7.843   3.598
 9344TIP3   OH227972   3.005   7.818   3.970
 9344TIP3    H127973   3.039   7.761   4.038
 9344TIP3    H227974   3.082   7.841   3.917
 9345TIP3   OH227975   6.764   0.082   3.287
 9345TIP3    H127976   6.765   0.003   3.341
 9345TIP3    H227977   6.800   0.150   3.343
 9346TIP3   OH227978   5.920   0.035   3.752
 9346TIP3    H127979   5.881  -0.047   3.723
 9346TIP3    H227980   5.990   0.052   3.689
 9347TIP3   OH227981   2.687   7.448   3.447
 9347TIP3    H127982   2.641   7.529   3.472
 9347TIP3    H227983   2.618   7.391   3.413
 9348TIP3   OH227984   2.749   7.747   3.671
 9348TIP3    H127985   2.792   7.666   3.698
 9348TIP3    H227986   2.821   7.806   3.647
 9349TIP3   OH227987   6.395   0.030   3.666
 9349TIP3    H127988   6.433  -0.050   3.629
 9349TIP3    H227989   6.469   0.076   3.707
 9350TIP3   OH227990   4.533   7.493   3.644
 9350TIP3    H127991   4.557   7.577   3.684
 9350TIP3    H227992   4.563   7.500   3.553
 9351TIP3   OH227993   3.927   7.665   3.671
 9351TIP3    H127994   3.967   7.581   3.696
 9351TIP3    H227995   3.891   7.648   3.584
 9352TIP3   OH227996   3.275   7.320   3.631
 9352TIP3    H127997   3.256   7.392   3.571
 9352TIP3    H227998   3.224   7.247   3.599
 9353TIP3   OH227999   3.972   7.420   3.258
 9353TIP3    H128000   4.036   7.413   3.328
 9353TIP3    H228001   4.021   7.453   3.183
 9354TIP3   OH228002   2.898   7.530   3.752
 9354TIP3    H128003   2.981   7.510   3.796
 9354TIP3    H228004   2.901   7.481   3.670
 9355TIP3   OH228005   3.332   7.721   3.569
 9355TIP3    H128006   3.426   7.706   3.576
 9355TIP3    H228007   3.297   7.639   3.534
 9356TIP3   OH228008   4.599   7.711   3.813
 9356TIP3    H128009   4.510   7.745   3.811
 9356TIP3    H228010   4.637   7.745   3.894
 9357TIP3   OH228011   3.258   7.322   4.078
 9357TIP3    H128012   3.204   7.354   4.005
 9357TIP3    H228013   3.203   7.336   4.156
 9358TIP3   OH228014   6.534   0.013   3.060
 9358TIP3    H128015   6.467   0.002   2.994
 9358TIP3    H228016   6.543   0.108   3.070
 9359TIP3   OH228017   3.369   8.053   3.867
 9359TIP3    H128018   3.316   8.121   3.910
 9359TIP3    H228019   3.413   8.099   3.795
 9360TIP3   OH228020   4.138   7.446   3.472
 9360TIP3    H128021   4.105   7.420   3.559
 9360TIP3    H228022   4.200   7.517   3.490
 9361TIP3   OH228023   3.142   7.427   3.848
 9361TIP3    H128024   3.199   7.500   3.873
 9361TIP3    H228025   3.188   7.383   3.777
 9362TIP3   OH228026   6.055   0.117   3.977
 9362TIP3    H128027   6.007   0.094   3.898
 9362TIP3    H228028   5.987   0.146   4.038
 9363TIP3   OH228029   2.591   7.953   3.251
 9363TIP3    H128030   2.559   7.969   3.163
 9363TIP3    H228031   2.647   8.028   3.271
 9364TIP3   OH228032   6.894   0.275   3.425
 9364TIP3    H128033   6.899   0.275   3.521
 9364TIP3    H228034   6.919   0.364   3.400
 9365TIP3   OH228035   4.337   7.385   3.815
 9365TIP3    H128036   4.251   7.408   3.780
 9365TIP3    H228037   4.399   7.411   3.747
 9366TIP3   OH228038   3.601   7.015   3.800
 9366TIP3    H128039   3.594   6.924   3.826
 9366TIP3    H228040   3.525   7.057   3.841
 9367TIP3   OH228041   6.814   0.137   3.024
 9367TIP3    H128042   6.798   0.059   2.972
 9367TIP3    H228043   6.789   0.112   3.113
 9368TIP3   OH228044   7.163   0.223   3.797
 9368TIP3    H128045   7.127   0.152   3.744
 9368TIP3    H228046   7.145   0.302   3.745
 9369TIP3   OH228047   3.569   7.780   3.062
 9369TIP3    H128048   3.488   7.830   3.050
 9369TIP3    H228049   3.608   7.778   2.974
 9370TIP3   OH228050   3.509   7.585   2.749
 9370TIP3    H128051   3.573   7.638   2.797
 9370TIP3    H228052   3.562   7.519   2.705
 9371TIP3   OH228053   4.433   8.044   3.658
 9371TIP3    H128054   4.345   8.081   3.649
 9371TIP3    H228055   4.471   8.049   3.571
 9372TIP3   OH228056   3.892   7.850   3.034
 9372TIP3    H128057   3.841   7.873   3.111
 9372TIP3    H228058   3.979   7.828   3.068
 9373TIP3   OH228059   4.119   7.903   3.946
 9373TIP3    H128060   4.117   7.980   4.002
 9373TIP3    H228061   4.036   7.905   3.899
 9374TIP3   OH228062   3.137   7.851   3.422
 9374TIP3    H128063   3.096   7.790   3.361
 9374TIP3    H228064   3.204   7.799   3.467
 9375TIP3   OH228065   6.117   0.070   3.574
 9375TIP3    H128066   6.081   0.068   3.486
 9375TIP3    H228067   6.212   0.064   3.561
 9376TIP3   OH228068   3.217   7.844   3.786
 9376TIP3    H128069   3.260   7.808   3.709
 9376TIP3    H228070   3.270   7.919   3.811
 9377TIP3   OH228071   6.637   0.389   3.669
 9377TIP3    H128072   6.548   0.421   3.686
 9377TIP3    H228073   6.624   0.305   3.623
 9378TIP3   OH228074   6.264   0.193   4.138
 9378TIP3    H128075   6.309   0.268   4.099
 9378TIP3    H228076   6.203   0.164   4.070
 9379TIP3   OH228077   3.731   7.734   2.841
 9379TIP3    H128078   3.794   7.784   2.893
 9379TIP3    H228079   3.760   7.744   2.751
 9380TIP3   OH228080   3.149   7.929   4.242
 9380TIP3    H128081   3.158   8.013   4.288
 9380TIP3    H228082   3.055   7.912   4.242
 9381TIP3   OH228083   4.237   6.975   2.899
 9381TIP3    H128084   4.160   6.995   2.952
 9381TIP3    H228085   4.249   7.052   2.845
 9382TIP3   OH228086   3.006   7.679   3.247
 9382TIP3    H128087   2.927   7.718   3.207
 9382TIP3    H228088   2.978   7.592   3.273
 9383TIP3   OH228089   2.775   8.062   4.105
 9383TIP3    H128090   2.748   8.008   4.031
 9383TIP3    H228091   2.796   8.000   4.174
 9384TIP3   OH228092   7.226   0.629   3.822
 9384TIP3    H128093   7.263   0.599   3.739
 9384TIP3    H228094   7.301   0.660   3.872
 9385TIP3   OH228095   4.366   7.870   4.123
 9385TIP3    H128096   4.285   7.873   4.072
 9385TIP3    H228097   4.390   7.777   4.124
 9386TIP3   OH228098   5.842   0.124   4.164
 9386TIP3    H128099   5.900   0.087   4.230
 9386TIP3    H228100   5.787   0.050   4.136
 9387TIP3   OH228101   3.364   7.108   3.929
 9387TIP3    H128102   3.280   7.075   3.898
 9387TIP3    H228103   3.342   7.188   3.978
 9388TIP3   OH228104   3.906   7.226   4.129
 9388TIP3    H128105   3.977   7.200   4.187
 9388TIP3    H228106   3.826   7.206   4.178
 9389TIP3   OH228107   4.131   7.643   4.041
 9389TIP3    H128108   4.090   7.642   4.127
 9389TIP3    H228109   4.114   7.731   4.007
 9390TIP3   OH228110   3.805   7.748   2.581
 9390TIP3    H128111   3.758   7.725   2.501
 9390TIP3    H228112   3.859   7.824   2.556
 9391TIP3   OH228113   3.511   7.155   2.898
 9391TIP3    H128114   3.477   7.159   2.987
 9391TIP3    H228115   3.477   7.073   2.863
 9392TIP3   OH228116   3.303   7.631   3.940
 9392TIP3    H128117   3.258   7.640   4.024
 9392TIP3    H228118   3.277   7.709   3.891
 9393TIP3   OH228119   3.185   7.515   3.461
 9393TIP3    H128120   3.097   7.489   3.486
 9393TIP3    H228121   3.196   7.482   3.372
 9394TIP3   OH228122   3.678   7.572   3.192
 9394TIP3    H128123   3.635   7.646   3.149
 9394TIP3    H228124   3.739   7.539   3.126
 9395TIP3   OH228125   3.869   7.858   4.263
 9395TIP3    H128126   3.841   7.788   4.322
 9395TIP3    H228127   3.961   7.871   4.284
 9396TIP3   OH228128   3.838   7.609   3.419
 9396TIP3    H128129   3.770   7.632   3.355
 9396TIP3    H228130   3.881   7.533   3.380
 9397TIP3   OH228131   3.128   7.645   4.154
 9397TIP3    H128132   3.161   7.707   4.220
 9397TIP3    H228133   3.113   7.564   4.202
 9398TIP3   OH228134   3.180   7.133   2.872
 9398TIP3    H128135   3.168   7.133   2.967
 9398TIP3    H228136   3.100   7.175   2.838
 9399TIP3   OH228137   2.725   7.183   3.733
 9399TIP3    H128138   2.800   7.210   3.785
 9399TIP3    H228139   2.762   7.146   3.653
 9400TIP3   OH228140   2.653   7.149   3.249
 9400TIP3    H128141   2.695   7.183   3.170
 9400TIP3    H228142   2.588   7.215   3.272
 9401TIP3   OH228143   3.857   7.862   3.840
 9401TIP3    H128144   3.888   7.797   3.778
 9401TIP3    H228145   3.821   7.811   3.913
 9402TIP3   OH228146   3.541   7.318   3.516
 9402TIP3    H128147   3.465   7.314   3.573
 9402TIP3    H228148   3.616   7.302   3.573
 9403TIP3   OH228149   2.947   7.393   3.518
 9403TIP3    H128150   2.857   7.397   3.485
 9403TIP3    H228151   2.974   7.302   3.504
 9404TIP3   OH228152   3.197   7.395   3.215
 9404TIP3    H128153   3.292   7.403   3.203
 9404TIP3    H228154   3.161   7.410   3.128
 9405TIP3   OH228155   4.008   7.402   3.722
 9405TIP3    H128156   3.982   7.417   3.813
 9405TIP3    H228157   3.946   7.336   3.689
 9406TIP3   OH228158   3.073   7.419   2.971
 9406TIP3    H128159   3.007   7.368   2.925
 9406TIP3    H228160   3.130   7.453   2.902
 9407TIP3   OH228161   6.009   0.058   4.383
 9407TIP3    H128162   6.096   0.072   4.418
 9407TIP3    H228163   5.955   0.125   4.423
 9408TIP3   OH228164   3.601   7.665   3.618
 9408TIP3    H128165   3.665   7.613   3.570
 9408TIP3    H228166   3.599   7.627   3.706
 9409TIP3   OH228167   3.094   7.145   3.507
 9409TIP3    H128168   3.063   7.070   3.559
 9409TIP3    H228169   3.126   7.106   3.426
 9410TIP3   OH228170   3.572   7.581   3.886
 9410TIP3    H128171   3.484   7.609   3.911
 9410TIP3    H228172   3.630   7.632   3.942
 9411TIP3   OH228173   3.337   7.916   3.055
 9411TIP3    H128174   3.273   7.844   3.055
 9411TIP3    H228175   3.327   7.957   3.141
 9412TIP3   OH228176   7.043   0.045   3.626
 9412TIP3    H128177   7.079   0.089   3.550
 9412TIP3    H228178   6.963   0.003   3.594
 9413TIP3   OH228179   3.767   7.250   2.892
 9413TIP3    H128180   3.673   7.232   2.892
 9413TIP3    H228181   3.773   7.344   2.907
 9414TIP3   OH228182   6.587   0.123   4.031
 9414TIP3    H128183   6.561   0.126   4.123
 9414TIP3    H228184   6.616   0.212   4.011
 9415TIP3   OH228185   3.836   7.507   2.971
 9415TIP3    H128186   3.931   7.512   2.980
 9415TIP3    H228187   3.813   7.583   2.917
 9416TIP3   OH228188   2.980   7.899   3.643
 9416TIP3    H128189   3.022   7.896   3.557
 9416TIP3    H228190   3.045   7.863   3.703
 9417TIP3   OH228191   3.456   8.095   2.888
 9417TIP3    H128192   3.390   8.132   2.829
 9417TIP3    H228193   3.408   8.029   2.939
 9418TIP3   OH228194   2.876   7.892   4.301
 9418TIP3    H128195   2.903   7.876   4.392
 9418TIP3    H228196   2.806   7.828   4.286
 9419TIP3   OH228197   3.615   7.955   4.315
 9419TIP3    H128198   3.551   7.903   4.267
 9419TIP3    H228199   3.700   7.927   4.280
 9420TIP3   OH228200   6.672   0.370   3.941
 9420TIP3    H128201   6.680   0.382   3.847
 9420TIP3    H228202   6.722   0.442   3.979
 9421TIP3   OH228203   4.253   7.594   2.803
 9421TIP3    H128204   4.194   7.551   2.741
 9421TIP3    H228205   4.267   7.681   2.766
 9422TIP3   OH228206   7.405   0.338   3.866
 9422TIP3    H128207   7.315   0.306   3.866
 9422TIP3    H228208   7.439   0.316   3.779
 9423TIP3   OH228209   6.868   0.138   2.651
 9423TIP3    H128210   6.912   0.074   2.707
 9423TIP3    H228211   6.780   0.100   2.637
 9424TIP3   OH228212   3.949   8.028   3.518
 9424TIP3    H128213   3.862   7.998   3.544
 9424TIP3    H228214   3.991   7.950   3.481
 9425TIP3   OH228215   5.951   0.098   3.335
 9425TIP3    H128216   5.994   0.150   3.268
 9425TIP3    H228217   5.884   0.049   3.288
 9426TIP3   OH228218   2.662   7.568   2.997
 9426TIP3    H128219   2.722   7.635   3.029
 9426TIP3    H228220   2.596   7.560   3.065
 9427TIP3   OH228221   3.301   8.036   3.298
 9427TIP3    H128222   3.230   8.099   3.286
 9427TIP3    H228223   3.263   7.967   3.352
 9428TIP3   OH228224   6.647   0.089   3.763
 9428TIP3    H128225   6.627   0.098   3.856
 9428TIP3    H228226   6.738   0.059   3.760
 9429TIP3   OH228227   3.727   8.120   2.644
 9429TIP3    H128228   3.766   8.089   2.727
 9429TIP3    H228229   3.640   8.080   2.643
 9430TIP3   OH228230   3.083   7.399   4.285
 9430TIP3    H128231   2.988   7.407   4.289
 9430TIP3    H228232   3.105   7.338   4.355
 9431TIP3   OH228233   3.907   8.037   2.841
 9431TIP3    H128234   3.888   7.974   2.910
 9431TIP3    H228235   4.001   8.029   2.826
 9432TIP3   OH228236   3.225   8.036   2.662
 9432TIP3    H128237   3.197   7.961   2.608
 9432TIP3    H228238   3.179   8.111   2.624
 9433TIP3   OH228239   6.008   0.130   2.873
 9433TIP3    H128240   5.996   0.038   2.848
 9433TIP3    H228241   5.944   0.177   2.820
 9434TIP3   OH228242   2.781   7.783   3.129
 9434TIP3    H128243   2.718   7.821   3.190
 9434TIP3    H228244   2.783   7.845   3.056
 9435TIP3   OH228245   3.933   7.458   3.982
 9435TIP3    H128246   4.014   7.499   4.012
 9435TIP3    H228247   3.924   7.380   4.037
 9436TIP3   OH228248   3.823   7.204   3.163
 9436TIP3    H128249   3.806   7.221   3.071
 9436TIP3    H228250   3.867   7.283   3.195
 9437TIP3   OH228251   3.476   7.401   3.261
 9437TIP3    H128252   3.545   7.462   3.234
 9437TIP3    H228253   3.495   7.382   3.352
 9438TIP3   OH228254   3.781   7.691   4.040
 9438TIP3    H128255   3.814   7.729   4.121
 9438TIP3    H228256   3.829   7.608   4.032
 9439TIP3   OH228257   3.641   7.104   3.347
 9439TIP3    H128258   3.623   7.181   3.400
 9439TIP3    H228259   3.709   7.132   3.286
 9440TIP3   OH228260   3.154   7.122   3.150
 9440TIP3    H128261   3.143   7.211   3.183
 9440TIP3    H228262   3.248   7.105   3.155
 9441TIP3   OH228263   4.399   7.599   4.034
 9441TIP3    H128264   4.303   7.602   4.042
 9441TIP3    H228265   4.415   7.548   3.956
 9442TIP3   OH228266   4.057   7.793   3.417
 9442TIP3    H128267   3.984   7.732   3.426
 9442TIP3    H228268   4.127   7.753   3.469
 9443TIP3   OH228269   2.749   7.975   2.938
 9443TIP3    H128270   2.745   8.063   2.975
 9443TIP3    H228271   2.788   7.988   2.852
 9444TIP3   OH228272   2.713   7.292   3.022
 9444TIP3    H128273   2.718   7.387   3.020
 9444TIP3    H228274   2.677   7.268   2.937
 9445TIP3   OH228275   3.101   7.022   3.894
 9445TIP3    H128276   3.073   6.988   3.809
 9445TIP3    H228277   3.093   6.947   3.953
 9446TIP3   OH228278   6.738   0.521   4.167
 9446TIP3    H128279   6.689   0.510   4.248
 9446TIP3    H228280   6.787   0.602   4.180
 9447TIP3   OH228281   5.776   0.019   4.587
 9447TIP3    H128282   5.835  -0.049   4.555
 9447TIP3    H228283   5.720   0.040   4.512
 9448TIP3   OH228284   2.934   7.776   2.744
 9448TIP3    H128285   2.977   7.796   2.827
 9448TIP3    H228286   3.005   7.773   2.680
 9449TIP3   OH228287   6.463   0.119   4.311
 9449TIP3    H128288   6.387   0.136   4.255
 9449TIP3    H228289   6.468   0.024   4.315
 9450TIP3   OH228290   3.484   8.006   2.580
 9450TIP3    H128291   3.398   8.025   2.617
 9450TIP3    H228292   3.481   7.913   2.559
 9451TIP3   OH228293   6.905   0.165   3.907
 9451TIP3    H128294   6.995   0.195   3.893
 9451TIP3    H228295   6.872   0.222   3.977
 9452TIP3   OH228296   3.071   7.902   4.536
 9452TIP3    H128297   3.153   7.883   4.489
 9452TIP3    H228298   3.100   7.933   4.622
 9453TIP3   OH228299   3.154   7.718   3.005
 9453TIP3    H128300   3.106   7.675   3.077
 9453TIP3    H228301   3.174   7.647   2.944
 9454TIP3   OH228302   3.392   7.808   4.192
 9454TIP3    H128303   3.314   7.862   4.198
 9454TIP3    H228304   3.439   7.843   4.116
 9455TIP3   OH228305   3.235   7.551   2.794
 9455TIP3    H128306   3.205   7.548   2.703
 9455TIP3    H228307   3.330   7.558   2.787
 9456TIP3   OH228308   6.798   0.114   4.332
 9456TIP3    H128309   6.831   0.056   4.264
 9456TIP3    H228310   6.786   0.058   4.408
 9457TIP3   OH228311   4.110   7.818   2.452
 9457TIP3    H128312   4.077   7.765   2.380
 9457TIP3    H228313   4.046   7.889   2.462
 9458TIP3   OH228314   3.512   7.600   4.318
 9458TIP3    H128315   3.519   7.524   4.260
 9458TIP3    H228316   3.471   7.668   4.265
 9459TIP3   OH228317   3.518   7.403   4.116
 9459TIP3    H128318   3.548   7.438   4.031
 9459TIP3    H228319   3.428   7.377   4.101
 9460TIP3   OH228320   3.557   7.917   4.008
 9460TIP3    H128321   3.644   7.949   3.986
 9460TIP3    H228322   3.498   7.971   3.954
 9461TIP3   OH228323   4.127   7.886   4.379
 9461TIP3    H128324   4.174   7.803   4.377
 9461TIP3    H228325   4.195   7.953   4.372
 9462TIP3   OH228326   7.014   0.013   4.112
 9462TIP3    H128327   6.960   0.072   4.058
 9462TIP3    H228328   7.104   0.033   4.086
 9463TIP3   OH228329   3.388   7.699   4.552
 9463TIP3    H128330   3.323   7.631   4.573
 9463TIP3    H228331   3.422   7.672   4.467
 9464TIP3   OH228332   3.641   7.169   4.210
 9464TIP3    H128333   3.599   7.249   4.178
 9464TIP3    H228334   3.576   7.100   4.197
 9465TIP3   OH228335   3.770   7.651   4.413
 9465TIP3    H128336   3.763   7.639   4.507
 9465TIP3    H228337   3.684   7.628   4.379
 9466TIP3   OH228338   4.016   7.602   4.281
 9466TIP3    H128339   3.938   7.598   4.337
 9466TIP3    H228340   4.088   7.576   4.338
 9467TIP3   OH228341   4.245   7.560   4.432
 9467TIP3    H128342   4.261   7.465   4.438
 9467TIP3    H228343   4.242   7.589   4.523
 9468TIP3   OH228344   3.231   7.475   4.619
 9468TIP3    H128345   3.235   7.388   4.580
 9468TIP3    H228346   3.270   7.465   4.706
 9469TIP3   OH228347   3.713   7.157   4.475
 9469TIP3    H128348   3.782   7.091   4.471
 9469TIP3    H228349   3.681   7.164   4.385
 9470TIP3   OH228350   3.801   7.374   4.619
 9470TIP3    H128351   3.774   7.301   4.563
 9470TIP3    H228352   3.726   7.435   4.617
 9471TIP3   OH228353   2.481   7.953   3.004
 9471TIP3    H128354   2.568   7.946   2.964
 9471TIP3    H228355   2.421   7.951   2.930
 9472TIP3   OH228356   7.172   0.489   4.132
 9472TIP3    H128357   7.128   0.572   4.150
 9472TIP3    H228358   7.260   0.515   4.103
 9473TIP3   OH228359   4.178   8.051   2.812
 9473TIP3    H128360   4.243   8.109   2.772
 9473TIP3    H228361   4.224   8.013   2.887
 9474TIP3   OH228362   4.319   7.926   3.012
 9474TIP3    H128363   4.260   7.882   3.073
 9474TIP3    H228364   4.390   7.960   3.068
 9475TIP3   OH228365   7.208   0.158   3.446
 9475TIP3    H128366   7.266   0.090   3.413
 9475TIP3    H228367   7.238   0.238   3.404
 9476TIP3   OH228368   4.271   7.830   2.668
 9476TIP3    H128369   4.214   7.820   2.592
 9476TIP3    H228370   4.237   7.907   2.714
 9477TIP3   OH228371   4.094   7.497   2.605
 9477TIP3    H128372   4.053   7.542   2.531
 9477TIP3    H228373   4.082   7.404   2.586
 9478TIP3   OH228374   4.130   7.778   3.152
 9478TIP3    H128375   4.139   7.683   3.139
 9478TIP3    H228376   4.112   7.788   3.246
 9479TIP3   OH228377   2.743   7.867   3.919
 9479TIP3    H128378   2.722   7.832   3.833
 9479TIP3    H228379   2.837   7.851   3.929
 9480TIP3   OH228380   7.260   0.085   4.018
 9480TIP3    H128381   7.331   0.023   4.002
 9480TIP3    H228382   7.245   0.127   3.933
 9481TIP3   OH228383   4.581   7.996   4.012
 9481TIP3    H128384   4.508   7.949   4.055
 9481TIP3    H228385   4.657   7.941   4.029
 9482TIP3   OH228386   4.053   7.227   2.563
 9482TIP3    H128387   4.120   7.201   2.626
 9482TIP3    H228388   3.974   7.183   2.593
 9483TIP3   OH228389   4.120   7.507   3.034
 9483TIP3    H128390   4.162   7.423   3.049
 9483TIP3    H228391   4.166   7.544   2.959
 9484TIP3   OH228392   4.274   7.678   3.548
 9484TIP3    H128393   4.356   7.696   3.501
 9484TIP3    H228394   4.289   7.711   3.636
 9485TIP3   OH228395   4.340   7.817   3.783
 9485TIP3    H128396   4.264   7.846   3.833
 9485TIP3    H228397   4.375   7.897   3.743
 9486TIP3   OH228398   2.964   7.538   4.579
 9486TIP3    H128399   3.059   7.529   4.586
 9486TIP3    H228400   2.930   7.455   4.613
 9487TIP3   OH228401   4.803   7.425   4.321
 9487TIP3    H128402   4.866   7.366   4.280
 9487TIP3    H228403   4.766   7.475   4.248
 9488TIP3   OH228404   4.228   7.258   3.085
 9488TIP3    H128405   4.276   7.243   3.166
 9488TIP3    H228406   4.168   7.184   3.079
 9489TIP3   OH228407   2.934   7.243   3.910
 9489TIP3    H128408   2.986   7.163   3.916
 9489TIP3    H228409   2.997   7.312   3.893
 9490TIP3   OH228410   2.723   7.509   3.974
 9490TIP3    H128411   2.768   7.501   3.890
 9490TIP3    H228412   2.781   7.565   4.026
 9491TIP3   OH228413   4.655   7.540   4.121
 9491TIP3    H128414   4.567   7.576   4.128
 9491TIP3    H228415   4.644   7.461   4.067
 9492TIP3   OH228416   4.281   7.180   2.719
 9492TIP3    H128417   4.324   7.115   2.663
 9492TIP3    H228418   4.342   7.253   2.723
 9493TIP3   OH228419   2.709   7.021   3.483
 9493TIP3    H128420   2.621   7.004   3.517
 9493TIP3    H228421   2.695   7.072   3.403
 9494TIP3   OH228422   2.931   7.095   4.303
 9494TIP3    H128423   2.875   7.073   4.378
 9494TIP3    H228424   2.871   7.133   4.239
 9495TIP3   OH228425   5.899   0.299   4.464
 9495TIP3    H128426   5.911   0.311   4.369
 9495TIP3    H228427   5.968   0.353   4.503
 9496TIP3   OH228428   4.572   7.295   4.012
 9496TIP3    H128429   4.486   7.288   3.970
 9496TIP3    H228430   4.609   7.207   4.004
 9497TIP3   OH228431   3.767   7.216   3.643
 9497TIP3    H128432   3.731   7.143   3.694
 9497TIP3    H228433   3.839   7.176   3.593
 9498TIP3   OH228434   4.277   7.127   3.538
 9498TIP3    H128435   4.318   7.176   3.466
 9498TIP3    H228436   4.185   7.152   3.535
 9499TIP3   OH228437   4.391   7.213   3.303
 9499TIP3    H128438   4.459   7.150   3.278
 9499TIP3    H228439   4.431   7.299   3.288
 9500TIP3   OH228440   3.017   6.921   3.650
 9500TIP3    H128441   2.927   6.888   3.658
 9500TIP3    H228442   3.071   6.842   3.643
 9501TIP3   OH228443   2.823   6.822   3.304
 9501TIP3    H128444   2.850   6.874   3.228
 9501TIP3    H228445   2.792   6.887   3.367
 9502TIP3   OH228446   3.484   6.965   3.540
 9502TIP3    H128447   3.536   7.009   3.473
 9502TIP3    H228448   3.527   6.988   3.623
 9503TIP3   OH228449   3.989   7.106   3.518
 9503TIP3    H128450   4.007   7.070   3.431
 9503TIP3    H228451   3.993   7.030   3.577
 9504TIP3   OH228452   4.044   7.048   3.084
 9504TIP3    H128453   3.963   7.094   3.108
 9504TIP3    H228454   4.035   6.962   3.124
 9505TIP3   OH228455   2.938   6.958   3.066
 9505TIP3    H128456   2.983   6.894   3.010
 9505TIP3    H228457   3.009   7.012   3.101
 9506TIP3   OH228458   3.429   7.150   3.163
 9506TIP3    H128459   3.487   7.096   3.215
 9506TIP3    H228460   3.445   7.240   3.192
 9507TIP3   OH228461   3.238   7.202   4.537
 9507TIP3    H128462   3.202   7.135   4.595
 9507TIP3    H228463   3.330   7.208   4.561
 9508TIP3   OH228464   3.488   7.209   4.656
 9508TIP3    H128465   3.566   7.187   4.606
 9508TIP3    H228466   3.481   7.139   4.721
 9509TIP3   OH228467   4.312   7.291   4.442
 9509TIP3    H128468   4.329   7.261   4.532
 9509TIP3    H228469   4.397   7.285   4.398
 9510TIP3   OH228470   8.376   0.093   2.695
 9510TIP3    H128471   8.348   0.181   2.668
 9510TIP3    H228472   8.303   0.036   2.670
 9511TIP3   OH228473   8.371   0.088   3.104
 9511TIP3    H128474   8.418   0.072   3.186
 9511TIP3    H228475   8.327   0.005   3.086
 9512TIP3   OH228476   4.806   8.083   3.462
 9512TIP3    H128477   4.841   8.022   3.527
 9512TIP3    H228478   4.883   8.108   3.409
 9513TIP3   OH228479   0.019   0.382   2.755
 9513TIP3    H128480   0.004   0.309   2.816
 9513TIP3    H228481   0.044   0.455   2.811
 9514TIP3   OH228482   7.753   0.297   3.226
 9514TIP3    H128483   7.714   0.214   3.196
 9514TIP3    H228484   7.818   0.318   3.159
 9515TIP3   OH228485   4.481   7.702   2.936
 9515TIP3    H128486   4.439   7.787   2.955
 9515TIP3    H228487   4.409   7.647   2.905
 9516TIP3   OH228488   4.552   7.999   3.148
 9516TIP3    H128489   4.596   7.917   3.172
 9516TIP3    H228490   4.623   8.060   3.128
 9517TIP3   OH228491   8.202   0.316   3.113
 9517TIP3    H128492   8.238   0.232   3.084
 9517TIP3    H228493   8.277   0.363   3.149
 9518TIP3   OH228494   6.336   7.747   3.123
 9518TIP3    H128495   6.354   7.830   3.167
 9518TIP3    H228496   6.365   7.761   3.032
 9519TIP3   OH228497   5.725   7.922   3.150
 9519TIP3    H128498   5.758   7.836   3.178
 9519TIP3    H228499   5.685   7.906   3.065
 9520TIP3   OH228500   5.080   7.583   3.109
 9520TIP3    H128501   5.053   7.656   3.053
 9520TIP3    H228502   5.025   7.510   3.082
 9521TIP3   OH228503   5.769   7.679   2.743
 9521TIP3    H128504   5.832   7.670   2.815
 9521TIP3    H228505   5.820   7.712   2.670
 9522TIP3   OH228506   4.696   7.782   3.236
 9522TIP3    H128507   4.778   7.762   3.282
 9522TIP3    H228508   4.701   7.733   3.155
 9523TIP3   OH228509   5.124   7.984   3.047
 9523TIP3    H128510   5.218   7.967   3.057
 9523TIP3    H228511   5.088   7.902   3.014
 9524TIP3   OH228512   6.386   7.952   3.308
 9524TIP3    H128513   6.309   8.004   3.287
 9524TIP3    H228514   6.370   7.920   3.396
 9525TIP3   OH228515   5.066   7.587   3.577
 9525TIP3    H128516   5.068   7.492   3.566
 9525TIP3    H228517   4.999   7.602   3.643
 9526TIP3   OH228518   8.286   0.312   2.551
 9526TIP3    H128519   8.234   0.304   2.472
 9526TIP3    H228520   8.342   0.388   2.535
 9527TIP3   OH228521   8.062   0.199   3.322
 9527TIP3    H128522   8.013   0.261   3.377
 9527TIP3    H228523   8.104   0.253   3.256
 9528TIP3   OH228524   5.933   7.698   2.960
 9528TIP3    H128525   5.893   7.674   3.044
 9528TIP3    H228526   5.990   7.772   2.981
 9529TIP3   OH228527   4.932   7.677   3.330
 9529TIP3    H128528   4.992   7.701   3.401
 9529TIP3    H228529   4.990   7.641   3.262
 9530TIP3   OH228530   7.885   0.348   3.463
 9530TIP3    H128531   7.836   0.337   3.382
 9530TIP3    H228532   7.818   0.367   3.529
 9531TIP3   OH228533   7.234   0.095   2.691
 9531TIP3    H128534   7.208   0.127   2.605
 9531TIP3    H228535   7.284   0.166   2.730
 9532TIP3   OH228536   0.076   0.593   2.931
 9532TIP3    H128537   0.008   0.608   2.997
 9532TIP3    H228538   0.089   0.679   2.891
 9533TIP3   OH228539   6.128   7.656   3.293
 9533TIP3    H128540   6.042   7.677   3.255
 9533TIP3    H228541   6.191   7.679   3.224
 9534TIP3   OH228542   5.391   7.264   3.288
 9534TIP3    H128543   5.407   7.170   3.296
 9534TIP3    H228544   5.319   7.282   3.348
 9535TIP3   OH228545   8.562   0.440   2.482
 9535TIP3    H128546   8.557   0.354   2.440
 9535TIP3    H228547   8.585   0.420   2.573
 9536TIP3   OH228548   0.293   0.550   3.254
 9536TIP3    H128549   0.280   0.469   3.205
 9536TIP3    H228550   0.267   0.619   3.193
 9537TIP3   OH228551   5.334   8.053   2.530
 9537TIP3    H128552   5.255   8.102   2.509
 9537TIP3    H228553   5.384   8.050   2.449
 9538TIP3   OH228554   5.302   7.849   2.243
 9538TIP3    H128555   5.369   7.900   2.288
 9538TIP3    H228556   5.350   7.782   2.195
 9539TIP3   OH228557   0.496   0.204   3.135
 9539TIP3    H128558   0.411   0.247   3.131
 9539TIP3    H228559   0.533   0.216   3.047
 9540TIP3   OH228560   8.557   0.017   2.505
 9540TIP3    H128561   8.502   0.044   2.578
 9540TIP3    H228562   8.640  -0.008   2.545
 9541TIP3   OH228563   0.186   0.066   3.435
 9541TIP3    H128564   0.181   0.147   3.486
 9541TIP3    H228565   0.103   0.064   3.387
 9542TIP3   OH228566   4.926   8.117   2.903
 9542TIP3    H128567   4.891   8.056   2.838
 9542TIP3    H228568   4.999   8.069   2.942
 9543TIP3   OH228569   7.940   0.369   3.039
 9543TIP3    H128570   7.945   0.370   2.944
 9543TIP3    H228571   8.031   0.360   3.068
 9544TIP3   OH228572   7.887  -0.007   3.273
 9544TIP3    H128573   7.924  -0.047   3.194
 9544TIP3    H228574   7.946   0.066   3.292
 9545TIP3   OH228575   8.473   0.638   3.115
 9545TIP3    H128576   8.383   0.661   3.094
 9545TIP3    H228577   8.467   0.550   3.153
 9546TIP3   OH228578   8.083   0.492   3.600
 9546TIP3    H128579   8.025   0.557   3.637
 9546TIP3    H228580   8.028   0.442   3.540
 9547TIP3   OH228581   5.523   8.002   2.323
 9547TIP3    H128582   5.584   8.055   2.375
 9547TIP3    H228583   5.551   8.014   2.233
 9548TIP3   OH228584   7.818   0.081   3.739
 9548TIP3    H128585   7.825   0.168   3.779
 9548TIP3    H228586   7.724   0.064   3.734
 9549TIP3   OH228587   6.034   7.232   2.387
 9549TIP3    H128588   5.956   7.251   2.440
 9549TIP3    H228589   6.045   7.310   2.333
 9550TIP3   OH228590   4.799   7.963   2.706
 9550TIP3    H128591   4.722   8.006   2.668
 9550TIP3    H228592   4.767   7.876   2.731
 9551TIP3   OH228593   7.448   0.229   3.618
 9551TIP3    H128594   7.387   0.203   3.550
 9551TIP3    H228595   7.480   0.147   3.655
 9552TIP3   OH228596   7.345   0.373   3.359
 9552TIP3    H128597   7.427   0.411   3.326
 9552TIP3    H228598   7.276   0.424   3.317
 9553TIP3   OH228599   0.480   0.843   3.382
 9553TIP3    H128600   0.525   0.760   3.369
 9553TIP3    H228601   0.434   0.833   3.465
 9554TIP3   OH228602   6.167   8.125   3.593
 9554TIP3    H128603   6.085   8.140   3.546
 9554TIP3    H228604   6.184   8.032   3.584
 9555TIP3   OH228605   7.675   0.380   3.637
 9555TIP3    H128606   7.708   0.344   3.720
 9555TIP3    H228607   7.596   0.330   3.619
 9556TIP3   OH228608   5.707   7.483   3.617
 9556TIP3    H128609   5.778   7.452   3.673
 9556TIP3    H228610   5.627   7.462   3.665
 9557TIP3   OH228611   5.925   7.912   3.532
 9557TIP3    H128612   5.883   7.908   3.617
 9557TIP3    H228613   5.905   8.000   3.500
 9558TIP3   OH228614   5.607   8.013   2.061
 9558TIP3    H128615   5.559   8.014   1.979
 9558TIP3    H228616   5.693   8.050   2.039
 9559TIP3   OH228617   5.308   7.410   2.387
 9559TIP3    H128618   5.276   7.414   2.478
 9559TIP3    H228619   5.272   7.329   2.352
 9560TIP3   OH228620   5.112   7.895   3.438
 9560TIP3    H128621   5.052   7.891   3.513
 9560TIP3    H228622   5.073   7.961   3.380
 9561TIP3   OH228623   4.978   7.776   2.942
 9561TIP3    H128624   4.890   7.749   2.969
 9561TIP3    H228625   4.989   7.738   2.855
 9562TIP3   OH228626   5.462   7.852   2.672
 9562TIP3    H128627   5.413   7.922   2.628
 9562TIP3    H228628   5.521   7.819   2.604
 9563TIP3   OH228629   5.653   8.120   3.754
 9563TIP3    H128630   5.624   8.051   3.813
 9563TIP3    H228631   5.746   8.131   3.773
 9564TIP3   OH228632   5.631   7.870   2.897
 9564TIP3    H128633   5.562   7.893   2.836
 9564TIP3    H228634   5.674   7.794   2.857
 9565TIP3   OH228635   4.925   7.905   3.643
 9565TIP3    H128636   4.956   7.964   3.711
 9565TIP3    H228637   4.911   7.822   3.689
 9566TIP3   OH228638   4.973   7.390   2.356
 9566TIP3    H128639   4.965   7.391   2.451
 9566TIP3    H228640   4.895   7.437   2.325
 9567TIP3   OH228641   4.530   7.429   3.218
 9567TIP3    H128642   4.602   7.458   3.274
 9567TIP3    H228643   4.573   7.391   3.141
 9568TIP3   OH228644   4.446   7.405   2.734
 9568TIP3    H128645   4.490   7.441   2.656
 9568TIP3    H228646   4.385   7.474   2.760
 9569TIP3   OH228647   5.662   8.119   3.324
 9569TIP3    H128648   5.690   8.054   3.260
 9569TIP3    H228649   5.626   8.067   3.396
 9570TIP3   OH228650   5.343   7.576   3.001
 9570TIP3    H128651   5.263   7.576   3.053
 9570TIP3    H228652   5.413   7.561   3.064
 9571TIP3   OH228653   4.744   7.649   3.001
 9571TIP3    H128654   4.653   7.650   2.969
 9571TIP3    H228655   4.774   7.560   2.987
 9572TIP3   OH228656   4.997   7.650   2.700
 9572TIP3    H128657   5.091   7.660   2.688
 9572TIP3    H228658   4.958   7.668   2.615
 9573TIP3   OH228659   5.797   7.658   3.206
 9573TIP3    H128660   5.776   7.674   3.298
 9573TIP3    H228661   5.732   7.594   3.177
 9574TIP3   OH228662   4.870   7.680   2.458
 9574TIP3    H128663   4.806   7.631   2.407
 9574TIP3    H228664   4.926   7.722   2.392
 9575TIP3   OH228665   7.817   0.327   3.873
 9575TIP3    H128666   7.902   0.341   3.914
 9575TIP3    H228667   7.760   0.393   3.912
 9576TIP3   OH228668   5.394   7.931   3.102
 9576TIP3    H128669   5.456   7.874   3.057
 9576TIP3    H228670   5.390   7.897   3.191
 9577TIP3   OH228671   4.894   7.408   2.990
 9577TIP3    H128672   4.855   7.337   3.040
 9577TIP3    H228673   4.941   7.364   2.919
 9578TIP3   OH228674   5.371   7.849   3.366
 9578TIP3    H128675   5.282   7.869   3.395
 9578TIP3    H228676   5.427   7.898   3.426
 9579TIP3   OH228677   7.960   0.094   2.477
 9579TIP3    H128678   7.896   0.024   2.465
 9579TIP3    H228679   7.952   0.119   2.569
 9580TIP3   OH228680   0.250   0.329   3.096
 9580TIP3    H128681   0.285   0.374   3.020
 9580TIP3    H228682   0.169   0.289   3.065
 9581TIP3   OH228683   5.562   7.512   2.381
 9581TIP3    H128684   5.468   7.491   2.381
 9581TIP3    H228685   5.565   7.606   2.396
 9582TIP3   OH228686   8.390   0.377   3.489
 9582TIP3    H128687   8.385   0.357   3.583
 9582TIP3    H228688   8.406   0.471   3.486
 9583TIP3   OH228689   5.625   7.773   2.456
 9583TIP3    H128690   5.720   7.776   2.467
 9583TIP3    H228691   5.605   7.849   2.401
 9584TIP3   OH228692   7.649   0.049   3.132
 9584TIP3    H128693   7.689   0.042   3.046
 9584TIP3    H228694   7.713   0.012   3.192
 9585TIP3   OH228695   8.105   0.273   2.331
 9585TIP3    H128696   8.038   0.338   2.308
 9585TIP3    H228697   8.057   0.206   2.380
 9586TIP3   OH228698   7.546   0.027   3.782
 9586TIP3    H128699   7.564   0.010   3.875
 9586TIP3    H228700   7.474  -0.032   3.760
 9587TIP3   OH228701   8.284   0.155   3.791
 9587TIP3    H128702   8.216   0.101   3.753
 9587TIP3    H228703   8.366   0.114   3.763
 9588TIP3   OH228704   8.499   0.629   3.426
 9588TIP3    H128705   8.487   0.681   3.346
 9588TIP3    H228706   8.534   0.690   3.490
 9589TIP3   OH228707   6.048   7.864   2.281
 9589TIP3    H128708   5.993   7.817   2.218
 9589TIP3    H228709   6.052   7.953   2.247
 9590TIP3   OH228710   0.547   0.569   3.357
 9590TIP3    H128711   0.454   0.574   3.337
 9590TIP3    H228712   0.590   0.556   3.272
 9591TIP3   OH228713   0.099   0.472   2.187
 9591TIP3    H128714   0.075   0.472   2.280
 9591TIP3    H228715   0.015   0.475   2.141
 9592TIP3   OH228716   0.020   0.194   2.996
 9592TIP3    H128717  -0.070   0.169   3.018
 9592TIP3    H228718   0.060   0.115   2.961
 9593TIP3   OH228719   7.745   0.406   2.700
 9593TIP3    H128720   7.760   0.500   2.708
 9593TIP3    H228721   7.661   0.392   2.744
 9594TIP3   OH228722   4.487   7.830   2.498
 9594TIP3    H128723   4.533   7.912   2.513
 9594TIP3    H228724   4.416   7.829   2.563
 9595TIP3   OH228725   7.908   0.185   2.725
 9595TIP3    H128726   7.854   0.264   2.724
 9595TIP3    H228727   7.871   0.132   2.796
 9596TIP3   OH228728   8.445   0.387   3.221
 9596TIP3    H128729   8.427   0.378   3.314
 9596TIP3    H228730   8.516   0.325   3.204
 9597TIP3   OH228731   8.423   0.284   2.084
 9597TIP3    H128732   8.460   0.258   2.169
 9597TIP3    H228733   8.333   0.251   2.087
 9598TIP3   OH228734   4.877   7.656   3.775
 9598TIP3    H128735   4.781   7.663   3.776
 9598TIP3    H228736   4.897   7.583   3.833
 9599TIP3   OH228737   8.568   0.213   2.315
 9599TIP3    H128738   8.559   0.143   2.380
 9599TIP3    H228739   8.661   0.215   2.294
 9600TIP3   OH228740   7.787   0.254   2.136
 9600TIP3    H128741   7.788   0.164   2.103
 9600TIP3    H228742   7.750   0.247   2.224
 9601TIP3   OH228743   7.727   0.273   2.420
 9601TIP3    H128744   7.795   0.208   2.441
 9601TIP3    H228745   7.738   0.341   2.486
 9602TIP3   OH228746   7.451  -0.029   2.573
 9602TIP3    H128747   7.376   0.001   2.625
 9602TIP3    H228748   7.464   0.039   2.508
 9603TIP3   OH228749   5.735   7.715   3.469
 9603TIP3    H128750   5.813   7.758   3.503
 9603TIP3    H228751   5.725   7.637   3.524
 9604TIP3   OH228752   5.621   7.461   2.651
 9604TIP3    H128753   5.600   7.480   2.559
 9604TIP3    H228754   5.664   7.541   2.683
 9605TIP3   OH228755   5.278   7.659   2.744
 9605TIP3    H128756   5.340   7.727   2.719
 9605TIP3    H228757   5.297   7.641   2.835
 9606TIP3   OH228758   5.581   7.953   3.525
 9606TIP3    H128759   5.604   7.990   3.610
 9606TIP3    H228760   5.625   7.868   3.523
 9607TIP3   OH228761   5.439   7.363   2.839
 9607TIP3    H128762   5.419   7.440   2.892
 9607TIP3    H228763   5.506   7.393   2.777
 9608TIP3   OH228764   4.952   7.377   2.633
 9608TIP3    H128765   4.939   7.465   2.669
 9608TIP3    H228766   5.046   7.361   2.642
 9609TIP3   OH228767   6.186   7.853   3.495
 9609TIP3    H128768   6.093   7.867   3.514
 9609TIP3    H228769   6.187   7.779   3.435
 9610TIP3   OH228770   5.854   8.055   2.902
 9610TIP3    H128771   5.777   7.999   2.912
 9610TIP3    H228772   5.921   8.013   2.956
 9611TIP3   OH228773   7.464   0.197   2.384
 9611TIP3    H128774   7.553   0.229   2.396
 9611TIP3    H228775   7.470   0.136   2.310
 9612TIP3   OH228776   4.502   7.552   2.509
 9612TIP3    H128777   4.521   7.645   2.512
 9612TIP3    H228778   4.437   7.544   2.439
 9613TIP3   OH228779   0.022   0.783   3.614
 9613TIP3    H128780  -0.004   0.733   3.691
 9613TIP3    H228781   0.107   0.821   3.638
 9614TIP3   OH228782   7.582   0.293   4.074
 9614TIP3    H128783   7.639   0.219   4.051
 9614TIP3    H228784   7.533   0.311   3.994
 9615TIP3   OH228785   4.714   8.091   2.244
 9615TIP3    H128786   4.765   8.061   2.320
 9615TIP3    H228787   4.777   8.094   2.172
 9616TIP3   OH228788   8.233   0.429   3.815
 9616TIP3    H128789   8.192   0.451   3.732
 9616TIP3    H228790   8.264   0.339   3.805
 9617TIP3   OH228791   8.156   0.192   2.067
 9617TIP3    H128792   8.125   0.212   2.155
 9617TIP3    H228793   8.128   0.102   2.052
 9618TIP3   OH228794   0.100   0.439   3.422
 9618TIP3    H128795   0.164   0.487   3.370
 9618TIP3    H228796   0.023   0.496   3.424
 9619TIP3   OH228797   7.733   0.060   4.032
 9619TIP3    H128798   7.812   0.044   3.980
 9619TIP3    H228799   7.767   0.089   4.117
 9620TIP3   OH228800   4.899   8.013   2.444
 9620TIP3    H128801   4.873   7.977   2.529
 9620TIP3    H228802   4.939   7.939   2.398
 9621TIP3   OH228803   5.202   8.084   3.697
 9621TIP3    H128804   5.117   8.128   3.697
 9621TIP3    H228805   5.242   8.108   3.614
 9622TIP3   OH228806   5.026   7.823   2.284
 9622TIP3    H128807   4.999   7.825   2.192
 9622TIP3    H228808   5.122   7.826   2.281
 9623TIP3   OH228809   8.576   0.355   3.795
 9623TIP3    H128810   8.639   0.315   3.736
 9623TIP3    H228811   8.571   0.295   3.869
 9624TIP3   OH228812   0.098   0.010   1.935
 9624TIP3    H128813   0.119  -0.048   1.861
 9624TIP3    H228814   0.074   0.093   1.894
 9625TIP3   OH228815   5.310   7.859   3.805
 9625TIP3    H128816   5.315   7.788   3.742
 9625TIP3    H228817   5.273   7.933   3.756
 9626TIP3   OH228818   5.325   7.671   3.597
 9626TIP3    H128819   5.351   7.704   3.511
 9626TIP3    H228820   5.233   7.646   3.586
 9627TIP3   OH228821   8.222   0.065   3.493
 9627TIP3    H128822   8.313   0.086   3.471
 9627TIP3    H228823   8.170   0.113   3.429
 9628TIP3   OH228824   0.186   0.032   3.857
 9628TIP3    H128825   0.218  -0.058   3.863
 9628TIP3    H228826   0.262   0.083   3.827
 9629TIP3   OH228827   0.220   0.291   3.609
 9629TIP3    H128828   0.166   0.346   3.552
 9629TIP3    H228829   0.309   0.301   3.575
 9630TIP3   OH228830   5.187   7.954   4.042
 9630TIP3    H128831   5.121   7.887   4.061
 9630TIP3    H228832   5.219   7.932   3.954
 9631TIP3   OH228833   5.429   7.422   3.680
 9631TIP3    H128834   5.394   7.507   3.653
 9631TIP3    H228835   5.367   7.359   3.644
 9632TIP3   OH228836   5.565   7.907   3.902
 9632TIP3    H128837   5.554   7.895   3.996
 9632TIP3    H228838   5.479   7.885   3.865
 9633TIP3   OH228839   5.808   7.864   3.769
 9633TIP3    H128840   5.730   7.860   3.824
 9633TIP3    H228841   5.878   7.832   3.826
 9634TIP3   OH228842   6.039   7.819   3.920
 9634TIP3    H128843   6.053   7.725   3.928
 9634TIP3    H228844   6.038   7.851   4.010
 9635TIP3   OH228845   5.023   7.738   4.107
 9635TIP3    H128846   5.024   7.650   4.067
 9635TIP3    H228847   5.061   7.725   4.194
 9636TIP3   OH228848   5.507   7.413   3.949
 9636TIP3    H128849   5.579   7.351   3.942
 9636TIP3    H228850   5.469   7.416   3.861
 9637TIP3   OH228851   5.595   7.626   4.103
 9637TIP3    H128852   5.567   7.557   4.043
 9637TIP3    H228853   5.522   7.688   4.103
 9638TIP3   OH228854   7.185   0.112   2.415
 9638TIP3    H128855   7.260   0.154   2.373
 9638TIP3    H228856   7.166   0.036   2.360
 9639TIP3   OH228857   0.449   0.736   3.660
 9639TIP3    H128858   0.377   0.738   3.724
 9639TIP3    H228859   0.515   0.794   3.698
 9640TIP3   OH228860   0.244   0.201   2.293
 9640TIP3    H128861   0.300   0.272   2.261
 9640TIP3    H228862   0.292   0.164   2.367
 9641TIP3   OH228863   0.380   0.072   2.492
 9641TIP3    H128864   0.315   0.031   2.549
 9641TIP3    H228865   0.447   0.105   2.552
 9642TIP3   OH228866   0.435   0.452   2.932
 9642TIP3    H128867   0.490   0.387   2.886
 9642TIP3    H228868   0.441   0.530   2.877
 9643TIP3   OH228869   0.293  -0.011   2.129
 9643TIP3    H128870   0.224  -0.013   2.063
 9643TIP3    H228871   0.269   0.062   2.187
 9644TIP3   OH228872   5.905   7.761   2.074
 9644TIP3    H128873   5.902   7.801   1.987
 9644TIP3    H228874   5.883   7.669   2.058
 9645TIP3   OH228875   5.921   8.039   2.634
 9645TIP3    H128876   5.927   7.944   2.623
 9645TIP3    H228877   5.903   8.051   2.727
 9646TIP3   OH228878   4.541   8.085   3.409
 9646TIP3    H128879   4.534   8.053   3.319
 9646TIP3    H228880   4.635   8.093   3.424
 9647TIP3   OH228881   0.469   0.342   3.499
 9647TIP3    H128882   0.536   0.275   3.485
 9647TIP3    H228883   0.493   0.412   3.439
 9648TIP3   OH228884   0.656   0.143   3.489
 9648TIP3    H128885   0.582   0.093   3.523
 9648TIP3    H228886   0.733   0.092   3.516
 9649TIP3   OH228887   5.852   7.488   2.051
 9649TIP3    H128888   5.914   7.465   2.119
 9649TIP3    H228889   5.769   7.449   2.079
 9650TIP3   OH228890   5.915   7.766   2.516
 9650TIP3    H128891   5.958   7.682   2.529
 9650TIP3    H228892   5.960   7.805   2.441
 9651TIP3   OH228893   6.069   7.930   3.036
 9651TIP3    H128894   6.150   7.948   2.989
 9651TIP3    H228895   6.081   7.970   3.122
 9652TIP3   OH228896   0.405  -0.024   3.260
 9652TIP3    H128897   0.331   0.004   3.314
 9652TIP3    H228898   0.437   0.057   3.220
 9653TIP3   OH228899   4.756   7.788   4.052
 9653TIP3    H128900   4.851   7.784   4.060
 9653TIP3    H228901   4.725   7.705   4.089
 9654TIP3   OH228902   6.638   7.730   3.792
 9654TIP3    H128903   6.676   7.644   3.772
 9654TIP3    H228904   6.578   7.747   3.720
 9655TIP3   OH228905   6.026   7.516   2.567
 9655TIP3    H128906   6.071   7.501   2.651
 9655TIP3    H228907   5.963   7.443   2.561
 9656TIP3   OH228908   4.735   7.487   3.397
 9656TIP3    H128909   4.787   7.408   3.410
 9656TIP3    H228910   4.799   7.556   3.380
 9657TIP3   OH228911   4.518   7.764   3.454
 9657TIP3    H128912   4.567   7.750   3.373
 9657TIP3    H228913   4.565   7.835   3.498
 9658TIP3   OH228914   6.454   7.806   3.599
 9658TIP3    H128915   6.378   7.834   3.651
 9658TIP3    H228916   6.427   7.722   3.561
 9659TIP3   OH228917   6.078   7.438   2.208
 9659TIP3    H128918   6.122   7.374   2.152
 9659TIP3    H228919   6.138   7.512   2.212
 9660TIP3   OH228920   4.495   7.260   2.960
 9660TIP3    H128921   4.408   7.257   2.999
 9660TIP3    H228922   4.487   7.319   2.886
 9661TIP3   OH228923   4.743   7.381   3.794
 9661TIP3    H128924   4.696   7.344   3.868
 9661TIP3    H228925   4.675   7.403   3.730
 9662TIP3   OH228926   7.673   0.553   3.928
 9662TIP3    H128927   7.618   0.582   3.855
 9662TIP3    H228928   7.730   0.628   3.946
 9663TIP3   OH228929   6.372   7.545   3.505
 9663TIP3    H128930   6.280   7.524   3.487
 9663TIP3    H228931   6.417   7.461   3.503
 9664TIP3   OH228932   5.563   7.472   3.139
 9664TIP3    H128933   5.521   7.402   3.188
 9664TIP3    H228934   5.633   7.429   3.090
 9665TIP3   OH228935   6.076   7.381   3.023
 9665TIP3    H128936   6.111   7.433   2.950
 9665TIP3    H228937   5.983   7.405   3.026
 9666TIP3   OH228938   6.186   7.469   2.787
 9666TIP3    H128939   6.256   7.409   2.761
 9666TIP3    H228940   6.223   7.556   2.774
 9667TIP3   OH228941   4.792   7.189   3.116
 9667TIP3    H128942   4.707   7.150   3.139
 9667TIP3    H228943   4.855   7.118   3.129
 9668TIP3   OH228944   4.601   7.067   2.780
 9668TIP3    H128945   4.639   7.121   2.711
 9668TIP3    H228946   4.575   7.129   2.847
 9669TIP3   OH228947   5.266   7.225   3.024
 9669TIP3    H128948   5.327   7.272   2.967
 9669TIP3    H228949   5.294   7.247   3.113
 9670TIP3   OH228950   5.788   7.368   3.007
 9670TIP3    H128951   5.795   7.333   2.919
 9670TIP3    H228952   5.789   7.291   3.064
 9671TIP3   OH228953   5.840   7.305   2.571
 9671TIP3    H128954   5.760   7.352   2.595
 9671TIP3    H228955   5.830   7.219   2.611
 9672TIP3   OH228956   4.734   7.213   2.553
 9672TIP3    H128957   4.781   7.152   2.496
 9672TIP3    H228958   4.803   7.269   2.590
 9673TIP3   OH228959   5.228   7.405   2.652
 9673TIP3    H128960   5.284   7.354   2.710
 9673TIP3    H228961   5.243   7.496   2.679
 9674TIP3   OH228962   5.029   7.468   4.031
 9674TIP3    H128963   4.995   7.395   4.083
 9674TIP3    H228964   5.122   7.470   4.052
 9675TIP3   OH228965   5.284   7.469   4.141
 9675TIP3    H128966   5.359   7.445   4.087
 9675TIP3    H228967   5.276   7.398   4.205
 9676TIP3   OH228968   6.099   7.550   3.941
 9676TIP3    H128969   6.121   7.510   4.026
 9676TIP3    H228970   6.181   7.551   3.893
 9677TIP3   OH228971   0.905   0.249   2.935
 9677TIP3    H128972   0.901   0.170   2.990
 9677TIP3    H228973   0.936   0.318   2.994
 9678TIP3   OH228974   6.282   7.962   2.418
 9678TIP3    H128975   6.240   8.044   2.444
 9678TIP3    H228976   6.210   7.908   2.384
 9679TIP3   OH228977   0.602   0.141   2.637
 9679TIP3    H128978   0.653   0.063   2.660
 9679TIP3    H228979   0.668   0.208   2.620
 9680TIP3   OH228980   6.862   7.821   2.607
 9680TIP3    H128981   6.847   7.894   2.547
 9680TIP3    H228982   6.808   7.750   2.573
 9681TIP3   OH228983   6.495   8.040   2.723
 9681TIP3    H128984   6.576   8.018   2.770
 9681TIP3    H228985   6.502   7.994   2.640
 9682TIP3   OH228986   0.268   1.673   5.806
 9682TIP3    H128987   0.337   1.611   5.828
 9682TIP3    H228988   0.274   1.684   5.711
 9683TIP3   OH228989   6.841   7.831   3.060
 9683TIP3    H128990   6.792   7.865   2.985
 9683TIP3    H228991   6.782   7.844   3.135
 9684TIP3   OH228992   6.736   7.935   2.824
 9684TIP3    H128993   6.790   8.012   2.844
 9684TIP3    H228994   6.783   7.890   2.755
 9685TIP3   OH228995   0.406   0.397   2.156
 9685TIP3    H128996   0.331   0.410   2.098
 9685TIP3    H228997   0.402   0.472   2.216
 9686TIP3   OH228998   7.175   7.518   2.781
 9686TIP3    H128999   7.168   7.427   2.809
 9686TIP3    H229000   7.101   7.562   2.823
 9687TIP3   OH229001   0.955   0.268   2.420
 9687TIP3    H129002   0.901   0.222   2.355
 9687TIP3    H229003   1.044   0.238   2.403
 9688TIP3   OH229004   1.001   0.377   3.173
 9688TIP3    H129005   1.021   0.454   3.226
 9688TIP3    H229006   0.919   0.344   3.210
 9689TIP3   OH229007   0.817   0.119   2.232
 9689TIP3    H129008   0.747   0.152   2.175
 9689TIP3    H229009   0.801   0.025   2.238
 9690TIP3   OH229010   0.644   0.504   3.111
 9690TIP3    H129011   0.572   0.483   3.053
 9690TIP3    H229012   0.678   0.420   3.139
 9691TIP3   OH229013   0.492   0.683   2.796
 9691TIP3    H129014   0.581   0.696   2.761
 9691TIP3    H229015   0.460   0.772   2.811
 9692TIP3   OH229016   0.820   0.712   3.141
 9692TIP3    H129017   0.891   0.658   3.177
 9692TIP3    H229018   0.752   0.649   3.117
 9693TIP3   OH229019   6.950   7.623   2.906
 9693TIP3    H129020   6.864   7.591   2.877
 9693TIP3    H229021   6.930   7.702   2.957
 9694TIP3   OH229022   7.506   7.698   3.093
 9694TIP3    H129023   7.573   7.693   3.160
 9694TIP3    H229024   7.424   7.703   3.141
 9695TIP3   OH229025   7.056   7.692   1.806
 9695TIP3    H129026   7.085   7.705   1.897
 9695TIP3    H229027   7.023   7.602   1.805
 9696TIP3   OH229028   1.136   0.053   2.906
 9696TIP3    H129029   1.087   0.051   2.989
 9696TIP3    H229030   1.101   0.129   2.859
 9697TIP3   OH229031   6.795   8.022   2.433
 9697TIP3    H129032   6.703   8.007   2.453
 9697TIP3    H229033   6.805   7.992   2.343
 9698TIP3   OH229034   0.964   0.044   3.121
 9698TIP3    H129035   1.008   0.095   3.189
 9698TIP3    H229036   0.944  -0.040   3.164
 9699TIP3   OH229037   6.711   7.611   1.852
 9699TIP3    H129038   6.716   7.627   1.946
 9699TIP3    H229039   6.667   7.688   1.816
 9700TIP3   OH229040   6.315   7.692   2.707
 9700TIP3    H129041   6.388   7.723   2.761
 9700TIP3    H229042   6.356   7.660   2.627
 9701TIP3   OH229043   6.239   7.666   2.226
 9701TIP3    H129044   6.287   7.702   2.151
 9701TIP3    H229045   6.175   7.734   2.248
 9702TIP3   OH229046   7.131   7.837   2.517
 9702TIP3    H129047   7.051   7.819   2.566
 9702TIP3    H229048   7.201   7.799   2.569
 9703TIP3   OH229049   6.545   7.908   2.485
 9703TIP3    H129050   6.455   7.914   2.454
 9703TIP3    H229051   6.569   7.816   2.474
 9704TIP3   OH229052   6.816   7.920   2.169
 9704TIP3    H129053   6.887   7.971   2.128
 9704TIP3    H229054   6.745   7.923   2.105
 9705TIP3   OH229055   6.639   7.919   1.961
 9705TIP3    H129056   6.551   7.887   1.942
 9705TIP3    H229057   6.676   7.939   1.875
 9706TIP3   OH229058   1.006   0.615   3.336
 9706TIP3    H129059   0.999   0.711   3.342
 9706TIP3    H229060   0.945   0.583   3.402
 9707TIP3   OH229061   6.682   7.653   2.474
 9707TIP3    H129062   6.651   7.580   2.529
 9707TIP3    H229063   6.712   7.611   2.393
 9708TIP3   OH229064   7.129   8.063   2.916
 9708TIP3    H129065   7.040   8.094   2.898
 9708TIP3    H229066   7.181   8.095   2.842
 9709TIP3   OH229067   0.812   0.314   2.651
 9709TIP3    H129068   0.866   0.310   2.572
 9709TIP3    H229069   0.875   0.307   2.723
 9710TIP3   OH229070   0.745   0.282   3.245
 9710TIP3    H129071   0.771   0.259   3.334
 9710TIP3    H229072   0.666   0.230   3.228
 9711TIP3   OH229073   0.538  -0.014   2.007
 9711TIP3    H129074   0.573   0.074   2.018
 9711TIP3    H229075   0.454  -0.012   2.052
 9712TIP3   OH229076   6.662   7.910   3.263
 9712TIP3    H129077   6.568   7.923   3.277
 9712TIP3    H229078   6.690   7.853   3.334
 9713TIP3   OH229079   0.622   0.245   2.066
 9713TIP3    H129080   0.550   0.291   2.110
 9713TIP3    H229081   0.684   0.314   2.044
 9714TIP3   OH229082   7.215   7.639   2.336
 9714TIP3    H129083   7.186   7.715   2.386
 9714TIP3    H229084   7.310   7.635   2.350
 9715TIP3   OH229085   6.744   7.633   2.127
 9715TIP3    H129086   6.743   7.725   2.155
 9715TIP3    H229087   6.837   7.610   2.124
 9716TIP3   OH229088   6.307   7.820   2.012
 9716TIP3    H129089   6.304   7.915   2.020
 9716TIP3    H229090   6.243   7.799   1.944
 9717TIP3   OH229091   6.690   7.534   2.867
 9717TIP3    H129092   6.663   7.499   2.782
 9717TIP3    H229093   6.684   7.460   2.927
 9718TIP3   OH229094   0.788   0.578   3.506
 9718TIP3    H129095   0.798   0.485   3.529
 9718TIP3    H229096   0.701   0.582   3.465
 9719TIP3   OH229097   0.940   0.296   3.461
 9719TIP3    H129098   1.025   0.252   3.455
 9719TIP3    H229099   0.933   0.323   3.553
 9720TIP3   OH229100   1.216   0.196   3.168
 9720TIP3    H129101   1.155   0.269   3.172
 9720TIP3    H229102   1.257   0.204   3.082
 9721TIP3   OH229103   1.374   0.020   3.315
 9721TIP3    H129104   1.380  -0.064   3.269
 9721TIP3    H229105   1.328   0.077   3.254
 9722TIP3   OH229106   7.097   7.903   3.136
 9722TIP3    H129107   7.123   7.955   3.060
 9722TIP3    H229108   7.007   7.876   3.117
 9723TIP3   OH229109   1.231   0.116   3.533
 9723TIP3    H129110   1.175   0.040   3.550
 9723TIP3    H229111   1.273   0.095   3.449
 9724TIP3   OH229112   7.236   7.667   3.177
 9724TIP3    H129113   7.190   7.750   3.162
 9724TIP3    H229114   7.168   7.601   3.165
 9725TIP3   OH229115   1.638   0.135   3.411
 9725TIP3    H129116   1.680   0.069   3.466
 9725TIP3    H229117   1.557   0.093   3.380
 9726TIP3   OH229118   6.832   7.983   3.583
 9726TIP3    H129119   6.829   7.897   3.543
 9726TIP3    H229120   6.863   7.967   3.672
 9727TIP3   OH229121   7.298   7.654   3.444
 9727TIP3    H129122   7.368   7.589   3.441
 9727TIP3    H229123   7.269   7.662   3.353
 9728TIP3   OH229124   7.379   7.883   3.568
 9728TIP3    H129125   7.349   7.807   3.520
 9728TIP3    H229126   7.302   7.939   3.577
 9729TIP3   OH229127   0.372   0.374   1.855
 9729TIP3    H129128   0.449   0.361   1.911
 9729TIP3    H229129   0.354   0.287   1.820
 9730TIP3   OH229130   0.620   0.244   2.892
 9730TIP3    H129131   0.601   0.209   2.805
 9730TIP3    H229132   0.715   0.258   2.892
 9731TIP3   OH229133   6.574   8.068   3.589
 9731TIP3    H129134   6.665   8.042   3.576
 9731TIP3    H229135   6.527   7.985   3.600
 9732TIP3   OH229136   6.523   7.755   2.880
 9732TIP3    H129137   6.576   7.676   2.889
 9732TIP3    H229138   6.588   7.825   2.867
 9733TIP3   OH229139   6.312   8.023   2.940
 9733TIP3    H129140   6.364   8.011   2.861
 9733TIP3    H229141   6.338   8.108   2.974
 9734TIP3   OH229142   6.301   7.530   2.453
 9734TIP3    H129143   6.214   7.516   2.490
 9734TIP3    H229144   6.287   7.584   2.375
 9735TIP3   OH229145   6.520   7.597   3.269
 9735TIP3    H129146   6.470   7.587   3.350
 9735TIP3    H229147   6.459   7.640   3.209
 9736TIP3   OH229148   0.889   0.871   3.354
 9736TIP3    H129149   0.852   0.836   3.273
 9736TIP3    H229150   0.816   0.918   3.395
 9737TIP3   OH229151   7.339   7.665   2.611
 9737TIP3    H129152   7.287   7.616   2.676
 9737TIP3    H229153   7.423   7.619   2.607
 9738TIP3   OH229154   6.606   7.432   2.623
 9738TIP3    H129155   6.517   7.399   2.632
 9738TIP3    H229156   6.660   7.353   2.617
 9739TIP3   OH229157   6.412   7.331   2.277
 9739TIP3    H129158   6.441   7.381   2.200
 9739TIP3    H229159   6.382   7.398   2.339
 9740TIP3   OH229160   7.071   7.473   2.516
 9740TIP3    H129161   7.118   7.529   2.455
 9740TIP3    H229162   7.109   7.494   2.602
 9741TIP3   OH229163   6.523   7.468   2.050
 9741TIP3    H129164   6.565   7.409   1.986
 9741TIP3    H229165   6.595   7.521   2.084
 9742TIP3   OH229166   7.022   7.677   2.135
 9742TIP3    H129167   7.090   7.639   2.190
 9742TIP3    H229168   6.998   7.759   2.178
 9743TIP3   OH229169   6.825   7.712   3.504
 9743TIP3    H129170   6.785   7.650   3.565
 9743TIP3    H229171   6.917   7.717   3.531
 9744TIP3   OH229172   7.075   7.715   3.626
 9744TIP3    H129173   7.152   7.689   3.576
 9744TIP3    H229174   7.063   7.646   3.690
 9745TIP3   OH229175   5.027   4.990   0.572
 9745TIP3    H129176   5.051   4.933   0.646
 9745TIP3    H229177   5.111   5.022   0.539
 9746TIP3   OH229178   4.747   5.406   0.582
 9746TIP3    H129179   4.800   5.339   0.539
 9746TIP3    H229180   4.715   5.364   0.662
 9747TIP3   OH229181   4.751   4.895   0.223
 9747TIP3    H129182   4.741   4.809   0.182
 9747TIP3    H229183   4.675   4.903   0.281
 9748TIP3   OH229184   5.198   5.172   0.751
 9748TIP3    H129185   5.124   5.172   0.812
 9748TIP3    H229186   5.261   5.234   0.788
 9749TIP3   OH229187   4.884   5.219   0.430
 9749TIP3    H129188   4.943   5.153   0.394
 9749TIP3    H229189   4.886   5.290   0.364
 9750TIP3   OH229190   5.012   5.031   0.262
 9750TIP3    H129191   4.952   4.957   0.255
 9750TIP3    H229192   5.099   4.993   0.247
 9751TIP3   OH229193   5.044   4.743   0.240
 9751TIP3    H129194   4.974   4.694   0.282
 9751TIP3    H229195   5.105   4.763   0.310
 9752TIP3   OH229196   4.644   5.113   0.453
 9752TIP3    H129197   4.730   5.151   0.435
 9752TIP3    H229198   4.588   5.146   0.383
 9753TIP3   OH229199   2.359   1.029   6.696
 9753TIP3    H129200   2.360   1.122   6.676
 9753TIP3    H229201   2.449   1.000   6.682
 9754TIP3   OH229202   4.548   5.388   0.092
 9754TIP3    H129203   4.475   5.393   0.031
 9754TIP3    H229204   4.510   5.412   0.177
 9755TIP3   OH229205   1.837   1.232   6.791
 9755TIP3    H129206   1.895   1.161   6.762
 9755TIP3    H229207   1.880   1.267   6.869
 9756TIP3   OH229208   4.800   5.386   0.001
 9756TIP3    H129209   4.712   5.401   0.035
 9756TIP3    H229210   4.830   5.306   0.045
 9757TIP3   OH229211   2.058   0.533   6.806
 9757TIP3    H129212   2.031   0.469   6.740
 9757TIP3    H229213   2.154   0.525   6.809
 9758TIP3   OH229214   2.630   0.275   6.948
 9758TIP3    H129215   2.552   0.224   6.925
 9758TIP3    H229216   2.600   0.366   6.943
 9759TIP3   OH229217   2.276   1.074   6.959
 9759TIP3    H129218   2.251   0.990   6.999
 9759TIP3    H229219   2.303   1.050   6.870
 9760TIP3   OH229220   2.028   0.802   6.833
 9760TIP3    H129221   2.081   0.818   6.911
 9760TIP3    H229222   2.015   0.707   6.833
 9761TIP3   OH229223   2.377   1.301   6.661
 9761TIP3    H129224   2.429   1.372   6.623
 9761TIP3    H229225   2.296   1.342   6.689
 9762TIP3   OH229226   5.091   4.861  -0.000
 9762TIP3    H129227   5.062   4.816   0.079
 9762TIP3    H229228   5.183   4.838  -0.009
 9763TIP3   OH229229   1.627   1.019   6.961
 9763TIP3    H129230   1.661   1.029   7.050
 9763TIP3    H229231   1.604   1.108   6.935
 9764TIP3   OH229232   5.262   5.578   0.621
 9764TIP3    H129233   5.215   5.596   0.540
 9764TIP3    H229234   5.351   5.557   0.593
 9765TIP3   OH229235   1.599   0.993   6.693
 9765TIP3    H129236   1.606   0.990   6.788
 9765TIP3    H229237   1.676   0.946   6.661
 9766TIP3   OH229238   2.010   1.044   6.693
 9766TIP3    H129239   2.034   0.974   6.754
 9766TIP3    H229240   2.079   1.042   6.626
 9767TIP3   OH229241   2.329   0.536   6.715
 9767TIP3    H129242   2.307   0.491   6.633
 9767TIP3    H229243   2.307   0.628   6.698
 9768TIP3   OH229244   1.292   1.308   6.962
 9768TIP3    H129245   1.387   1.293   6.968
 9768TIP3    H229246   1.282   1.361   6.882
 9769TIP3   OH229247   5.512   5.524   0.540
 9769TIP3    H129248   5.558   5.528   0.624
 9769TIP3    H229249   5.569   5.471   0.484
 9770TIP3   OH229250   5.361   4.809   0.021
 9770TIP3    H129251   5.422   4.874  -0.013
 9770TIP3    H229252   5.340   4.840   0.110
 9771TIP3   OH229253   5.423   4.697   0.291
 9771TIP3    H129254   5.341   4.714   0.336
 9771TIP3    H229255   5.487   4.754   0.334
 9772TIP3   OH229256   5.508   4.942   0.430
 9772TIP3    H129257   5.548   4.895   0.503
 9772TIP3    H229258   5.537   5.033   0.441
 9773TIP3   OH229259   2.539   0.529   6.891
 9773TIP3    H129260   2.463   0.529   6.833
 9773TIP3    H229261   2.523   0.601   6.951
 9774TIP3   OH229262   2.394   0.174   6.842
 9774TIP3    H129263   2.335   0.248   6.854
 9774TIP3    H229264   2.356   0.104   6.895
 9775TIP3   OH229265   5.262   4.476   0.450
 9775TIP3    H129266   5.266   4.389   0.489
 9775TIP3    H229267   5.226   4.532   0.520
 9776TIP3   OH229268   5.061   5.504   0.156
 9776TIP3    H129269   5.095   5.483   0.069
 9776TIP3    H229270   5.099   5.436   0.213
 9777TIP3   OH229271   5.092   5.752   0.794
 9777TIP3    H129272   5.033   5.699   0.740
 9777TIP3    H229273   5.158   5.689   0.826
 9778TIP3   OH229274   1.569   1.270   6.859
 9778TIP3    H129275   1.662   1.271   6.835
 9778TIP3    H229276   1.523   1.254   6.777
 9779TIP3   OH229277   2.324   1.343   6.964
 9779TIP3    H129278   2.309   1.249   6.970
 9779TIP3    H229279   2.273   1.370   6.887
 9780TIP3   OH229280   3.803   0.894   6.956
 9780TIP3    H129281   3.783   0.981   6.921
 9780TIP3    H229282   3.734   0.838   6.920
 9781TIP3   OH229283   5.874   4.854   0.780
 9781TIP3    H129284   5.871   4.833   0.873
 9781TIP3    H229285   5.957   4.901   0.769
 9782TIP3   OH229286   6.939   5.243  -0.009
 9782TIP3    H129287   6.927   5.181   0.064
 9782TIP3    H229288   6.964   5.325   0.033
 9783TIP3   OH229289   5.955   5.245   0.295
 9783TIP3    H129290   5.940   5.156   0.263
 9783TIP3    H229291   6.050   5.252   0.303
 9784TIP3   OH229292   5.647   4.471   0.142
 9784TIP3    H129293   5.624   4.468   0.235
 9784TIP3    H229294   5.570   4.438   0.097
 9785TIP3   OH229295   5.698   4.689   0.396
 9785TIP3    H129296   5.773   4.631   0.411
 9785TIP3    H229297   5.724   4.740   0.319
 9786TIP3   OH229298   3.673   1.608   7.017
 9786TIP3    H129299   3.725   1.541   6.974
 9786TIP3    H229300   3.583   1.577   7.011
 9787TIP3   OH229301   6.484   5.232   0.303
 9787TIP3    H129302   6.471   5.146   0.264
 9787TIP3    H229303   6.577   5.233   0.327
 9788TIP3   OH229304   6.923   4.670   0.324
 9788TIP3    H129305   6.954   4.589   0.364
 9788TIP3    H229306   6.864   4.641   0.254
 9789TIP3   OH229307   6.093   4.293   0.322
 9789TIP3    H129308   6.138   4.345   0.257
 9789TIP3    H229309   6.126   4.204   0.309
 9790TIP3   OH229310   4.069   0.364   7.027
 9790TIP3    H129311   4.133   0.299   7.057
 9790TIP3    H229312   4.095   0.385   6.938
 9791TIP3   OH229313   5.866   4.466   0.440
 9791TIP3    H129314   5.957   4.434   0.443
 9791TIP3    H229315   5.815   4.390   0.413
 9792TIP3   OH229316   6.333   4.702   0.214
 9792TIP3    H129317   6.416   4.668   0.181
 9792TIP3    H229318   6.274   4.627   0.211
 9793TIP3   OH229319   7.600   4.773   0.497
 9793TIP3    H129320   7.508   4.786   0.477
 9793TIP3    H229321   7.607   4.680   0.519
 9794TIP3   OH229322   3.732   1.113   6.794
 9794TIP3    H129323   3.681   1.086   6.718
 9794TIP3    H229324   3.683   1.188   6.830
 9795TIP3   OH229325   6.354   5.085   0.561
 9795TIP3    H129326   6.268   5.126   0.562
 9795TIP3    H229327   6.359   5.042   0.475
 9796TIP3   OH229328   6.087   4.429   0.641
 9796TIP3    H129329   6.112   4.463   0.727
 9796TIP3    H229330   6.119   4.339   0.640
 9797TIP3   OH229331   6.117   5.213   0.573
 9797TIP3    H129332   6.117   5.264   0.492
 9797TIP3    H229333   6.115   5.278   0.643
 9798TIP3   OH229334   2.668   0.936   6.935
 9798TIP3    H129335   2.641   0.953   6.845
 9798TIP3    H229336   2.698   1.021   6.967
 9799TIP3   OH229337   6.993   5.482   0.122
 9799TIP3    H129338   6.906   5.478   0.162
 9799TIP3    H229339   6.994   5.567   0.077
 9800TIP3   OH229340   3.826   1.454   6.825
 9800TIP3    H129341   3.882   1.377   6.813
 9800TIP3    H229342   3.882   1.528   6.805
 9801TIP3   OH229343   3.986   1.233   6.755
 9801TIP3    H129344   3.908   1.178   6.756
 9801TIP3    H229345   4.029   1.216   6.839
 9802TIP3   OH229346   7.223   5.399   0.444
 9802TIP3    H129347   7.205   5.326   0.384
 9802TIP3    H229348   7.191   5.476   0.398
 9803TIP3   OH229349   3.639   0.743   6.788
 9803TIP3    H129350   3.555   0.783   6.767
 9803TIP3    H229351   3.686   0.739   6.705
 9804TIP3   OH229352   3.594   0.538   6.500
 9804TIP3    H129353   3.662   0.583   6.551
 9804TIP3    H229354   3.642   0.473   6.449
 9805TIP3   OH229355   7.403   5.035   0.348
 9805TIP3    H129356   7.324   5.086   0.332
 9805TIP3    H229357   7.447   5.031   0.263
 9806TIP3   OH229358   3.982   0.820   6.760
 9806TIP3    H129359   3.931   0.847   6.836
 9806TIP3    H229360   4.068   0.798   6.795
 9807TIP3   OH229361   7.044   4.802   0.536
 9807TIP3    H129362   6.993   4.882   0.548
 9807TIP3    H229363   7.010   4.763   0.456
 9808TIP3   OH229364   6.126   4.858   0.102
 9808TIP3    H129365   6.069   4.803   0.050
 9808TIP3    H229366   6.194   4.798   0.134
 9809TIP3   OH229367   6.220   5.282   0.297
 9809TIP3    H129368   6.206   5.292   0.203
 9809TIP3    H229369   6.315   5.284   0.308
 9810TIP3   OH229370   6.372   4.962   0.311
 9810TIP3    H129371   6.367   4.872   0.278
 9810TIP3    H229372   6.281   4.992   0.312
 9811TIP3   OH229373   6.750   5.492   0.232
 9811TIP3    H129374   6.720   5.570   0.278
 9811TIP3    H229375   6.709   5.419   0.279
 9812TIP3   OH229376   6.402   5.394   0.949
 9812TIP3    H129377   6.336   5.462   0.934
 9812TIP3    H229378   6.414   5.353   0.863
 9813TIP3   OH229379   3.827   0.673   6.588
 9813TIP3    H129380   3.883   0.733   6.637
 9813TIP3    H229381   3.856   0.682   6.497
 9814TIP3   OH229382   6.233   5.613   0.942
 9814TIP3    H129383   6.253   5.682   0.879
 9814TIP3    H229384   6.140   5.594   0.926
 9815TIP3   OH229385   3.100   0.646   6.951
 9815TIP3    H129386   3.018   0.686   6.921
 9815TIP3    H229387   3.071   0.569   7.001
 9816TIP3   OH229388   4.146   1.317   6.107
 9816TIP3    H129389   4.065   1.365   6.125
 9816TIP3    H229390   4.133   1.281   6.020
 9817TIP3   OH229391   5.542   5.198   0.543
 9817TIP3    H129392   5.625   5.181   0.587
 9817TIP3    H229393   5.512   5.281   0.580
 9818TIP3   OH229394   7.442   5.759   0.526
 9818TIP3    H129395   7.451   5.664   0.532
 9818TIP3    H229396   7.367   5.779   0.582
 9819TIP3   OH229397   6.521   5.572   0.627
 9819TIP3    H129398   6.534   5.667   0.617
 9819TIP3    H229399   6.539   5.555   0.720
 9820TIP3   OH229400   3.474   1.621   6.629
 9820TIP3    H129401   3.403   1.594   6.571
 9820TIP3    H229402   3.433   1.680   6.692
 9821TIP3   OH229403   5.750   5.504   0.002
 9821TIP3    H129404   5.798   5.508   0.084
 9821TIP3    H229405   5.717   5.414  -0.002
 9822TIP3   OH229406   3.662   1.500   6.304
 9822TIP3    H129407   3.718   1.430   6.270
 9822TIP3    H229408   3.692   1.513   6.393
 9823TIP3   OH229409   3.722   1.537   6.572
 9823TIP3    H129410   3.633   1.562   6.598
 9823TIP3    H229411   3.761   1.501   6.651
 9824TIP3   OH229412   7.456   4.799   0.864
 9824TIP3    H129413   7.369   4.821   0.833
 9824TIP3    H229414   7.475   4.714   0.824
 9825TIP3   OH229415   7.081   4.612   0.744
 9825TIP3    H129416   7.143   4.643   0.809
 9825TIP3    H229417   7.078   4.681   0.678
 9826TIP3   OH229418   3.908   0.667   6.326
 9826TIP3    H129419   3.860   0.671   6.243
 9826TIP3    H229420   3.990   0.713   6.309
 9827TIP3   OH229421   6.323   4.584   0.698
 9827TIP3    H129422   6.332   4.591   0.793
 9827TIP3    H229423   6.289   4.669   0.671
 9828TIP3   OH229424   6.181   4.481   0.141
 9828TIP3    H129425   6.086   4.486   0.133
 9828TIP3    H229426   6.211   4.445   0.057
 9829TIP3   OH229427   3.752   0.523   6.911
 9829TIP3    H129428   3.707   0.598   6.870
 9829TIP3    H229429   3.818   0.497   6.847
 9830TIP3   OH229430   6.771   4.604   0.117
 9830TIP3    H129431   6.705   4.621   0.049
 9830TIP3    H229432   6.825   4.534   0.081
 9831TIP3   OH229433   2.922   0.037   6.925
 9831TIP3    H129434   2.907   0.109   6.864
 9831TIP3    H229435   2.865   0.057   6.999
 9832TIP3   OH229436   5.911   4.423   0.127
 9832TIP3    H129437   5.816   4.429   0.121
 9832TIP3    H229438   5.927   4.339   0.170
 9833TIP3   OH229439   3.338   0.319   6.920
 9833TIP3    H129440   3.429   0.294   6.900
 9833TIP3    H229441   3.291   0.301   6.838
 9834TIP3   OH229442   3.182   0.310   6.686
 9834TIP3    H129443   3.091   0.337   6.675
 9834TIP3    H229444   3.233   0.371   6.633
 9835TIP3   OH229445   7.173   6.097   0.646
 9835TIP3    H129446   7.176   6.143   0.562
 9835TIP3    H229447   7.205   6.161   0.709
 9836TIP3   OH229448   6.586   4.526   0.595
 9836TIP3    H129449   6.518   4.593   0.593
 9836TIP3    H229450   6.561   4.467   0.666
 9837TIP3   OH229451   3.402   0.870   6.725
 9837TIP3    H129452   3.325   0.815   6.708
 9837TIP3    H229453   3.381   0.915   6.807
 9838TIP3   OH229454   7.172   5.173   0.298
 9838TIP3    H129455   7.211   5.219   0.224
 9838TIP3    H229456   7.088   5.141   0.265
 9839TIP3   OH229457   3.825   0.263   6.561
 9839TIP3    H129458   3.785   0.198   6.618
 9839TIP3    H229459   3.874   0.321   6.619
 9840TIP3   OH229460   6.731   5.165   0.823
 9840TIP3    H129461   6.731   5.211   0.907
 9840TIP3    H229462   6.701   5.230   0.760
 9841TIP3   OH229463   3.950   0.453   6.720
 9841TIP3    H129464   4.045   0.460   6.733
 9841TIP3    H229465   3.928   0.530   6.666
 9842TIP3   OH229466   6.096   4.987   0.342
 9842TIP3    H129467   6.087   4.948   0.255
 9842TIP3    H229468   6.077   4.915   0.402
 9843TIP3   OH229469   3.560   1.039   6.582
 9843TIP3    H129470   3.512   1.122   6.580
 9843TIP3    H229471   3.502   0.979   6.629
 9844TIP3   OH229472   6.938   5.528   0.490
 9844TIP3    H129473   6.851   5.561   0.515
 9844TIP3    H229474   6.994   5.546   0.565
 9845TIP3   OH229475   4.356   0.540   6.540
 9845TIP3    H129476   4.295   0.488   6.487
 9845TIP3    H229477   4.356   0.626   6.499
 9846TIP3   OH229478   7.467   5.477   0.517
 9846TIP3    H129479   7.376   5.466   0.493
 9846TIP3    H229480   7.516   5.441   0.444
 9847TIP3   OH229481   4.088   1.331   6.498
 9847TIP3    H129482   4.064   1.310   6.589
 9847TIP3    H229483   4.043   1.264   6.446
 9848TIP3   OH229484   6.938   5.061   0.213
 9848TIP3    H129485   6.854   5.033   0.249
 9848TIP3    H229486   6.974   4.982   0.172
 9849TIP3   OH229487   6.136   5.300   0.030
 9849TIP3    H129488   6.187   5.379   0.012
 9849TIP3    H229489   6.053   5.314  -0.016
 9850TIP3   OH229490   2.771   0.520   6.741
 9850TIP3    H129491   2.818   0.599   6.766
 9850TIP3    H229492   2.692   0.521   6.795
 9851TIP3   OH229493   3.335   1.000   6.950
 9851TIP3    H129494   3.321   1.087   6.988
 9851TIP3    H229495   3.310   0.939   7.019
 9852TIP3   OH229496   6.392   5.574   0.385
 9852TIP3    H129497   6.429   5.654   0.346
 9852TIP3    H229498   6.453   5.552   0.456
 9853TIP3   OH229499   3.109   1.404   6.873
 9853TIP3    H129500   3.032   1.444   6.914
 9853TIP3    H229501   3.183   1.457   6.902
 9854TIP3   OH229502   6.744   5.257   0.382
 9854TIP3    H129503   6.736   5.289   0.471
 9854TIP3    H229504   6.838   5.241   0.371
 9855TIP3   OH229505   3.837   1.083   6.348
 9855TIP3    H129506   3.884   1.048   6.423
 9855TIP3    H229507   3.749   1.045   6.355
 9856TIP3   OH229508   6.975   5.818   0.485
 9856TIP3    H129509   6.914   5.746   0.470
 9856TIP3    H229510   6.976   5.866   0.402
 9857TIP3   OH229511   4.229   1.575   6.193
 9857TIP3    H129512   4.275   1.656   6.174
 9857TIP3    H229513   4.143   1.603   6.224
 9858TIP3   OH229514   4.003   0.982   6.537
 9858TIP3    H129515   3.985   0.937   6.620
 9858TIP3    H229516   4.098   0.993   6.536
 9859TIP3   OH229517   5.631   5.495   0.783
 9859TIP3    H129518   5.687   5.417   0.785
 9859TIP3    H229519   5.691   5.567   0.766
 9860TIP3   OH229520   3.203   1.048   6.364
 9860TIP3    H129521   3.209   0.956   6.338
 9860TIP3    H229522   3.181   1.045   6.457
 9861TIP3   OH229523   3.141   1.060   6.635
 9861TIP3    H129524   3.205   1.040   6.703
 9861TIP3    H229525   3.139   1.156   6.631
 9862TIP3   OH229526   2.872   0.758   6.839
 9862TIP3    H129527   2.811   0.794   6.903
 9862TIP3    H229528   2.883   0.828   6.775
 9863TIP3   OH229529   3.417   1.269   6.580
 9863TIP3    H129530   3.326   1.284   6.604
 9863TIP3    H229531   3.444   1.349   6.536
 9864TIP3   OH229532   3.614   0.286   6.956
 9864TIP3    H129533   3.663   0.367   6.948
 9864TIP3    H229534   3.621   0.263   7.049
 9865TIP3   OH229535   6.714   4.717   0.787
 9865TIP3    H129536   6.655   4.791   0.801
 9865TIP3    H229537   6.786   4.733   0.849
 9866TIP3   OH229538   3.150   1.330   6.617
 9866TIP3    H129539   3.129   1.404   6.560
 9866TIP3    H229540   3.130   1.361   6.705
 9867TIP3   OH229541   7.045   4.819   0.124
 9867TIP3    H129542   6.977   4.768   0.169
 9867TIP3    H229543   7.127   4.780   0.151
 9868TIP3   OH229544   2.886   0.946   6.631
 9868TIP3    H129545   2.957   1.009   6.643
 9868TIP3    H229546   2.921   0.882   6.569
 9869TIP3   OH229547   2.821   0.245   6.756
 9869TIP3    H129548   2.831   0.339   6.742
 9869TIP3    H229549   2.749   0.238   6.819
 9870TIP3   OH229550   7.011   5.748   0.053
 9870TIP3    H129551   6.966   5.801  -0.013
 9870TIP3    H229552   7.104   5.770   0.042
 9871TIP3   OH229553   2.734   1.196   7.007
 9871TIP3    H129554   2.694   1.247   7.078
 9871TIP3    H229555   2.702   1.237   6.927
 9872TIP3   OH229556   3.355   1.245   6.249
 9872TIP3    H129557   3.305   1.179   6.297
 9872TIP3    H229558   3.429   1.197   6.213
 9873TIP3   OH229559   6.862   5.648   0.957
 9873TIP3    H129560   6.897   5.559   0.952
 9873TIP3    H229561   6.939   5.704   0.961
 9874TIP3   OH229562   3.802   1.296   6.182
 9874TIP3    H129563   3.822   1.222   6.239
 9874TIP3    H229564   3.839   1.272   6.097
 9875TIP3   OH229565   3.017   0.755   6.486
 9875TIP3    H129566   3.069   0.733   6.563
 9875TIP3    H229567   3.082   0.767   6.416
 9876TIP3   OH229568   3.577   0.978   6.313
 9876TIP3    H129569   3.556   0.992   6.405
 9876TIP3    H229570   3.563   0.885   6.299
 9877TIP3   OH229571   6.990   5.265   0.544
 9877TIP3    H129572   7.084   5.277   0.550
 9877TIP3    H229573   6.956   5.352   0.520
 9878TIP3   OH229574   3.194   0.690   6.692
 9878TIP3    H129575   3.173   0.664   6.782
 9878TIP3    H229576   3.241   0.615   6.656
 9879TIP3   OH229577   3.322   0.495   6.541
 9879TIP3    H129578   3.296   0.504   6.449
 9879TIP3    H229579   3.417   0.507   6.540
 9880TIP3   OH229580   4.127   0.798   6.211
 9880TIP3    H129581   4.113   0.758   6.125
 9880TIP3    H229582   4.103   0.890   6.199
 9881TIP3   OH229583   6.564   4.952   0.779
 9881TIP3    H129584   6.631   5.018   0.795
 9881TIP3    H229585   6.486   4.986   0.822
 9882TIP3   OH229586   7.016   5.087   0.780
 9882TIP3    H129587   6.930   5.128   0.777
 9882TIP3    H229588   7.054   5.104   0.694
 9883TIP3   OH229589   3.137   1.540   6.442
 9883TIP3    H129590   3.230   1.524   6.421
 9883TIP3    H229591   3.107   1.599   6.373
 9884TIP3   OH229592   2.615   0.935   6.652
 9884TIP3    H129593   2.709   0.950   6.646
 9884TIP3    H229594   2.602   0.848   6.612
 9885TIP3   OH229595   5.363   5.588   0.037
 9885TIP3    H129596   5.309   5.525  -0.010
 9885TIP3    H229597   5.424   5.535   0.088
 9886TIP3   OH229598   5.521   5.428   0.186
 9886TIP3    H129599   5.473   5.355   0.225
 9886TIP3    H229600   5.593   5.444   0.246
 9887TIP3   OH229601   7.277   5.818   0.053
 9887TIP3    H129602   7.283   5.848   0.144
 9887TIP3    H229603   7.322   5.885   0.002
 9888TIP3   OH229604   7.265   5.862   0.329
 9888TIP3    H129605   7.219   5.778   0.326
 9888TIP3    H229606   7.344   5.844   0.381
 9889TIP3   OH229607   7.272   5.559   0.911
 9889TIP3    H129608   7.280   5.617   0.987
 9889TIP3    H229609   7.350   5.577   0.859
 9890TIP3   OH229610   4.279   1.007   6.551
 9890TIP3    H129611   4.299   1.101   6.557
 9890TIP3    H229612   4.325   0.968   6.625
 9891TIP3   OH229613   4.415   0.897   6.758
 9891TIP3    H129614   4.356   0.844   6.811
 9891TIP3    H229615   4.493   0.909   6.812
 9892TIP3   OH229616   7.337   5.308   0.128
 9892TIP3    H129617   7.391   5.243   0.083
 9892TIP3    H229618   7.343   5.386   0.073
 9893TIP3   OH229619   7.133   5.621   0.318
 9893TIP3    H129620   7.055   5.609   0.371
 9893TIP3    H229621   7.109   5.586   0.232
 9894TIP3   OH229622   4.327   0.778   6.400
 9894TIP3    H129623   4.256   0.778   6.336
 9894TIP3    H229624   4.312   0.857   6.453
 9895TIP3   OH229625   4.178   0.427   6.371
 9895TIP3    H129626   4.187   0.465   6.284
 9895TIP3    H229627   4.154   0.336   6.356
 9896TIP3   OH229628   4.216   0.737   6.876
 9896TIP3    H129629   4.236   0.644   6.868
 9896TIP3    H229630   4.203   0.751   6.970
 9897TIP3   OH229631   5.660   4.837   0.625
 9897TIP3    H129632   5.688   4.776   0.556
 9897TIP3    H229633   5.739   4.851   0.678
 9898TIP3   OH229634   7.316   5.302   0.703
 9898TIP3    H129635   7.361   5.218   0.694
 9898TIP3    H229636   7.346   5.354   0.628
 9899TIP3   OH229637   7.694   4.950   0.680
 9899TIP3    H129638   7.661   4.882   0.621
 9899TIP3    H229639   7.777   4.915   0.713
 9900TIP3   OH229640   4.231   0.457   6.789
 9900TIP3    H129641   4.310   0.429   6.837
 9900TIP3    H229642   4.264   0.488   6.705
 9901TIP3   OH229643   7.256   4.679   0.222
 9901TIP3    H129644   7.341   4.699   0.184
 9901TIP3    H229645   7.269   4.685   0.316
 9902TIP3   OH229646   7.324   4.793   0.468
 9902TIP3    H129647   7.236   4.798   0.507
 9902TIP3    H229648   7.335   4.877   0.424
 9903TIP3   OH229649   5.602   4.520   0.689
 9903TIP3    H129650   5.611   4.462   0.614
 9903TIP3    H229651   5.691   4.550   0.708
 9904TIP3   OH229652   3.982   1.653   6.734
 9904TIP3    H129653   4.039   1.651   6.657
 9904TIP3    H229654   4.011   1.730   6.783
 9905TIP3   OH229655   6.061   5.471   0.486
 9905TIP3    H129656   6.072   5.514   0.401
 9905TIP3    H229657   6.133   5.504   0.539
 9906TIP3   OH229658   6.563   5.818   0.753
 9906TIP3    H129659   6.599   5.745   0.802
 9906TIP3    H229660   6.636   5.848   0.698
 9907TIP3   OH229661   6.751   5.938   0.602
 9907TIP3    H129662   6.810   5.922   0.528
 9907TIP3    H229663   6.802   5.991   0.662
 9908TIP3   OH229664   5.758   5.732   0.732
 9908TIP3    H129665   5.748   5.793   0.659
 9908TIP3    H229666   5.755   5.787   0.810
 9909TIP3   OH229667   5.944   5.749   0.460
 9909TIP3    H129668   5.970   5.803   0.534
 9909TIP3    H229669   6.006   5.771   0.391
 9910TIP3   OH229670   6.482   5.813   0.284
 9910TIP3    H129671   6.451   5.796   0.195
 9910TIP3    H229672   6.431   5.888   0.314
 9911TIP3   OH229673   6.729   5.741   0.361
 9911TIP3    H129674   6.639   5.764   0.338
 9911TIP3    H229675   6.783   5.799   0.307
 9912TIP3   OH229676   6.910   5.920   0.245
 9912TIP3    H129677   6.908   6.008   0.207
 9912TIP3    H229678   6.942   5.864   0.175
 9913TIP3   OH229679   5.701   5.682   0.370
 9913TIP3    H129680   5.676   5.591   0.391
 9913TIP3    H229681   5.794   5.687   0.392
 9914TIP3   OH229682   5.900   5.499   0.226
 9914TIP3    H129683   5.930   5.409   0.242
 9914TIP3    H229684   5.980   5.552   0.232
 9915TIP3   OH229685   6.150   5.599   0.265
 9915TIP3    H129686   6.174   5.594   0.173
 9915TIP3    H229687   6.233   5.586   0.312
 9916TIP3   OH229688   2.622   1.321   6.796
 9916TIP3    H129689   2.534   1.289   6.777
 9916TIP3    H229690   2.621   1.412   6.768
 9917TIP3   OH229691   3.397   1.479   6.384
 9917TIP3    H129692   3.484   1.505   6.354
 9917TIP3    H229693   3.377   1.400   6.334
 9918TIP3   OH229694   4.129   1.609   6.500
 9918TIP3    H129695   4.121   1.514   6.495
 9918TIP3    H229696   4.080   1.641   6.425
 9919TIP3   OH229697   2.701   1.323   6.461
 9919TIP3    H129698   2.706   1.343   6.555
 9919TIP3    H229699   2.785   1.281   6.441
 9920TIP3   OH229700   7.189   5.828   0.648
 9920TIP3    H129701   7.120   5.824   0.581
 9920TIP3    H229702   7.205   5.922   0.659
 9921TIP3   OH229703   5.597   1.156   6.444
 9921TIP3    H129704   5.573   1.244   6.417
 9921TIP3    H229705   5.525   1.101   6.414
 9922TIP3   OH229706   5.598   1.138   6.844
 9922TIP3    H129707   5.637   1.123   6.930
 9922TIP3    H229708   5.547   1.059   6.826
 9923TIP3   OH229709   7.770   5.063   0.167
 9923TIP3    H129710   7.802   5.004   0.236
 9923TIP3    H229711   7.849   5.088   0.119
 9924TIP3   OH229712   5.864   1.446   6.526
 9924TIP3    H129713   5.853   1.381   6.596
 9924TIP3    H229714   5.890   1.526   6.572
 9925TIP3   OH229715   4.895   1.425   6.893
 9925TIP3    H129716   4.877   1.331   6.897
 9925TIP3    H229717   4.990   1.432   6.887
 9926TIP3   OH229718   4.495   0.611   6.768
 9926TIP3    H129719   4.529   0.699   6.757
 9926TIP3    H229720   4.458   0.589   6.682
 9927TIP3   OH229721   4.673   0.925   6.870
 9927TIP3    H129722   4.737   0.860   6.841
 9927TIP3    H229723   4.715   1.009   6.853
 9928TIP3   OH229724   5.521   1.881   6.536
 9928TIP3    H129725   5.554   1.814   6.476
 9928TIP3    H229726   5.519   1.838   6.621
 9929TIP3   OH229727   5.408   1.363   6.864
 9929TIP3    H129728   5.447   1.283   6.828
 9929TIP3    H229729   5.483   1.414   6.894
 9930TIP3   OH229730   5.830   0.872   6.921
 9930TIP3    H129731   5.905   0.812   6.921
 9930TIP3    H229732   5.788   0.857   6.836
 9931TIP3   OH229733   5.714   0.574   6.603
 9931TIP3    H129734   5.734   0.483   6.628
 9931TIP3    H229735   5.640   0.567   6.544
 9932TIP3   OH229736   5.206   0.944   6.809
 9932TIP3    H129737   5.292   0.903   6.807
 9932TIP3    H229738   5.144   0.872   6.794
 9933TIP3   OH229739   6.488   0.932   6.975
 9933TIP3    H129740   6.397   0.957   6.992
 9933TIP3    H229741   6.522   0.905   7.060
 9934TIP3   OH229742   5.505   1.369   6.289
 9934TIP3    H129743   5.465   1.339   6.207
 9934TIP3    H229744   5.450   1.442   6.316
 9935TIP3   OH229745   8.130   5.342   0.067
 9935TIP3    H129746   8.070   5.411   0.097
 9935TIP3    H229747   8.173   5.380  -0.010
 9936TIP3   OH229748   7.959   5.543   0.153
 9936TIP3    H129749   7.946   5.633   0.121
 9936TIP3    H229750   7.878   5.522   0.199
 9937TIP3   OH229751   5.911   1.690   6.667
 9937TIP3    H129752   5.823   1.682   6.706
 9937TIP3    H229753   5.909   1.774   6.622
 9938TIP3   OH229754   5.619   1.721   6.330
 9938TIP3    H129755   5.671   1.641   6.317
 9938TIP3    H229756   5.675   1.792   6.298
 9939TIP3   OH229757   5.758   1.491   6.274
 9939TIP3    H129758   5.683   1.432   6.274
 9939TIP3    H229759   5.806   1.469   6.354
 9940TIP3   OH229760   6.143   1.585   7.013
 9940TIP3    H129761   6.127   1.511   6.955
 9940TIP3    H229762   6.127   1.662   6.959
 9941TIP3   OH229763   5.424   1.004   6.286
 9941TIP3    H129764   5.340   1.044   6.262
 9941TIP3    H229765   5.474   1.001   6.204
 9942TIP3   OH229766   5.365   0.843   5.983
 9942TIP3    H129767   5.443   0.874   6.030
 9942TIP3    H229768   5.376   0.748   5.979
 9943TIP3   OH229769   6.330   1.251   6.883
 9943TIP3    H129770   6.245   1.296   6.875
 9943TIP3    H229771   6.368   1.258   6.796
 9944TIP3   OH229772   5.777   1.082   6.252
 9944TIP3    H129773   5.723   1.111   6.326
 9944TIP3    H229774   5.863   1.066   6.291
 9945TIP3   OH229775   0.267   5.171   0.141
 9945TIP3    H129776   0.271   5.251   0.193
 9945TIP3    H229777   0.179   5.171   0.104
 9946TIP3   OH229778   5.036   1.090   6.648
 9946TIP3    H129779   4.986   1.015   6.614
 9946TIP3    H229780   5.105   1.051   6.701
 9947TIP3   OH229781   5.157   1.478   6.794
 9947TIP3    H129782   5.139   1.457   6.703
 9947TIP3    H229783   5.244   1.440   6.811
 9948TIP3   OH229784   8.001   5.102   0.029
 9948TIP3    H129785   8.029   5.072  -0.058
 9948TIP3    H229786   8.048   5.184   0.042
 9949TIP3   OH229787   5.673   1.682   6.798
 9949TIP3    H129788   5.659   1.762   6.849
 9949TIP3    H229789   5.658   1.611   6.860
 9950TIP3   OH229790   8.156   5.645   0.318
 9950TIP3    H129791   8.097   5.706   0.363
 9950TIP3    H229792   8.098   5.593   0.262
 9951TIP3   OH229793   5.607   0.950   6.078
 9951TIP3    H129794   5.671   0.995   6.134
 9951TIP3    H229795   5.642   0.958   5.990
 9952TIP3   OH229796   7.915   5.199   0.412
 9952TIP3    H129797   7.920   5.288   0.445
 9952TIP3    H229798   7.821   5.180   0.406
 9953TIP3   OH229799   5.368   1.608   6.332
 9953TIP3    H129800   5.451   1.654   6.341
 9953TIP3    H229801   5.310   1.671   6.289
 9954TIP3   OH229802   7.954   5.813   0.404
 9954TIP3    H129803   7.933   5.822   0.311
 9954TIP3    H229804   7.869   5.797   0.446
 9955TIP3   OH229805   4.901   0.890   6.454
 9955TIP3    H129806   4.810   0.868   6.433
 9955TIP3    H229807   4.918   0.846   6.537
 9956TIP3   OH229808   5.950   1.537   5.682
 9956TIP3    H129809   5.947   1.632   5.667
 9956TIP3    H229810   6.040   1.513   5.664
 9957TIP3   OH229811   7.562   5.339   0.306
 9957TIP3    H129812   7.494   5.313   0.244
 9957TIP3    H229813   7.595   5.256   0.342
 9958TIP3   OH229814   7.390   5.556  -0.001
 9958TIP3    H129815   7.484   5.572   0.015
 9958TIP3    H229816   7.347   5.636   0.029
 9959TIP3   OH229817   0.643   6.001   0.055
 9959TIP3    H129818   0.648   5.906   0.067
 9959TIP3    H229819   0.563   6.026   0.102
 9960TIP3   OH229820   8.349   5.783   0.180
 9960TIP3    H129821   8.343   5.874   0.210
 9960TIP3    H229822   8.280   5.738   0.229
 9961TIP3   OH229823   5.258   1.833   6.162
 9961TIP3    H129824   5.214   1.817   6.078
 9961TIP3    H229825   5.226   1.918   6.191
 9962TIP3   OH229826   4.678   1.691   6.561
 9962TIP3    H129827   4.744   1.686   6.631
 9962TIP3    H229828   4.600   1.650   6.599
 9963TIP3   OH229829   5.459   1.759   5.788
 9963TIP3    H129830   5.511   1.687   5.752
 9963TIP3    H229831   5.493   1.773   5.876
 9964TIP3   OH229832   5.512   1.804   6.057
 9964TIP3    H129833   5.427   1.807   6.102
 9964TIP3    H229834   5.574   1.775   6.124
 9965TIP3   OH229835   0.538   5.112   0.326
 9965TIP3    H129836   0.469   5.175   0.307
 9965TIP3    H229837   0.498   5.026   0.310
 9966TIP3   OH229838   7.730   5.553   0.307
 9966TIP3    H129839   7.781   5.536   0.386
 9966TIP3    H229840   7.672   5.477   0.300
 9967TIP3   OH229841   0.334   4.935   0.273
 9967TIP3    H129842   0.272   4.932   0.345
 9967TIP3    H229843   0.300   5.004   0.215
 9968TIP3   OH229844   5.692   0.964   5.812
 9968TIP3    H129845   5.665   0.970   5.720
 9968TIP3    H229846   5.776   1.010   5.814
 9969TIP3   OH229847   8.096   4.884   0.183
 9969TIP3    H129848   8.021   4.869   0.241
 9969TIP3    H229849   8.068   4.953   0.124
 9970TIP3   OH229850   5.548   0.823   6.450
 9970TIP3    H129851   5.494   0.889   6.408
 9970TIP3    H229852   5.598   0.783   6.379
 9971TIP3   OH229853   0.024   5.128   0.464
 9971TIP3    H129854  -0.007   5.058   0.522
 9971TIP3    H229855   0.114   5.142   0.491
 9972TIP3   OH229856   5.720   0.835   6.672
 9972TIP3    H129857   5.665   0.878   6.607
 9972TIP3    H229858   5.711   0.742   6.653
 9973TIP3   OH229859   7.876   4.899   0.365
 9973TIP3    H129860   7.905   4.970   0.422
 9973TIP3    H229861   7.812   4.850   0.417
 9974TIP3   OH229862   4.600   0.387   6.510
 9974TIP3    H129863   4.661   0.460   6.510
 9974TIP3    H229864   4.515   0.425   6.534
 9975TIP3   OH229865   8.594   5.115   0.061
 9975TIP3    H129866   8.633   5.052   0.000
 9975TIP3    H229867   8.565   5.061   0.135
 9976TIP3   OH229868   5.142   0.566   6.376
 9976TIP3    H129869   5.113   0.548   6.465
 9976TIP3    H229870   5.062   0.593   6.330
 9977TIP3   OH229871   4.936   0.630   6.205
 9977TIP3    H129872   4.859   0.602   6.156
 9977TIP3    H229873   4.992   0.673   6.140
 9978TIP3   OH229874   0.353   6.345   0.149
 9978TIP3    H129875   0.348   6.364   0.055
 9978TIP3    H229876   0.431   6.390   0.179
 9979TIP3   OH229877   7.892   5.458   0.522
 9979TIP3    H129878   7.964   5.505   0.563
 9979TIP3    H229879   7.832   5.438   0.594
 9980TIP3   OH229880   5.480   0.875   6.842
 9980TIP3    H129881   5.556   0.833   6.800
 9980TIP3    H229882   5.482   0.842   6.932
 9981TIP3   OH229883   8.353   4.847   0.082
 9981TIP3    H129884   8.265   4.851   0.119
 9981TIP3    H229885   8.409   4.886   0.149
 9982TIP3   OH229886   5.188   1.133   6.214
 9982TIP3    H129887   5.114   1.075   6.201
 9982TIP3    H229888   5.172   1.175   6.298
 9983TIP3   OH229889   6.090   1.381   6.836
 9983TIP3    H129890   6.124   1.431   6.761
 9983TIP3    H229891   6.008   1.343   6.804
 9984TIP3   OH229892   5.602   0.559   6.024
 9984TIP3    H129893   5.511   0.532   6.018
 9984TIP3    H229894   5.605   0.616   6.101
 9985TIP3   OH229895   8.473   5.520   0.216
 9985TIP3    H129896   8.518   5.512   0.300
 9985TIP3    H229897   8.434   5.608   0.218
 9986TIP3   OH229898   5.678   0.721   6.229
 9986TIP3    H129899   5.773   0.711   6.235
 9986TIP3    H229900   5.665   0.798   6.173
 9987TIP3   OH229901   4.878   1.142   6.874
 9987TIP3    H129902   4.924   1.129   6.791
 9987TIP3    H229903   4.922   1.082   6.935
 9988TIP3   OH229904   5.352   1.288   6.059
 9988TIP3    H129905   5.306   1.372   6.060
 9988TIP3    H229906   5.296   1.230   6.111
 9989TIP3   OH229907   7.643   5.126   0.467
 9989TIP3    H129908   7.671   5.084   0.548
 9989TIP3    H229909   7.564   5.079   0.441
 9990TIP3   OH229910   8.379   5.267   0.505
 9990TIP3    H129911   8.310   5.211   0.469
 9990TIP3    H229912   8.460   5.231   0.467
 9991TIP3   OH229913   8.620   5.796   0.102
 9991TIP3    H129914   8.525   5.786   0.109
 9991TIP3    H229915   8.645   5.839   0.184
 9992TIP3   OH229916   6.190   0.838   5.994
 9992TIP3    H129917   6.144   0.767   5.949
 9992TIP3    H229918   6.164   0.917   5.948
 9993TIP3   OH229919   0.656   5.719   0.080
 9993TIP3    H129920   0.562   5.705   0.075
 9993TIP3    H229921   0.689   5.687  -0.004
 9994TIP3   OH229922   5.875   1.610   5.953
 9994TIP3    H129923   5.850   1.544   6.017
 9994TIP3    H229924   5.891   1.560   5.873
 9995TIP3   OH229925   5.854   1.252   6.739
 9995TIP3    H129926   5.763   1.227   6.760
 9995TIP3    H229927   5.892   1.172   6.702
 9996TIP3   OH229928   5.011   1.487   6.542
 9996TIP3    H129929   5.000   1.561   6.483
 9996TIP3    H229930   4.928   1.483   6.590
 9997TIP3   OH229931   4.543   0.797   6.231
 9997TIP3    H129932   4.592   0.875   6.257
 9997TIP3    H229933   4.470   0.793   6.293
 9998TIP3   OH229934   5.116   1.252   6.442
 9998TIP3    H129935   5.091   1.340   6.473
 9998TIP3    H229936   5.093   1.194   6.515
 9999TIP3   OH229937   5.295   1.805   6.997
 9999TIP3    H129938   5.331   1.879   6.947
 9999TIP3    H229939   5.370   1.771   7.046
10000TIP3   OH229940   4.907   1.706   6.393
10000TIP3    H129941   4.822   1.712   6.437
10000TIP3    H229942   4.943   1.795   6.398
10001TIP3   OH229943   5.650   1.457   6.967
10001TIP3    H129944   5.638   1.455   7.062
10001TIP3    H229945   5.731   1.408   6.951
10002TIP3   OH229946   5.631   1.344   5.844
10002TIP3    H129947   5.687   1.315   5.916
10002TIP3    H229948   5.544   1.312   5.866
10003TIP3   OH229949   5.902   1.966   7.010
10003TIP3    H129950   5.829   1.905   7.021
10003TIP3    H229951   5.875   2.022   6.937
10004TIP3   OH229952   5.959   1.812   5.652
10004TIP3    H129953   5.992   1.879   5.592
10004TIP3    H229954   5.884   1.853   5.695
10005TIP3   OH229955   5.804   1.247   6.029
10005TIP3    H129956   5.789   1.198   6.110
10005TIP3    H229957   5.898   1.264   6.028
10006TIP3   OH229958   7.590   5.747   0.138
10006TIP3    H129959   7.642   5.687   0.192
10006TIP3    H229960   7.604   5.833   0.178
10007TIP3   OH229961   5.000   1.313   5.852
10007TIP3    H129962   5.006   1.220   5.829
10007TIP3    H229963   4.982   1.313   5.947
10008TIP3   OH229964   4.948   1.328   6.126
10008TIP3    H129965   5.020   1.297   6.181
10008TIP3    H229966   4.949   1.423   6.137
10009TIP3   OH229967   4.662   1.025   6.326
10009TIP3    H129968   4.696   1.064   6.406
10009TIP3    H229969   4.683   1.088   6.258
10010TIP3   OH229970   5.206   1.516   6.062
10010TIP3    H129971   5.123   1.541   6.104
10010TIP3    H229972   5.230   1.592   6.009
10011TIP3   OH229973   5.478   0.555   6.464
10011TIP3    H129974   5.462   0.646   6.487
10011TIP3    H229975   5.409   0.506   6.510
10012TIP3   OH229976   8.536   4.948   0.275
10012TIP3    H129977   8.554   5.023   0.333
10012TIP3    H229978   8.552   4.871   0.330
10013TIP3   OH229979   4.954   1.600   6.143
10013TIP3    H129980   4.933   1.669   6.080
10013TIP3    H229981   4.936   1.639   6.229
10014TIP3   OH229982   5.950   1.000   6.649
10014TIP3    H129983   5.871   0.949   6.667
10014TIP3    H229984   6.017   0.961   6.705
10015TIP3   OH229985   4.698   1.214   6.123
10015TIP3    H129986   4.776   1.269   6.134
10015TIP3    H229987   4.725   1.147   6.061
10016TIP3   OH229988   4.605   0.529   6.239
10016TIP3    H129989   4.599   0.624   6.246
10016TIP3    H229990   4.515   0.500   6.226
10017TIP3   OH229991   5.931   1.956   6.582
10017TIP3    H129992   5.889   2.006   6.512
10017TIP3    H229993   6.025   1.969   6.569
10018TIP3   OH229994   7.581   6.043   0.535
10018TIP3    H129995   7.662   6.041   0.586
10018TIP3    H229996   7.556   5.951   0.527
10019TIP3   OH229997   8.053   5.970   0.612
10019TIP3    H129998   8.145   5.947   0.616
10019TIP3    H229999   8.019   5.920   0.537
10020TIP3   OH230000   5.151   1.514   5.743
10020TIP3    H130001   5.103   1.444   5.788
10020TIP3    H230002   5.226   1.471   5.702
10021TIP3   OH230003   0.074   5.911   0.345
10021TIP3    H130004   0.077   5.839   0.408
10021TIP3    H230005   0.152   5.964   0.365
10022TIP3   OH230006   5.591   1.551   5.666
10022TIP3    H130007   5.621   1.487   5.730
10022TIP3    H230008   5.653   1.545   5.594
10023TIP3   OH230009   7.683   5.411   0.701
10023TIP3    H130010   7.671   5.324   0.738
10023TIP3    H230011   7.602   5.428   0.652
10024TIP3   OH230012   4.809   1.014   5.977
10024TIP3    H130013   4.857   0.987   6.056
10024TIP3    H230014   4.876   1.026   5.910
10025TIP3   OH230015   8.336   5.545   0.499
10025TIP3    H130016   8.285   5.561   0.420
10025TIP3    H230017   8.362   5.453   0.493
10026TIP3   OH230018   5.356   1.230   5.790
10026TIP3    H130019   5.342   1.242   5.884
10026TIP3    H230020   5.341   1.137   5.775
10027TIP3   OH230021   0.184   5.568   0.137
10027TIP3    H130022   0.262   5.600   0.091
10027TIP3    H230023   0.119   5.637   0.123
10028TIP3   OH230024   7.933   5.173   0.734
10028TIP3    H130025   8.013   5.121   0.727
10028TIP3    H230026   7.964   5.260   0.762
10029TIP3   OH230027   4.976   0.958   6.196
10029TIP3    H130028   4.955   0.933   6.286
10029TIP3    H230029   5.016   0.880   6.158
10030TIP3   OH230030   8.173   5.100   0.409
10030TIP3    H130031   8.085   5.135   0.403
10030TIP3    H230032   8.211   5.116   0.322
10031TIP3   OH230033   5.096   0.770   6.031
10031TIP3    H130034   5.068   0.767   5.939
10031TIP3    H230035   5.186   0.802   6.027
10032TIP3   OH230036   0.069   5.455   0.509
10032TIP3    H130037   0.135   5.412   0.455
10032TIP3    H230038   0.064   5.400   0.588
10033TIP3   OH230039   5.923   1.064   5.678
10033TIP3    H130040   5.901   1.024   5.594
10033TIP3    H230041   5.892   1.154   5.671
10034TIP3   OH230042   8.254   4.864   0.515
10034TIP3    H130043   8.231   4.797   0.451
10034TIP3    H230044   8.228   4.947   0.474
10035TIP3   OH230045   8.318   5.185   0.194
10035TIP3    H130046   8.401   5.203   0.151
10035TIP3    H230047   8.256   5.244   0.151
10036TIP3   OH230048   0.279   5.145   0.574
10036TIP3    H130049   0.304   5.077   0.637
10036TIP3    H230050   0.355   5.203   0.572
10037TIP3   OH230051   0.315   5.398   0.303
10037TIP3    H130052   0.257   5.458   0.256
10037TIP3    H230053   0.402   5.418   0.270
10038TIP3   OH230054   8.135   4.981   0.740
10038TIP3    H130055   8.065   4.918   0.755
10038TIP3    H230056   8.184   4.944   0.666
10039TIP3   OH230057   8.518   4.912   0.590
10039TIP3    H130058   8.531   4.881   0.680
10039TIP3    H230059   8.426   4.892   0.572
10040TIP3   OH230060   4.937   1.789   5.943
10040TIP3    H130061   5.030   1.779   5.925
10040TIP3    H230062   4.905   1.845   5.872
10041TIP3   OH230063   4.427   1.245   6.130
10041TIP3    H130064   4.522   1.242   6.138
10041TIP3    H230065   4.401   1.155   6.114
10042TIP3   OH230066   4.325   1.778   6.590
10042TIP3    H130067   4.262   1.720   6.548
10042TIP3    H230068   4.373   1.722   6.651
10043TIP3   OH230069   4.482   1.628   6.759
10043TIP3    H130070   4.467   1.553   6.817
10043TIP3    H230071   4.528   1.692   6.814
10044TIP3   OH230072   6.201   2.013   6.573
10044TIP3    H130073   6.218   2.043   6.662
10044TIP3    H230074   6.251   2.072   6.517
10045TIP3   OH230075   6.214   2.048   6.853
10045TIP3    H130076   6.169   1.964   6.849
10045TIP3    H230077   6.286   2.033   6.915
10046TIP3   OH230078   0.523   5.800   0.402
10046TIP3    H130079   0.455   5.807   0.469
10046TIP3    H230080   0.570   5.883   0.406
10047TIP3   OH230081   6.079   1.277   6.023
10047TIP3    H130082   6.139   1.346   5.994
10047TIP3    H230083   6.115   1.248   6.107
10048TIP3   OH230084   6.197   1.173   6.244
10048TIP3    H130085   6.133   1.130   6.301
10048TIP3    H230086   6.267   1.201   6.303
10049TIP3   OH230087   6.261   1.522   6.669
10049TIP3    H130088   6.317   1.454   6.631
10049TIP3    H230089   6.264   1.594   6.606
10050TIP3   OH230090   6.077   1.805   6.861
10050TIP3    H130091   6.008   1.849   6.912
10050TIP3    H230092   6.030   1.763   6.789
10051TIP3   OH230093   6.124   1.063   5.859
10051TIP3    H130094   6.049   1.061   5.800
10051TIP3    H230095   6.106   1.136   5.918
10052TIP3   OH230096   5.996   0.695   5.851
10052TIP3    H130097   5.955   0.751   5.785
10052TIP3    H230098   6.005   0.610   5.808
10053TIP3   OH230099   6.014   1.022   6.382
10053TIP3    H130100   6.034   0.932   6.357
10053TIP3    H230101   5.998   1.018   6.476
10054TIP3   OH230102   7.511   5.091   0.100
10054TIP3    H130103   7.506   5.041   0.018
10054TIP3    H230104   7.604   5.093   0.121
10055TIP3   OH230105   0.570   5.446   0.208
10055TIP3    H130106   0.637   5.379   0.193
10055TIP3    H230107   0.581   5.508   0.136
10056TIP3   OH230108   0.750   5.239   0.203
10056TIP3    H130109   0.684   5.183   0.244
10056TIP3    H230110   0.833   5.202   0.231
10057TIP3   OH230111   6.035   0.762   6.276
10057TIP3    H130112   6.027   0.730   6.366
10057TIP3    H230113   6.064   0.686   6.226
10058TIP3   OH230114   6.147   0.869   6.788
10058TIP3    H130115   6.226   0.880   6.735
10058TIP3    H230116   6.167   0.910   6.871
10059TIP3   OH230117   6.225   1.027   7.005
10059TIP3    H130118   6.152   1.057   7.059
10059TIP3    H230119   6.262   1.107   6.967
10060TIP3   OH230120   7.913   4.804   0.780
10060TIP3    H130121   7.929   4.853   0.861
10060TIP3    H230122   7.856   4.732   0.807
10061TIP3   OH230123   7.506   4.761   0.147
10061TIP3    H130124   7.540   4.746   0.059
10061TIP3    H230125   7.579   4.802   0.194
10062TIP3   OH230126   5.756   1.919   6.212
10062TIP3    H130127   5.815   1.912   6.137
10062TIP3    H230128   5.796   1.987   6.267
10063TIP3   OH230129   7.722   5.772   0.543
10063TIP3    H130130   7.629   5.756   0.529
10063TIP3    H230131   7.738   5.742   0.633
10064TIP3   OH230132   7.934   5.819   0.124
10064TIP3    H130133   7.880   5.891   0.091
10064TIP3    H230134   8.018   5.830   0.079
10065TIP3   OH230135   8.338   6.050   0.260
10065TIP3    H130136   8.376   6.044   0.348
10065TIP3    H230137   8.401   6.102   0.210
10066TIP3   OH230138   8.529   6.203   0.133
10066TIP3    H130139   8.593   6.151   0.085
10066TIP3    H230140   8.581   6.260   0.189
10067TIP3   OH230141   7.589   6.052   0.167
10067TIP3    H130142   7.498   6.071   0.141
10067TIP3    H230143   7.612   6.122   0.228
10068TIP3   OH230144   7.821   6.045   0.017
10068TIP3    H130145   7.737   6.050   0.064
10068TIP3    H230146   7.800   6.075  -0.072
10069TIP3   OH230147   5.375   2.012   6.831
10069TIP3    H130148   5.305   2.026   6.767
10069TIP3    H230149   5.387   2.098   6.872
10070TIP3   OH230150   5.638   1.945   6.884
10070TIP3    H130151   5.547   1.966   6.863
10070TIP3    H230152   5.689   2.011   6.838
10071TIP3   OH230153   5.838   2.118   6.785
10071TIP3    H130154   5.837   2.205   6.747
10071TIP3    H230155   5.869   2.061   6.715
10072TIP3   OH230156   4.651   1.793   6.908
10072TIP3    H130157   4.668   1.768   6.999
10072TIP3    H230158   4.725   1.756   6.860
10073TIP3   OH230159   4.850   1.666   6.772
10073TIP3    H130160   4.860   1.583   6.819
10073TIP3    H230161   4.937   1.706   6.776
10074TIP3   OH230162   5.113   1.756   6.791
10074TIP3    H130163   5.134   1.663   6.778
10074TIP3    H230164   5.166   1.781   6.867
10075TIP3   OH230165   5.203   1.739   5.890
10075TIP3    H130166   5.286   1.768   5.853
10075TIP3    H230167   5.176   1.667   5.833
10076TIP3   OH230168   5.912   1.879   5.985
10076TIP3    H130169   5.904   1.783   5.977
10076TIP3    H230170   5.867   1.913   5.907
10077TIP3   OH230171   4.457   1.526   6.025
10077TIP3    H130172   4.467   1.617   6.055
10077TIP3    H230173   4.538   1.509   5.977
10078TIP3   OH230174   0.392   6.070   0.153
10078TIP3    H130175   0.317   6.040   0.102
10078TIP3    H230176   0.380   6.165   0.161
10079TIP3   OH230177   7.400   1.429   5.938
10079TIP3    H130178   7.378   1.517   5.908
10079TIP3    H230179   7.328   1.375   5.907
10080TIP3   OH230180   7.417   1.419   6.324
10080TIP3    H130181   7.443   1.402   6.415
10080TIP3    H230182   7.374   1.338   6.296
10081TIP3   OH230183   6.701   1.284   6.691
10081TIP3    H130184   6.722   1.219   6.758
10081TIP3    H230185   6.763   1.355   6.705
10082TIP3   OH230186   7.665   1.703   6.013
10082TIP3    H130187   7.655   1.639   6.083
10082TIP3    H230188   7.688   1.785   6.057
10083TIP3   OH230189   6.687   1.690   6.383
10083TIP3    H130190   6.669   1.596   6.390
10083TIP3    H230191   6.782   1.696   6.374
10084TIP3   OH230192   6.376   1.023   6.093
10084TIP3    H130193   6.321   1.085   6.142
10084TIP3    H230194   6.314   0.961   6.056
10085TIP3   OH230195   6.436   1.229   6.371
10085TIP3    H130196   6.484   1.153   6.406
10085TIP3    H230197   6.505   1.289   6.342
10086TIP3   OH230198   7.316   2.141   6.022
10086TIP3    H130199   7.349   2.072   5.964
10086TIP3    H230200   7.310   2.099   6.108
10087TIP3   OH230201   7.200   1.621   6.353
10087TIP3    H130202   7.242   1.547   6.308
10087TIP3    H230203   7.273   1.673   6.386
10088TIP3   OH230204   7.599   1.117   6.414
10088TIP3    H130205   7.615   1.023   6.424
10088TIP3    H230206   7.596   1.131   6.319
10089TIP3   OH230207   6.929   0.724   6.349
10089TIP3    H130208   6.928   0.815   6.377
10089TIP3    H230209   6.963   0.676   6.425
10090TIP3   OH230210   7.572   0.794   5.905
10090TIP3    H130211   7.609   0.827   5.987
10090TIP3    H230212   7.482   0.773   5.927
10091TIP3   OH230213   6.580   1.027   6.498
10091TIP3    H130214   6.657   0.998   6.548
10091TIP3    H230215   6.599   1.001   6.408
10092TIP3   OH230216   7.048   1.234   6.256
10092TIP3    H130217   7.142   1.220   6.265
10092TIP3    H230218   7.017   1.163   6.200
10093TIP3   OH230219   7.303   1.631   5.773
10093TIP3    H130220   7.263   1.597   5.692
10093TIP3    H230221   7.247   1.704   5.799
10094TIP3   OH230222   7.051   1.540   6.575
10094TIP3    H130223   6.996   1.609   6.611
10094TIP3    H230224   7.096   1.581   6.502
10095TIP3   OH230225   6.784   0.887   6.622
10095TIP3    H130226   6.848   0.898   6.692
10095TIP3    H230227   6.758   0.795   6.628
10096TIP3   OH230228   6.888   1.741   6.672
10096TIP3    H130229   6.874   1.829   6.638
10096TIP3    H230230   6.810   1.721   6.723
10097TIP3   OH230231   6.262   1.456   5.916
10097TIP3    H130232   6.229   1.479   5.829
10097TIP3    H230233   6.288   1.540   5.954
10098TIP3   OH230234   7.707   1.947   6.152
10098TIP3    H130235   7.621   1.937   6.193
10098TIP3    H230236   7.703   2.032   6.109
10099TIP3   OH230237   7.414   1.979   5.817
10099TIP3    H130238   7.467   1.900   5.804
10099TIP3    H230239   7.471   2.050   5.785
10100TIP3   OH230240   7.557   1.752   5.763
10100TIP3    H130241   7.483   1.692   5.759
10100TIP3    H230242   7.604   1.727   5.842
10101TIP3   OH230243   7.942   1.842   6.503
10101TIP3    H130244   7.938   1.766   6.445
10101TIP3    H230245   7.929   1.917   6.445
10102TIP3   OH230246   7.236   1.272   5.778
10102TIP3    H130247   7.149   1.306   5.759
10102TIP3    H230248   7.280   1.268   5.693
10103TIP3   OH230249   7.163   1.091   5.492
10103TIP3    H130250   7.237   1.140   5.527
10103TIP3    H230251   7.202   1.021   5.440
10104TIP3   OH230252   8.142   1.494   6.333
10104TIP3    H130253   8.056   1.536   6.336
10104TIP3    H230254   8.179   1.522   6.249
10105TIP3   OH230255   7.574   1.351   5.738
10105TIP3    H130256   7.523   1.380   5.814
10105TIP3    H230257   7.658   1.323   5.774
10106TIP3   OH230258   7.784   1.396   6.620
10106TIP3    H130259   7.796   1.491   6.628
10106TIP3    H230260   7.692   1.385   6.596
10107TIP3   OH230261   6.804   1.327   6.136
10107TIP3    H130262   6.767   1.264   6.074
10107TIP3    H230263   6.886   1.287   6.165
10108TIP3   OH230264   6.948   1.735   6.281
10108TIP3    H130265   6.929   1.716   6.189
10108TIP3    H230266   7.034   1.698   6.297
10109TIP3   OH230267   6.928   1.311   6.487
10109TIP3    H130268   6.975   1.295   6.405
10109TIP3    H230269   6.968   1.391   6.522
10110TIP3   OH230270   7.470   1.937   6.284
10110TIP3    H130271   7.457   2.018   6.333
10110TIP3    H230272   7.452   1.868   6.348
10111TIP3   OH230273   7.086   1.851   6.833
10111TIP3    H130274   7.024   1.910   6.877
10111TIP3    H230275   7.031   1.794   6.779
10112TIP3   OH230276   7.396   1.230   5.557
10112TIP3    H130277   7.466   1.258   5.615
10112TIP3    H230278   7.436   1.225   5.470
10113TIP3   OH230279   6.850   1.411   6.928
10113TIP3    H130280   6.858   1.497   6.970
10113TIP3    H230281   6.759   1.385   6.945
10114TIP3   OH230282   7.163   1.866   5.817
10114TIP3    H130283   7.246   1.912   5.828
10114TIP3    H230284   7.104   1.931   5.778
10115TIP3   OH230285   6.875   2.008   6.916
10115TIP3    H130286   6.848   2.014   6.824
10115TIP3    H230287   6.794   1.990   6.964
10116TIP3   OH230288   6.671   1.165   5.939
10116TIP3    H130289   6.593   1.210   5.905
10116TIP3    H230290   6.636   1.084   5.976
10117TIP3   OH230291   7.747   1.790   5.173
10117TIP3    H130292   7.743   1.884   5.154
10117TIP3    H230293   7.836   1.764   5.150
10118TIP3   OH230294   6.466   1.552   6.866
10118TIP3    H130295   6.396   1.535   6.802
10118TIP3    H230296   6.502   1.465   6.885
10119TIP3   OH230297   6.314   1.752   6.510
10119TIP3    H130298   6.408   1.766   6.520
10119TIP3    H230299   6.274   1.830   6.546
10120TIP3   OH230300   8.161   2.239   6.547
10120TIP3    H130301   8.182   2.146   6.548
10120TIP3    H230302   8.082   2.246   6.600
10121TIP3   OH230303   7.276   1.987   6.688
10121TIP3    H130304   7.273   2.077   6.718
10121TIP3    H230305   7.210   1.941   6.739
10122TIP3   OH230306   7.054   2.091   5.648
10122TIP3    H130307   7.008   2.075   5.566
10122TIP3    H230308   7.021   2.175   5.679
10123TIP3   OH230309   6.491   1.943   6.024
10123TIP3    H130310   6.535   1.937   6.109
10123TIP3    H230311   6.441   1.861   6.017
10124TIP3   OH230312   7.256   2.015   5.277
10124TIP3    H130313   7.309   1.943   5.241
10124TIP3    H230314   7.290   2.028   5.365
10125TIP3   OH230315   7.308   2.061   5.545
10125TIP3    H130316   7.223   2.065   5.589
10125TIP3    H230317   7.368   2.029   5.613
10126TIP3   OH230318   6.666   1.739   6.834
10126TIP3    H130319   6.716   1.728   6.915
10126TIP3    H230320   6.593   1.677   6.841
10127TIP3   OH230321   7.501   1.213   5.300
10127TIP3    H130322   7.458   1.220   5.215
10127TIP3    H230323   7.584   1.258   5.290
10128TIP3   OH230324   6.980   1.115   6.675
10128TIP3    H130325   6.922   1.109   6.751
10128TIP3    H230326   6.943   1.186   6.623
10129TIP3   OH230327   6.925   1.055   6.101
10129TIP3    H130328   6.879   1.000   6.165
10129TIP3    H230329   6.919   1.005   6.019
10130TIP3   OH230330   7.430   1.119   5.899
10130TIP3    H130331   7.374   1.186   5.860
10130TIP3    H230332   7.441   1.053   5.830
10131TIP3   OH230333   7.555   1.113   6.137
10131TIP3    H130334   7.511   1.146   6.059
10131TIP3    H230335   7.514   1.028   6.154
10132TIP3   OH230336   6.798   1.110   6.887
10132TIP3    H130337   6.820   1.172   6.957
10132TIP3    H230338   6.734   1.051   6.926
10133TIP3   OH230339   6.517   0.760   6.004
10133TIP3    H130340   6.471   0.797   5.928
10133TIP3    H230341   6.452   0.760   6.074
10134TIP3   OH230342   7.518   1.320   6.571
10134TIP3    H130343   7.549   1.250   6.514
10134TIP3    H230344   7.482   1.275   6.647
10135TIP3   OH230345   6.584   0.932   6.249
10135TIP3    H130346   6.513   0.959   6.190
10135TIP3    H230347   6.644   0.882   6.194
10136TIP3   OH230348   6.903   0.873   5.892
10136TIP3    H130349   6.982   0.870   5.838
10136TIP3    H230350   6.831   0.866   5.830
10137TIP3   OH230351   6.733   0.879   5.680
10137TIP3    H130352   6.661   0.844   5.628
10137TIP3    H230353   6.790   0.922   5.617
10138TIP3   OH230354   7.874   2.542   6.650
10138TIP3    H130355   7.874   2.565   6.557
10138TIP3    H230356   7.942   2.598   6.688
10139TIP3   OH230357   1.084   5.713   0.040
10139TIP3    H130358   1.164   5.734   0.087
10139TIP3    H230359   1.016   5.712   0.108
10140TIP3   OH230360   7.307   1.165   6.308
10140TIP3    H130361   7.373   1.103   6.278
10140TIP3    H230362   7.291   1.141   6.399
10141TIP3   OH230363   7.227   1.117   6.567
10141TIP3    H130364   7.140   1.099   6.604
10141TIP3    H230365   7.252   1.201   6.606
10142TIP3   OH230366   6.992   1.389   5.710
10142TIP3    H130367   6.920   1.327   5.695
10142TIP3    H230368   6.972   1.430   5.794
10143TIP3   OH230369   7.903   1.635   6.321
10143TIP3    H130370   7.928   1.689   6.246
10143TIP3    H230371   7.817   1.599   6.296
10144TIP3   OH230372   7.364   0.806   5.490
10144TIP3    H130373   7.343   0.722   5.530
10144TIP3    H230374   7.398   0.859   5.562
10145TIP3   OH230375   7.395   1.701   6.727
10145TIP3    H130376   7.446   1.682   6.806
10145TIP3    H230377   7.356   1.787   6.744
10146TIP3   OH230378   7.480   0.938   5.693
10146TIP3    H130379   7.533   0.892   5.758
10146TIP3    H230380   7.541   0.998   5.651
10147TIP3   OH230381   6.681   1.403   6.372
10147TIP3    H130382   6.720   1.387   6.286
10147TIP3    H230383   6.743   1.367   6.434
10148TIP3   OH230384   7.148   1.543   5.545
10148TIP3    H130385   7.100   1.626   5.545
10148TIP3    H230386   7.096   1.485   5.601
10149TIP3   OH230387   0.858   5.385  -0.027
10149TIP3    H130388   0.885   5.382   0.065
10149TIP3    H230389   0.781   5.327  -0.030
10150TIP3   OH230390   7.275   1.500   7.007
10150TIP3    H130391   7.221   1.422   7.004
10150TIP3    H230392   7.365   1.468   6.996
10151TIP3   OH230393   7.546   1.982   6.598
10151TIP3    H130394   7.451   1.976   6.613
10151TIP3    H230395   7.577   2.037   6.670
10152TIP3   OH230396   7.967   1.098   5.504
10152TIP3    H130397   7.926   1.035   5.445
10152TIP3    H230398   7.965   1.181   5.456
10153TIP3   OH230399   8.196   1.966   6.544
10153TIP3    H130400   8.112   1.936   6.582
10153TIP3    H230401   8.220   1.896   6.483
10154TIP3   OH230402   7.671   1.864   5.440
10154TIP3    H130403   7.645   1.797   5.503
10154TIP3    H230404   7.688   1.816   5.359
10155TIP3   OH230405   7.665   1.517   6.228
10155TIP3    H130406   7.575   1.493   6.250
10155TIP3    H230407   7.702   1.438   6.189
10156TIP3   OH230408   6.806   1.737   6.028
10156TIP3    H130409   6.801   1.814   5.971
10156TIP3    H230410   6.717   1.726   6.062
10157TIP3   OH230411   6.333   1.086   5.683
10157TIP3    H130412   6.387   1.157   5.717
10157TIP3    H230413   6.262   1.078   5.747
10158TIP3   OH230414   6.908   1.497   5.942
10158TIP3    H130415   6.885   1.586   5.966
10158TIP3    H230416   6.874   1.442   6.013
10159TIP3   OH230417   7.088   2.061   6.485
10159TIP3    H130418   7.125   2.133   6.434
10159TIP3    H230419   7.162   2.028   6.536
10160TIP3   OH230420   6.722   1.961   5.875
10160TIP3    H130421   6.636   1.967   5.917
10160TIP3    H230422   6.756   2.050   5.880
10161TIP3   OH230423   7.439   1.717   6.458
10161TIP3    H130424   7.424   1.711   6.552
10161TIP3    H230425   7.526   1.679   6.445
10162TIP3   OH230426   7.425   1.601   5.336
10162TIP3    H130427   7.487   1.575   5.404
10162TIP3    H230428   7.340   1.573   5.369
10163TIP3   OH230429   7.698   2.219   6.488
10163TIP3    H130430   7.621   2.163   6.493
10163TIP3    H230431   7.677   2.283   6.419
10164TIP3   OH230432   7.752   2.065   5.136
10164TIP3    H130433   7.775   2.127   5.067
10164TIP3    H230434   7.680   2.107   5.183
10165TIP3   OH230435   7.607   1.518   5.518
10165TIP3    H130436   7.587   1.466   5.596
10165TIP3    H230437   7.702   1.527   5.518
10166TIP3   OH230438   6.517   1.946   6.645
10166TIP3    H130439   6.567   1.883   6.696
10166TIP3    H230440   6.531   2.030   6.688
10167TIP3   OH230441   6.789   1.562   5.318
10167TIP3    H130442   6.809   1.469   5.305
10167TIP3    H230443   6.772   1.570   5.412
10168TIP3   OH230444   6.737   1.584   5.591
10168TIP3    H130445   6.801   1.549   5.653
10168TIP3    H230446   6.736   1.678   5.607
10169TIP3   OH230447   6.460   1.293   5.813
10169TIP3    H130448   6.396   1.336   5.870
10169TIP3    H230449   6.481   1.359   5.747
10170TIP3   OH230450   7.001   1.770   5.544
10170TIP3    H130451   6.918   1.793   5.586
10170TIP3    H230452   7.028   1.850   5.498
10171TIP3   OH230453   7.309   0.736   5.930
10171TIP3    H130454   7.264   0.821   5.934
10171TIP3    H230455   7.280   0.690   6.009
10172TIP3   OH230456   7.465   1.159   6.798
10172TIP3    H130457   7.434   1.196   6.881
10172TIP3    H230458   7.561   1.157   6.808
10173TIP3   OH230459   6.750   1.853   5.625
10173TIP3    H130460   6.727   1.924   5.564
10173TIP3    H230461   6.738   1.892   5.711
10174TIP3   OH230462   7.774   1.274   6.136
10174TIP3    H130463   7.692   1.224   6.144
10174TIP3    H230464   7.837   1.225   6.189
10175TIP3   OH230465   6.480   1.472   5.599
10175TIP3    H130466   6.550   1.537   5.604
10175TIP3    H230467   6.515   1.403   5.543
10176TIP3   OH230468   6.419   0.839   5.755
10176TIP3    H130469   6.417   0.933   5.739
10176TIP3    H230470   6.341   0.805   5.710
10177TIP3   OH230471   7.724   2.213   6.069
10177TIP3    H130472   7.681   2.263   6.000
10177TIP3    H230473   7.818   2.227   6.054
10178TIP3   OH230474   6.319   1.718   6.003
10178TIP3    H130475   6.276   1.755   6.080
10178TIP3    H230476   6.277   1.761   5.929
10179TIP3   OH230477   0.778   6.307   0.045
10179TIP3    H130478   0.860   6.312   0.094
10179TIP3    H230479   0.762   6.213   0.035
10180TIP3   OH230480   1.241   6.235   0.085
10180TIP3    H130481   1.333   6.212   0.093
10180TIP3    H230482   1.208   6.179   0.015
10181TIP3   OH230483   6.944   1.773   5.224
10181TIP3    H130484   6.900   1.701   5.270
10181TIP3    H230485   7.023   1.733   5.188
10182TIP3   OH230486   7.620   2.131   6.815
10182TIP3    H130487   7.598   2.069   6.884
10182TIP3    H230488   7.686   2.188   6.854
10183TIP3   OH230489   7.389   1.808   5.155
10183TIP3    H130490   7.421   1.743   5.218
10183TIP3    H230491   7.449   1.801   5.081
10184TIP3   OH230492   0.885   5.710   0.237
10184TIP3    H130493   0.897   5.620   0.269
10184TIP3    H230494   0.800   5.709   0.193
10185TIP3   OH230495   6.613   1.270   5.474
10185TIP3    H130496   6.661   1.248   5.554
10185TIP3    H230497   6.680   1.281   5.407
10186TIP3   OH230498   7.240   1.767   7.043
10186TIP3    H130499   7.193   1.785   6.962
10186TIP3    H230500   7.264   1.675   7.037
10187TIP3   OH230501   7.135   1.487   5.276
10187TIP3    H130502   7.132   1.497   5.371
10187TIP3    H230503   7.133   1.392   5.262
10188TIP3   OH230504   7.710   1.751   6.618
10188TIP3    H130505   7.790   1.788   6.581
10188TIP3    H230506   7.645   1.820   6.610
10189TIP3   OH230507   1.023   5.416   0.208
10189TIP3    H130508   1.104   5.367   0.196
10189TIP3    H230509   1.033   5.457   0.294
10190TIP3   OH230510   6.783   1.209   5.687
10190TIP3    H130511   6.753   1.189   5.776
10190TIP3    H230512   6.818   1.126   5.654
10191TIP3   OH230513   7.107   1.290   6.915
10191TIP3    H130514   7.022   1.332   6.922
10191TIP3    H230515   7.141   1.317   6.830
10192TIP3   OH230516   6.897   1.018   5.510
10192TIP3    H130517   6.870   1.027   5.419
10192TIP3    H230518   6.984   1.056   5.514
10193TIP3   OH230519   7.557   1.660   6.951
10193TIP3    H130520   7.646   1.644   6.920
10193TIP3    H230521   7.567   1.673   7.045
10194TIP3   OH230522   7.723   1.322   5.172
10194TIP3    H130523   7.699   1.277   5.091
10194TIP3    H230524   7.691   1.412   5.161
10195TIP3   OH230525   7.143   1.015   6.947
10195TIP3    H130526   7.226   1.013   6.901
10195TIP3    H230527   7.119   1.108   6.948
10196TIP3   OH230528   7.243   1.375   6.681
10196TIP3    H130529   7.323   1.427   6.674
10196TIP3    H230530   7.174   1.433   6.650
10197TIP3   OH230531   7.817   1.642   6.849
10197TIP3    H130532   7.779   1.686   6.773
10197TIP3    H230533   7.905   1.618   6.822
10198TIP3   OH230534   1.291   5.207   0.182
10198TIP3    H130535   1.265   5.120   0.151
10198TIP3    H230536   1.385   5.211   0.164
10199TIP3   OH230537   6.736   2.052   5.433
10199TIP3    H130538   6.829   2.041   5.412
10199TIP3    H230539   6.701   2.104   5.361
10200TIP3   OH230540   6.208   1.454   5.629
10200TIP3    H130541   6.302   1.471   5.622
10200TIP3    H230542   6.196   1.371   5.583
10201TIP3   OH230543   6.120   2.031   6.078
10201TIP3    H130544   6.054   1.978   6.034
10201TIP3    H230545   6.163   1.971   6.138
10202TIP3   OH230546   6.260   1.865   6.249
10202TIP3    H130547   6.250   1.798   6.317
10202TIP3    H230548   6.311   1.934   6.291
10203TIP3   OH230549   7.992   2.273   6.052
10203TIP3    H130550   8.003   2.299   6.143
10203TIP3    H230551   8.028   2.346   6.002
10204TIP3   OH230552   8.000   2.303   6.328
10204TIP3    H130553   7.957   2.217   6.327
10204TIP3    H230554   8.068   2.294   6.394
10205TIP3   OH230555   7.883   1.528   5.517
10205TIP3    H130556   7.946   1.595   5.490
10205TIP3    H230557   7.924   1.487   5.593
10206TIP3   OH230558   8.006   1.391   5.720
10206TIP3    H130559   7.933   1.349   5.765
10206TIP3    H230560   8.062   1.424   5.791
10207TIP3   OH230561   8.052   1.782   6.142
10207TIP3    H130562   8.109   1.722   6.095
10207TIP3    H230563   8.049   1.861   6.087
10208TIP3   OH230564   7.874   2.057   6.345
10208TIP3    H130565   7.806   2.100   6.397
10208TIP3    H230566   7.826   2.014   6.274
10209TIP3   OH230567   7.931   1.320   5.346
10209TIP3    H130568   7.856   1.315   5.287
10209TIP3    H230569   7.910   1.391   5.406
10210TIP3   OH230570   7.779   0.971   5.341
10210TIP3    H130571   7.727   1.019   5.276
10210TIP3    H230572   7.802   0.889   5.297
10211TIP3   OH230573   7.809   1.265   5.859
10211TIP3    H130574   7.818   1.172   5.842
10211TIP3    H230575   7.804   1.272   5.954
10212TIP3   OH230576   6.435   1.311   6.633
10212TIP3    H130577   6.423   1.283   6.542
10212TIP3    H230578   6.530   1.305   6.647
10213TIP3   OH230579   7.815   0.999   5.783
10213TIP3    H130580   7.819   0.962   5.871
10213TIP3    H230581   7.843   0.928   5.726
10214TIP3   OH230582   7.955   1.116   6.271
10214TIP3    H130583   8.037   1.133   6.225
10214TIP3    H230584   7.965   1.159   6.356
10215TIP3   OH230585   8.002   1.285   6.482
10215TIP3    H130586   7.930   1.329   6.526
10215TIP3    H230587   8.061   1.355   6.456
10216TIP3   OH230588   0.966   5.092   0.300
10216TIP3    H130589   1.009   5.157   0.357
10216TIP3    H230590   0.985   5.008   0.341
10217TIP3   OH230591   6.401   0.945   6.702
10217TIP3    H130592   6.452   0.992   6.636
10217TIP3    H230593   6.448   0.960   6.784
10218TIP3   OH230594   7.555   2.176   5.700
10218TIP3    H130595   7.612   2.168   5.624
10218TIP3    H230596   7.594   2.246   5.753
10219TIP3   OH230597   0.920   6.028   0.059
10219TIP3    H130598   0.827   6.008   0.053
10219TIP3    H230599   0.943   6.010   0.150
10220TIP3   OH230600   6.859   2.015   6.632
10220TIP3    H130601   6.806   2.088   6.600
10220TIP3    H230602   6.944   2.026   6.589
10221TIP3   OH230603   7.269   2.252   6.770
10221TIP3    H130604   7.307   2.250   6.858
10221TIP3    H230605   7.331   2.304   6.719
10222TIP3   OH230606   7.456   2.405   6.636
10222TIP3    H130607   7.523   2.348   6.598
10222TIP3    H230608   7.505   2.466   6.690
10223TIP3   OH230609   6.521   2.261   6.678
10223TIP3    H130610   6.430   2.279   6.654
10223TIP3    H230611   6.542   2.328   6.744
10224TIP3   OH230612   6.750   2.246   6.526
10224TIP3    H130613   6.668   2.253   6.574
10224TIP3    H230614   6.729   2.274   6.437
10225TIP3   OH230615   7.171   2.267   6.317
10225TIP3    H130616   7.099   2.280   6.256
10225TIP3    H230617   7.183   2.352   6.359
10226TIP3   OH230618   7.436   2.201   6.364
10226TIP3    H130619   7.344   2.222   6.348
10226TIP3    H230620   7.485   2.273   6.322
10227TIP3   OH230621   7.637   2.383   6.270
10227TIP3    H130622   7.631   2.469   6.229
10227TIP3    H230623   7.666   2.325   6.199
10228TIP3   OH230624   6.434   2.043   6.395
10228TIP3    H130625   6.455   2.017   6.484
10228TIP3    H230626   6.507   2.010   6.342
10229TIP3   OH230627   6.637   1.927   6.257
10229TIP3    H130628   6.647   1.844   6.304
10229TIP3    H230629   6.723   1.967   6.261
10230TIP3   OH230630   6.904   2.013   6.279
10230TIP3    H130631   6.923   1.920   6.266
10230TIP3    H230632   6.956   2.038   6.355
10231TIP3   OH230633   6.204   1.836   5.784
10231TIP3    H130634   6.119   1.803   5.755
10231TIP3    H230635   6.207   1.927   5.753
10232TIP3   OH230636   6.999   1.997   5.375
10232TIP3    H130637   7.084   2.024   5.340
10232TIP3    H230638   6.971   1.925   5.319
10233TIP3   OH230639   7.709   2.133   5.472
10233TIP3    H130640   7.699   2.038   5.465
10233TIP3    H230641   7.664   2.168   5.395
10234TIP3   OH230642   6.290   1.835   5.434
10234TIP3    H130643   6.293   1.855   5.527
10234TIP3    H230644   6.374   1.792   5.416
10235TIP3   OH230645   7.910   2.270   6.666
10235TIP3    H130646   7.838   2.238   6.612
10235TIP3    H230647   7.898   2.364   6.669
10236TIP3   OH230648   8.510   1.953   5.913
10236TIP3    H130649   8.490   1.860   5.911
10236TIP3    H230650   8.577   1.962   5.981
10237TIP3   OH230651   8.260   1.249   5.675
10237TIP3    H130652   8.168   1.271   5.658
10237TIP3    H230653   8.282   1.185   5.608
10238TIP3   OH230654   8.235   1.460   5.865
10238TIP3    H130655   8.273   1.376   5.891
10238TIP3    H230656   8.257   1.469   5.772
10239TIP3   OH230657   8.361   1.215   5.927
10239TIP3    H130658   8.450   1.180   5.924
10239TIP3    H230659   8.329   1.207   5.837
10240TIP3   OH230660   0.026   2.001   6.181
10240TIP3    H130661   0.032   2.094   6.159
10240TIP3    H230662  -0.053   1.994   6.234
10241TIP3   OH230663   8.066   1.705   5.404
10241TIP3    H130664   8.024   1.724   5.320
10241TIP3    H230665   8.085   1.792   5.441
10242TIP3   OH230666   0.076   2.268   6.429
10242TIP3    H130667   0.092   2.241   6.338
10242TIP3    H230668  -0.019   2.264   6.439
10243TIP3   OH230669   8.241   1.780   6.346
10243TIP3    H130670   8.171   1.786   6.281
10243TIP3    H230671   8.242   1.687   6.372
10244TIP3   OH230672   8.103   2.021   6.002
10244TIP3    H130673   8.193   2.046   6.021
10244TIP3    H230674   8.051   2.098   6.026
10245TIP3   OH230675   8.287   2.191   5.512
10245TIP3    H130676   8.330   2.178   5.596
10245TIP3    H230677   8.237   2.110   5.498
10246TIP3   OH230678   8.386   2.017   6.323
10246TIP3    H130679   8.363   2.038   6.414
10246TIP3    H230680   8.346   1.931   6.308
10247TIP3   OH230681   8.300   1.040   5.499
10247TIP3    H130682   8.265   1.050   5.410
10247TIP3    H230683   8.227   1.006   5.550
10248TIP3   OH230684   8.505   1.673   5.909
10248TIP3    H130685   8.501   1.657   5.814
10248TIP3    H230686   8.592   1.642   5.934
10249TIP3   OH230687   8.141   1.330   5.173
10249TIP3    H130688   8.199   1.401   5.202
10249TIP3    H230689   8.069   1.330   5.236
10250TIP3   OH230690   8.511   2.272   5.368
10250TIP3    H130691   8.428   2.246   5.407
10250TIP3    H230692   8.555   2.190   5.346
10251TIP3   OH230693   8.299   2.208   6.125
10251TIP3    H130694   8.332   2.148   6.192
10251TIP3    H230695   8.297   2.293   6.168
10252TIP3   OH230696   8.263   1.553   5.273
10252TIP3    H130697   8.207   1.594   5.339
10252TIP3    H230698   8.286   1.625   5.214
10253TIP3   OH230699   8.274   1.773   5.094
10253TIP3    H130700   8.295   1.852   5.144
10253TIP3    H230701   8.311   1.789   5.007
10254TIP3   OH230702   8.195   1.075   5.253
10254TIP3    H130703   8.181   1.163   5.220
10254TIP3    H230704   8.120   1.024   5.220
10255TIP3   OH230705   8.107   1.972   5.486
10255TIP3    H130706   8.064   2.011   5.562
10255TIP3    H230707   8.066   2.014   5.410
10256TIP3   OH230708   8.306   2.474   6.541
10256TIP3    H130709   8.373   2.452   6.605
10256TIP3    H230710   8.255   2.394   6.531
10257TIP3   OH230711   8.004   1.700   5.111
10257TIP3    H130712   8.098   1.716   5.108
10257TIP3    H230713   7.994   1.612   5.075
10258TIP3   OH230714   7.915   2.288   5.562
10258TIP3    H130715   7.848   2.235   5.519
10258TIP3    H230716   7.957   2.228   5.623
10259TIP3   OH230717   8.052   2.121   5.733
10259TIP3    H130718   8.040   2.056   5.803
10259TIP3    H230719   8.107   2.188   5.772
10260TIP3   OH230720   8.255   1.594   6.096
10260TIP3    H130721   8.236   1.546   6.015
10260TIP3    H230722   8.341   1.634   6.080
10261TIP3   OH230723   8.191   1.197   6.145
10261TIP3    H130724   8.255   1.207   6.075
10261TIP3    H230725   8.205   1.273   6.202
10262TIP3   OH230726   0.061   2.268   6.139
10262TIP3    H130727   0.003   2.336   6.106
10262TIP3    H230728   0.147   2.311   6.146
10263TIP3   OH230729   8.285   2.492   6.183
10263TIP3    H130730   8.198   2.511   6.148
10263TIP3    H230731   8.303   2.562   6.244
10264TIP3   OH230732   8.512   2.469   6.037
10264TIP3    H130733   8.433   2.474   6.091
10264TIP3    H230734   8.485   2.502   5.952
10265TIP3   OH230735   8.232   2.295   5.867
10265TIP3    H130736   8.246   2.273   5.959
10265TIP3    H230737   8.307   2.257   5.821
10266TIP3   OH230738   8.438   2.160   5.747
10266TIP3    H130739   8.451   2.085   5.804
10266TIP3    H230740   8.525   2.178   5.711
10267TIP3   OH230741   8.003   2.085   5.258
10267TIP3    H130742   7.916   2.055   5.232
10267TIP3    H230743   8.003   2.178   5.236
10268TIP3   OH230744   8.067   2.079   4.935
10268TIP3    H130745   8.062   2.101   5.028
10268TIP3    H230746   8.147   2.027   4.927
10269TIP3   OH230747   4.507   6.492   0.078
10269TIP3    H130748   4.483   6.583   0.058
10269TIP3    H230749   4.438   6.440   0.037
10270TIP3   OH230750   4.494   6.524   0.436
10270TIP3    H130751   4.573   6.498   0.483
10270TIP3    H230752   4.466   6.444   0.391
10271TIP3   OH230753   4.756   6.790   0.156
10271TIP3    H130754   4.795   6.721   0.210
10271TIP3    H230755   4.806   6.868   0.177
10272TIP3   OH230756   3.803   6.800   0.482
10272TIP3    H130757   3.831   6.711   0.504
10272TIP3    H230758   3.727   6.816   0.537
10273TIP3   OH230759   3.483   6.322   0.576
10273TIP3    H130760   3.563   6.271   0.565
10273TIP3    H230761   3.428   6.296   0.502
10274TIP3   OH230762   4.434   7.258   0.151
10274TIP3    H130763   4.477   7.194   0.094
10274TIP3    H230764   4.384   7.205   0.213
10275TIP3   OH230765   4.363   6.761   0.388
10275TIP3    H130766   4.416   6.682   0.382
10275TIP3    H230767   4.414   6.820   0.445
10276TIP3   OH230768   4.627   6.220   0.529
10276TIP3    H130769   4.675   6.143   0.560
10276TIP3    H230770   4.644   6.223   0.435
10277TIP3   OH230771   4.066   5.919   0.484
10277TIP3    H130772   4.006   5.968   0.540
10277TIP3    H230773   4.018   5.839   0.462
10278TIP3   OH230774   4.769   6.002   0.098
10278TIP3    H130775   4.823   6.008   0.177
10278TIP3    H230776   4.830   6.017   0.026
10279TIP3   OH230777   4.117   6.255   0.451
10279TIP3    H130778   4.210   6.274   0.444
10279TIP3    H230779   4.104   6.174   0.402
10280TIP3   OH230780   1.522   2.652   6.971
10280TIP3    H130781   1.503   2.641   6.878
10280TIP3    H230782   1.482   2.735   6.994
10281TIP3   OH230783   4.063   6.694   0.798
10281TIP3    H130784   4.050   6.749   0.721
10281TIP3    H230785   4.156   6.705   0.820
10282TIP3   OH230786   4.949   6.030   0.319
10282TIP3    H130787   4.952   6.028   0.414
10282TIP3    H230788   5.012   6.099   0.295
10283TIP3   OH230789   3.394   6.506   0.012
10283TIP3    H130790   3.331   6.510  -0.060
10283TIP3    H230791   3.406   6.597   0.039
10284TIP3   OH230792   4.845   7.049   0.229
10284TIP3    H130793   4.760   7.042   0.272
10284TIP3    H230794   4.843   7.134   0.186
10285TIP3   OH230795   1.665   3.027   6.980
10285TIP3    H130796   1.713   2.945   6.967
10285TIP3    H230797   1.726   3.095   6.953
10286TIP3   OH230798   1.807   2.802   6.920
10286TIP3    H130799   1.800   2.723   6.867
10286TIP3    H230800   1.835   2.771   7.006
10287TIP3   OH230801   5.062   6.932   0.628
10287TIP3    H130802   5.067   6.870   0.555
10287TIP3    H230803   4.985   6.986   0.609
10288TIP3   OH230804   1.480   2.292   6.924
10288TIP3    H130805   1.397   2.329   6.894
10288TIP3    H230806   1.536   2.292   6.846
10289TIP3   OH230807   1.444   2.082   6.645
10289TIP3    H130808   1.509   2.135   6.691
10289TIP3    H230809   1.495   2.025   6.588
10290TIP3   OH230810   5.248   6.590   0.417
10290TIP3    H130811   5.162   6.614   0.451
10290TIP3    H230812   5.250   6.628   0.329
10291TIP3   OH230813   1.826   2.377   6.902
10291TIP3    H130814   1.779   2.401   6.982
10291TIP3    H230815   1.911   2.345   6.932
10292TIP3   OH230816   4.958   6.455   0.798
10292TIP3    H130817   4.921   6.514   0.863
10292TIP3    H230818   4.891   6.387   0.786
10293TIP3   OH230819   3.882   6.344   0.336
10293TIP3    H130820   3.900   6.393   0.256
10293TIP3    H230821   3.968   6.324   0.372
10294TIP3   OH230822   4.106   6.851   0.342
10294TIP3    H130823   4.047   6.776   0.345
10294TIP3    H230824   4.193   6.813   0.328
10295TIP3   OH230825   4.075   6.422   0.668
10295TIP3    H130826   4.093   6.347   0.611
10295TIP3    H230827   4.151   6.426   0.727
10296TIP3   OH230828   4.610   7.052   0.357
10296TIP3    H130829   4.593   7.146   0.365
10296TIP3    H230830   4.555   7.012   0.424
10297TIP3   OH230831   1.667   2.239   6.728
10297TIP3    H130832   1.726   2.297   6.776
10297TIP3    H230833   1.692   2.249   6.637
10298TIP3   OH230834   1.416   2.907   7.007
10298TIP3    H130835   1.499   2.956   7.004
10298TIP3    H230836   1.354   2.962   6.960
10299TIP3   OH230837   2.176   1.459   6.761
10299TIP3    H130838   2.101   1.486   6.815
10299TIP3    H230839   2.200   1.538   6.712
10300TIP3   OH230840   3.873   6.307   0.042
10300TIP3    H130841   3.831   6.393   0.051
10300TIP3    H230842   3.807   6.246   0.075
10301TIP3   OH230843   2.000   2.839   6.349
10301TIP3    H130844   1.999   2.932   6.329
10301TIP3    H230845   2.088   2.810   6.326
10302TIP3   OH230846   3.368   6.848   0.713
10302TIP3    H130847   3.311   6.772   0.699
10302TIP3    H230848   3.427   6.822   0.783
10303TIP3   OH230849   5.281   7.222   0.786
10303TIP3    H130850   5.298   7.158   0.716
10303TIP3    H230851   5.195   7.258   0.766
10304TIP3   OH230852   4.367   7.056   0.820
10304TIP3    H130853   4.311   7.121   0.863
10304TIP3    H230854   4.326   6.972   0.840
10305TIP3   OH230855   1.303   3.139   6.824
10305TIP3    H130856   1.253   3.120   6.745
10305TIP3    H230857   1.269   3.224   6.853
10306TIP3   OH230858   3.630   7.086   0.098
10306TIP3    H130859   3.680   7.067   0.177
10306TIP3    H230860   3.593   7.002   0.071
10307TIP3   OH230861   1.508   3.061   6.452
10307TIP3    H130862   1.558   2.987   6.417
10307TIP3    H230863   1.540   3.071   6.542
10308TIP3   OH230864   1.555   3.105   6.723
10308TIP3    H130865   1.468   3.112   6.762
10308TIP3    H230866   1.609   3.067   6.793
10309TIP3   OH230867   5.226   6.360   0.984
10309TIP3    H130868   5.214   6.438   0.929
10309TIP3    H230869   5.140   6.347   1.025
10310TIP3   OH230870   1.741   2.238   6.469
10310TIP3    H130871   1.706   2.227   6.381
10310TIP3    H230872   1.825   2.282   6.456
10311TIP3   OH230873   1.457   1.659   6.778
10311TIP3    H130874   1.434   1.658   6.871
10311TIP3    H230875   1.421   1.578   6.743
10312TIP3   OH230876   3.874   6.013   0.294
10312TIP3    H130877   3.808   5.985   0.357
10312TIP3    H230878   3.895   5.934   0.244
10313TIP3   OH230879   1.629   2.097   7.039
10313TIP3    H130880   1.584   2.170   6.997
10313TIP3    H230881   1.695   2.069   6.975
10314TIP3   OH230882   4.616   6.209   0.256
10314TIP3    H130883   4.581   6.208   0.167
10314TIP3    H230884   4.639   6.118   0.274
10315TIP3   OH230885   1.098   1.630   6.743
10315TIP3    H130886   1.097   1.599   6.833
10315TIP3    H230887   1.029   1.695   6.739
10316TIP3   OH230888   4.664   6.463   0.655
10316TIP3    H130889   4.737   6.424   0.608
10316TIP3    H230890   4.615   6.388   0.690
10317TIP3   OH230891   4.381   5.968   0.397
10317TIP3    H130892   4.304   6.017   0.366
10317TIP3    H230893   4.345   5.884   0.425
10318TIP3   OH230894   1.160   1.936   7.045
10318TIP3    H130895   1.249   1.925   7.010
10318TIP3    H230896   1.107   1.957   6.968
10319TIP3   OH230897   4.791   6.008   0.593
10319TIP3    H130898   4.786   5.925   0.640
10319TIP3    H230899   4.763   5.987   0.504
10320TIP3   OH230900   0.963   1.943   6.862
10320TIP3    H130901   0.892   1.890   6.826
10320TIP3    H230902   1.021   1.961   6.787
10321TIP3   OH230903   5.051   7.733   0.771
10321TIP3    H130904   5.019   7.714   0.683
10321TIP3    H230905   5.042   7.828   0.781
10322TIP3   OH230906   4.384   6.267   0.410
10322TIP3    H130907   4.436   6.237   0.335
10322TIP3    H230908   4.438   6.247   0.486
10323TIP3   OH230909   1.260   2.403   6.807
10323TIP3    H130910   1.183   2.352   6.782
10323TIP3    H230911   1.229   2.461   6.875
10324TIP3   OH230912   4.974   6.814   0.396
10324TIP3    H130913   5.013   6.836   0.312
10324TIP3    H230914   4.936   6.728   0.383
10325TIP3   OH230915   1.678   1.795   6.691
10325TIP3    H130916   1.599   1.759   6.731
10325TIP3    H230917   1.695   1.876   6.740
10326TIP3   OH230918   1.793   2.008   6.829
10326TIP3    H130919   1.887   2.008   6.844
10326TIP3    H230920   1.776   2.089   6.781
10327TIP3   OH230921   3.863   6.542   0.542
10327TIP3    H130922   3.886   6.537   0.449
10327TIP3    H230923   3.927   6.486   0.585
10328TIP3   OH230924   1.422   2.600   6.705
10328TIP3    H130925   1.368   2.678   6.714
10328TIP3    H230926   1.368   2.530   6.742
10329TIP3   OH230927   4.638   7.110   0.716
10329TIP3    H130928   4.584   7.045   0.761
10329TIP3    H230929   4.692   7.148   0.786
10330TIP3   OH230930   2.184   2.089   6.678
10330TIP3    H130931   2.130   2.055   6.606
10330TIP3    H230932   2.201   2.180   6.654
10331TIP3   OH230933   5.325   6.959   0.688
10331TIP3    H130934   5.230   6.946   0.690
10331TIP3    H230935   5.348   6.948   0.596
10332TIP3   OH230936   1.924   2.914   6.614
10332TIP3    H130937   1.900   2.846   6.677
10332TIP3    H230938   1.944   2.866   6.533
10333TIP3   OH230939   4.832   6.580   0.362
10333TIP3    H130940   4.846   6.531   0.443
10333TIP3    H230941   4.832   6.514   0.293
10334TIP3   OH230942   3.911   6.826   0.089
10334TIP3    H130943   3.922   6.915   0.058
10334TIP3    H230944   3.824   6.825   0.129
10335TIP3   OH230945   0.564   2.061   6.906
10335TIP3    H130946   0.635   2.125   6.910
10335TIP3    H230947   0.484   2.112   6.922
10336TIP3   OH230948   4.039   6.615  -0.020
10336TIP3    H130949   4.013   6.699   0.018
10336TIP3    H230950   4.076   6.566   0.053
10337TIP3   OH230951   4.189   7.188   0.547
10337TIP3    H130952   4.262   7.250   0.549
10337TIP3    H230953   4.181   7.158   0.638
10338TIP3   OH230954   3.880   7.081  -0.011
10338TIP3    H130955   3.789   7.093   0.017
10338TIP3    H230956   3.919   7.168  -0.001
10339TIP3   OH230957   4.562   6.820   0.705
10339TIP3    H130958   4.587   6.757   0.773
10339TIP3    H230959   4.617   6.797   0.630
10340TIP3   OH230960   1.680   2.646   6.519
10340TIP3    H130961   1.738   2.628   6.592
10340TIP3    H230962   1.592   2.625   6.551
10341TIP3   OH230963   4.794   7.320   0.609
10341TIP3    H130964   4.721   7.259   0.610
10341TIP3    H230965   4.769   7.387   0.546
10342TIP3   OH230966   2.004   3.119   6.309
10342TIP3    H130967   1.993   3.156   6.221
10342TIP3    H230968   1.934   3.159   6.360
10343TIP3   OH230969   1.850   2.588   6.726
10343TIP3    H130970   1.838   2.515   6.786
10343TIP3    H230971   1.943   2.586   6.704
10344TIP3   OH230972   1.040   2.615   6.521
10344TIP3    H130973   1.056   2.525   6.492
10344TIP3    H230974   1.027   2.606   6.616
10345TIP3   OH230975   0.987   2.618   6.795
10345TIP3    H130976   1.045   2.595   6.868
10345TIP3    H230977   0.986   2.714   6.795
10346TIP3   OH230978   0.714   2.284   6.923
10346TIP3    H130979   0.668   2.335   6.989
10346TIP3    H230980   0.754   2.350   6.866
10347TIP3   OH230981   1.780   1.742   6.955
10347TIP3    H130982   1.769   1.780   6.868
10347TIP3    H230983   1.797   1.817   7.012
10348TIP3   OH230984   1.260   2.816   6.724
10348TIP3    H130985   1.170   2.828   6.753
10348TIP3    H230986   1.279   2.894   6.672
10349TIP3   OH230987   4.300   5.969   0.042
10349TIP3    H130988   4.366   6.034   0.019
10349TIP3    H230989   4.260   6.002   0.122
10350TIP3   OH230990   4.402   5.600   0.228
10350TIP3    H130991   4.417   5.644   0.311
10350TIP3    H230992   4.488   5.599   0.186
10351TIP3   OH230993   0.998   2.890   6.778
10351TIP3    H130994   0.974   2.956   6.713
10351TIP3    H230995   1.003   2.938   6.861
10352TIP3   OH230996   3.984   5.618  -0.020
10352TIP3    H130997   3.942   5.679   0.041
10352TIP3    H230998   4.078   5.627  -0.002
10353TIP3   OH230999   5.214   6.195   0.767
10353TIP3    H131000   5.210   6.120   0.828
10353TIP3    H231001   5.225   6.271   0.824
10354TIP3   OH231002   4.856   6.345   0.227
10354TIP3    H131003   4.776   6.297   0.247
10354TIP3    H231004   4.924   6.300   0.278
10355TIP3   OH231005   0.733   2.513   6.755
10355TIP3    H131006   0.806   2.569   6.783
10355TIP3    H231007   0.771   2.457   6.687
10356TIP3   OH231008   0.696   1.808   6.908
10356TIP3    H131009   0.651   1.891   6.915
10356TIP3    H231010   0.629   1.742   6.925
10357TIP3   OH231011   4.841   7.316   0.166
10357TIP3    H131012   4.785   7.376   0.116
10357TIP3    H231013   4.930   7.342   0.143
10358TIP3   OH231014   3.391   6.763   0.089
10358TIP3    H131015   3.408   6.816   0.167
10358TIP3    H231016   3.379   6.827   0.019
10359TIP3   OH231017   1.197   2.813   6.410
10359TIP3    H131018   1.149   2.743   6.454
10359TIP3    H231019   1.270   2.768   6.367
10360TIP3   OH231020   4.699   7.334   1.113
10360TIP3    H131021   4.790   7.311   1.132
10360TIP3    H231022   4.702   7.373   1.026
10361TIP3   OH231023   1.638   2.850   6.334
10361TIP3    H131024   1.670   2.784   6.395
10361TIP3    H231025   1.695   2.842   6.257
10362TIP3   OH231026   0.854   2.317   6.608
10362TIP3    H131027   0.903   2.286   6.684
10362TIP3    H231028   0.920   2.336   6.542
10363TIP3   OH231029   1.384   2.529   6.441
10363TIP3    H131030   1.387   2.547   6.535
10363TIP3    H231031   1.379   2.433   6.435
10364TIP3   OH231032   4.832   6.761   0.706
10364TIP3    H131033   4.905   6.786   0.649
10364TIP3    H231034   4.819   6.837   0.763
10365TIP3   OH231035   1.036   2.242   6.794
10365TIP3    H131036   1.025   2.239   6.889
10365TIP3    H231037   1.082   2.161   6.773
10366TIP3   OH231038   1.173   2.025   6.692
10366TIP3    H131039   1.147   2.042   6.602
10366TIP3    H231040   1.268   2.036   6.692
10367TIP3   OH231041   1.967   2.360   6.369
10367TIP3    H131042   1.957   2.316   6.284
10367TIP3    H231043   1.940   2.450   6.353
10368TIP3   OH231044   4.904   6.666   0.966
10368TIP3    H131045   4.860   6.750   0.979
10368TIP3    H231046   4.977   6.686   0.908
10369TIP3   OH231047   0.987   3.102   6.604
10369TIP3    H131048   1.080   3.089   6.584
10369TIP3    H231049   0.954   3.151   6.529
10370TIP3   OH231050   0.461   2.486   6.746
10370TIP3    H131051   0.554   2.502   6.761
10370TIP3    H231052   0.456   2.392   6.725
10371TIP3   OH231053   3.260   7.111   0.185
10371TIP3    H131054   3.175   7.123   0.144
10371TIP3    H231055   3.240   7.098   0.278
10372TIP3   OH231056   3.294   6.999   0.487
10372TIP3    H131057   3.325   6.968   0.572
10372TIP3    H231058   3.232   7.069   0.508
10373TIP3   OH231059   5.090   7.417   0.129
10373TIP3    H131060   5.104   7.441   0.221
10373TIP3    H231061   5.177   7.423   0.089
10374TIP3   OH231062   5.103   7.465   0.399
10374TIP3    H131063   5.054   7.383   0.406
10374TIP3    H231064   5.188   7.446   0.438
10375TIP3   OH231065   5.152   7.118   1.185
10375TIP3    H131066   5.090   7.176   1.141
10375TIP3    H231067   5.234   7.131   1.137
10376TIP3   OH231068   2.122   2.574   6.681
10376TIP3    H131069   2.187   2.636   6.649
10376TIP3    H231070   2.155   2.546   6.766
10377TIP3   OH231071   2.215   2.476   6.913
10377TIP3    H131072   2.171   2.395   6.940
10377TIP3    H231073   2.304   2.467   6.948
10378TIP3   OH231074   5.145   6.866   0.193
10378TIP3    H131075   5.211   6.806   0.158
10378TIP3    H231076   5.165   6.950   0.154
10379TIP3   OH231077   4.979   7.222   0.417
10379TIP3    H131078   4.916   7.219   0.488
10379TIP3    H231079   4.945   7.160   0.352
10380TIP3   OH231080   2.173   2.335   6.549
10380TIP3    H131081   2.101   2.335   6.486
10380TIP3    H231082   2.160   2.414   6.601
10381TIP3   OH231083   2.030   1.989   6.473
10381TIP3    H131084   1.978   2.016   6.398
10381TIP3    H231085   2.029   1.894   6.470
10382TIP3   OH231086   2.060   2.261   6.990
10382TIP3    H131087   2.079   2.168   6.977
10382TIP3    H231088   2.045   2.270   7.084
10383TIP3   OH231089   5.132   6.726   0.832
10383TIP3    H131090   5.201   6.662   0.818
10383TIP3    H231091   5.166   6.785   0.900
10384TIP3   OH231092   5.591   6.567   0.958
10384TIP3    H131093   5.503   6.603   0.973
10384TIP3    H231094   5.576   6.476   0.935
10385TIP3   OH231095   2.002   1.714   6.447
10385TIP3    H131096   2.064   1.692   6.517
10385TIP3    H231097   1.920   1.672   6.473
10386TIP3   OH231098   2.073   1.992   6.906
10386TIP3    H131099   2.119   1.910   6.922
10386TIP3    H231100   2.117   2.031   6.831
10387TIP3   OH231101   5.108   6.245   0.307
10387TIP3    H131102   5.190   6.267   0.264
10387TIP3    H231103   5.119   6.276   0.397
10388TIP3   OH231104   5.153   6.366   0.545
10388TIP3    H131105   5.154   6.375   0.640
10388TIP3    H231106   5.198   6.444   0.513
10389TIP3   OH231107   2.191   1.749   6.947
10389TIP3    H131108   2.228   1.727   7.033
10389TIP3    H231109   2.121   1.686   6.934
10390TIP3   OH231110   2.229   1.677   6.603
10390TIP3    H131111   2.279   1.617   6.548
10390TIP3    H231112   2.286   1.753   6.612
10391TIP3   OH231113   1.810   3.229   6.879
10391TIP3    H131114   1.868   3.216   6.803
10391TIP3    H231115   1.847   3.305   6.924
10392TIP3   OH231116   3.782   7.102   0.797
10392TIP3    H131117   3.776   7.192   0.766
10392TIP3    H231118   3.829   7.055   0.728
10393TIP3   OH231119   4.393   7.314   0.952
10393TIP3    H131120   4.397   7.373   1.028
10393TIP3    H231121   4.453   7.352   0.888
10394TIP3   OH231122   4.629   7.423   0.851
10394TIP3    H131123   4.708   7.416   0.797
10394TIP3    H231124   4.640   7.505   0.899
10395TIP3   OH231125   5.315   5.941   0.835
10395TIP3    H131126   5.256   5.966   0.907
10395TIP3    H231127   5.348   5.855   0.861
10396TIP3   OH231128   3.699   7.357   0.697
10396TIP3    H131129   3.739   7.435   0.658
10396TIP3    H231130   3.679   7.300   0.623
10397TIP3   OH231131   4.320   7.441   0.427
10397TIP3    H131132   4.262   7.419   0.355
10397TIP3    H231133   4.262   7.461   0.500
10398TIP3   OH231134   4.561   7.308   0.427
10398TIP3    H131135   4.479   7.343   0.391
10398TIP3    H231136   4.628   7.370   0.400
10399TIP3   OH231137   4.768   7.478   0.382
10399TIP3    H131138   4.770   7.568   0.350
10399TIP3    H231139   4.804   7.426   0.310
10400TIP3   OH231140   3.439   7.223   0.642
10400TIP3    H131141   3.448   7.174   0.724
10400TIP3    H231142   3.511   7.193   0.588
10401TIP3   OH231143   3.802   7.022   0.302
10401TIP3    H131144   3.810   6.940   0.351
10401TIP3    H231145   3.891   7.057   0.299
10402TIP3   OH231146   4.056   7.121   0.311
10402TIP3    H131147   4.079   7.034   0.280
10402TIP3    H231148   4.125   7.143   0.374
10403TIP3   OH231149   4.557   5.731   0.470
10403TIP3    H131150   4.539   5.722   0.564
10403TIP3    H231151   4.645   5.696   0.459
10404TIP3   OH231152   5.124   5.644   0.404
10404TIP3    H131153   5.158   5.658   0.315
10404TIP3    H231154   5.029   5.648   0.394
10405TIP3   OH231155   5.209   5.773   0.160
10405TIP3    H131156   5.265   5.708   0.117
10405TIP3    H231157   5.240   5.857   0.129
10406TIP3   OH231158   4.168   5.496   0.350
10406TIP3    H131159   4.237   5.563   0.346
10406TIP3    H231160   4.175   5.461   0.439
10407TIP3   OH231161   4.825   5.675   0.436
10407TIP3    H131162   4.845   5.721   0.355
10407TIP3    H231163   4.822   5.582   0.411
10408TIP3   OH231164   1.986   1.572   6.921
10408TIP3    H131165   1.906   1.623   6.935
10408TIP3    H231166   1.971   1.489   6.966
10409TIP3   OH231167   0.475   2.881   6.905
10409TIP3    H131168   0.397   2.842   6.866
10409TIP3    H231169   0.461   2.976   6.897
10410TIP3   OH231170   4.244   5.699   0.023
10410TIP3    H131171   4.295   5.656   0.092
10410TIP3    H231172   4.264   5.792   0.033
10411TIP3   OH231173   1.250   3.040   6.552
10411TIP3    H131174   1.334   3.068   6.514
10411TIP3    H231175   1.222   2.968   6.496
10412TIP3   OH231176   1.961   3.181   6.648
10412TIP3    H131177   1.952   3.085   6.643
10412TIP3    H231178   1.909   3.213   6.574
10413TIP3   OH231179   0.544   2.872   6.629
10413TIP3    H131180   0.552   2.885   6.723
10413TIP3    H231181   0.626   2.830   6.603
10414TIP3   OH231182   5.041   7.324   0.713
10414TIP3    H131183   4.954   7.329   0.675
10414TIP3    H231184   5.083   7.407   0.688
10415TIP3   OH231185   3.447   2.703   6.583
10415TIP3    H131186   3.418   2.791   6.559
10415TIP3    H231187   3.373   2.646   6.559
10416TIP3   OH231188   3.431   2.695   6.995
10416TIP3    H131189   3.483   2.677   7.073
10416TIP3    H231190   3.393   2.610   6.972
10417TIP3   OH231191   5.600   6.607   0.272
10417TIP3    H131192   5.620   6.536   0.333
10417TIP3    H231193   5.685   6.627   0.231
10418TIP3   OH231194   3.701   3.006   6.681
10418TIP3    H131195   3.700   2.938   6.748
10418TIP3    H231196   3.739   3.082   6.725
10419TIP3   OH231197   5.592   7.055   0.032
10419TIP3    H131198   5.581   6.960   0.027
10419TIP3    H231199   5.686   7.069   0.025
10420TIP3   OH231200   2.476   2.459   7.003
10420TIP3    H131201   2.529   2.399   7.056
10420TIP3    H231202   2.500   2.439   6.912
10421TIP3   OH231203   3.366   3.436   6.688
10421TIP3    H131204   3.395   3.373   6.623
10421TIP3    H231205   3.372   3.389   6.771
10422TIP3   OH231206   3.247   2.914   7.022
10422TIP3    H131207   3.289   2.835   6.988
10422TIP3    H231208   3.320   2.972   7.043
10423TIP3   OH231209   4.280   2.244   7.024
10423TIP3    H131210   4.301   2.325   7.072
10423TIP3    H231211   4.302   2.264   6.933
10424TIP3   OH231212   6.527   6.466   0.025
10424TIP3    H131213   6.566   6.382   0.049
10424TIP3    H231214   6.485   6.450  -0.059
10425TIP3   OH231215   3.025   2.080   6.995
10425TIP3    H131216   2.990   2.146   6.936
10425TIP3    H231217   2.987   1.998   6.965
10426TIP3   OH231218   3.713   2.170   6.642
10426TIP3    H131219   3.777   2.161   6.713
10426TIP3    H231220   3.763   2.205   6.568
10427TIP3   OH231221   5.517   6.324   0.086
10427TIP3    H131222   5.602   6.290   0.112
10427TIP3    H231223   5.511   6.309  -0.008
10428TIP3   OH231224   3.060   2.474   6.937
10428TIP3    H131225   3.154   2.458   6.937
10428TIP3    H231226   3.022   2.394   6.901
10429TIP3   OH231227   7.210   6.513   0.167
10429TIP3    H131228   7.131   6.564   0.150
10429TIP3    H231229   7.251   6.556   0.242
10430TIP3   OH231230   5.893   6.124   0.407
10430TIP3    H131231   5.828   6.158   0.347
10430TIP3    H231232   5.854   6.135   0.494
10431TIP3   OH231233   3.343   2.922   6.443
10431TIP3    H131234   3.303   2.895   6.360
10431TIP3    H231235   3.291   2.997   6.471
10432TIP3   OH231236   5.955   6.896   0.214
10432TIP3    H131237   5.896   6.968   0.239
10432TIP3    H231238   6.006   6.931   0.142
10433TIP3   OH231239   3.881   2.178   6.855
10433TIP3    H131240   3.838   2.158   6.938
10433TIP3    H231241   3.935   2.255   6.874
10434TIP3   OH231242   5.767   6.246   0.188
10434TIP3    H131243   5.829   6.317   0.205
10434TIP3    H231244   5.807   6.196   0.117
10435TIP3   OH231245   5.783   7.092   0.294
10435TIP3    H131246   5.774   7.176   0.249
10435TIP3    H231247   5.703   7.084   0.346
10436TIP3   OH231248   2.311   2.746   6.573
10436TIP3    H131249   2.282   2.768   6.485
10436TIP3    H231250   2.344   2.829   6.608
10437TIP3   OH231251   3.745   3.259   6.819
10437TIP3    H131252   3.655   3.248   6.851
10437TIP3    H231253   3.744   3.343   6.773
10438TIP3   OH231254   6.940   6.174   0.150
10438TIP3    H131255   6.857   6.212   0.122
10438TIP3    H231256   7.005   6.213   0.091
10439TIP3   OH231257   6.247   5.860   0.125
10439TIP3    H131258   6.241   5.778   0.075
10439TIP3    H231259   6.158   5.874   0.157
10440TIP3   OH231260   3.460   3.290   6.469
10440TIP3    H131261   3.510   3.209   6.461
10440TIP3    H231262   3.522   3.359   6.446
10441TIP3   OH231263   3.592   3.055   6.432
10441TIP3    H131264   3.521   2.991   6.430
10441TIP3    H231265   3.641   3.033   6.512
10442TIP3   OH231266   6.850   7.200   0.135
10442TIP3    H131267   6.849   7.121   0.081
10442TIP3    H231268   6.847   7.272   0.072
10443TIP3   OH231269   3.272   2.544   6.430
10443TIP3    H131270   3.190   2.589   6.412
10443TIP3    H231271   3.321   2.547   6.348
10444TIP3   OH231272   3.236   2.348   6.131
10444TIP3    H131273   3.300   2.394   6.185
10444TIP3    H231274   3.287   2.282   6.084
10445TIP3   OH231275   4.166   2.764   7.004
10445TIP3    H131276   4.087   2.817   6.993
10445TIP3    H231277   4.237   2.827   7.007
10446TIP3   OH231278   3.631   2.626   6.395
10446TIP3    H131279   3.577   2.657   6.468
10446TIP3    H231280   3.715   2.604   6.436
10447TIP3   OH231281   6.725   6.709   0.288
10447TIP3    H131282   6.739   6.795   0.328
10447TIP3    H231283   6.636   6.714   0.251
10448TIP3   OH231284   2.861   2.619   6.800
10448TIP3    H131285   2.818   2.561   6.737
10448TIP3    H231286   2.930   2.566   6.839
10449TIP3   OH231287   2.991   3.040   6.948
10449TIP3    H131288   2.967   3.017   6.858
10449TIP3    H231289   3.077   2.999   6.961
10450TIP3   OH231290   5.837   6.655   0.141
10450TIP3    H131291   5.870   6.620   0.058
10450TIP3    H231292   5.883   6.738   0.152
10451TIP3   OH231293   3.498   3.247   6.939
10451TIP3    H131294   3.497   3.322   6.999
10451TIP3    H231295   3.494   3.171   6.997
10452TIP3   OH231296   5.993   7.224   0.422
10452TIP3    H131297   5.940   7.297   0.453
10452TIP3    H231298   5.929   7.160   0.391
10453TIP3   OH231299   3.464   2.486   6.228
10453TIP3    H131300   3.524   2.543   6.276
10453TIP3    H231301   3.490   2.497   6.136
10454TIP3   OH231302   5.816   6.740   0.438
10454TIP3    H131303   5.868   6.795   0.380
10454TIP3    H231304   5.729   6.781   0.439
10455TIP3   OH231305   3.211   3.165   6.484
10455TIP3    H131306   3.294   3.214   6.488
10455TIP3    H231307   3.152   3.224   6.437
10456TIP3   OH231308   5.818   7.432   0.473
10456TIP3    H131309   5.788   7.417   0.384
10456TIP3    H231310   5.748   7.399   0.529
10457TIP3   OH231311   3.989   1.705   6.281
10457TIP3    H131312   3.911   1.724   6.333
10457TIP3    H231313   4.000   1.782   6.225
10458TIP3   OH231314   2.735   2.471   6.594
10458TIP3    H131315   2.653   2.506   6.558
10458TIP3    H231316   2.706   2.398   6.650
10459TIP3   OH231317   3.793   3.089   5.836
10459TIP3    H131318   3.789   3.183   5.816
10459TIP3    H231319   3.882   3.064   5.815
10460TIP3   OH231320   5.284   6.869   0.429
10460TIP3    H131321   5.236   6.876   0.346
10460TIP3    H231322   5.281   6.776   0.451
10461TIP3   OH231323   5.268   7.102   0.122
10461TIP3    H131324   5.357   7.081   0.094
10461TIP3    H231325   5.279   7.171   0.187
10462TIP3   OH231326   7.087   7.570   0.197
10462TIP3    H131327   7.093   7.475   0.198
10462TIP3    H231328   7.008   7.590   0.246
10463TIP3   OH231329   6.201   7.348   0.304
10463TIP3    H131330   6.189   7.438   0.335
10463TIP3    H231331   6.130   7.299   0.346
10464TIP3   OH231332   3.095   3.394   6.309
10464TIP3    H131333   3.053   3.373   6.226
10464TIP3    H231334   3.061   3.480   6.332
10465TIP3   OH231335   2.533   3.249   6.688
10465TIP3    H131336   2.583   3.241   6.769
10465TIP3    H231337   2.490   3.164   6.678
10466TIP3   OH231338   3.301   3.317   5.940
10466TIP3    H131339   3.352   3.245   5.903
10466TIP3    H231340   3.338   3.330   6.027
10467TIP3   OH231341   3.351   3.368   6.212
10467TIP3    H131342   3.264   3.372   6.250
10467TIP3    H231343   3.406   3.329   6.280
10468TIP3   OH231344   6.967   6.675   0.480
10468TIP3    H131345   6.907   6.673   0.405
10468TIP3    H231346   6.999   6.585   0.488
10469TIP3   OH231347   5.554   7.119   0.445
10469TIP3    H131348   5.581   7.155   0.530
10469TIP3    H231349   5.548   7.024   0.461
10470TIP3   OH231350   6.010   5.927   0.249
10470TIP3    H131351   5.933   5.904   0.197
10470TIP3    H231352   5.979   5.997   0.307
10471TIP3   OH231353   6.524   6.085   0.537
10471TIP3    H131354   6.598   6.024   0.542
10471TIP3    H231355   6.460   6.041   0.482
10472TIP3   OH231356   6.738   6.451   0.380
10472TIP3    H131357   6.707   6.447   0.470
10472TIP3    H231358   6.723   6.542   0.353
10473TIP3   OH231359   3.535   2.485   5.963
10473TIP3    H131360   3.502   2.479   5.873
10473TIP3    H231361   3.617   2.533   5.955
10474TIP3   OH231362   3.257   1.896   6.277
10474TIP3    H131363   3.225   1.902   6.367
10474TIP3    H231364   3.216   1.817   6.242
10475TIP3   OH231365   5.936   6.444   0.288
10475TIP3    H131366   5.877   6.440   0.363
10475TIP3    H231367   5.910   6.524   0.241
10476TIP3   OH231368   2.919   2.264   6.826
10476TIP3    H131369   2.823   2.275   6.831
10476TIP3    H231370   2.933   2.216   6.745
10477TIP3   OH231371   3.408   2.346   6.566
10477TIP3    H131372   3.358   2.417   6.525
10477TIP3    H231373   3.464   2.313   6.496
10478TIP3   OH231374   6.511   6.667   0.526
10478TIP3    H131375   6.464   6.660   0.609
10478TIP3    H231376   6.599   6.695   0.551
10479TIP3   OH231377   3.565   2.356   6.795
10479TIP3    H131378   3.502   2.381   6.728
10479TIP3    H231379   3.612   2.281   6.758
10480TIP3   OH231380   5.740   6.455   0.475
10480TIP3    H131381   5.752   6.550   0.482
10480TIP3    H231382   5.729   6.426   0.565
10481TIP3   OH231383   2.909   1.879   6.245
10481TIP3    H131384   2.906   1.879   6.341
10481TIP3    H231385   2.834   1.933   6.219
10482TIP3   OH231386   5.307   6.003   0.061
10482TIP3    H131387   5.383   6.028   0.114
10482TIP3    H231388   5.334   6.019  -0.029
10483TIP3   OH231389   2.388   1.906   6.623
10483TIP3    H131390   2.443   1.945   6.555
10483TIP3    H231391   2.334   1.979   6.654
10484TIP3   OH231392   6.454   6.667   0.190
10484TIP3    H131393   6.487   6.602   0.129
10484TIP3    H231394   6.419   6.616   0.263
10485TIP3   OH231395   3.285   2.077   6.888
10485TIP3    H131396   3.204   2.074   6.939
10485TIP3    H231397   3.355   2.070   6.953
10486TIP3   OH231398   2.948   2.129   6.592
10486TIP3    H131399   3.039   2.150   6.572
10486TIP3    H231400   2.900   2.148   6.511
10487TIP3   OH231401   6.608   6.204   0.071
10487TIP3    H131402   6.589   6.216   0.164
10487TIP3    H231403   6.535   6.150   0.039
10488TIP3   OH231404   2.817   2.157   6.350
10488TIP3    H131405   2.745   2.118   6.301
10488TIP3    H231406   2.868   2.205   6.285
10489TIP3   OH231407   6.795   7.908   0.296
10489TIP3    H131408   6.796   7.919   0.201
10489TIP3    H231409   6.875   7.952   0.326
10490TIP3   OH231410   5.839   7.082   0.636
10490TIP3    H131411   5.915   7.079   0.694
10490TIP3    H231412   5.793   7.163   0.661
10491TIP3   OH231413   3.335   2.426   6.970
10491TIP3    H131414   3.400   2.377   6.920
10491TIP3    H231415   3.335   2.387   7.057
10492TIP3   OH231416   2.915   1.858   6.889
10492TIP3    H131417   2.843   1.796   6.904
10492TIP3    H231418   2.992   1.802   6.874
10493TIP3   OH231419   6.188   6.390   0.205
10493TIP3    H131420   6.103   6.423   0.232
10493TIP3    H231421   6.250   6.434   0.264
10494TIP3   OH231422   3.036   2.685   6.372
10494TIP3    H131423   2.964   2.625   6.354
10494TIP3    H231424   3.016   2.723   6.457
10495TIP3   OH231425   3.934   2.926   6.989
10495TIP3    H131426   3.968   2.975   6.914
10495TIP3    H231427   3.851   2.889   6.957
10496TIP3   OH231428   3.479   2.035   6.199
10496TIP3    H131429   3.400   1.996   6.236
10496TIP3    H231430   3.502   2.106   6.259
10497TIP3   OH231431   6.326   7.071   0.350
10497TIP3    H131432   6.370   7.041   0.429
10497TIP3    H231433   6.295   7.159   0.372
10498TIP3   OH231434   3.568   2.252   6.350
10498TIP3    H131435   3.663   2.258   6.366
10498TIP3    H231436   3.547   2.333   6.303
10499TIP3   OH231437   2.738   2.731   7.024
10499TIP3    H131438   2.768   2.699   6.938
10499TIP3    H231439   2.772   2.666   7.086
10500TIP3   OH231440   3.192   2.844   6.214
10500TIP3    H131441   3.146   2.927   6.213
10500TIP3    H231442   3.137   2.786   6.267
10501TIP3   OH231443   5.553   6.614   0.613
10501TIP3    H131444   5.521   6.651   0.695
10501TIP3    H231445   5.528   6.522   0.617
10502TIP3   OH231446   6.237   6.853   0.567
10502TIP3    H131447   6.172   6.783   0.569
10502TIP3    H231448   6.320   6.808   0.555
10503TIP3   OH231449   6.469   7.356   0.239
10503TIP3    H131450   6.374   7.345   0.246
10503TIP3    H231451   6.492   7.403   0.319
10504TIP3   OH231452   3.988   2.349   6.175
10504TIP3    H131453   3.932   2.302   6.113
10504TIP3    H231454   3.992   2.438   6.141
10505TIP3   OH231455   7.103   7.295   0.211
10505TIP3    H131456   7.013   7.263   0.217
10505TIP3    H231457   7.147   7.232   0.154
10506TIP3   OH231458   3.715   3.164   6.100
10506TIP3    H131459   3.692   3.094   6.161
10506TIP3    H231460   3.735   3.119   6.018
10507TIP3   OH231461   3.695   2.802   6.887
10507TIP3    H131462   3.604   2.779   6.904
10507TIP3    H231463   3.734   2.722   6.851
10508TIP3   OH231464   2.854   3.037   6.695
10508TIP3    H131465   2.853   3.114   6.639
10508TIP3    H231466   2.762   3.012   6.704
10509TIP3   OH231467   2.400   2.325   6.393
10509TIP3    H131468   2.454   2.400   6.419
10509TIP3    H231469   2.328   2.325   6.456
10510TIP3   OH231470   2.955   2.794   6.605
10510TIP3    H131471   2.937   2.882   6.636
10510TIP3    H231472   2.927   2.736   6.677
10511TIP3   OH231473   6.005   7.415   0.109
10511TIP3    H131474   6.041   7.492   0.063
10511TIP3    H231475   6.079   7.380   0.159
10512TIP3   OH231476   2.768   3.268   6.543
10512TIP3    H131477   2.681   3.272   6.584
10512TIP3    H231478   2.799   3.358   6.544
10513TIP3   OH231479   6.362   7.072   0.079
10513TIP3    H131480   6.353   7.069   0.175
10513TIP3    H231481   6.442   7.022   0.061
10514TIP3   OH231482   3.478   2.900   5.997
10514TIP3    H131483   3.535   2.873   6.069
10514TIP3    H231484   3.390   2.872   6.025
10515TIP3   OH231485   6.612   7.583   0.146
10515TIP3    H131486   6.544   7.515   0.152
10515TIP3    H231487   6.585   7.636   0.070
10516TIP3   OH231488   3.794   3.364   5.798
10516TIP3    H131489   3.805   3.419   5.720
10516TIP3    H231490   3.724   3.407   5.848
10517TIP3   OH231491   5.795   6.135   0.670
10517TIP3    H131492   5.714   6.085   0.670
10517TIP3    H231493   5.861   6.073   0.702
10518TIP3   OH231494   3.655   2.810   6.185
10518TIP3    H131495   3.640   2.758   6.264
10518TIP3    H231496   3.750   2.819   6.179
10519TIP3   OH231497   5.413   7.294   0.271
10519TIP3    H131498   5.471   7.228   0.309
10519TIP3    H231499   5.400   7.359   0.340
10520TIP3   OH231500   2.836   2.868   6.000
10520TIP3    H131501   2.847   2.777   5.975
10520TIP3    H231502   2.816   2.866   6.093
10521TIP3   OH231503   2.777   2.882   6.272
10521TIP3    H131504   2.847   2.850   6.330
10521TIP3    H231505   2.780   2.977   6.282
10522TIP3   OH231506   2.506   2.572   6.472
10522TIP3    H131507   2.443   2.615   6.529
10522TIP3    H231508   2.525   2.637   6.404
10523TIP3   OH231509   6.551   6.264   0.331
10523TIP3    H131510   6.627   6.321   0.345
10523TIP3    H231511   6.547   6.210   0.410
10524TIP3   OH231512   3.573   1.957   6.541
10524TIP3    H131513   3.536   1.992   6.461
10524TIP3    H231514   3.617   2.031   6.582
10525TIP3   OH231515   3.048   3.073   6.214
10525TIP3    H131516   2.964   3.096   6.252
10525TIP3    H231517   3.069   3.146   6.156
10526TIP3   OH231518   3.227   2.148   6.626
10526TIP3    H131519   3.287   2.220   6.606
10526TIP3    H231520   3.239   2.132   6.720
10527TIP3   OH231521   6.379   6.478   0.381
10527TIP3    H131522   6.428   6.534   0.441
10527TIP3    H231523   6.436   6.402   0.368
10528TIP3   OH231524   3.377   1.868   6.728
10528TIP3    H131525   3.361   1.946   6.781
10528TIP3    H231526   3.448   1.894   6.669
10529TIP3   OH231527   2.796   3.153   6.294
10529TIP3    H131528   2.777   3.222   6.231
10529TIP3    H231529   2.787   3.195   6.380
10530TIP3   OH231530   2.893   1.858   6.520
10530TIP3    H131531   2.874   1.939   6.568
10530TIP3    H231532   2.986   1.843   6.534
10531TIP3   OH231533   7.007   6.410   0.371
10531TIP3    H131534   6.912   6.404   0.378
10531TIP3    H231535   7.024   6.427   0.279
10532TIP3   OH231536   3.792   2.546   6.798
10532TIP3    H131537   3.715   2.490   6.811
10532TIP3    H231538   3.860   2.506   6.851
10533TIP3   OH231539   2.527   2.762   6.265
10533TIP3    H131540   2.600   2.823   6.276
10533TIP3    H231541   2.560   2.695   6.204
10534TIP3   OH231542   2.450   2.048   6.392
10534TIP3    H131543   2.472   2.140   6.406
10534TIP3    H231544   2.357   2.048   6.372
10535TIP3   OH231545   3.766   3.529   6.736
10535TIP3    H131546   3.723   3.585   6.671
10535TIP3    H231547   3.860   3.545   6.723
10536TIP3   OH231548   5.741   5.870   0.177
10536TIP3    H131549   5.707   5.842   0.092
10536TIP3    H231550   5.727   5.795   0.235
10537TIP3   OH231551   2.375   3.015   6.654
10537TIP3    H131552   2.323   3.046   6.728
10537TIP3    H231553   2.331   3.051   6.577
10538TIP3   OH231554   5.469   7.620   0.560
10538TIP3    H131555   5.495   7.624   0.652
10538TIP3    H231556   5.432   7.533   0.549
10539TIP3   OH231557   5.966   7.566   0.659
10539TIP3    H131558   6.040   7.505   0.655
10539TIP3    H231559   5.909   7.539   0.588
10540TIP3   OH231560   2.991   3.071   5.894
10540TIP3    H131561   2.945   2.998   5.936
10540TIP3    H231562   3.066   3.029   5.851
10541TIP3   OH231563   6.516   7.491   0.473
10541TIP3    H131564   6.510   7.414   0.530
10541TIP3    H231565   6.598   7.534   0.500
10542TIP3   OH231566   3.431   3.108   5.818
10542TIP3    H131567   3.468   3.044   5.879
10542TIP3    H231568   3.489   3.105   5.742
10543TIP3   OH231569   5.506   6.873   1.032
10543TIP3    H131570   5.601   6.885   1.030
10543TIP3    H231571   5.470   6.962   1.031
10544TIP3   OH231572   2.656   2.566   6.124
10544TIP3    H131573   2.705   2.541   6.202
10544TIP3    H231574   2.722   2.580   6.057
10545TIP3   OH231575   6.166   7.116   0.601
10545TIP3    H131576   6.102   7.143   0.535
10545TIP3    H231577   6.189   7.027   0.577
10546TIP3   OH231578   3.192   2.788   5.944
10546TIP3    H131579   3.181   2.801   6.039
10546TIP3    H231580   3.179   2.693   5.933
10547TIP3   OH231581   6.635   7.132   0.288
10547TIP3    H131582   6.711   7.161   0.238
10547TIP3    H231583   6.567   7.197   0.270
10548TIP3   OH231584   5.769   6.778   0.994
10548TIP3    H131585   5.722   6.701   0.960
10548TIP3    H231586   5.821   6.744   1.067
10549TIP3   OH231587   2.831   2.503   6.334
10549TIP3    H131588   2.806   2.479   6.423
10549TIP3    H231589   2.873   2.425   6.299
10550TIP3   OH231590   6.060   6.640   0.534
10550TIP3    H131591   5.967   6.665   0.537
10550TIP3    H231592   6.086   6.657   0.444
10551TIP3   OH231593   2.963   2.311   6.176
10551TIP3    H131594   2.934   2.321   6.086
10551TIP3    H231595   3.058   2.320   6.173
10552TIP3   OH231596   6.501   7.018   0.638
10552TIP3    H131597   6.590   7.025   0.606
10552TIP3    H231598   6.508   6.965   0.718
10553TIP3   OH231599   3.762   2.608   5.859
10553TIP3    H131600   3.753   2.568   5.773
10553TIP3    H231601   3.737   2.699   5.846
10554TIP3   OH231602   6.161   6.403   0.606
10554TIP3    H131603   6.168   6.345   0.531
10554TIP3    H231604   6.130   6.486   0.570
10555TIP3   OH231605   6.147   6.215   0.411
10555TIP3    H131606   6.157   6.260   0.328
10555TIP3    H231607   6.057   6.184   0.411
10556TIP3   OH231608   6.152   6.718   0.293
10556TIP3    H131609   6.239   6.753   0.277
10556TIP3    H231610   6.092   6.787   0.263
10557TIP3   OH231611   6.746   6.739   0.659
10557TIP3    H131612   6.817   6.684   0.693
10557TIP3    H231613   6.787   6.794   0.592
10558TIP3   OH231614   6.789   6.946   0.412
10558TIP3    H131615   6.729   7.008   0.370
10558TIP3    H231616   6.874   6.963   0.371
10559TIP3   OH231617   5.935   6.535   0.966
10559TIP3    H131618   5.872   6.469   0.993
10559TIP3    H231619   5.896   6.574   0.888
10560TIP3   OH231620   6.311   6.001   0.383
10560TIP3    H131621   6.265   6.085   0.391
10560TIP3    H231622   6.250   5.945   0.336
10561TIP3   OH231623   6.394   6.348   0.749
10561TIP3    H131624   6.392   6.404   0.827
10561TIP3    H231625   6.319   6.378   0.697
10562TIP3   OH231626   6.633   6.390   0.620
10562TIP3    H131627   6.547   6.371   0.659
10562TIP3    H231628   6.695   6.356   0.685
10563TIP3   OH231629   6.934   6.331   0.700
10563TIP3    H131630   6.894   6.248   0.729
10563TIP3    H231631   6.910   6.394   0.768
10564TIP3   OH231632   5.763   6.339   1.020
10564TIP3    H131633   5.808   6.255   1.006
10564TIP3    H231634   5.698   6.319   1.087
10565TIP3   OH231635   6.316   5.854   0.836
10565TIP3    H131636   6.406   5.830   0.817
10565TIP3    H231637   6.297   5.926   0.775
10566TIP3   OH231638   6.366   6.135   1.017
10566TIP3    H131639   6.413   6.126   0.934
10566TIP3    H231640   6.297   6.200   0.998
10567TIP3   OH231641   2.785   3.355   6.109
10567TIP3    H131642   2.875   3.343   6.081
10567TIP3    H231643   2.743   3.401   6.037
10568TIP3   OH231644   2.255   2.747   6.286
10568TIP3    H131645   2.349   2.761   6.280
10568TIP3    H231646   2.242   2.659   6.250
10569TIP3   OH231647   2.173   3.331   6.721
10569TIP3    H131648   2.098   3.279   6.694
10569TIP3    H231649   2.216   3.278   6.789
10570TIP3   OH231650   2.305   3.173   6.903
10570TIP3    H131651   2.292   3.107   6.971
10570TIP3    H231652   2.361   3.239   6.944
10571TIP3   OH231653   4.025   3.617   6.716
10571TIP3    H131654   4.060   3.620   6.806
10571TIP3    H231655   4.102   3.625   6.660
10572TIP3   OH231656   4.070   3.604   6.996
10572TIP3    H131657   4.019   3.523   6.989
10572TIP3    H231658   4.137   3.584   7.061
10573TIP3   OH231659   6.962   7.361   0.537
10573TIP3    H131660   6.893   7.370   0.603
10573TIP3    H231661   7.013   7.442   0.545
10574TIP3   OH231662   3.934   2.813   6.183
10574TIP3    H131663   3.992   2.883   6.155
10574TIP3    H231664   3.978   2.776   6.260
10575TIP3   OH231665   4.061   2.671   6.385
10575TIP3    H131666   3.996   2.638   6.447
10575TIP3    H231667   4.129   2.710   6.440
10576TIP3   OH231668   4.059   3.063   6.791
10576TIP3    H131669   4.134   3.005   6.781
10576TIP3    H231670   4.079   3.139   6.736
10577TIP3   OH231671   3.922   3.371   7.003
10577TIP3    H131672   3.854   3.401   7.063
10577TIP3    H231673   3.874   3.323   6.935
10578TIP3   OH231674   3.975   2.586   6.033
10578TIP3    H131675   3.902   2.587   5.971
10578TIP3    H231676   3.961   2.664   6.087
10579TIP3   OH231677   3.837   2.234   5.978
10579TIP3    H131678   3.788   2.274   5.906
10579TIP3    H231679   3.827   2.139   5.964
10580TIP3   OH231680   3.858   2.536   6.529
10580TIP3    H131681   3.869   2.441   6.521
10580TIP3    H231682   3.841   2.550   6.622
10581TIP3   OH231683   5.353   6.688   0.185
10581TIP3    H131684   5.347   6.644   0.100
10581TIP3    H231685   5.443   6.676   0.213
10582TIP3   OH231686   7.041   6.994   0.303
10582TIP3    H131687   7.103   6.929   0.333
10582TIP3    H231688   7.075   7.023   0.219
10583TIP3   OH231689   7.200   6.804   0.407
10583TIP3    H131690   7.124   6.762   0.446
10583TIP3    H231691   7.265   6.733   0.400
10584TIP3   OH231692   3.796   1.960   5.940
10584TIP3    H131693   3.853   1.938   6.014
10584TIP3    H231694   3.711   1.923   5.965
10585TIP3   OH231695   3.853   2.251   6.410
10585TIP3    H131696   3.898   2.168   6.421
10585TIP3    H231697   3.899   2.294   6.338
10586TIP3   OH231698   4.004   2.414   6.932
10586TIP3    H131699   4.084   2.438   6.885
10586TIP3    H231700   4.016   2.452   7.019
10587TIP3   OH231701   6.945   6.614   0.139
10587TIP3    H131702   6.867   6.648   0.182
10587TIP3    H231703   6.977   6.687   0.086
10588TIP3   OH231704   5.483   6.314   0.917
10588TIP3    H131705   5.521   6.262   0.988
10588TIP3    H231706   5.392   6.328   0.944
10589TIP3   OH231707   7.470   6.277   0.622
10589TIP3    H131708   7.504   6.190   0.598
10589TIP3    H231709   7.407   6.297   0.554
10590TIP3   OH231710   3.968   2.000   6.457
10590TIP3    H131711   4.014   1.988   6.540
10590TIP3    H231712   3.907   1.927   6.452
10591TIP3   OH231713   5.523   6.038   0.222
10591TIP3    H131714   5.600   5.990   0.191
10591TIP3    H231715   5.557   6.100   0.286
10592TIP3   OH231716   5.367   6.349   0.306
10592TIP3    H131717   5.420   6.334   0.227
10592TIP3    H231718   5.344   6.441   0.302
10593TIP3   OH231719   7.267   6.342   0.460
10593TIP3    H131720   7.200   6.395   0.501
10593TIP3    H231721   7.219   6.281   0.403
10594TIP3   OH231722   4.020   1.916   6.102
10594TIP3    H131723   4.066   1.855   6.045
10594TIP3    H231724   4.076   1.993   6.106
10595TIP3   OH231725   2.447   1.742   6.830
10595TIP3    H131726   2.361   1.744   6.872
10595TIP3    H231727   2.442   1.810   6.763
10596TIP3   OH231728   3.615   3.492   6.373
10596TIP3    H131729   3.654   3.464   6.291
10596TIP3    H231730   3.670   3.565   6.402
10597TIP3   OH231731   5.663   7.319   0.662
10597TIP3    H131732   5.615   7.246   0.701
10597TIP3    H231733   5.733   7.337   0.725
10598TIP3   OH231734   5.763   7.354   0.217
10598TIP3    H131735   5.713   7.431   0.189
10598TIP3    H231736   5.850   7.368   0.182
10599TIP3   OH231737   6.171   7.613   0.382
10599TIP3    H131738   6.208   7.611   0.470
10599TIP3    H231739   6.235   7.661   0.330
10600TIP3   OH231740   6.374   7.761   0.270
10600TIP3    H131741   6.438   7.701   0.232
10600TIP3    H231742   6.425   7.818   0.327
10601TIP3   OH231743   7.156   6.117   0.348
10601TIP3    H131744   7.072   6.124   0.303
10601TIP3    H231745   7.178   6.024   0.343
10602TIP3   OH231746   5.430   7.614   0.287
10602TIP3    H131747   5.347   7.661   0.277
10602TIP3    H231748   5.453   7.623   0.379
10603TIP3   OH231749   5.666   7.601   0.153
10603TIP3    H131750   5.584   7.608   0.202
10603TIP3    H231751   5.645   7.634   0.066
10604TIP3   OH231752   3.218   3.575   6.976
10604TIP3    H131753   3.148   3.587   6.912
10604TIP3    H231754   3.227   3.660   7.018
10605TIP3   OH231755   3.482   3.510   7.035
10605TIP3    H131756   3.391   3.527   7.011
10605TIP3    H231757   3.532   3.578   6.989
10606TIP3   OH231758   3.692   3.690   6.946
10606TIP3    H131759   3.673   3.773   6.901
10606TIP3    H231760   3.721   3.631   6.876
10607TIP3   OH231761   5.349   7.405   0.027
10607TIP3    H131762   5.373   7.386   0.118
10607TIP3    H231763   5.421   7.371  -0.025
10608TIP3   OH231764   2.685   3.233   6.915
10608TIP3    H131765   2.695   3.151   6.964
10608TIP3    H231766   2.773   3.272   6.916
10609TIP3   OH231767   2.953   3.317   6.928
10609TIP3    H131768   2.969   3.224   6.916
10609TIP3    H231769   3.011   3.343   7.000
10610TIP3   OH231770   3.527   1.993   7.014
10610TIP3    H131771   3.477   1.929   7.065
10610TIP3    H231772   3.591   1.940   6.967
10611TIP3   OH231773   4.016   1.868   6.910
10611TIP3    H131774   4.049   1.924   6.840
10611TIP3    H231775   3.923   1.888   6.916
10612TIP3   OH231776   4.130   1.955   6.675
10612TIP3    H131777   4.200   1.896   6.650
10612TIP3    H231778   4.167   2.043   6.663
10613TIP3   OH231779   2.736   1.679   7.001
10613TIP3    H131780   2.643   1.657   6.993
10613TIP3    H231781   2.781   1.595   7.002
10614TIP3   OH231782   2.550   1.550   6.660
10614TIP3    H131783   2.588   1.604   6.591
10614TIP3    H231784   2.520   1.614   6.726
10615TIP3   OH231785   3.170   1.743   6.877
10615TIP3    H131786   3.233   1.795   6.828
10615TIP3    H231787   3.222   1.674   6.918
10616TIP3   OH231788   3.732   1.846   6.900
10616TIP3    H131789   3.726   1.816   6.809
10616TIP3    H231790   3.719   1.766   6.951
10617TIP3   OH231791   3.786   1.785   6.462
10617TIP3    H131792   3.707   1.834   6.485
10617TIP3    H231793   3.776   1.700   6.505
10618TIP3   OH231794   2.249   3.138   6.439
10618TIP3    H131795   2.167   3.116   6.395
10618TIP3    H231796   2.231   3.221   6.484
10619TIP3   OH231797   2.675   1.697   6.444
10619TIP3    H131798   2.723   1.640   6.384
10619TIP3    H231799   2.741   1.755   6.481
10620TIP3   OH231800   3.172   1.893   6.538
10620TIP3    H131801   3.228   1.847   6.601
10620TIP3    H231802   3.177   1.985   6.564
10621TIP3   OH231803   3.045   3.295   6.040
10621TIP3    H131804   3.128   3.324   6.003
10621TIP3    H231805   3.016   3.225   5.982
10622TIP3   OH231806   3.748   3.432   6.139
10622TIP3    H131807   3.742   3.337   6.128
10622TIP3    H231808   3.705   3.467   6.060
10623TIP3   OH231809   5.839   5.833   0.970
10623TIP3    H131810   5.826   5.811   1.063
10623TIP3    H231811   5.861   5.926   0.972
10624TIP3   OH231812   6.124   5.974   0.971
10624TIP3    H131813   6.203   5.939   0.931
10624TIP3    H231814   6.155   6.028   1.044
10625TIP3   OH231815   2.345   3.140   6.121
10625TIP3    H131816   2.353   3.120   6.215
10625TIP3    H231817   2.423   3.102   6.082
10626TIP3   OH231818   6.925   6.058   0.761
10626TIP3    H131819   6.949   6.077   0.852
10626TIP3    H231820   7.006   6.072   0.712
10627TIP3   OH231821   6.838   7.634   0.301
10627TIP3    H131822   6.763   7.601   0.252
10627TIP3    H231823   6.822   7.728   0.309
10628TIP3   OH231824   5.245   2.951   6.073
10628TIP3    H131825   5.219   3.040   6.048
10628TIP3    H231826   5.170   2.897   6.046
10629TIP3   OH231827   5.233   2.949   6.488
10629TIP3    H131828   5.285   2.934   6.567
10629TIP3    H231829   5.191   2.865   6.470
10630TIP3   OH231830   4.530   2.846   6.821
10630TIP3    H131831   4.571   2.776   6.871
10630TIP3    H231832   4.516   2.916   6.885
10631TIP3   OH231833   5.501   3.257   6.162
10631TIP3    H131834   5.497   3.191   6.232
10631TIP3    H231835   5.533   3.336   6.205
10632TIP3   OH231836   4.521   3.237   6.532
10632TIP3    H131837   4.507   3.143   6.540
10632TIP3    H231838   4.616   3.246   6.524
10633TIP3   OH231839   4.218   2.443   6.316
10633TIP3    H131840   4.185   2.529   6.342
10633TIP3    H231841   4.144   2.399   6.275
10634TIP3   OH231842   4.300   2.752   6.507
10634TIP3    H131843   4.347   2.680   6.549
10634TIP3    H231844   4.367   2.818   6.492
10635TIP3   OH231845   5.138   3.741   6.149
10635TIP3    H131846   5.169   3.675   6.086
10635TIP3    H231847   5.155   3.702   6.235
10636TIP3   OH231848   5.045   3.175   6.499
10636TIP3    H131849   5.087   3.094   6.469
10636TIP3    H231850   5.118   3.231   6.527
10637TIP3   OH231851   6.075   2.497   6.515
10637TIP3    H131852   6.093   2.579   6.560
10637TIP3    H231853   6.094   2.515   6.423
10638TIP3   OH231854   5.457   2.665   6.534
10638TIP3    H131855   5.493   2.581   6.560
10638TIP3    H231856   5.421   2.650   6.446
10639TIP3   OH231857   4.811   2.326   6.496
10639TIP3    H131858   4.791   2.401   6.440
10639TIP3    H231859   4.754   2.256   6.464
10640TIP3   OH231860   5.505   2.422   6.127
10640TIP3    H131861   5.570   2.415   6.197
10640TIP3    H231862   5.555   2.458   6.053
10641TIP3   OH231863   4.430   2.540   6.628
10641TIP3    H131864   4.513   2.527   6.674
10641TIP3    H231865   4.438   2.488   6.548
10642TIP3   OH231866   4.876   2.736   6.398
10642TIP3    H131867   4.967   2.714   6.418
10642TIP3    H231868   4.835   2.653   6.375
10643TIP3   OH231869   6.133   2.711   6.686
10643TIP3    H131870   6.053   2.762   6.668
10643TIP3    H231871   6.174   2.756   6.759
10644TIP3   OH231872   4.791   2.324   6.945
10644TIP3    H131873   4.741   2.362   6.873
10644TIP3    H231874   4.738   2.341   7.023
10645TIP3   OH231875   5.148   3.169   5.929
10645TIP3    H131876   5.105   3.145   5.848
10645TIP3    H231877   5.097   3.243   5.962
10646TIP3   OH231878   4.891   3.099   6.717
10646TIP3    H131879   4.832   3.166   6.752
10646TIP3    H231880   4.936   3.142   6.645
10647TIP3   OH231881   5.673   2.441   6.342
10647TIP3    H131882   5.630   2.421   6.425
10647TIP3    H231883   5.728   2.516   6.362
10648TIP3   OH231884   4.678   2.434   6.718
10648TIP3    H131885   4.731   2.510   6.743
10648TIP3    H231886   4.726   2.394   6.645
10649TIP3   OH231887   4.727   3.298   6.823
10649TIP3    H131888   4.709   3.388   6.793
10649TIP3    H231889   4.649   3.274   6.873
10650TIP3   OH231890   4.108   3.001   6.067
10650TIP3    H131891   4.073   3.020   5.980
10650TIP3    H231892   4.134   3.087   6.101
10651TIP3   OH231893   5.550   3.504   6.294
10651TIP3    H131894   5.466   3.494   6.338
10651TIP3    H231895   5.549   3.592   6.258
10652TIP3   OH231896   5.873   2.372   6.673
10652TIP3    H131897   5.788   2.404   6.644
10652TIP3    H231898   5.935   2.408   6.610
10653TIP3   OH231899   5.134   2.019   6.667
10653TIP3    H131900   5.126   1.927   6.694
10653TIP3    H231901   5.059   2.062   6.709
10654TIP3   OH231902   5.246   3.560   5.959
10654TIP3    H131903   5.295   3.477   5.955
10654TIP3    H231904   5.310   3.626   5.933
10655TIP3   OH231905   5.381   3.325   5.924
10655TIP3    H131906   5.314   3.257   5.916
10655TIP3    H231907   5.434   3.298   5.999
10656TIP3   OH231908   5.068   2.798   5.918
10656TIP3    H131909   4.987   2.845   5.901
10656TIP3    H231910   5.116   2.801   5.835
10657TIP3   OH231911   5.038   2.599   5.619
10657TIP3    H131912   5.102   2.649   5.669
10657TIP3    H231913   5.090   2.535   5.571
10658TIP3   OH231914   5.975   3.056   6.513
10658TIP3    H131915   5.897   3.109   6.527
10658TIP3    H231916   6.008   3.086   6.428
10659TIP3   OH231917   5.428   2.887   5.881
10659TIP3    H131918   5.373   2.914   5.955
10659TIP3    H231919   5.512   2.864   5.920
10660TIP3   OH231920   5.658   2.920   6.820
10660TIP3    H131921   5.661   3.006   6.861
10660TIP3    H231922   5.575   2.919   6.771
10661TIP3   OH231923   4.657   2.871   6.298
10661TIP3    H131924   4.619   2.814   6.231
10661TIP3    H231925   4.736   2.825   6.327
10662TIP3   OH231926   4.788   3.283   6.432
10662TIP3    H131927   4.770   3.268   6.339
10662TIP3    H231928   4.876   3.248   6.445
10663TIP3   OH231929   4.804   2.846   6.644
10663TIP3    H131930   4.835   2.830   6.556
10663TIP3    H231931   4.832   2.935   6.664
10664TIP3   OH231932   5.317   3.496   6.431
10664TIP3    H131933   5.293   3.579   6.474
10664TIP3    H231934   5.296   3.429   6.495
10665TIP3   OH231935   4.926   3.406   6.984
10665TIP3    H131936   4.866   3.465   7.029
10665TIP3    H231937   4.870   3.351   6.929
10666TIP3   OH231938   5.260   2.747   5.713
10666TIP3    H131939   5.319   2.805   5.762
10666TIP3    H231940   5.288   2.756   5.622
10667TIP3   OH231941   7.537   6.998   0.086
10667TIP3    H131942   7.565   7.085   0.116
10667TIP3    H231943   7.442   7.006   0.077
10668TIP3   OH231944   5.016   3.405   5.986
10668TIP3    H131945   5.090   3.465   5.989
10668TIP3    H231946   4.948   3.453   5.938
10669TIP3   OH231947   7.586   7.624   0.047
10669TIP3    H131948   7.561   7.631  -0.045
10669TIP3    H231949   7.504   7.603   0.093
10670TIP3   OH231950   5.770   1.977   5.767
10670TIP3    H131951   5.693   1.997   5.821
10670TIP3    H231952   5.783   2.055   5.713
10671TIP3   OH231953   4.530   2.717   6.088
10671TIP3    H131954   4.455   2.765   6.053
10671TIP3    H231955   4.493   2.634   6.118
10672TIP3   OH231956   5.591   3.350   5.320
10672TIP3    H131957   5.588   3.444   5.301
10672TIP3    H231958   5.681   3.324   5.299
10673TIP3   OH231959   4.180   3.289   6.646
10673TIP3    H131960   4.266   3.252   6.626
10673TIP3    H231961   4.196   3.352   6.717
10674TIP3   OH231962   6.009   3.771   6.695
10674TIP3    H131963   6.019   3.676   6.688
10674TIP3    H231964   5.932   3.783   6.750
10675TIP3   OH231965   5.122   3.540   6.843
10675TIP3    H131966   5.120   3.631   6.872
10675TIP3    H231967   5.052   3.498   6.892
10676TIP3   OH231968   4.878   3.658   5.782
10676TIP3    H131969   4.842   3.631   5.698
10676TIP3    H231970   4.802   3.682   5.834
10677TIP3   OH231971   4.335   3.501   6.174
10677TIP3    H131972   4.375   3.492   6.260
10677TIP3    H231973   4.285   3.420   6.162
10678TIP3   OH231974   5.101   3.578   5.428
10678TIP3    H131975   5.152   3.505   5.392
10678TIP3    H231976   5.134   3.588   5.518
10679TIP3   OH231977   5.140   3.633   5.701
10679TIP3    H131978   5.050   3.643   5.734
10679TIP3    H231979   5.188   3.592   5.773
10680TIP3   OH231980   5.896   2.883   6.996
10680TIP3    H131981   5.820   2.894   6.938
10680TIP3    H231982   5.918   2.790   6.989
10681TIP3   OH231983   4.504   3.282   6.990
10681TIP3    H131984   4.561   3.282   7.067
10681TIP3    H231985   4.451   3.203   7.000
10682TIP3   OH231986   4.900   2.113   6.797
10682TIP3    H131987   4.816   2.082   6.764
10682TIP3    H231988   4.879   2.194   6.844
10683TIP3   OH231989   8.307   6.281  -0.026
10683TIP3    H131990   8.377   6.257   0.035
10683TIP3    H231991   8.226   6.265   0.022
10684TIP3   OH231992   5.663   2.651   6.904
10684TIP3    H131993   5.623   2.649   6.990
10684TIP3    H231994   5.649   2.741   6.872
10685TIP3   OH231995   5.342   2.739   5.451
10685TIP3    H131996   5.297   2.740   5.367
10685TIP3    H231997   5.422   2.788   5.437
10686TIP3   OH231998   5.046   2.154   5.765
10686TIP3    H131999   5.013   2.159   5.855
10686TIP3    H232000   5.011   2.072   5.731
10687TIP3   OH232001   4.837   2.638   6.813
10687TIP3    H132002   4.783   2.654   6.891
10687TIP3    H232003   4.824   2.715   6.758
10688TIP3   OH232004   4.720   2.518   6.325
10688TIP3    H132005   4.630   2.499   6.353
10688TIP3    H232006   4.725   2.481   6.236
10689TIP3   OH232007   5.198   2.594   6.052
10689TIP3    H132008   5.150   2.667   6.012
10689TIP3    H232009   5.257   2.564   5.983
10690TIP3   OH232010   8.249   6.921   0.109
10690TIP3    H132011   8.223   6.853   0.170
10690TIP3    H232012   8.342   6.935   0.126
10691TIP3   OH232013   5.364   2.612   6.282
10691TIP3    H132014   5.296   2.639   6.220
10691TIP3    H232015   5.407   2.538   6.239
10692TIP3   OH232016   7.522   6.724  -0.006
10692TIP3    H132017   7.520   6.801   0.051
10692TIP3    H232018   7.505   6.650   0.053
10693TIP3   OH232019   4.707   2.128   5.736
10693TIP3    H132020   4.701   2.136   5.831
10693TIP3    H232021   4.632   2.177   5.703
10694TIP3   OH232022   4.264   2.177   6.604
10694TIP3    H132023   4.327   2.214   6.666
10694TIP3    H232024   4.305   2.190   6.518
10695TIP3   OH232025   4.178   2.152   6.113
10695TIP3    H132026   4.221   2.190   6.036
10695TIP3    H232027   4.118   2.220   6.142
10696TIP3   OH232028   5.395   2.866   6.706
10696TIP3    H132029   5.423   2.799   6.643
10696TIP3    H232030   5.355   2.816   6.777
10697TIP3   OH232031   5.073   2.310   6.377
10697TIP3    H132032   4.996   2.315   6.434
10697TIP3    H232033   5.147   2.307   6.438
10698TIP3   OH232034   4.479   2.400   6.394
10698TIP3    H132035   4.391   2.404   6.357
10698TIP3    H232036   4.510   2.312   6.373
10699TIP3   OH232037   4.732   2.390   6.082
10699TIP3    H132038   4.826   2.406   6.071
10699TIP3    H232039   4.694   2.411   5.996
10700TIP3   OH232040   5.531   2.400   6.580
10700TIP3    H132041   5.513   2.416   6.673
10700TIP3    H232042   5.461   2.342   6.552
10701TIP3   OH232043   4.613   2.414   5.836
10701TIP3    H132044   4.547   2.371   5.782
10701TIP3    H232045   4.666   2.464   5.774
10702TIP3   OH232046   5.729   4.107   6.811
10702TIP3    H132047   5.723   4.120   6.716
10702TIP3    H232048   5.810   4.152   6.835
10703TIP3   OH232049   7.551   7.273   0.190
10703TIP3    H132050   7.626   7.293   0.245
10703TIP3    H232051   7.485   7.240   0.251
10704TIP3   OH232052   5.133   2.672   6.486
10704TIP3    H132053   5.206   2.626   6.444
10704TIP3    H232054   5.129   2.635   6.574
10705TIP3   OH232055   4.625   2.155   6.370
10705TIP3    H132056   4.595   2.079   6.420
10705TIP3    H232057   4.658   2.119   6.287
10706TIP3   OH232058   5.103   2.583   6.756
10706TIP3    H132059   5.016   2.614   6.777
10706TIP3    H232060   5.162   2.637   6.808
10707TIP3   OH232061   4.833   2.940   5.866
10707TIP3    H132062   4.758   2.884   5.844
10707TIP3    H232063   4.809   2.978   5.951
10708TIP3   OH232064   5.718   3.185   6.498
10708TIP3    H132065   5.758   3.238   6.429
10708TIP3    H232066   5.642   3.144   6.457
10709TIP3   OH232067   5.300   2.256   5.758
10709TIP3    H132068   5.206   2.238   5.758
10709TIP3    H232069   5.306   2.350   5.774
10710TIP3   OH232070   5.237   3.274   6.874
10710TIP3    H132071   5.285   3.270   6.957
10710TIP3    H232072   5.199   3.362   6.872
10711TIP3   OH232073   5.363   2.516   5.835
10711TIP3    H132074   5.458   2.522   5.848
10711TIP3    H232075   5.341   2.595   5.786
10712TIP3   OH232076   4.521   2.949   6.534
10712TIP3    H132077   4.578   2.926   6.461
10712TIP3    H232078   4.564   2.912   6.611
10713TIP3   OH232079   4.987   3.101   5.709
10713TIP3    H132080   4.941   3.185   5.706
10713TIP3    H232081   4.930   3.044   5.761
10714TIP3   OH232082   8.010   7.069   0.153
10714TIP3    H132083   7.940   7.013   0.121
10714TIP3    H232084   8.090   7.030   0.118
10715TIP3   OH232085   5.404   3.548   6.769
10715TIP3    H132086   5.309   3.539   6.766
10715TIP3    H232087   5.422   3.593   6.851
10716TIP3   OH232088   5.784   2.606   5.660
10716TIP3    H132089   5.729   2.559   5.597
10716TIP3    H232090   5.787   2.696   5.627
10717TIP3   OH232091   5.514   3.418   5.586
10717TIP3    H132092   5.484   3.349   5.645
10717TIP3    H232093   5.530   3.374   5.503
10718TIP3   OH232094   5.491   3.057   6.375
10718TIP3    H132095   5.400   3.034   6.393
10718TIP3    H232096   5.529   2.978   6.336
10719TIP3   OH232097   4.645   3.294   6.175
10719TIP3    H132098   4.642   3.372   6.121
10719TIP3    H232099   4.554   3.280   6.203
10720TIP3   OH232100   4.208   2.579   5.884
10720TIP3    H132101   4.253   2.661   5.904
10720TIP3    H232102   4.130   2.580   5.938
10721TIP3   OH232103   4.744   3.047   6.098
10721TIP3    H132104   4.722   3.137   6.122
10721TIP3    H232105   4.717   2.995   6.174
10722TIP3   OH232106   4.929   3.628   6.637
10722TIP3    H132107   4.960   3.707   6.594
10722TIP3    H232108   5.006   3.594   6.683
10723TIP3   OH232109   4.567   3.531   6.024
10723TIP3    H132110   4.482   3.533   6.067
10723TIP3    H232111   4.598   3.621   6.027
10724TIP3   OH232112   5.285   3.275   6.602
10724TIP3    H132113   5.274   3.268   6.697
10724TIP3    H232114   5.363   3.222   6.582
10725TIP3   OH232115   5.275   3.157   5.475
10725TIP3    H132116   5.324   3.130   5.552
10725TIP3    H232117   5.190   3.114   5.484
10726TIP3   OH232118   5.525   3.802   6.676
10726TIP3    H132119   5.480   3.718   6.668
10726TIP3    H232120   5.522   3.839   6.588
10727TIP3   OH232121   5.597   3.624   5.285
10727TIP3    H132122   5.618   3.686   5.215
10727TIP3    H232123   5.525   3.665   5.332
10728TIP3   OH232124   7.489   6.448   0.131
10728TIP3    H132125   7.394   6.459   0.138
10728TIP3    H232126   7.513   6.400   0.210
10729TIP3   OH232127   5.448   3.074   5.672
10729TIP3    H132128   5.432   3.021   5.750
10729TIP3    H232129   5.544   3.080   5.666
10730TIP3   OH232130   4.344   3.481   6.809
10730TIP3    H132131   4.391   3.409   6.852
10730TIP3    H232132   4.368   3.558   6.860
10731TIP3   OH232133   4.633   3.126   5.491
10731TIP3    H132134   4.640   3.035   5.462
10731TIP3    H232135   4.613   3.120   5.584
10732TIP3   OH232136   4.572   3.142   5.762
10732TIP3    H132137   4.640   3.115   5.823
10732TIP3    H232138   4.572   3.238   5.767
10733TIP3   OH232139   4.305   2.829   5.967
10733TIP3    H132140   4.241   2.876   6.021
10733TIP3    H232141   4.324   2.890   5.895
10734TIP3   OH232142   5.475   2.455   6.842
10734TIP3    H132143   5.550   2.503   6.876
10734TIP3    H232144   5.466   2.380   6.901
10735TIP3   OH232145   5.357   2.206   6.030
10735TIP3    H132146   5.338   2.227   5.939
10735TIP3    H232147   5.400   2.285   6.064
10736TIP3   OH232148   4.846   3.334   5.704
10736TIP3    H132149   4.759   3.356   5.735
10736TIP3    H232150   4.865   3.399   5.636
10737TIP3   OH232151   5.012   2.402   6.121
10737TIP3    H132152   5.074   2.471   6.096
10737TIP3    H232153   5.032   2.384   6.213
10738TIP3   OH232154   5.308   2.701   6.909
10738TIP3    H132155   5.331   2.750   6.987
10738TIP3    H232156   5.359   2.620   6.915
10739TIP3   OH232157   5.173   2.103   6.213
10739TIP3    H132158   5.150   2.179   6.266
10739TIP3    H232159   5.242   2.135   6.154
10740TIP3   OH232160   4.593   3.416   5.775
10740TIP3    H132161   4.571   3.486   5.714
10740TIP3    H232162   4.579   3.455   5.862
10741TIP3   OH232163   4.688   2.120   6.015
10741TIP3    H132164   4.675   2.210   6.044
10741TIP3    H232165   4.783   2.106   6.022
10742TIP3   OH232166   5.934   2.618   6.905
10742TIP3    H132167   5.839   2.610   6.904
10742TIP3    H232168   5.960   2.606   6.814
10743TIP3   OH232169   5.589   2.801   6.281
10743TIP3    H132170   5.512   2.746   6.295
10743TIP3    H232171   5.656   2.762   6.337
10744TIP3   OH232172   4.323   3.015   5.757
10744TIP3    H132173   4.393   3.079   5.766
10744TIP3    H232174   4.355   2.953   5.692
10745TIP3   OH232175   4.239   2.301   5.889
10745TIP3    H132176   4.256   2.394   5.898
10745TIP3    H232177   4.173   2.294   5.820
10746TIP3   OH232178   5.569   3.775   6.221
10746TIP3    H132179   5.532   3.838   6.159
10746TIP3    H232180   5.664   3.787   6.213
10747TIP3   OH232181   4.640   2.027   6.753
10747TIP3    H132182   4.607   1.996   6.669
10747TIP3    H232183   4.633   1.951   6.811
10748TIP3   OH232184   4.161   3.275   6.146
10748TIP3    H132185   4.114   3.307   6.223
10748TIP3    H232186   4.117   3.317   6.072
10749TIP3   OH232187   7.215   7.850   0.203
10749TIP3    H132188   7.301   7.849   0.245
10749TIP3    H232189   7.190   7.758   0.197
10750TIP3   OH232190   7.695   7.778   0.247
10750TIP3    H132191   7.788   7.754   0.244
10750TIP3    H232192   7.656   7.729   0.175
10751TIP3   OH232193   4.790   3.323   5.381
10751TIP3    H132194   4.741   3.252   5.422
10751TIP3    H232195   4.862   3.280   5.336
10752TIP3   OH232196   8.307   7.720  -0.003
10752TIP3    H132197   8.324   7.650   0.060
10752TIP3    H232198   8.382   7.778   0.005
10753TIP3   OH232199   5.231   3.369   5.306
10753TIP3    H132200   5.262   3.302   5.366
10753TIP3    H232201   5.288   3.362   5.229
10754TIP3   OH232202   7.320   7.296   0.383
10754TIP3    H132203   7.353   7.206   0.390
10754TIP3    H232204   7.240   7.288   0.332
10755TIP3   OH232205   4.450   2.823   5.611
10755TIP3    H132206   4.503   2.800   5.687
10755TIP3    H232207   4.514   2.836   5.541
10756TIP3   OH232208   7.947   7.348   0.163
10756TIP3    H132209   7.900   7.369   0.082
10756TIP3    H232210   7.978   7.258   0.150
10757TIP3   OH232211   5.018   3.042   5.442
10757TIP3    H132212   4.995   3.055   5.534
10757TIP3    H232213   4.998   2.950   5.425
10758TIP3   OH232214   5.562   3.307   6.768
10758TIP3    H132215   5.616   3.304   6.689
10758TIP3    H232216   5.511   3.388   6.760
10759TIP3   OH232217   7.467   7.068   0.383
10759TIP3    H132218   7.473   6.979   0.348
10759TIP3    H232219   7.515   7.064   0.466
10760TIP3   OH232220   4.627   2.760   5.820
10760TIP3    H132221   4.607   2.730   5.909
10760TIP3    H232222   4.674   2.686   5.780
10761TIP3   OH232223   7.805   6.897   0.050
10761TIP3    H132224   7.715   6.930   0.050
10761TIP3    H232225   7.839   6.924  -0.035
10762TIP3   OH232226   4.764   2.569   5.667
10762TIP3    H132227   4.734   2.575   5.577
10762TIP3    H232228   4.859   2.577   5.662
10763TIP3   OH232229   8.310   7.272   0.151
10763TIP3    H132230   8.372   7.233   0.090
10763TIP3    H232231   8.305   7.209   0.223
10764TIP3   OH232232   5.564   2.866   5.342
10764TIP3    H132233   5.549   2.825   5.257
10764TIP3    H232234   5.538   2.958   5.329
10765TIP3   OH232235   7.914   6.667   0.154
10765TIP3    H132236   7.912   6.595   0.091
10765TIP3    H232237   7.875   6.741   0.107
10766TIP3   OH232238   5.052   2.405   6.978
10766TIP3    H132239   5.077   2.447   6.896
10766TIP3    H232240   4.960   2.383   6.966
10767TIP3   OH232241   5.068   2.938   6.852
10767TIP3    H132242   5.154   2.971   6.828
10767TIP3    H232243   5.006   2.995   6.806
10768TIP3   OH232244   8.521   6.948   0.203
10768TIP3    H132245   8.560   6.861   0.208
10768TIP3    H232246   8.592   7.004   0.169
10769TIP3   OH232247   5.693   3.166   6.961
10769TIP3    H132248   5.637   3.219   6.905
10769TIP3    H232249   5.782   3.184   6.930
10770TIP3   OH232250   7.804   6.754   0.403
10770TIP3    H132251   7.715   6.722   0.419
10770TIP3    H232252   7.821   6.731   0.312
10771TIP3   OH232253   8.039   6.226   0.053
10771TIP3    H132254   8.000   6.307   0.021
10771TIP3    H232255   7.972   6.159   0.039
10772TIP3   OH232256   8.169   6.704   0.256
10772TIP3    H132257   8.154   6.693   0.350
10772TIP3    H232258   8.084   6.686   0.216
10773TIP3   OH232259   8.413   6.662   0.122
10773TIP3    H132260   8.335   6.662   0.177
10773TIP3    H232261   8.484   6.635   0.181
10774TIP3   OH232262   0.045   6.619   0.275
10774TIP3    H132263   0.060   6.525   0.283
10774TIP3    H232264   0.041   6.651   0.366
10775TIP3   OH232265   7.622   6.525   0.457
10775TIP3    H132266   7.625   6.438   0.417
10775TIP3    H232267   7.674   6.517   0.537
10776TIP3   OH232268   8.112   6.208   0.316
10776TIP3    H132269   8.182   6.143   0.309
10776TIP3    H232270   8.079   6.218   0.227
10777TIP3   OH232271   8.203   6.426   0.460
10777TIP3    H132272   8.174   6.356   0.402
10777TIP3    H232273   8.132   6.490   0.457
10778TIP3   OH232274   4.593   3.634   5.599
10778TIP3    H132275   4.678   3.607   5.563
10778TIP3    H232276   4.547   3.674   5.526
10779TIP3   OH232277   4.050   3.001   5.777
10779TIP3    H132278   4.144   3.016   5.772
10779TIP3    H232279   4.037   2.914   5.739
10780TIP3   OH232280   3.957   3.586   6.231
10780TIP3    H132281   3.894   3.531   6.184
10780TIP3    H232282   4.002   3.526   6.290
10781TIP3   OH232283   4.100   3.425   6.405
10781TIP3    H132284   4.093   3.356   6.470
10781TIP3    H232285   4.150   3.494   6.449
10782TIP3   OH232286   5.833   3.845   6.204
10782TIP3    H132287   5.857   3.868   6.293
10782TIP3    H232288   5.904   3.880   6.150
10783TIP3   OH232289   5.859   3.871   6.482
10783TIP3    H132290   5.802   3.794   6.475
10783TIP3    H232291   5.925   3.846   6.547
10784TIP3   OH232292   0.180   7.607   0.067
10784TIP3    H132293   0.106   7.624   0.125
10784TIP3    H232294   0.221   7.693   0.055
10785TIP3   OH232295   5.729   3.070   5.672
10785TIP3    H132296   5.787   3.140   5.643
10785TIP3    H232297   5.772   3.033   5.749
10786TIP3   OH232298   5.858   2.928   5.875
10786TIP3    H132299   5.790   2.893   5.932
10786TIP3    H232300   5.921   2.968   5.934
10787TIP3   OH232301   5.858   3.306   6.291
10787TIP3    H132302   5.937   3.254   6.278
10787TIP3    H232303   5.869   3.382   6.234
10788TIP3   OH232304   5.713   3.641   6.479
10788TIP3    H132305   5.716   3.589   6.558
10788TIP3    H232306   5.675   3.583   6.413
10789TIP3   OH232307   5.771   2.844   5.520
10789TIP3    H132308   5.700   2.845   5.457
10789TIP3    H232309   5.755   2.922   5.575
10790TIP3   OH232310   5.636   2.495   5.458
10790TIP3    H132311   5.584   2.537   5.390
10790TIP3    H232312   5.622   2.401   5.444
10791TIP3   OH232313   5.655   2.792   6.013
10791TIP3    H132314   5.661   2.697   6.003
10791TIP3    H232315   5.636   2.805   6.106
10792TIP3   OH232316   4.265   2.894   6.741
10792TIP3    H132317   4.265   2.845   6.659
10792TIP3    H232318   4.354   2.884   6.774
10793TIP3   OH232319   5.943   3.226   6.856
10793TIP3    H132320   6.011   3.161   6.839
10793TIP3    H232321   5.966   3.300   6.799
10794TIP3   OH232322   6.116   3.008   6.881
10794TIP3    H132323   6.039   2.970   6.924
10794TIP3    H232324   6.186   2.946   6.898
10795TIP3   OH232325   5.589   2.223   5.430
10795TIP3    H132326   5.651   2.201   5.499
10795TIP3    H232327   5.506   2.186   5.460
10796TIP3   OH232328   5.651   2.511   5.898
10796TIP3    H132329   5.696   2.428   5.910
10796TIP3    H232330   5.696   2.552   5.824
10797TIP3   OH232331   5.804   2.676   6.420
10797TIP3    H132332   5.885   2.696   6.372
10797TIP3    H232333   5.815   2.719   6.505
10798TIP3   OH232334   5.880   2.833   6.645
10798TIP3    H132335   5.805   2.865   6.695
10798TIP3    H232336   5.913   2.910   6.600
10799TIP3   OH232337   7.365   6.589   0.388
10799TIP3    H132338   7.458   6.592   0.410
10799TIP3    H232339   7.335   6.505   0.424
10800TIP3   OH232340   0.605   6.479   0.168
10800TIP3    H132341   0.667   6.421   0.124
10800TIP3    H232342   0.566   6.531   0.097
10801TIP3   OH232343   5.766   2.260   5.946
10801TIP3    H132344   5.811   2.246   6.030
10801TIP3    H232345   5.702   2.189   5.942
10802TIP3   OH232346   4.468   2.247   6.776
10802TIP3    H132347   4.527   2.172   6.780
10802TIP3    H232348   4.527   2.322   6.763
10803TIP3   OH232349   4.241   2.523   6.844
10803TIP3    H132350   4.302   2.532   6.771
10803TIP3    H232351   4.233   2.611   6.880
10804TIP3   OH232352   6.190   2.544   6.995
10804TIP3    H132353   6.107   2.587   7.017
10804TIP3    H232354   6.164   2.470   6.938
10805TIP3   OH232355   5.816   2.181   5.588
10805TIP3    H132356   5.863   2.119   5.531
10805TIP3    H232357   5.873   2.258   5.591
10806TIP3   OH232358   4.242   1.984   6.320
10806TIP3    H132359   4.162   1.987   6.372
10806TIP3    H232360   4.229   2.053   6.254
10807TIP3   OH232361   5.425   3.742   5.864
10807TIP3    H132362   5.447   3.724   5.773
10807TIP3    H232363   5.509   3.753   5.908
10808TIP3   OH232364   7.327   6.123   0.124
10808TIP3    H132365   7.282   6.128   0.209
10808TIP3    H232366   7.274   6.178   0.066
10809TIP3   OH232367   7.366   7.575   0.208
10809TIP3    H132368   7.271   7.563   0.195
10809TIP3    H232369   7.387   7.518   0.282
10810TIP3   OH232370   4.701   3.574   6.787
10810TIP3    H132371   4.645   3.642   6.748
10810TIP3    H232372   4.786   3.587   6.746
10811TIP3   OH232373   5.116   3.806   6.932
10811TIP3    H132374   5.154   3.807   7.019
10811TIP3    H232375   5.178   3.854   6.878
10812TIP3   OH232376   5.326   3.939   6.817
10812TIP3    H132377   5.393   3.892   6.768
10812TIP3    H232378   5.372   4.011   6.860
10813TIP3   OH232379   6.098   2.304   6.878
10813TIP3    H132380   6.013   2.305   6.835
10813TIP3    H232381   6.128   2.213   6.871
10814TIP3   OH232382   4.361   3.872   6.809
10814TIP3    H132383   4.267   3.885   6.801
10814TIP3    H232384   4.385   3.917   6.890
10815TIP3   OH232385   4.580   3.788   6.665
10815TIP3    H132386   4.502   3.816   6.713
10815TIP3    H232387   4.563   3.813   6.575
10816TIP3   OH232388   4.996   3.841   6.454
10816TIP3    H132389   4.931   3.809   6.391
10816TIP3    H232390   4.984   3.936   6.455
10817TIP3   OH232391   5.261   3.757   6.508
10817TIP3    H132392   5.172   3.793   6.497
10817TIP3    H232393   5.318   3.832   6.489
10818TIP3   OH232394   5.490   3.939   6.430
10818TIP3    H132395   5.485   4.021   6.381
10818TIP3    H232396   5.517   3.874   6.365
10819TIP3   OH232397   4.272   3.598   6.561
10819TIP3    H132398   4.295   3.565   6.648
10819TIP3    H232399   4.342   3.566   6.504
10820TIP3   OH232400   4.470   3.480   6.414
10820TIP3    H132401   4.479   3.395   6.456
10820TIP3    H232402   4.557   3.519   6.420
10821TIP3   OH232403   4.737   3.555   6.446
10821TIP3    H132404   4.759   3.462   6.435
10821TIP3    H232405   4.795   3.584   6.516
10822TIP3   OH232406   5.306   2.225   6.512
10822TIP3    H132407   5.267   2.154   6.562
10822TIP3    H232408   5.375   2.183   6.460
10823TIP3   OH232409   5.812   2.121   6.399
10823TIP3    H132410   5.852   2.173   6.328
10823TIP3    H232411   5.723   2.156   6.407
10824TIP3   OH232412   5.926   2.209   6.166
10824TIP3    H132413   5.996   2.150   6.138
10824TIP3    H232414   5.963   2.297   6.154
10825TIP3   OH232415   4.548   1.930   6.509
10825TIP3    H132416   4.457   1.901   6.517
10825TIP3    H232417   4.598   1.849   6.508
10826TIP3   OH232418   4.359   1.806   6.134
10826TIP3    H132419   4.392   1.865   6.066
10826TIP3    H232420   4.330   1.864   6.204
10827TIP3   OH232421   5.016   1.959   6.409
10827TIP3    H132422   5.064   2.007   6.341
10827TIP3    H232423   5.055   1.988   6.491
10828TIP3   OH232424   5.520   2.106   6.383
10828TIP3    H132425   5.540   2.072   6.296
10828TIP3    H232426   5.523   2.030   6.441
10829TIP3   OH232427   5.577   2.052   5.951
10829TIP3    H132428   5.498   2.100   5.974
10829TIP3    H232429   5.566   1.965   5.991
10830TIP3   OH232430   4.038   3.399   5.933
10830TIP3    H132431   3.955   3.366   5.898
10830TIP3    H232432   4.044   3.489   5.902
10831TIP3   OH232433   4.483   1.947   5.922
10831TIP3    H132434   4.534   1.890   5.864
10831TIP3    H232435   4.548   2.007   5.959
10832TIP3   OH232436   4.964   2.149   6.030
10832TIP3    H132437   5.025   2.102   6.085
10832TIP3    H232438   4.975   2.241   6.054
10833TIP3   OH232439   4.842   3.551   5.519
10833TIP3    H132440   4.926   3.578   5.483
10833TIP3    H232441   4.813   3.480   5.461
10834TIP3   OH232442   5.547   3.686   5.624
10834TIP3    H132443   5.541   3.591   5.614
10834TIP3    H232444   5.506   3.721   5.544
10835TIP3   OH232445   7.642   6.256   0.361
10835TIP3    H132446   7.607   6.190   0.420
10835TIP3    H232447   7.733   6.266   0.386
10836TIP3   OH232448   7.893   6.263   0.485
10836TIP3    H132449   7.970   6.241   0.433
10836TIP3    H232450   7.881   6.189   0.544
10837TIP3   OH232451   4.147   3.392   5.579
10837TIP3    H132452   4.149   3.408   5.674
10837TIP3    H232453   4.229   3.347   5.560
10838TIP3   OH232454   0.111   6.349   0.289
10838TIP3    H132455   0.129   6.319   0.378
10838TIP3    H232456   0.196   6.344   0.245
10839TIP3   OH232457   5.763   3.832   6.817
10839TIP3    H132458   5.685   3.804   6.768
10839TIP3    H232459   5.755   3.927   6.823
10840TIP3   OH232460   7.040   3.217   5.556
10840TIP3    H132461   7.011   3.304   5.530
10840TIP3    H232462   6.968   3.159   5.531
10841TIP3   OH232463   7.038   3.207   5.974
10841TIP3    H132464   7.087   3.190   6.055
10841TIP3    H232465   6.994   3.125   5.955
10842TIP3   OH232466   6.340   3.100   6.324
10842TIP3    H132467   6.367   3.024   6.375
10842TIP3    H232468   6.397   3.171   6.355
10843TIP3   OH232469   7.301   3.516   5.649
10843TIP3    H132470   7.290   3.450   5.717
10843TIP3    H232471   7.325   3.596   5.697
10844TIP3   OH232472   6.324   3.498   6.015
10844TIP3    H132473   6.308   3.405   6.027
10844TIP3    H232474   6.419   3.506   6.010
10845TIP3   OH232475   6.014   2.703   5.802
10845TIP3    H132476   5.977   2.788   5.827
10845TIP3    H232477   5.941   2.656   5.762
10846TIP3   OH232478   6.089   3.014   6.012
10846TIP3    H132479   6.138   2.938   6.043
10846TIP3    H232480   6.157   3.078   5.988
10847TIP3   OH232481   6.954   3.956   5.659
10847TIP3    H132482   6.986   3.888   5.600
10847TIP3    H232483   6.946   3.912   5.744
10848TIP3   OH232484   6.842   3.434   5.986
10848TIP3    H132485   6.883   3.353   5.955
10848TIP3    H232486   6.916   3.487   6.016
10849TIP3   OH232487   7.865   2.755   5.999
10849TIP3    H132488   7.885   2.840   6.038
10849TIP3    H232489   7.898   2.763   5.909
10850TIP3   OH232490   7.254   2.922   6.020
10850TIP3    H132491   7.290   2.837   6.047
10850TIP3    H232492   7.218   2.906   5.933
10851TIP3   OH232493   6.606   2.583   5.983
10851TIP3    H132494   6.585   2.657   5.925
10851TIP3    H232495   6.550   2.512   5.952
10852TIP3   OH232496   7.302   2.678   5.613
10852TIP3    H132497   7.367   2.671   5.683
10852TIP3    H232498   7.352   2.714   5.538
10853TIP3   OH232499   6.228   2.795   6.111
10853TIP3    H132500   6.311   2.779   6.156
10853TIP3    H232501   6.234   2.743   6.031
10854TIP3   OH232502   6.668   2.993   5.894
10854TIP3    H132503   6.759   2.971   5.911
10854TIP3    H232504   6.628   2.910   5.868
10855TIP3   OH232505   7.934   2.974   6.165
10855TIP3    H132506   7.844   3.008   6.158
10855TIP3    H232507   7.969   3.016   6.243
10856TIP3   OH232508   6.587   2.579   6.433
10856TIP3    H132509   6.536   2.618   6.361
10856TIP3    H232510   6.532   2.594   6.510
10857TIP3   OH232511   6.942   3.435   5.413
10857TIP3    H132512   6.900   3.407   5.332
10857TIP3    H232513   6.888   3.508   5.444
10858TIP3   OH232514   6.686   3.357   6.203
10858TIP3    H132515   6.626   3.422   6.239
10858TIP3    H232516   6.730   3.402   6.131
10859TIP3   OH232517   7.471   2.696   5.827
10859TIP3    H132518   7.428   2.677   5.910
10859TIP3    H232519   7.527   2.772   5.846
10860TIP3   OH232520   6.475   2.692   6.205
10860TIP3    H132521   6.527   2.767   6.232
10860TIP3    H232522   6.524   2.652   6.133
10861TIP3   OH232523   6.516   3.551   6.311
10861TIP3    H132524   6.498   3.640   6.281
10861TIP3    H232525   6.439   3.526   6.362
10862TIP3   OH232526   5.905   3.257   5.554
10862TIP3    H132527   5.866   3.277   5.469
10862TIP3    H232528   5.929   3.342   5.590
10863TIP3   OH232529   7.345   3.763   5.790
10863TIP3    H132530   7.259   3.754   5.831
10863TIP3    H232531   7.342   3.848   5.746
10864TIP3   OH232532   7.664   2.644   6.160
10864TIP3    H132533   7.578   2.668   6.126
10864TIP3    H232534   7.726   2.674   6.093
10865TIP3   OH232535   6.929   2.275   6.156
10865TIP3    H132536   6.921   2.183   6.181
10865TIP3    H232537   6.854   2.319   6.197
10866TIP3   OH232538   7.050   3.796   5.450
10866TIP3    H132539   7.101   3.716   5.440
10866TIP3    H232540   7.108   3.866   5.420
10867TIP3   OH232541   7.191   3.568   5.400
10867TIP3    H132542   7.118   3.506   5.396
10867TIP3    H232543   7.239   3.544   5.479
10868TIP3   OH232544   7.573   3.657   6.136
10868TIP3    H132545   7.558   3.581   6.079
10868TIP3    H232546   7.559   3.733   6.079
10869TIP3   OH232547   6.867   3.056   5.406
10869TIP3    H132548   6.785   3.102   5.387
10869TIP3    H232549   6.913   3.056   5.322
10870TIP3   OH232550   6.835   2.857   5.102
10870TIP3    H132551   6.899   2.907   5.152
10870TIP3    H232552   6.886   2.791   5.055
10871TIP3   OH232553   7.762   3.310   5.998
10871TIP3    H132554   7.678   3.356   6.000
10871TIP3    H232555   7.795   3.324   5.909
10872TIP3   OH232556   7.224   3.144   5.367
10872TIP3    H132557   7.169   3.173   5.440
10872TIP3    H232558   7.306   3.118   5.408
10873TIP3   OH232559   7.454   3.174   6.306
10873TIP3    H132560   7.454   3.256   6.354
10873TIP3    H232561   7.371   3.174   6.259
10874TIP3   OH232562   6.453   3.129   5.782
10874TIP3    H132563   6.415   3.070   5.716
10874TIP3    H232564   6.530   3.082   5.814
10875TIP3   OH232565   6.588   3.552   5.915
10875TIP3    H132566   6.565   3.531   5.824
10875TIP3    H232567   6.675   3.513   5.927
10876TIP3   OH232568   6.585   3.108   6.135
10876TIP3    H132569   6.621   3.084   6.049
10876TIP3    H232570   6.624   3.194   6.153
10877TIP3   OH232571   7.110   3.755   5.925
10877TIP3    H132572   7.096   3.834   5.977
10877TIP3    H232573   7.095   3.683   5.986
10878TIP3   OH232574   6.720   3.658   6.467
10878TIP3    H132575   6.662   3.717   6.515
10878TIP3    H232576   6.662   3.603   6.414
10879TIP3   OH232577   7.056   3.004   5.199
10879TIP3    H132578   7.115   3.062   5.248
10879TIP3    H232579   7.083   3.014   5.108
10880TIP3   OH232580   6.487   3.227   6.564
10880TIP3    H132581   6.485   3.315   6.602
10880TIP3    H232582   6.404   3.187   6.590
10881TIP3   OH232583   6.804   3.672   5.462
10881TIP3    H132584   6.884   3.724   5.466
10881TIP3    H232585   6.741   3.728   5.416
10882TIP3   OH232586   6.514   3.820   6.554
10882TIP3    H132587   6.486   3.827   6.463
10882TIP3    H232588   6.433   3.802   6.602
10883TIP3   OH232589   7.567   2.232   5.255
10883TIP3    H132590   7.490   2.254   5.308
10883TIP3    H232591   7.581   2.310   5.201
10884TIP3   OH232592   6.327   2.974   5.574
10884TIP3    H132593   6.251   3.021   5.540
10884TIP3    H232594   6.291   2.889   5.600
10885TIP3   OH232595   7.374   3.615   4.810
10885TIP3    H132596   7.378   3.708   4.789
10885TIP3    H232597   7.462   3.582   4.793
10886TIP3   OH232598   5.950   3.550   6.137
10886TIP3    H132599   6.046   3.545   6.145
10886TIP3    H232600   5.925   3.619   6.198
10887TIP3   OH232601   7.809   4.017   6.200
10887TIP3    H132602   7.814   3.921   6.210
10887TIP3    H232603   7.730   4.042   6.247
10888TIP3   OH232604   6.912   3.797   6.328
10888TIP3    H132605   6.907   3.888   6.357
10888TIP3    H232606   6.844   3.752   6.377
10889TIP3   OH232607   6.693   3.910   5.281
10889TIP3    H132608   6.643   3.888   5.202
10889TIP3    H232609   6.655   3.992   5.311
10890TIP3   OH232610   6.126   3.756   5.662
10890TIP3    H132611   6.170   3.749   5.747
10890TIP3    H232612   6.077   3.675   5.653
10891TIP3   OH232613   6.895   3.832   4.911
10891TIP3    H132614   6.945   3.757   4.877
10891TIP3    H232615   6.927   3.842   5.001
10892TIP3   OH232616   6.946   3.875   5.182
10892TIP3    H132617   6.859   3.881   5.221
10892TIP3    H232618   7.001   3.837   5.251
10893TIP3   OH232619   7.706   3.112   6.474
10893TIP3    H132620   7.623   3.132   6.430
10893TIP3    H232621   7.723   3.021   6.453
10894TIP3   OH232622   6.300   3.539   6.487
10894TIP3    H132623   6.363   3.530   6.558
10894TIP3    H232624   6.217   3.511   6.526
10895TIP3   OH232625   6.695   2.368   6.284
10895TIP3    H132626   6.610   2.336   6.252
10895TIP3    H232627   6.673   2.448   6.332
10896TIP3   OH232628   7.235   2.482   6.480
10896TIP3    H132629   7.305   2.459   6.541
10896TIP3    H232630   7.154   2.468   6.529
10897TIP3   OH232631   7.464   2.911   6.397
10897TIP3    H132632   7.416   2.906   6.480
10897TIP3    H232633   7.445   2.999   6.363
10898TIP3   OH232634   7.135   3.002   4.937
10898TIP3    H132635   7.092   2.999   4.852
10898TIP3    H232636   7.217   3.049   4.921
10899TIP3   OH232637   6.844   2.409   5.252
10899TIP3    H132638   6.810   2.415   5.342
10899TIP3    H232639   6.806   2.329   5.217
10900TIP3   OH232640   6.626   2.899   6.308
10900TIP3    H132641   6.574   2.913   6.387
10900TIP3    H232642   6.609   2.977   6.254
10901TIP3   OH232643   6.514   2.775   5.812
10901TIP3    H132644   6.425   2.755   5.839
10901TIP3    H232645   6.522   2.739   5.723
10902TIP3   OH232646   6.996   2.853   5.540
10902TIP3    H132647   6.948   2.925   5.501
10902TIP3    H232648   7.054   2.821   5.471
10903TIP3   OH232649   7.179   3.125   6.618
10903TIP3    H132650   7.151   3.057   6.679
10903TIP3    H232651   7.272   3.139   6.638
10904TIP3   OH232652   7.163   2.869   5.767
10904TIP3    H132653   7.094   2.894   5.706
10904TIP3    H232654   7.207   2.794   5.725
10905TIP3   OH232655   6.433   2.906   6.511
10905TIP3    H132656   6.379   2.964   6.565
10905TIP3    H232657   6.433   2.823   6.558
10906TIP3   OH232658   6.508   2.391   5.225
10906TIP3    H132659   6.498   2.395   5.320
10906TIP3    H232660   6.430   2.437   5.192
10907TIP3   OH232661   6.057   2.432   6.092
10907TIP3    H132662   6.125   2.470   6.148
10907TIP3    H232663   6.099   2.421   6.007
10908TIP3   OH232664   5.976   2.412   5.600
10908TIP3    H132665   6.021   2.447   5.522
10908TIP3    H232666   5.915   2.480   5.626
10909TIP3   OH232667   7.195   3.122   6.194
10909TIP3    H132668   7.221   3.055   6.131
10909TIP3    H232669   7.154   3.073   6.265
10910TIP3   OH232670   6.870   2.570   5.865
10910TIP3    H132671   6.792   2.573   5.920
10910TIP3    H232672   6.943   2.563   5.926
10911TIP3   OH232673   6.275   2.655   5.878
10911TIP3    H132674   6.186   2.659   5.842
10911TIP3    H232675   6.303   2.565   5.860
10912TIP3   OH232676   6.529   2.649   5.568
10912TIP3    H132677   6.623   2.664   5.556
10912TIP3    H232678   6.490   2.669   5.483
10913TIP3   OH232679   7.332   2.657   6.066
10913TIP3    H132680   7.315   2.672   6.159
10913TIP3    H232681   7.262   2.598   6.038
10914TIP3   OH232682   6.408   2.676   5.324
10914TIP3    H132683   6.342   2.630   5.273
10914TIP3    H232684   6.461   2.722   5.260
10915TIP3   OH232685   7.520   4.362   6.297
10915TIP3    H132686   7.518   4.378   6.203
10915TIP3    H232687   7.599   4.407   6.327
10916TIP3   OH232688   6.475   3.470   6.707
10916TIP3    H132689   6.553   3.490   6.759
10916TIP3    H232690   6.403   3.470   6.770
10917TIP3   OH232691   6.928   2.932   5.975
10917TIP3    H132692   6.999   2.882   5.934
10917TIP3    H232693   6.922   2.896   6.064
10918TIP3   OH232694   6.421   2.407   5.862
10918TIP3    H132695   6.392   2.331   5.912
10918TIP3    H232696   6.451   2.370   5.779
10919TIP3   OH232697   6.895   2.845   6.245
10919TIP3    H132698   6.808   2.877   6.269
10919TIP3    H232699   6.955   2.898   6.297
10920TIP3   OH232700   6.631   3.197   5.351
10920TIP3    H132701   6.557   3.140   5.330
10920TIP3    H232702   6.608   3.236   5.436
10921TIP3   OH232703   7.525   3.449   5.960
10921TIP3    H132704   7.559   3.498   5.885
10921TIP3    H232705   7.444   3.409   5.929
10922TIP3   OH232706   7.096   2.513   5.246
10922TIP3    H132707   7.002   2.494   5.246
10922TIP3    H232708   7.101   2.608   5.262
10923TIP3   OH232709   7.039   3.533   6.362
10923TIP3    H132710   7.082   3.521   6.447
10923TIP3    H232711   6.995   3.617   6.369
10924TIP3   OH232712   7.158   2.774   5.323
10924TIP3    H132713   7.253   2.779   5.335
10924TIP3    H232714   7.136   2.852   5.272
10925TIP3   OH232715   6.324   3.206   6.019
10925TIP3    H132716   6.371   3.187   5.938
10925TIP3    H232717   6.378   3.169   6.088
10926TIP3   OH232718   6.783   3.359   5.192
10926TIP3    H132719   6.736   3.442   5.191
10926TIP3    H232720   6.728   3.301   5.245
10927TIP3   OH232721   6.257   3.083   6.639
10927TIP3    H132722   6.241   3.093   6.732
10927TIP3    H232723   6.171   3.091   6.598
10928TIP3   OH232724   6.942   3.275   6.659
10928TIP3    H132725   6.872   3.216   6.629
10928TIP3    H232726   7.022   3.234   6.627
10929TIP3   OH232727   7.185   3.815   6.248
10929TIP3    H132728   7.091   3.801   6.256
10929TIP3    H232729   7.210   3.854   6.333
10930TIP3   OH232730   7.568   2.862   5.142
10930TIP3    H132731   7.514   2.815   5.078
10930TIP3    H232732   7.573   2.951   5.108
10931TIP3   OH232733   7.819   3.736   6.224
10931TIP3    H132734   7.724   3.723   6.224
10931TIP3    H232735   7.849   3.702   6.140
10932TIP3   OH232736   7.315   3.681   5.082
10932TIP3    H132737   7.283   3.615   5.145
10932TIP3    H232738   7.322   3.634   4.999
10933TIP3   OH232739   7.293   3.316   5.860
10933TIP3    H132740   7.203   3.293   5.884
10933TIP3    H232741   7.329   3.235   5.823
10934TIP3   OH232742   6.442   3.548   5.665
10934TIP3    H132743   6.436   3.625   5.608
10934TIP3    H232744   6.352   3.535   5.696
10935TIP3   OH232745   6.007   2.837   5.377
10935TIP3    H132746   6.050   2.920   5.397
10935TIP3    H232747   5.927   2.838   5.429
10936TIP3   OH232748   6.543   3.304   5.583
10936TIP3    H132749   6.520   3.394   5.608
10936TIP3    H232750   6.515   3.251   5.657
10937TIP3   OH232751   6.723   3.875   6.124
10937TIP3    H132752   6.761   3.947   6.073
10937TIP3    H232753   6.796   3.840   6.174
10938TIP3   OH232754   6.358   3.775   5.514
10938TIP3    H132755   6.272   3.780   5.555
10938TIP3    H232756   6.392   3.865   5.518
10939TIP3   OH232757   7.084   3.530   6.091
10939TIP3    H132758   7.071   3.527   6.186
10939TIP3    H232759   7.160   3.473   6.075
10940TIP3   OH232760   7.068   3.414   4.964
10940TIP3    H132761   7.120   3.386   5.040
10940TIP3    H232762   6.983   3.372   4.977
10941TIP3   OH232763   7.337   4.035   6.136
10941TIP3    H132764   7.267   3.972   6.150
10941TIP3    H232765   7.306   4.090   6.064
10942TIP3   OH232766   7.392   3.892   4.767
10942TIP3    H132767   7.380   3.932   4.680
10942TIP3    H232768   7.322   3.930   4.820
10943TIP3   OH232769   6.414   2.649   6.641
10943TIP3    H132770   6.319   2.656   6.650
10943TIP3    H232771   6.442   2.602   6.720
10944TIP3   OH232772   7.242   3.328   5.158
10944TIP3    H132773   7.228   3.275   5.236
10944TIP3    H232774   7.338   3.336   5.152
10945TIP3   OH232775   6.146   3.743   6.288
10945TIP3    H132776   6.189   3.672   6.334
10945TIP3    H232777   6.154   3.818   6.346
10946TIP3   OH232778   6.429   3.381   4.974
10946TIP3    H132779   6.438   3.289   4.947
10946TIP3    H232780   6.410   3.377   5.067
10947TIP3   OH232781   6.369   3.398   5.245
10947TIP3    H132782   6.434   3.369   5.309
10947TIP3    H232783   6.368   3.493   5.252
10948TIP3   OH232784   6.103   3.088   5.455
10948TIP3    H132785   6.037   3.133   5.508
10948TIP3    H232786   6.120   3.148   5.382
10949TIP3   OH232787   7.277   2.710   6.327
10949TIP3    H132788   7.348   2.759   6.368
10949TIP3    H232789   7.263   2.636   6.386
10950TIP3   OH232790   7.155   2.463   5.517
10950TIP3    H132791   7.134   2.482   5.425
10950TIP3    H232792   7.197   2.542   5.550
10951TIP3   OH232793   6.641   3.590   5.189
10951TIP3    H132794   6.555   3.611   5.225
10951TIP3    H232795   6.661   3.662   5.130
10952TIP3   OH232796   6.810   2.660   5.608
10952TIP3    H132797   6.872   2.729   5.584
10952TIP3    H232798   6.828   2.642   5.700
10953TIP3   OH232799   7.105   2.959   6.397
10953TIP3    H132800   7.126   3.010   6.476
10953TIP3    H232801   7.154   2.878   6.408
10954TIP3   OH232802   6.971   2.362   5.701
10954TIP3    H132803   6.948   2.439   5.753
10954TIP3    H232804   7.039   2.394   5.641
10955TIP3   OH232805   6.388   3.670   5.261
10955TIP3    H132806   6.365   3.740   5.201
10955TIP3    H232807   6.374   3.708   5.348
10956TIP3   OH232808   6.484   2.378   5.503
10956TIP3    H132809   6.472   2.468   5.534
10956TIP3    H232810   6.578   2.363   5.510
10957TIP3   OH232811   7.725   2.842   6.368
10957TIP3    H132812   7.632   2.857   6.385
10957TIP3    H232813   7.726   2.786   6.291
10958TIP3   OH232814   7.386   3.059   5.770
10958TIP3    H132815   7.309   3.003   5.782
10958TIP3    H232816   7.454   3.018   5.823
10959TIP3   OH232817   6.119   3.270   5.242
10959TIP3    H132818   6.189   3.335   5.250
10959TIP3    H232819   6.153   3.207   5.178
10960TIP3   OH232820   6.034   2.559   5.375
10960TIP3    H132821   6.049   2.654   5.384
10960TIP3    H232822   5.962   2.552   5.313
10961TIP3   OH232823   7.363   4.032   5.711
10961TIP3    H132824   7.320   4.080   5.641
10961TIP3    H232825   7.457   4.047   5.697
10962TIP3   OH232826   6.434   2.281   6.243
10962TIP3    H132827   6.403   2.249   6.158
10962TIP3    H232828   6.424   2.206   6.302
10963TIP3   OH232829   5.957   3.529   5.635
10963TIP3    H132830   5.909   3.561   5.712
10963TIP3    H232831   5.915   3.571   5.561
10964TIP3   OH232832   6.144   4.058   6.702
10964TIP3    H132833   6.228   4.056   6.747
10964TIP3    H232834   6.119   3.966   6.693
10965TIP3   OH232835   6.618   3.989   6.745
10965TIP3    H132836   6.710   3.963   6.754
10965TIP3    H232837   6.585   3.933   6.675
10966TIP3   OH232838   6.586   3.582   4.867
10966TIP3    H132839   6.537   3.511   4.911
10966TIP3    H232840   6.660   3.537   4.826
10967TIP3   OH232841   7.243   3.922   6.495
10967TIP3    H132842   7.252   3.852   6.559
10967TIP3    H232843   7.318   3.979   6.511
10968TIP3   OH232844   7.025   3.622   4.791
10968TIP3    H132845   7.055   3.556   4.853
10968TIP3    H232846   7.084   3.614   4.716
10969TIP3   OH232847   6.282   3.458   6.911
10969TIP3    H132848   6.298   3.364   6.917
10969TIP3    H232849   6.207   3.465   6.852
10970TIP3   OH232850   6.250   3.080   5.096
10970TIP3    H132851   6.302   3.056   5.174
10970TIP3    H232852   6.315   3.092   5.027
10971TIP3   OH232853   6.875   3.551   6.671
10971TIP3    H132854   6.828   3.570   6.590
10971TIP3    H232855   6.907   3.462   6.660
10972TIP3   OH232856   6.805   3.301   4.924
10972TIP3    H132857   6.784   3.314   5.017
10972TIP3    H232858   6.790   3.207   4.909
10973TIP3   OH232859   7.355   3.587   6.290
10973TIP3    H132860   7.432   3.618   6.242
10973TIP3    H232861   7.288   3.653   6.272
10974TIP3   OH232862   6.399   3.197   6.904
10974TIP3    H132863   6.479   3.178   6.856
10974TIP3    H232864   6.429   3.226   6.990
10975TIP3   OH232865   6.425   3.016   5.307
10975TIP3    H132866   6.403   2.987   5.395
10975TIP3    H232867   6.471   2.942   5.267
10976TIP3   OH232868   6.739   3.101   6.557
10976TIP3    H132869   6.651   3.139   6.558
10976TIP3    H232870   6.774   3.124   6.471
10977TIP3   OH232871   6.560   2.825   5.152
10977TIP3    H132872   6.531   2.831   5.061
10977TIP3    H232873   6.656   2.833   5.146
10978TIP3   OH232874   7.235   3.473   6.656
10978TIP3    H132875   7.305   3.436   6.603
10978TIP3    H232876   7.231   3.417   6.733
10979TIP3   OH232877   7.359   3.126   4.827
10979TIP3    H132878   7.345   3.084   4.742
10979TIP3    H232879   7.332   3.217   4.813
10980TIP3   OH232880   6.839   2.870   6.668
10980TIP3    H132881   6.840   2.798   6.605
10980TIP3    H232882   6.803   2.944   6.619
10981TIP3   OH232883   6.847   2.663   6.467
10981TIP3    H132884   6.872   2.706   6.385
10981TIP3    H232885   6.755   2.639   6.455
10982TIP3   OH232886   6.863   3.189   6.331
10982TIP3    H132887   6.949   3.224   6.311
10982TIP3    H232888   6.802   3.249   6.289
10983TIP3   OH232889   7.449   3.147   6.723
10983TIP3    H132890   7.492   3.063   6.737
10983TIP3    H232891   7.520   3.208   6.704
10984TIP3   OH232892   7.483   3.412   6.455
10984TIP3    H132893   7.428   3.473   6.405
10984TIP3    H232894   7.572   3.430   6.424
10985TIP3   OH232895   6.717   2.957   6.908
10985TIP3    H132896   6.647   2.894   6.926
10985TIP3    H232897   6.746   2.936   6.819
10986TIP3   OH232898   6.968   2.427   6.559
10986TIP3    H132899   6.928   2.508   6.528
10986TIP3    H232900   6.901   2.360   6.546
10987TIP3   OH232901   7.095   2.912   6.768
10987TIP3    H132902   7.089   2.900   6.863
10987TIP3    H232903   7.008   2.891   6.736
10988TIP3   OH232904   7.328   2.855   6.623
10988TIP3    H132905   7.253   2.861   6.682
10988TIP3    H232906   7.402   2.836   6.681
10989TIP3   OH232907   7.566   2.826   6.767
10989TIP3    H132908   7.582   2.732   6.777
10989TIP3    H232909   7.561   2.859   6.857
10990TIP3   OH232910   6.552   2.735   6.971
10990TIP3    H132911   6.559   2.646   6.936
10990TIP3    H232912   6.591   2.729   7.059
10991TIP3   OH232913   7.039   2.411   6.824
10991TIP3    H132914   7.109   2.346   6.818
10991TIP3    H232915   7.007   2.419   6.734
10992TIP3   OH232916   7.125   2.633   6.959
10992TIP3    H132917   7.097   2.560   6.905
10992TIP3    H232918   7.050   2.693   6.961
10993TIP3   OH232919   6.379   3.877   5.076
10993TIP3    H132920   6.469   3.858   5.049
10993TIP3    H232921   6.341   3.923   5.001
10994TIP3   OH232922   5.846   3.257   5.262
10994TIP3    H132923   5.941   3.271   5.258
10994TIP3    H232924   5.833   3.170   5.225
10995TIP3   OH232925   5.751   3.845   5.719
10995TIP3    H132926   5.689   3.788   5.673
10995TIP3    H232927   5.798   3.786   5.777
10996TIP3   OH232928   5.895   3.683   5.891
10996TIP3    H132929   5.887   3.614   5.957
10996TIP3    H232930   5.946   3.752   5.935
10997TIP3   OH232931   7.628   4.101   5.696
10997TIP3    H132932   7.653   4.120   5.787
10997TIP3    H232933   7.694   4.145   5.643
10998TIP3   OH232934   7.657   4.115   5.977
10998TIP3    H132935   7.607   4.034   5.970
10998TIP3    H232936   7.725   4.096   6.042
10999TIP3   OH232937   7.685   3.818   6.533
10999TIP3    H132938   7.619   3.821   6.602
10999TIP3    H232939   7.732   3.902   6.542
11000TIP3   OH232940   7.521   3.329   5.158
11000TIP3    H132941   7.582   3.398   5.130
11000TIP3    H232942   7.561   3.292   5.236
11001TIP3   OH232943   7.640   3.196   5.366
11001TIP3    H132944   7.576   3.156   5.424
11001TIP3    H232945   7.709   3.228   5.424
11002TIP3   OH232946   7.696   3.586   5.788
11002TIP3    H132947   7.748   3.516   5.750
11002TIP3    H232948   7.699   3.656   5.723
11003TIP3   OH232949   7.512   3.878   5.982
11003TIP3    H132950   7.444   3.920   6.035
11003TIP3    H232951   7.464   3.835   5.911
11004TIP3   OH232952   7.563   3.102   5.008
11004TIP3    H132953   7.493   3.102   4.943
11004TIP3    H232954   7.546   3.180   5.061
11005TIP3   OH232955   7.424   2.758   4.937
11005TIP3    H132956   7.372   2.791   4.864
11005TIP3    H232957   7.412   2.663   4.934
11006TIP3   OH232958   7.448   3.046   5.501
11006TIP3    H132959   7.457   2.951   5.489
11006TIP3    H232960   7.431   3.057   5.594
11007TIP3   OH232961   6.073   3.125   6.265
11007TIP3    H132962   6.063   3.093   6.175
11007TIP3    H232963   6.167   3.128   6.279
11008TIP3   OH232964   7.737   3.465   6.358
11008TIP3    H132965   7.803   3.397   6.345
11008TIP3    H232966   7.756   3.531   6.291
11009TIP3   OH232967   7.908   3.253   6.345
11009TIP3    H132968   7.839   3.214   6.399
11009TIP3    H232969   7.987   3.204   6.367
11010TIP3   OH232970   7.376   2.490   4.930
11010TIP3    H132971   7.443   2.460   4.991
11010TIP3    H232972   7.297   2.444   4.957
11011TIP3   OH232973   7.445   2.768   5.384
11011TIP3    H132974   7.492   2.685   5.397
11011TIP3    H232975   7.487   2.806   5.307
11012TIP3   OH232976   7.601   2.933   5.902
11012TIP3    H132977   7.682   2.952   5.854
11012TIP3    H232978   7.614   2.972   5.988
11013TIP3   OH232979   7.673   3.083   6.130
11013TIP3    H132980   7.600   3.113   6.184
11013TIP3    H232981   7.706   3.162   6.088
11014TIP3   OH232982   6.286   2.792   6.912
11014TIP3    H132983   6.381   2.791   6.927
11014TIP3    H232984   6.256   2.710   6.953
11015TIP3   OH232985   8.136   2.663   6.652
11015TIP3    H132986   8.189   2.598   6.605
11015TIP3    H232987   8.093   2.713   6.583
11016TIP3   OH232988   7.560   2.518   5.435
11016TIP3    H132989   7.605   2.503   5.518
11016TIP3    H232990   7.497   2.446   5.429
11017TIP3   OH232991   6.266   2.503   6.260
11017TIP3    H132992   6.323   2.426   6.266
11017TIP3    H232993   6.326   2.577   6.247
11018TIP3   OH232994   6.048   2.773   6.330
11018TIP3    H132995   6.102   2.771   6.251
11018TIP3    H232996   6.055   2.862   6.363
11019TIP3   OH232997   7.977   2.824   6.500
11019TIP3    H132998   7.929   2.853   6.577
11019TIP3    H232999   7.909   2.802   6.436
11020TIP3   OH233000   7.611   2.438   5.077
11020TIP3    H133001   7.656   2.377   5.018
11020TIP3    H233002   7.668   2.514   5.079
11021TIP3   OH233003   6.035   2.264   5.822
11021TIP3    H133004   5.949   2.259   5.864
11021TIP3    H233005   6.022   2.324   5.749
11022TIP3   OH233006   7.199   3.989   5.339
11022TIP3    H133007   7.259   3.981   5.264
11022TIP3    H233008   7.238   4.058   5.393
11023TIP3   OH233009   6.257   2.330   6.642
11023TIP3    H133010   6.210   2.330   6.726
11023TIP3    H233011   6.202   2.381   6.583
11024TIP3   OH233012   6.291   3.781   6.716
11024TIP3    H133013   6.200   3.756   6.696
11024TIP3    H233014   6.307   3.748   6.804
11025TIP3   OH233015   6.493   3.828   6.272
11025TIP3    H133016   6.441   3.901   6.239
11025TIP3    H233017   6.578   3.838   6.228
11026TIP3   OH233018   6.906   4.064   6.407
11026TIP3    H133019   6.943   4.057   6.495
11026TIP3    H233020   6.969   4.118   6.358
11027TIP3   OH233021   7.094   4.220   6.278
11027TIP3    H133022   7.157   4.165   6.231
11027TIP3    H233023   7.148   4.276   6.333
11028TIP3   OH233024   7.884   2.553   6.366
11028TIP3    H133025   7.796   2.553   6.329
11028TIP3    H233026   7.915   2.463   6.354
11029TIP3   OH233027   6.161   4.092   6.311
11029TIP3    H133028   6.069   4.108   6.291
11029TIP3    H233029   6.181   4.151   6.383
11030TIP3   OH233030   6.390   4.061   6.163
11030TIP3    H133031   6.308   4.070   6.212
11030TIP3    H233032   6.368   4.087   6.074
11031TIP3   OH233033   6.809   4.082   5.955
11031TIP3    H133034   6.735   4.092   5.894
11031TIP3    H233035   6.818   4.167   5.997
11032TIP3   OH233036   7.074   4.021   6.006
11032TIP3    H133037   6.982   4.038   5.987
11032TIP3    H233038   7.122   4.090   5.959
11033TIP3   OH233039   7.280   4.201   5.913
11033TIP3    H133040   7.272   4.286   5.871
11033TIP3    H233041   7.309   4.142   5.844
11034TIP3   OH233042   6.073   3.856   6.042
11034TIP3    H133043   6.096   3.825   6.129
11034TIP3    H233044   6.143   3.823   5.985
11035TIP3   OH233045   6.272   3.740   5.896
11035TIP3    H133046   6.282   3.656   5.941
11035TIP3    H233047   6.359   3.780   5.900
11036TIP3   OH233048   6.540   3.829   5.916
11036TIP3    H133049   6.560   3.736   5.902
11036TIP3    H233050   6.591   3.852   5.994
11037TIP3   OH233051   7.101   2.481   5.999
11037TIP3    H133052   7.063   2.410   6.051
11037TIP3    H233053   7.171   2.439   5.948
11038TIP3   OH233054   7.608   2.381   5.888
11038TIP3    H133055   7.646   2.432   5.817
11038TIP3    H233056   7.517   2.411   5.893
11039TIP3   OH233057   7.721   2.464   5.654
11039TIP3    H133058   7.792   2.407   5.624
11039TIP3    H233059   7.755   2.553   5.641
11040TIP3   OH233060   6.345   2.178   6.001
11040TIP3    H133061   6.255   2.146   6.010
11040TIP3    H233062   6.398   2.099   5.995
11041TIP3   OH233063   6.154   2.073   5.650
11041TIP3    H133064   6.182   2.127   5.575
11041TIP3    H233065   6.119   2.136   5.712
11042TIP3   OH233066   6.818   2.218   5.894
11042TIP3    H133067   6.866   2.268   5.828
11042TIP3    H233068   6.855   2.247   5.977
11043TIP3   OH233069   7.318   2.366   5.871
11043TIP3    H133070   7.333   2.332   5.783
11043TIP3    H233071   7.321   2.289   5.928
11044TIP3   OH233072   7.374   2.307   5.438
11044TIP3    H133073   7.294   2.356   5.460
11044TIP3    H233074   7.362   2.221   5.478
11045TIP3   OH233075   5.840   3.653   5.421
11045TIP3    H133076   5.756   3.620   5.388
11045TIP3    H233077   5.843   3.743   5.389
11046TIP3   OH233078   6.268   2.214   5.419
11046TIP3    H133079   6.313   2.155   5.360
11046TIP3    H233080   6.336   2.271   5.454
11047TIP3   OH233081   6.761   2.407   5.516
11047TIP3    H133082   6.821   2.358   5.573
11047TIP3    H233083   6.772   2.498   5.541
11048TIP3   OH233084   6.637   3.808   5.010
11048TIP3    H133085   6.721   3.836   4.973
11048TIP3    H233086   6.609   3.736   4.954
11049TIP3   OH233087   7.355   3.948   5.107
11049TIP3    H133088   7.344   3.853   5.105
11049TIP3    H233089   7.300   3.981   5.036
11050TIP3   OH233090   6.563   2.460   6.885
11050TIP3    H133091   6.529   2.393   6.944
11050TIP3    H233092   6.656   2.468   6.909
11051TIP3   OH233093   6.813   2.466   7.006
11051TIP3    H133094   6.892   2.444   6.957
11051TIP3    H233095   6.806   2.398   7.073
11052TIP3   OH233096   5.939   3.649   5.068
11052TIP3    H133097   5.940   3.662   5.162
11052TIP3    H233098   6.022   3.604   5.049
11053TIP3   OH233099   7.633   2.557   6.788
11053TIP3    H133100   7.648   2.525   6.877
11053TIP3    H233101   7.719   2.553   6.746
11054TIP3   OH233102   7.561   4.088   6.297
11054TIP3    H133103   7.485   4.057   6.248
11054TIP3    H233104   7.546   4.182   6.308
11055TIP3   OH233105   0.215   3.476   5.387
11055TIP3    H133106   0.261   3.541   5.440
11055TIP3    H233107   0.263   3.473   5.305
11056TIP3   OH233108   8.115   3.316   5.823
11056TIP3    H133109   8.150   3.278   5.903
11056TIP3    H233110   8.192   3.344   5.773
11057TIP3   OH233111   8.088   3.767   5.523
11057TIP3    H133112   8.080   3.672   5.528
11057TIP3    H233113   8.181   3.782   5.506
11058TIP3   OH233114   7.778   2.965   5.292
11058TIP3    H133115   7.740   3.049   5.317
11058TIP3    H233116   7.706   2.917   5.250
11059TIP3   OH233117   7.878   3.262   5.494
11059TIP3    H133118   7.924   3.182   5.519
11059TIP3    H233119   7.946   3.318   5.454
11060TIP3   OH233120   0.052   4.129   5.115
11060TIP3    H133121   0.146   4.120   5.098
11060TIP3    H233122   0.042   4.101   5.206
11061TIP3   OH233123  -0.031   3.758   5.573
11061TIP3    H133124   0.010   3.744   5.488
11061TIP3    H233125   0.035   3.804   5.624
11062TIP3   OH233126   8.260   2.847   5.512
11062TIP3    H133127   8.338   2.899   5.490
11062TIP3    H233128   8.261   2.775   5.448
11063TIP3   OH233129   8.014   3.040   5.579
11063TIP3    H133130   8.089   3.022   5.636
11063TIP3    H233131   8.032   2.990   5.499
11064TIP3   OH233132   8.446   3.245   5.309
11064TIP3    H133133   8.489   3.236   5.394
11064TIP3    H233134   8.382   3.175   5.306
11065TIP3   OH233135   8.380   2.836   5.940
11065TIP3    H133136   8.324   2.875   5.873
11065TIP3    H233137   8.332   2.848   6.022
11066TIP3   OH233138   0.176   3.834   4.897
11066TIP3    H133139   0.207   3.758   4.848
11066TIP3    H233140   0.102   3.803   4.948
11067TIP3   OH233141   8.459   3.600   5.767
11067TIP3    H133142   8.389   3.657   5.800
11067TIP3    H233143   8.500   3.651   5.697
11068TIP3   OH233144   8.225   2.955   5.749
11068TIP3    H133145   8.286   3.029   5.754
11068TIP3    H233146   8.246   2.914   5.665
11069TIP3   OH233147   8.286   3.809   5.799
11069TIP3    H133148   8.272   3.894   5.759
11069TIP3    H233149   8.209   3.796   5.856
11070TIP3   OH233150   7.698   3.512   5.044
11070TIP3    H133151   7.657   3.529   4.959
11070TIP3    H233152   7.730   3.598   5.072
11071TIP3   OH233153   0.112   3.407   4.886
11071TIP3    H133154   0.020   3.384   4.904
11071TIP3    H233155   0.148   3.329   4.843
11072TIP3   OH233156   8.194   3.372   5.285
11072TIP3    H133157   8.164   3.333   5.203
11072TIP3    H233158   8.288   3.353   5.287
11073TIP3   OH233159   8.343   3.825   5.423
11073TIP3    H133160   8.353   3.769   5.345
11073TIP3    H233161   8.415   3.799   5.480
11074TIP3   OH233162   8.339   3.380   5.660
11074TIP3    H133163   8.401   3.371   5.587
11074TIP3    H233164   8.370   3.458   5.707
11075TIP3   OH233165   0.260   3.901   5.506
11075TIP3    H133166   0.295   3.989   5.517
11075TIP3    H233167   0.336   3.843   5.519
11076TIP3   OH233168   8.488   3.920   5.944
11076TIP3    H133169   8.430   3.978   5.993
11076TIP3    H233170   8.430   3.868   5.889
11077TIP3   OH233171   8.264   3.499   6.055
11077TIP3    H133172   8.263   3.583   6.100
11077TIP3    H233173   8.175   3.465   6.067
11078TIP3   OH233174   8.480   3.975   4.974
11078TIP3    H133175   8.532   4.028   5.035
11078TIP3    H233176   8.441   4.039   4.914
11079TIP3   OH233177   8.297   4.087   6.042
11079TIP3    H133178   8.265   4.091   5.952
11079TIP3    H233179   8.219   4.068   6.094
11080TIP3   OH233180   8.102   3.225   5.059
11080TIP3    H133181   8.024   3.269   5.025
11080TIP3    H233182   8.067   3.148   5.104
11081TIP3   OH233183   7.892   3.623   5.988
11081TIP3    H133184   7.825   3.604   5.923
11081TIP3    H233185   7.929   3.538   6.011
11082TIP3   OH233186   7.764   3.809   5.621
11082TIP3    H133187   7.859   3.804   5.611
11082TIP3    H233188   7.751   3.884   5.680
11083TIP3   OH233189   0.063   4.088   5.827
11083TIP3    H133190   0.054   4.174   5.869
11083TIP3    H233191   0.002   4.032   5.873
11084TIP3   OH233192   8.409   4.170   4.801
11084TIP3    H133193   8.397   4.148   4.708
11084TIP3    H233194   8.413   4.265   4.803
11085TIP3   OH233195   7.918   4.013   5.152
11085TIP3    H133196   7.962   4.006   5.237
11085TIP3    H233197   7.872   3.930   5.141
11086TIP3   OH233198   0.054   4.065   4.485
11086TIP3    H133199   0.073   4.012   4.408
11086TIP3    H233200   0.139   4.085   4.523
11087TIP3   OH233201   0.122   4.088   4.804
11087TIP3    H133202   0.057   4.150   4.837
11087TIP3    H233203   0.105   4.007   4.852
11088TIP3   OH233204   8.079   3.822   5.973
11088TIP3    H133205   8.131   3.809   6.052
11088TIP3    H233206   8.012   3.753   5.978
11089TIP3   OH233207   8.447   2.588   5.806
11089TIP3    H133208   8.362   2.571   5.765
11089TIP3    H233209   8.442   2.679   5.835
11090TIP3   OH233210   8.406   3.152   5.809
11090TIP3    H133211   8.355   3.167   5.889
11090TIP3    H233212   8.394   3.232   5.758
11091TIP3   OH233213   8.266   3.048   5.257
11091TIP3    H133214   8.191   3.012   5.304
11091TIP3    H233215   8.261   3.009   5.170
11092TIP3   OH233216   8.247   3.172   6.034
11092TIP3    H133217   8.266   3.227   6.110
11092TIP3    H233218   8.228   3.085   6.072
11093TIP3   OH233219   8.266   2.663   4.737
11093TIP3    H133220   8.260   2.654   4.832
11093TIP3    H233221   8.179   2.694   4.711
11094TIP3   OH233222   7.844   2.690   5.576
11094TIP3    H133223   7.908   2.729   5.636
11094TIP3    H233224   7.893   2.674   5.496
11095TIP3   OH233225   7.769   2.670   5.092
11095TIP3    H133226   7.813   2.704   5.014
11095TIP3    H233227   7.706   2.738   5.116
11096TIP3   OH233228   0.086   2.863   5.386
11096TIP3    H133229   0.020   2.859   5.317
11096TIP3    H233230   0.042   2.829   5.463
11097TIP3   OH233231   8.039   2.916   5.328
11097TIP3    H133232   7.946   2.927   5.311
11097TIP3    H233233   8.056   2.823   5.311
11098TIP3   OH233234   8.274   2.889   5.024
11098TIP3    H133235   8.350   2.943   5.000
11098TIP3    H233236   8.207   2.912   4.960
11099TIP3   OH233237   8.108   2.960   4.826
11099TIP3    H133238   8.054   2.898   4.777
11099TIP3    H233239   8.181   2.980   4.767
11100TIP3   OH233240   8.246   3.741   6.195
11100TIP3    H133241   8.327   3.753   6.245
11100TIP3    H233242   8.177   3.739   6.262
11101TIP3   OH233243   6.321   0.687   0.022
11101TIP3    H133244   6.360   0.629  -0.043
11101TIP3    H233245   6.302   0.630   0.097
11102TIP3   OH233246   8.246   2.646   5.327
11102TIP3    H133247   8.196   2.576   5.368
11102TIP3    H233248   8.330   2.605   5.305
11103TIP3   OH233249   0.057   3.113   5.931
11103TIP3    H133250  -0.031   3.137   5.903
11103TIP3    H233251   0.103   3.093   5.850
11104TIP3   OH233252   8.436   3.403   4.915
11104TIP3    H133253   8.357   3.351   4.898
11104TIP3    H233254   8.406   3.472   4.974
11105TIP3   OH233255   0.164   3.834   5.777
11105TIP3    H133256   0.199   3.809   5.863
11105TIP3    H233257   0.129   3.922   5.790
11106TIP3   OH233258   8.112   3.489   5.516
11106TIP3    H133259   8.135   3.459   5.428
11106TIP3    H233260   8.177   3.448   5.573
11107TIP3   OH233261   8.545   3.576   4.663
11107TIP3    H133262   8.486   3.652   4.662
11107TIP3    H233263   8.578   3.573   4.753
11108TIP3   OH233264   8.007   3.406   6.121
11108TIP3    H133265   8.022   3.395   6.215
11108TIP3    H233266   7.936   3.345   6.101
11109TIP3   OH233267   0.100   3.536   6.118
11109TIP3    H133268   0.018   3.490   6.134
11109TIP3    H233269   0.164   3.467   6.098
11110TIP3   OH233270   0.412   3.982   5.795
11110TIP3    H133271   0.336   3.930   5.768
11110TIP3    H233272   0.382   4.031   5.871
11111TIP3   OH233273   8.209   3.819   5.132
11111TIP3    H133274   8.218   3.900   5.083
11111TIP3    H233275   8.116   3.811   5.150
11112TIP3   OH233276   7.796   3.092   4.863
11112TIP3    H133277   7.841   3.174   4.883
11112TIP3    H233278   7.717   3.095   4.916
11113TIP3   OH233279   8.333   3.583   5.086
11113TIP3    H133280   8.278   3.660   5.097
11113TIP3    H233281   8.377   3.572   5.171
11114TIP3   OH233282   8.489   4.147   5.617
11114TIP3    H133283   8.524   4.217   5.562
11114TIP3    H233284   8.562   4.123   5.675
11115TIP3   OH233285   8.140   4.060   4.998
11115TIP3    H133286   8.060   4.056   5.050
11115TIP3    H233287   8.170   4.151   5.005
11116TIP3   OH233288   8.207   2.895   6.148
11116TIP3    H133289   8.113   2.914   6.145
11116TIP3    H233290   8.216   2.831   6.218
11117TIP3   OH233291   7.938   4.014   5.777
11117TIP3    H133292   7.985   3.946   5.826
11117TIP3    H233293   7.954   4.094   5.827
11118TIP3   OH233294   8.224   3.636   4.443
11118TIP3    H133295   8.201   3.549   4.408
11118TIP3    H233296   8.242   3.621   4.536
11119TIP3   OH233297   8.085   3.678   4.792
11119TIP3    H133298   8.172   3.646   4.767
11119TIP3    H233299   8.091   3.773   4.786
11120TIP3   OH233300   7.888   3.343   4.938
11120TIP3    H133301   7.826   3.389   4.994
11120TIP3    H233302   7.900   3.400   4.863
11121TIP3   OH233303   8.329   3.779   4.673
11121TIP3    H133304   8.259   3.839   4.698
11121TIP3    H233305   8.409   3.830   4.682
11122TIP3   OH233306   8.130   3.947   4.751
11122TIP3    H133307   8.112   4.019   4.691
11122TIP3    H233308   8.141   3.989   4.836
11123TIP3   OH233309   8.273   2.611   5.005
11123TIP3    H133310   8.266   2.700   5.039
11123TIP3    H233311   8.366   2.590   5.013
11124TIP3   OH233312   7.885   3.516   4.719
11124TIP3    H133313   7.949   3.582   4.746
11124TIP3    H233314   7.933   3.461   4.656
11125TIP3   OH233315   7.821   2.818   4.867
11125TIP3    H133316   7.836   2.912   4.875
11125TIP3    H233317   7.740   2.810   4.817
11126TIP3   OH233318   8.191   2.533   5.727
11126TIP3    H133319   8.174   2.506   5.637
11126TIP3    H233320   8.191   2.451   5.777
11127TIP3   OH233321   7.758   3.785   5.112
11127TIP3    H133322   7.697   3.806   5.183
11127TIP3    H233323   7.716   3.822   5.033
11128TIP3   OH233324   7.943   4.324   6.193
11128TIP3    H133325   8.026   4.329   6.241
11128TIP3    H233326   7.925   4.230   6.186
11129TIP3   OH233327   8.411   4.247   6.235
11129TIP3    H133328   8.499   4.210   6.248
11129TIP3    H233329   8.375   4.196   6.162
11130TIP3   OH233330   8.377   3.860   4.401
11130TIP3    H133331   8.314   3.799   4.439
11130TIP3    H233332   8.463   3.825   4.425
11131TIP3   OH233333   8.042   3.728   6.384
11131TIP3    H133334   8.065   3.635   6.390
11131TIP3    H233335   7.957   3.729   6.341
11132TIP3   OH233336   8.033   3.331   4.580
11132TIP3    H133337   8.081   3.299   4.656
11132TIP3    H233338   8.101   3.351   4.516
11133TIP3   OH233339   0.021   3.797   6.144
11133TIP3    H133340  -0.023   3.823   6.063
11133TIP3    H233341   0.053   3.708   6.126
11134TIP3   OH233342   0.043   3.469   4.431
11134TIP3    H133343   0.006   3.475   4.519
11134TIP3    H233344   0.068   3.377   4.423
11135TIP3   OH233345   8.154   3.476   6.379
11135TIP3    H133346   8.215   3.411   6.345
11135TIP3    H233347   8.188   3.497   6.466
11136TIP3   OH233348   8.209   3.262   4.807
11136TIP3    H133349   8.169   3.238   4.891
11136TIP3    H233350   8.254   3.183   4.778
11137TIP3   OH233351   8.492   3.348   6.058
11137TIP3    H133352   8.413   3.402   6.051
11137TIP3    H233353   8.536   3.359   5.973
11138TIP3   OH233354   8.334   3.040   4.689
11138TIP3    H133355   8.278   3.037   4.612
11138TIP3    H233356   8.411   2.987   4.665
11139TIP3   OH233357   8.542   3.107   6.194
11139TIP3    H133358   8.606   3.078   6.128
11139TIP3    H233359   8.509   3.190   6.160
11140TIP3   OH233360   0.039   2.824   5.856
11140TIP3    H133361   0.056   2.894   5.793
11140TIP3    H233362  -0.053   2.835   5.879
11141TIP3   OH233363   0.023   3.388   5.823
11141TIP3    H133364   0.087   3.384   5.751
11141TIP3    H233365  -0.026   3.468   5.807
11142TIP3   OH233366   8.334   3.281   6.306
11142TIP3    H133367   8.351   3.194   6.343
11142TIP3    H233368   8.420   3.321   6.296
11143TIP3   OH233369   0.149   2.600   6.002
11143TIP3    H133370   0.136   2.689   5.968
11143TIP3    H233371   0.062   2.574   6.033
11144TIP3   OH233372   0.267   3.161   6.272
11144TIP3    H133373   0.329   3.089   6.266
11144TIP3    H233374   0.204   3.133   6.338
11145TIP3   OH233375   8.359   3.015   6.419
11145TIP3    H133376   8.418   2.988   6.349
11145TIP3    H233377   8.409   3.003   6.499
11146TIP3   OH233378   6.367   0.355   1.005
11146TIP3    H133379   6.392   0.267   1.034
11146TIP3    H233380   6.359   0.405   1.087
11147TIP3   OH233381   8.121   4.161   4.577
11147TIP3    H133382   8.216   4.148   4.573
11147TIP3    H233383   8.099   4.199   4.492
11148TIP3   OH233384   7.621   3.505   4.764
11148TIP3    H133385   7.715   3.519   4.751
11148TIP3    H233386   7.603   3.419   4.725
11149TIP3   OH233387   7.561   4.102   5.189
11149TIP3    H133388   7.487   4.049   5.159
11149TIP3    H233389   7.601   4.050   5.258
11150TIP3   OH233390   7.686   3.953   5.382
11150TIP3    H133391   7.676   3.879   5.442
11150TIP3    H233392   7.739   4.016   5.430
11151TIP3   OH233393   7.860   3.369   5.747
11151TIP3    H133394   7.854   3.336   5.657
11151TIP3    H233395   7.952   3.361   5.769
11152TIP3   OH233396   8.088   3.052   6.394
11152TIP3    H133397   8.183   3.043   6.401
11152TIP3    H233398   8.053   2.976   6.442
11153TIP3   OH233399   8.032   2.755   5.770
11153TIP3    H133400   8.090   2.680   5.760
11153TIP3    H233401   8.091   2.831   5.771
11154TIP3   OH233402   7.842   3.027   5.805
11154TIP3    H133403   7.888   3.018   5.721
11154TIP3    H233404   7.879   3.106   5.844
11155TIP3   OH233405   7.831   2.525   5.315
11155TIP3    H133406   7.745   2.519   5.356
11155TIP3    H233407   7.818   2.582   5.239
11156TIP3   OH233408   8.033   2.577   6.126
11156TIP3    H133409   7.992   2.585   6.212
11156TIP3    H233410   7.981   2.633   6.069
11157TIP3   OH233411   8.084   4.046   6.213
11157TIP3    H133412   7.991   4.025   6.202
11157TIP3    H233413   8.103   4.024   6.304
11158TIP3   OH233414   8.265   4.084   5.762
11158TIP3    H133415   8.209   4.153   5.726
11158TIP3    H233416   8.349   4.097   5.718
11159TIP3   OH233417   0.061   4.333   5.947
11159TIP3    H133418   0.104   4.327   6.032
11159TIP3    H233419   0.111   4.400   5.900
11160TIP3   OH233420   0.210   4.525   5.809
11160TIP3    H133421   0.245   4.470   5.739
11160TIP3    H233422   0.280   4.587   5.829
11161TIP3   OH233423   7.944   4.340   5.803
11161TIP3    H133424   7.852   4.361   5.783
11161TIP3    H233425   7.968   4.403   5.871
11162TIP3   OH233426   8.159   4.306   5.642
11162TIP3    H133427   8.077   4.318   5.690
11162TIP3    H233428   8.139   4.336   5.553
11163TIP3   OH233429   8.558   4.365   5.461
11163TIP3    H133430   8.482   4.381   5.404
11163TIP3    H233431   8.568   4.447   5.510
11164TIP3   OH233432   0.297   4.173   5.511
11164TIP3    H133433   0.281   4.267   5.510
11164TIP3    H233434   0.347   4.156   5.431
11165TIP3   OH233435   7.866   4.120   5.530
11165TIP3    H133436   7.888   4.090   5.618
11165TIP3    H233437   7.936   4.084   5.475
11166TIP3   OH233438   8.060   4.002   5.383
11166TIP3    H133439   8.068   3.919   5.429
11166TIP3    H233440   8.148   4.039   5.386
11167TIP3   OH233441   8.322   4.098   5.398
11167TIP3    H133442   8.339   4.005   5.383
11167TIP3    H233443   8.374   4.120   5.475
11168TIP3   OH233444   8.141   2.430   5.475
11168TIP3    H133445   8.051   2.399   5.483
11168TIP3    H233446   8.194   2.350   5.474
11169TIP3   OH233447   7.951   2.330   5.151
11169TIP3    H133448   7.977   2.380   5.074
11169TIP3    H233449   7.915   2.394   5.211
11170TIP3   OH233450   8.497   2.539   5.307
11170TIP3    H133451   8.560   2.551   5.236
11170TIP3    H233452   8.503   2.446   5.329
11171TIP3   OH233453   7.633   3.916   4.899
11171TIP3    H133454   7.553   3.890   4.854
11171TIP3    H233455   7.607   3.991   4.954
11172TIP3   OH233456   8.056   2.460   4.926
11172TIP3    H133457   8.100   2.398   4.867
11172TIP3    H233458   8.127   2.512   4.964
11173TIP3   OH233459   8.388   4.100   4.538
11173TIP3    H133460   8.482   4.110   4.523
11173TIP3    H233461   8.364   4.022   4.489
11174TIP3   OH233462   8.307   2.697   6.369
11174TIP3    H133463   8.309   2.623   6.429
11174TIP3    H233464   8.329   2.773   6.424
11175TIP3   OH233465   0.037   2.765   6.482
11175TIP3    H133466   0.129   2.791   6.476
11175TIP3    H233467   0.037   2.670   6.469
11176TIP3   OH233468   7.736   3.915   4.583
11176TIP3    H133469   7.735   3.891   4.675
11176TIP3    H233470   7.814   3.873   4.547
11177TIP3   OH233471   1.295   4.261   6.738
11177TIP3    H133472   1.264   4.349   6.715
11177TIP3    H233473   1.223   4.203   6.713
11178TIP3   OH233474   7.015   0.202   0.103
11178TIP3    H133475   7.074   0.188   0.177
11178TIP3    H233476   6.974   0.117   0.087
11179TIP3   OH233477   6.355   0.073   0.437
11179TIP3    H133478   6.349   0.009   0.508
11179TIP3    H233479   6.403   0.147   0.475
11180TIP3   OH233480   1.554   4.561   6.826
11180TIP3    H133481   1.543   4.496   6.895
11180TIP3    H233482   1.577   4.641   6.872
11181TIP3   OH233483   6.319   0.473   0.199
11181TIP3    H133484   6.292   0.381   0.204
11181TIP3    H233485   6.412   0.469   0.176
11182TIP3   OH233486   3.181   8.092   0.169
11182TIP3    H133487   3.222   8.020   0.216
11182TIP3    H233488   3.245   8.164   0.174
11183TIP3   OH233489   1.202   5.002   6.834
11183TIP3    H133490   1.233   4.933   6.776
11183TIP3    H233491   1.204   4.963   6.921
11184TIP3   OH233492   6.836   0.418   0.144
11184TIP3    H133493   6.879   0.340   0.108
11184TIP3    H233494   6.909   0.473   0.175
11185TIP3   OH233495   4.988   7.853   0.135
11185TIP3    H133496   5.006   7.937   0.176
11185TIP3    H233497   5.017   7.864   0.044
11186TIP3   OH233498   4.360   8.017   0.177
11186TIP3    H133499   4.403   7.932   0.188
11186TIP3    H233500   4.326   8.016   0.087
11187TIP3   OH233501   3.726   7.691   0.124
11187TIP3    H133502   3.707   7.766   0.068
11187TIP3    H233503   3.670   7.621   0.091
11188TIP3   OH233504   1.551   3.729   6.783
11188TIP3    H133505   1.623   3.719   6.844
11188TIP3    H233506   1.592   3.767   6.704
11189TIP3   OH233507   3.325   7.866   0.264
11189TIP3    H133508   3.414   7.878   0.297
11189TIP3    H233509   3.337   7.826   0.178
11190TIP3   OH233510   3.785   8.088   0.044
11190TIP3    H133511   3.878   8.068   0.049
11190TIP3    H233512   3.745   8.009   0.008
11191TIP3   OH233513   5.042   8.066   0.303
11191TIP3    H133514   4.960   8.116   0.295
11191TIP3    H233515   5.042   8.034   0.393
11192TIP3   OH233516   3.568   7.690   0.560
11192TIP3    H133517   3.579   7.748   0.484
11192TIP3    H233518   3.577   7.748   0.636
11193TIP3   OH233519   1.192   4.481   6.598
11193TIP3    H133520   1.154   4.451   6.516
11193TIP3    H233521   1.136   4.553   6.626
11194TIP3   OH233522   6.659   0.360   0.359
11194TIP3    H133523   6.597   0.424   0.393
11194TIP3    H233524   6.697   0.402   0.282
11195TIP3   OH233525   1.754   3.741   6.965
11195TIP3    H133526   1.695   3.722   7.038
11195TIP3    H233527   1.803   3.817   6.993
11196TIP3   OH233528   3.590   7.827   0.328
11196TIP3    H133529   3.646   7.900   0.355
11196TIP3    H233530   3.639   7.784   0.257
11197TIP3   OH233531   6.497   0.540   0.495
11197TIP3    H133532   6.455   0.614   0.451
11197TIP3    H233533   6.447   0.530   0.576
11198TIP3   OH233534   1.600   4.805   6.967
11198TIP3    H133535   1.513   4.796   7.007
11198TIP3    H233536   1.596   4.890   6.922
11199TIP3   OH233537   4.798   7.749   0.316
11199TIP3    H133538   4.704   7.767   0.304
11199TIP3    H233539   4.838   7.779   0.235
11200TIP3   OH233540   4.110   7.391   0.261
11200TIP3    H133541   4.097   7.297   0.246
11200TIP3    H233542   4.022   7.425   0.277
11201TIP3   OH233543   1.299   4.840   6.628
11201TIP3    H133544   1.351   4.760   6.617
11201TIP3    H233545   1.357   4.910   6.599
11202TIP3   OH233546   1.440   4.611   6.579
11202TIP3    H133547   1.368   4.549   6.577
11202TIP3    H233548   1.490   4.588   6.657
11203TIP3   OH233549   7.561   0.643   0.293
11203TIP3    H133550   7.545   0.570   0.234
11203TIP3    H233551   7.543   0.721   0.240
11204TIP3   OH233552   1.129   4.095   6.585
11204TIP3    H133553   1.049   4.146   6.573
11204TIP3    H233554   1.172   4.097   6.499
11205TIP3   OH233555   1.094   3.902   6.275
11205TIP3    H133556   1.159   3.953   6.323
11205TIP3    H233557   1.145   3.837   6.226
11206TIP3   OH233558   7.746   0.303   0.146
11206TIP3    H133559   7.662   0.349   0.148
11206TIP3    H233560   7.781   0.320   0.058
11207TIP3   OH233561   1.475   4.188   6.546
11207TIP3    H133562   1.420   4.218   6.619
11207TIP3    H233563   1.558   4.165   6.586
11208TIP3   OH233564   7.437   0.206   0.425
11208TIP3    H133565   7.429   0.286   0.476
11208TIP3    H233566   7.357   0.203   0.372
11209TIP3   OH233567   0.720   4.205   6.993
11209TIP3    H133568   0.657   4.147   6.951
11209TIP3    H233569   0.794   4.149   7.014
11210TIP3   OH233570   6.572   0.487   0.087
11210TIP3    H133571   6.555   0.499  -0.007
11210TIP3    H233572   6.666   0.469   0.092
11211TIP3   OH233573   6.633   0.093   0.297
11211TIP3    H133574   6.633   0.076   0.203
11211TIP3    H233575   6.634   0.188   0.304
11212TIP3   OH233576   7.096   0.740   0.075
11212TIP3    H133577   7.077   0.823   0.119
11212TIP3    H233578   7.078   0.673   0.141
11213TIP3   OH233579   6.713   0.651   0.619
11213TIP3    H133580   6.658   0.719   0.658
11213TIP3    H233581   6.653   0.598   0.567
11214TIP3   OH233582   1.311   4.049   6.374
11214TIP3    H133583   1.369   4.107   6.423
11214TIP3    H233584   1.338   4.059   6.283
11215TIP3   OH233585   6.427   0.240   0.695
11215TIP3    H133586   6.448   0.331   0.718
11215TIP3    H233587   6.336   0.228   0.722
11216TIP3   OH233588   1.048   4.722   6.635
11216TIP3    H133589   1.133   4.767   6.644
11216TIP3    H233590   0.993   4.783   6.587
11217TIP3   OH233591   6.513   0.830   0.683
11217TIP3    H133592   6.496   0.839   0.590
11217TIP3    H233593   6.428   0.807   0.721
11218TIP3   OH233594   1.823   3.286   6.433
11218TIP3    H133595   1.743   3.302   6.482
11218TIP3    H233596   1.838   3.367   6.384
11219TIP3   OH233597   0.539   4.034   6.885
11219TIP3    H133598   0.445   4.044   6.897
11219TIP3    H233599   0.548   3.978   6.808
11220TIP3   OH233600   1.636   4.649   5.986
11220TIP3    H133601   1.633   4.743   5.966
11220TIP3    H233602   1.725   4.623   5.966
11221TIP3   OH233603   7.792   1.010   0.354
11221TIP3    H133604   7.798   0.915   0.363
11221TIP3    H233605   7.712   1.034   0.400
11222TIP3   OH233606   6.905   0.777   0.472
11222TIP3    H133607   6.904   0.869   0.500
11222TIP3    H233608   6.834   0.736   0.522
11223TIP3   OH233609   0.944   4.952   6.460
11223TIP3    H133610   0.896   4.930   6.380
11223TIP3    H233611   0.907   5.037   6.487
11224TIP3   OH233612   1.144   4.870   6.094
11224TIP3    H133613   1.196   4.798   6.058
11224TIP3    H233614   1.180   4.883   6.182
11225TIP3   OH233615   1.197   4.919   6.361
11225TIP3    H133616   1.111   4.926   6.403
11225TIP3    H233617   1.254   4.885   6.430
11226TIP3   OH233618   7.705   0.139   0.630
11226TIP3    H133619   7.615   0.165   0.611
11226TIP3    H233620   7.711   0.049   0.598
11227TIP3   OH233621   3.854   7.492   0.259
11227TIP3    H133622   3.779   7.448   0.299
11227TIP3    H233623   3.817   7.573   0.222
11228TIP3   OH233624   4.313   7.691   0.639
11228TIP3    H133625   4.389   7.633   0.644
11228TIP3    H233626   4.238   7.633   0.641
11229TIP3   OH233627   4.622   8.079   0.546
11229TIP3    H133628   4.573   8.078   0.628
11229TIP3    H233629   4.588   8.154   0.498
11230TIP3   OH233630   1.389   4.048   6.114
11230TIP3    H133631   1.344   4.045   6.029
11230TIP3    H233632   1.471   4.094   6.096
11231TIP3   OH233633   1.095   3.452   6.426
11231TIP3    H133634   1.060   3.456   6.515
11231TIP3    H233635   1.060   3.372   6.389
11232TIP3   OH233636   3.750   7.998   0.469
11232TIP3    H133637   3.689   8.023   0.539
11232TIP3    H233638   3.751   8.074   0.410
11233TIP3   OH233639   0.765   3.821   6.975
11233TIP3    H133640   0.672   3.828   6.994
11233TIP3    H233641   0.770   3.782   6.888
11234TIP3   OH233642   1.253   3.894   6.716
11234TIP3    H133643   1.205   3.967   6.677
11234TIP3    H233644   1.311   3.863   6.646
11235TIP3   OH233645   7.148   0.125   0.765
11235TIP3    H133646   7.119   0.069   0.837
11235TIP3    H233647   7.243   0.132   0.776
11236TIP3   OH233648   1.414   3.919   6.941
11236TIP3    H133649   1.347   3.943   6.877
11236TIP3    H233650   1.457   3.843   6.903
11237TIP3   OH233651   3.557   8.018   0.668
11237TIP3    H133652   3.604   8.076   0.726
11237TIP3    H233653   3.494   7.972   0.724
11238TIP3   OH233654   0.763   3.420   6.403
11238TIP3    H133655   0.747   3.427   6.497
11238TIP3    H233656   0.690   3.469   6.363
11239TIP3   OH233657   3.151   7.566   0.194
11239TIP3    H133658   3.232   7.572   0.244
11239TIP3    H233659   3.163   7.489   0.138
11240TIP3   OH233660   0.267   3.514   6.847
11240TIP3    H133661   0.321   3.530   6.769
11240TIP3    H233662   0.197   3.578   6.841
11241TIP3   OH233663   7.196   0.145   0.305
11241TIP3    H133664   7.217   0.063   0.260
11241TIP3    H233665   7.142   0.118   0.380
11242TIP3   OH233666   3.990   7.680   0.008
11242TIP3    H133667   3.915   7.688   0.068
11242TIP3    H233668   4.065   7.669   0.066
11243TIP3   OH233669   3.384   7.735   0.028
11243TIP3    H133670   3.300   7.703  -0.007
11243TIP3    H233671   3.444   7.661   0.015
11244TIP3   OH233672   0.795   3.688   6.737
11244TIP3    H133673   0.889   3.702   6.735
11244TIP3    H233674   0.766   3.706   6.647
11245TIP3   OH233675   4.443   7.757   0.144
11245TIP3    H133676   4.467   7.745   0.236
11245TIP3    H233677   4.364   7.704   0.132
11246TIP3   OH233678   0.685   3.712   6.485
11246TIP3    H133679   0.627   3.664   6.426
11246TIP3    H233680   0.739   3.765   6.427
11247TIP3   OH233681   7.511   1.347   0.447
11247TIP3    H133682   7.506   1.367   0.354
11247TIP3    H233683   7.589   1.394   0.477
11248TIP3   OH233684   6.445   0.503   0.785
11248TIP3    H133685   6.520   0.541   0.831
11248TIP3    H233686   6.393   0.462   0.855
11249TIP3   OH233687   4.051   8.036   0.103
11249TIP3    H133688   4.123   7.985   0.065
11249TIP3    H233689   4.048   8.009   0.195
11250TIP3   OH233690   0.688   3.462   7.018
11250TIP3    H133691   0.648   3.388   7.064
11250TIP3    H233692   0.707   3.428   6.930
11251TIP3   OH233693   4.018   7.982   0.376
11251TIP3    H133694   3.927   8.000   0.401
11251TIP3    H233695   4.069   8.048   0.423
11252TIP3   OH233696   0.901   4.242   6.560
11252TIP3    H133697   0.835   4.172   6.555
11252TIP3    H233698   0.887   4.282   6.646
11253TIP3   OH233699   7.508   0.440   0.115
11253TIP3    H133700   7.542   0.490   0.041
11253TIP3    H233701   7.428   0.400   0.082
11254TIP3   OH233702   1.346   3.558   6.420
11254TIP3    H133703   1.253   3.537   6.420
11254TIP3    H233704   1.350   3.653   6.434
11255TIP3   OH233705   7.027   0.519   0.522
11255TIP3    H133706   7.066   0.516   0.609
11255TIP3    H233707   6.985   0.605   0.517
11256TIP3   OH233708   1.410   3.819   6.496
11256TIP3    H133709   1.506   3.826   6.504
11256TIP3    H233710   1.385   3.897   6.446
11257TIP3   OH233711   6.278   0.188   0.191
11257TIP3    H133712   6.344   0.175   0.122
11257TIP3    H233713   6.313   0.141   0.267
11258TIP3   OH233714   1.042   4.396   6.374
11258TIP3    H133715   0.997   4.481   6.371
11258TIP3    H233716   0.987   4.343   6.432
11259TIP3   OH233717   6.919   0.280   0.797
11259TIP3    H133718   6.869   0.258   0.718
11259TIP3    H233719   7.005   0.240   0.782
11260TIP3   OH233720   7.177   0.795   0.408
11260TIP3    H133721   7.082   0.785   0.409
11260TIP3    H233722   7.196   0.844   0.488
11261TIP3   OH233723   1.852   3.899   6.322
11261TIP3    H133724   1.802   3.845   6.260
11261TIP3    H233725   1.849   3.987   6.284
11262TIP3   OH233726   7.805   0.733   0.378
11262TIP3    H133727   7.711   0.716   0.375
11262TIP3    H233728   7.839   0.699   0.295
11263TIP3   OH233729   1.559   4.724   6.250
11263TIP3    H133730   1.532   4.654   6.310
11263TIP3    H233731   1.577   4.678   6.168
11264TIP3   OH233732   7.278   0.309   0.010
11264TIP3    H133733   7.185   0.291   0.026
11264TIP3    H233734   7.313   0.227  -0.024
11265TIP3   OH233735   0.720   4.608   6.836
11265TIP3    H133736   0.761   4.689   6.805
11265TIP3    H233737   0.665   4.580   6.763
11266TIP3   OH233738   0.130   3.925   6.463
11266TIP3    H133739   0.208   3.949   6.513
11266TIP3    H233740   0.092   3.852   6.512
11267TIP3   OH233741   0.855   4.360   6.803
11267TIP3    H133742   0.817   4.448   6.809
11267TIP3    H233743   0.809   4.310   6.870
11268TIP3   OH233744   6.704   0.869   0.274
11268TIP3    H133745   6.732   0.956   0.246
11268TIP3    H233746   6.781   0.832   0.318
11269TIP3   OH233747   0.589   4.853   6.689
11269TIP3    H133748   0.550   4.843   6.776
11269TIP3    H233749   0.636   4.936   6.692
11270TIP3   OH233750   7.075   0.518   0.250
11270TIP3    H133751   7.061   0.513   0.345
11270TIP3    H233752   7.157   0.471   0.235
11271TIP3   OH233753   1.320   4.459   6.143
11271TIP3    H133754   1.372   4.431   6.219
11271TIP3    H233755   1.236   4.416   6.155
11272TIP3   OH233756   7.316   1.030   0.290
11272TIP3    H133757   7.242   0.969   0.292
11272TIP3    H233758   7.296   1.089   0.217
11273TIP3   OH233759   1.640   4.923   5.950
11273TIP3    H133760   1.664   4.985   5.880
11273TIP3    H233761   1.567   4.966   5.995
11274TIP3   OH233762   3.572   7.728   0.835
11274TIP3    H133763   3.514   7.653   0.820
11274TIP3    H233764   3.631   7.700   0.904
11275TIP3   OH233765   1.494   4.371   6.336
11275TIP3    H133766   1.481   4.319   6.415
11275TIP3    H233767   1.590   4.378   6.328
11276TIP3   OH233768   0.729   4.407   6.126
11276TIP3    H133769   0.735   4.318   6.092
11276TIP3    H233770   0.739   4.397   6.221
11277TIP3   OH233771   0.741   4.411   6.397
11277TIP3    H133772   0.753   4.357   6.476
11277TIP3    H233773   0.792   4.490   6.415
11278TIP3   OH233774   0.352   4.154   6.675
11278TIP3    H133775   0.306   4.142   6.758
11278TIP3    H233776   0.355   4.248   6.662
11279TIP3   OH233777   4.507   7.763   0.402
11279TIP3    H133778   4.491   7.844   0.451
11279TIP3    H233779   4.469   7.694   0.456
11280TIP3   OH233780   1.411   3.509   6.687
11280TIP3    H133781   1.387   3.530   6.597
11280TIP3    H233782   1.450   3.590   6.721
11281TIP3   OH233783   0.901   4.634   6.362
11281TIP3    H133784   0.829   4.685   6.398
11281TIP3    H233785   0.934   4.687   6.289
11282TIP3   OH233786   1.067   3.703   6.775
11282TIP3    H133787   1.129   3.772   6.751
11282TIP3    H233788   1.084   3.686   6.868
11283TIP3   OH233789   7.062   0.040   0.516
11283TIP3    H133790   7.072   0.085   0.600
11283TIP3    H233791   7.123  -0.033   0.519
11284TIP3   OH233792   1.229   3.416   6.871
11284TIP3    H133793   1.210   3.496   6.919
11284TIP3    H233794   1.298   3.441   6.809
11285TIP3   OH233795   0.677   4.768   6.436
11285TIP3    H133796   0.648   4.848   6.392
11285TIP3    H233797   0.645   4.777   6.526
11286TIP3   OH233798   0.739   3.420   6.687
11286TIP3    H133799   0.731   3.513   6.709
11286TIP3    H233800   0.833   3.403   6.688
11287TIP3   OH233801   4.852   7.955   0.499
11287TIP3    H133802   4.764   7.991   0.510
11287TIP3    H233803   4.842   7.885   0.435
11288TIP3   OH233804   1.635   4.104   6.948
11288TIP3    H133805   1.559   4.046   6.953
11288TIP3    H233806   1.702   4.061   7.000
11289TIP3   OH233807   0.406   4.357   6.436
11289TIP3    H133808   0.418   4.444   6.398
11289TIP3    H233809   0.463   4.300   6.385
11290TIP3   OH233810   0.371   3.620   6.615
11290TIP3    H133811   0.336   3.705   6.642
11290TIP3    H233812   0.326   3.600   6.533
11291TIP3   OH233813   1.616   5.073   6.887
11291TIP3    H133814   1.573   5.124   6.818
11291TIP3    H233815   1.709   5.086   6.871
11292TIP3   OH233816   3.606   7.400   0.339
11292TIP3    H133817   3.554   7.371   0.264
11292TIP3    H233818   3.620   7.321   0.390
11293TIP3   OH233819   6.629   0.955   0.905
11293TIP3    H133820   6.723   0.941   0.892
11293TIP3    H233821   6.590   0.933   0.820
11294TIP3   OH233822   0.859   4.635   6.050
11294TIP3    H133823   0.813   4.558   6.084
11294TIP3    H233824   0.934   4.600   6.003
11295TIP3   OH233825   7.226   0.917   0.651
11295TIP3    H133826   7.238   0.846   0.713
11295TIP3    H233827   7.301   0.975   0.665
11296TIP3   OH233828   1.276   4.666   5.968
11296TIP3    H133829   1.310   4.601   6.030
11296TIP3    H233830   1.336   4.662   5.894
11297TIP3   OH233831   0.547   4.199   6.264
11297TIP3    H133832   0.589   4.152   6.336
11297TIP3    H233833   0.602   4.181   6.188
11298TIP3   OH233834   6.865   0.548   0.822
11298TIP3    H133835   6.821   0.567   0.739
11298TIP3    H233836   6.893   0.457   0.814
11299TIP3   OH233837   1.059   4.344   6.103
11299TIP3    H133838   1.040   4.353   6.196
11299TIP3    H233839   1.046   4.251   6.084
11300TIP3   OH233840   7.340   0.570   0.442
11300TIP3    H133841   7.416   0.602   0.393
11300TIP3    H233842   7.273   0.637   0.430
11301TIP3   OH233843   0.708   4.041   6.516
11301TIP3    H133844   0.655   3.979   6.566
11301TIP3    H233845   0.751   3.987   6.449
11302TIP3   OH233846   6.655   0.096   0.677
11302TIP3    H133847   6.579   0.154   0.685
11302TIP3    H233848   6.713   0.141   0.616
11303TIP3   OH233849   0.823   3.882   6.323
11303TIP3    H133850   0.791   3.882   6.232
11303TIP3    H233851   0.918   3.887   6.314
11304TIP3   OH233852   7.221   0.458   0.805
11304TIP3    H133853   7.288   0.415   0.752
11304TIP3    H233854   7.220   0.409   0.888
11305TIP3   OH233855   1.615   4.165   6.004
11305TIP3    H133856   1.601   4.125   5.918
11305TIP3    H233857   1.590   4.256   5.993
11306TIP3   OH233858   3.949   8.054   0.828
11306TIP3    H133859   3.992   7.995   0.766
11306TIP3    H233860   3.892   8.108   0.774
11307TIP3   OH233861   4.026   7.731   0.487
11307TIP3    H133862   4.038   7.803   0.425
11307TIP3    H233863   3.963   7.763   0.550
11308TIP3   OH233864   6.833   0.237   0.530
11308TIP3    H133865   6.915   0.227   0.481
11308TIP3    H233866   6.775   0.285   0.470
11309TIP3   OH233867   7.466   0.187   0.862
11309TIP3    H133868   7.542   0.139   0.895
11309TIP3    H233869   7.497   0.276   0.851
11310TIP3   OH233870   7.463   0.416   0.625
11310TIP3    H133871   7.409   0.474   0.572
11310TIP3    H233872   7.552   0.428   0.591
11311TIP3   OH233873   3.825   8.024   1.070
11311TIP3    H133874   3.731   8.020   1.052
11311TIP3    H233875   3.863   8.065   0.992
11312TIP3   OH233876   4.126   7.500   0.614
11312TIP3    H133877   4.071   7.563   0.567
11312TIP3    H233878   4.065   7.452   0.669
11313TIP3   OH233879   4.181   8.070   0.973
11313TIP3    H133880   4.143   8.107   1.053
11313TIP3    H233881   4.106   8.047   0.919
11314TIP3   OH233882   4.506   8.025   0.790
11314TIP3    H133883   4.462   7.973   0.857
11314TIP3    H233884   4.598   7.999   0.795
11315TIP3   OH233885   4.746   7.935   0.896
11315TIP3    H133886   4.800   7.861   0.924
11315TIP3    H233887   4.704   7.965   0.977
11316TIP3   OH233888   4.142   7.438   0.964
11316TIP3    H133889   4.224   7.396   0.939
11316TIP3    H233890   4.148   7.526   0.927
11317TIP3   OH233891   0.640   4.987   6.264
11317TIP3    H133892   0.728   4.976   6.226
11317TIP3    H233893   0.628   5.082   6.270
11318TIP3   OH233894   1.885   5.127   6.872
11318TIP3    H133895   1.905   5.161   6.959
11318TIP3    H233896   1.941   5.179   6.813
11319TIP3   OH233897   7.633   1.108   0.132
11319TIP3    H133898   7.585   1.025   0.126
11319TIP3    H233899   7.705   1.090   0.193
11320TIP3   OH233900   7.680   0.806   0.697
11320TIP3    H133901   7.608   0.817   0.759
11320TIP3    H233902   7.726   0.889   0.699
11321TIP3   OH233903   1.775   4.367   6.332
11321TIP3    H133904   1.832   4.438   6.302
11321TIP3    H233905   1.820   4.332   6.410
11322TIP3   OH233906   1.903   4.231   6.539
11322TIP3    H133907   1.835   4.196   6.597
11322TIP3    H233908   1.966   4.271   6.599
11323TIP3   OH233909   1.950   4.632   6.970
11323TIP3    H133910   2.003   4.565   6.927
11323TIP3    H233911   1.949   4.705   6.908
11324TIP3   OH233912   7.493   0.866   0.144
11324TIP3    H133913   7.423   0.909   0.192
11324TIP3    H233914   7.449   0.824   0.070
11325TIP3   OH233915   1.821   4.138   6.185
11325TIP3    H133916   1.752   4.139   6.118
11325TIP3    H233917   1.805   4.216   6.238
11326TIP3   OH233918   1.697   3.784   6.130
11326TIP3    H133919   1.654   3.840   6.065
11326TIP3    H233920   1.664   3.696   6.111
11327TIP3   OH233921   1.702   4.094   6.679
11327TIP3    H133922   1.706   3.999   6.669
11327TIP3    H233923   1.683   4.107   6.772
11328TIP3   OH233924   7.713   0.458   0.514
11328TIP3    H133925   7.785   0.398   0.494
11328TIP3    H233926   7.714   0.521   0.443
11329TIP3   OH233927   7.905   0.263   0.498
11329TIP3    H133928   7.833   0.217   0.540
11329TIP3    H233929   7.984   0.213   0.521
11330TIP3   OH233930   1.625   3.519   6.111
11330TIP3    H133931   1.669   3.487   6.190
11330TIP3    H233932   1.536   3.487   6.118
11331TIP3   OH233933   1.696   3.814   6.556
11331TIP3    H133934   1.739   3.730   6.572
11331TIP3    H233935   1.745   3.852   6.483
11332TIP3   OH233936   4.719   8.033   0.056
11332TIP3    H133937   4.800   8.054   0.010
11332TIP3    H233938   4.728   8.074   0.142
11333TIP3   OH233939   7.653   0.083   0.279
11333TIP3    H133940   7.581   0.119   0.331
11333TIP3    H233941   7.689   0.159   0.234
11334TIP3   OH233942   5.290   7.905   0.783
11334TIP3    H133943   5.347   7.830   0.797
11334TIP3    H233944   5.270   7.903   0.689
11335TIP3   OH233945   1.804   3.561   6.614
11335TIP3    H133946   1.847   3.548   6.698
11335TIP3    H233947   1.740   3.490   6.608
11336TIP3   OH233948   3.379   7.578   0.351
11336TIP3    H133949   3.472   7.566   0.366
11336TIP3    H233950   3.365   7.672   0.357
11337TIP3   OH233951   5.153   7.925   0.536
11337TIP3    H133952   5.082   7.942   0.598
11337TIP3    H233953   5.129   7.843   0.493
11338TIP3   OH233954   1.890   3.490   6.252
11338TIP3    H133955   1.915   3.420   6.192
11338TIP3    H233956   1.882   3.568   6.197
11339TIP3   OH233957   0.273   3.304   7.023
11339TIP3    H133958   0.190   3.295   7.069
11339TIP3    H233959   0.260   3.377   6.962
11340TIP3   OH233960   1.446   5.035   6.517
11340TIP3    H133961   1.499   5.023   6.439
11340TIP3    H233962   1.491   5.104   6.567
11341TIP3   OH233963   6.468   0.821   0.412
11341TIP3    H133964   6.412   0.890   0.376
11341TIP3    H233965   6.550   0.829   0.364
11342TIP3   OH233966   6.908   1.038   0.553
11342TIP3    H133967   6.941   1.046   0.642
11342TIP3    H233968   6.969   1.089   0.500
11343TIP3   OH233969   7.117   1.177   0.446
11343TIP3    H133970   7.188   1.134   0.399
11343TIP3    H233971   7.159   1.249   0.493
11344TIP3   OH233972   4.975   7.675   0.515
11344TIP3    H133973   4.913   7.701   0.447
11344TIP3    H233974   5.019   7.598   0.479
11345TIP3   OH233975   6.342   1.056   0.323
11345TIP3    H133976   6.309   1.115   0.391
11345TIP3    H233977   6.300   1.087   0.242
11346TIP3   OH233978   6.806   1.105   0.140
11346TIP3    H133979   6.754   1.114   0.060
11346TIP3    H233980   6.802   1.190   0.182
11347TIP3   OH233981   7.060   1.003   0.154
11347TIP3    H133982   6.969   1.034   0.159
11347TIP3    H233983   7.108   1.077   0.116
11348TIP3   OH233984   7.268   1.188   0.068
11348TIP3    H133985   7.256   1.274   0.028
11348TIP3    H233986   7.293   1.131  -0.005
11349TIP3   OH233987   0.104   3.173   5.451
11349TIP3    H133988   0.153   3.243   5.495
11349TIP3    H233989   0.152   3.158   5.369
11350TIP3   OH233990   6.527   0.876   0.048
11350TIP3    H133991   6.456   0.811   0.047
11350TIP3    H233992   6.584   0.847   0.120
11351TIP3   OH233993   4.224   7.592   0.119
11351TIP3    H133994   4.190   7.522   0.174
11351TIP3    H233995   4.289   7.549   0.063
11352TIP3   OH233996   4.705   7.508   0.036
11352TIP3    H133997   4.746   7.557  -0.035
11352TIP3    H233998   4.612   7.528   0.028
11353TIP3   OH233999   1.974   3.505   6.823
11353TIP3    H134000   2.048   3.450   6.799
11353TIP3    H234001   2.007   3.595   6.818
11354TIP3   OH234002   3.460   7.298   0.130
11354TIP3    H134003   3.375   7.255   0.140
11354TIP3    H234004   3.520   7.227   0.105
11355TIP3   OH234005   0.413   3.136   6.844
11355TIP3    H134006   0.439   3.185   6.766
11355TIP3    H234007   0.370   3.200   6.901
11356TIP3   OH234008   3.925   7.343   0.028
11356TIP3    H134009   3.986   7.395  -0.024
11356TIP3    H234010   3.903   7.400   0.102
11357TIP3   OH234011   1.563   3.415   7.008
11357TIP3    H134012   1.581   3.372   6.925
11357TIP3    H234013   1.566   3.345   7.073
11358TIP3   OH234014   1.624   3.349   6.613
11358TIP3    H134015   1.544   3.398   6.634
11358TIP3    H234016   1.610   3.263   6.652
11359TIP3   OH234017   0.532   3.251   6.606
11359TIP3    H134018   0.578   3.187   6.553
11359TIP3    H234019   0.601   3.308   6.641
11360TIP3   OH234020   1.014   3.448   6.690
11360TIP3    H134021   1.074   3.399   6.747
11360TIP3    H234022   1.029   3.540   6.713
11361TIP3   OH234023   0.882   4.880   6.181
11361TIP3    H134024   0.970   4.898   6.148
11361TIP3    H234025   0.853   4.804   6.130
11362TIP3   OH234026   1.593   4.992   6.286
11362TIP3    H134027   1.587   4.897   6.278
11362TIP3    H234028   1.550   5.026   6.207
11363TIP3   OH234029   4.706   7.629   1.010
11363TIP3    H134030   4.703   7.635   1.105
11363TIP3    H234031   4.793   7.660   0.986
11364TIP3   OH234032   7.541   1.074   0.452
11364TIP3    H134033   7.466   1.044   0.400
11364TIP3    H234034   7.531   1.169   0.457
11365TIP3   OH234035   3.075   4.502   6.226
11365TIP3    H134036   3.045   4.592   6.213
11365TIP3    H234037   3.014   4.448   6.175
11366TIP3   OH234038   3.091   4.510   6.632
11366TIP3    H134039   3.134   4.489   6.714
11366TIP3    H234040   3.043   4.431   6.608
11367TIP3   OH234041   2.382   4.375   6.984
11367TIP3    H134042   2.417   4.324   7.057
11367TIP3    H234043   2.459   4.403   6.934
11368TIP3   OH234044   3.352   4.817   6.313
11368TIP3    H134045   3.332   4.755   6.383
11368TIP3    H234046   3.372   4.899   6.359
11369TIP3   OH234047   2.367   4.802   6.686
11369TIP3    H134048   2.351   4.708   6.690
11369TIP3    H234049   2.462   4.810   6.671
11370TIP3   OH234050   2.057   4.006   6.468
11370TIP3    H134051   2.027   4.093   6.494
11370TIP3    H234052   1.981   3.965   6.428
11371TIP3   OH234053   2.136   4.313   6.673
11371TIP3    H134054   2.187   4.238   6.702
11371TIP3    H234055   2.201   4.378   6.647
11372TIP3   OH234056   3.001   5.253   6.321
11372TIP3    H134057   3.028   5.189   6.255
11372TIP3    H234058   2.998   5.203   6.403
11373TIP3   OH234059   2.883   4.735   6.649
11373TIP3    H134060   2.924   4.660   6.606
11373TIP3    H234061   2.957   4.787   6.681
11374TIP3   OH234062   3.928   4.112   6.638
11374TIP3    H134063   3.843   4.083   6.604
11374TIP3    H234064   3.991   4.087   6.571
11375TIP3   OH234065   3.315   4.218   6.668
11375TIP3    H134066   3.338   4.131   6.700
11375TIP3    H234067   3.262   4.201   6.590
11376TIP3   OH234068   2.659   3.890   6.658
11376TIP3    H134069   2.632   3.958   6.595
11376TIP3    H234070   2.621   3.809   6.623
11377TIP3   OH234071   3.340   3.981   6.277
11377TIP3    H134072   3.405   3.970   6.346
11377TIP3    H234073   3.388   4.019   6.204
11378TIP3   OH234074   2.276   4.094   6.770
11378TIP3    H134075   2.358   4.082   6.816
11378TIP3    H234076   2.283   4.038   6.692
11379TIP3   OH234077   2.700   4.294   6.587
11379TIP3    H134078   2.795   4.280   6.591
11379TIP3    H234079   2.664   4.212   6.553
11380TIP3   OH234080   5.498   7.934   0.074
11380TIP3    H134081   5.445   7.975   0.005
11380TIP3    H234082   5.448   7.950   0.155
11381TIP3   OH234083   2.945   4.722   6.118
11381TIP3    H134084   2.933   4.706   6.025
11381TIP3    H234085   2.904   4.807   6.134
11382TIP3   OH234086   2.731   4.657   6.867
11382TIP3    H134087   2.676   4.728   6.901
11382TIP3    H234088   2.777   4.697   6.793
11383TIP3   OH234089   3.508   3.991   6.492
11383TIP3    H134090   3.471   3.969   6.578
11383TIP3    H234091   3.573   4.059   6.510
11384TIP3   OH234092   2.519   3.997   6.871
11384TIP3    H134093   2.572   4.072   6.898
11384TIP3    H234094   2.570   3.956   6.801
11385TIP3   OH234095   2.572   4.859   6.971
11385TIP3    H134096   2.555   4.947   6.936
11385TIP3    H234097   2.494   4.839   7.022
11386TIP3   OH234098   1.948   4.557   6.218
11386TIP3    H134099   1.914   4.574   6.130
11386TIP3    H234100   1.972   4.643   6.252
11387TIP3   OH234101   3.390   5.064   6.459
11387TIP3    H134102   3.302   5.055   6.496
11387TIP3    H234103   3.388   5.146   6.411
11388TIP3   OH234104   3.667   3.932   6.805
11388TIP3    H134105   3.575   3.956   6.797
11388TIP3    H234106   3.686   3.883   6.725
11389TIP3   OH234107   2.974   3.579   6.811
11389TIP3    H134108   2.968   3.487   6.836
11389TIP3    H234109   2.899   3.621   6.854
11390TIP3   OH234110   3.091   5.095   6.109
11390TIP3    H134111   3.140   5.014   6.098
11390TIP3    H234112   3.151   5.164   6.081
11391TIP3   OH234113   3.244   4.877   6.061
11391TIP3    H134114   3.255   4.806   5.998
11391TIP3    H234115   3.284   4.844   6.141
11392TIP3   OH234116   3.617   4.961   6.800
11392TIP3    H134117   3.602   4.888   6.740
11392TIP3    H234118   3.600   5.040   6.748
11393TIP3   OH234119   2.900   4.361   6.063
11393TIP3    H134120   2.830   4.419   6.033
11393TIP3    H234121   2.912   4.300   5.990
11394TIP3   OH234122   3.809   4.631   6.673
11394TIP3    H134123   3.726   4.678   6.670
11394TIP3    H234124   3.848   4.645   6.587
11395TIP3   OH234125   3.289   4.498   6.049
11395TIP3    H134126   3.219   4.495   6.114
11395TIP3    H234127   3.358   4.443   6.086
11396TIP3   OH234128   3.495   4.475   6.972
11396TIP3    H134129   3.497   4.560   7.016
11396TIP3    H234130   3.414   4.476   6.920
11397TIP3   OH234131   2.494   4.428   6.447
11397TIP3    H134132   2.458   4.371   6.378
11397TIP3    H234133   2.570   4.381   6.480
11398TIP3   OH234134   2.626   4.850   6.581
11398TIP3    H134135   2.603   4.836   6.489
11398TIP3    H234136   2.714   4.813   6.590
11399TIP3   OH234137   2.600   4.423   6.812
11399TIP3    H134138   2.638   4.388   6.732
11399TIP3    H234139   2.649   4.503   6.829
11400TIP3   OH234140   3.152   5.052   6.588
11400TIP3    H134141   3.138   5.133   6.637
11400TIP3    H234142   3.135   4.983   6.651
11401TIP3   OH234143   8.504   0.908   0.113
11401TIP3    H134144   8.444   0.967   0.159
11401TIP3    H234145   8.447   0.856   0.056
11402TIP3   OH234146   8.258   0.456   0.243
11402TIP3    H134147   8.262   0.548   0.268
11402TIP3    H234148   8.165   0.437   0.235
11403TIP3   OH234149   2.839   4.983   6.133
11403TIP3    H134150   2.925   5.024   6.130
11403TIP3    H234151   2.786   5.035   6.073
11404TIP3   OH234152   8.292   1.069   0.194
11404TIP3    H134153   8.268   1.075   0.101
11404TIP3    H234154   8.210   1.051   0.239
11405TIP3   OH234155   3.611   3.533   5.922
11405TIP3    H134156   3.532   3.556   5.970
11405TIP3    H234157   3.629   3.609   5.867
11406TIP3   OH234158   2.369   4.274   6.245
11406TIP3    H134159   2.299   4.326   6.205
11406TIP3    H234160   2.335   4.185   6.246
11407TIP3   OH234161   3.431   4.909   5.472
11407TIP3    H134162   3.432   5.002   5.448
11407TIP3    H234163   3.521   4.880   5.458
11408TIP3   OH234164   7.883   0.620   0.144
11408TIP3    H134165   7.815   0.602   0.079
11408TIP3    H234166   7.919   0.534   0.165
11409TIP3   OH234167   1.998   4.863   6.811
11409TIP3    H134168   2.092   4.876   6.813
11409TIP3    H234169   1.961   4.943   6.849
11410TIP3   OH234170   3.870   5.316   6.853
11410TIP3    H134171   3.868   5.223   6.874
11410TIP3    H234172   3.789   5.350   6.891
11411TIP3   OH234173   2.960   5.102   6.994
11411TIP3    H134174   2.953   5.193   7.021
11411TIP3    H234175   2.893   5.056   7.044
11412TIP3   OH234176   2.736   5.206   5.945
11412TIP3    H134177   2.690   5.185   5.864
11412TIP3    H234178   2.699   5.290   5.972
11413TIP3   OH234179   2.171   5.059   6.326
11413TIP3    H134180   2.216   5.049   6.410
11413TIP3    H234181   2.123   4.977   6.316
11414TIP3   OH234182   2.938   5.131   5.575
11414TIP3    H134183   2.986   5.055   5.540
11414TIP3    H234184   2.973   5.143   5.663
11415TIP3   OH234185   2.991   5.177   5.845
11415TIP3    H134186   2.904   5.181   5.886
11415TIP3    H234187   3.046   5.135   5.910
11416TIP3   OH234188   0.875   0.374   0.109
11416TIP3    H134189   0.789   0.383   0.069
11416TIP3    H234190   0.892   0.280   0.107
11417TIP3   OH234191   8.086   0.803   0.116
11417TIP3    H134192   8.136   0.790   0.196
11417TIP3    H234193   8.013   0.741   0.123
11418TIP3   OH234194   2.738   3.674   6.940
11418TIP3    H134195   2.653   3.641   6.910
11418TIP3    H234196   2.717   3.752   6.991
11419TIP3   OH234197   6.150   7.843   0.119
11419TIP3    H134198   6.222   7.817   0.177
11419TIP3    H234199   6.071   7.821   0.168
11420TIP3   OH234200   0.643   0.161   0.036
11420TIP3    H134201   0.602   0.154   0.122
11420TIP3    H234202   0.622   0.249   0.006
11421TIP3   OH234203   3.126   4.379   5.554
11421TIP3    H134204   3.121   4.320   5.478
11421TIP3    H234205   3.220   4.395   5.565
11422TIP3   OH234206   2.889   3.680   5.912
11422TIP3    H134207   2.851   3.699   5.998
11422TIP3    H234208   2.844   3.601   5.883
11423TIP3   OH234209   2.680   4.202   6.961
11423TIP3    H134210   2.635   4.212   7.044
11423TIP3    H234211   2.660   4.282   6.913
11424TIP3   OH234212   2.557   4.077   6.487
11424TIP3    H134213   2.465   4.060   6.506
11424TIP3    H234214   2.569   4.048   6.397
11425TIP3   OH234215   3.030   4.155   6.187
11425TIP3    H134216   2.984   4.237   6.168
11425TIP3    H234217   3.049   4.118   6.101
11426TIP3   OH234218   0.365   0.376   0.251
11426TIP3    H134219   0.338   0.306   0.310
11426TIP3    H234220   0.457   0.392   0.273
11427TIP3   OH234221   3.190   4.169   6.423
11427TIP3    H134222   3.127   4.195   6.355
11427TIP3    H234223   3.238   4.096   6.383
11428TIP3   OH234224   8.244   0.161   0.155
11428TIP3    H134225   8.261   0.224   0.225
11428TIP3    H234226   8.225   0.079   0.201
11429TIP3   OH234227   2.556   3.696   5.893
11429TIP3    H134228   2.581   3.758   5.962
11429TIP3    H234229   2.476   3.732   5.856
11430TIP3   OH234230   2.098   3.735   6.762
11430TIP3    H134231   2.167   3.774   6.817
11430TIP3    H234232   2.134   3.736   6.674
11431TIP3   OH234233   2.134   3.763   6.265
11431TIP3    H134234   2.119   3.788   6.173
11431TIP3    H234235   2.075   3.821   6.315
11432TIP3   OH234236   3.241   4.414   6.849
11432TIP3    H134237   3.270   4.347   6.787
11432TIP3    H234238   3.200   4.366   6.920
11433TIP3   OH234239   2.925   3.876   6.533
11433TIP3    H134240   2.851   3.884   6.594
11433TIP3    H234241   3.002   3.864   6.590
11434TIP3   OH234242   2.313   3.946   6.539
11434TIP3    H134243   2.225   3.968   6.510
11434TIP3    H234244   2.334   3.865   6.492
11435TIP3   OH234245   2.569   3.952   6.247
11435TIP3    H134246   2.664   3.956   6.235
11435TIP3    H234247   2.534   3.955   6.158
11436TIP3   OH234248   3.379   3.956   6.743
11436TIP3    H134249   3.353   3.976   6.833
11436TIP3    H234250   3.313   3.893   6.712
11437TIP3   OH234251   2.465   3.958   5.992
11437TIP3    H134252   2.398   3.923   5.932
11437TIP3    H234253   2.518   4.015   5.936
11438TIP3   OH234254   3.545   5.696   6.977
11438TIP3    H134255   3.574   5.664   6.892
11438TIP3    H234256   3.607   5.658   7.039
11439TIP3   OH234257   8.242   0.722   0.346
11439TIP3    H134258   8.323   0.741   0.394
11439TIP3    H234259   8.174   0.726   0.413
11440TIP3   OH234260   2.973   4.236   6.632
11440TIP3    H134261   3.033   4.187   6.576
11440TIP3    H234262   2.974   4.190   6.716
11441TIP3   OH234263   2.421   3.656   6.429
11441TIP3    H134264   2.421   3.600   6.506
11441TIP3    H234265   2.514   3.665   6.406
11442TIP3   OH234266   2.945   4.137   6.904
11442TIP3    H134267   2.858   4.170   6.924
11442TIP3    H234268   3.004   4.190   6.957
11443TIP3   OH234269   2.662   4.518   6.002
11443TIP3    H134270   2.595   4.452   5.985
11443TIP3    H234271   2.645   4.546   6.092
11444TIP3   OH234272   3.570   4.755   6.621
11444TIP3    H134273   3.603   4.802   6.545
11444TIP3    H234274   3.489   4.715   6.592
11445TIP3   OH234275   3.102   3.846   5.912
11445TIP3    H134276   3.024   3.791   5.907
11445TIP3    H234277   3.069   3.935   5.897
11446TIP3   OH234278   0.214   0.777   0.009
11446TIP3    H134279   0.269   0.772   0.087
11446TIP3    H234280   0.177   0.865   0.010
11447TIP3   OH234281   2.363   4.511   6.673
11447TIP3    H134282   2.401   4.495   6.587
11447TIP3    H234283   2.430   4.483   6.735
11448TIP3   OH234284   2.835   4.670   5.853
11448TIP3    H134285   2.788   4.753   5.855
11448TIP3    H234286   2.778   4.610   5.901
11449TIP3   OH234287   7.986   0.389   0.264
11449TIP3    H134288   7.987   0.368   0.358
11449TIP3    H234289   7.914   0.338   0.228
11450TIP3   OH234290   0.124   0.516   0.308
11450TIP3    H134291   0.057   0.459   0.270
11450TIP3    H234292   0.206   0.483   0.272
11451TIP3   OH234293   3.233   5.109   6.924
11451TIP3    H134294   3.138   5.105   6.933
11451TIP3    H234295   3.264   5.155   7.002
11452TIP3   OH234296   3.631   4.162   5.804
11452TIP3    H134297   3.577   4.114   5.742
11452TIP3    H234298   3.631   4.252   5.771
11453TIP3   OH234299   3.867   5.022   6.894
11453TIP3    H134300   3.772   5.018   6.884
11453TIP3    H234301   3.902   4.999   6.808
11454TIP3   OH234302   3.354   4.973   5.734
11454TIP3    H134303   3.326   4.896   5.784
11454TIP3    H234304   3.374   4.939   5.647
11455TIP3   OH234305   3.341   4.615   6.530
11455TIP3    H134306   3.250   4.594   6.553
11455TIP3    H234307   3.373   4.537   6.484
11456TIP3   OH234308   2.493   4.852   6.331
11456TIP3    H134309   2.498   4.928   6.273
11456TIP3    H234310   2.400   4.831   6.337
11457TIP3   OH234311   2.062   4.135   6.044
11457TIP3    H134312   2.102   4.221   6.060
11457TIP3    H234313   1.979   4.138   6.092
11458TIP3   OH234314   2.584   4.602   6.248
11458TIP3    H134315   2.571   4.693   6.273
11458TIP3    H234316   2.556   4.551   6.324
11459TIP3   OH234317   2.770   5.175   6.786
11459TIP3    H134318   2.806   5.247   6.735
11459TIP3    H234319   2.845   5.140   6.835
11460TIP3   OH234320   2.404   5.078   6.178
11460TIP3    H134321   2.318   5.083   6.219
11460TIP3    H234322   2.437   5.168   6.181
11461TIP3   OH234323   3.123   4.830   6.757
11461TIP3    H134324   3.113   4.826   6.852
11461TIP3    H234325   3.202   4.778   6.739
11462TIP3   OH234326   3.122   4.710   5.633
11462TIP3    H134327   3.172   4.701   5.713
11462TIP3    H234328   3.048   4.650   5.643
11463TIP3   OH234329   3.369   5.355   6.805
11463TIP3    H134330   3.297   5.292   6.803
11463TIP3    H234331   3.355   5.411   6.728
11464TIP3   OH234332   3.438   5.183   5.437
11464TIP3    H134333   3.465   5.245   5.369
11464TIP3    H234334   3.364   5.226   5.481
11465TIP3   OH234335   5.333   8.023   0.283
11465TIP3    H134336   5.239   8.026   0.296
11465TIP3    H234337   5.366   7.973   0.358
11466TIP3   OH234338   3.298   4.685   5.851
11466TIP3    H134339   3.277   4.616   5.913
11466TIP3    H234340   3.390   4.671   5.828
11467TIP3   OH234341   2.199   5.062   6.947
11467TIP3    H134342   2.251   4.998   6.995
11467TIP3    H234343   2.218   5.146   6.989
11468TIP3   OH234344   2.463   4.686   5.639
11468TIP3    H134345   2.477   4.596   5.609
11468TIP3    H234346   2.450   4.679   5.733
11469TIP3   OH234347   2.418   4.696   5.913
11469TIP3    H134348   2.499   4.666   5.954
11469TIP3    H234349   2.420   4.791   5.920
11470TIP3   OH234350   2.149   4.390   6.119
11470TIP3    H134351   2.083   4.437   6.170
11470TIP3    H234352   2.170   4.449   6.046
11471TIP3   OH234353   6.180   8.076  -0.022
11471TIP3    H134354   6.257   8.120   0.015
11471TIP3    H234355   6.168   7.998   0.032
11472TIP3   OH234356   3.189   3.772   6.169
11472TIP3    H134357   3.160   3.799   6.082
11472TIP3    H234358   3.234   3.848   6.205
11473TIP3   OH234359   2.685   4.895   5.858
11473TIP3    H134360   2.598   4.917   5.891
11473TIP3    H234361   2.705   4.963   5.794
11474TIP3   OH234362   2.849   3.964   6.277
11474TIP3    H134363   2.908   4.030   6.240
11474TIP3    H234364   2.882   3.951   6.366
11475TIP3   OH234365   0.283   0.203   0.034
11475TIP3    H134366   0.308   0.253   0.112
11475TIP3    H234367   0.333   0.122   0.039
11476TIP3   OH234368   3.011   3.666   6.358
11476TIP3    H134369   2.990   3.744   6.410
11476TIP3    H234370   3.075   3.697   6.294
11477TIP3   OH234371   2.430   4.971   5.926
11477TIP3    H134372   2.408   5.041   5.864
11477TIP3    H234373   2.418   5.010   6.012
11478TIP3   OH234374   3.766   4.149   7.005
11478TIP3    H134375   3.675   4.163   7.030
11478TIP3    H234376   3.763   4.073   6.946
11479TIP3   OH234377   3.418   4.346   6.438
11479TIP3    H134378   3.332   4.316   6.409
11479TIP3    H234379   3.429   4.308   6.524
11480TIP3   OH234380   2.165   4.575   5.907
11480TIP3    H134381   2.237   4.637   5.918
11480TIP3    H234382   2.198   4.511   5.844
11481TIP3   OH234383   2.072   3.860   6.023
11481TIP3    H134384   2.083   3.954   6.030
11481TIP3    H234385   2.020   3.847   5.943
11482TIP3   OH234386   3.409   5.332   6.376
11482TIP3    H134387   3.366   5.382   6.307
11482TIP3    H234388   3.503   5.343   6.359
11483TIP3   OH234389   2.478   3.586   6.896
11483TIP3    H134390   2.449   3.551   6.812
11483TIP3    H234391   2.472   3.513   6.957
11484TIP3   OH234392   2.001   4.830   6.298
11484TIP3    H134393   1.953   4.865   6.374
11484TIP3    H234394   1.960   4.872   6.223
11485TIP3   OH234395   7.930   1.311   0.344
11485TIP3    H134396   8.014   1.314   0.391
11485TIP3    H234397   7.912   1.218   0.332
11486TIP3   OH234398   8.396   1.234   0.388
11486TIP3    H134399   8.488   1.209   0.396
11486TIP3    H234400   8.363   1.180   0.316
11487TIP3   OH234401   2.633   4.878   5.533
11487TIP3    H134402   2.581   4.809   5.576
11487TIP3    H234403   2.707   4.831   5.494
11488TIP3   OH234404   0.441   1.166   0.145
11488TIP3    H134405   0.428   1.094   0.206
11488TIP3    H234406   0.528   1.200   0.168
11489TIP3   OH234407   3.065   4.917   5.460
11489TIP3    H134408   3.097   4.851   5.521
11489TIP3    H234409   3.124   4.911   5.384
11490TIP3   OH234410   8.032   0.725   0.535
11490TIP3    H134411   8.055   0.632   0.538
11490TIP3    H234412   7.946   0.727   0.492
11491TIP3   OH234413   2.289   4.380   5.764
11491TIP3    H134414   2.344   4.354   5.838
11491TIP3    H234415   2.351   4.394   5.692
11492TIP3   OH234416   0.053   0.796   0.318
11492TIP3    H134417   0.012   0.819   0.235
11492TIP3    H234418   0.090   0.709   0.303
11493TIP3   OH234419   2.822   4.604   5.584
11493TIP3    H134420   2.823   4.627   5.677
11493TIP3    H234421   2.822   4.509   5.583
11494TIP3   OH234422   3.398   4.884   6.950
11494TIP3    H134423   3.475   4.915   6.903
11494TIP3    H234424   3.333   4.953   6.938
11495TIP3   OH234425   8.149   0.479   0.525
11495TIP3    H134426   8.217   0.430   0.478
11495TIP3    H234427   8.187   0.496   0.611
11496TIP3   OH234428   2.472   4.314   5.969
11496TIP3    H134429   2.461   4.283   6.059
11496TIP3    H234430   2.525   4.246   5.926
11497TIP3   OH234431   8.507   0.337   0.195
11497TIP3    H134432   8.425   0.385   0.205
11497TIP3    H234433   8.545   0.371   0.114
11498TIP3   OH234434   2.616   4.120   5.830
11498TIP3    H134435   2.602   4.133   5.736
11498TIP3    H234436   2.711   4.115   5.840
11499TIP3   OH234437   0.411   0.714   0.299
11499TIP3    H134438   0.486   0.684   0.247
11499TIP3    H234439   0.410   0.657   0.375
11500TIP3   OH234440   3.404   4.425   5.495
11500TIP3    H134441   3.390   4.378   5.413
11500TIP3    H234442   3.378   4.515   5.477
11501TIP3   OH234443   0.023   0.113   0.299
11501TIP3    H134444   0.022   0.038   0.239
11501TIP3    H234445  -0.018   0.184   0.249
11502TIP3   OH234446   5.758   8.016   0.106
11502TIP3    H134447   5.783   8.056   0.022
11502TIP3    H234448   5.666   7.991   0.094
11503TIP3   OH234449   2.906   4.499   7.007
11503TIP3    H134450   2.994   4.530   6.988
11503TIP3    H234451   2.849   4.559   6.959
11504TIP3   OH234452   0.630   0.405   0.361
11504TIP3    H134453   0.677   0.322   0.366
11504TIP3    H234454   0.698   0.470   0.345
11505TIP3   OH234455   0.663   0.661   0.094
11505TIP3    H134456   0.607   0.720   0.044
11505TIP3    H234457   0.752   0.680   0.065
11506TIP3   OH234458   8.508   0.225   0.532
11506TIP3    H134459   8.432   0.174   0.559
11506TIP3    H234460   8.528   0.195   0.444
11507TIP3   OH234461   5.882   7.780   0.187
11507TIP3    H134462   5.839   7.861   0.160
11507TIP3    H234463   5.815   7.713   0.177
11508TIP3   OH234464   0.278   0.161   0.392
11508TIP3    H134465   0.264   0.148   0.486
11508TIP3    H234466   0.194   0.140   0.352
11509TIP3   OH234467   0.522   0.108   0.269
11509TIP3    H134468   0.443   0.110   0.323
11509TIP3    H234469   0.592   0.083   0.329
11510TIP3   OH234470   0.755   0.069   0.418
11510TIP3    H134471   0.769  -0.026   0.428
11510TIP3    H234472   0.749   0.101   0.508
11511TIP3   OH234473   5.484   8.119   0.602
11511TIP3    H134474   5.487   8.037   0.552
11511TIP3    H234475   5.522   8.097   0.687
11512TIP3   OH234476   5.951   7.778   0.449
11512TIP3    H134477   6.016   7.708   0.449
11512TIP3    H234478   5.919   7.781   0.359
11513TIP3   OH234479   6.046   8.000   0.573
11513TIP3    H134480   6.019   7.924   0.522
11513TIP3    H234481   5.971   8.059   0.569
11514TIP3   OH234482   2.425   5.181   5.742
11514TIP3    H134483   2.514   5.158   5.715
11514TIP3    H234484   2.387   5.225   5.666
11515TIP3   OH234485   1.892   4.555   5.933
11515TIP3    H134486   1.986   4.571   5.924
11515TIP3    H234487   1.878   4.469   5.894
11516TIP3   OH234488   1.798   5.149   6.380
11516TIP3    H134489   1.734   5.095   6.333
11516TIP3    H234490   1.843   5.089   6.438
11517TIP3   OH234491   1.938   4.983   6.551
11517TIP3    H134492   1.927   4.916   6.618
11517TIP3    H234493   1.992   5.050   6.594
11518TIP3   OH234494   3.679   5.383   6.355
11518TIP3    H134495   3.702   5.410   6.444
11518TIP3    H234496   3.740   5.433   6.299
11519TIP3   OH234497   3.708   5.412   6.630
11519TIP3    H134498   3.654   5.333   6.634
11519TIP3    H234499   3.777   5.398   6.696
11520TIP3   OH234500   0.856   1.104   0.218
11520TIP3    H134501   0.786   1.091   0.282
11520TIP3    H234502   0.861   1.199   0.207
11521TIP3   OH234503   3.570   4.633   5.820
11521TIP3    H134504   3.633   4.699   5.792
11521TIP3    H234505   3.610   4.592   5.896
11522TIP3   OH234506   3.691   4.488   6.024
11522TIP3    H134507   3.621   4.448   6.076
11522TIP3    H234508   3.752   4.523   6.089
11523TIP3   OH234509   3.753   4.882   6.450
11523TIP3    H134510   3.797   4.818   6.393
11523TIP3    H234511   3.749   4.962   6.397
11524TIP3   OH234512   3.549   5.185   6.657
11524TIP3    H134513   3.484   5.230   6.709
11524TIP3    H234514   3.499   5.145   6.585
11525TIP3   OH234515   3.613   4.405   5.670
11525TIP3    H134516   3.539   4.400   5.608
11525TIP3    H234517   3.595   4.482   5.723
11526TIP3   OH234518   3.491   4.044   5.603
11526TIP3    H134519   3.433   4.086   5.540
11526TIP3    H234520   3.476   3.951   5.591
11527TIP3   OH234521   3.501   4.345   6.170
11527TIP3    H134522   3.503   4.253   6.146
11527TIP3    H234523   3.479   4.346   6.263
11528TIP3   OH234524   2.120   4.417   6.926
11528TIP3    H134525   2.111   4.384   6.836
11528TIP3    H234526   2.214   4.413   6.943
11529TIP3   OH234527   3.789   4.777   7.034
11529TIP3    H134528   3.852   4.707   7.019
11529TIP3    H234529   3.814   4.845   6.972
11530TIP3   OH234530   1.087   0.500  -0.007
11530TIP3    H134531   1.014   0.456   0.037
11530TIP3    H234532   1.163   0.444   0.010
11531TIP3   OH234533   3.438   3.773   5.587
11531TIP3    H134534   3.494   3.752   5.662
11531TIP3    H234535   3.350   3.746   5.615
11532TIP3   OH234536   3.515   4.076   6.078
11532TIP3    H134537   3.557   3.990   6.083
11532TIP3    H234538   3.530   4.106   5.988
11533TIP3   OH234539   3.672   4.207   6.556
11533TIP3    H134540   3.670   4.257   6.474
11533TIP3    H234541   3.659   4.273   6.624
11534TIP3   OH234542   3.753   4.382   6.764
11534TIP3    H134543   3.695   4.376   6.840
11534TIP3    H234544   3.759   4.475   6.745
11535TIP3   OH234545   8.093   0.086   0.579
11535TIP3    H134546   8.187   0.076   0.590
11535TIP3    H234547   8.061  -0.004   0.570
11536TIP3   OH234548   7.048   8.039   0.309
11536TIP3    H134549   7.109   7.976   0.270
11536TIP3    H234550   7.014   8.089   0.235
11537TIP3   OH234551   3.613   3.814   6.105
11537TIP3    H134552   3.653   3.791   6.189
11537TIP3    H234553   3.544   3.748   6.093
11538TIP3   OH234554   2.310   3.808   6.922
11538TIP3    H134555   2.367   3.731   6.927
11538TIP3    H234556   2.371   3.881   6.914
11539TIP3   OH234557   2.094   4.071   6.984
11539TIP3    H134558   2.146   4.069   6.904
11539TIP3    H234559   2.123   4.151   7.029
11540TIP3   OH234560   1.166   0.054   0.114
11540TIP3    H134561   1.088   0.094   0.152
11540TIP3    H234562   1.132  -0.014   0.056
11541TIP3   OH234563   3.670   3.735   5.746
11541TIP3    H134564   3.712   3.675   5.685
11541TIP3    H234565   3.723   3.814   5.742
11542TIP3   OH234566   2.061   3.589   6.490
11542TIP3    H134567   1.992   3.569   6.553
11542TIP3    H234568   2.015   3.625   6.414
11543TIP3   OH234569   3.242   5.294   6.005
11543TIP3    H134570   3.294   5.276   5.927
11543TIP3    H234571   3.292   5.361   6.052
11544TIP3   OH234572   5.177   7.721   0.290
11544TIP3    H134573   5.132   7.641   0.318
11544TIP3    H234574   5.116   7.762   0.229
11545TIP3   OH234575   8.069   1.036   0.357
11545TIP3    H134576   7.976   1.015   0.349
11545TIP3    H234577   8.089   1.021   0.450
11546TIP3   OH234578   2.541   5.134   6.934
11546TIP3    H134579   2.490   5.208   6.900
11546TIP3    H234580   2.626   5.143   6.890
11547TIP3   OH234581   0.086   1.315   0.050
11547TIP3    H134582   0.126   1.306   0.136
11547TIP3    H234583   0.150   1.365  -0.001
11548TIP3   OH234584   3.144   5.519   6.940
11548TIP3    H134585   3.212   5.468   6.896
11548TIP3    H234586   3.191   5.575   7.001
11549TIP3   OH234587   3.938   3.845   7.031
11549TIP3    H134588   3.850   3.814   7.011
11549TIP3    H234589   3.993   3.766   7.024
11550TIP3   OH234590   2.203   5.379   6.978
11550TIP3    H134591   2.112   5.398   6.955
11550TIP3    H234592   2.225   5.445   7.044
11551TIP3   OH234593   2.434   5.365   6.828
11551TIP3    H134594   2.350   5.371   6.874
11551TIP3    H234595   2.413   5.390   6.738
11552TIP3   OH234596   2.853   5.383   6.621
11552TIP3    H134597   2.784   5.394   6.556
11552TIP3    H234598   2.864   5.469   6.660
11553TIP3   OH234599   3.119   5.318   6.667
11553TIP3    H134600   3.027   5.336   6.648
11553TIP3    H234601   3.167   5.386   6.619
11554TIP3   OH234602   3.327   5.506   6.575
11554TIP3    H134603   3.321   5.592   6.533
11554TIP3    H234604   3.356   5.447   6.505
11555TIP3   OH234605   2.115   5.159   6.698
11555TIP3    H134606   2.140   5.133   6.787
11555TIP3    H234607   2.186   5.125   6.643
11556TIP3   OH234608   2.317   5.041   6.561
11556TIP3    H134609   2.328   4.957   6.605
11556TIP3    H234610   2.404   5.081   6.561
11557TIP3   OH234611   2.585   5.129   6.579
11557TIP3    H134612   2.604   5.037   6.563
11557TIP3    H234613   2.638   5.152   6.655
11558TIP3   OH234614   3.154   3.780   6.666
11558TIP3    H134615   3.111   3.707   6.711
11558TIP3    H234616   3.222   3.738   6.612
11559TIP3   OH234617   3.648   3.734   6.585
11559TIP3    H134618   3.687   3.753   6.500
11559TIP3    H234619   3.555   3.722   6.567
11560TIP3   OH234620   3.766   3.756   6.335
11560TIP3    H134621   3.834   3.698   6.300
11560TIP3    H234622   3.800   3.844   6.320
11561TIP3   OH234623   2.395   3.483   6.646
11561TIP3    H134624   2.307   3.449   6.665
11561TIP3    H234625   2.451   3.406   6.650
11562TIP3   OH234626   2.216   3.457   6.295
11562TIP3    H134627   2.218   3.372   6.251
11562TIP3    H234628   2.147   3.448   6.361
11563TIP3   OH234629   2.846   3.534   6.555
11563TIP3    H134630   2.898   3.573   6.485
11563TIP3    H234631   2.894   3.555   6.635
11564TIP3   OH234632   3.373   3.663   6.538
11564TIP3    H134633   3.384   3.630   6.449
11564TIP3    H234634   3.372   3.585   6.593
11565TIP3   OH234635   3.413   3.615   6.099
11565TIP3    H134636   3.332   3.663   6.115
11565TIP3    H234637   3.399   3.529   6.139
11566TIP3   OH234638   1.884   4.954   6.084
11566TIP3    H134639   1.800   4.920   6.052
11566TIP3    H234640   1.887   5.044   6.052
11567TIP3   OH234641   2.799   3.717   6.169
11567TIP3    H134642   2.857   3.666   6.225
11567TIP3    H234643   2.814   3.808   6.195
11568TIP3   OH234644   2.681   5.107   5.673
11568TIP3    H134645   2.766   5.135   5.637
11568TIP3    H234646   2.654   5.034   5.617
11569TIP3   OH234647   3.387   5.242   5.774
11569TIP3    H134648   3.381   5.147   5.766
11569TIP3    H234649   3.345   5.276   5.696
11570TIP3   OH234650   5.505   7.877   0.487
11570TIP3    H134651   5.470   7.790   0.506
11570TIP3    H234652   5.596   7.873   0.515
11571TIP3   OH234653   5.742   7.820   0.635
11571TIP3    H134654   5.816   7.798   0.578
11571TIP3    H234655   5.748   7.758   0.707
11572TIP3   OH234656   1.988   4.951   5.731
11572TIP3    H134657   1.993   4.962   5.826
11572TIP3    H234658   2.069   4.904   5.708
11573TIP3   OH234659   6.551   7.907   0.428
11573TIP3    H134660   6.567   7.874   0.517
11573TIP3    H234661   6.637   7.904   0.386
11574TIP3   OH234662   3.627   5.404   6.932
11574TIP3    H134663   3.534   5.386   6.915
11574TIP3    H234664   3.630   5.425   7.026
11575TIP3   OH234665   4.879   4.761   5.719
11575TIP3    H134666   4.853   4.849   5.695
11575TIP3    H234667   4.811   4.704   5.682
11576TIP3   OH234668   4.891   4.766   6.119
11576TIP3    H134669   4.934   4.749   6.203
11576TIP3    H234670   4.838   4.688   6.103
11577TIP3   OH234671   4.197   4.678   6.483
11577TIP3    H134672   4.239   4.715   6.560
11577TIP3    H234673   4.267   4.671   6.418
11578TIP3   OH234674   5.144   5.073   5.803
11578TIP3    H134675   5.132   5.009   5.872
11578TIP3    H234676   5.166   5.154   5.848
11579TIP3   OH234677   4.165   5.065   6.178
11579TIP3    H134678   4.150   4.971   6.180
11579TIP3    H234679   4.258   5.075   6.160
11580TIP3   OH234680   3.847   4.262   5.958
11580TIP3    H134681   3.805   4.346   5.976
11580TIP3    H234682   3.781   4.212   5.911
11581TIP3   OH234683   3.923   4.559   6.170
11581TIP3    H134684   3.975   4.480   6.189
11581TIP3    H234685   3.979   4.610   6.112
11582TIP3   OH234686   4.800   5.510   5.810
11582TIP3    H134687   4.828   5.447   5.744
11582TIP3    H234688   4.791   5.458   5.890
11583TIP3   OH234689   4.679   4.988   6.139
11583TIP3    H134690   4.720   4.914   6.094
11583TIP3    H234691   4.752   5.041   6.170
11584TIP3   OH234692   5.714   4.312   6.143
11584TIP3    H134693   5.732   4.396   6.185
11584TIP3    H234694   5.740   4.326   6.051
11585TIP3   OH234695   5.094   4.476   6.170
11585TIP3    H134696   5.116   4.388   6.200
11585TIP3    H234697   5.059   4.464   6.082
11586TIP3   OH234698   4.424   4.140   6.137
11586TIP3    H134699   4.407   4.213   6.078
11586TIP3    H234700   4.372   4.068   6.101
11587TIP3   OH234701   4.070   4.338   6.264
11587TIP3    H134702   4.157   4.321   6.302
11587TIP3    H234703   4.072   4.291   6.181
11588TIP3   OH234704   4.488   4.551   6.064
11588TIP3    H134705   4.583   4.539   6.063
11588TIP3    H234706   4.453   4.469   6.029
11589TIP3   OH234707   5.772   4.528   6.316
11589TIP3    H134708   5.684   4.564   6.307
11589TIP3    H234709   5.802   4.559   6.401
11590TIP3   OH234710   4.461   4.114   6.580
11590TIP3    H134711   4.396   4.161   6.529
11590TIP3    H234712   4.413   4.081   6.656
11591TIP3   OH234713   4.782   4.984   5.580
11591TIP3    H134714   4.741   4.959   5.496
11591TIP3    H234715   4.731   5.059   5.609
11592TIP3   OH234716   4.535   4.906   6.361
11592TIP3    H134717   4.477   4.975   6.392
11592TIP3    H234718   4.580   4.944   6.286
11593TIP3   OH234719   5.269   4.205   5.977
11593TIP3    H134720   5.305   4.254   6.051
11593TIP3    H234721   5.331   4.220   5.906
11594TIP3   OH234722   4.311   4.238   6.370
11594TIP3    H134723   4.363   4.314   6.398
11594TIP3    H234724   4.358   4.202   6.296
11595TIP3   OH234725   4.370   5.110   6.456
11595TIP3    H134726   4.354   5.197   6.420
11595TIP3    H234727   4.292   5.091   6.508
11596TIP3   OH234728   3.753   4.812   5.713
11596TIP3    H134729   3.717   4.824   5.625
11596TIP3    H234730   3.778   4.901   5.740
11597TIP3   OH234731   5.187   5.324   5.940
11597TIP3    H134732   5.101   5.314   5.981
11597TIP3    H234733   5.181   5.406   5.891
11598TIP3   OH234734   5.524   4.208   6.320
11598TIP3    H134735   5.443   4.251   6.292
11598TIP3    H234736   5.587   4.230   6.252
11599TIP3   OH234737   4.762   3.785   6.294
11599TIP3    H134738   4.748   3.701   6.337
11599TIP3    H234739   4.697   3.844   6.333
11600TIP3   OH234740   4.890   5.354   5.598
11600TIP3    H134741   4.942   5.274   5.587
11600TIP3    H234742   4.948   5.424   5.568
11601TIP3   OH234743   5.039   5.130   5.552
11601TIP3    H134744   4.979   5.057   5.533
11601TIP3    H234745   5.083   5.104   5.632
11602TIP3   OH234746   5.422   5.214   6.288
11602TIP3    H134747   5.404   5.139   6.231
11602TIP3    H234748   5.404   5.290   6.233
11603TIP3   OH234749   4.714   4.601   5.566
11603TIP3    H134750   4.633   4.650   5.548
11603TIP3    H234751   4.757   4.594   5.480
11604TIP3   OH234752   4.674   4.394   5.270
11604TIP3    H134753   4.740   4.452   5.308
11604TIP3    H234754   4.723   4.338   5.210
11605TIP3   OH234755   5.605   4.870   6.148
11605TIP3    H134756   5.521   4.915   6.149
11605TIP3    H234757   5.640   4.885   6.060
11606TIP3   OH234758   5.060   4.706   5.518
11606TIP3    H134759   5.007   4.731   5.593
11606TIP3    H234760   5.144   4.680   5.555
11607TIP3   OH234761   5.295   4.737   6.452
11607TIP3    H134762   5.291   4.818   6.502
11607TIP3    H234763   5.211   4.733   6.405
11608TIP3   OH234764   4.282   4.685   5.929
11608TIP3    H134765   4.244   4.628   5.862
11608TIP3    H234766   4.357   4.637   5.963
11609TIP3   OH234767   4.421   5.108   6.066
11609TIP3    H134768   4.396   5.090   5.975
11609TIP3    H234769   4.507   5.068   6.076
11610TIP3   OH234770   4.401   4.673   6.295
11610TIP3    H134771   4.436   4.638   6.213
11610TIP3    H234772   4.454   4.751   6.313
11611TIP3   OH234773   4.953   5.311   6.076
11611TIP3    H134774   4.937   5.390   6.128
11611TIP3    H234775   4.934   5.239   6.137
11612TIP3   OH234776   4.566   5.217   6.619
11612TIP3    H134777   4.506   5.276   6.664
11612TIP3    H234778   4.510   5.164   6.563
11613TIP3   OH234779   4.899   4.549   5.356
11613TIP3    H134780   4.955   4.611   5.402
11613TIP3    H234781   4.925   4.556   5.264
11614TIP3   OH234782   4.306   4.782   6.722
11614TIP3    H134783   4.320   4.870   6.757
11614TIP3    H234784   4.219   4.757   6.752
11615TIP3   OH234785   4.646   5.227   5.621
11615TIP3    H134786   4.726   5.279   5.617
11615TIP3    H234787   4.585   5.273   5.564
11616TIP3   OH234788   4.360   5.379   6.703
11616TIP3    H134789   4.331   5.384   6.612
11616TIP3    H234790   4.280   5.359   6.753
11617TIP3   OH234791   5.415   3.792   5.407
11617TIP3    H134792   5.335   3.812   5.456
11617TIP3    H234793   5.429   3.868   5.351
11618TIP3   OH234794   4.158   4.525   5.734
11618TIP3    H134795   4.088   4.574   5.692
11618TIP3    H234796   4.126   4.435   5.737
11619TIP3   OH234797   5.225   5.166   4.953
11619TIP3    H134798   5.225   5.261   4.938
11619TIP3    H234799   5.316   5.140   4.939
11620TIP3   OH234800   3.946   4.930   6.650
11620TIP3    H134801   3.881   4.911   6.583
11620TIP3    H234802   3.982   4.845   6.674
11621TIP3   OH234803   3.796   5.117   6.301
11621TIP3    H134804   3.891   5.131   6.298
11621TIP3    H234805   3.762   5.199   6.338
11622TIP3   OH234806   5.653   5.582   6.350
11622TIP3    H134807   5.659   5.487   6.359
11622TIP3    H234808   5.573   5.605   6.397
11623TIP3   OH234809   4.756   5.357   6.478
11623TIP3    H134810   4.749   5.448   6.506
11623TIP3    H234811   4.688   5.311   6.528
11624TIP3   OH234812   4.532   5.463   5.429
11624TIP3    H134813   4.480   5.439   5.352
11624TIP3    H234814   4.496   5.547   5.457
11625TIP3   OH234815   3.968   5.317   5.812
11625TIP3    H134816   4.013   5.307   5.895
11625TIP3    H234817   3.921   5.234   5.800
11626TIP3   OH234818   4.730   5.384   5.062
11626TIP3    H134819   4.784   5.313   5.027
11626TIP3    H234820   4.764   5.398   5.151
11627TIP3   OH234821   4.785   5.428   5.332
11627TIP3    H134822   4.698   5.434   5.371
11627TIP3    H234823   4.840   5.392   5.401
11628TIP3   OH234824   5.539   4.692   6.623
11628TIP3    H134825   5.457   4.700   6.574
11628TIP3    H234826   5.559   4.598   6.621
11629TIP3   OH234827   4.150   5.113   6.624
11629TIP3    H134828   4.198   5.103   6.706
11629TIP3    H234829   4.077   5.052   6.631
11630TIP3   OH234830   4.536   3.902   6.417
11630TIP3    H134831   4.445   3.882   6.394
11630TIP3    H234832   4.532   3.987   6.459
11631TIP3   OH234833   5.301   4.464   6.530
11631TIP3    H134834   5.252   4.449   6.610
11631TIP3    H234835   5.278   4.553   6.503
11632TIP3   OH234836   4.989   4.548   5.098
11632TIP3    H134837   4.923   4.564   5.030
11632TIP3    H234838   5.064   4.601   5.071
11633TIP3   OH234839   4.702   3.952   5.413
11633TIP3    H134840   4.655   3.966   5.495
11633TIP3    H234841   4.658   3.877   5.373
11634TIP3   OH234842   4.457   4.450   6.453
11634TIP3    H134843   4.478   4.488   6.538
11634TIP3    H234844   4.442   4.525   6.396
11635TIP3   OH234845   4.349   4.334   5.961
11635TIP3    H134846   4.258   4.312   5.979
11635TIP3    H234847   4.364   4.301   5.872
11636TIP3   OH234848   4.846   4.388   5.691
11636TIP3    H134849   4.794   4.460   5.655
11636TIP3    H234850   4.898   4.356   5.617
11637TIP3   OH234851   5.026   4.690   6.784
11637TIP3    H134852   4.996   4.618   6.839
11637TIP3    H234853   5.120   4.696   6.801
11638TIP3   OH234854   4.993   4.473   5.912
11638TIP3    H134855   4.948   4.557   5.909
11638TIP3    H234856   4.959   4.425   5.836
11639TIP3   OH234857   4.353   3.952   5.374
11639TIP3    H134858   4.338   3.956   5.469
11639TIP3    H234859   4.276   3.994   5.336
11640TIP3   OH234860   3.892   3.983   6.257
11640TIP3    H134861   3.973   4.026   6.286
11640TIP3    H234862   3.908   3.962   6.165
11641TIP3   OH234863   3.825   3.969   5.752
11641TIP3    H134864   3.870   4.002   5.674
11641TIP3    H234865   3.760   4.035   5.773
11642TIP3   OH234866   5.038   4.677   6.343
11642TIP3    H134867   5.063   4.609   6.280
11642TIP3    H234868   5.005   4.629   6.418
11643TIP3   OH234869   4.699   4.148   6.073
11643TIP3    H134870   4.607   4.144   6.102
11643TIP3    H234871   4.749   4.145   6.154
11644TIP3   OH234872   4.109   4.208   6.025
11644TIP3    H134873   4.020   4.215   5.990
11644TIP3    H234874   4.136   4.119   6.004
11645TIP3   OH234875   4.378   4.213   5.717
11645TIP3    H134876   4.471   4.214   5.696
11645TIP3    H234877   4.334   4.230   5.634
11646TIP3   OH234878   5.156   4.218   6.255
11646TIP3    H134879   5.203   4.242   6.335
11646TIP3    H234880   5.071   4.187   6.285
11647TIP3   OH234881   4.241   4.233   5.482
11647TIP3    H134882   4.178   4.185   5.429
11647TIP3    H234883   4.296   4.278   5.419
11648TIP3   OH234884   5.359   5.919   6.443
11648TIP3    H134885   5.354   5.937   6.349
11648TIP3    H234886   5.437   5.966   6.473
11649TIP3   OH234887   4.309   5.028   6.856
11649TIP3    H134888   4.390   5.048   6.903
11649TIP3    H234889   4.240   5.037   6.922
11650TIP3   OH234890   4.763   4.514   6.104
11650TIP3    H134891   4.815   4.440   6.072
11650TIP3    H234892   4.753   4.496   6.198
11651TIP3   OH234893   4.254   3.959   6.004
11651TIP3    H134894   4.227   3.883   6.055
11651TIP3    H234895   4.273   3.924   5.917
11652TIP3   OH234896   4.736   4.462   6.368
11652TIP3    H134897   4.657   4.426   6.409
11652TIP3    H234898   4.808   4.428   6.421
11653TIP3   OH234899   4.485   4.754   5.512
11653TIP3    H134900   4.410   4.699   5.489
11653TIP3    H234901   4.460   4.795   5.595
11654TIP3   OH234902   5.369   5.008   6.112
11654TIP3    H134903   5.402   5.057   6.037
11654TIP3    H234904   5.287   4.968   6.081
11655TIP3   OH234905   4.961   4.046   5.398
11655TIP3    H134906   4.868   4.026   5.407
11655TIP3    H234907   4.968   4.137   5.425
11656TIP3   OH234908   4.881   5.094   6.514
11656TIP3    H134909   4.926   5.083   6.597
11656TIP3    H234910   4.840   5.180   6.519
11657TIP3   OH234911   5.010   4.317   5.477
11657TIP3    H134912   5.104   4.329   5.490
11657TIP3    H234913   4.984   4.391   5.422
11658TIP3   OH234914   4.171   4.784   6.161
11658TIP3    H134915   4.200   4.761   6.073
11658TIP3    H234916   4.238   4.748   6.219
11659TIP3   OH234917   4.630   4.919   5.350
11659TIP3    H134918   4.580   5.001   5.350
11659TIP3    H234919   4.576   4.859   5.402
11660TIP3   OH234920   4.051   4.713   6.798
11660TIP3    H134921   4.069   4.693   6.890
11660TIP3    H234922   3.972   4.663   6.778
11661TIP3   OH234923   4.800   4.848   6.791
11661TIP3    H134924   4.755   4.826   6.710
11661TIP3    H234925   4.885   4.804   6.784
11662TIP3   OH234926   5.029   5.370   6.401
11662TIP3    H134927   4.934   5.359   6.406
11662TIP3    H234928   5.052   5.412   6.484
11663TIP3   OH234929   5.429   4.421   5.294
11663TIP3    H134930   5.374   4.373   5.232
11663TIP3    H234931   5.428   4.511   5.262
11664TIP3   OH234932   5.668   5.302   6.374
11664TIP3    H134933   5.574   5.285   6.374
11664TIP3    H234934   5.699   5.266   6.290
11665TIP3   OH234935   5.159   5.242   5.223
11665TIP3    H134936   5.126   5.176   5.283
11665TIP3    H234937   5.168   5.197   5.139
11666TIP3   OH234938   5.138   4.874   6.013
11666TIP3    H134939   5.049   4.850   6.037
11666TIP3    H234940   5.176   4.795   5.974
11667TIP3   OH234941   4.284   5.105   5.814
11667TIP3    H134942   4.287   5.183   5.759
11667TIP3    H234943   4.193   5.074   5.809
11668TIP3   OH234944   3.841   4.393   5.515
11668TIP3    H134945   3.887   4.474   5.536
11668TIP3    H234946   3.762   4.395   5.570
11669TIP3   OH234947   4.403   4.861   5.748
11669TIP3    H134948   4.374   4.951   5.764
11669TIP3    H234949   4.359   4.809   5.815
11670TIP3   OH234950   4.566   5.431   6.273
11670TIP3    H134951   4.602   5.504   6.222
11670TIP3    H234952   4.641   5.396   6.321
11671TIP3   OH234953   4.202   5.335   5.663
11671TIP3    H134954   4.115   5.339   5.704
11671TIP3    H234955   4.234   5.425   5.668
11672TIP3   OH234956   4.920   5.086   6.241
11672TIP3    H134957   4.909   5.083   6.337
11672TIP3    H234958   4.995   5.029   6.224
11673TIP3   OH234959   4.922   4.964   5.101
11673TIP3    H134960   4.966   4.942   5.184
11673TIP3    H234961   4.834   4.926   5.110
11674TIP3   OH234962   5.178   5.596   6.283
11674TIP3    H134963   5.105   5.535   6.294
11674TIP3    H234964   5.152   5.653   6.211
11675TIP3   OH234965   5.237   5.442   4.927
11675TIP3    H134966   5.275   5.510   4.871
11675TIP3    H234967   5.161   5.483   4.967
11676TIP3   OH234968   5.081   4.898   5.316
11676TIP3    H134969   5.065   4.837   5.388
11676TIP3    H234970   5.177   4.903   5.310
11677TIP3   OH234971   3.994   5.318   6.435
11677TIP3    H134972   4.047   5.253   6.481
11677TIP3    H234973   4.007   5.399   6.483
11678TIP3   OH234974   4.186   4.964   5.441
11678TIP3    H134975   4.273   4.928   5.424
11678TIP3    H234976   4.195   5.058   5.426
11679TIP3   OH234977   3.944   4.639   5.603
11679TIP3    H134978   3.881   4.687   5.657
11679TIP3    H234979   3.963   4.697   5.530
11680TIP3   OH234980   4.480   5.146   5.349
11680TIP3    H134981   4.392   5.168   5.379
11680TIP3    H234982   4.499   5.210   5.280
11681TIP3   OH234983   4.674   4.188   5.787
11681TIP3    H134984   4.732   4.258   5.756
11681TIP3    H234985   4.687   4.186   5.882
11682TIP3   OH234986   4.971   4.528   6.563
11682TIP3    H134987   4.984   4.588   6.636
11682TIP3    H234988   4.993   4.442   6.599
11683TIP3   OH234989   4.226   5.235   5.408
11683TIP3    H134990   4.208   5.308   5.349
11683TIP3    H234991   4.215   5.271   5.496
11684TIP3   OH234992   4.314   3.941   5.654
11684TIP3    H134993   4.302   4.033   5.680
11684TIP3    H234994   4.409   3.928   5.658
11685TIP3   OH234995   5.568   4.418   6.537
11685TIP3    H134996   5.473   4.427   6.541
11685TIP3    H234997   5.583   4.355   6.467
11686TIP3   OH234998   5.237   4.618   5.919
11686TIP3    H134999   5.160   4.561   5.926
11686TIP3    H235000   5.303   4.575   5.973
11687TIP3   OH235001   3.955   4.825   5.397
11687TIP3    H135002   4.026   4.885   5.419
11687TIP3    H235003   3.986   4.778   5.319
11688TIP3   OH235004   3.879   4.117   5.527
11688TIP3    H135005   3.886   4.212   5.528
11688TIP3    H235006   3.811   4.098   5.463
11689TIP3   OH235007   5.202   5.595   5.851
11689TIP3    H135008   5.163   5.643   5.778
11689TIP3    H235009   5.297   5.602   5.837
11690TIP3   OH235010   4.262   3.837   6.403
11690TIP3    H135011   4.236   3.803   6.317
11690TIP3    H235012   4.257   3.761   6.461
11691TIP3   OH235013   3.801   5.089   5.783
11691TIP3    H135014   3.748   5.120   5.856
11691TIP3    H235015   3.761   5.128   5.705
11692TIP3   OH235016   3.985   5.623   6.850
11692TIP3    H135017   4.067   5.625   6.899
11692TIP3    H235018   3.960   5.530   6.850
11693TIP3   OH235019   4.460   5.547   6.898
11693TIP3    H135020   4.552   5.523   6.906
11693TIP3    H235021   4.427   5.492   6.826
11694TIP3   OH235022   4.410   5.122   5.017
11694TIP3    H135023   4.350   5.050   5.032
11694TIP3    H235024   4.487   5.081   4.977
11695TIP3   OH235025   5.082   5.481   6.647
11695TIP3    H135026   5.092   5.411   6.711
11695TIP3    H235027   5.158   5.538   6.662
11696TIP3   OH235028   4.869   5.180   4.942
11696TIP3    H135029   4.900   5.112   5.002
11696TIP3    H235030   4.927   5.175   4.867
11697TIP3   OH235031   1.236   0.967   0.022
11697TIP3    H135032   1.255   0.873   0.029
11697TIP3    H235033   1.149   0.972  -0.016
11698TIP3   OH235034   4.077   4.677   5.201
11698TIP3    H135035   4.152   4.650   5.254
11698TIP3    H235036   4.113   4.742   5.140
11699TIP3   OH235037   4.722   5.115   6.823
11699TIP3    H135038   4.675   5.135   6.741
11699TIP3    H235039   4.759   5.028   6.809
11700TIP3   OH235040   4.663   4.865   5.081
11700TIP3    H135041   4.637   4.877   5.172
11700TIP3    H235042   4.658   4.771   5.067
11701TIP3   OH235043   5.198   5.145   6.439
11701TIP3    H135044   5.275   5.176   6.391
11701TIP3    H235045   5.130   5.211   6.422
11702TIP3   OH235046   1.352   0.706   0.023
11702TIP3    H135047   1.432   0.677  -0.020
11702TIP3    H235048   1.379   0.733   0.111
11703TIP3   OH235049   4.282   4.577   5.457
11703TIP3    H135050   4.249   4.538   5.537
11703TIP3    H235051   4.321   4.504   5.409
11704TIP3   OH235052   4.520   4.612   6.668
11704TIP3    H135053   4.448   4.670   6.693
11704TIP3    H235054   4.585   4.670   6.628
11705TIP3   OH235055   4.400   4.373   5.311
11705TIP3    H135056   4.370   4.364   5.220
11705TIP3    H235057   4.496   4.377   5.303
11706TIP3   OH235058   5.080   5.030   6.807
11706TIP3    H135059   5.146   4.990   6.750
11706TIP3    H235060   5.076   4.972   6.883
11707TIP3   OH235061   5.200   4.688   4.979
11707TIP3    H135062   5.188   4.642   4.897
11707TIP3    H235063   5.176   4.778   4.961
11708TIP3   OH235064   4.679   4.434   6.805
11708TIP3    H135065   4.693   4.363   6.743
11708TIP3    H235066   4.625   4.497   6.758
11709TIP3   OH235067   4.703   4.257   6.591
11709TIP3    H135068   4.760   4.218   6.525
11709TIP3    H235069   4.624   4.203   6.589
11710TIP3   OH235070   4.701   4.774   6.542
11710TIP3    H135071   4.768   4.733   6.487
11710TIP3    H235072   4.650   4.828   6.481
11711TIP3   OH235073   5.293   4.706   6.874
11711TIP3    H135074   5.329   4.617   6.870
11711TIP3    H235075   5.366   4.762   6.848
11712TIP3   OH235076   5.320   4.973   6.610
11712TIP3    H135077   5.267   5.034   6.558
11712TIP3    H235078   5.409   4.988   6.578
11713TIP3   OH235079   1.697   0.454   0.034
11713TIP3    H135080   1.630   0.388   0.052
11713TIP3    H235081   1.726   0.435  -0.056
11714TIP3   OH235082   4.799   3.961   6.713
11714TIP3    H135083   4.817   4.004   6.629
11714TIP3    H235084   4.730   3.898   6.694
11715TIP3   OH235085   4.934   4.467   6.914
11715TIP3    H135086   4.919   4.451   7.007
11715TIP3    H235087   4.849   4.451   6.873
11716TIP3   OH235088   5.181   4.425   6.775
11716TIP3    H135089   5.105   4.420   6.833
11716TIP3    H235090   5.254   4.396   6.829
11717TIP3   OH235091   5.415   4.387   6.928
11717TIP3    H135092   5.432   4.293   6.935
11717TIP3    H235093   5.410   4.417   7.018
11718TIP3   OH235094   1.537   0.230   0.097
11718TIP3    H135095   1.536   0.142   0.060
11718TIP3    H235096   1.575   0.219   0.184
11719TIP3   OH235097   4.885   3.970   6.973
11719TIP3    H135098   4.957   3.907   6.965
11719TIP3    H235099   4.849   3.977   6.885
11720TIP3   OH235100   2.103   0.133   0.101
11720TIP3    H135101   2.078   0.063   0.040
11720TIP3    H235102   2.030   0.195   0.098
11721TIP3   OH235103   4.223   5.442   5.224
11721TIP3    H135104   4.310   5.413   5.196
11721TIP3    H235105   4.187   5.488   5.149
11722TIP3   OH235106   3.686   4.807   5.439
11722TIP3    H135107   3.778   4.826   5.422
11722TIP3    H235108   3.668   4.727   5.389
11723TIP3   OH235109   3.590   5.405   5.865
11723TIP3    H135110   3.528   5.348   5.820
11723TIP3    H235111   3.637   5.347   5.925
11724TIP3   OH235112   3.731   5.245   6.041
11724TIP3    H135113   3.719   5.176   6.106
11724TIP3    H235114   3.786   5.310   6.085
11725TIP3   OH235115   5.476   5.638   5.846
11725TIP3    H135116   5.492   5.672   5.934
11725TIP3    H235117   5.527   5.696   5.789
11726TIP3   OH235118   5.493   5.675   6.127
11726TIP3    H135119   5.444   5.593   6.121
11726TIP3    H235120   5.559   5.659   6.194
11727TIP3   OH235121   5.542   5.370   6.696
11727TIP3    H135122   5.470   5.379   6.759
11727TIP3    H235123   5.586   5.455   6.698
11728TIP3   OH235124   5.362   4.886   5.310
11728TIP3    H135125   5.421   4.956   5.281
11728TIP3    H235126   5.406   4.848   5.386
11729TIP3   OH235127   5.491   4.742   5.509
11729TIP3    H135128   5.422   4.704   5.563
11729TIP3    H235129   5.553   4.778   5.573
11730TIP3   OH235130   5.544   5.147   5.944
11730TIP3    H135131   5.594   5.079   5.899
11730TIP3    H235132   5.540   5.219   5.881
11731TIP3   OH235133   5.353   5.434   6.135
11731TIP3    H135134   5.284   5.478   6.186
11731TIP3    H235135   5.306   5.393   6.063
11732TIP3   OH235136   5.407   4.662   5.158
11732TIP3    H135137   5.337   4.661   5.094
11732TIP3    H235138   5.389   4.738   5.213
11733TIP3   OH235139   5.286   4.308   5.092
11733TIP3    H135140   5.233   4.355   5.027
11733TIP3    H235141   5.265   4.216   5.079
11734TIP3   OH235142   5.289   4.607   5.645
11734TIP3    H135143   5.289   4.513   5.626
11734TIP3    H235144   5.276   4.613   5.739
11735TIP3   OH235145   3.932   4.648   6.428
11735TIP3    H135146   3.924   4.629   6.335
11735TIP3    H235147   4.025   4.669   6.440
11736TIP3   OH235148   5.575   5.023   6.510
11736TIP3    H135149   5.643   4.957   6.494
11736TIP3    H235150   5.582   5.083   6.436
11737TIP3   OH235151   5.754   4.813   6.504
11737TIP3    H135152   5.679   4.772   6.547
11737TIP3    H235153   5.829   4.757   6.526
11738TIP3   OH235154   5.229   4.039   5.068
11738TIP3    H135155   5.287   4.014   5.140
11738TIP3    H235156   5.144   4.002   5.092
11739TIP3   OH235157   5.291   4.341   5.532
11739TIP3    H135158   5.326   4.254   5.553
11739TIP3    H235159   5.341   4.369   5.455
11740TIP3   OH235160   5.438   4.482   6.060
11740TIP3    H135161   5.518   4.497   6.010
11740TIP3    H235162   5.452   4.527   6.143
11741TIP3   OH235163   5.514   4.642   6.280
11741TIP3    H135164   5.440   4.672   6.334
11741TIP3    H235165   5.546   4.722   6.238
11742TIP3   OH235166   1.276   0.306   0.049
11742TIP3    H135167   1.370   0.294   0.059
11742TIP3    H235168   1.238   0.221   0.069
11743TIP3   OH235169   5.980   4.241   6.823
11743TIP3    H135170   6.039   4.178   6.780
11743TIP3    H235171   5.942   4.291   6.750
11744TIP3   OH235172   5.392   4.081   5.590
11744TIP3    H135173   5.441   4.055   5.669
11744TIP3    H235174   5.327   4.012   5.579
11745TIP3   OH235175   4.110   4.063   6.444
11745TIP3    H135176   4.157   3.980   6.437
11745TIP3    H235177   4.174   4.129   6.416
11746TIP3   OH235178   3.947   4.384   6.513
11746TIP3    H135179   3.982   4.346   6.432
11746TIP3    H235180   3.940   4.478   6.495
11747TIP3   OH235181   5.830   4.358   6.626
11747TIP3    H135182   5.745   4.398   6.646
11747TIP3    H235183   5.809   4.281   6.574
11748TIP3   OH235184   5.460   3.995   5.228
11748TIP3    H135185   5.502   3.933   5.168
11748TIP3    H235186   5.515   4.073   5.225
11749TIP3   OH235187   3.876   3.856   5.995
11749TIP3    H135188   3.787   3.833   6.021
11749TIP3    H235189   3.866   3.902   5.912
11750TIP3   OH235190   5.040   5.549   5.491
11750TIP3    H135191   5.096   5.541   5.414
11750TIP3    H235192   5.077   5.622   5.540
11751TIP3   OH235193   4.094   3.939   6.808
11751TIP3    H135194   4.041   3.907   6.881
11751TIP3    H235195   4.032   3.987   6.753
11752TIP3   OH235196   4.144   5.338   6.872
11752TIP3    H135197   4.050   5.325   6.857
11752TIP3    H235198   4.153   5.334   6.967
11753TIP3   OH235199   4.337   5.387   6.420
11753TIP3    H135200   4.285   5.460   6.388
11753TIP3    H235201   4.422   5.397   6.377
11754TIP3   OH235202   4.745   5.624   6.557
11754TIP3    H135203   4.784   5.618   6.645
11754TIP3    H235204   4.808   5.676   6.507
11755TIP3   OH235205   4.933   5.778   6.427
11755TIP3    H135206   4.994   5.726   6.375
11755TIP3    H235207   4.988   5.833   6.482
11756TIP3   OH235208   5.739   4.114   6.522
11756TIP3    H135209   5.650   4.101   6.489
11756TIP3    H235210   5.780   4.028   6.514
11757TIP3   OH235211   4.000   5.637   6.465
11757TIP3    H135212   3.909   5.658   6.443
11757TIP3    H235213   4.022   5.699   6.535
11758TIP3   OH235214   4.231   5.620   6.315
11758TIP3    H135215   4.147   5.626   6.362
11758TIP3    H235216   4.210   5.644   6.225
11759TIP3   OH235217   4.649   5.638   6.107
11759TIP3    H135218   4.580   5.648   6.042
11759TIP3    H235219   4.660   5.725   6.145
11760TIP3   OH235220   4.915   5.576   6.160
11760TIP3    H135221   4.823   5.593   6.138
11760TIP3    H235222   4.964   5.641   6.109
11761TIP3   OH235223   5.117   5.753   6.060
11761TIP3    H135224   5.108   5.841   6.022
11761TIP3    H235225   5.144   5.699   5.986
11762TIP3   OH235226   3.911   5.416   6.188
11762TIP3    H135227   3.938   5.391   6.276
11762TIP3    H235228   3.981   5.383   6.131
11763TIP3   OH235229   4.111   5.301   6.047
11763TIP3    H135230   4.123   5.217   6.092
11763TIP3    H235231   4.199   5.340   6.047
11764TIP3   OH235232   4.381   5.386   6.066
11764TIP3    H135233   4.398   5.293   6.050
11764TIP3    H235234   4.433   5.408   6.142
11765TIP3   OH235235   5.007   3.978   6.116
11765TIP3    H135236   4.949   4.000   6.190
11765TIP3    H235237   5.031   3.887   6.132
11766TIP3   OH235238   5.453   3.953   6.046
11766TIP3    H135239   5.502   3.995   5.975
11766TIP3    H235240   5.396   3.890   6.002
11767TIP3   OH235241   5.563   4.029   5.806
11767TIP3    H135242   5.629   3.966   5.775
11767TIP3    H235243   5.602   4.114   5.788
11768TIP3   OH235244   4.185   3.734   6.156
11768TIP3    H135245   4.096   3.702   6.162
11768TIP3    H235246   4.239   3.656   6.147
11769TIP3   OH235247   4.009   3.647   5.815
11769TIP3    H135248   4.031   3.690   5.732
11769TIP3    H235249   3.971   3.716   5.869
11770TIP3   OH235250   4.672   3.793   6.031
11770TIP3    H135251   4.659   3.887   6.020
11770TIP3    H235252   4.715   3.784   6.116
11771TIP3   OH235253   5.204   3.870   5.568
11771TIP3    H135254   5.120   3.894   5.529
11771TIP3    H235255   5.185   3.792   5.620
11772TIP3   OH235256   3.682   5.212   5.568
11772TIP3    H135257   3.599   5.175   5.537
11772TIP3    H235258   3.683   5.302   5.536
11773TIP3   OH235259   4.108   3.768   5.570
11773TIP3    H135260   4.152   3.709   5.510
11773TIP3    H235261   4.176   3.827   5.601
11774TIP3   OH235262   4.589   3.956   5.669
11774TIP3    H135263   4.635   3.885   5.713
11774TIP3    H235264   4.623   4.035   5.710
11775TIP3   OH235265   4.472   5.350   5.155
11775TIP3    H135266   4.556   5.376   5.118
11775TIP3    H235267   4.443   5.277   5.101
11776TIP3   OH235268   5.192   5.514   5.260
11776TIP3    H135269   5.186   5.419   5.252
11776TIP3    H235270   5.147   5.547   5.182
11777TIP3   OH235271   7.283   8.060   0.030
11777TIP3    H135272   7.251   7.989   0.086
11777TIP3    H235273   7.375   8.070   0.056
11778TIP3   OH235274   7.536   8.080   0.142
11778TIP3    H135275   7.610   8.057   0.085
11778TIP3    H235276   7.529   8.007   0.203
11779TIP3   OH235277   3.784   5.226   5.222
11779TIP3    H135278   3.782   5.210   5.317
11779TIP3    H235279   3.852   5.168   5.189
11780TIP3   OH235280   5.491   4.123   6.952
11780TIP3    H135281   5.507   4.089   7.040
11780TIP3    H235282   5.574   4.112   6.907
11781TIP3   OH235283   5.402   5.646   6.446
11781TIP3    H135284   5.326   5.614   6.396
11781TIP3    H235285   5.387   5.740   6.456
11782TIP3   OH235286   6.677   5.029   5.195
11782TIP3    H135287   6.648   5.116   5.169
11782TIP3    H235288   6.606   4.971   5.168
11783TIP3   OH235289   6.678   5.020   5.610
11783TIP3    H135290   6.726   5.002   5.691
11783TIP3    H235291   6.632   4.938   5.590
11784TIP3   OH235292   5.976   4.895   5.961
11784TIP3    H135293   6.009   4.837   6.030
11784TIP3    H235294   6.054   4.921   5.911
11785TIP3   OH235295   6.941   5.329   5.290
11785TIP3    H135296   6.926   5.264   5.359
11785TIP3    H235297   6.963   5.409   5.338
11786TIP3   OH235298   5.964   5.314   5.668
11786TIP3    H135299   5.946   5.220   5.670
11786TIP3    H235300   6.058   5.320   5.649
11787TIP3   OH235301   5.652   4.520   5.440
11787TIP3    H135302   5.611   4.603   5.463
11787TIP3    H235303   5.583   4.470   5.397
11788TIP3   OH235304   5.720   4.820   5.651
11788TIP3    H135305   5.771   4.743   5.678
11788TIP3    H235306   5.784   4.878   5.611
11789TIP3   OH235307   6.602   5.764   5.302
11789TIP3    H135308   6.626   5.705   5.231
11789TIP3    H235309   6.603   5.710   5.380
11790TIP3   OH235310   6.481   5.243   5.621
11790TIP3    H135311   6.522   5.164   5.587
11790TIP3    H235312   6.554   5.298   5.650
11791TIP3   OH235313   7.500   4.573   5.635
11791TIP3    H135314   7.524   4.653   5.682
11791TIP3    H235315   7.511   4.596   5.543
11792TIP3   OH235316   6.894   4.736   5.656
11792TIP3    H135317   6.928   4.650   5.682
11792TIP3    H235318   6.855   4.721   5.571
11793TIP3   OH235319   6.243   4.395   5.616
11793TIP3    H135320   6.221   4.468   5.558
11793TIP3    H235321   6.189   4.323   5.586
11794TIP3   OH235322   6.939   4.495   5.250
11794TIP3    H135323   7.003   4.486   5.320
11794TIP3    H235324   6.988   4.531   5.176
11795TIP3   OH235325   5.866   4.604   5.745
11795TIP3    H135326   5.949   4.587   5.789
11795TIP3    H235327   5.871   4.553   5.664
11796TIP3   OH235328   6.292   4.805   5.556
11796TIP3    H135329   6.386   4.789   5.562
11796TIP3    H235330   6.255   4.724   5.520
11797TIP3   OH235331   7.569   4.785   5.804
11797TIP3    H135332   7.480   4.822   5.796
11797TIP3    H235333   7.599   4.815   5.890
11798TIP3   OH235334   6.224   4.395   6.069
11798TIP3    H135335   6.172   4.428   5.996
11798TIP3    H235336   6.169   4.409   6.146
11799TIP3   OH235337   6.575   5.246   5.055
11799TIP3    H135338   6.533   5.221   4.973
11799TIP3    H235339   6.525   5.321   5.086
11800TIP3   OH235340   6.325   5.170   5.838
11800TIP3    H135341   6.269   5.239   5.874
11800TIP3    H235342   6.370   5.210   5.764
11801TIP3   OH235343   7.107   4.510   5.466
11801TIP3    H135344   7.065   4.487   5.549
11801TIP3    H235345   7.161   4.586   5.486
11802TIP3   OH235346   6.113   4.502   5.839
11802TIP3    H135347   6.168   4.576   5.863
11802TIP3    H235348   6.159   4.459   5.766
11803TIP3   OH235349   6.167   5.369   5.947
11803TIP3    H135350   6.150   5.457   5.914
11803TIP3    H235351   6.088   5.346   5.997
11804TIP3   OH235352   5.541   5.070   5.195
11804TIP3    H135353   5.504   5.087   5.108
11804TIP3    H235354   5.563   5.157   5.228
11805TIP3   OH235355   6.986   5.576   5.434
11805TIP3    H135356   6.899   5.568   5.472
11805TIP3    H235357   6.983   5.658   5.385
11806TIP3   OH235358   7.300   4.463   5.804
11806TIP3    H135359   7.213   4.484   5.768
11806TIP3    H235360   7.361   4.491   5.735
11807TIP3   OH235361   6.567   4.089   5.794
11807TIP3    H135362   6.558   3.997   5.818
11807TIP3    H235363   6.491   4.132   5.834
11808TIP3   OH235364   6.687   5.618   5.080
11808TIP3    H135365   6.737   5.537   5.072
11808TIP3    H235366   6.748   5.687   5.052
11809TIP3   OH235367   6.827   5.388   5.043
11809TIP3    H135368   6.762   5.319   5.031
11809TIP3    H235369   6.875   5.361   5.122
11810TIP3   OH235370   7.198   5.470   5.767
11810TIP3    H135371   7.184   5.396   5.709
11810TIP3    H235372   7.188   5.547   5.712
11811TIP3   OH235373   6.504   4.871   5.042
11811TIP3    H135374   6.422   4.919   5.025
11811TIP3    H235375   6.550   4.872   4.958
11812TIP3   OH235376   6.471   4.669   4.743
11812TIP3    H135377   6.536   4.719   4.792
11812TIP3    H235378   6.523   4.604   4.695
11813TIP3   OH235379   7.403   5.128   5.636
11813TIP3    H135380   7.318   5.172   5.637
11813TIP3    H235381   7.437   5.144   5.548
11814TIP3   OH235382   6.861   4.958   5.005
11814TIP3    H135383   6.805   4.986   5.078
11814TIP3    H235384   6.944   4.934   5.046
11815TIP3   OH235385   7.090   4.989   5.941
11815TIP3    H135386   7.086   5.071   5.990
11815TIP3    H235387   7.007   4.986   5.893
11816TIP3   OH235388   6.086   4.940   5.416
11816TIP3    H135389   6.049   4.882   5.350
11816TIP3    H235390   6.160   4.891   5.452
11817TIP3   OH235391   6.222   5.353   5.557
11817TIP3    H135392   6.197   5.343   5.465
11817TIP3    H235393   6.310   5.316   5.562
11818TIP3   OH235394   6.197   4.932   5.786
11818TIP3    H135395   6.233   4.897   5.704
11818TIP3    H235396   6.246   5.013   5.801
11819TIP3   OH235397   6.745   5.567   5.560
11819TIP3    H135398   6.737   5.645   5.615
11819TIP3    H235399   6.731   5.494   5.620
11820TIP3   OH235400   6.362   5.477   6.109
11820TIP3    H135401   6.302   5.535   6.155
11820TIP3    H235402   6.306   5.423   6.054
11821TIP3   OH235403   6.694   4.818   4.835
11821TIP3    H135404   6.753   4.877   4.883
11821TIP3    H235405   6.720   4.826   4.743
11822TIP3   OH235406   6.117   5.020   6.241
11822TIP3    H135407   6.121   5.113   6.264
11822TIP3    H235408   6.023   5.000   6.236
11823TIP3   OH235409   6.443   5.486   5.102
11823TIP3    H135410   6.521   5.542   5.100
11823TIP3    H235411   6.378   5.535   5.051
11824TIP3   OH235412   6.151   5.638   6.192
11824TIP3    H135413   6.122   5.641   6.101
11824TIP3    H235414   6.072   5.617   6.242
11825TIP3   OH235415   7.209   4.052   4.896
11825TIP3    H135416   7.129   4.070   4.946
11825TIP3    H235417   7.222   4.131   4.843
11826TIP3   OH235418   5.961   4.786   5.213
11826TIP3    H135419   5.888   4.836   5.177
11826TIP3    H235420   5.925   4.699   5.229
11827TIP3   OH235421   7.023   5.419   4.443
11827TIP3    H135422   7.021   5.513   4.423
11827TIP3    H235423   7.113   5.393   4.425
11828TIP3   OH235424   5.743   5.183   6.140
11828TIP3    H135425   5.674   5.167   6.076
11828TIP3    H235426   5.777   5.096   6.161
11829TIP3   OH235427   5.583   5.382   5.787
11829TIP3    H135428   5.676   5.402   5.798
11829TIP3    H235429   5.537   5.460   5.818
11830TIP3   OH235430   7.468   5.780   5.891
11830TIP3    H135431   7.449   5.689   5.912
11830TIP3    H235432   7.387   5.827   5.909
11831TIP3   OH235433   6.550   5.612   5.961
11831TIP3    H135434   6.548   5.704   5.989
11831TIP3    H235435   6.483   5.569   6.013
11832TIP3   OH235436   6.328   5.726   4.914
11832TIP3    H135437   6.278   5.708   4.835
11832TIP3    H235438   6.294   5.810   4.946
11833TIP3   OH235439   5.764   5.569   5.293
11833TIP3    H135440   5.803   5.558   5.379
11833TIP3    H235441   5.711   5.490   5.281
11834TIP3   OH235442   6.528   5.644   4.547
11834TIP3    H135443   6.579   5.571   4.512
11834TIP3    H235444   6.561   5.656   4.636
11835TIP3   OH235445   6.581   5.690   4.818
11835TIP3    H135446   6.493   5.698   4.853
11835TIP3    H235447   6.632   5.650   4.889
11836TIP3   OH235448   7.336   4.946   6.107
11836TIP3    H135449   7.255   4.956   6.057
11836TIP3    H235450   7.354   4.852   6.105
11837TIP3   OH235451   5.943   5.369   6.110
11837TIP3    H135452   5.993   5.358   6.191
11837TIP3    H235453   5.872   5.306   6.117
11838TIP3   OH235454   6.331   4.182   5.920
11838TIP3    H135455   6.247   4.148   5.889
11838TIP3    H235456   6.308   4.261   5.970
11839TIP3   OH235457   6.873   4.299   6.118
11839TIP3    H135458   6.942   4.273   6.180
11839TIP3    H235459   6.791   4.281   6.165
11840TIP3   OH235460   7.098   4.727   6.038
11840TIP3    H135461   7.054   4.724   6.123
11840TIP3    H235462   7.078   4.815   6.004
11841TIP3   OH235463   6.775   4.812   4.573
11841TIP3    H135464   6.729   4.816   4.489
11841TIP3    H235465   6.857   4.859   4.558
11842TIP3   OH235466   6.484   4.220   4.889
11842TIP3    H135467   6.447   4.227   4.977
11842TIP3    H235468   6.445   4.141   4.853
11843TIP3   OH235469   6.270   4.709   5.934
11843TIP3    H135470   6.222   4.717   6.016
11843TIP3    H235471   6.249   4.790   5.886
11844TIP3   OH235472   6.150   4.591   5.449
11844TIP3    H135473   6.061   4.568   5.474
11844TIP3    H235474   6.161   4.557   5.360
11845TIP3   OH235475   6.633   4.669   5.178
11845TIP3    H135476   6.584   4.740   5.137
11845TIP3    H235477   6.690   4.637   5.108
11846TIP3   OH235478   6.815   4.935   6.253
11846TIP3    H135479   6.787   4.867   6.315
11846TIP3    H235480   6.908   4.947   6.271
11847TIP3   OH235481   6.799   4.686   5.404
11847TIP3    H135482   6.731   4.711   5.342
11847TIP3    H235483   6.842   4.610   5.363
11848TIP3   OH235484   6.101   4.725   6.151
11848TIP3    H135485   6.111   4.790   6.221
11848TIP3    H235486   6.082   4.643   6.196
11849TIP3   OH235487   6.148   4.207   4.863
11849TIP3    H135488   6.138   4.208   4.958
11849TIP3    H235489   6.070   4.251   4.829
11850TIP3   OH235490   5.689   4.253   5.731
11850TIP3    H135491   5.763   4.286   5.782
11850TIP3    H235492   5.726   4.236   5.644
11851TIP3   OH235493   5.620   4.226   5.234
11851TIP3    H135494   5.663   4.259   5.155
11851TIP3    H235495   5.557   4.294   5.258
11852TIP3   OH235496   6.834   4.934   5.830
11852TIP3    H135497   6.860   4.868   5.767
11852TIP3    H235498   6.792   4.885   5.901
11853TIP3   OH235499   6.510   4.388   5.504
11853TIP3    H135500   6.431   4.387   5.558
11853TIP3    H235501   6.582   4.378   5.567
11854TIP3   OH235502   5.913   4.466   5.512
11854TIP3    H135503   5.824   4.472   5.477
11854TIP3    H235504   5.940   4.376   5.494
11855TIP3   OH235505   6.168   4.466   5.205
11855TIP3    H135506   6.262   4.478   5.191
11855TIP3    H235507   6.128   4.485   5.120
11856TIP3   OH235508   6.968   4.472   5.710
11856TIP3    H135509   6.948   4.489   5.802
11856TIP3    H235510   6.899   4.412   5.681
11857TIP3   OH235511   6.044   4.493   4.963
11857TIP3    H135512   5.977   4.445   4.914
11857TIP3    H235513   6.096   4.536   4.896
11858TIP3   OH235514   7.167   6.168   5.927
11858TIP3    H135515   7.155   6.187   5.834
11858TIP3    H235516   7.249   6.212   5.950
11859TIP3   OH235517   6.102   5.284   6.343
11859TIP3    H135518   6.182   5.305   6.391
11859TIP3    H235519   6.032   5.289   6.409
11860TIP3   OH235520   6.564   4.749   5.610
11860TIP3    H135521   6.628   4.696   5.562
11860TIP3    H235522   6.560   4.710   5.697
11861TIP3   OH235523   6.059   4.217   5.498
11861TIP3    H135524   6.029   4.142   5.550
11861TIP3    H235525   6.085   4.179   5.414
11862TIP3   OH235526   6.536   4.654   5.875
11862TIP3    H135527   6.448   4.684   5.899
11862TIP3    H235528   6.595   4.707   5.930
11863TIP3   OH235529   6.269   5.015   4.990
11863TIP3    H135530   6.197   4.955   4.969
11863TIP3    H235531   6.246   5.052   5.075
11864TIP3   OH235532   7.163   5.259   5.594
11864TIP3    H135533   7.195   5.310   5.519
11864TIP3    H235534   7.081   5.220   5.562
11865TIP3   OH235535   6.735   4.326   4.885
11865TIP3    H135536   6.642   4.304   4.884
11865TIP3    H235537   6.737   4.421   4.899
11866TIP3   OH235538   6.674   5.346   5.997
11866TIP3    H135539   6.719   5.336   6.081
11866TIP3    H235540   6.633   5.432   6.002
11867TIP3   OH235541   6.795   4.589   4.961
11867TIP3    H135542   6.890   4.595   4.970
11867TIP3    H235543   6.770   4.666   4.909
11868TIP3   OH235544   5.965   5.031   5.647
11868TIP3    H135545   6.000   5.011   5.561
11868TIP3    H235546   6.028   4.994   5.708
11869TIP3   OH235547   6.420   5.176   4.829
11869TIP3    H135548   6.374   5.261   4.827
11869TIP3    H235549   6.363   5.120   4.881
11870TIP3   OH235550   5.845   4.952   6.272
11870TIP3    H135551   5.847   4.928   6.364
11870TIP3    H235552   5.771   4.902   6.236
11871TIP3   OH235553   6.579   5.086   6.293
11871TIP3    H135554   6.510   5.027   6.264
11871TIP3    H235555   6.660   5.046   6.262
11872TIP3   OH235556   6.824   5.624   5.883
11872TIP3    H135557   6.729   5.614   5.888
11872TIP3    H235558   6.847   5.669   5.964
11873TIP3   OH235559   7.223   4.677   4.785
11873TIP3    H135560   7.169   4.627   4.725
11873TIP3    H235561   7.225   4.766   4.749
11874TIP3   OH235562   7.445   5.502   5.868
11874TIP3    H135563   7.351   5.502   5.849
11874TIP3    H235564   7.487   5.486   5.783
11875TIP3   OH235565   6.952   5.489   4.708
11875TIP3    H135566   6.918   5.420   4.765
11875TIP3    H235567   6.966   5.447   4.624
11876TIP3   OH235568   6.929   5.128   5.499
11876TIP3    H135569   6.839   5.105   5.522
11876TIP3    H235570   6.965   5.048   5.460
11877TIP3   OH235571   6.081   5.359   5.309
11877TIP3    H135572   6.081   5.436   5.252
11877TIP3    H235573   5.988   5.342   5.327
11878TIP3   OH235574   5.648   4.652   5.025
11878TIP3    H135575   5.689   4.736   5.042
11878TIP3    H235576   5.566   4.654   5.073
11879TIP3   OH235577   6.185   5.117   5.225
11879TIP3    H135578   6.161   5.206   5.249
11879TIP3    H235579   6.152   5.063   5.297
11880TIP3   OH235580   6.354   5.707   5.763
11880TIP3    H135581   6.395   5.774   5.708
11880TIP3    H235582   6.428   5.666   5.808
11881TIP3   OH235583   6.005   5.584   5.157
11881TIP3    H135584   5.916   5.591   5.192
11881TIP3    H235585   6.038   5.674   5.160
11882TIP3   OH235586   6.721   5.342   5.725
11882TIP3    H135587   6.708   5.339   5.820
11882TIP3    H235588   6.795   5.283   5.709
11883TIP3   OH235589   6.709   5.229   4.601
11883TIP3    H135590   6.757   5.204   4.680
11883TIP3    H235591   6.623   5.189   4.612
11884TIP3   OH235592   6.984   5.852   5.770
11884TIP3    H135593   6.911   5.791   5.778
11884TIP3    H235594   6.959   5.910   5.699
11885TIP3   OH235595   7.028   5.693   4.408
11885TIP3    H135596   7.048   5.753   4.336
11885TIP3    H235597   6.956   5.736   4.455
11886TIP3   OH235598   6.049   4.473   6.275
11886TIP3    H135599   5.954   4.482   6.279
11886TIP3    H235600   6.071   4.414   6.347
11887TIP3   OH235601   6.880   5.151   4.803
11887TIP3    H135602   6.866   5.093   4.878
11887TIP3    H235603   6.975   5.156   4.794
11888TIP3   OH235604   5.805   5.563   5.917
11888TIP3    H135605   5.851   5.492   5.963
11888TIP3    H235606   5.799   5.633   5.982
11889TIP3   OH235607   6.079   5.191   4.607
11889TIP3    H135608   6.083   5.099   4.581
11889TIP3    H235609   6.050   5.189   4.698
11890TIP3   OH235610   6.009   5.204   4.876
11890TIP3    H135611   6.076   5.174   4.937
11890TIP3    H235612   6.008   5.299   4.886
11891TIP3   OH235613   5.742   4.906   5.093
11891TIP3    H135614   5.675   4.951   5.145
11891TIP3    H235615   5.757   4.965   5.019
11892TIP3   OH235616   6.907   4.531   5.972
11892TIP3    H135617   6.984   4.575   6.008
11892TIP3    H235618   6.896   4.454   6.027
11893TIP3   OH235619   6.792   4.277   5.156
11893TIP3    H135620   6.770   4.296   5.064
11893TIP3    H235621   6.833   4.358   5.187
11894TIP3   OH235622   6.282   5.411   4.826
11894TIP3    H135623   6.195   5.427   4.862
11894TIP3    H235624   6.298   5.484   4.767
11895TIP3   OH235625   6.450   4.474   5.246
11895TIP3    H135626   6.511   4.543   5.222
11895TIP3    H235627   6.468   4.457   5.339
11896TIP3   OH235628   6.742   4.770   6.030
11896TIP3    H135629   6.765   4.814   6.111
11896TIP3    H235630   6.791   4.688   6.032
11897TIP3   OH235631   6.606   4.178   5.339
11897TIP3    H135632   6.583   4.256   5.390
11897TIP3    H235633   6.674   4.209   5.278
11898TIP3   OH235634   6.026   5.473   4.905
11898TIP3    H135635   6.000   5.540   4.842
11898TIP3    H235636   6.015   5.515   4.990
11899TIP3   OH235637   6.120   4.194   5.141
11899TIP3    H135638   6.109   4.284   5.171
11899TIP3    H235639   6.215   4.178   5.147
11900TIP3   OH235640   7.361   4.670   6.018
11900TIP3    H135641   7.267   4.681   6.031
11900TIP3    H235642   7.368   4.609   5.945
11901TIP3   OH235643   7.022   4.873   5.406
11901TIP3    H135644   6.944   4.818   5.417
11901TIP3    H235645   7.089   4.830   5.461
11902TIP3   OH235646   5.752   5.086   4.877
11902TIP3    H135647   5.818   5.155   4.883
11902TIP3    H235648   5.790   5.022   4.816
11903TIP3   OH235649   5.665   4.375   5.007
11903TIP3    H135650   5.679   4.469   5.018
11903TIP3    H235651   5.578   4.369   4.968
11904TIP3   OH235652   7.003   5.841   5.346
11904TIP3    H135653   6.960   5.895   5.280
11904TIP3    H235654   7.096   5.852   5.329
11905TIP3   OH235655   6.069   4.094   5.884
11905TIP3    H135656   6.039   4.060   5.800
11905TIP3    H235657   6.060   4.020   5.945
11906TIP3   OH235658   5.593   5.341   5.277
11906TIP3    H135659   5.546   5.379   5.352
11906TIP3    H235660   5.552   5.382   5.201
11907TIP3   OH235661   5.780   5.880   6.343
11907TIP3    H135662   5.860   5.879   6.396
11907TIP3    H235663   5.752   5.788   6.340
11908TIP3   OH235664   6.253   5.818   6.374
11908TIP3    H135665   6.344   5.791   6.390
11908TIP3    H235666   6.221   5.756   6.309
11909TIP3   OH235667   6.224   5.400   4.504
11909TIP3    H135668   6.178   5.328   4.547
11909TIP3    H235669   6.300   5.358   4.462
11910TIP3   OH235670   6.877   5.744   6.124
11910TIP3    H135671   6.888   5.669   6.182
11910TIP3    H235672   6.952   5.800   6.142
11911TIP3   OH235673   6.662   5.436   4.426
11911TIP3    H135674   6.695   5.371   4.488
11911TIP3    H235675   6.720   5.431   4.351
11912TIP3   OH235676   5.896   5.279   6.532
11912TIP3    H135677   5.914   5.186   6.541
11912TIP3    H235678   5.810   5.284   6.491
11913TIP3   OH235679   5.895   4.898   4.740
11913TIP3    H135680   5.948   4.876   4.816
11913TIP3    H235681   5.958   4.908   4.669
11914TIP3   OH235682   6.515   5.362   6.309
11914TIP3    H135683   6.469   5.384   6.227
11914TIP3    H235684   6.546   5.273   6.296
11915TIP3   OH235685   6.447   5.117   4.562
11915TIP3    H135686   6.424   5.132   4.653
11915TIP3    H235687   6.431   5.024   4.548
11916TIP3   OH235688   6.989   5.399   5.930
11916TIP3    H135689   7.063   5.428   5.877
11916TIP3    H235690   6.920   5.464   5.913
11917TIP3   OH235691   6.013   5.024   6.537
11917TIP3    H135692   6.090   4.998   6.486
11917TIP3    H235693   6.048   5.045   6.624
11918TIP3   OH235694   6.070   4.829   4.948
11918TIP3    H135695   6.043   4.797   5.034
11918TIP3    H235696   6.110   4.754   4.905
11919TIP3   OH235697   6.373   4.911   6.196
11919TIP3    H135698   6.286   4.952   6.203
11919TIP3    H235699   6.405   4.938   6.110
11920TIP3   OH235700   6.195   4.637   4.785
11920TIP3    H135701   6.166   4.643   4.694
11920TIP3    H235702   6.290   4.644   4.780
11921TIP3   OH235703   6.876   5.276   6.284
11921TIP3    H135704   6.943   5.233   6.230
11921TIP3    H235705   6.868   5.220   6.361
11922TIP3   OH235706   7.001   4.935   4.467
11922TIP3    H135707   6.987   4.894   4.381
11922TIP3    H235708   6.975   5.026   4.455
11923TIP3   OH235709   6.478   4.681   6.303
11923TIP3    H135710   6.479   4.609   6.240
11923TIP3    H235711   6.442   4.755   6.254
11924TIP3   OH235712   6.484   4.477   6.104
11924TIP3    H135713   6.510   4.514   6.019
11924TIP3    H235714   6.393   4.451   6.091
11925TIP3   OH235715   6.496   5.004   5.973
11925TIP3    H135716   6.585   5.033   5.952
11925TIP3    H235717   6.440   5.066   5.927
11926TIP3   OH235718   7.085   4.959   6.349
11926TIP3    H135719   7.120   4.871   6.359
11926TIP3    H235720   7.160   5.012   6.323
11927TIP3   OH235721   7.114   5.224   6.095
11927TIP3    H135722   7.060   5.286   6.045
11927TIP3    H235723   7.202   5.238   6.062
11928TIP3   OH235724   6.359   4.768   6.544
11928TIP3    H135725   6.291   4.704   6.564
11928TIP3    H235726   6.389   4.745   6.456
11929TIP3   OH235727   6.607   4.242   6.197
11929TIP3    H135728   6.565   4.322   6.167
11929TIP3    H235729   6.541   4.174   6.186
11930TIP3   OH235730   6.733   4.722   6.404
11930TIP3    H135731   6.721   4.710   6.499
11930TIP3    H235732   6.647   4.701   6.367
11931TIP3   OH235733   6.977   4.679   6.274
11931TIP3    H135734   6.899   4.677   6.328
11931TIP3    H235735   7.047   4.647   6.331
11932TIP3   OH235736   7.215   4.635   6.418
11932TIP3    H135737   7.228   4.540   6.427
11932TIP3    H235738   7.209   4.667   6.508
11933TIP3   OH235739   6.196   4.548   6.608
11933TIP3    H135740   6.198   4.459   6.572
11933TIP3    H235741   6.234   4.539   6.696
11934TIP3   OH235742   6.681   4.229   6.462
11934TIP3    H135743   6.749   4.162   6.457
11934TIP3    H235744   6.648   4.236   6.373
11935TIP3   OH235745   6.769   4.445   6.607
11935TIP3    H135746   6.740   4.373   6.552
11935TIP3    H235747   6.695   4.506   6.607
11936TIP3   OH235748   5.985   5.672   4.724
11936TIP3    H135749   6.065   5.694   4.677
11936TIP3    H235750   5.934   5.753   4.725
11937TIP3   OH235751   5.480   5.066   4.910
11937TIP3    H135752   5.574   5.083   4.899
11937TIP3    H235753   5.465   4.983   4.865
11938TIP3   OH235754   5.394   5.682   5.356
11938TIP3    H135755   5.326   5.634   5.308
11938TIP3    H235756   5.434   5.616   5.413
11939TIP3   OH235757   5.530   5.500   5.522
11939TIP3    H135758   5.517   5.431   5.588
11939TIP3    H235759   5.580   5.568   5.567
11940TIP3   OH235760   7.271   5.895   5.321
11940TIP3    H135761   7.281   5.937   5.407
11940TIP3    H235762   7.330   5.943   5.264
11941TIP3   OH235763   7.279   5.957   5.594
11941TIP3    H135764   7.261   5.864   5.610
11941TIP3    H235765   7.368   5.970   5.625
11942TIP3   OH235766   7.340   5.628   6.180
11942TIP3    H135767   7.265   5.631   6.239
11942TIP3    H235768   7.381   5.714   6.189
11943TIP3   OH235769   7.160   5.140   4.793
11943TIP3    H135770   7.218   5.210   4.764
11943TIP3    H235771   7.203   5.105   4.871
11944TIP3   OH235772   7.284   5.007   5.002
11944TIP3    H135773   7.217   4.968   5.058
11944TIP3    H235774   7.348   5.044   5.064
11945TIP3   OH235775   7.346   5.406   5.435
11945TIP3    H135776   7.393   5.336   5.390
11945TIP3    H235777   7.343   5.478   5.372
11946TIP3   OH235778   7.162   5.698   5.619
11946TIP3    H135779   7.096   5.746   5.669
11946TIP3    H235780   7.114   5.658   5.547
11947TIP3   OH235781   7.210   4.914   4.644
11947TIP3    H135782   7.139   4.912   4.579
11947TIP3    H235783   7.192   4.992   4.696
11948TIP3   OH235784   7.074   4.560   4.590
11948TIP3    H135785   7.029   4.606   4.519
11948TIP3    H235786   7.055   4.468   4.575
11949TIP3   OH235787   7.088   4.862   5.138
11949TIP3    H135788   7.092   4.767   5.125
11949TIP3    H235789   7.069   4.873   5.231
11950TIP3   OH235790   5.712   4.927   5.903
11950TIP3    H135791   5.701   4.894   5.814
11950TIP3    H235792   5.806   4.926   5.918
11951TIP3   OH235793   7.370   5.271   6.004
11951TIP3    H135794   7.437   5.205   5.985
11951TIP3    H235795   7.394   5.346   5.948
11952TIP3   OH235796   7.553   5.068   5.991
11952TIP3    H135797   7.478   5.026   6.033
11952TIP3    H235798   7.628   5.013   6.013
11953TIP3   OH235799   7.019   4.291   4.565
11953TIP3    H135800   7.074   4.266   4.639
11953TIP3    H235801   6.933   4.255   4.587
11954TIP3   OH235802   7.086   4.583   5.023
11954TIP3    H135803   7.130   4.499   5.035
11954TIP3    H235804   7.131   4.623   4.948
11955TIP3   OH235805   7.237   4.746   5.540
11955TIP3    H135806   7.318   4.765   5.493
11955TIP3    H235807   7.250   4.785   5.627
11956TIP3   OH235808   7.311   4.899   5.766
11956TIP3    H135809   7.236   4.927   5.820
11956TIP3    H235810   7.343   4.980   5.725
11957TIP3   OH235811   5.930   4.609   6.560
11957TIP3    H135812   6.025   4.604   6.572
11957TIP3    H235813   5.898   4.527   6.597
11958TIP3   OH235814   7.769   4.500   6.311
11958TIP3    H135815   7.831   4.439   6.271
11958TIP3    H235816   7.733   4.549   6.237
11959TIP3   OH235817   7.200   4.330   5.071
11959TIP3    H135818   7.243   4.315   5.156
11959TIP3    H235819   7.134   4.261   5.065
11960TIP3   OH235820   5.902   4.317   5.898
11960TIP3    H135821   5.956   4.238   5.905
11960TIP3    H235822   5.964   4.388   5.883
11961TIP3   OH235823   5.682   4.576   5.961
11961TIP3    H135824   5.734   4.570   5.881
11961TIP3    H235825   5.703   4.663   5.996
11962TIP3   OH235826   7.623   4.613   6.109
11962TIP3    H135827   7.538   4.653   6.130
11962TIP3    H235828   7.601   4.536   6.057
11963TIP3   OH235829   7.265   4.254   4.716
11963TIP3    H135830   7.300   4.195   4.650
11963TIP3    H235831   7.313   4.336   4.703
11964TIP3   OH235832   5.673   4.093   5.466
11964TIP3    H135833   5.584   4.083   5.501
11964TIP3    H235834   5.662   4.146   5.388
11965TIP3   OH235835   6.847   5.810   4.979
11965TIP3    H135836   6.892   5.790   4.897
11965TIP3    H235837   6.894   5.885   5.015
11966TIP3   OH235838   5.899   4.168   6.291
11966TIP3    H135839   5.845   4.152   6.368
11966TIP3    H235840   5.840   4.208   6.228
11967TIP3   OH235841   5.932   5.596   6.361
11967TIP3    H135842   5.838   5.583   6.348
11967TIP3    H235843   5.946   5.584   6.455
11968TIP3   OH235844   6.122   5.643   5.910
11968TIP3    H135845   6.049   5.656   5.850
11968TIP3    H235846   6.199   5.671   5.861
11969TIP3   OH235847   6.553   5.881   6.033
11969TIP3    H135848   6.584   5.873   6.123
11969TIP3    H235849   6.624   5.927   5.987
11970TIP3   OH235850   6.745   6.032   5.904
11970TIP3    H135851   6.808   5.977   5.859
11970TIP3    H235852   6.798   6.090   5.959
11971TIP3   OH235853   7.534   4.364   6.007
11971TIP3    H135854   7.444   4.349   5.977
11971TIP3    H235855   7.575   4.277   6.002
11972TIP3   OH235856   5.822   5.927   5.928
11972TIP3    H135857   5.728   5.930   5.912
11972TIP3    H235858   5.833   5.973   6.011
11973TIP3   OH235859   5.998   5.977   5.720
11973TIP3    H135860   5.940   5.957   5.794
11973TIP3    H235861   5.986   5.904   5.660
11974TIP3   OH235862   6.462   5.907   5.600
11974TIP3    H135863   6.443   5.930   5.509
11974TIP3    H235864   6.466   5.991   5.646
11975TIP3   OH235865   6.721   5.829   5.654
11975TIP3    H135866   6.629   5.849   5.636
11975TIP3    H235867   6.770   5.893   5.603
11976TIP3   OH235868   6.911   6.006   5.547
11976TIP3    H135869   6.906   6.093   5.507
11976TIP3    H235870   6.943   5.949   5.477
11977TIP3   OH235871   5.708   5.673   5.675
11977TIP3    H135872   5.735   5.645   5.762
11977TIP3    H235873   5.772   5.633   5.616
11978TIP3   OH235874   5.895   5.540   5.533
11978TIP3    H135875   5.905   5.457   5.578
11978TIP3    H235876   5.982   5.581   5.539
11979TIP3   OH235877   6.150   5.618   5.598
11979TIP3    H135878   6.178   5.529   5.577
11979TIP3    H235879   6.225   5.658   5.641
11980TIP3   OH235880   6.741   4.295   5.641
11980TIP3    H135881   6.701   4.223   5.690
11980TIP3    H235882   6.809   4.253   5.589
11981TIP3   OH235883   7.243   4.196   5.527
11981TIP3    H135884   7.280   4.247   5.455
11981TIP3    H235885   7.150   4.219   5.528
11982TIP3   OH235886   7.361   4.276   5.291
11982TIP3    H135887   7.433   4.220   5.262
11982TIP3    H235888   7.393   4.365   5.282
11983TIP3   OH235889   5.980   3.992   5.642
11983TIP3    H135890   5.890   3.960   5.649
11983TIP3    H235891   6.033   3.912   5.634
11984TIP3   OH235892   5.799   3.897   5.296
11984TIP3    H135893   5.822   3.946   5.217
11984TIP3    H235894   5.761   3.961   5.355
11985TIP3   OH235895   6.454   4.033   5.532
11985TIP3    H135896   6.503   4.082   5.465
11985TIP3    H235897   6.493   4.061   5.615
11986TIP3   OH235898   6.957   4.181   5.508
11986TIP3    H135899   6.960   4.145   5.419
11986TIP3    H235900   6.959   4.104   5.565
11987TIP3   OH235901   7.011   4.122   5.076
11987TIP3    H135902   6.931   4.170   5.097
11987TIP3    H235903   6.999   4.036   5.115
11988TIP3   OH235904   5.480   5.464   5.063
11988TIP3    H135905   5.395   5.431   5.035
11988TIP3    H235906   5.485   5.552   5.026
11989TIP3   OH235907   5.904   4.029   5.056
11989TIP3    H135908   5.949   3.968   4.998
11989TIP3    H235909   5.974   4.085   5.091
11990TIP3   OH235910   6.396   4.222   5.151
11990TIP3    H135911   6.453   4.170   5.208
11990TIP3    H235912   6.412   4.313   5.179
11991TIP3   OH235913   6.267   5.631   4.647
11991TIP3    H135914   6.351   5.656   4.607
11991TIP3    H235915   6.235   5.559   4.593
11992TIP3   OH235916   6.983   5.758   4.744
11992TIP3    H135917   6.977   5.663   4.735
11992TIP3    H235918   6.938   5.793   4.667
11993TIP3   OH235919   6.202   4.273   6.530
11993TIP3    H135920   6.167   4.203   6.585
11993TIP3    H235921   6.294   4.280   6.555
11994TIP3   OH235922   6.453   4.281   6.647
11994TIP3    H135923   6.532   4.257   6.598
11994TIP3    H235924   6.443   4.211   6.711
11995TIP3   OH235925   5.565   5.472   4.707
11995TIP3    H135926   5.568   5.505   4.797
11995TIP3    H235927   5.648   5.426   4.694
11996TIP3   OH235928   7.277   4.364   6.434
11996TIP3    H135929   7.293   4.335   6.524
11996TIP3    H235930   7.363   4.359   6.392
11997TIP3   OH235931   7.215   5.894   5.932
11997TIP3    H135932   7.140   5.864   5.881
11997TIP3    H235933   7.204   5.989   5.939
11998TIP3   OH235934   8.413   5.291   4.730
11998TIP3    H135935   8.393   5.378   4.697
11998TIP3    H235936   8.348   5.234   4.688
11999TIP3   OH235937   8.423   5.281   5.095
11999TIP3    H135938   8.472   5.258   5.174
11999TIP3    H235939   8.391   5.197   5.062
12000TIP3   OH235940   7.772   5.151   5.447
12000TIP3    H135941   7.806   5.098   5.519
12000TIP3    H235942   7.849   5.173   5.395
12001TIP3   OH235943   0.137   5.538   4.762
12001TIP3    H135944   0.101   5.491   4.837
12001TIP3    H235945   0.138   5.630   4.788
12002TIP3   OH235946   7.758   5.575   5.167
12002TIP3    H135947   7.739   5.482   5.159
12002TIP3    H235948   7.848   5.584   5.135
12003TIP3   OH235949   7.440   4.789   4.929
12003TIP3    H135950   7.400   4.872   4.952
12003TIP3    H235951   7.370   4.739   4.887
12004TIP3   OH235952   7.519   5.083   5.137
12004TIP3    H135953   7.571   5.006   5.162
12004TIP3    H235954   7.584   5.145   5.102
12005TIP3   OH235955   8.392   6.020   4.790
12005TIP3    H135956   8.419   5.959   4.720
12005TIP3    H235957   8.395   5.967   4.870
12006TIP3   OH235958   8.250   5.503   5.105
12006TIP3    H135959   8.291   5.421   5.077
12006TIP3    H235960   8.324   5.560   5.128
12007TIP3   OH235961   0.081   5.022   5.131
12007TIP3    H135962   0.107   4.937   5.166
12007TIP3    H235963   0.034   5.002   5.051
12008TIP3   OH235964   8.024   4.658   5.115
12008TIP3    H135965   8.000   4.727   5.053
12008TIP3    H235966   7.972   4.582   5.088
12009TIP3   OH235967   0.080   4.746   4.772
12009TIP3    H135968   0.152   4.746   4.836
12009TIP3    H235969   0.115   4.793   4.696
12010TIP3   OH235970   7.662   4.865   5.229
12010TIP3    H135971   7.744   4.849   5.276
12010TIP3    H235972   7.666   4.806   5.153
12011TIP3   OH235973   8.079   5.061   5.048
12011TIP3    H135974   8.173   5.044   5.053
12011TIP3    H235975   8.042   4.981   5.012
12012TIP3   OH235976   8.014   4.652   5.558
12012TIP3    H135977   7.963   4.693   5.488
12012TIP3    H235978   7.962   4.667   5.637
12013TIP3   OH235979   8.354   5.502   4.561
12013TIP3    H135980   8.324   5.477   4.474
12013TIP3    H235981   8.307   5.583   4.581
12014TIP3   OH235982   8.114   5.430   5.330
12014TIP3    H135983   8.060   5.499   5.368
12014TIP3    H235984   8.152   5.469   5.252
12015TIP3   OH235985   0.305   4.765   4.932
12015TIP3    H135986   0.332   4.754   5.023
12015TIP3    H235987   0.387   4.777   4.884
12016TIP3   OH235988   7.905   4.770   5.334
12016TIP3    H135989   7.959   4.845   5.360
12016TIP3    H235990   7.954   4.730   5.263
12017TIP3   OH235991   7.949   5.622   5.447
12017TIP3    H135992   7.932   5.708   5.407
12017TIP3    H235993   7.862   5.585   5.463
12018TIP3   OH235994   7.337   5.326   4.679
12018TIP3    H135995   7.301   5.343   4.592
12018TIP3    H235996   7.360   5.413   4.712
12019TIP3   OH235997   0.093   5.794   4.839
12019TIP3    H135998   0.022   5.813   4.901
12019TIP3    H235999   0.149   5.871   4.843
12020TIP3   OH236000   8.335   4.347   5.275
12020TIP3    H136001   8.337   4.255   5.302
12020TIP3    H236002   8.259   4.384   5.320
12021TIP3   OH236003   8.479   5.871   4.574
12021TIP3    H136004   8.536   5.794   4.568
12021TIP3    H236005   8.535   5.944   4.548
12022TIP3   OH236006   0.025   5.645   4.535
12022TIP3    H136007  -0.023   5.573   4.495
12022TIP3    H236008   0.053   5.612   4.620
12023TIP3   OH236009   0.437   5.790   5.227
12023TIP3    H136010   0.380   5.714   5.222
12023TIP3    H236011   0.381   5.864   5.205
12024TIP3   OH236012   8.264   5.138   4.548
12024TIP3    H136013   8.187   5.189   4.523
12024TIP3    H236014   8.314   5.129   4.467
12025TIP3   OH236015   8.241   4.900   4.243
12025TIP3    H136016   8.304   4.960   4.282
12025TIP3    H236017   8.295   4.838   4.193
12026TIP3   OH236018   8.560   5.264   4.497
12026TIP3    H136019   8.514   5.282   4.579
12026TIP3    H236020   8.647   5.234   4.524
12027TIP3   OH236021   0.199   5.243   5.487
12027TIP3    H136022   0.214   5.324   5.536
12027TIP3    H236023   0.132   5.266   5.423
12028TIP3   OH236024   7.879   5.197   4.906
12028TIP3    H136025   7.844   5.140   4.837
12028TIP3    H236026   7.954   5.149   4.941
12029TIP3   OH236027   8.002   5.618   5.040
12029TIP3    H136028   7.979   5.607   4.947
12029TIP3    H236029   8.090   5.581   5.047
12030TIP3   OH236030   7.988   5.192   5.274
12030TIP3    H136031   8.024   5.157   5.193
12030TIP3    H236032   8.038   5.273   5.289
12031TIP3   OH236033   8.501   5.836   5.032
12031TIP3    H136034   8.506   5.915   5.085
12031TIP3    H236035   8.497   5.764   5.096
12032TIP3   OH236036   8.136   5.755   5.597
12032TIP3    H136037   8.081   5.827   5.628
12032TIP3    H236038   8.077   5.701   5.544
12033TIP3   OH236039   8.433   5.085   4.337
12033TIP3    H136040   8.486   5.155   4.374
12033TIP3    H236041   8.457   5.082   4.244
12034TIP3   OH236042   7.918   5.280   5.725
12034TIP3    H136043   7.923   5.370   5.758
12034TIP3    H236044   7.825   5.260   5.724
12035TIP3   OH236045   8.232   5.750   4.590
12035TIP3    H136046   8.315   5.797   4.591
12035TIP3    H236047   8.173   5.807   4.539
12036TIP3   OH236048   7.755   5.043   4.702
12036TIP3    H136049   7.685   5.095   4.664
12036TIP3    H236050   7.717   4.956   4.714
12037TIP3   OH236051   0.291   5.689   3.764
12037TIP3    H136052   0.217   5.713   3.818
12037TIP3    H236053   0.339   5.625   3.817
12038TIP3   OH236054   7.554   5.447   5.622
12038TIP3    H136055   7.483   5.433   5.559
12038TIP3    H236056   7.587   5.359   5.640
12039TIP3   OH236057   7.390   5.633   5.272
12039TIP3    H136058   7.483   5.651   5.267
12039TIP3    H236059   7.352   5.714   5.307
12040TIP3   OH236060   8.336   5.873   5.448
12040TIP3    H136061   8.340   5.962   5.483
12040TIP3    H236062   8.265   5.831   5.496
12041TIP3   OH236063   8.122   5.976   4.415
12041TIP3    H136064   8.080   5.957   4.331
12041TIP3    H236065   8.090   6.063   4.439
12042TIP3   OH236066   7.559   5.827   4.786
12042TIP3    H136067   7.601   5.818   4.872
12042TIP3    H236068   7.509   5.746   4.776
12043TIP3   OH236069   8.315   5.917   4.046
12043TIP3    H136070   8.361   5.842   4.009
12043TIP3    H236071   8.351   5.926   4.134
12044TIP3   OH236072   8.372   5.920   4.312
12044TIP3    H136073   8.289   5.944   4.354
12044TIP3    H236074   8.426   5.886   4.383
12045TIP3   OH236075   0.470   5.231   5.657
12045TIP3    H136076   0.409   5.246   5.585
12045TIP3    H236077   0.482   5.136   5.659
12046TIP3   OH236078   7.699   5.668   5.698
12046TIP3    H136079   7.780   5.629   5.730
12046TIP3    H236080   7.650   5.595   5.661
12047TIP3   OH236081   8.113   4.442   5.406
12047TIP3    H136082   8.028   4.410   5.379
12047TIP3    H236083   8.094   4.521   5.457
12048TIP3   OH236084   8.596   4.582   5.633
12048TIP3    H136085   8.662   4.571   5.701
12048TIP3    H236086   8.514   4.555   5.673
12049TIP3   OH236087   0.372   4.980   5.632
12049TIP3    H136088   0.313   4.967   5.706
12049TIP3    H236089   0.314   4.985   5.556
12050TIP3   OH236090   8.486   5.021   4.080
12050TIP3    H136091   8.468   5.097   4.025
12050TIP3    H236092   8.582   5.013   4.080
12051TIP3   OH236093   8.274   4.483   4.383
12051TIP3    H136094   8.230   4.485   4.468
12051TIP3    H236095   8.243   4.402   4.341
12052TIP3   OH236096   8.062   4.975   5.427
12052TIP3    H136097   8.015   4.984   5.510
12052TIP3    H236098   8.042   5.055   5.379
12053TIP3   OH236099   7.933   4.848   4.944
12053TIP3    H136100   7.841   4.828   4.961
12053TIP3    H236101   7.948   4.819   4.854
12054TIP3   OH236102   8.403   4.935   4.666
12054TIP3    H136103   8.351   5.008   4.632
12054TIP3    H236104   8.456   4.908   4.591
12055TIP3   OH236105   0.016   5.183   5.745
12055TIP3    H136106  -0.012   5.115   5.807
12055TIP3    H236107   0.109   5.196   5.764
12056TIP3   OH236108   8.556   4.961   4.896
12056TIP3    H136109   8.494   4.987   4.827
12056TIP3    H236110   8.592   4.878   4.865
12057TIP3   OH236111   7.896   4.987   5.644
12057TIP3    H136112   7.904   5.051   5.715
12057TIP3    H236113   7.878   4.904   5.688
12058TIP3   OH236114   7.939   4.471   4.353
12058TIP3    H136115   7.955   4.542   4.415
12058TIP3    H236116   7.858   4.496   4.308
12059TIP3   OH236117   7.480   4.505   5.220
12059TIP3    H136118   7.554   4.542   5.269
12059TIP3    H236119   7.515   4.493   5.131
12060TIP3   OH236120   7.425   4.497   4.722
12060TIP3    H136121   7.458   4.531   4.639
12060TIP3    H236122   7.360   4.561   4.750
12061TIP3   OH236123   8.570   5.196   5.314
12061TIP3    H136124   8.618   5.141   5.252
12061TIP3    H236125   8.548   5.137   5.386
12062TIP3   OH236126   8.276   4.664   4.988
12062TIP3    H136127   8.199   4.664   5.045
12062TIP3    H236128   8.348   4.636   5.045
12063TIP3   OH236129   7.691   4.716   4.995
12063TIP3    H136130   7.604   4.747   4.971
12063TIP3    H236131   7.700   4.631   4.950
12064TIP3   OH236132   7.957   4.726   4.704
12064TIP3    H136133   8.051   4.727   4.690
12064TIP3    H236134   7.919   4.726   4.616
12065TIP3   OH236135   0.133   4.761   5.202
12065TIP3    H136136   0.068   4.760   5.272
12065TIP3    H236137   0.124   4.676   5.160
12066TIP3   OH236138   7.850   4.721   4.450
12066TIP3    H136139   7.777   4.686   4.398
12066TIP3    H236140   7.894   4.783   4.391
12067TIP3   OH236141   7.913   5.546   5.837
12067TIP3    H136142   7.984   5.583   5.890
12067TIP3    H236143   7.840   5.534   5.898
12068TIP3   OH236144   8.346   5.002   5.092
12068TIP3    H136145   8.414   4.960   5.039
12068TIP3    H236146   8.350   4.957   5.176
12069TIP3   OH236147   7.899   4.373   4.900
12069TIP3    H136148   7.860   4.340   4.982
12069TIP3    H236149   7.991   4.385   4.921
12070TIP3   OH236150   8.321   4.914   5.360
12070TIP3    H136151   8.233   4.941   5.385
12070TIP3    H236152   8.379   4.966   5.416
12071TIP3   OH236153   8.042   5.288   4.469
12071TIP3    H136154   7.973   5.225   4.450
12071TIP3    H236155   8.023   5.319   4.557
12072TIP3   OH236156   0.259   5.545   5.168
12072TIP3    H136157   0.333   5.561   5.108
12072TIP3    H236158   0.190   5.510   5.112
12073TIP3   OH236159   8.514   4.611   4.371
12073TIP3    H136160   8.424   4.580   4.378
12073TIP3    H236161   8.509   4.705   4.387
12074TIP3   OH236162   8.479   5.603   5.557
12074TIP3    H136163   8.553   5.579   5.501
12074TIP3    H236164   8.431   5.669   5.506
12075TIP3   OH236165   8.559   4.867   4.449
12075TIP3    H136166   8.648   4.886   4.482
12075TIP3    H236167   8.535   4.945   4.400
12076TIP3   OH236168   7.756   5.290   5.134
12076TIP3    H136169   7.791   5.270   5.047
12076TIP3    H236170   7.821   5.255   5.194
12077TIP3   OH236171   8.220   5.431   4.320
12077TIP3    H136172   8.176   5.516   4.317
12077TIP3    H236173   8.160   5.375   4.369
12078TIP3   OH236174   7.645   5.212   5.758
12078TIP3    H136175   7.650   5.188   5.851
12078TIP3    H236176   7.569   5.164   5.725
12079TIP3   OH236177   8.400   5.348   5.765
12079TIP3    H136178   8.331   5.287   5.739
12079TIP3    H236179   8.482   5.301   5.748
12080TIP3   OH236180   8.600   5.844   5.369
12080TIP3    H136181   8.507   5.859   5.381
12080TIP3    H236182   8.643   5.901   5.433
12081TIP3   OH236183   0.665   5.783   5.381
12081TIP3    H136184   0.590   5.788   5.322
12081TIP3    H236185   0.718   5.860   5.360
12082TIP3   OH236186   0.028   5.739   4.245
12082TIP3    H136187   0.004   5.665   4.300
12082TIP3    H236188   0.005   5.711   4.156
12083TIP3   OH236189   0.053   5.423   5.018
12083TIP3    H136190  -0.033   5.382   5.029
12083TIP3    H236191   0.105   5.357   4.973
12084TIP3   OH236192   7.876   5.621   4.790
12084TIP3    H136193   7.882   5.698   4.733
12084TIP3    H236194   7.782   5.602   4.795
12085TIP3   OH236195   7.448   4.906   4.500
12085TIP3    H136196   7.488   4.992   4.517
12085TIP3    H236197   7.366   4.908   4.549
12086TIP3   OH236198   7.978   5.374   4.715
12086TIP3    H136199   7.957   5.465   4.738
12086TIP3    H236200   7.945   5.323   4.789
12087TIP3   OH236201   8.158   5.943   5.233
12087TIP3    H136202   8.190   6.017   5.181
12087TIP3    H236203   8.234   5.914   5.283
12088TIP3   OH236204   7.793   5.845   4.639
12088TIP3    H136205   7.706   5.851   4.678
12088TIP3    H236206   7.826   5.934   4.641
12089TIP3   OH236207   8.500   5.598   5.181
12089TIP3    H136208   8.554   5.593   5.260
12089TIP3    H236209   8.552   5.551   5.114
12090TIP3   OH236210   8.474   5.488   4.083
12090TIP3    H136211   8.504   5.474   4.173
12090TIP3    H236212   8.394   5.436   4.076
12091TIP3   OH236213   0.120   6.140   5.280
12091TIP3    H136214   0.054   6.076   5.253
12091TIP3    H236215   0.125   6.202   5.207
12092TIP3   OH236216   0.191   5.987   3.944
12092TIP3    H136217   0.267   6.025   3.901
12092TIP3    H236218   0.132   6.061   3.959
12093TIP3   OH236219   7.845   4.732   5.764
12093TIP3    H136220   7.750   4.740   5.769
12093TIP3    H236221   7.869   4.679   5.840
12094TIP3   OH236222   0.010   5.460   4.316
12094TIP3    H136223  -0.016   5.387   4.372
12094TIP3    H236224   0.091   5.432   4.275
12095TIP3   OH236225   7.583   5.838   5.406
12095TIP3    H136226   7.666   5.792   5.421
12095TIP3    H236227   7.580   5.905   5.474
12096TIP3   OH236228   7.858   5.454   4.097
12096TIP3    H136229   7.866   5.363   4.066
12096TIP3    H236230   7.839   5.446   4.190
12097TIP3   OH236231   7.804   5.466   4.369
12097TIP3    H136232   7.886   5.440   4.412
12097TIP3    H236233   7.803   5.562   4.376
12098TIP3   OH236234   7.537   5.161   4.578
12098TIP3    H136235   7.471   5.206   4.630
12098TIP3    H236236   7.556   5.220   4.505
12099TIP3   OH236237   0.004   4.783   5.441
12099TIP3    H136238   0.069   4.851   5.460
12099TIP3    H236239   0.003   4.728   5.519
12100TIP3   OH236240   8.553   4.538   4.637
12100TIP3    H136241   8.541   4.564   4.546
12100TIP3    H236242   8.597   4.612   4.678
12101TIP3   OH236243   8.074   5.658   4.319
12101TIP3    H136244   7.987   5.683   4.351
12101TIP3    H236245   8.100   5.732   4.263
12102TIP3   OH236246   8.236   4.728   4.727
12102TIP3    H136247   8.293   4.800   4.701
12102TIP3    H236248   8.250   4.718   4.821
12103TIP3   OH236249   8.507   5.043   5.532
12103TIP3    H136250   8.544   5.097   5.601
12103TIP3    H236251   8.539   4.954   5.550
12104TIP3   OH236252   8.382   4.448   4.829
12104TIP3    H136253   8.360   4.527   4.877
12104TIP3    H236254   8.439   4.478   4.758
12105TIP3   OH236255   7.819   5.739   4.386
12105TIP3    H136256   7.795   5.808   4.324
12105TIP3    H236257   7.808   5.779   4.472
12106TIP3   OH236258   0.135   5.201   4.881
12106TIP3    H136259   0.067   5.134   4.890
12106TIP3    H236260   0.211   5.164   4.925
12107TIP3   OH236261   7.553   5.343   4.367
12107TIP3    H136262   7.623   5.408   4.376
12107TIP3    H236263   7.586   5.281   4.301
12108TIP3   OH236264   7.471   4.629   4.488
12108TIP3    H136265   7.480   4.724   4.497
12108TIP3    H236266   7.413   4.618   4.414
12109TIP3   OH236267   0.185   6.082   4.862
12109TIP3    H136268   0.137   6.128   4.793
12109TIP3    H236269   0.276   6.082   4.832
12110TIP3   OH236270   7.860   4.349   5.367
12110TIP3    H136271   7.832   4.312   5.283
12110TIP3    H236272   7.851   4.276   5.429
12111TIP3   OH236273   7.389   5.599   4.759
12111TIP3    H136274   7.341   5.634   4.834
12111TIP3    H236275   7.348   5.640   4.683
12112TIP3   OH236276   8.049   6.055   5.862
12112TIP3    H136277   8.132   6.007   5.867
12112TIP3    H236278   8.058   6.109   5.783
12113TIP3   OH236279   8.016   5.656   3.997
12113TIP3    H136280   7.967   5.585   4.038
12113TIP3    H236281   8.087   5.612   3.951
12114TIP3   OH236282   0.114   6.014   5.555
12114TIP3    H136283   0.178   5.973   5.613
12114TIP3    H236284   0.166   6.063   5.492
12115TIP3   OH236285   8.429   5.704   3.923
12115TIP3    H136286   8.462   5.631   3.976
12115TIP3    H236287   8.486   5.706   3.847
12116TIP3   OH236288   7.693   5.515   5.993
12116TIP3    H136289   7.716   5.425   6.016
12116TIP3    H236290   7.600   5.511   5.970
12117TIP3   OH236291   7.680   5.152   4.220
12117TIP3    H136292   7.736   5.130   4.295
12117TIP3    H236293   7.742   5.162   4.147
12118TIP3   OH236294   8.276   5.594   5.766
12118TIP3    H136295   8.226   5.645   5.702
12118TIP3    H236296   8.253   5.503   5.747
12119TIP3   OH236297   8.230   5.366   4.052
12119TIP3    H136298   8.214   5.382   4.144
12119TIP3    H236299   8.210   5.273   4.040
12120TIP3   OH236300   0.094   5.585   5.385
12120TIP3    H136301   0.161   5.566   5.319
12120TIP3    H236302   0.090   5.681   5.387
12121TIP3   OH236303   7.819   5.267   6.021
12121TIP3    H136304   7.900   5.231   5.984
12121TIP3    H236305   7.844   5.293   6.110
12122TIP3   OH236306   7.856   5.087   4.431
12122TIP3    H136307   7.840   5.053   4.519
12122TIP3    H236308   7.898   5.015   4.384
12123TIP3   OH236309   8.180   5.182   5.684
12123TIP3    H136310   8.090   5.215   5.689
12123TIP3    H236311   8.211   5.208   5.598
12124TIP3   OH236312   7.970   4.890   4.274
12124TIP3    H136313   7.943   4.896   4.182
12124TIP3    H236314   8.066   4.891   4.270
12125TIP3   OH236315   0.051   5.491   5.795
12125TIP3    H136316   0.124   5.480   5.735
12125TIP3    H236317   0.079   5.445   5.875
12126TIP3   OH236318   0.199   5.274   3.987
12126TIP3    H136319   0.211   5.220   3.909
12126TIP3    H236320   0.158   5.354   3.955
12127TIP3   OH236321   8.259   4.939   5.788
12127TIP3    H136322   8.263   4.868   5.724
12127TIP3    H236323   8.233   5.016   5.738
12128TIP3   OH236324   8.272   4.739   5.589
12128TIP3    H136325   8.305   4.769   5.505
12128TIP3    H236326   8.181   4.715   5.572
12129TIP3   OH236327   8.299   5.276   5.461
12129TIP3    H136328   8.382   5.273   5.413
12129TIP3    H236329   8.244   5.335   5.410
12130TIP3   OH236330   0.272   5.197   5.849
12130TIP3    H136331   0.309   5.122   5.894
12130TIP3    H236332   0.342   5.227   5.791
12131TIP3   OH236333   0.250   5.482   5.610
12131TIP3    H136334   0.223   5.541   5.540
12131TIP3    H236335   0.325   5.525   5.651
12132TIP3   OH236336   8.140   5.032   6.024
12132TIP3    H136337   8.078   4.964   6.049
12132TIP3    H236338   8.173   5.003   5.939
12133TIP3   OH236339   8.350   4.495   5.710
12133TIP3    H136340   8.311   4.574   5.671
12133TIP3    H236341   8.290   4.425   5.687
12134TIP3   OH236342   8.511   4.980   5.890
12134TIP3    H136343   8.506   4.967   5.984
12134TIP3    H236344   8.422   4.962   5.858
12135TIP3   OH236345   0.112   4.870   5.736
12135TIP3    H136346   0.032   4.897   5.782
12135TIP3    H236347   0.180   4.871   5.804
12136TIP3   OH236348   0.321   4.901   5.903
12136TIP3    H136349   0.369   4.819   5.902
12136TIP3    H236350   0.315   4.924   5.996
12137TIP3   OH236351   7.991   4.804   6.093
12137TIP3    H136352   7.996   4.715   6.058
12137TIP3    H236353   8.027   4.797   6.182
12138TIP3   OH236354   8.443   4.498   5.965
12138TIP3    H136355   8.508   4.428   5.966
12138TIP3    H236356   8.406   4.495   5.877
12139TIP3   OH236357   8.558   4.712   6.092
12139TIP3    H136358   8.526   4.639   6.038
12139TIP3    H236359   8.487   4.776   6.089
12140TIP3   OH236360   7.804   5.947   4.202
12140TIP3    H136361   7.896   5.930   4.181
12140TIP3    H236362   7.770   5.993   4.126
12141TIP3   OH236363   7.280   5.325   4.395
12141TIP3    H136364   7.374   5.340   4.385
12141TIP3    H236365   7.265   5.239   4.355
12142TIP3   OH236366   7.186   5.917   4.838
12142TIP3    H136367   7.124   5.862   4.791
12142TIP3    H236368   7.232   5.856   4.897
12143TIP3   OH236369   7.328   5.752   5.010
12143TIP3    H136370   7.313   5.687   5.078
12143TIP3    H236371   7.378   5.821   5.054
12144TIP3   OH236372   0.439   6.134   4.786
12144TIP3    H136373   0.501   6.146   4.858
12144TIP3    H236374   0.490   6.148   4.707
12145TIP3   OH236375   0.293   5.438   4.244
12145TIP3    H136376   0.389   5.435   4.237
12145TIP3    H236377   0.276   5.442   4.338
12146TIP3   OH236378   0.614   5.784   4.769
12146TIP3    H136379   0.586   5.708   4.718
12146TIP3    H236380   0.533   5.815   4.811
12147TIP3   OH236381   0.307   6.005   5.119
12147TIP3    H136382   0.264   6.054   5.189
12147TIP3    H236383   0.258   6.026   5.040
12148TIP3   OH236384   0.185   5.186   4.613
12148TIP3    H136385   0.271   5.143   4.615
12148TIP3    H236386   0.167   5.206   4.705
12149TIP3   OH236387   7.508   5.183   5.391
12149TIP3    H136388   7.498   5.152   5.301
12149TIP3    H236389   7.602   5.181   5.406
12150TIP3   OH236390   0.492   5.579   5.437
12150TIP3    H136391   0.533   5.496   5.462
12150TIP3    H236392   0.564   5.641   5.433
12151TIP3   OH236393   0.451   4.713   4.467
12151TIP3    H136394   0.382   4.661   4.426
12151TIP3    H236395   0.481   4.772   4.397
12152TIP3   OH236396   0.453   5.043   5.308
12152TIP3    H136397   0.426   5.129   5.278
12152TIP3    H236398   0.548   5.047   5.313
12153TIP3   OH236399   7.727   4.863   6.046
12153TIP3    H136400   7.821   4.859   6.059
12153TIP3    H236401   7.694   4.781   6.083
12154TIP3   OH236402   7.701   4.576   5.366
12154TIP3    H136403   7.754   4.498   5.382
12154TIP3    H236404   7.764   4.648   5.367
12155TIP3   OH236405   7.484   4.833   5.448
12155TIP3    H136406   7.535   4.831   5.367
12155TIP3    H236407   7.503   4.919   5.486
12156TIP3   OH236408   7.469   4.353   4.950
12156TIP3    H136409   7.384   4.337   4.991
12156TIP3    H236410   7.449   4.411   4.876
12157TIP3   OH236411   0.020   6.081   4.481
12157TIP3    H136412   0.042   6.069   4.388
12157TIP3    H236413   0.086   6.142   4.514
12158TIP3   OH236414   7.685   4.420   5.773
12158TIP3    H136415   7.633   4.406   5.852
12158TIP3    H236416   7.625   4.463   5.713
12159TIP3   OH236417   7.928   5.884   5.373
12159TIP3    H136418   7.879   5.964   5.357
12159TIP3    H236419   8.011   5.897   5.328
12160TIP3   OH236420   8.361   6.127   5.559
12160TIP3    H136421   8.423   6.115   5.631
12160TIP3    H236422   8.407   6.184   5.498
12161TIP3   OH236423   8.518   6.290   5.401
12161TIP3    H136424   8.581   6.232   5.360
12161TIP3    H236425   8.570   6.361   5.438
12162TIP3   OH236426   7.589   6.157   5.391
12162TIP3    H136427   7.501   6.192   5.383
12162TIP3    H236428   7.593   6.121   5.480
12163TIP3   OH236429   7.837   6.132   5.283
12163TIP3    H136430   7.752   6.145   5.325
12163TIP3    H236431   7.823   6.158   5.192
12164TIP3   OH236432   8.231   6.156   5.073
12164TIP3    H136433   8.163   6.166   5.006
12164TIP3    H236434   8.241   6.244   5.110
12165TIP3   OH236435   8.491   6.090   5.132
12165TIP3    H136436   8.401   6.109   5.104
12165TIP3    H236437   8.544   6.155   5.085
12166TIP3   OH236438   0.087   6.269   5.040
12166TIP3    H136439   0.086   6.358   5.005
12166TIP3    H236440   0.122   6.215   4.969
12167TIP3   OH236441   7.500   5.933   5.157
12167TIP3    H136442   7.529   5.921   5.247
12167TIP3    H236443   7.571   5.897   5.104
12168TIP3   OH236444   7.701   5.808   5.025
12168TIP3    H136445   7.715   5.727   5.074
12168TIP3    H236446   7.786   5.850   5.022
12169TIP3   OH236447   7.967   5.900   5.032
12169TIP3    H136448   7.987   5.808   5.017
12169TIP3    H236449   8.022   5.925   5.106
12170TIP3   OH236450   8.470   4.538   5.125
12170TIP3    H136451   8.438   4.468   5.181
12170TIP3    H236452   8.564   4.523   5.117
12171TIP3   OH236453   7.785   4.248   5.117
12171TIP3    H136454   7.694   4.221   5.131
12171TIP3    H236455   7.835   4.167   5.123
12172TIP3   OH236456   7.645   4.235   4.766
12172TIP3    H136457   7.605   4.156   4.728
12172TIP3    H236458   7.582   4.264   4.832
12173TIP3   OH236459   8.200   4.332   5.017
12173TIP3    H136460   8.265   4.357   4.951
12173TIP3    H236461   8.247   4.340   5.101
12174TIP3   OH236462   0.141   4.510   5.096
12174TIP3    H136463   0.198   4.484   5.024
12174TIP3    H236464   0.157   4.445   5.164
12175TIP3   OH236465   0.119   4.355   4.494
12175TIP3    H136466   0.060   4.398   4.557
12175TIP3    H236467   0.191   4.322   4.548
12176TIP3   OH236468   7.272   5.724   4.545
12176TIP3    H136469   7.188   5.691   4.511
12176TIP3    H236470   7.276   5.814   4.513
12177TIP3   OH236471   8.168   4.480   4.637
12177TIP3    H136472   8.224   4.425   4.692
12177TIP3    H236473   8.190   4.569   4.664
12178TIP3   OH236474   8.064   5.882   4.146
12178TIP3    H136475   8.147   5.913   4.109
12178TIP3    H236476   8.038   5.810   4.088
12179TIP3   OH236477   0.112   6.036   4.226
12179TIP3    H136478   0.047   5.968   4.211
12179TIP3    H236479   0.088   6.107   4.166
12180TIP3   OH236480   7.993   4.530   6.010
12180TIP3    H136481   7.957   4.463   6.069
12180TIP3    H236482   8.085   4.539   6.038
12181TIP3   OH236483   8.235   4.542   6.139
12181TIP3    H136484   8.313   4.528   6.086
12181TIP3    H236485   8.235   4.471   6.203
12182TIP3   OH236486   7.371   5.718   4.192
12182TIP3    H136487   7.376   5.738   4.286
12182TIP3    H236488   7.454   5.675   4.173
12183TIP3   OH236489   0.465   4.664   5.853
12183TIP3    H136490   0.500   4.674   5.941
12183TIP3    H236491   0.540   4.644   5.799
12184TIP3   OH236492   0.335   6.102   4.391
12184TIP3    H136493   0.270   6.069   4.328
12184TIP3    H236494   0.416   6.058   4.365
12185TIP3   OH236495   0.931   6.067   6.385
12185TIP3    H136496   0.888   6.151   6.366
12185TIP3    H236497   0.868   6.001   6.355
12186TIP3   OH236498   0.933   6.065   6.763
12186TIP3    H136499   0.975   6.048   6.847
12186TIP3    H236500   0.894   5.981   6.738
12187TIP3   OH236501   1.122   6.372   6.512
12187TIP3    H136502   1.161   6.292   6.547
12187TIP3    H236503   1.190   6.438   6.522
12188TIP3   OH236504   0.822   6.837   6.462
12188TIP3    H136505   0.855   6.766   6.407
12188TIP3    H236506   0.874   6.832   6.542
12189TIP3   OH236507   0.780   6.290   6.743
12189TIP3    H136508   0.807   6.199   6.744
12189TIP3    H236509   0.688   6.288   6.770
12190TIP3   OH236510   1.757   5.607   6.806
12190TIP3    H136511   1.779   5.690   6.847
12190TIP3    H236512   1.782   5.618   6.714
12191TIP3   OH236513   1.157   5.776   6.834
12191TIP3    H136514   1.180   5.691   6.870
12191TIP3    H236515   1.118   5.756   6.749
12192TIP3   OH236516   1.192   5.532   6.420
12192TIP3    H136517   1.257   5.525   6.490
12192TIP3    H236518   1.239   5.569   6.346
12193TIP3   OH236519   1.822   5.821   6.977
12193TIP3    H136520   1.736   5.859   6.960
12193TIP3    H236521   1.836   5.835   7.071
12194TIP3   OH236522   0.794   6.275   6.271
12194TIP3    H136523   0.744   6.261   6.190
12194TIP3    H236524   0.864   6.335   6.245
12195TIP3   OH236525   1.359   5.553   6.634
12195TIP3    H136526   1.334   5.517   6.719
12195TIP3    H236527   1.414   5.628   6.655
12196TIP3   OH236528   1.235   6.614   6.601
12196TIP3    H136529   1.141   6.605   6.621
12196TIP3    H236530   1.242   6.697   6.554
12197TIP3   OH236531   1.561   5.510   6.991
12197TIP3    H136532   1.472   5.537   6.968
12197TIP3    H236533   1.613   5.535   6.914
12198TIP3   OH236534   0.850   5.170   6.956
12198TIP3    H136535   0.837   5.080   6.987
12198TIP3    H236536   0.799   5.224   7.017
12199TIP3   OH236537   0.945   6.661   6.291
12199TIP3    H136538   0.969   6.570   6.272
12199TIP3    H236539   1.017   6.713   6.256
12200TIP3   OH236540   1.035   6.408   6.233
12200TIP3    H136541   1.081   6.361   6.164
12200TIP3    H236542   1.077   6.380   6.314
12201TIP3   OH236543   1.485   6.516   6.933
12201TIP3    H136544   1.473   6.436   6.882
12201TIP3    H236545   1.478   6.587   6.869
12202TIP3   OH236546   0.764   5.914   6.220
12202TIP3    H136547   0.681   5.955   6.196
12202TIP3    H236548   0.814   5.909   6.138
12203TIP3   OH236549   0.733   5.706   5.934
12203TIP3    H136550   0.799   5.763   5.974
12203TIP3    H236551   0.784   5.639   5.888
12204TIP3   OH236552   1.658   6.163   6.808
12204TIP3    H136553   1.574   6.208   6.813
12204TIP3    H236554   1.691   6.181   6.720
12205TIP3   OH236555   1.111   6.015   6.184
12205TIP3    H136556   1.057   6.035   6.259
12205TIP3    H236557   1.193   5.981   6.221
12206TIP3   OH236558   7.062   1.936   0.042
12206TIP3    H136559   7.081   2.021   0.082
12206TIP3    H236560   6.974   1.944   0.006
12207TIP3   OH236561   0.976   6.573   6.719
12207TIP3    H136562   0.936   6.656   6.692
12207TIP3    H236563   1.033   6.597   6.792
12208TIP3   OH236564   0.951   5.866   6.016
12208TIP3    H136565   1.009   5.927   6.062
12208TIP3    H236566   0.977   5.872   5.924
12209TIP3   OH236567   1.454   5.091   6.068
12209TIP3    H136568   1.377   5.112   6.120
12209TIP3    H236569   1.468   5.168   6.013
12210TIP3   OH236570   1.280   6.469   5.622
12210TIP3    H136571   1.277   6.560   5.592
12210TIP3    H236572   1.368   6.439   5.598
12211TIP3   OH236573   1.709   6.873   6.945
12211TIP3    H136574   1.713   6.784   6.980
12211TIP3    H236575   1.640   6.915   6.996
12212TIP3   OH236576   0.820   6.785   6.048
12212TIP3    H136577   0.746   6.726   6.059
12212TIP3    H236578   0.883   6.758   6.114
12213TIP3   OH236579   7.331   1.925   0.240
12213TIP3    H136580   7.262   1.946   0.177
12213TIP3    H236581   7.352   1.833   0.222
12214TIP3   OH236582   7.093   1.698   0.186
12214TIP3    H136583   7.014   1.656   0.220
12214TIP3    H236584   7.061   1.770   0.132
12215TIP3   OH236585   1.038   5.849   5.759
12215TIP3    H136586   0.987   5.848   5.678
12215TIP3    H236587   1.113   5.905   5.740
12216TIP3   OH236588   0.742   5.290   6.076
12216TIP3    H136589   0.706   5.293   6.165
12216TIP3    H236590   0.695   5.218   6.034
12217TIP3   OH236591   0.896   5.715   6.357
12217TIP3    H136592   0.843   5.783   6.314
12217TIP3    H236593   0.951   5.680   6.286
12218TIP3   OH236594   6.882   1.837   0.367
12218TIP3    H136595   6.887   1.747   0.401
12218TIP3    H236596   6.972   1.869   0.371
12219TIP3   OH236597   1.067   5.727   6.577
12219TIP3    H136598   0.997   5.751   6.516
12219TIP3    H236599   1.107   5.650   6.537
12220TIP3   OH236600   1.057   5.971   6.989
12220TIP3    H136601   1.093   5.911   6.923
12220TIP3    H236602   1.036   5.914   7.063
12221TIP3   OH236603   0.779   5.444   6.683
12221TIP3    H136604   0.712   5.456   6.750
12221TIP3    H236605   0.860   5.428   6.732
12222TIP3   OH236606   1.202   5.519   6.926
12222TIP3    H136607   1.178   5.512   7.018
12222TIP3    H236608   1.137   5.466   6.880
12223TIP3   OH236609   7.129   3.204   0.086
12223TIP3    H136610   7.172   3.257   0.019
12223TIP3    H236611   7.182   3.218   0.165
12224TIP3   OH236612   0.838   5.807   6.769
12224TIP3    H136613   0.872   5.733   6.721
12224TIP3    H236614   0.812   5.771   6.854
12225TIP3   OH236615   6.517   1.670   0.003
12225TIP3    H136616   6.450   1.709   0.059
12225TIP3    H236617   6.597   1.675   0.054
12226TIP3   OH236618   1.422   6.299   6.773
12226TIP3    H136619   1.452   6.348   6.697
12226TIP3    H236620   1.341   6.257   6.744
12227TIP3   OH236621   0.998   5.374   6.058
12227TIP3    H136622   0.904   5.357   6.059
12227TIP3    H236623   1.005   5.469   6.072
12228TIP3   OH236624   6.560   2.270   0.108
12228TIP3    H136625   6.548   2.247   0.200
12228TIP3    H236626   6.531   2.361   0.102
12229TIP3   OH236627   1.053   5.635   6.137
12229TIP3    H136628   1.148   5.641   6.145
12229TIP3    H236629   1.029   5.712   6.084
12230TIP3   OH236630   0.663   6.239   6.027
12230TIP3    H136631   0.656   6.324   5.985
12230TIP3    H236632   0.639   6.177   5.958
12231TIP3   OH236633   6.618   1.924   0.363
12231TIP3    H136634   6.586   1.918   0.273
12231TIP3    H236635   6.700   1.876   0.363
12232TIP3   OH236636   1.126   6.655   6.925
12232TIP3    H136637   1.056   6.638   6.988
12232TIP3    H236638   1.203   6.672   6.980
12233TIP3   OH236639   1.467   5.724   5.959
12233TIP3    H136640   1.409   5.678   5.898
12233TIP3    H236641   1.472   5.814   5.925
12234TIP3   OH236642   1.730   6.607   7.034
12234TIP3    H136643   1.641   6.575   7.051
12234TIP3    H236644   1.751   6.573   6.947
12235TIP3   OH236645   1.205   6.520   5.884
12235TIP3    H136646   1.171   6.441   5.927
12235TIP3    H236647   1.221   6.493   5.794
12236TIP3   OH236648   1.190   6.159   6.673
12236TIP3    H136649   1.102   6.130   6.699
12236TIP3    H236650   1.231   6.080   6.637
12237TIP3   OH236651   1.021   6.337   6.899
12237TIP3    H136652   0.966   6.327   6.977
12237TIP3    H236653   1.111   6.331   6.931
12238TIP3   OH236654   0.952   6.238   5.755
12238TIP3    H136655   0.939   6.270   5.844
12238TIP3    H236656   0.887   6.283   5.703
12239TIP3   OH236657   1.234   6.909   6.865
12239TIP3    H136658   1.178   6.834   6.847
12239TIP3    H236659   1.217   6.970   6.793
12240TIP3   OH236660   1.287   6.741   5.571
12240TIP3    H136661   1.300   6.801   5.497
12240TIP3    H236662   1.218   6.782   5.622
12241TIP3   OH236663   1.146   6.250   6.034
12241TIP3    H136664   1.119   6.167   6.071
12241TIP3    H236665   1.234   6.233   5.998
12242TIP3   OH236666   1.041   5.318   6.328
12242TIP3    H136667   1.023   5.338   6.236
12242TIP3    H236668   1.085   5.397   6.362
12243TIP3   OH236669   0.718   5.512   6.422
12243TIP3    H136670   0.774   5.586   6.397
12243TIP3    H236671   0.733   5.503   6.517
12244TIP3   OH236672   6.743   1.730   0.156
12244TIP3    H136673   6.793   1.765   0.230
12244TIP3    H236674   6.756   1.635   0.161
12245TIP3   OH236675   0.854   5.228   6.509
12245TIP3    H136676   0.834   5.307   6.558
12245TIP3    H236677   0.921   5.255   6.446
12246TIP3   OH236678   7.356   1.657   0.169
12246TIP3    H136679   7.263   1.664   0.190
12246TIP3    H236680   7.359   1.593   0.098
12247TIP3   OH236681   1.280   5.913   6.582
12247TIP3    H136682   1.204   5.856   6.589
12247TIP3    H236683   1.348   5.869   6.633
12248TIP3   OH236684   1.262   6.868   6.510
12248TIP3    H136685   1.217   6.919   6.443
12248TIP3    H236686   1.355   6.888   6.496
12249TIP3   OH236687   6.854   2.692   0.268
12249TIP3    H136688   6.803   2.658   0.341
12249TIP3    H236689   6.831   2.785   0.263
12250TIP3   OH236690   0.613   6.139   5.775
12250TIP3    H136691   0.645   6.200   5.708
12250TIP3    H236692   0.635   6.053   5.740
12251TIP3   OH236693   6.990   2.335   0.013
12251TIP3    H136694   7.059   2.395  -0.016
12251TIP3    H236695   6.925   2.392   0.055
12252TIP3   OH236696   0.455   5.611   5.990
12252TIP3    H136697   0.434   5.627   5.898
12252TIP3    H236698   0.547   5.636   5.998
12253TIP3   OH236699   6.767   2.288   0.385
12253TIP3    H136700   6.855   2.255   0.370
12253TIP3    H236701   6.737   2.243   0.464
12254TIP3   OH236702   1.248   5.990   5.642
12254TIP3    H136703   1.235   5.946   5.558
12254TIP3    H236704   1.221   6.081   5.627
12255TIP3   OH236705   6.478   1.383   0.198
12255TIP3    H136706   6.567   1.411   0.176
12255TIP3    H236707   6.441   1.456   0.248
12256TIP3   OH236708   6.540   1.989   0.103
12256TIP3    H136709   6.601   1.957   0.037
12256TIP3    H236710   6.536   2.084   0.089
12257TIP3   OH236711   7.145   1.871   0.433
12257TIP3    H136712   7.162   1.779   0.456
12257TIP3    H236713   7.214   1.893   0.370
12258TIP3   OH236714   7.151   2.167   0.149
12258TIP3    H136715   7.090   2.226   0.104
12258TIP3    H236716   7.238   2.202   0.129
12259TIP3   OH236717   6.592   1.172   0.338
12259TIP3    H136718   6.577   1.252   0.287
12259TIP3    H236719   6.515   1.118   0.321
12260TIP3   OH236720   6.597   1.650   0.536
12260TIP3    H136721   6.649   1.702   0.598
12260TIP3    H236722   6.659   1.585   0.502
12261TIP3   OH236723   6.928   1.580   0.416
12261TIP3    H136724   6.893   1.511   0.361
12261TIP3    H236725   7.004   1.541   0.458
12262TIP3   OH236726   7.225   1.622   0.528
12262TIP3    H136727   7.233   1.528   0.545
12262TIP3    H236728   7.196   1.660   0.610
12263TIP3   OH236729   6.682   1.193   0.590
12263TIP3    H136730   6.757   1.134   0.586
12263TIP3    H236731   6.646   1.192   0.501
12264TIP3   OH236732   6.717   1.420   0.731
12264TIP3    H136733   6.689   1.347   0.676
12264TIP3    H236734   6.636   1.468   0.750
12265TIP3   OH236735   1.520   6.950   6.478
12265TIP3    H136736   1.540   6.979   6.566
12265TIP3    H236737   1.584   6.994   6.422
12266TIP3   OH236738   1.553   6.974   6.744
12266TIP3    H136739   1.508   6.890   6.741
12266TIP3    H236740   1.622   6.963   6.809
12267TIP3   OH236741   7.290   2.530   0.268
12267TIP3    H136742   7.224   2.558   0.331
12267TIP3    H236743   7.349   2.606   0.259
12268TIP3   OH236744   1.410   6.189   5.975
12268TIP3    H136745   1.471   6.256   5.942
12268TIP3    H236746   1.456   6.149   6.048
12269TIP3   OH236747   1.534   6.045   6.176
12269TIP3    H136748   1.466   6.003   6.230
12269TIP3    H236749   1.598   6.077   6.239
12270TIP3   OH236750   1.581   6.444   6.601
12270TIP3    H136751   1.638   6.378   6.562
12270TIP3    H236752   1.587   6.519   6.542
12271TIP3   OH236753   1.426   6.728   6.769
12271TIP3    H136754   1.364   6.779   6.820
12271TIP3    H236755   1.371   6.683   6.704
12272TIP3   OH236756   1.453   5.964   5.821
12272TIP3    H136757   1.384   5.963   5.756
12272TIP3    H236758   1.434   6.041   5.875
12273TIP3   OH236759   1.309   5.619   5.764
12273TIP3    H136760   1.265   5.656   5.687
12273TIP3    H236761   1.300   5.524   5.753
12274TIP3   OH236762   1.335   5.902   6.310
12274TIP3    H136763   1.341   5.808   6.294
12274TIP3    H236764   1.320   5.909   6.405
12275TIP3   OH236765   7.394   2.261   0.078
12275TIP3    H136766   7.456   2.188   0.082
12275TIP3    H236767   7.430   2.319   0.012
12276TIP3   OH236768   7.551   2.047   0.132
12276TIP3    H136769   7.477   2.016   0.184
12276TIP3    H236770   7.625   1.994   0.161
12277TIP3   OH236771   1.272   5.350   5.740
12277TIP3    H136772   1.339   5.319   5.802
12277TIP3    H236773   1.193   5.302   5.765
12278TIP3   OH236774   1.339   5.630   6.196
12278TIP3    H136775   1.381   5.546   6.210
12278TIP3    H236776   1.383   5.667   6.120
12279TIP3   OH236777   1.493   5.785   6.709
12279TIP3    H136778   1.574   5.805   6.662
12279TIP3    H236779   1.507   5.820   6.797
12280TIP3   OH236780   1.570   5.931   6.935
12280TIP3    H136781   1.484   5.950   6.973
12280TIP3    H236782   1.597   6.014   6.896
12281TIP3   OH236783   7.759   1.487   0.460
12281TIP3    H136784   7.819   1.426   0.417
12281TIP3    H236785   7.721   1.538   0.389
12282TIP3   OH236786   1.446   5.378   6.249
12282TIP3    H136787   1.490   5.362   6.332
12282TIP3    H236788   1.384   5.305   6.241
12283TIP3   OH236789   7.615   1.607   0.265
12283TIP3    H136790   7.534   1.649   0.293
12283TIP3    H236791   7.586   1.533   0.212
12284TIP3   OH236792   1.503   5.295   5.889
12284TIP3    H136793   1.547   5.233   5.831
12284TIP3    H236794   1.560   5.372   5.890
12285TIP3   OH236795   1.121   6.822   6.166
12285TIP3    H136796   1.162   6.807   6.081
12285TIP3    H236797   1.136   6.915   6.183
12286TIP3   OH236798   6.756   2.938  -0.002
12286TIP3    H136799   6.832   2.909  -0.052
12286TIP3    H236800   6.789   3.006   0.057
12287TIP3   OH236801   7.518   1.361   0.160
12287TIP3    H136802   7.429   1.355   0.123
12287TIP3    H236803   7.552   1.272   0.153
12288TIP3   OH236804   0.964   6.864   6.708
12288TIP3    H136805   0.909   6.897   6.779
12288TIP3    H236806   1.018   6.940   6.683
12289TIP3   OH236807   1.163   7.087   6.670
12289TIP3    H136808   1.155   7.178   6.644
12289TIP3    H236809   1.192   7.041   6.591
12290TIP3   OH236810   1.005   5.353   6.807
12290TIP3    H136811   0.967   5.284   6.861
12290TIP3    H236812   1.076   5.309   6.759
12291TIP3   OH236813   1.497   5.244   6.708
12291TIP3    H136814   1.531   5.292   6.634
12291TIP3    H236815   1.402   5.257   6.704
12292TIP3   OH236816   1.604   5.325   6.470
12292TIP3    H136817   1.674   5.266   6.441
12292TIP3    H236818   1.640   5.413   6.458
12293TIP3   OH236819   0.722   5.089   6.713
12293TIP3    H136820   0.765   5.135   6.642
12293TIP3    H236821   0.768   5.117   6.792
12294TIP3   OH236822   1.216   5.226   6.681
12294TIP3    H136823   1.217   5.190   6.593
12294TIP3    H236824   1.212   5.150   6.739
12295TIP3   OH236825   1.262   5.165   6.251
12295TIP3    H136826   1.181   5.212   6.273
12295TIP3    H236827   1.251   5.079   6.291
12296TIP3   OH236828   0.642   5.265   6.330
12296TIP3    H136829   0.701   5.232   6.397
12296TIP3    H236830   0.637   5.359   6.345
12297TIP3   OH236831   1.241   6.791   5.919
12297TIP3    H136832   1.232   6.696   5.909
12297TIP3    H236833   1.198   6.827   5.841
12298TIP3   OH236834   7.272   1.359   0.585
12298TIP3    H136835   7.283   1.329   0.675
12298TIP3    H236836   7.358   1.350   0.545
12299TIP3   OH236837   7.206   2.947   0.000
12299TIP3    H136838   7.127   2.901  -0.028
12299TIP3    H236839   7.175   3.029   0.038
12300TIP3   OH236840   2.721   6.330   5.860
12300TIP3    H136841   2.690   6.417   5.835
12300TIP3    H236842   2.652   6.271   5.832
12301TIP3   OH236843   2.721   6.325   6.277
12301TIP3    H136844   2.771   6.303   6.355
12301TIP3    H236845   2.678   6.243   6.252
12302TIP3   OH236846   2.020   6.197   6.626
12302TIP3    H136847   2.055   6.140   6.694
12302TIP3    H236848   2.096   6.218   6.571
12303TIP3   OH236849   2.983   6.632   5.950
12303TIP3    H136850   2.970   6.565   6.017
12303TIP3    H236851   3.007   6.710   5.999
12304TIP3   OH236852   2.006   6.621   6.325
12304TIP3    H136853   1.991   6.526   6.327
12304TIP3    H236854   2.100   6.630   6.312
12305TIP3   OH236855   1.695   5.822   6.103
12305TIP3    H136856   1.653   5.905   6.124
12305TIP3    H236857   1.626   5.771   6.060
12306TIP3   OH236858   1.763   6.119   6.317
12306TIP3    H136859   1.814   6.042   6.343
12306TIP3    H236860   1.826   6.174   6.270
12307TIP3   OH236861   2.639   7.070   5.961
12307TIP3    H136862   2.667   7.004   5.897
12307TIP3    H236863   2.632   7.022   6.043
12308TIP3   OH236864   2.522   6.548   6.286
12308TIP3    H136865   2.563   6.469   6.252
12308TIP3    H236866   2.595   6.603   6.314
12309TIP3   OH236867   3.550   5.862   6.291
12309TIP3    H136868   3.570   5.947   6.331
12309TIP3    H236869   3.580   5.871   6.200
12310TIP3   OH236870   2.936   6.036   6.321
12310TIP3    H136871   2.976   5.952   6.345
12310TIP3    H236872   2.900   6.021   6.234
12311TIP3   OH236873   2.287   5.697   6.281
12311TIP3    H136874   2.267   5.769   6.222
12311TIP3    H236875   2.235   5.624   6.248
12312TIP3   OH236876   2.982   5.797   5.910
12312TIP3    H136877   3.047   5.788   5.979
12312TIP3    H236878   3.031   5.829   5.835
12313TIP3   OH236879   1.913   5.905   6.406
12313TIP3    H136880   1.997   5.887   6.450
12313TIP3    H236881   1.917   5.854   6.326
12314TIP3   OH236882   2.335   6.106   6.223
12314TIP3    H136883   2.429   6.090   6.228
12314TIP3    H236884   2.299   6.026   6.187
12315TIP3   OH236885   3.609   6.077   6.464
12315TIP3    H136886   3.524   6.120   6.449
12315TIP3    H236887   3.617   6.072   6.559
12316TIP3   OH236888   2.268   5.696   6.732
12316TIP3    H136889   2.217   5.729   6.658
12316TIP3    H236890   2.213   5.712   6.809
12317TIP3   OH236891   2.602   6.542   5.730
12317TIP3    H136892   2.569   6.522   5.643
12317TIP3    H236893   2.556   6.622   5.756
12318TIP3   OH236894   2.368   6.471   6.502
12318TIP3    H136895   2.312   6.541   6.536
12318TIP3    H236896   2.414   6.510   6.428
12319TIP3   OH236897   3.149   5.816   6.125
12319TIP3    H136898   3.117   5.789   6.211
12319TIP3    H236899   3.208   5.889   6.144
12320TIP3   OH236900   2.157   5.803   6.502
12320TIP3    H136901   2.214   5.877   6.526
12320TIP3    H236902   2.202   5.760   6.430
12321TIP3   OH236903   2.208   6.672   6.606
12321TIP3    H136904   2.192   6.760   6.572
12321TIP3    H236905   2.130   6.651   6.657
12322TIP3   OH236906   1.586   6.372   5.854
12322TIP3    H136907   1.547   6.387   5.767
12322TIP3    H236908   1.609   6.459   5.885
12323TIP3   OH236909   3.029   6.879   6.094
12323TIP3    H136910   2.941   6.871   6.132
12323TIP3    H236911   3.026   6.962   6.046
12324TIP3   OH236912   3.345   5.770   6.467
12324TIP3    H136913   3.259   5.787   6.428
12324TIP3    H236914   3.407   5.791   6.397
12325TIP3   OH236915   2.613   5.390   6.455
12325TIP3    H136916   2.605   5.298   6.479
12325TIP3    H236917   2.537   5.432   6.495
12326TIP3   OH236918   2.729   6.911   5.749
12326TIP3    H136919   2.780   6.831   5.739
12326TIP3    H236920   2.787   6.980   5.718
12327TIP3   OH236921   2.884   6.693   5.697
12327TIP3    H136922   2.859   6.612   5.653
12327TIP3    H236923   2.922   6.665   5.780
12328TIP3   OH236924   3.262   6.769   6.440
12328TIP3    H136925   3.245   6.695   6.383
12328TIP3    H236926   3.247   6.846   6.385
12329TIP3   OH236927   2.548   6.173   5.706
12329TIP3    H136928   2.468   6.220   5.687
12329TIP3    H236929   2.595   6.170   5.623
12330TIP3   OH236930   2.518   5.972   5.402
12330TIP3    H136931   2.584   6.021   5.451
12330TIP3    H236932   2.568   5.906   5.354
12331TIP3   OH236933   3.445   6.430   6.299
12331TIP3    H136934   3.361   6.475   6.297
12331TIP3    H236935   3.481   6.442   6.210
12332TIP3   OH236936   2.904   6.263   5.668
12332TIP3    H136937   2.850   6.289   5.742
12332TIP3    H236938   2.987   6.234   5.707
12333TIP3   OH236939   3.134   6.294   6.606
12333TIP3    H136940   3.129   6.376   6.655
12333TIP3    H236941   3.051   6.290   6.557
12334TIP3   OH236942   2.132   6.242   6.080
12334TIP3    H136943   2.095   6.184   6.013
12334TIP3    H236944   2.205   6.193   6.116
12335TIP3   OH236945   2.265   6.667   6.217
12335TIP3    H136946   2.241   6.649   6.126
12335TIP3    H236947   2.352   6.627   6.226
12336TIP3   OH236948   2.237   6.234   6.450
12336TIP3    H136949   2.275   6.198   6.369
12336TIP3    H236950   2.287   6.314   6.466
12337TIP3   OH236951   2.790   6.872   6.224
12337TIP3    H136952   2.777   6.950   6.279
12337TIP3    H236953   2.776   6.799   6.283
12338TIP3   OH236954   2.410   6.769   6.768
12338TIP3    H136955   2.352   6.833   6.811
12338TIP3    H236956   2.352   6.718   6.712
12339TIP3   OH236957   2.737   6.121   5.501
12339TIP3    H136958   2.797   6.178   5.550
12339TIP3    H236959   2.763   6.132   5.410
12340TIP3   OH236960   2.169   6.327   6.903
12340TIP3    H136961   2.170   6.420   6.926
12340TIP3    H236962   2.076   6.306   6.892
12341TIP3   OH236963   2.480   6.792   5.766
12341TIP3    H136964   2.564   6.838   5.767
12341TIP3    H236965   2.423   6.847   5.712
12342TIP3   OH236966   2.215   6.950   6.837
12342TIP3    H136967   2.195   6.956   6.743
12342TIP3    H236968   2.129   6.937   6.878
12343TIP3   OH236969   3.251   5.349   5.557
12343TIP3    H136970   3.173   5.369   5.608
12343TIP3    H236971   3.263   5.426   5.501
12344TIP3   OH236972   2.006   6.087   5.878
12344TIP3    H136973   1.931   6.134   5.841
12344TIP3    H236974   1.975   5.997   5.890
12345TIP3   OH236975   3.070   6.723   5.109
12345TIP3    H136976   3.068   6.816   5.087
12345TIP3    H236977   3.159   6.695   5.089
12346TIP3   OH236978   1.784   6.477   6.801
12346TIP3    H136979   1.718   6.462   6.734
12346TIP3    H236980   1.825   6.392   6.815
12347TIP3   OH236981   1.643   6.670   6.446
12347TIP3    H136982   1.739   6.676   6.438
12347TIP3    H236983   1.618   6.753   6.488
12348TIP3   OH236984   3.492   7.136   6.501
12348TIP3    H136985   3.498   7.041   6.510
12348TIP3    H236986   3.412   7.159   6.548
12349TIP3   OH236987   2.597   6.913   6.627
12349TIP3    H136988   2.590   7.004   6.655
12349TIP3    H236989   2.529   6.867   6.677
12350TIP3   OH236990   2.374   7.021   5.582
12350TIP3    H136991   2.326   6.999   5.502
12350TIP3    H236992   2.336   7.104   5.611
12351TIP3   OH236993   1.806   6.873   5.961
12351TIP3    H136994   1.851   6.863   6.045
12351TIP3    H236995   1.757   6.792   5.951
12352TIP3   OH236996   2.576   6.945   5.211
12352TIP3    H136997   2.626   6.872   5.175
12352TIP3    H236998   2.609   6.956   5.300
12353TIP3   OH236999   2.626   6.986   5.481
12353TIP3    H137000   2.540   6.992   5.522
12353TIP3    H237001   2.682   6.948   5.549
12354TIP3   OH237002   3.373   6.249   6.766
12354TIP3    H137003   3.295   6.257   6.711
12354TIP3    H237004   3.395   6.156   6.764
12355TIP3   OH237005   1.990   6.660   6.773
12355TIP3    H137006   2.038   6.651   6.855
12355TIP3    H237007   1.917   6.599   6.780
12356TIP3   OH237008   2.376   5.482   6.584
12356TIP3    H137009   2.293   5.449   6.551
12356TIP3    H237010   2.353   5.562   6.632
12357TIP3   OH237011   2.921   5.601   6.783
12357TIP3    H137012   2.992   5.573   6.840
12357TIP3    H237013   2.841   5.581   6.832
12358TIP3   OH237014   3.141   6.029   6.700
12358TIP3    H137015   3.099   6.027   6.786
12358TIP3    H237016   3.122   6.116   6.666
12359TIP3   OH237017   2.817   6.133   5.242
12359TIP3    H137018   2.773   6.122   5.158
12359TIP3    H237019   2.901   6.173   5.220
12360TIP3   OH237020   2.524   5.526   5.551
12360TIP3    H137021   2.488   5.532   5.639
12360TIP3    H237022   2.489   5.445   5.516
12361TIP3   OH237023   2.314   6.011   6.597
12361TIP3    H137024   2.266   6.019   6.679
12361TIP3    H237025   2.294   6.092   6.549
12362TIP3   OH237026   2.194   5.893   6.113
12362TIP3    H137027   2.105   5.868   6.137
12362TIP3    H237028   2.206   5.859   6.025
12363TIP3   OH237029   2.678   5.970   5.841
12363TIP3    H137030   2.629   6.041   5.799
12363TIP3    H237031   2.736   5.937   5.773
12364TIP3   OH237032   2.863   6.243   6.924
12364TIP3    H137033   2.835   6.172   6.981
12364TIP3    H237034   2.958   6.247   6.936
12365TIP3   OH237035   2.844   5.986   6.067
12365TIP3    H137036   2.776   6.009   6.003
12365TIP3    H237037   2.889   5.911   6.028
12366TIP3   OH237038   2.146   6.028   6.814
12366TIP3    H137039   2.168   6.088   6.885
12366TIP3    H237040   2.127   5.945   6.857
12367TIP3   OH237041   2.190   5.507   5.526
12367TIP3    H137042   2.180   5.508   5.621
12367TIP3    H237043   2.112   5.551   5.492
12368TIP3   OH237044   1.733   5.549   6.394
12368TIP3    H137045   1.808   5.583   6.443
12368TIP3    H237046   1.770   5.524   6.309
12369TIP3   OH237047   1.658   5.528   5.901
12369TIP3    H137048   1.704   5.562   5.824
12369TIP3    H237049   1.595   5.596   5.924
12370TIP3   OH237050   2.877   6.235   6.494
12370TIP3    H137051   2.904   6.169   6.431
12370TIP3    H237052   2.836   6.185   6.565
12371TIP3   OH237053   2.557   5.690   6.168
12371TIP3    H137054   2.479   5.688   6.224
12371TIP3    H237055   2.630   5.678   6.228
12372TIP3   OH237056   1.957   5.766   6.174
12372TIP3    H137057   1.868   5.771   6.139
12372TIP3    H237058   1.985   5.677   6.157
12373TIP3   OH237059   2.211   5.769   5.869
12373TIP3    H137060   2.306   5.778   5.856
12373TIP3    H237061   2.173   5.787   5.783
12374TIP3   OH237062   3.017   5.775   6.378
12374TIP3    H137063   2.992   5.792   6.469
12374TIP3    H237064   2.952   5.712   6.347
12375TIP3   OH237065   2.088   5.797   5.626
12375TIP3    H137066   2.024   5.747   5.575
12375TIP3    H237067   2.143   5.839   5.560
12376TIP3   OH237068   3.207   7.475   6.596
12376TIP3    H137069   3.202   7.495   6.503
12376TIP3    H237070   3.284   7.522   6.627
12377TIP3   OH237071   7.879   2.533  -0.011
12377TIP3    H137072   7.960   2.555   0.034
12377TIP3    H237073   7.813   2.530   0.058
12378TIP3   OH237074   2.608   6.051   6.272
12378TIP3    H137075   2.673   6.001   6.221
12378TIP3    H237076   2.607   6.008   6.358
12379TIP3   OH237077   2.105   5.520   6.159
12379TIP3    H137078   2.075   5.444   6.210
12379TIP3    H237079   2.135   5.482   6.076
12380TIP3   OH237080   2.580   5.952   6.539
12380TIP3    H137081   2.492   5.982   6.562
12380TIP3    H237082   2.639   6.005   6.594
12381TIP3   OH237083   2.312   6.316   5.650
12381TIP3    H137084   2.239   6.257   5.630
12381TIP3    H237085   2.290   6.353   5.736
12382TIP3   OH237086   3.207   6.565   6.262
12382TIP3    H137087   3.241   6.613   6.187
12382TIP3    H237088   3.127   6.524   6.230
12383TIP3   OH237089   2.778   5.627   5.550
12383TIP3    H137090   2.684   5.606   5.546
12383TIP3    H237091   2.781   5.722   5.562
12384TIP3   OH237092   2.720   6.648   6.658
12384TIP3    H137093   2.759   6.638   6.745
12384TIP3    H237094   2.677   6.734   6.661
12385TIP3   OH237095   2.840   5.890   5.624
12385TIP3    H137096   2.935   5.892   5.632
12385TIP3    H237097   2.818   5.967   5.571
12386TIP3   OH237098   2.011   6.339   6.308
12386TIP3    H137099   2.045   6.316   6.222
12386TIP3    H237100   2.074   6.301   6.370
12387TIP3   OH237101   2.466   6.475   5.491
12387TIP3    H137102   2.419   6.558   5.490
12387TIP3    H237103   2.411   6.417   5.544
12388TIP3   OH237104   1.900   6.253   6.929
12388TIP3    H137105   1.914   6.225   7.020
12388TIP3    H237106   1.831   6.195   6.897
12389TIP3   OH237107   2.625   6.387   6.957
12389TIP3    H137108   2.557   6.328   6.926
12389TIP3    H237109   2.707   6.347   6.928
12390TIP3   OH237110   2.870   6.929   6.552
12390TIP3    H137111   2.775   6.916   6.556
12390TIP3    H237112   2.892   6.970   6.636
12391TIP3   OH237113   3.262   5.979   5.446
12391TIP3    H137114   3.205   5.933   5.385
12391TIP3    H237115   3.268   6.069   5.412
12392TIP3   OH237116   3.509   6.857   6.525
12392TIP3    H137117   3.415   6.839   6.523
12392TIP3    H237118   3.542   6.823   6.441
12393TIP3   OH237119   2.998   6.797   5.374
12393TIP3    H137120   2.969   6.728   5.433
12393TIP3    H237121   3.013   6.753   5.290
12394TIP3   OH237122   2.976   6.429   6.162
12394TIP3    H137123   2.885   6.405   6.183
12394TIP3    H237124   3.013   6.349   6.124
12395TIP3   OH237125   2.125   6.664   5.968
12395TIP3    H137126   2.125   6.741   5.911
12395TIP3    H237127   2.032   6.644   5.981
12396TIP3   OH237128   1.690   5.952   5.678
12396TIP3    H137129   1.732   6.036   5.698
12396TIP3    H237130   1.608   5.954   5.729
12397TIP3   OH237131   2.226   6.419   5.885
12397TIP3    H137132   2.205   6.509   5.912
12397TIP3    H237133   2.196   6.365   5.958
12398TIP3   OH237134   2.411   6.989   6.419
12398TIP3    H137135   2.447   7.061   6.368
12398TIP3    H237136   2.485   6.954   6.468
12399TIP3   OH237137   2.041   6.891   5.815
12399TIP3    H137138   1.954   6.896   5.855
12399TIP3    H237139   2.073   6.981   5.819
12400TIP3   OH237140   2.765   6.646   6.386
12400TIP3    H137141   2.755   6.640   6.481
12400TIP3    H237142   2.833   6.582   6.366
12401TIP3   OH237143   2.755   6.530   5.269
12401TIP3    H137144   2.801   6.509   5.350
12401TIP3    H237145   2.670   6.486   5.278
12402TIP3   OH237146   3.022   7.152   6.435
12402TIP3    H137147   2.949   7.091   6.446
12402TIP3    H237148   2.994   7.209   6.363
12403TIP3   OH237149   3.075   6.998   5.072
12403TIP3    H137150   3.106   7.065   5.012
12403TIP3    H237151   3.000   7.038   5.117
12404TIP3   OH237152   2.096   5.778   6.937
12404TIP3    H137153   2.001   5.788   6.943
12404TIP3    H237154   2.119   5.724   7.013
12405TIP3   OH237155   2.923   6.470   5.484
12405TIP3    H137156   2.908   6.399   5.546
12405TIP3    H237157   3.017   6.469   5.468
12406TIP3   OH237158   1.835   6.876   6.582
12406TIP3    H137159   1.885   6.812   6.632
12406TIP3    H237160   1.847   6.958   6.629
12407TIP3   OH237161   2.109   6.496   5.273
12407TIP3    H137162   2.118   6.405   5.246
12407TIP3    H237163   2.091   6.491   5.367
12408TIP3   OH237164   2.054   6.514   5.545
12408TIP3    H137165   2.125   6.485   5.603
12408TIP3    H237166   2.054   6.609   5.553
12409TIP3   OH237167   1.786   6.204   5.756
12409TIP3    H137168   1.719   6.250   5.807
12409TIP3    H237169   1.805   6.263   5.683
12410TIP3   OH237170   2.944   5.837   6.640
12410TIP3    H137171   3.025   5.878   6.670
12410TIP3    H237172   2.937   5.757   6.693
12411TIP3   OH237173   2.833   5.578   5.819
12411TIP3    H137174   2.815   5.595   5.727
12411TIP3    H237175   2.877   5.658   5.850
12412TIP3   OH237176   2.324   6.706   5.491
12412TIP3    H137177   2.238   6.729   5.526
12412TIP3    H237178   2.344   6.776   5.429
12413TIP3   OH237179   2.493   5.776   5.911
12413TIP3    H137180   2.555   5.844   5.885
12413TIP3    H237181   2.513   5.758   6.002
12414TIP3   OH237182   2.785   6.068   6.693
12414TIP3    H137183   2.812   6.106   6.777
12414TIP3    H237184   2.834   5.986   6.687
12415TIP3   OH237185   2.650   5.477   6.001
12415TIP3    H137186   2.628   5.555   6.052
12415TIP3    H237187   2.718   5.506   5.940
12416TIP3   OH237188   2.072   6.788   5.562
12416TIP3    H137189   2.048   6.858   5.502
12416TIP3    H237190   2.058   6.825   5.649
12417TIP3   OH237191   2.164   5.496   5.805
12417TIP3    H137192   2.154   5.586   5.835
12417TIP3    H237193   2.258   5.480   5.809
12418TIP3   OH237194   3.405   5.973   6.677
12418TIP3    H137195   3.311   5.983   6.691
12418TIP3    H237196   3.412   5.907   6.608
12419TIP3   OH237197   3.068   6.174   6.069
12419TIP3    H137198   2.992   6.117   6.078
12419TIP3    H237199   3.136   6.132   6.121
12420TIP3   OH237200   1.806   6.385   5.543
12420TIP3    H137201   1.876   6.449   5.551
12420TIP3    H237202   1.838   6.322   5.479
12421TIP3   OH237203   1.719   5.675   5.679
12421TIP3    H137204   1.728   5.770   5.685
12421TIP3    H237205   1.659   5.662   5.605
12422TIP3   OH237206   3.046   7.148   6.009
12422TIP3    H137207   3.005   7.197   5.937
12422TIP3    H237208   3.140   7.161   5.995
12423TIP3   OH237209   2.113   5.396   6.545
12423TIP3    H137210   2.085   5.364   6.459
12423TIP3    H237211   2.105   5.321   6.603
12424TIP3   OH237212   1.638   6.646   5.930
12424TIP3    H137213   1.585   6.678   6.003
12424TIP3    H237214   1.599   6.686   5.852
12425TIP3   OH237215   1.841   7.183   6.970
12425TIP3    H137216   1.921   7.186   7.022
12425TIP3    H237217   1.829   7.091   6.948
12426TIP3   OH237218   8.039   3.050   0.024
12426TIP3    H137219   8.131   3.027   0.036
12426TIP3    H237220   8.011   2.999  -0.052
12427TIP3   OH237221   2.267   6.697   5.170
12427TIP3    H137222   2.218   6.626   5.211
12427TIP3    H237223   2.341   6.654   5.127
12428TIP3   OH237224   2.920   7.038   6.801
12428TIP3    H137225   2.933   6.967   6.864
12428TIP3    H237226   2.996   7.096   6.814
12429TIP3   OH237227   2.707   6.736   5.092
12429TIP3    H137228   2.738   6.670   5.155
12429TIP3    H237229   2.766   6.728   5.017
12430TIP3   OH237230   7.676   2.512   0.183
12430TIP3    H137231   7.696   2.419   0.185
12430TIP3    H237232   7.595   2.519   0.134
12431TIP3   OH237233   1.932   6.194   5.397
12431TIP3    H137234   1.985   6.170   5.473
12431TIP3    H237235   1.997   6.205   5.326
12432TIP3   OH237236   2.562   6.662   6.971
12432TIP3    H137237   2.515   6.683   6.890
12432TIP3    H237238   2.591   6.572   6.959
12433TIP3   OH237239   2.491   6.415   5.224
12433TIP3    H137240   2.471   6.428   5.317
12433TIP3    H237241   2.478   6.322   5.209
12434TIP3   OH237242   3.042   6.705   6.598
12434TIP3    H137243   3.118   6.732   6.545
12434TIP3    H237244   2.974   6.768   6.576
12435TIP3   OH237245   7.797   2.263   0.164
12435TIP3    H137246   7.869   2.240   0.105
12435TIP3    H237247   7.839   2.281   0.248
12436TIP3   OH237248   2.109   6.131   5.607
12436TIP3    H137249   2.087   6.097   5.694
12436TIP3    H237250   2.155   6.059   5.564
12437TIP3   OH237251   2.417   6.209   6.859
12437TIP3    H137252   2.333   6.254   6.867
12437TIP3    H237253   2.452   6.237   6.774
12438TIP3   OH237254   2.244   5.942   5.451
12438TIP3    H137255   2.214   5.945   5.361
12438TIP3    H237256   2.339   5.947   5.446
12439TIP3   OH237257   2.932   6.589   6.961
12439TIP3    H137258   2.990   6.547   6.898
12439TIP3    H237259   2.924   6.525   7.033
12440TIP3   OH237260   3.044   6.243   5.126
12440TIP3    H137261   3.030   6.198   5.042
12440TIP3    H237262   3.017   6.333   5.110
12441TIP3   OH237263   2.522   5.980   6.968
12441TIP3    H137264   2.524   5.907   6.905
12441TIP3    H237265   2.486   6.053   6.918
12442TIP3   OH237266   2.529   5.778   6.768
12442TIP3    H137267   2.556   5.813   6.684
12442TIP3    H237268   2.438   5.751   6.755
12443TIP3   OH237269   2.540   6.307   6.639
12443TIP3    H137270   2.630   6.328   6.612
12443TIP3    H237271   2.485   6.369   6.592
12444TIP3   OH237272   3.137   6.258   7.014
12444TIP3    H137273   3.159   6.165   7.026
12444TIP3    H237274   3.215   6.295   6.971
12445TIP3   OH237275   3.162   6.532   6.769
12445TIP3    H137276   3.112   6.593   6.715
12445TIP3    H237277   3.253   6.543   6.739
12446TIP3   OH237278   8.139   2.019   0.186
12446TIP3    H137279   8.071   1.955   0.208
12446TIP3    H237280   8.167   1.994   0.098
12447TIP3   OH237281   2.653   5.544   6.863
12447TIP3    H137282   2.612   5.624   6.831
12447TIP3    H237283   2.587   5.476   6.850
12448TIP3   OH237284   8.509   1.972   0.046
12448TIP3    H137285   8.500   1.957   0.140
12448TIP3    H237286   8.424   1.949   0.009
12449TIP3   OH237287   3.024   5.989   6.940
12449TIP3    H137288   2.945   5.981   6.993
12449TIP3    H237289   3.094   5.953   6.994
12450TIP3   OH237290   0.383   1.879   0.067
12450TIP3    H137291   0.400   1.785   0.073
12450TIP3    H237292   0.387   1.911   0.157
12451TIP3   OH237293   7.986   1.790   0.247
12451TIP3    H137294   7.987   1.702   0.210
12451TIP3    H237295   8.024   1.780   0.335
12452TIP3   OH237296   8.458   1.474   0.106
12452TIP3    H137297   8.528   1.409   0.101
12452TIP3    H237298   8.426   1.482   0.016
12453TIP3   OH237299   8.544   1.690   0.252
12453TIP3    H137300   8.517   1.618   0.196
12453TIP3    H237301   8.470   1.751   0.250
12454TIP3   OH237302   2.063   6.999   5.379
12454TIP3    H137303   2.152   6.976   5.352
12454TIP3    H237304   2.024   7.041   5.303
12455TIP3   OH237305   1.533   6.371   5.566
12455TIP3    H137306   1.627   6.385   5.559
12455TIP3    H237307   1.518   6.285   5.528
12456TIP3   OH237308   1.431   6.962   6.018
12456TIP3    H137309   1.372   6.904   5.969
12456TIP3    H237310   1.478   6.904   6.077
12457TIP3   OH237311   1.576   6.801   6.189
12457TIP3    H137312   1.561   6.734   6.256
12457TIP3    H237313   1.630   6.867   6.233
12458TIP3   OH237314   3.314   7.210   5.996
12458TIP3    H137315   3.337   7.239   6.084
12458TIP3    H237316   3.376   7.255   5.938
12459TIP3   OH237317   3.334   7.235   6.279
12459TIP3    H137318   3.287   7.151   6.271
12459TIP3    H237319   3.405   7.216   6.341
12460TIP3   OH237320   3.393   6.927   6.849
12460TIP3    H137321   3.318   6.934   6.908
12460TIP3    H237322   3.432   7.015   6.850
12461TIP3   OH237323   3.201   6.447   5.461
12461TIP3    H137324   3.263   6.513   5.430
12461TIP3    H237325   3.245   6.406   5.536
12462TIP3   OH237326   3.327   6.303   5.662
12462TIP3    H137327   3.260   6.261   5.716
12462TIP3    H237328   3.392   6.335   5.724
12463TIP3   OH237329   3.383   6.701   6.093
12463TIP3    H137330   3.436   6.631   6.054
12463TIP3    H237331   3.382   6.771   6.027
12464TIP3   OH237332   3.196   6.991   6.287
12464TIP3    H137333   3.128   7.035   6.338
12464TIP3    H237334   3.150   6.949   6.215
12465TIP3   OH237335   3.249   6.220   5.308
12465TIP3    H137336   3.179   6.218   5.243
12465TIP3    H237337   3.229   6.297   5.362
12466TIP3   OH237338   3.104   5.875   5.250
12466TIP3    H137339   3.062   5.910   5.171
12466TIP3    H237340   3.093   5.781   5.244
12467TIP3   OH237341   3.129   6.160   5.798
12467TIP3    H137342   3.136   6.065   5.785
12467TIP3    H237343   3.113   6.169   5.892
12468TIP3   OH237344   1.759   6.236   6.564
12468TIP3    H137345   1.748   6.199   6.476
12468TIP3    H237346   1.853   6.233   6.581
12469TIP3   OH237347   3.421   6.582   6.675
12469TIP3    H137348   3.486   6.514   6.658
12469TIP3    H237349   3.426   6.640   6.599
12470TIP3   OH237350   3.597   6.372   6.664
12470TIP3    H137351   3.521   6.326   6.700
12470TIP3    H237352   3.671   6.315   6.685
12471TIP3   OH237353   3.061   5.607   5.229
12471TIP3    H137354   3.129   5.574   5.288
12471TIP3    H237355   2.982   5.558   5.254
12472TIP3   OH237356   3.129   5.885   5.683
12472TIP3    H137357   3.173   5.801   5.698
12472TIP3    H237358   3.175   5.922   5.608
12473TIP3   OH237359   3.284   6.050   6.202
12473TIP3    H137360   3.365   6.068   6.154
12473TIP3    H237361   3.298   6.087   6.289
12474TIP3   OH237362   3.356   6.202   6.429
12474TIP3    H137363   3.281   6.232   6.480
12474TIP3    H237364   3.389   6.281   6.385
12475TIP3   OH237365   7.724   1.858   0.217
12475TIP3    H137366   7.819   1.849   0.226
12475TIP3    H237367   7.689   1.775   0.250
12476TIP3   OH237368   3.839   5.833   6.959
12476TIP3    H137369   3.883   5.753   6.933
12476TIP3    H237370   3.779   5.852   6.887
12477TIP3   OH237371   3.240   5.635   5.739
12477TIP3    H137372   3.285   5.618   5.821
12477TIP3    H237373   3.179   5.562   5.730
12478TIP3   OH237374   1.946   5.617   6.563
12478TIP3    H137375   2.000   5.539   6.568
12478TIP3    H237376   2.008   5.688   6.547
12479TIP3   OH237377   1.735   5.883   6.623
12479TIP3    H137378   1.786   5.876   6.542
12479TIP3    H237379   1.768   5.962   6.665
12480TIP3   OH237380   3.665   5.916   6.755
12480TIP3    H137381   3.575   5.946   6.767
12480TIP3    H237382   3.656   5.828   6.719
12481TIP3   OH237383   3.296   5.552   5.375
12481TIP3    H137384   3.339   5.488   5.317
12481TIP3    H237385   3.356   5.627   5.376
12482TIP3   OH237386   1.719   5.396   6.132
12482TIP3    H137387   1.631   5.381   6.167
12482TIP3    H237388   1.706   5.449   6.054
12483TIP3   OH237389   2.875   7.108   5.639
12483TIP3    H137390   2.933   7.096   5.563
12483TIP3    H237391   2.921   7.173   5.693
12484TIP3   OH237392   1.941   5.454   6.948
12484TIP3    H137393   1.890   5.449   7.029
12484TIP3    H237394   1.883   5.499   6.886
12485TIP3   OH237395   1.975   6.923   6.960
12485TIP3    H137396   1.887   6.892   6.942
12485TIP3    H237397   1.992   6.898   7.051
12486TIP3   OH237398   2.182   6.947   6.563
12486TIP3    H137399   2.129   7.019   6.531
12486TIP3    H237400   2.266   6.957   6.517
12487TIP3   OH237401   2.586   7.178   6.707
12487TIP3    H137402   2.623   7.175   6.796
12487TIP3    H237403   2.648   7.232   6.658
12488TIP3   OH237404   2.772   7.333   6.577
12488TIP3    H137405   2.831   7.283   6.522
12488TIP3    H237406   2.830   7.387   6.631
12489TIP3   OH237407   3.589   5.660   6.668
12489TIP3    H137408   3.497   5.644   6.648
12489TIP3    H237409   3.630   5.574   6.664
12490TIP3   OH237410   1.844   7.188   6.610
12490TIP3    H137411   1.754   7.207   6.582
12490TIP3    H237412   1.864   7.258   6.672
12491TIP3   OH237413   2.073   7.177   6.460
12491TIP3    H137414   1.990   7.181   6.508
12491TIP3    H237415   2.051   7.203   6.371
12492TIP3   OH237416   2.492   7.196   6.254
12492TIP3    H137417   2.421   7.208   6.191
12492TIP3    H237418   2.502   7.282   6.296
12493TIP3   OH237419   2.757   7.137   6.313
12493TIP3    H137420   2.665   7.153   6.290
12493TIP3    H237421   2.806   7.201   6.262
12494TIP3   OH237422   2.959   7.312   6.212
12494TIP3    H137423   2.954   7.399   6.172
12494TIP3    H237424   2.989   7.255   6.142
12495TIP3   OH237425   1.758   6.976   6.334
12495TIP3    H137426   1.782   6.950   6.423
12495TIP3    H237427   1.828   6.941   6.278
12496TIP3   OH237428   1.955   6.856   6.194
12496TIP3    H137429   1.967   6.773   6.240
12496TIP3    H237430   2.042   6.896   6.195
12497TIP3   OH237431   2.223   6.944   6.213
12497TIP3    H137432   2.241   6.851   6.199
12497TIP3    H237433   2.277   6.967   6.290
12498TIP3   OH237434   2.787   5.594   6.301
12498TIP3    H137435   2.748   5.521   6.348
12498TIP3    H237436   2.856   5.554   6.248
12499TIP3   OH237437   3.290   5.505   6.200
12499TIP3    H137438   3.326   5.551   6.124
12499TIP3    H237439   3.195   5.519   6.193
12500TIP3   OH237440   3.399   5.581   5.960
12500TIP3    H137441   3.467   5.522   5.929
12500TIP3    H237442   3.436   5.669   5.947
12501TIP3   OH237443   2.026   5.295   6.303
12501TIP3    H137444   1.936   5.263   6.310
12501TIP3    H237445   2.079   5.215   6.296
12502TIP3   OH237446   1.841   5.198   5.959
12502TIP3    H137447   1.868   5.246   5.881
12502TIP3    H237448   1.807   5.264   6.019
12503TIP3   OH237449   2.496   5.337   6.195
12503TIP3    H137450   2.546   5.381   6.126
12503TIP3    H237451   2.540   5.363   6.276
12504TIP3   OH237452   3.005   5.479   6.170
12504TIP3    H137453   3.016   5.444   6.082
12504TIP3    H237454   3.006   5.402   6.227
12505TIP3   OH237455   3.055   5.424   5.739
12505TIP3    H137456   2.974   5.469   5.761
12505TIP3    H237457   3.045   5.336   5.777
12506TIP3   OH237458   1.527   6.770   5.711
12506TIP3    H137459   1.445   6.736   5.675
12506TIP3    H237460   1.528   6.862   5.685
12507TIP3   OH237461   1.951   5.329   5.720
12507TIP3    H137462   1.996   5.267   5.662
12507TIP3    H237463   2.020   5.385   5.754
12508TIP3   OH237464   2.439   5.525   5.815
12508TIP3    H137465   2.498   5.471   5.868
12508TIP3    H237466   2.457   5.615   5.843
12509TIP3   OH237467   2.319   6.924   5.310
12509TIP3    H137468   2.403   6.951   5.274
12509TIP3    H237469   2.290   6.852   5.255
12510TIP3   OH237470   3.029   7.066   5.410
12510TIP3    H137471   3.024   6.971   5.403
12510TIP3    H237472   2.984   7.098   5.332
12511TIP3   OH237473   7.985   1.519   0.165
12511TIP3    H137474   7.949   1.451   0.222
12511TIP3    H237475   8.077   1.525   0.189
12512TIP3   OH237476   8.235   1.526   0.284
12512TIP3    H137477   8.313   1.504   0.233
12512TIP3    H237478   8.228   1.456   0.349
12513TIP3   OH237479   1.622   6.764   5.366
12513TIP3    H137480   1.620   6.771   5.462
12513TIP3    H237481   1.704   6.719   5.347
12514TIP3   OH237482   0.442   1.609   0.089
12514TIP3    H137483   0.467   1.574   0.174
12514TIP3    H237484   0.525   1.618   0.041
12515TIP3   OH237485   3.241   7.201   6.604
12515TIP3    H137486   3.168   7.172   6.549
12515TIP3    H237487   3.231   7.296   6.607
12516TIP3   OH237488   4.521   6.587   5.343
12516TIP3    H137489   4.488   6.674   5.319
12516TIP3    H237490   4.452   6.527   5.317
12517TIP3   OH237491   4.512   6.584   5.766
12517TIP3    H137492   4.565   6.561   5.843
12517TIP3    H237493   4.473   6.501   5.739
12518TIP3   OH237494   3.816   6.451   6.112
12518TIP3    H137495   3.851   6.394   6.181
12518TIP3    H237496   3.892   6.471   6.057
12519TIP3   OH237497   4.775   6.890   5.438
12519TIP3    H137498   4.765   6.820   5.503
12519TIP3    H237499   4.799   6.967   5.489
12520TIP3   OH237500   3.803   6.880   5.813
12520TIP3    H137501   3.787   6.786   5.814
12520TIP3    H237502   3.897   6.889   5.800
12521TIP3   OH237503   3.490   6.080   5.589
12521TIP3    H137504   3.447   6.162   5.611
12521TIP3    H237505   3.422   6.027   5.549
12522TIP3   OH237506   3.558   6.373   5.802
12522TIP3    H137507   3.608   6.296   5.830
12522TIP3    H237508   3.622   6.426   5.754
12523TIP3   OH237509   4.436   7.323   5.448
12523TIP3    H137510   4.464   7.259   5.382
12523TIP3    H237511   4.429   7.272   5.529
12524TIP3   OH237512   4.318   6.805   5.774
12524TIP3    H137513   4.359   6.724   5.744
12524TIP3    H237514   4.392   6.861   5.800
12525TIP3   OH237515   5.343   6.118   5.797
12525TIP3    H137516   5.362   6.204   5.833
12525TIP3    H237517   5.386   6.117   5.711
12526TIP3   OH237518   4.728   6.292   5.810
12526TIP3    H137519   4.784   6.217   5.833
12526TIP3    H237520   4.697   6.273   5.722
12527TIP3   OH237521   4.080   5.954   5.770
12527TIP3    H137522   4.061   6.026   5.709
12527TIP3    H237523   4.028   5.880   5.736
12528TIP3   OH237524   4.777   6.053   5.394
12528TIP3    H137525   4.846   6.041   5.459
12528TIP3    H237526   4.822   6.085   5.316
12529TIP3   OH237527   3.708   6.160   5.893
12529TIP3    H137528   3.791   6.142   5.937
12529TIP3    H237529   3.713   6.109   5.812
12530TIP3   OH237530   4.132   6.362   5.711
12530TIP3    H137531   4.226   6.346   5.716
12530TIP3    H237532   4.095   6.281   5.675
12531TIP3   OH237533   5.415   6.341   5.957
12531TIP3    H137534   5.331   6.382   5.938
12531TIP3    H237535   5.437   6.369   6.045
12532TIP3   OH237536   4.064   5.952   6.220
12532TIP3    H137537   4.013   5.985   6.147
12532TIP3    H237538   4.009   5.967   6.297
12533TIP3   OH237539   4.395   6.799   5.219
12533TIP3    H137540   4.364   6.779   5.131
12533TIP3    H237541   4.349   6.880   5.243
12534TIP3   OH237542   4.165   6.726   5.990
12534TIP3    H137543   4.109   6.796   6.024
12534TIP3    H237544   4.212   6.766   5.917
12535TIP3   OH237545   4.977   6.061   5.581
12535TIP3    H137546   4.987   6.119   5.656
12535TIP3    H237547   5.043   6.091   5.518
12536TIP3   OH237548   3.952   6.059   5.991
12536TIP3    H137549   4.009   6.132   6.014
12536TIP3    H237550   3.996   6.016   5.918
12537TIP3   OH237551   4.004   6.929   6.094
12537TIP3    H137552   3.986   7.016   6.060
12537TIP3    H237553   3.927   6.906   6.145
12538TIP3   OH237554   3.383   6.628   5.342
12538TIP3    H137555   3.347   6.644   5.254
12538TIP3    H237556   3.408   6.714   5.374
12539TIP3   OH237557   4.818   7.137   5.584
12539TIP3    H137558   4.731   7.133   5.624
12539TIP3    H237559   4.819   7.219   5.535
12540TIP3   OH237560   5.133   6.015   5.956
12540TIP3    H137561   5.046   6.037   5.923
12540TIP3    H237562   5.193   6.044   5.887
12541TIP3   OH237563   4.408   5.644   5.944
12541TIP3    H137564   4.399   5.552   5.968
12541TIP3    H237565   4.333   5.687   5.983
12542TIP3   OH237566   4.527   7.168   5.233
12542TIP3    H137567   4.577   7.087   5.223
12542TIP3    H237568   4.587   7.237   5.205
12543TIP3   OH237569   4.678   6.948   5.184
12543TIP3    H137570   4.657   6.866   5.139
12543TIP3    H237571   4.715   6.920   5.268
12544TIP3   OH237572   5.059   7.024   5.926
12544TIP3    H137573   5.041   6.949   5.869
12544TIP3    H237574   5.049   7.100   5.868
12545TIP3   OH237575   4.344   6.431   5.193
12545TIP3    H137576   4.264   6.478   5.171
12545TIP3    H237577   4.393   6.428   5.110
12546TIP3   OH237578   4.314   6.231   4.889
12546TIP3    H137579   4.380   6.279   4.939
12546TIP3    H237580   4.364   6.163   4.843
12547TIP3   OH237581   5.244   6.692   5.789
12547TIP3    H137582   5.158   6.734   5.782
12547TIP3    H237583   5.276   6.688   5.699
12548TIP3   OH237584   4.711   6.505   5.162
12548TIP3    H137585   4.657   6.533   5.237
12548TIP3    H237586   4.790   6.469   5.202
12549TIP3   OH237587   4.932   6.547   6.094
12549TIP3    H137588   4.926   6.629   6.143
12549TIP3    H237589   4.850   6.542   6.044
12550TIP3   OH237590   3.930   6.498   5.567
12550TIP3    H137591   3.893   6.440   5.501
12550TIP3    H237592   4.003   6.449   5.604
12551TIP3   OH237593   4.063   6.925   5.704
12551TIP3    H137594   4.037   6.906   5.614
12551TIP3    H237595   4.149   6.884   5.715
12552TIP3   OH237596   4.033   6.490   5.937
12552TIP3    H137597   4.071   6.454   5.857
12552TIP3    H237598   4.084   6.570   5.953
12553TIP3   OH237599   4.584   7.140   5.727
12553TIP3    H137600   4.582   7.205   5.798
12553TIP3    H237601   4.573   7.056   5.770
12554TIP3   OH237602   4.202   7.034   6.256
12554TIP3    H137603   4.141   7.092   6.303
12554TIP3    H237604   4.145   6.980   6.200
12555TIP3   OH237605   4.533   6.381   4.990
12555TIP3    H137606   4.598   6.430   5.040
12555TIP3    H237607   4.560   6.392   4.898
12556TIP3   OH237608   3.957   6.583   6.394
12556TIP3    H137609   3.957   6.677   6.415
12556TIP3    H237610   3.864   6.561   6.386
12557TIP3   OH237611   4.276   7.053   5.252
12557TIP3    H137612   4.361   7.096   5.252
12557TIP3    H237613   4.221   7.108   5.197
12558TIP3   OH237614   3.991   7.194   6.343
12558TIP3    H137615   3.964   7.199   6.251
12558TIP3    H237616   3.910   7.174   6.391
12559TIP3   OH237617   5.046   5.608   5.041
12559TIP3    H137618   4.970   5.626   5.095
12559TIP3    H237619   5.058   5.687   4.988
12560TIP3   OH237620   3.804   6.343   5.366
12560TIP3    H137621   3.727   6.387   5.329
12560TIP3    H237622   3.776   6.252   5.378
12561TIP3   OH237623   4.868   6.979   4.593
12561TIP3    H137624   4.864   7.072   4.573
12561TIP3    H237625   4.950   6.950   4.554
12562TIP3   OH237626   3.584   6.742   6.290
12562TIP3    H137627   3.515   6.724   6.225
12562TIP3    H237628   3.617   6.656   6.314
12563TIP3   OH237629   3.439   6.927   5.927
12563TIP3    H137630   3.535   6.928   5.920
12563TIP3    H237631   3.418   7.005   5.978
12564TIP3   OH237632   5.290   7.401   5.982
12564TIP3    H137633   5.297   7.306   5.991
12564TIP3    H237634   5.211   7.424   6.031
12565TIP3   OH237635   4.391   7.173   6.115
12565TIP3    H137636   4.384   7.263   6.146
12565TIP3    H237637   4.324   7.125   6.163
12566TIP3   OH237638   4.170   7.277   5.069
12566TIP3    H137639   4.124   7.255   4.988
12566TIP3    H237640   4.133   7.361   5.096
12567TIP3   OH237641   3.605   7.130   5.450
12567TIP3    H137642   3.649   7.121   5.534
12567TIP3    H237643   3.556   7.048   5.440
12568TIP3   OH237644   4.371   7.201   4.699
12568TIP3    H137645   4.421   7.128   4.663
12568TIP3    H237646   4.407   7.213   4.787
12569TIP3   OH237647   4.424   7.247   4.969
12569TIP3    H137648   4.337   7.252   5.009
12569TIP3    H237649   4.479   7.207   5.036
12570TIP3   OH237650   5.175   6.506   6.257
12570TIP3    H137651   5.095   6.516   6.205
12570TIP3    H237652   5.195   6.413   6.253
12571TIP3   OH237653   3.785   6.928   6.263
12571TIP3    H137654   3.835   6.915   6.343
12571TIP3    H237655   3.714   6.864   6.268
12572TIP3   OH237656   4.172   5.738   6.072
12572TIP3    H137657   4.088   5.705   6.038
12572TIP3    H237658   4.149   5.818   6.120
12573TIP3   OH237659   4.713   5.858   6.268
12573TIP3    H137660   4.783   5.831   6.328
12573TIP3    H237661   4.632   5.838   6.315
12574TIP3   OH237662   4.938   6.281   6.186
12574TIP3    H137663   4.896   6.281   6.272
12574TIP3    H237664   4.921   6.369   6.152
12575TIP3   OH237665   4.609   6.391   4.729
12575TIP3    H137666   4.567   6.378   4.644
12575TIP3    H237667   4.695   6.428   4.708
12576TIP3   OH237668   4.317   5.786   5.037
12576TIP3    H137669   4.283   5.790   5.127
12576TIP3    H237670   4.282   5.703   5.003
12577TIP3   OH237671   4.110   6.267   6.084
12577TIP3    H137672   4.063   6.275   6.166
12577TIP3    H237673   4.089   6.348   6.036
12578TIP3   OH237674   3.989   6.150   5.600
12578TIP3    H137675   3.901   6.123   5.624
12578TIP3    H237676   4.002   6.116   5.512
12579TIP3   OH237677   4.473   6.227   5.328
12579TIP3    H137678   4.425   6.298   5.285
12579TIP3    H237679   4.531   6.193   5.260
12580TIP3   OH237680   4.656   6.498   6.407
12580TIP3    H137681   4.630   6.427   6.466
12580TIP3    H237682   4.749   6.510   6.423
12581TIP3   OH237683   4.643   6.243   5.551
12581TIP3    H137684   4.575   6.265   5.488
12581TIP3    H237685   4.690   6.170   5.512
12582TIP3   OH237686   3.941   6.282   6.301
12582TIP3    H137687   3.971   6.340   6.371
12582TIP3    H237688   3.921   6.199   6.345
12583TIP3   OH237689   3.985   5.765   5.013
12583TIP3    H137690   3.976   5.764   5.108
12583TIP3    H237691   3.907   5.810   4.981
12584TIP3   OH237692   3.527   5.806   5.883
12584TIP3    H137693   3.604   5.838   5.930
12584TIP3    H237694   3.562   5.778   5.798
12585TIP3   OH237695   3.455   5.783   5.389
12585TIP3    H137696   3.501   5.817   5.313
12585TIP3    H237697   3.391   5.851   5.411
12586TIP3   OH237698   4.671   6.493   5.981
12586TIP3    H137699   4.697   6.426   5.917
12586TIP3    H237700   4.632   6.444   6.053
12587TIP3   OH237701   4.346   5.951   5.652
12587TIP3    H137702   4.270   5.947   5.710
12587TIP3    H237703   4.420   5.932   5.709
12588TIP3   OH237704   3.752   6.022   5.660
12588TIP3    H137705   3.664   6.026   5.625
12588TIP3    H237706   3.781   5.932   5.643
12589TIP3   OH237707   4.007   6.027   5.356
12589TIP3    H137708   4.101   6.036   5.344
12589TIP3    H237709   3.969   6.045   5.270
12590TIP3   OH237710   4.846   6.046   5.881
12590TIP3    H137711   4.792   6.054   5.959
12590TIP3    H237712   4.802   5.979   5.828
12591TIP3   OH237713   3.883   6.057   5.113
12591TIP3    H137714   3.819   6.006   5.062
12591TIP3    H237715   3.939   6.097   5.046
12592TIP3   OH237716   4.992   7.732   6.068
12592TIP3    H137717   4.992   7.756   5.976
12592TIP3    H237718   5.066   7.779   6.106
12593TIP3   OH237719   3.940   6.848   6.496
12593TIP3    H137720   4.022   6.867   6.542
12593TIP3    H237721   3.873   6.851   6.563
12594TIP3   OH237722   4.405   6.307   5.759
12594TIP3    H137723   4.470   6.260   5.707
12594TIP3    H237724   4.404   6.263   5.843
12595TIP3   OH237725   3.900   5.775   5.646
12595TIP3    H137726   3.869   5.700   5.697
12595TIP3    H237727   3.932   5.737   5.564
12596TIP3   OH237728   4.376   6.208   6.026
12596TIP3    H137729   4.288   6.237   6.050
12596TIP3    H237730   4.434   6.260   6.081
12597TIP3   OH237731   4.105   6.574   5.134
12597TIP3    H137732   4.034   6.513   5.115
12597TIP3    H237733   4.084   6.609   5.221
12598TIP3   OH237734   5.002   6.822   5.748
12598TIP3    H137735   5.036   6.869   5.672
12598TIP3    H237736   4.922   6.780   5.716
12599TIP3   OH237737   4.572   5.882   5.031
12599TIP3    H137738   4.478   5.862   5.032
12599TIP3    H237739   4.577   5.976   5.048
12600TIP3   OH237740   4.522   6.907   6.141
12600TIP3    H137741   4.566   6.889   6.224
12600TIP3    H237742   4.477   6.990   6.155
12601TIP3   OH237743   4.629   6.142   5.109
12601TIP3    H137744   4.724   6.134   5.118
12601TIP3    H237745   4.616   6.221   5.057
12602TIP3   OH237746   3.810   6.601   5.794
12602TIP3    H137747   3.843   6.574   5.708
12602TIP3    H237748   3.870   6.560   5.857
12603TIP3   OH237749   4.262   6.731   4.977
12603TIP3    H137750   4.215   6.815   4.977
12603TIP3    H237751   4.207   6.673   5.030
12604TIP3   OH237752   3.682   6.515   6.426
12604TIP3    H137753   3.691   6.487   6.517
12604TIP3    H237754   3.610   6.462   6.391
12605TIP3   OH237755   4.423   6.649   6.441
12605TIP3    H137756   4.357   6.592   6.403
12605TIP3    H237757   4.507   6.610   6.415
12606TIP3   OH237758   4.660   7.199   6.033
12606TIP3    H137759   4.567   7.178   6.043
12606TIP3    H237760   4.686   7.234   6.118
12607TIP3   OH237761   5.044   6.232   4.925
12607TIP3    H137762   4.988   6.191   4.859
12607TIP3    H237763   5.057   6.321   4.894
12608TIP3   OH237764   5.306   7.123   6.010
12608TIP3    H137765   5.213   7.101   6.016
12608TIP3    H237766   5.335   7.084   5.928
12609TIP3   OH237767   4.796   7.047   4.858
12609TIP3    H137768   4.754   6.978   4.909
12609TIP3    H237769   4.814   7.007   4.772
12610TIP3   OH237770   4.767   6.690   5.651
12610TIP3    H137771   4.676   6.666   5.670
12610TIP3    H237772   4.807   6.610   5.617
12611TIP3   OH237773   3.923   6.922   5.456
12611TIP3    H137774   3.923   6.998   5.399
12611TIP3    H237775   3.830   6.898   5.465
12612TIP3   OH237776   3.483   6.208   5.163
12612TIP3    H137777   3.528   6.290   5.184
12612TIP3    H237778   3.404   6.209   5.216
12613TIP3   OH237779   4.020   6.676   5.370
12613TIP3    H137780   4.003   6.765   5.399
12613TIP3    H237781   3.993   6.621   5.443
12614TIP3   OH237782   4.201   7.248   5.910
12614TIP3    H137783   4.239   7.320   5.859
12614TIP3    H237784   4.276   7.211   5.957
12615TIP3   OH237785   3.837   7.149   5.302
12615TIP3    H137786   3.751   7.153   5.343
12615TIP3    H237787   3.869   7.239   5.306
12616TIP3   OH237788   4.565   6.902   5.869
12616TIP3    H137789   4.555   6.896   5.964
12616TIP3    H237790   4.628   6.833   5.847
12617TIP3   OH237791   4.549   6.786   4.760
12617TIP3    H137792   4.591   6.762   4.842
12617TIP3    H237793   4.463   6.743   4.763
12618TIP3   OH237794   4.828   7.399   5.919
12618TIP3    H137795   4.756   7.340   5.942
12618TIP3    H237796   4.792   7.456   5.851
12619TIP3   OH237797   4.869   7.253   4.560
12619TIP3    H137798   4.891   7.312   4.488
12619TIP3    H237799   4.796   7.297   4.605
12620TIP3   OH237800   3.888   6.033   6.426
12620TIP3    H137801   3.793   6.042   6.431
12620TIP3    H237802   3.910   5.970   6.495
12621TIP3   OH237803   4.705   6.718   4.982
12621TIP3    H137804   4.694   6.647   5.044
12621TIP3    H237805   4.798   6.715   4.959
12622TIP3   OH237806   3.628   7.129   6.074
12622TIP3    H137807   3.679   7.062   6.120
12622TIP3    H237808   3.649   7.211   6.120
12623TIP3   OH237809   3.902   6.753   4.761
12623TIP3    H137810   3.912   6.662   4.733
12623TIP3    H237811   3.885   6.747   4.855
12624TIP3   OH237812   3.848   6.769   5.033
12624TIP3    H137813   3.920   6.738   5.088
12624TIP3    H237814   3.850   6.864   5.041
12625TIP3   OH237815   3.581   6.458   5.243
12625TIP3    H137816   3.515   6.504   5.295
12625TIP3    H237817   3.601   6.517   5.171
12626TIP3   OH237818   4.731   6.098   6.133
12626TIP3    H137819   4.817   6.135   6.156
12626TIP3    H237820   4.727   6.016   6.182
12627TIP3   OH237821   4.631   5.833   5.302
12627TIP3    H137822   4.613   5.849   5.209
12627TIP3    H237823   4.674   5.913   5.332
12628TIP3   OH237824   4.120   6.962   4.978
12628TIP3    H137825   4.034   6.985   5.013
12628TIP3    H237826   4.140   7.032   4.916
12629TIP3   OH237827   4.287   6.036   5.396
12629TIP3    H137828   4.351   6.102   5.371
12629TIP3    H237829   4.307   6.016   5.488
12630TIP3   OH237830   4.577   6.329   6.180
12630TIP3    H137831   4.606   6.368   6.263
12630TIP3    H237832   4.626   6.247   6.174
12631TIP3   OH237833   4.448   5.735   5.486
12631TIP3    H137834   4.430   5.812   5.539
12631TIP3    H237835   4.516   5.763   5.425
12632TIP3   OH237836   3.867   7.043   5.049
12632TIP3    H137837   3.844   7.114   4.989
12632TIP3    H237838   3.854   7.082   5.136
12633TIP3   OH237839   3.961   5.753   5.292
12633TIP3    H137840   3.951   5.843   5.323
12633TIP3    H237841   4.055   5.737   5.296
12634TIP3   OH237842   5.204   6.235   6.169
12634TIP3    H137843   5.109   6.238   6.180
12634TIP3    H237844   5.217   6.186   6.087
12635TIP3   OH237845   4.857   6.439   5.568
12635TIP3    H137846   4.784   6.378   5.564
12635TIP3    H237847   4.924   6.394   5.620
12636TIP3   OH237848   3.599   6.642   5.030
12636TIP3    H137849   3.670   6.705   5.039
12636TIP3    H237850   3.631   6.578   4.967
12637TIP3   OH237851   3.516   5.931   5.167
12637TIP3    H137852   3.523   6.026   5.170
12637TIP3    H237853   3.457   5.914   5.094
12638TIP3   OH237854   4.858   7.403   5.494
12638TIP3    H137855   4.812   7.454   5.427
12638TIP3    H237856   4.950   7.408   5.469
12639TIP3   OH237857   3.908   5.653   6.033
12639TIP3    H137858   3.880   5.620   5.947
12639TIP3    H237859   3.900   5.578   6.091
12640TIP3   OH237860   3.438   6.903   5.419
12640TIP3    H137861   3.383   6.933   5.493
12640TIP3    H237862   3.398   6.943   5.342
12641TIP3   OH237863   3.627   7.438   6.490
12641TIP3    H137864   3.710   7.441   6.537
12641TIP3    H237865   3.607   7.345   6.482
12642TIP3   OH237866   4.099   7.363   6.532
12642TIP3    H137867   4.188   7.330   6.543
12642TIP3    H237868   4.062   7.309   6.462
12643TIP3   OH237869   4.061   6.954   4.658
12643TIP3    H137870   4.013   6.882   4.699
12643TIP3    H237871   4.135   6.911   4.615
12644TIP3   OH237872   4.712   7.301   6.284
12644TIP3    H137873   4.724   7.227   6.344
12644TIP3    H237874   4.789   7.356   6.299
12645TIP3   OH237875   4.500   6.991   4.579
12645TIP3    H137876   4.534   6.926   4.640
12645TIP3    H237877   4.558   6.985   4.502
12646TIP3   OH237878   3.735   6.829   6.686
12646TIP3    H137879   3.756   6.736   6.683
12646TIP3    H237880   3.650   6.836   6.642
12647TIP3   OH237881   3.726   6.451   4.884
12647TIP3    H137882   3.778   6.425   4.960
12647TIP3    H237883   3.790   6.462   4.814
12648TIP3   OH237884   4.354   6.924   6.459
12648TIP3    H137885   4.309   6.943   6.377
12648TIP3    H237886   4.389   6.836   6.447
12649TIP3   OH237887   4.286   6.672   4.710
12649TIP3    H137888   4.267   6.684   4.803
12649TIP3    H237889   4.273   6.578   4.695
12650TIP3   OH237890   4.836   6.968   6.082
12650TIP3    H137891   4.912   6.994   6.031
12650TIP3    H237892   4.767   7.029   6.055
12651TIP3   OH237893   3.857   6.578   6.674
12651TIP3    H137894   3.930   6.556   6.616
12651TIP3    H237895   3.898   6.597   6.759
12652TIP3   OH237896   3.904   6.387   5.093
12652TIP3    H137897   3.884   6.353   5.180
12652TIP3    H237898   3.951   6.315   5.050
12653TIP3   OH237899   4.201   6.459   6.347
12653TIP3    H137900   4.120   6.509   6.355
12653TIP3    H237901   4.240   6.490   6.265
12654TIP3   OH237902   4.040   6.200   4.937
12654TIP3    H137903   4.011   6.202   4.846
12654TIP3    H237904   4.135   6.205   4.933
12655TIP3   OH237905   4.718   6.843   6.440
12655TIP3    H137906   4.787   6.806   6.386
12655TIP3    H237907   4.712   6.785   6.516
12656TIP3   OH237908   4.837   6.500   4.612
12656TIP3    H137909   4.824   6.454   4.529
12656TIP3    H237910   4.809   6.590   4.595
12657TIP3   OH237911   4.318   6.238   6.457
12657TIP3    H137912   4.321   6.164   6.396
12657TIP3    H237913   4.280   6.309   6.406
12658TIP3   OH237914   4.325   6.035   6.258
12658TIP3    H137915   4.353   6.069   6.173
12658TIP3    H237916   4.234   6.008   6.243
12659TIP3   OH237917   4.334   6.565   6.137
12659TIP3    H137918   4.423   6.574   6.103
12659TIP3    H237919   4.282   6.627   6.085
12660TIP3   OH237920   4.925   6.524   6.501
12660TIP3    H137921   4.953   6.432   6.502
12660TIP3    H237922   5.004   6.572   6.476
12661TIP3   OH237923   4.956   6.787   6.245
12661TIP3    H137924   4.904   6.850   6.195
12661TIP3    H237925   5.046   6.800   6.213
12662TIP3   OH237926   4.198   6.328   6.696
12662TIP3    H137927   4.134   6.260   6.715
12662TIP3    H237928   4.230   6.307   6.608
12663TIP3   OH237929   4.448   5.800   6.350
12663TIP3    H137930   4.406   5.880   6.319
12663TIP3    H237931   4.383   5.731   6.337
12664TIP3   OH237932   4.575   6.282   6.554
12664TIP3    H137933   4.565   6.268   6.648
12664TIP3    H237934   4.489   6.259   6.518
12665TIP3   OH237935   4.826   6.250   6.430
12665TIP3    H137936   4.746   6.240   6.482
12665TIP3    H237937   4.895   6.211   6.483
12666TIP3   OH237938   5.058   6.189   6.571
12666TIP3    H137939   5.071   6.095   6.580
12666TIP3    H237940   5.052   6.221   6.661
12667TIP3   OH237941   4.041   6.105   6.761
12667TIP3    H137942   4.040   6.019   6.720
12667TIP3    H237943   4.080   6.090   6.847
12668TIP3   OH237944   4.520   5.786   6.614
12668TIP3    H137945   4.589   5.720   6.609
12668TIP3    H237946   4.488   5.794   6.525
12669TIP3   OH237947   4.609   6.003   6.759
12669TIP3    H137948   4.581   5.930   6.703
12669TIP3    H237949   4.534   6.063   6.757
12670TIP3   OH237950   3.858   7.255   4.867
12670TIP3    H137951   3.948   7.233   4.840
12670TIP3    H237952   3.821   7.298   4.790
12671TIP3   OH237953   3.325   6.627   5.056
12671TIP3    H137954   3.420   6.641   5.048
12671TIP3    H237955   3.311   6.542   5.016
12672TIP3   OH237956   3.228   7.230   5.507
12672TIP3    H137957   3.164   7.175   5.462
12672TIP3    H237958   3.273   7.170   5.567
12673TIP3   OH237959   3.368   7.063   5.678
12673TIP3    H137960   3.356   6.992   5.741
12673TIP3    H237961   3.423   7.127   5.724
12674TIP3   OH237962   5.139   7.461   5.470
12674TIP3    H137963   5.146   7.474   5.564
12674TIP3    H237964   5.152   7.548   5.433
12675TIP3   OH237965   5.138   7.484   5.751
12675TIP3    H137966   5.088   7.402   5.750
12675TIP3    H237967   5.205   7.471   5.818
12676TIP3   OH237968   5.175   7.191   6.331
12676TIP3    H137969   5.101   7.198   6.390
12676TIP3    H237970   5.220   7.275   6.338
12677TIP3   OH237971   4.982   6.703   4.953
12677TIP3    H137972   5.022   6.789   4.956
12677TIP3    H237973   5.021   6.655   5.027
12678TIP3   OH237974   5.106   6.570   5.155
12678TIP3    H137975   5.046   6.517   5.207
12678TIP3    H237976   5.177   6.592   5.216
12679TIP3   OH237977   5.178   6.960   5.581
12679TIP3    H137978   5.232   6.890   5.544
12679TIP3    H237979   5.181   7.029   5.515
12680TIP3   OH237980   4.999   7.244   5.767
12680TIP3    H137981   4.933   7.288   5.821
12680TIP3    H237982   4.949   7.200   5.698
12681TIP3   OH237983   5.043   6.482   4.794
12681TIP3    H137984   4.971   6.476   4.730
12681TIP3    H237985   5.019   6.556   4.849
12682TIP3   OH237986   4.888   6.131   4.720
12682TIP3    H137987   4.841   6.154   4.640
12682TIP3    H237988   4.887   6.035   4.722
12683TIP3   OH237989   4.942   6.409   5.305
12683TIP3    H137990   5.001   6.334   5.314
12683TIP3    H237991   4.915   6.429   5.394
12684TIP3   OH237992   3.553   6.487   6.052
12684TIP3    H137993   3.543   6.450   5.965
12684TIP3    H237994   3.647   6.484   6.069
12685TIP3   OH237995   5.211   6.837   6.144
12685TIP3    H137996   5.279   6.770   6.133
12685TIP3    H237997   5.211   6.886   6.062
12686TIP3   OH237998   5.393   6.630   6.145
12686TIP3    H137999   5.317   6.586   6.184
12686TIP3    H238000   5.467   6.576   6.170
12687TIP3   OH238001   4.861   5.856   4.705
12687TIP3    H138002   4.928   5.834   4.769
12687TIP3    H238003   4.781   5.815   4.737
12688TIP3   OH238004   4.904   6.109   5.146
12688TIP3    H138005   4.960   6.035   5.168
12688TIP3    H238006   4.958   6.163   5.089
12689TIP3   OH238007   5.061   6.310   5.712
12689TIP3    H138008   5.135   6.315   5.652
12689TIP3    H238009   5.093   6.351   5.793
12690TIP3   OH238010   5.164   6.463   5.926
12690TIP3    H138011   5.086   6.493   5.972
12690TIP3    H238012   5.194   6.540   5.877
12691TIP3   OH238013   3.776   6.175   6.737
12691TIP3    H138014   3.871   6.162   6.738
12691TIP3    H238015   3.740   6.089   6.758
12692TIP3   OH238016   5.602   6.059   6.456
12692TIP3    H138017   5.667   5.998   6.422
12692TIP3    H238018   5.571   6.107   6.379
12693TIP3   OH238019   5.044   5.878   5.220
12693TIP3    H138020   5.086   5.882   5.306
12693TIP3    H238021   4.982   5.805   5.227
12694TIP3   OH238022   3.740   5.874   6.052
12694TIP3    H138023   3.794   5.795   6.056
12694TIP3    H238024   3.803   5.944   6.036
12695TIP3   OH238025   3.527   6.142   6.110
12695TIP3    H138026   3.576   6.128   6.029
12695TIP3    H238027   3.565   6.222   6.147
12696TIP3   OH238028   5.466   6.179   6.253
12696TIP3    H138029   5.381   6.217   6.276
12696TIP3    H238030   5.444   6.101   6.202
12697TIP3   OH238031   5.088   5.814   4.859
12697TIP3    H138032   5.138   5.752   4.805
12697TIP3    H238033   5.148   5.888   4.871
12698TIP3   OH238034   3.516   5.659   5.624
12698TIP3    H138035   3.428   5.640   5.657
12698TIP3    H238036   3.502   5.708   5.544
12699TIP3   OH238037   4.676   7.367   5.128
12699TIP3    H138038   4.727   7.350   5.049
12699TIP3    H238039   4.725   7.435   5.175
12700TIP3   OH238040   3.740   5.721   6.437
12700TIP3    H138041   3.688   5.704   6.516
12700TIP3    H238042   3.679   5.761   6.376
12701TIP3   OH238043   3.770   7.159   6.513
12701TIP3    H138044   3.677   7.140   6.500
12701TIP3    H238045   3.784   7.147   6.606
12702TIP3   OH238046   3.973   7.205   6.059
12702TIP3    H138047   3.921   7.278   6.026
12702TIP3    H238048   4.058   7.213   6.015
12703TIP3   OH238049   4.386   7.437   6.205
12703TIP3    H138050   4.426   7.428   6.292
12703TIP3    H238051   4.452   7.484   6.153
12704TIP3   OH238052   4.570   7.568   6.048
12704TIP3    H138053   4.573   7.512   5.971
12704TIP3    H238054   4.662   7.587   6.068
12705TIP3   OH238055   5.376   5.931   6.151
12705TIP3    H138056   5.288   5.927   6.112
12705TIP3    H238057   5.408   5.841   6.145
12706TIP3   OH238058   3.638   7.456   6.102
12706TIP3    H138059   3.546   7.473   6.079
12706TIP3    H238060   3.659   7.520   6.170
12707TIP3   OH238061   3.867   7.436   5.951
12707TIP3    H138062   3.784   7.444   5.999
12707TIP3    H238063   3.846   7.460   5.861
12708TIP3   OH238064   4.285   7.456   5.743
12708TIP3    H138065   4.215   7.462   5.678
12708TIP3    H238066   4.292   7.545   5.780
12709TIP3   OH238067   4.550   7.421   5.818
12709TIP3    H138068   4.462   7.420   5.779
12709TIP3    H238069   4.604   7.467   5.753
12710TIP3   OH238070   4.757   7.562   5.696
12710TIP3    H138071   4.754   7.649   5.657
12710TIP3    H238072   4.791   7.506   5.626
12711TIP3   OH238073   3.549   7.230   5.827
12711TIP3    H138074   3.573   7.202   5.915
12711TIP3    H238075   3.619   7.197   5.771
12712TIP3   OH238076   3.750   7.116   5.685
12712TIP3    H138077   3.761   7.032   5.729
12712TIP3    H238078   3.837   7.155   5.684
12713TIP3   OH238079   4.019   7.202   5.702
12713TIP3    H138080   4.038   7.109   5.686
12713TIP3    H238081   4.070   7.224   5.779
12714TIP3   OH238082   4.561   5.844   5.784
12714TIP3    H138083   4.531   5.770   5.837
12714TIP3    H238084   4.640   5.812   5.741
12715TIP3   OH238085   5.097   5.765   5.658
12715TIP3    H138086   5.140   5.819   5.592
12715TIP3    H238087   5.011   5.805   5.670
12716TIP3   OH238088   5.213   5.888   5.441
12716TIP3    H138089   5.290   5.843   5.405
12716TIP3    H238090   5.228   5.981   5.421
12717TIP3   OH238091   3.820   5.550   5.791
12717TIP3    H138092   3.731   5.518   5.796
12717TIP3    H238093   3.874   5.472   5.783
12718TIP3   OH238094   3.631   5.456   5.448
12718TIP3    H138095   3.661   5.503   5.370
12718TIP3    H238096   3.602   5.524   5.508
12719TIP3   OH238097   4.293   5.595   5.681
12719TIP3    H138098   4.343   5.639   5.612
12719TIP3    H238099   4.336   5.620   5.762
12720TIP3   OH238100   4.795   5.746   5.673
12720TIP3    H138101   4.812   5.717   5.583
12720TIP3    H238102   4.801   5.665   5.725
12721TIP3   OH238103   4.854   5.675   5.231
12721TIP3    H138104   4.773   5.722   5.250
12721TIP3    H238105   4.841   5.588   5.268
12722TIP3   OH238106   3.321   7.023   5.203
12722TIP3    H138107   3.237   6.988   5.175
12722TIP3    H238108   3.321   7.114   5.171
12723TIP3   OH238109   3.746   5.588   5.208
12723TIP3    H138110   3.790   5.524   5.152
12723TIP3    H238111   3.817   5.642   5.243
12724TIP3   OH238112   4.236   5.783   5.302
12724TIP3    H138113   4.296   5.730   5.355
12724TIP3    H238114   4.253   5.873   5.330
12725TIP3   OH238115   4.114   7.181   4.799
12725TIP3    H138116   4.199   7.207   4.762
12725TIP3    H238117   4.086   7.108   4.743
12726TIP3   OH238118   4.821   7.317   4.897
12726TIP3    H138119   4.818   7.222   4.887
12726TIP3    H238120   4.778   7.350   4.818
12727TIP3   OH238121   4.043   5.833   6.674
12727TIP3    H138122   4.005   5.768   6.733
12727TIP3    H238123   4.135   5.839   6.700
12728TIP3   OH238124   4.294   5.841   6.794
12728TIP3    H138125   4.373   5.817   6.744
12728TIP3    H238126   4.283   5.770   6.857
12729TIP3   OH238127   3.421   7.022   4.857
12729TIP3    H138128   3.421   7.024   4.952
12729TIP3    H238129   3.501   6.976   4.833
12730TIP3   OH238130   5.118   5.919   6.584
12730TIP3    H138131   5.134   5.889   6.673
12730TIP3    H238132   5.203   5.915   6.541
12731TIP3   OH238133   5.042   7.464   6.086
12731TIP3    H138134   4.971   7.428   6.033
12731TIP3    H238135   5.024   7.557   6.091
12732TIP3   OH238136   6.307   6.842   4.840
12732TIP3    H138137   6.266   6.928   4.828
12732TIP3    H238138   6.246   6.781   4.798
12733TIP3   OH238139   6.310   6.846   5.245
12733TIP3    H138140   6.355   6.820   5.325
12733TIP3    H238141   6.273   6.764   5.211
12734TIP3   OH238142   5.621   6.718   5.579
12734TIP3    H138143   5.638   6.654   5.648
12734TIP3    H238144   5.707   6.738   5.542
12735TIP3   OH238145   6.572   7.137   4.920
12735TIP3    H138146   6.566   7.072   4.990
12735TIP3    H238147   6.596   7.218   4.964
12736TIP3   OH238148   5.590   7.143   5.318
12736TIP3    H138149   5.583   7.048   5.310
12736TIP3    H238150   5.679   7.158   5.350
12737TIP3   OH238151   5.300   6.347   5.137
12737TIP3    H138152   5.228   6.401   5.105
12737TIP3    H238153   5.262   6.293   5.206
12738TIP3   OH238154   5.347   6.632   5.287
12738TIP3    H138155   5.393   6.555   5.321
12738TIP3    H238156   5.390   6.651   5.204
12739TIP3   OH238157   6.231   7.580   4.935
12739TIP3    H138158   6.259   7.517   4.868
12739TIP3    H238159   6.232   7.530   5.017
12740TIP3   OH238160   6.122   7.065   5.267
12740TIP3    H138161   6.164   6.984   5.237
12740TIP3    H238162   6.195   7.121   5.293
12741TIP3   OH238163   7.139   6.377   5.267
12741TIP3    H138164   7.160   6.460   5.309
12741TIP3    H238165   7.172   6.386   5.178
12742TIP3   OH238166   6.505   6.532   5.301
12742TIP3    H138167   6.559   6.456   5.325
12742TIP3    H238168   6.489   6.522   5.207
12743TIP3   OH238169   5.879   6.217   5.251
12743TIP3    H138170   5.852   6.290   5.195
12743TIP3    H238171   5.833   6.141   5.215
12744TIP3   OH238172   6.575   6.312   4.883
12744TIP3    H138173   6.643   6.304   4.950
12744TIP3    H238174   6.621   6.343   4.805
12745TIP3   OH238175   5.502   6.427   5.381
12745TIP3    H138176   5.585   6.395   5.418
12745TIP3    H238177   5.484   6.367   5.308
12746TIP3   OH238178   5.943   6.618   5.193
12746TIP3    H138179   6.037   6.597   5.195
12746TIP3    H238180   5.901   6.540   5.158
12747TIP3   OH238181   7.202   6.588   5.440
12747TIP3    H138182   7.119   6.634   5.431
12747TIP3    H238183   7.245   6.631   5.514
12748TIP3   OH238184   5.846   6.229   5.713
12748TIP3    H138185   5.786   6.239   5.639
12748TIP3    H238186   5.792   6.244   5.790
12749TIP3   OH238187   6.134   7.042   4.737
12749TIP3    H138188   6.161   7.037   4.646
12749TIP3    H238189   6.111   7.135   4.750
12750TIP3   OH238190   5.959   6.991   5.478
12750TIP3    H138191   5.901   7.060   5.509
12750TIP3    H238192   6.009   7.031   5.407
12751TIP3   OH238193   6.750   6.333   5.090
12751TIP3    H138194   6.740   6.284   5.171
12751TIP3    H238195   6.807   6.407   5.113
12752TIP3   OH238196   5.737   6.310   5.471
12752TIP3    H138197   5.796   6.382   5.494
12752TIP3    H238198   5.780   6.268   5.396
12753TIP3   OH238199   5.795   7.197   5.572
12753TIP3    H138200   5.772   7.288   5.551
12753TIP3    H238201   5.726   7.168   5.632
12754TIP3   OH238202   6.611   7.383   5.060
12754TIP3    H138203   6.523   7.378   5.098
12754TIP3    H238204   6.613   7.466   5.014
12755TIP3   OH238205   6.938   6.268   5.441
12755TIP3    H138206   6.851   6.288   5.409
12755TIP3    H238207   6.997   6.295   5.370
12756TIP3   OH238208   6.318   7.421   4.725
12756TIP3    H138209   6.363   7.338   4.712
12756TIP3    H238210   6.381   7.487   4.693
12757TIP3   OH238211   6.449   7.190   4.675
12757TIP3    H138212   6.477   7.129   4.606
12757TIP3    H238213   6.496   7.161   4.753
12758TIP3   OH238214   6.839   7.286   5.412
12758TIP3    H138215   6.831   7.208   5.356
12758TIP3    H238216   6.828   7.360   5.352
12759TIP3   OH238217   6.149   6.688   4.673
12759TIP3    H138218   6.069   6.732   4.645
12759TIP3    H238219   6.199   6.676   4.593
12760TIP3   OH238220   6.109   6.485   4.375
12760TIP3    H138221   6.177   6.532   4.423
12760TIP3    H238222   6.157   6.416   4.328
12761TIP3   OH238223   7.035   6.933   5.275
12761TIP3    H138224   6.953   6.982   5.274
12761TIP3    H238225   7.075   6.951   5.190
12762TIP3   OH238226   6.494   6.775   4.647
12762TIP3    H138227   6.442   6.802   4.723
12762TIP3    H238228   6.578   6.747   4.685
12763TIP3   OH238229   6.720   6.797   5.578
12763TIP3    H138230   6.721   6.880   5.626
12763TIP3    H238231   6.637   6.797   5.530
12764TIP3   OH238232   5.731   6.749   5.057
12764TIP3    H138233   5.678   6.686   5.007
12764TIP3    H238234   5.800   6.695   5.097
12765TIP3   OH238235   5.879   7.188   5.201
12765TIP3    H138236   5.839   7.120   5.147
12765TIP3    H238237   5.967   7.156   5.221
12766TIP3   OH238238   5.861   6.735   5.434
12766TIP3    H138239   5.890   6.707   5.347
12766TIP3    H238240   5.897   6.823   5.444
12767TIP3   OH238241   6.372   7.386   5.194
12767TIP3    H138242   6.362   7.463   5.249
12767TIP3    H238243   6.365   7.312   5.254
12768TIP3   OH238244   5.986   7.292   5.752
12768TIP3    H138245   5.921   7.350   5.793
12768TIP3    H238246   5.934   7.239   5.691
12769TIP3   OH238247   6.334   6.632   4.473
12769TIP3    H138248   6.394   6.689   4.521
12769TIP3    H238249   6.360   6.640   4.381
12770TIP3   OH238250   5.754   6.829   5.877
12770TIP3    H138251   5.762   6.919   5.908
12770TIP3    H238252   5.660   6.813   5.874
12771TIP3   OH238253   6.065   7.312   4.741
12771TIP3    H138254   6.152   7.352   4.743
12771TIP3    H238255   6.013   7.371   4.687
12772TIP3   OH238256   5.780   7.458   5.834
12772TIP3    H138257   5.751   7.466   5.743
12772TIP3    H238258   5.702   7.433   5.883
12773TIP3   OH238259   6.844   5.861   4.529
12773TIP3    H138260   6.766   5.882   4.581
12773TIP3    H238261   6.856   5.938   4.473
12774TIP3   OH238262   5.572   6.589   4.891
12774TIP3    H138263   5.569   6.581   4.796
12774TIP3    H238264   5.541   6.505   4.924
12775TIP3   OH238265   5.378   6.994   5.781
12775TIP3    H138266   5.310   6.981   5.715
12775TIP3    H238267   5.412   6.906   5.799
12776TIP3   OH238268   5.236   7.186   5.414
12776TIP3    H138269   5.331   7.188   5.411
12776TIP3    H238270   5.211   7.271   5.450
12777TIP3   OH238271   7.063   7.633   5.452
12777TIP3    H138272   7.087   7.544   5.476
12777TIP3    H238273   6.987   7.652   5.507
12778TIP3   OH238274   6.180   7.413   5.600
12778TIP3    H138275   6.183   7.504   5.630
12778TIP3    H238276   6.108   7.374   5.649
12779TIP3   OH238277   5.964   7.527   4.561
12779TIP3    H138278   5.924   7.507   4.477
12779TIP3    H238279   5.928   7.612   4.586
12780TIP3   OH238280   5.398   7.407   4.929
12780TIP3    H138281   5.447   7.391   5.010
12780TIP3    H238282   5.352   7.325   4.912
12781TIP3   OH238283   6.194   7.441   4.181
12781TIP3    H138284   6.270   7.401   4.140
12781TIP3    H238285   6.220   7.455   4.272
12782TIP3   OH238286   6.218   7.503   4.453
12782TIP3    H138287   6.133   7.504   4.498
12782TIP3    H238288   6.280   7.473   4.519
12783TIP3   OH238289   6.961   6.761   5.743
12783TIP3    H138290   6.882   6.772   5.691
12783TIP3    H238291   6.983   6.668   5.734
12784TIP3   OH238292   5.608   7.152   5.764
12784TIP3    H138293   5.650   7.135   5.849
12784TIP3    H238294   5.526   7.103   5.768
12785TIP3   OH238295   6.508   6.116   5.783
12785TIP3    H138296   6.593   6.089   5.820
12785TIP3    H238297   6.447   6.111   5.857
12786TIP3   OH238298   6.727   6.530   5.664
12786TIP3    H138299   6.690   6.532   5.752
12786TIP3    H238300   6.715   6.619   5.631
12787TIP3   OH238301   6.414   6.635   4.214
12787TIP3    H138302   6.369   6.628   4.129
12787TIP3    H238303   6.492   6.687   4.195
12788TIP3   OH238304   6.106   6.057   4.557
12788TIP3    H138305   6.042   6.064   4.628
12788TIP3    H238306   6.074   5.987   4.501
12789TIP3   OH238307   5.912   6.503   5.573
12789TIP3    H138308   5.856   6.518   5.649
12789TIP3    H238309   5.907   6.584   5.523
12790TIP3   OH238310   5.790   6.418   5.085
12790TIP3    H138311   5.704   6.380   5.102
12790TIP3    H238312   5.808   6.396   4.994
12791TIP3   OH238313   6.276   6.488   4.815
12791TIP3    H138314   6.222   6.554   4.771
12791TIP3    H238315   6.330   6.451   4.745
12792TIP3   OH238316   6.454   6.754   5.888
12792TIP3    H138317   6.427   6.686   5.949
12792TIP3    H238318   6.547   6.766   5.905
12793TIP3   OH238319   6.438   6.500   5.035
12793TIP3    H138320   6.377   6.523   4.965
12793TIP3    H238321   6.486   6.424   5.001
12794TIP3   OH238322   5.735   6.542   5.780
12794TIP3    H138323   5.732   6.613   5.843
12794TIP3    H238324   5.710   6.464   5.831
12795TIP3   OH238325   5.251   6.046   4.891
12795TIP3    H138326   5.295   6.083   4.815
12795TIP3    H238327   5.188   6.113   4.918
12796TIP3   OH238328   6.451   6.741   5.467
12796TIP3    H138329   6.480   6.672   5.407
12796TIP3    H238330   6.412   6.694   5.540
12797TIP3   OH238331   6.136   6.211   5.143
12797TIP3    H138332   6.048   6.206   5.181
12797TIP3    H238333   6.187   6.260   5.207
12798TIP3   OH238334   5.562   6.275   5.135
12798TIP3    H138335   5.469   6.289   5.120
12798TIP3    H238336   5.575   6.182   5.120
12799TIP3   OH238337   5.834   6.336   4.831
12799TIP3    H138338   5.921   6.295   4.825
12799TIP3    H238339   5.783   6.292   4.763
12800TIP3   OH238340   6.621   6.284   5.365
12800TIP3    H138341   6.590   6.300   5.454
12800TIP3    H238342   6.557   6.224   5.327
12801TIP3   OH238343   5.642   6.344   4.605
12801TIP3    H138344   5.584   6.275   4.573
12801TIP3    H238345   5.704   6.359   4.534
12802TIP3   OH238346   6.780   7.991   5.532
12802TIP3    H138347   6.775   7.993   5.437
12802TIP3    H238348   6.815   8.076   5.556
12803TIP3   OH238349   5.753   7.087   5.998
12803TIP3    H138350   5.830   7.117   6.046
12803TIP3    H238351   5.681   7.091   6.061
12804TIP3   OH238352   6.221   6.559   5.217
12804TIP3    H138353   6.277   6.532   5.144
12804TIP3    H238354   6.274   6.541   5.295
12805TIP3   OH238355   5.747   6.016   5.122
12805TIP3    H138356   5.702   5.945   5.166
12805TIP3    H238357   5.750   5.989   5.030
12806TIP3   OH238358   6.116   6.326   5.633
12806TIP3    H138359   6.052   6.393   5.606
12806TIP3    H238360   6.200   6.371   5.630
12807TIP3   OH238361   5.915   6.827   4.609
12807TIP3    H138362   5.852   6.756   4.599
12807TIP3    H238363   5.895   6.866   4.695
12808TIP3   OH238364   6.799   7.075   5.238
12808TIP3    H138365   6.837   7.122   5.164
12808TIP3    H238366   6.719   7.035   5.203
12809TIP3   OH238367   6.362   6.141   4.526
12809TIP3    H138368   6.269   6.121   4.536
12809TIP3    H238369   6.369   6.235   4.541
12810TIP3   OH238370   6.304   7.151   5.630
12810TIP3    H138371   6.349   7.143   5.715
12810TIP3    H238372   6.264   7.238   5.633
12811TIP3   OH238373   6.434   6.402   4.599
12811TIP3    H138374   6.529   6.404   4.605
12811TIP3    H238375   6.411   6.477   4.544
12812TIP3   OH238376   5.619   6.872   5.288
12812TIP3    H138377   5.653   6.827   5.211
12812TIP3    H238378   5.624   6.806   5.358
12813TIP3   OH238379   6.073   6.989   4.444
12813TIP3    H138380   6.024   7.071   4.449
12813TIP3    H238381   6.024   6.928   4.499
12814TIP3   OH238382   5.486   6.759   5.909
12814TIP3    H138383   5.484   6.735   6.001
12814TIP3    H238384   5.409   6.716   5.871
12815TIP3   OH238385   6.220   6.908   5.924
12815TIP3    H138386   6.149   6.851   5.893
12815TIP3    H238387   6.300   6.866   5.893
12816TIP3   OH238388   6.454   7.437   5.530
12816TIP3    H138389   6.360   7.421   5.525
12816TIP3    H238390   6.466   7.484   5.612
12817TIP3   OH238391   6.854   6.495   4.420
12817TIP3    H138392   6.797   6.448   4.358
12817TIP3    H238393   6.858   6.584   4.386
12818TIP3   OH238394   7.088   7.345   5.506
12818TIP3    H138395   6.993   7.335   5.492
12818TIP3    H238396   7.127   7.321   5.422
12819TIP3   OH238397   6.591   7.315   4.266
12819TIP3    H138398   6.573   7.224   4.289
12819TIP3    H238399   6.564   7.322   4.174
12820TIP3   OH238400   6.568   6.944   5.136
12820TIP3    H138401   6.477   6.923   5.156
12820TIP3    H238402   6.604   6.863   5.099
12821TIP3   OH238403   5.630   7.172   4.892
12821TIP3    H138404   5.641   7.258   4.850
12821TIP3    H238405   5.590   7.193   4.977
12822TIP3   OH238406   5.265   6.455   4.637
12822TIP3    H138407   5.291   6.547   4.629
12822TIP3    H238408   5.190   6.456   4.696
12823TIP3   OH238409   5.813   6.927   4.864
12823TIP3    H138410   5.901   6.957   4.887
12823TIP3    H238411   5.792   6.861   4.931
12824TIP3   OH238412   5.980   7.517   5.404
12824TIP3    H138413   6.019   7.586   5.350
12824TIP3    H238414   6.054   7.470   5.441
12825TIP3   OH238415   5.622   7.417   4.771
12825TIP3    H138416   5.537   7.429   4.814
12825TIP3    H238417   5.665   7.502   4.779
12826TIP3   OH238418   6.364   7.163   5.362
12826TIP3    H138419   6.351   7.152   5.456
12826TIP3    H238420   6.439   7.108   5.342
12827TIP3   OH238421   6.325   7.021   4.277
12827TIP3    H138422   6.392   7.014   4.345
12827TIP3    H238423   6.242   7.011   4.323
12828TIP3   OH238424   6.612   7.655   5.404
12828TIP3    H138425   6.536   7.599   5.416
12828TIP3    H238426   6.588   7.714   5.333
12829TIP3   OH238427   5.687   6.293   5.923
12829TIP3    H138428   5.592   6.301   5.919
12829TIP3    H238429   5.703   6.229   5.993
12830TIP3   OH238430   6.518   6.992   4.478
12830TIP3    H138431   6.505   6.915   4.534
12830TIP3    H238432   6.611   6.988   4.454
12831TIP3   OH238433   5.702   6.997   4.267
12831TIP3    H138434   5.742   6.920   4.227
12831TIP3    H238435   5.617   6.966   4.298
12832TIP3   OH238436   5.679   7.033   4.592
12832TIP3    H138437   5.735   6.992   4.526
12832TIP3    H238438   5.655   7.118   4.554
12833TIP3   OH238439   6.529   6.339   5.622
12833TIP3    H138440   6.609   6.385   5.646
12833TIP3    H238441   6.525   6.265   5.682
12834TIP3   OH238442   6.431   6.087   4.794
12834TIP3    H138443   6.400   6.104   4.705
12834TIP3    H238444   6.469   6.171   4.821
12835TIP3   OH238445   5.911   7.209   4.463
12835TIP3    H138446   5.824   7.235   4.493
12835TIP3    H238447   5.938   7.280   4.405
12836TIP3   OH238448   6.106   6.276   4.874
12836TIP3    H138449   6.166   6.347   4.854
12836TIP3    H238450   6.117   6.260   4.967
12837TIP3   OH238451   6.373   6.572   5.670
12837TIP3    H138452   6.399   6.619   5.749
12837TIP3    H238453   6.429   6.494   5.668
12838TIP3   OH238454   6.259   5.994   4.994
12838TIP3    H138455   6.206   6.071   5.013
12838TIP3    H238456   6.315   6.020   4.921
12839TIP3   OH238457   5.653   7.296   4.527
12839TIP3    H138458   5.637   7.361   4.458
12839TIP3    H238459   5.639   7.343   4.609
12840TIP3   OH238460   6.998   6.495   5.664
12840TIP3    H138461   6.902   6.488   5.666
12840TIP3    H238462   7.022   6.462   5.578
12841TIP3   OH238463   6.658   6.688   5.048
12841TIP3    H138464   6.585   6.625   5.050
12841TIP3    H238465   6.728   6.645   5.096
12842TIP3   OH238466   5.319   6.183   4.664
12842TIP3    H138467   5.318   6.279   4.660
12842TIP3    H238468   5.269   6.156   4.586
12843TIP3   OH238469   6.633   7.647   4.980
12843TIP3    H138470   6.589   7.698   4.912
12843TIP3    H238471   6.726   7.667   4.968
12844TIP3   OH238472   5.715   5.915   5.525
12844TIP3    H138473   5.690   5.889   5.436
12844TIP3    H238474   5.704   5.836   5.578
12845TIP3   OH238475   5.265   7.171   4.892
12845TIP3    H138476   5.199   7.167   4.961
12845TIP3    H238477   5.216   7.197   4.813
12846TIP3   OH238478   5.417   7.690   5.979
12846TIP3    H138479   5.498   7.695   6.031
12846TIP3    H238480   5.393   7.597   5.982
12847TIP3   OH238481   5.888   7.602   6.043
12847TIP3    H138482   5.974   7.626   6.009
12847TIP3    H238483   5.846   7.555   5.971
12848TIP3   OH238484   5.862   7.203   4.145
12848TIP3    H138485   5.823   7.131   4.194
12848TIP3    H238486   5.939   7.165   4.103
12849TIP3   OH238487   6.462   7.564   5.778
12849TIP3    H138488   6.477   7.497   5.844
12849TIP3    H238489   6.534   7.625   5.788
12850TIP3   OH238490   5.532   7.089   6.169
12850TIP3    H138491   5.548   6.995   6.177
12850TIP3    H238492   5.447   7.095   6.125
12851TIP3   OH238493   5.519   6.719   4.377
12851TIP3    H138494   5.565   6.680   4.452
12851TIP3    H238495   5.584   6.719   4.307
12852TIP3   OH238496   6.158   7.182   5.940
12852TIP3    H138497   6.103   7.201   5.864
12852TIP3    H238498   6.188   7.092   5.927
12853TIP3   OH238499   6.011   6.920   4.180
12853TIP3    H138500   6.033   6.936   4.272
12853TIP3    H238501   6.026   6.826   4.168
12854TIP3   OH238502   6.623   7.217   5.566
12854TIP3    H138503   6.700   7.242   5.515
12854TIP3    H238504   6.558   7.284   5.548
12855TIP3   OH238505   5.649   6.836   6.172
12855TIP3    H138506   5.724   6.798   6.127
12855TIP3    H238507   5.680   6.853   6.261
12856TIP3   OH238508   5.735   6.621   4.609
12856TIP3    H138509   5.732   6.553   4.676
12856TIP3    H238510   5.764   6.575   4.530
12857TIP3   OH238511   6.015   6.736   5.833
12857TIP3    H138512   5.925   6.769   5.836
12857TIP3    H238513   6.046   6.760   5.746
12858TIP3   OH238514   5.829   6.458   4.414
12858TIP3    H138515   5.803   6.455   4.322
12858TIP3    H238516   5.925   6.455   4.411
12859TIP3   OH238517   6.510   7.105   5.927
12859TIP3    H138518   6.575   7.067   5.867
12859TIP3    H238519   6.504   7.043   5.999
12860TIP3   OH238520   6.629   6.776   4.106
12860TIP3    H138521   6.614   6.736   4.021
12860TIP3    H238522   6.600   6.866   4.096
12861TIP3   OH238523   6.106   6.508   5.947
12861TIP3    H138524   6.065   6.439   5.895
12861TIP3    H238525   6.081   6.589   5.903
12862TIP3   OH238526   6.138   6.831   5.612
12862TIP3    H138527   6.226   6.856   5.583
12862TIP3    H238528   6.080   6.891   5.566
12863TIP3   OH238529   6.730   6.777   5.997
12863TIP3    H138530   6.760   6.686   5.993
12863TIP3    H238531   6.809   6.829   5.982
12864TIP3   OH238532   6.752   7.037   5.723
12864TIP3    H138533   6.699   7.099   5.672
12864TIP3    H238534   6.842   7.054   5.694
12865TIP3   OH238535   5.991   6.593   6.188
12865TIP3    H138536   5.923   6.529   6.210
12865TIP3    H238537   6.019   6.569   6.100
12866TIP3   OH238538   6.369   6.541   6.040
12866TIP3    H138539   6.363   6.529   6.135
12866TIP3    H238540   6.281   6.523   6.007
12867TIP3   OH238541   6.616   6.498   5.908
12867TIP3    H138542   6.539   6.496   5.964
12867TIP3    H238543   6.687   6.468   5.965
12868TIP3   OH238544   6.849   6.452   6.054
12868TIP3    H138545   6.867   6.358   6.059
12868TIP3    H238546   6.842   6.480   6.145
12869TIP3   OH238547   5.837   6.362   6.242
12869TIP3    H138548   5.838   6.273   6.208
12869TIP3    H238549   5.872   6.355   6.331
12870TIP3   OH238550   6.347   6.061   6.011
12870TIP3    H138551   6.416   5.997   6.028
12870TIP3    H238552   6.266   6.010   6.015
12871TIP3   OH238553   6.392   6.258   6.211
12871TIP3    H138554   6.372   6.204   6.134
12871TIP3    H238555   6.318   6.318   6.218
12872TIP3   OH238556   5.663   7.498   4.340
12872TIP3    H138557   5.754   7.483   4.315
12872TIP3    H238558   5.624   7.544   4.266
12873TIP3   OH238559   5.108   6.882   4.483
12873TIP3    H138560   5.193   6.886   4.526
12873TIP3    H238561   5.098   6.790   4.458
12874TIP3   OH238562   5.026   7.475   4.988
12874TIP3    H138563   4.963   7.421   4.941
12874TIP3    H238564   5.072   7.414   5.045
12875TIP3   OH238565   5.155   7.313   5.169
12875TIP3    H138566   5.157   7.237   5.228
12875TIP3    H238567   5.195   7.384   5.221
12876TIP3   OH238568   6.893   7.726   4.965
12876TIP3    H138569   6.914   7.757   5.053
12876TIP3    H238570   6.968   7.753   4.911
12877TIP3   OH238571   6.915   7.742   5.242
12877TIP3    H138572   6.874   7.656   5.234
12877TIP3    H238573   6.988   7.728   5.303
12878TIP3   OH238574   6.953   7.430   5.808
12878TIP3    H138575   6.875   7.457   5.855
12878TIP3    H238576   6.952   7.480   5.727
12879TIP3   OH238577   6.791   6.954   4.443
12879TIP3    H138578   6.852   7.020   4.409
12879TIP3    H238579   6.840   6.913   4.515
12880TIP3   OH238580   6.926   6.812   4.637
12880TIP3    H138581   6.860   6.775   4.695
12880TIP3    H238582   6.992   6.849   4.697
12881TIP3   OH238583   6.968   7.203   5.064
12881TIP3    H138584   7.025   7.135   5.026
12881TIP3    H238585   6.974   7.276   5.002
12882TIP3   OH238586   6.782   7.497   5.250
12882TIP3    H138587   6.715   7.544   5.299
12882TIP3    H238588   6.734   7.456   5.178
12883TIP3   OH238589   6.838   6.735   4.281
12883TIP3    H138590   6.768   6.738   4.216
12883TIP3    H238591   6.821   6.811   4.337
12884TIP3   OH238592   6.699   6.386   4.225
12884TIP3    H138593   6.653   6.425   4.150
12884TIP3    H238594   6.686   6.292   4.214
12885TIP3   OH238595   6.722   6.676   4.775
12885TIP3    H138596   6.730   6.582   4.761
12885TIP3    H238597   6.707   6.685   4.869
12886TIP3   OH238598   5.350   6.750   5.535
12886TIP3    H138599   5.337   6.711   5.449
12886TIP3    H238600   5.444   6.745   5.550
12887TIP3   OH238601   7.010   7.097   5.637
12887TIP3    H138602   7.077   7.030   5.627
12887TIP3    H238603   7.041   7.170   5.583
12888TIP3   OH238604   7.186   6.891   5.657
12888TIP3    H138605   7.109   6.848   5.695
12888TIP3    H238606   7.254   6.824   5.660
12889TIP3   OH238607   6.653   6.117   4.202
12889TIP3    H138608   6.719   6.086   4.264
12889TIP3    H238609   6.573   6.074   4.229
12890TIP3   OH238610   6.723   6.399   4.657
12890TIP3    H138611   6.767   6.315   4.671
12890TIP3    H238612   6.767   6.437   4.582
12891TIP3   OH238613   6.876   6.566   5.177
12891TIP3    H138614   6.957   6.585   5.129
12891TIP3    H238615   6.892   6.602   5.264
12892TIP3   OH238616   6.948   6.710   5.409
12892TIP3    H138617   6.873   6.742   5.459
12892TIP3    H238618   6.981   6.787   5.363
12893TIP3   OH238619   5.572   6.433   6.211
12893TIP3    H138620   5.667   6.424   6.217
12893TIP3    H238621   5.538   6.349   6.241
12894TIP3   OH238622   7.424   6.304   5.927
12894TIP3    H138623   7.494   6.257   5.882
12894TIP3    H238624   7.380   6.354   5.858
12895TIP3   OH238625   6.835   6.147   4.711
12895TIP3    H138626   6.879   6.130   4.794
12895TIP3    H238627   6.772   6.076   4.702
12896TIP3   OH238628   5.560   6.125   5.617
12896TIP3    H138629   5.609   6.048   5.588
12896TIP3    H238630   5.581   6.193   5.553
12897TIP3   OH238631   5.313   6.380   5.590
12897TIP3    H138632   5.275   6.320   5.526
12897TIP3    H238633   5.385   6.423   5.543
12898TIP3   OH238634   7.251   6.428   5.755
12898TIP3    H138635   7.166   6.471   5.763
12898TIP3    H238636   7.234   6.351   5.702
12899TIP3   OH238637   6.889   6.065   4.350
12899TIP3    H138638   6.933   6.003   4.291
12899TIP3    H238639   6.946   6.142   4.349
12900TIP3   OH238640   5.301   5.864   5.088
12900TIP3    H138641   5.217   5.865   5.135
12900TIP3    H238642   5.295   5.939   5.028
12901TIP3   OH238643   6.469   7.611   4.608
12901TIP3    H138644   6.524   7.594   4.531
12901TIP3    H238645   6.515   7.681   4.655
12902TIP3   OH238646   5.548   5.967   5.924
12902TIP3    H138647   5.491   5.961   6.001
12902TIP3    H238648   5.495   6.012   5.858
12903TIP3   OH238649   5.569   7.413   6.011
12903TIP3    H138650   5.478   7.397   5.985
12903TIP3    H238651   5.571   7.391   6.104
12904TIP3   OH238652   5.746   7.475   5.552
12904TIP3    H138653   5.681   7.538   5.523
12904TIP3    H238654   5.825   7.496   5.501
12905TIP3   OH238655   6.218   7.671   5.694
12905TIP3    H138656   6.296   7.638   5.739
12905TIP3    H238657   6.251   7.739   5.636
12906TIP3   OH238658   6.351   7.850   5.534
12906TIP3    H138659   6.401   7.802   5.468
12906TIP3    H238660   6.417   7.887   5.592
12907TIP3   OH238661   7.158   6.196   5.639
12907TIP3    H138662   7.073   6.198   5.594
12907TIP3    H238663   7.190   6.107   5.626
12908TIP3   OH238664   6.083   7.709   5.231
12908TIP3    H138665   6.022   7.716   5.158
12908TIP3    H238666   6.092   7.799   5.263
12909TIP3   OH238667   6.341   7.642   5.299
12909TIP3    H138668   6.251   7.660   5.271
12909TIP3    H238669   6.395   7.698   5.244
12910TIP3   OH238670   6.532   7.802   5.185
12910TIP3    H138671   6.519   7.891   5.152
12910TIP3    H238672   6.567   7.754   5.110
12911TIP3   OH238673   5.557   7.347   5.139
12911TIP3    H138674   5.557   7.280   5.207
12911TIP3    H238675   5.634   7.401   5.158
12912TIP3   OH238676   5.814   7.459   5.184
12912TIP3    H138677   5.839   7.367   5.173
12912TIP3    H238678   5.857   7.486   5.265
12913TIP3   OH238679   6.411   6.113   5.270
12913TIP3    H138680   6.332   6.078   5.230
12913TIP3    H238681   6.483   6.072   5.221
12914TIP3   OH238682   6.889   6.026   5.180
12914TIP3    H138683   6.924   6.067   5.101
12914TIP3    H238684   6.794   6.024   5.166
12915TIP3   OH238685   6.993   6.089   4.934
12915TIP3    H138686   7.062   6.031   4.901
12915TIP3    H238687   7.028   6.177   4.922
12916TIP3   OH238688   5.631   5.813   5.276
12916TIP3    H138689   5.539   5.789   5.283
12916TIP3    H238690   5.677   5.729   5.269
12917TIP3   OH238691   5.433   5.692   4.911
12917TIP3    H138692   5.464   5.748   4.841
12917TIP3    H238693   5.391   5.751   4.974
12918TIP3   OH238694   6.075   5.853   5.158
12918TIP3    H138695   6.142   5.889   5.099
12918TIP3    H238696   6.002   5.914   5.150
12919TIP3   OH238697   6.616   5.987   5.140
12919TIP3    H138698   6.606   5.952   5.052
12919TIP3    H238699   6.611   5.910   5.197
12920TIP3   OH238700   6.650   5.936   4.712
12920TIP3    H138701   6.570   5.983   4.734
12920TIP3    H238702   6.637   5.849   4.749
12921TIP3   OH238703   5.120   7.275   4.682
12921TIP3    H138704   5.035   7.242   4.655
12921TIP3    H238705   5.120   7.367   4.656
12922TIP3   OH238706   5.549   5.833   4.683
12922TIP3    H138707   5.583   5.768   4.622
12922TIP3    H238708   5.626   5.886   4.706
12923TIP3   OH238709   5.928   7.430   4.284
12923TIP3    H138710   6.013   7.454   4.249
12923TIP3    H238711   5.897   7.359   4.228
12924TIP3   OH238712   6.623   7.559   4.383
12924TIP3    H138713   6.617   7.468   4.352
12924TIP3    H238714   6.586   7.611   4.312
12925TIP3   OH238715   5.847   6.087   6.167
12925TIP3    H138716   5.805   6.020   6.221
12925TIP3    H238717   5.937   6.092   6.199
12926TIP3   OH238718   6.089   6.089   6.306
12926TIP3    H138719   6.183   6.072   6.299
12926TIP3    H238720   6.058   6.024   6.369
12927TIP3   OH238721   5.216   7.284   4.342
12927TIP3    H138722   5.215   7.292   4.438
12927TIP3    H238723   5.296   7.234   4.323
12928TIP3   OH238724   6.920   6.184   6.057
12928TIP3    H138725   6.930   6.152   6.147
12928TIP3    H238726   7.007   6.175   6.019
12929TIP3   OH238727   6.822   7.713   5.577
12929TIP3    H138728   6.753   7.682   5.517
12929TIP3    H238729   6.825   7.808   5.563
12930TIP3   OH238730   8.112   7.085   4.335
12930TIP3    H138731   8.087   7.168   4.295
12930TIP3    H238732   8.044   7.024   4.307
12931TIP3   OH238733   8.079   7.089   4.711
12931TIP3    H138734   8.117   7.070   4.797
12931TIP3    H238735   8.042   7.006   4.682
12932TIP3   OH238736   7.408   6.954   5.088
12932TIP3    H138737   7.443   6.901   5.160
12932TIP3    H238738   7.484   6.985   5.040
12933TIP3   OH238739   8.333   7.381   4.407
12933TIP3    H138740   8.318   7.294   4.445
12933TIP3    H238741   8.383   7.427   4.474
12934TIP3   OH238742   7.323   7.344   4.852
12934TIP3    H138743   7.331   7.257   4.813
12934TIP3    H238744   7.397   7.351   4.911
12935TIP3   OH238745   7.083   6.587   4.564
12935TIP3    H138746   7.044   6.672   4.587
12935TIP3    H238747   7.012   6.539   4.521
12936TIP3   OH238748   7.157   6.894   4.776
12936TIP3    H138749   7.206   6.816   4.801
12936TIP3    H238750   7.224   6.957   4.749
12937TIP3   OH238751   7.909   7.698   4.438
12937TIP3    H138752   7.964   7.746   4.376
12937TIP3    H238753   7.893   7.760   4.509
12938TIP3   OH238754   7.915   7.309   4.746
12938TIP3    H138755   7.957   7.228   4.718
12938TIP3    H238756   7.987   7.372   4.754
12939TIP3   OH238757   0.273   6.693   4.808
12939TIP3    H138758   0.340   6.742   4.856
12939TIP3    H238759   0.317   6.664   4.728
12940TIP3   OH238760   8.319   6.816   4.786
12940TIP3    H138761   8.363   6.735   4.811
12940TIP3    H238762   8.282   6.797   4.700
12941TIP3   OH238763   7.675   6.467   4.742
12941TIP3    H138764   7.654   6.540   4.685
12941TIP3    H238765   7.622   6.394   4.709
12942TIP3   OH238766   8.373   6.571   4.369
12942TIP3    H138767   8.440   6.560   4.436
12942TIP3    H238768   8.423   6.584   4.288
12943TIP3   OH238769   7.297   6.673   4.867
12943TIP3    H138770   7.380   6.657   4.912
12943TIP3    H238771   7.303   6.623   4.786
12944TIP3   OH238772   7.724   6.875   4.677
12944TIP3    H138773   7.818   6.856   4.683
12944TIP3    H238774   7.685   6.795   4.643
12945TIP3   OH238775   7.665   6.467   5.192
12945TIP3    H138776   7.611   6.501   5.120
12945TIP3    H238777   7.611   6.479   5.270
12946TIP3   OH238778   8.021   7.280   4.167
12946TIP3    H138779   7.975   7.256   4.086
12946TIP3    H238780   7.976   7.359   4.198
12947TIP3   OH238781   7.760   7.227   4.966
12947TIP3    H138782   7.685   7.281   4.992
12947TIP3    H238783   7.800   7.276   4.894
12948TIP3   OH238784   8.548   6.583   4.574
12948TIP3    H138785   8.533   6.536   4.656
12948TIP3    H238786   8.596   6.662   4.600
12949TIP3   OH238787   7.540   6.569   4.965
12949TIP3    H138788   7.594   6.645   4.988
12949TIP3    H238789   7.588   6.528   4.892
12950TIP3   OH238790   7.529   7.372   5.042
12950TIP3    H138791   7.552   7.464   5.032
12950TIP3    H238792   7.475   7.369   5.121
12951TIP3   OH238793   6.972   7.129   4.327
12951TIP3    H138794   6.937   7.133   4.238
12951TIP3    H238795   6.994   7.219   4.348
12952TIP3   OH238796   0.079   6.522   4.932
12952TIP3    H138797  -0.006   6.539   4.891
12952TIP3    H238798   0.140   6.579   4.885
12953TIP3   OH238799   7.998   6.163   4.911
12953TIP3    H138800   7.987   6.071   4.933
12953TIP3    H238801   7.922   6.206   4.951
12954TIP3   OH238802   8.264   7.645   4.347
12954TIP3    H138803   8.262   7.549   4.352
12954TIP3    H238804   8.289   7.664   4.256
12955TIP3   OH238805   8.301   7.436   4.134
12955TIP3    H138806   8.293   7.362   4.075
12955TIP3    H238807   8.321   7.398   4.219
12956TIP3   OH238808   7.944   6.931   4.173
12956TIP3    H138809   7.860   6.972   4.156
12956TIP3    H238810   7.988   6.929   4.088
12957TIP3   OH238811   7.902   6.739   3.868
12957TIP3    H138812   7.969   6.788   3.916
12957TIP3    H238813   7.951   6.671   3.821
12958TIP3   OH238814   8.285   7.026   4.130
12958TIP3    H138815   8.234   7.048   4.208
12958TIP3    H238816   8.366   6.987   4.164
12959TIP3   OH238817   7.523   7.012   4.535
12959TIP3    H138818   7.486   6.954   4.469
12959TIP3    H238819   7.597   6.963   4.572
12960TIP3   OH238820   7.660   7.422   4.740
12960TIP3    H138821   7.593   7.385   4.683
12960TIP3    H238822   7.739   7.371   4.721
12961TIP3   OH238823   7.622   6.999   4.903
12961TIP3    H138824   7.660   6.965   4.823
12961TIP3    H238825   7.675   7.076   4.924
12962TIP3   OH238826   8.123   6.884   3.961
12962TIP3    H138827   8.182   6.940   4.012
12962TIP3    H238828   8.153   6.893   3.870
12963TIP3   OH238829   7.555   7.110   5.327
12963TIP3    H138830   7.551   7.191   5.377
12963TIP3    H238831   7.465   7.078   5.325
12964TIP3   OH238832   7.896   7.516   4.231
12964TIP3    H138833   7.907   7.560   4.315
12964TIP3    H238834   7.802   7.521   4.215
12965TIP3   OH238835   7.397   6.856   4.335
12965TIP3    H138836   7.321   6.903   4.300
12965TIP3    H238837   7.364   6.767   4.352
12966TIP3   OH238838   7.162   7.248   5.264
12966TIP3    H138839   7.097   7.225   5.198
12966TIP3    H238840   7.204   7.164   5.286
12967TIP3   OH238841   7.045   7.419   4.905
12967TIP3    H138842   7.138   7.401   4.894
12967TIP3    H238843   7.042   7.499   4.959
12968TIP3   OH238844   7.801   7.792   4.031
12968TIP3    H138845   7.832   7.723   3.972
12968TIP3    H238846   7.760   7.856   3.973
12969TIP3   OH238847   7.182   7.614   4.432
12969TIP3    H138848   7.197   7.605   4.526
12969TIP3    H238849   7.129   7.538   4.409
12970TIP3   OH238850   7.943   7.703   3.633
12970TIP3    H138851   7.971   7.614   3.613
12970TIP3    H238852   7.984   7.723   3.717
12971TIP3   OH238853   8.048   7.796   3.875
12971TIP3    H138854   8.004   7.862   3.928
12971TIP3    H238855   8.076   7.730   3.938
12972TIP3   OH238856   7.354   7.439   5.250
12972TIP3    H138857   7.385   7.435   5.340
12972TIP3    H238858   7.283   7.375   5.246
12973TIP3   OH238859   7.767   6.252   5.044
12973TIP3    H138860   7.682   6.220   5.013
12973TIP3    H238861   7.746   6.331   5.093
12974TIP3   OH238862   8.295   6.368   5.243
12974TIP3    H138863   8.367   6.336   5.298
12974TIP3    H238864   8.216   6.349   5.293
12975TIP3   OH238865   8.211   6.899   3.706
12975TIP3    H138866   8.169   6.883   3.622
12975TIP3    H238867   8.294   6.942   3.684
12976TIP3   OH238868   7.918   6.291   4.017
12976TIP3    H138869   7.883   6.297   4.106
12976TIP3    H238870   7.880   6.210   3.982
12977TIP3   OH238871   7.698   6.777   5.049
12977TIP3    H138872   7.668   6.793   5.138
12977TIP3    H238873   7.676   6.857   5.002
12978TIP3   OH238874   7.581   6.663   4.575
12978TIP3    H138875   7.492   6.637   4.599
12978TIP3    H238876   7.592   6.628   4.486
12979TIP3   OH238877   8.071   6.731   4.307
12979TIP3    H138878   8.022   6.801   4.263
12979TIP3    H238879   8.130   6.697   4.239
12980TIP3   OH238880   8.227   6.747   4.534
12980TIP3    H138881   8.161   6.770   4.469
12980TIP3    H238882   8.276   6.675   4.496
12981TIP3   OH238883   7.532   6.788   5.282
12981TIP3    H138884   7.584   6.840   5.344
12981TIP3    H238885   7.517   6.705   5.327
12982TIP3   OH238886   7.577   6.276   3.988
12982TIP3    H138887   7.567   6.278   4.083
12982TIP3    H238888   7.499   6.321   3.955
12983TIP3   OH238889   7.121   6.315   4.862
12983TIP3    H138890   7.194   6.352   4.911
12983TIP3    H238891   7.157   6.299   4.774
12984TIP3   OH238892   7.046   6.298   4.361
12984TIP3    H138893   7.091   6.333   4.285
12984TIP3    H238894   6.982   6.366   4.384
12985TIP3   OH238895   8.183   6.995   4.947
12985TIP3    H138896   8.241   6.945   4.890
12985TIP3    H238897   8.181   6.946   5.029
12986TIP3   OH238898   7.942   6.456   4.632
12986TIP3    H138899   7.863   6.458   4.686
12986TIP3    H238900   8.014   6.455   4.694
12987TIP3   OH238901   7.345   6.535   4.635
12987TIP3    H138902   7.256   6.539   4.599
12987TIP3    H238903   7.374   6.446   4.616
12988TIP3   OH238904   7.597   6.537   4.331
12988TIP3    H138905   7.692   6.548   4.320
12988TIP3    H238906   7.560   6.556   4.245
12989TIP3   OH238907   8.402   6.555   4.850
12989TIP3    H138908   8.371   6.572   4.939
12989TIP3    H238909   8.336   6.495   4.814
12990TIP3   OH238910   7.476   6.564   4.087
12990TIP3    H138911   7.410   6.516   4.036
12990TIP3    H238912   7.530   6.607   4.021
12991TIP3   OH238913   7.993   6.811   4.721
12991TIP3    H138914   8.063   6.766   4.673
12991TIP3    H238915   7.995   6.772   4.808
12992TIP3   OH238916   7.494   6.290   4.619
12992TIP3    H138917   7.464   6.214   4.669
12992TIP3    H238918   7.522   6.253   4.535
12993TIP3   OH238919   7.965   6.715   4.994
12993TIP3    H138920   7.876   6.744   5.013
12993TIP3    H238921   8.021   6.771   5.048
12994TIP3   OH238922   7.707   7.058   4.118
12994TIP3    H138923   7.627   7.011   4.095
12994TIP3    H238924   7.685   7.103   4.200
12995TIP3   OH238925   8.137   6.437   3.945
12995TIP3    H138926   8.060   6.394   3.981
12995TIP3    H238927   8.160   6.503   4.010
12996TIP3   OH238928   8.234   6.656   4.091
12996TIP3    H138929   8.329   6.651   4.090
12996TIP3    H238930   8.213   6.731   4.034
12997TIP3   OH238931   7.382   7.079   4.765
12997TIP3    H138932   7.422   7.071   4.678
12997TIP3    H238933   7.451   7.049   4.825
12998TIP3   OH238934   7.847   7.221   3.956
12998TIP3    H138935   7.785   7.294   3.951
12998TIP3    H238936   7.803   7.155   4.009
12999TIP3   OH238937   7.285   7.031   5.390
12999TIP3    H138938   7.323   7.016   5.476
12999TIP3    H238939   7.215   6.967   5.383
13000TIP3   OH238940   0.034   6.724   3.905
13000TIP3    H138941  -0.021   6.686   3.837
13000TIP3    H238942   0.043   6.816   3.880
13001TIP3   OH238943   8.327   7.176   4.590
13001TIP3    H138944   8.242   7.147   4.622
13001TIP3    H238945   8.373   7.096   4.567
13002TIP3   OH238946   7.474   7.378   4.535
13002TIP3    H138947   7.548   7.428   4.499
13002TIP3    H238948   7.426   7.348   4.458
13003TIP3   OH238949   7.074   6.724   4.136
13003TIP3    H138950   7.118   6.806   4.156
13003TIP3    H238951   6.993   6.726   4.187
13004TIP3   OH238952   7.636   7.184   4.346
13004TIP3    H138953   7.608   7.275   4.357
13004TIP3    H238954   7.598   7.137   4.420
13005TIP3   OH238955   7.308   7.648   4.192
13005TIP3    H138956   7.249   7.645   4.267
13005TIP3    H238957   7.352   7.733   4.199
13006TIP3   OH238958   8.141   7.227   3.704
13006TIP3    H138959   8.176   7.208   3.791
13006TIP3    H238960   8.050   7.196   3.707
13007TIP3   OH238961   7.492   6.531   5.404
13007TIP3    H138962   7.396   6.531   5.407
13007TIP3    H238963   7.518   6.468   5.471
13008TIP3   OH238964   8.291   7.228   3.943
13008TIP3    H138965   8.278   7.158   4.007
13008TIP3    H238966   8.385   7.225   3.924
13009TIP3   OH238967   7.231   7.632   5.064
13009TIP3    H138968   7.275   7.573   5.125
13009TIP3    H238969   7.237   7.719   5.105
13010TIP3   OH238970   7.479   7.252   3.742
13010TIP3    H138971   7.495   7.162   3.714
13010TIP3    H238972   7.465   7.246   3.836
13011TIP3   OH238973   7.411   7.283   4.010
13011TIP3    H138974   7.473   7.266   4.081
13011TIP3    H238975   7.411   7.378   4.000
13012TIP3   OH238976   7.176   6.972   4.217
13012TIP3    H138977   7.109   7.015   4.271
13012TIP3    H238978   7.187   7.029   4.141
13013TIP3   OH238979   8.345   6.610   5.122
13013TIP3    H138980   8.437   6.618   5.147
13013TIP3    H238981   8.317   6.527   5.160
13014TIP3   OH238982   8.191   6.374   4.286
13014TIP3    H138983   8.227   6.351   4.200
13014TIP3    H238984   8.247   6.446   4.316
13015TIP3   OH238985   7.663   7.418   3.948
13015TIP3    H138986   7.582   7.468   3.938
13015TIP3    H238987   7.733   7.479   3.925
13016TIP3   OH238988   7.876   6.547   4.374
13016TIP3    H138989   7.943   6.609   4.347
13016TIP3    H238990   7.898   6.527   4.465
13017TIP3   OH238991   8.165   6.824   5.160
13017TIP3    H138992   8.155   6.836   5.254
13017TIP3    H238993   8.226   6.751   5.151
13018TIP3   OH238994   8.032   6.248   4.467
13018TIP3    H138995   8.006   6.322   4.521
13018TIP3    H238996   8.093   6.284   4.403
13019TIP3   OH238997   7.435   7.567   3.971
13019TIP3    H138998   7.423   7.638   3.907
13019TIP3    H238999   7.373   7.589   4.041
13020TIP3   OH239000   7.552   6.265   4.267
13020TIP3    H139001   7.541   6.356   4.296
13020TIP3    H239002   7.646   6.250   4.271
13021TIP3   OH239003   8.447   6.928   4.520
13021TIP3    H139004   8.372   6.871   4.534
13021TIP3    H239005   8.513   6.895   4.581
13022TIP3   OH239006   7.180   7.142   3.993
13022TIP3    H139007   7.249   7.207   4.005
13022TIP3    H239008   7.216   7.079   3.930
13023TIP3   OH239009   7.108   6.447   4.140
13023TIP3    H139010   7.116   6.543   4.145
13023TIP3    H239011   7.050   6.432   4.066
13024TIP3   OH239012   7.503   6.170   5.004
13024TIP3    H139013   7.474   6.136   4.919
13024TIP3    H239014   7.493   6.095   5.063
13025TIP3   OH239015   7.008   7.406   4.380
13025TIP3    H139016   6.941   7.426   4.446
13025TIP3    H239017   6.971   7.439   4.298
13026TIP3   OH239018   7.638   7.446   3.634
13026TIP3    H139019   7.588   7.379   3.680
13026TIP3    H239020   7.708   7.399   3.589
13027TIP3   OH239021   8.069   7.461   3.526
13027TIP3    H139022   8.091   7.426   3.612
13027TIP3    H239023   8.135   7.424   3.467
13028TIP3   OH239024   7.383   7.306   5.523
13028TIP3    H139025   7.410   7.223   5.562
13028TIP3    H239026   7.294   7.320   5.554
13029TIP3   OH239027   7.320   6.957   3.853
13029TIP3    H139028   7.370   6.935   3.931
13029TIP3    H239029   7.386   6.967   3.784
13030TIP3   OH239030   7.868   7.169   3.688
13030TIP3    H139031   7.851   7.183   3.782
13030TIP3    H239032   7.854   7.075   3.675
13031TIP3   OH239033   7.462   7.046   5.617
13031TIP3    H139034   7.539   6.995   5.591
13031TIP3    H239035   7.441   7.015   5.705
13032TIP3   OH239036   7.490   6.896   4.065
13032TIP3    H139037   7.469   6.865   4.153
13032TIP3    H239038   7.537   6.823   4.025
13033TIP3   OH239039   7.779   6.949   5.285
13033TIP3    H139040   7.710   7.014   5.298
13033TIP3    H239041   7.838   6.989   5.221
13034TIP3   OH239042   7.628   6.709   3.912
13034TIP3    H139043   7.601   6.713   3.820
13034TIP3    H239044   7.724   6.715   3.908
13035TIP3   OH239045   8.428   7.025   3.585
13035TIP3    H139046   8.416   6.980   3.502
13035TIP3    H239047   8.413   7.118   3.566
13036TIP3   OH239048   7.882   6.743   5.430
13036TIP3    H139049   7.905   6.670   5.372
13036TIP3    H239050   7.856   6.814   5.371
13037TIP3   OH239051   7.927   6.540   5.229
13037TIP3    H139052   7.952   6.580   5.145
13037TIP3    H239053   7.835   6.516   5.218
13038TIP3   OH239054   7.937   7.057   5.090
13038TIP3    H139055   8.018   7.056   5.037
13038TIP3    H239056   7.882   7.124   5.049
13039TIP3   OH239057   7.664   6.852   5.581
13039TIP3    H139058   7.650   6.774   5.635
13039TIP3    H239059   7.748   6.836   5.537
13040TIP3   OH239060   8.044   6.312   5.351
13040TIP3    H139061   8.005   6.392   5.316
13040TIP3    H239062   7.980   6.243   5.329
13041TIP3   OH239063   7.611   6.623   5.733
13041TIP3    H139064   7.615   6.536   5.693
13041TIP3    H239065   7.656   6.612   5.817
13042TIP3   OH239066   8.097   6.231   5.621
13042TIP3    H139067   8.187   6.200   5.606
13042TIP3    H239068   8.069   6.265   5.536
13043TIP3   OH239069   7.449   7.799   3.823
13043TIP3    H139070   7.531   7.766   3.787
13043TIP3    H239071   7.403   7.835   3.747
13044TIP3   OH239072   6.919   7.111   4.058
13044TIP3    H139073   7.008   7.130   4.031
13044TIP3    H239074   6.893   7.037   4.004
13045TIP3   OH239075   6.817   7.726   4.472
13045TIP3    H139076   6.752   7.668   4.433
13045TIP3    H239077   6.861   7.673   4.538
13046TIP3   OH239078   6.946   7.567   4.658
13046TIP3    H139079   6.932   7.487   4.710
13046TIP3    H239080   6.994   7.625   4.716
13047TIP3   OH239081  -0.032   7.214   3.930
13047TIP3    H139082   0.033   7.282   3.909
13047TIP3    H239083   0.003   7.173   4.009
13048TIP3   OH239084   0.077   7.089   4.148
13048TIP3    H139085   0.014   7.026   4.182
13048TIP3    H239086   0.162   7.059   4.181
13049TIP3   OH239087   8.607   6.973   3.793
13049TIP3    H139088   8.555   6.980   3.713
13049TIP3    H239089   8.597   7.057   3.837
13050TIP3   OH239090   8.485   6.612   3.702
13050TIP3    H139091   8.435   6.615   3.621
13050TIP3    H239092   8.496   6.518   3.721
13051TIP3   OH239093   8.501   6.901   4.250
13051TIP3    H139094   8.515   6.807   4.239
13051TIP3    H239095   8.486   6.912   4.344
13052TIP3   OH239096   7.145   6.994   5.031
13052TIP3    H139097   7.137   6.961   4.941
13052TIP3    H239098   7.239   6.990   5.049
13053TIP3   OH239099   8.493   6.339   3.734
13053TIP3    H139100   8.536   6.311   3.814
13053TIP3    H239101   8.404   6.304   3.741
13054TIP3   OH239102   8.521   6.611   4.131
13054TIP3    H139103   8.547   6.520   4.118
13054TIP3    H239104   8.565   6.659   4.061
13055TIP3   OH239105   0.076   6.818   4.649
13055TIP3    H139106   0.140   6.851   4.586
13055TIP3    H239107   0.127   6.794   4.726
13056TIP3   OH239108   7.348   6.671   5.666
13056TIP3    H139109   7.443   6.674   5.680
13056TIP3    H239110   7.321   6.588   5.705
13057TIP3   OH239111   7.331   6.387   5.033
13057TIP3    H139112   7.387   6.309   5.034
13057TIP3    H239113   7.390   6.459   5.015
13058TIP3   OH239114   7.119   6.658   5.084
13058TIP3    H139115   7.169   6.646   5.003
13058TIP3    H239116   7.150   6.741   5.120
13059TIP3   OH239117   7.107   6.164   4.591
13059TIP3    H139118   7.019   6.151   4.627
13059TIP3    H239119   7.093   6.218   4.513
13060TIP3   OH239120   7.330   6.240   5.413
13060TIP3    H139121   7.280   6.227   5.494
13060TIP3    H239122   7.267   6.278   5.351
13061TIP3   OH239123   7.584   7.637   5.000
13061TIP3    H139124   7.515   7.680   4.948
13061TIP3    H239125   7.653   7.618   4.938
13062TIP3   OH239126   7.229   7.921   5.104
13062TIP3    H139127   7.143   7.946   5.070
13062TIP3    H239128   7.255   7.994   5.160
13063TIP3   OH239129   7.476   7.952   4.981
13063TIP3    H139130   7.390   7.945   5.021
13063TIP3    H239131   7.469   7.905   4.898
13064TIP3   OH239132   7.134   7.706   4.819
13064TIP3    H139133   7.165   7.691   4.908
13064TIP3    H239134   7.194   7.656   4.764
13065TIP3   OH239135   7.313   7.551   4.676
13065TIP3    H139136   7.305   7.482   4.741
13065TIP3    H239137   7.370   7.514   4.609
13066TIP3   OH239138   7.719   7.685   4.706
13066TIP3    H139139   7.708   7.590   4.696
13066TIP3    H239140   7.634   7.716   4.736
13067TIP3   OH239141   8.185   6.372   4.768
13067TIP3    H139142   8.138   6.298   4.806
13067TIP3    H239143   8.251   6.331   4.712
13068TIP3   OH239144   0.079   6.278   4.689
13068TIP3    H139145   0.114   6.319   4.610
13068TIP3    H239146  -0.016   6.276   4.676
13069TIP3   OH239147   0.197   6.344   4.450
13069TIP3    H139148   0.270   6.282   4.448
13069TIP3    H239149   0.234   6.426   4.417
13070TIP3   OH239150   7.415   6.064   4.764
13070TIP3    H139151   7.325   6.033   4.769
13070TIP3    H239152   7.468   5.985   4.755
13071TIP3   OH239153   7.236   5.968   4.421
13071TIP3    H139154   7.259   6.017   4.342
13071TIP3    H239155   7.198   6.034   4.480
13072TIP3   OH239156   7.882   6.102   4.655
13072TIP3    H139157   7.929   6.147   4.585
13072TIP3    H239158   7.924   6.134   4.736
13073TIP3   OH239159   8.399   6.248   4.638
13073TIP3    H139160   8.415   6.216   4.549
13073TIP3    H239161   8.395   6.169   4.691
13074TIP3   OH239162   6.894   7.516   4.158
13074TIP3    H139163   6.811   7.475   4.131
13074TIP3    H239164   6.889   7.605   4.124
13075TIP3   OH239165   7.339   6.099   4.181
13075TIP3    H139166   7.384   6.038   4.122
13075TIP3    H239167   7.409   6.155   4.215
13076TIP3   OH239168   7.826   6.295   4.278
13076TIP3    H139169   7.887   6.243   4.332
13076TIP3    H239170   7.843   6.385   4.303
13077TIP3   OH239171   7.680   7.704   3.711
13077TIP3    H139172   7.771   7.707   3.679
13077TIP3    H239173   7.651   7.615   3.690
13078TIP3   OH239174   7.626   6.355   5.660
13078TIP3    H139175   7.605   6.262   5.650
13078TIP3    H239176   7.717   6.356   5.687
13079TIP3   OH239177   7.879   6.357   5.779
13079TIP3    H139178   7.955   6.329   5.729
13079TIP3    H239179   7.872   6.294   5.850
13080TIP3   OH239180   7.008   7.532   3.825
13080TIP3    H139181   7.002   7.540   3.921
13080TIP3    H239182   7.091   7.487   3.810
13081TIP3   OH239183   0.313   6.587   4.329
13081TIP3    H139184   0.377   6.569   4.260
13081TIP3    H239185   0.244   6.636   4.286
13082TIP3   OH239186   1.403   7.427   6.432
13082TIP3    H139187   1.425   7.507   6.479
13082TIP3    H239188   1.435   7.440   6.343
13083TIP3   OH239189   0.821   7.328   6.076
13083TIP3    H139190   0.879   7.343   6.151
13083TIP3    H239191   0.864   7.372   6.003
13084TIP3   OH239192   1.465   7.634   6.608
13084TIP3    H139193   1.378   7.675   6.602
13084TIP3    H239194   1.504   7.673   6.687
13085TIP3   OH239195   1.012   7.376   6.275
13085TIP3    H139196   1.077   7.309   6.254
13085TIP3    H239197   1.063   7.455   6.295
13086TIP3   OH239198   1.181   7.357   6.588
13086TIP3    H139199   1.106   7.370   6.529
13086TIP3    H239200   1.258   7.373   6.533
13087TIP3   OH239201   1.275   7.983   6.432
13087TIP3    H139202   1.257   8.072   6.464
13087TIP3    H239203   1.307   7.996   6.343
13088TIP3   OH239204   1.111   6.905   5.703
13088TIP3    H139205   1.029   6.920   5.751
13088TIP3    H239206   1.121   6.984   5.649
13089TIP3   OH239207   1.115   7.530   5.595
13089TIP3    H139208   1.060   7.483   5.533
13089TIP3    H239209   1.112   7.621   5.566
13090TIP3   OH239210   1.243   7.501   6.835
13090TIP3    H139211   1.166   7.559   6.836
13090TIP3    H239212   1.234   7.451   6.754
13091TIP3   OH239213   0.911   7.690   6.223
13091TIP3    H139214   0.851   7.619   6.244
13091TIP3    H239215   0.991   7.668   6.270
13092TIP3   OH239216   0.888   7.806   5.271
13092TIP3    H139217   0.838   7.758   5.204
13092TIP3    H239218   0.967   7.835   5.227
13093TIP3   OH239219   1.025   7.987   5.625
13093TIP3    H139220   1.095   8.041   5.587
13093TIP3    H239221   1.065   7.946   5.701
13094TIP3   OH239222   1.174   7.856   5.814
13094TIP3    H139223   1.114   7.808   5.871
13094TIP3    H239224   1.240   7.892   5.874
13095TIP3   OH239225   4.136   0.180   6.270
13095TIP3    H139226   4.170   0.096   6.239
13095TIP3    H239227   4.080   0.211   6.198
13096TIP3   OH239228   1.084   7.772   5.463
13096TIP3    H139229   1.008   7.767   5.406
13096TIP3    H239230   1.064   7.845   5.523
13097TIP3   OH239231   0.970   7.427   5.389
13097TIP3    H139232   0.924   7.468   5.316
13097TIP3    H239233   0.954   7.333   5.377
13098TIP3   OH239234   1.008   7.702   5.964
13098TIP3    H139235   0.996   7.611   5.939
13098TIP3    H239236   0.967   7.710   6.050
13099TIP3   OH239237   0.931   7.155   5.370
13099TIP3    H139238   1.001   7.137   5.432
13099TIP3    H239239   0.854   7.111   5.407
13100TIP3   OH239240   0.992   7.438   5.865
13100TIP3    H139241   1.030   7.350   5.871
13100TIP3    H239242   1.016   7.469   5.778
13101TIP3   OH239243   1.142   7.604   6.355
13101TIP3    H139244   1.220   7.624   6.304
13101TIP3    H239245   1.157   7.645   6.440
13102TIP3   OH239246   1.214   7.760   6.576
13102TIP3    H139247   1.146   7.798   6.631
13102TIP3    H239248   1.243   7.831   6.520
13103TIP3   OH239249   7.433   3.324   0.077
13103TIP3    H139250   7.470   3.256   0.021
13103TIP3    H239251   7.373   3.372   0.020
13104TIP3   OH239252   1.093   7.178   5.884
13104TIP3    H139253   1.129   7.159   5.970
13104TIP3    H239254   1.024   7.112   5.872
13105TIP3   OH239255   1.502   7.457   6.918
13105TIP3    H139256   1.415   7.495   6.902
13105TIP3    H239257   1.506   7.381   6.859
13106TIP3   OH239258   1.158   7.111   5.522
13106TIP3    H139259   1.202   7.048   5.465
13106TIP3    H239260   1.217   7.186   5.526
13107TIP3   OH239261   1.436   7.221   6.789
13107TIP3    H139262   1.342   7.205   6.781
13107TIP3    H239263   1.475   7.134   6.791
13108TIP3   OH239264   1.151   7.067   6.363
13108TIP3    H139265   1.189   7.098   6.281
13108TIP3    H239266   1.057   7.067   6.347
13109TIP3   OH239267   1.242   7.136   6.116
13109TIP3    H139268   1.309   7.075   6.083
13109TIP3    H239269   1.277   7.223   6.098
13110TIP3   OH239270   0.888   7.055   6.308
13110TIP3    H139271   0.821   7.079   6.244
13110TIP3    H239272   0.849   6.982   6.357
13111TIP3   OH239273   0.898   6.974   5.864
13111TIP3    H139274   0.811   7.006   5.839
13111TIP3    H239275   0.881   6.906   5.929
13112TIP3   OH239276   6.871   3.138   0.142
13112TIP3    H139277   6.833   3.217   0.179
13112TIP3    H239278   6.961   3.162   0.122
13113TIP3   OH239279   2.418   8.092   5.488
13113TIP3    H139280   2.393   8.182   5.466
13113TIP3    H239281   2.341   8.040   5.465
13114TIP3   OH239282   2.350   8.118   5.912
13114TIP3    H139283   2.396   8.107   5.995
13114TIP3    H239284   2.310   8.032   5.895
13115TIP3   OH239285   1.652   7.999   6.259
13115TIP3    H139286   1.684   7.933   6.320
13115TIP3    H239287   1.726   8.015   6.200
13116TIP3   OH239288   5.400   0.252   5.571
13116TIP3    H139289   5.408   0.177   5.630
13116TIP3    H239290   5.448   0.322   5.615
13117TIP3   OH239291   4.575   0.241   6.037
13117TIP3    H139292   4.534   0.161   6.005
13117TIP3    H239293   4.648   0.256   5.978
13118TIP3   OH239294   1.335   7.637   5.739
13118TIP3    H139295   1.291   7.718   5.764
13118TIP3    H239296   1.265   7.582   5.702
13119TIP3   OH239297   1.406   7.935   5.950
13119TIP3    H139298   1.449   7.854   5.977
13119TIP3    H239299   1.478   7.993   5.924
13120TIP3   OH239300   5.049   0.224   5.959
13120TIP3    H139301   5.089   0.142   5.930
13120TIP3    H239302   5.120   0.272   6.002
13121TIP3   OH239303   3.188   7.684   5.936
13121TIP3    H139304   3.210   7.766   5.981
13121TIP3    H239305   3.204   7.702   5.844
13122TIP3   OH239306   2.577   7.854   5.960
13122TIP3    H139307   2.612   7.769   5.987
13122TIP3    H239308   2.546   7.840   5.871
13123TIP3   OH239309   1.925   7.507   5.919
13123TIP3    H139310   1.903   7.579   5.859
13123TIP3    H239311   1.872   7.433   5.887
13124TIP3   OH239312   2.624   7.608   5.545
13124TIP3    H139313   2.690   7.600   5.615
13124TIP3    H239314   2.674   7.638   5.469
13125TIP3   OH239315   1.552   7.720   6.041
13125TIP3    H139316   1.634   7.698   6.086
13125TIP3    H239317   1.554   7.668   5.961
13126TIP3   OH239318   1.981   7.909   5.857
13126TIP3    H139319   2.074   7.892   5.867
13126TIP3    H239320   1.944   7.827   5.824
13127TIP3   OH239321   3.254   7.899   6.104
13127TIP3    H139322   3.164   7.930   6.101
13127TIP3    H239323   3.289   7.934   6.186
13128TIP3   OH239324   1.909   7.507   6.366
13128TIP3    H139325   1.854   7.540   6.295
13128TIP3    H239326   1.857   7.520   6.445
13129TIP3   OH239327   5.177   0.189   5.331
13129TIP3    H139328   5.117   0.166   5.260
13129TIP3    H239329   5.148   0.276   5.359
13130TIP3   OH239330   4.890   0.121   6.156
13130TIP3    H139331   4.834   0.176   6.210
13130TIP3    H239332   4.933   0.181   6.096
13131TIP3   OH239333   2.788   7.628   5.764
13131TIP3    H139334   2.747   7.606   5.847
13131TIP3    H239335   2.842   7.704   5.783
13132TIP3   OH239336   1.794   7.615   6.138
13132TIP3    H139337   1.852   7.687   6.164
13132TIP3    H239338   1.840   7.571   6.067
13133TIP3   OH239339   4.697   0.249   6.294
13133TIP3    H139340   4.643   0.267   6.217
13133TIP3    H239341   4.667   0.311   6.360
13134TIP3   OH239342   4.106   0.011   5.509
13134TIP3    H139343   4.047   0.062   5.452
13134TIP3    H239344   4.145   0.077   5.567
13135TIP3   OH239345   5.519   0.462   5.703
13135TIP3    H139346   5.452   0.444   5.769
13135TIP3    H239347   5.553   0.548   5.726
13136TIP3   OH239348   2.987   7.575   6.105
13136TIP3    H139349   2.901   7.598   6.071
13136TIP3    H239350   3.048   7.602   6.037
13137TIP3   OH239351   2.251   7.205   6.091
13137TIP3    H139352   2.242   7.112   6.116
13137TIP3    H239353   2.175   7.247   6.131
13138TIP3   OH239354   5.458   0.276   5.298
13138TIP3    H139355   5.399   0.254   5.370
13138TIP3    H239356   5.531   0.320   5.340
13139TIP3   OH239357   5.822   0.412   6.089
13139TIP3    H139358   5.784   0.333   6.049
13139TIP3    H239359   5.766   0.483   6.059
13140TIP3   OH239360   2.215   7.961   5.354
13140TIP3    H139361   2.136   8.016   5.352
13140TIP3    H239362   2.251   7.968   5.266
13141TIP3   OH239363   2.160   7.774   5.046
13141TIP3    H139364   2.224   7.818   5.100
13141TIP3    H239365   2.209   7.707   4.999
13142TIP3   OH239366   5.952   0.113   5.939
13142TIP3    H139367   5.865   0.152   5.937
13142TIP3    H239368   5.982   0.119   5.848
13143TIP3   OH239369   2.645   8.016   5.358
13143TIP3    H139370   2.565   8.047   5.399
13143TIP3    H239371   2.687   7.962   5.425
13144TIP3   OH239372   5.637  -0.018   6.230
13144TIP3    H139373   5.641   0.061   6.285
13144TIP3    H239374   5.552  -0.013   6.187
13145TIP3   OH239375   1.791   8.044   5.707
13145TIP3    H139376   1.748   7.982   5.648
13145TIP3    H239377   1.856   7.991   5.753
13146TIP3   OH239378   4.793   0.262   5.871
13146TIP3    H139379   4.787   0.223   5.784
13146TIP3    H239380   4.885   0.251   5.896
13147TIP3   OH239381   1.862   8.028   6.075
13147TIP3    H139382   1.906   7.991   5.998
13147TIP3    H239383   1.917   8.101   6.102
13148TIP3   OH239384   5.333   0.569   5.940
13148TIP3    H139385   5.317   0.563   6.034
13148TIP3    H239386   5.282   0.497   5.902
13149TIP3   OH239387   2.388   7.940   5.134
13149TIP3    H139388   2.428   8.027   5.144
13149TIP3    H239389   2.410   7.914   5.045
13150TIP3   OH239390   4.676   0.025   6.471
13150TIP3    H139391   4.695   0.117   6.454
13150TIP3    H239392   4.593   0.009   6.427
13151TIP3   OH239393   2.888   7.164   5.191
13151TIP3    H139394   2.808   7.181   5.242
13151TIP3    H239395   2.898   7.242   5.137
13152TIP3   OH239396   1.658   7.876   5.531
13152TIP3    H139397   1.583   7.917   5.489
13152TIP3    H239398   1.627   7.789   5.557
13153TIP3   OH239399   5.879   0.827   6.060
13153TIP3    H139400   5.925   0.779   5.992
13153TIP3    H239401   5.942   0.837   6.131
13154TIP3   OH239402   3.020   8.055   6.419
13154TIP3    H139403   2.936   8.065   6.375
13154TIP3    H239404   3.039   7.961   6.414
13155TIP3   OH239405   2.015   7.296   6.217
13155TIP3    H139406   1.931   7.263   6.185
13155TIP3    H239407   1.992   7.375   6.266
13156TIP3   OH239408   2.553   7.412   6.419
13156TIP3    H139409   2.622   7.388   6.481
13156TIP3    H239410   2.471   7.395   6.465
13157TIP3   OH239411   2.781   7.835   6.335
13157TIP3    H139412   2.735   7.833   6.418
13157TIP3    H239413   2.761   7.921   6.299
13158TIP3   OH239414   2.463   7.891   4.880
13158TIP3    H139415   2.419   7.867   4.798
13158TIP3    H239416   2.482   7.984   4.871
13159TIP3   OH239417   2.160   7.339   5.188
13159TIP3    H139418   2.125   7.345   5.277
13159TIP3    H239419   2.123   7.258   5.153
13160TIP3   OH239420   1.954   7.819   6.233
13160TIP3    H139421   1.910   7.826   6.318
13160TIP3    H239422   1.929   7.898   6.186
13161TIP3   OH239423   1.831   7.703   5.752
13161TIP3    H139424   1.743   7.677   5.777
13161TIP3    H239425   1.842   7.669   5.664
13162TIP3   OH239426   2.326   7.758   5.488
13162TIP3    H139427   2.280   7.830   5.446
13162TIP3    H239428   2.384   7.723   5.420
13163TIP3   OH239429   2.501   8.044   6.548
13163TIP3    H139430   2.478   7.978   6.614
13163TIP3    H239431   2.592   8.068   6.569
13164TIP3   OH239432   2.493   7.798   5.706
13164TIP3    H139433   2.422   7.816   5.645
13164TIP3    H239434   2.537   7.722   5.669
13165TIP3   OH239435   1.776   7.830   6.445
13165TIP3    H139436   1.801   7.893   6.512
13165TIP3    H239437   1.762   7.748   6.493
13166TIP3   OH239438   1.828   7.325   5.161
13166TIP3    H139439   1.816   7.323   5.256
13166TIP3    H239440   1.748   7.367   5.128
13167TIP3   OH239441   1.366   7.360   6.038
13167TIP3    H139442   1.444   7.396   6.082
13167TIP3    H239443   1.397   7.337   5.950
13168TIP3   OH239444   1.313   7.341   5.542
13168TIP3    H139445   1.356   7.374   5.463
13168TIP3    H239446   1.248   7.408   5.563
13169TIP3   OH239447   2.510   8.053   6.129
13169TIP3    H139448   2.540   7.986   6.068
13169TIP3    H239449   2.472   8.004   6.202
13170TIP3   OH239450   2.191   7.503   5.808
13170TIP3    H139451   2.114   7.499   5.864
13170TIP3    H239452   2.265   7.491   5.868
13171TIP3   OH239453   1.594   7.580   5.809
13171TIP3    H139454   1.504   7.586   5.776
13171TIP3    H239455   1.619   7.488   5.793
13172TIP3   OH239456   1.845   7.582   5.508
13172TIP3    H139457   1.940   7.590   5.494
13172TIP3    H239458   1.807   7.599   5.422
13173TIP3   OH239459   2.651   7.588   6.006
13173TIP3    H139460   2.632   7.603   6.099
13173TIP3    H239461   2.583   7.527   5.977
13174TIP3   OH239462   1.716   7.610   5.268
13174TIP3    H139463   1.650   7.558   5.222
13174TIP3    H239464   1.775   7.641   5.199
13175TIP3   OH239465   2.249   7.854   5.911
13175TIP3    H139466   2.317   7.802   5.867
13175TIP3    H239467   2.246   7.819   6.000
13176TIP3   OH239468   1.743   7.331   5.797
13176TIP3    H139469   1.710   7.257   5.849
13176TIP3    H239470   1.771   7.291   5.714
13177TIP3   OH239471   2.223   7.771   6.178
13177TIP3    H139472   2.136   7.801   6.204
13177TIP3    H239473   2.283   7.823   6.231
13178TIP3   OH239474   4.859   0.007   5.372
13178TIP3    H139475   4.784  -0.051   5.359
13178TIP3    H239476   4.840   0.054   5.453
13179TIP3   OH239477   5.696   0.224   5.928
13179TIP3    H139478   5.728   0.272   5.852
13179TIP3    H239479   5.612   0.188   5.901
13180TIP3   OH239480   2.415   7.433   5.188
13180TIP3    H139481   2.322   7.411   5.184
13180TIP3    H239482   2.417   7.528   5.198
13181TIP3   OH239483   5.260   0.311   6.333
13181TIP3    H139484   5.301   0.284   6.415
13181TIP3    H239485   5.198   0.379   6.358
13182TIP3   OH239486   2.471   7.697   5.258
13182TIP3    H139487   2.566   7.689   5.266
13182TIP3    H239488   2.458   7.781   5.214
13183TIP3   OH239489   1.633   8.101   5.928
13183TIP3    H139490   1.676   8.094   5.842
13183TIP3    H239491   1.697   8.065   5.990
13184TIP3   OH239492   4.939   0.168   5.161
13184TIP3    H139493   4.911   0.255   5.189
13184TIP3    H239494   4.899   0.108   5.224
13185TIP3   OH239495   5.130   0.074   6.605
13185TIP3    H139496   5.061   0.012   6.583
13185TIP3    H239497   5.210   0.033   6.573
13186TIP3   OH239498   5.363   0.584   6.212
13186TIP3    H139499   5.276   0.582   6.253
13186TIP3    H239500   5.424   0.591   6.285
13187TIP3   OH239501   6.068   0.524   6.143
13187TIP3    H139502   5.975   0.501   6.142
13187TIP3    H239503   6.102   0.493   6.059
13188TIP3   OH239504   5.540   0.273   4.960
13188TIP3    H139505   5.540   0.352   5.014
13188TIP3    H239506   5.618   0.281   4.906
13189TIP3   OH239507   5.464   0.111   5.815
13189TIP3    H139508   5.379   0.078   5.844
13189TIP3    H239509   5.506   0.035   5.775
13190TIP3   OH239510   4.552   0.295   5.605
13190TIP3    H139511   4.532   0.370   5.549
13190TIP3    H239512   4.492   0.227   5.576
13191TIP3   OH239513   1.321   7.748   5.320
13191TIP3    H139514   1.373   7.825   5.345
13191TIP3    H239515   1.240   7.756   5.369
13192TIP3   OH239516   4.789   0.152   5.608
13192TIP3    H139517   4.711   0.207   5.595
13192TIP3    H239518   4.754   0.070   5.645
13193TIP3   OH239519   5.293   0.290   6.063
13193TIP3    H139520   5.276   0.300   6.157
13193TIP3    H239521   5.378   0.247   6.059
13194TIP3   OH239522   5.184   0.222   4.973
13194TIP3    H139523   5.249   0.159   4.941
13194TIP3    H239524   5.100   0.180   4.955
13195TIP3   OH239525   1.744   7.577   6.576
13195TIP3    H139526   1.649   7.583   6.585
13195TIP3    H239527   1.772   7.527   6.652
13196TIP3   OH239528   5.426   0.071   5.120
13196TIP3    H139529   5.405   0.142   5.181
13196TIP3    H239530   5.439   0.115   5.036
13197TIP3   OH239531   4.639   0.105   4.914
13197TIP3    H139532   4.642   0.040   4.844
13197TIP3    H239533   4.550   0.140   4.911
13198TIP3   OH239534   4.616   0.334   5.108
13198TIP3    H139535   4.635   0.244   5.134
13198TIP3    H239536   4.612   0.383   5.190
13199TIP3   OH239537   1.445   7.983   5.398
13199TIP3    H139538   1.375   8.018   5.452
13199TIP3    H239539   1.449   8.041   5.322
13200TIP3   OH239540   2.594   7.639   6.268
13200TIP3    H139541   2.669   7.685   6.307
13200TIP3    H239542   2.580   7.564   6.326
13201TIP3   OH239543   2.472   7.390   5.458
13201TIP3    H139544   2.453   7.407   5.366
13201TIP3    H239545   2.517   7.470   5.488
13202TIP3   OH239546   2.124   7.586   5.553
13202TIP3    H139547   2.193   7.647   5.528
13202TIP3    H239548   2.143   7.566   5.645
13203TIP3   OH239549   2.436   7.879   6.327
13203TIP3    H139550   2.456   7.923   6.410
13203TIP3    H239551   2.484   7.796   6.332
13204TIP3   OH239552   2.287   7.292   5.640
13204TIP3    H139553   2.267   7.369   5.692
13204TIP3    H239554   2.356   7.321   5.580
13205TIP3   OH239555   1.802   7.310   5.439
13205TIP3    H139556   1.791   7.398   5.474
13205TIP3    H239557   1.896   7.293   5.445
13206TIP3   OH239558   3.045   7.783   6.319
13206TIP3    H139559   2.950   7.793   6.330
13206TIP3    H239560   3.053   7.726   6.242
13207TIP3   OH239561   2.704   7.991   5.699
13207TIP3    H139562   2.632   7.927   5.701
13207TIP3    H239563   2.776   7.947   5.744
13208TIP3   OH239564   4.280   0.041   5.183
13208TIP3    H139565   4.292   0.134   5.165
13208TIP3    H239566   4.327  -0.004   5.113
13209TIP3   OH239567   1.365   7.477   5.311
13209TIP3    H139568   1.364   7.572   5.323
13209TIP3    H239569   1.294   7.459   5.249
13210TIP3   OH239570   1.752   7.211   6.180
13210TIP3    H139571   1.722   7.178   6.096
13210TIP3    H239572   1.745   7.137   6.240
13211TIP3   OH239573   1.572   7.976   5.032
13211TIP3    H139574   1.618   7.938   5.107
13211TIP3    H239575   1.637   7.976   4.962
13212TIP3   OH239576   5.099   0.355   6.583
13212TIP3    H139577   5.038   0.377   6.654
13212TIP3    H239578   5.113   0.261   6.591
13213TIP3   OH239579   4.950   0.107   4.885
13213TIP3    H139580   4.911   0.124   4.971
13213TIP3    H239581   4.936   0.014   4.870
13214TIP3   OH239582   5.544   0.342   6.235
13214TIP3    H139583   5.591   0.420   6.206
13214TIP3    H239584   5.459   0.375   6.264
13215TIP3   OH239585   1.799   7.920   5.286
13215TIP3    H139586   1.755   7.881   5.361
13215TIP3    H239587   1.827   7.845   5.233
13216TIP3   OH239588   2.049   7.997   6.490
13216TIP3    H139589   1.969   8.050   6.489
13216TIP3    H239590   2.098   8.026   6.414
13217TIP3   OH239591   1.887   7.737   5.095
13217TIP3    H139592   1.856   7.720   5.006
13217TIP3    H239593   1.982   7.745   5.087
13218TIP3   OH239594   5.420   0.279   6.566
13218TIP3    H139595   5.516   0.278   6.569
13218TIP3    H239596   5.394   0.232   6.646
13219TIP3   OH239597   2.739   8.059   4.787
13219TIP3    H139598   2.682   8.007   4.731
13219TIP3    H239599   2.806   8.094   4.728
13220TIP3   OH239600   2.171   7.781   6.601
13220TIP3    H139601   2.173   7.710   6.537
13220TIP3    H239602   2.129   7.853   6.555
13221TIP3   OH239603   2.170   7.587   6.398
13221TIP3    H139604   2.196   7.628   6.315
13221TIP3    H239605   2.078   7.564   6.385
13222TIP3   OH239606   5.076  -0.022   6.290
13222TIP3    H139607   5.157   0.027   6.292
13222TIP3    H239608   5.016   0.032   6.238
13223TIP3   OH239609   2.773   8.066   6.647
13223TIP3    H139610   2.802   7.977   6.668
13223TIP3    H239611   2.852   8.111   6.618
13224TIP3   OH239612   5.694   0.196   6.401
13224TIP3    H139613   5.631   0.247   6.350
13224TIP3    H239614   5.780   0.225   6.370
13225TIP3   OH239615   2.040   7.872   6.834
13225TIP3    H139616   1.969   7.811   6.851
13225TIP3    H239617   2.075   7.846   6.749
13226TIP3   OH239618   2.289   7.356   6.497
13226TIP3    H139619   2.249   7.436   6.464
13226TIP3    H239620   2.222   7.288   6.484
13227TIP3   OH239621   2.422   7.836   6.706
13227TIP3    H139622   2.408   7.843   6.801
13227TIP3    H239623   2.337   7.811   6.671
13228TIP3   OH239624   2.654   7.779   6.565
13228TIP3    H139625   2.579   7.785   6.623
13228TIP3    H239626   2.726   7.752   6.622
13229TIP3   OH239627   2.896   7.740   6.704
13229TIP3    H139628   2.911   7.645   6.711
13229TIP3    H239629   2.890   7.770   6.795
13230TIP3   OH239630   1.870   7.661   6.907
13230TIP3    H139631   1.872   7.575   6.866
13230TIP3    H239632   1.912   7.648   6.992
13231TIP3   OH239633   2.363   7.341   6.759
13231TIP3    H139634   2.432   7.275   6.754
13231TIP3    H239635   2.331   7.350   6.669
13232TIP3   OH239636   2.444   7.560   6.908
13232TIP3    H139637   2.417   7.490   6.849
13232TIP3    H239638   2.374   7.625   6.901
13233TIP3   OH239639   1.143   8.119   5.221
13233TIP3    H139640   1.236   8.139   5.229
13233TIP3    H239641   1.140   8.024   5.207
13234TIP3   OH239642   5.968   0.681   6.527
13234TIP3    H139643   5.880   0.682   6.565
13234TIP3    H239644   6.019   0.740   6.582
13235TIP3   OH239645   5.738   0.084   5.182
13235TIP3    H139646   5.777   0.132   5.109
13235TIP3    H239647   5.785   0.116   5.259
13236TIP3   OH239648   5.856   0.323   5.736
13236TIP3    H139649   5.906   0.251   5.698
13236TIP3    H239650   5.889   0.401   5.691
13237TIP3   OH239651   2.749   7.720   4.973
13237TIP3    H139652   2.722   7.775   4.899
13237TIP3    H239653   2.733   7.631   4.944
13238TIP3   OH239654   1.390   8.054   6.195
13238TIP3    H139655   1.379   8.016   6.108
13238TIP3    H239656   1.483   8.043   6.214
13239TIP3   OH239657   5.935   0.292   6.314
13239TIP3    H139658   6.001   0.225   6.294
13239TIP3    H239659   5.913   0.330   6.229
13240TIP3   OH239660   6.096   0.072   6.298
13240TIP3    H139661   6.023   0.028   6.341
13240TIP3    H239662   6.172   0.017   6.317
13241TIP3   OH239663   2.695   7.460   4.896
13241TIP3    H139664   2.769   7.416   4.939
13241TIP3    H239665   2.622   7.399   4.904
13242TIP3   OH239666   2.749   7.670   5.294
13242TIP3    H139667   2.800   7.593   5.317
13242TIP3    H239668   2.778   7.691   5.205
13243TIP3   OH239669   2.920   7.864   5.832
13243TIP3    H139670   3.003   7.881   5.790
13243TIP3    H239671   2.930   7.898   5.921
13244TIP3   OH239672   2.990   7.999   6.070
13244TIP3    H139673   2.915   8.027   6.122
13244TIP3    H239674   3.023   8.079   6.030
13245TIP3   OH239675   1.604   7.708   6.833
13245TIP3    H139676   1.695   7.724   6.857
13245TIP3    H239677   1.580   7.631   6.883
13246TIP3   OH239678   3.456   7.614   6.612
13246TIP3    H139679   3.518   7.553   6.571
13246TIP3    H239680   3.418   7.663   6.540
13247TIP3   OH239681   2.880   7.439   5.373
13247TIP3    H139682   2.923   7.430   5.458
13247TIP3    H239683   2.818   7.366   5.370
13248TIP3   OH239684   1.584   7.432   6.200
13248TIP3    H139685   1.637   7.352   6.204
13248TIP3    H239686   1.647   7.502   6.183
13249TIP3   OH239687   1.380   7.701   6.262
13249TIP3    H139688   1.429   7.694   6.180
13249TIP3    H239689   1.408   7.784   6.300
13250TIP3   OH239690   3.307   7.731   6.419
13250TIP3    H139691   3.228   7.773   6.453
13250TIP3    H239692   3.274   7.661   6.362
13251TIP3   OH239693   2.935   7.372   5.013
13251TIP3    H139694   2.976   7.309   4.954
13251TIP3    H239695   2.994   7.448   5.013
13252TIP3   OH239696   1.360   7.216   5.779
13252TIP3    H139697   1.271   7.196   5.808
13252TIP3    H239698   1.348   7.267   5.699
13253TIP3   OH239699   1.588   7.268   6.563
13253TIP3    H139700   1.536   7.254   6.643
13253TIP3    H239701   1.529   7.315   6.504
13254TIP3   OH239702   3.214   7.486   6.306
13254TIP3    H139703   3.127   7.478   6.269
13254TIP3    H239704   3.251   7.398   6.300
13255TIP3   OH239705   2.423   7.407   5.937
13255TIP3    H139706   2.384   7.335   5.986
13255TIP3    H239707   2.492   7.366   5.885
13256TIP3   OH239708   2.932   7.315   5.821
13256TIP3    H139709   2.968   7.371   5.752
13256TIP3    H239710   2.839   7.339   5.824
13257TIP3   OH239711   3.046   7.422   5.593
13257TIP3    H139712   3.115   7.362   5.566
13257TIP3    H239713   3.080   7.509   5.573
13258TIP3   OH239714   1.661   7.108   5.941
13258TIP3    H139715   1.570   7.077   5.947
13258TIP3    H239716   1.713   7.028   5.933
13259TIP3   OH239717   1.488   7.021   5.603
13259TIP3    H139718   1.508   7.069   5.523
13259TIP3    H239719   1.451   7.086   5.662
13260TIP3   OH239720   2.133   7.151   5.832
13260TIP3    H139721   2.183   7.195   5.764
13260TIP3    H239722   2.175   7.177   5.914
13261TIP3   OH239723   2.642   7.294   5.808
13261TIP3    H139724   2.653   7.257   5.720
13261TIP3    H239725   2.644   7.218   5.866
13262TIP3   OH239726   2.692   7.233   5.377
13262TIP3    H139727   2.610   7.279   5.399
13262TIP3    H239728   2.682   7.146   5.415
13263TIP3   OH239729   1.587   7.146   5.356
13263TIP3    H139730   1.631   7.082   5.301
13263TIP3    H239731   1.658   7.200   5.391
13264TIP3   OH239732   2.077   7.337   5.452
13264TIP3    H139733   2.134   7.282   5.505
13264TIP3    H239734   2.093   7.426   5.483
13265TIP3   OH239735   1.885   7.399   6.803
13265TIP3    H139736   1.853   7.328   6.860
13265TIP3    H239737   1.978   7.406   6.823
13266TIP3   OH239738   2.137   7.391   6.915
13266TIP3    H139739   2.218   7.372   6.867
13266TIP3    H239740   2.130   7.319   6.979
13267TIP3   OH239741   2.962   7.471   6.730
13267TIP3    H139742   2.977   7.447   6.821
13267TIP3    H239743   3.049   7.469   6.690
13268TIP3   OH239744   7.043   0.239   5.030
13268TIP3    H139745   7.030   0.327   4.995
13268TIP3    H239746   6.971   0.188   4.993
13269TIP3   OH239747   7.013   0.268   5.397
13269TIP3    H139748   7.061   0.252   5.479
13269TIP3    H239749   6.975   0.183   5.375
13270TIP3   OH239750   6.307   0.155   5.753
13270TIP3    H139751   6.342   0.091   5.815
13270TIP3    H239752   6.380   0.214   5.735
13271TIP3   OH239753   7.233   0.512   5.060
13271TIP3    H139754   7.219   0.440   5.121
13271TIP3    H239755   7.249   0.588   5.116
13272TIP3   OH239756   6.306   0.495   5.470
13272TIP3    H139757   6.283   0.402   5.461
13272TIP3    H239758   6.397   0.500   5.440
13273TIP3   OH239759   3.120   7.880   5.287
13273TIP3    H139760   3.117   7.970   5.318
13273TIP3    H239761   3.102   7.827   5.365
13274TIP3   OH239762   6.066   0.050   5.411
13274TIP3    H139763   6.116  -0.021   5.451
13274TIP3    H239764   6.131   0.119   5.395
13275TIP3   OH239765   6.836   0.473   5.448
13275TIP3    H139766   6.881   0.398   5.409
13275TIP3    H239767   6.906   0.523   5.490
13276TIP3   OH239768   5.008   7.922   5.431
13276TIP3    H139769   5.011   8.007   5.473
13276TIP3    H239770   5.035   7.938   5.341
13277TIP3   OH239771   4.375   8.107   5.451
13277TIP3    H139772   4.413   8.023   5.475
13277TIP3    H239773   4.339   8.093   5.363
13278TIP3   OH239774   3.723   7.765   5.410
13278TIP3    H139775   3.702   7.836   5.350
13278TIP3    H239776   3.672   7.691   5.377
13279TIP3   OH239777   4.417   7.867   5.036
13279TIP3    H139778   4.482   7.858   5.105
13279TIP3    H239779   4.466   7.899   4.960
13280TIP3   OH239780   3.346   7.960   5.526
13280TIP3    H139781   3.428   7.949   5.574
13280TIP3    H239782   3.358   7.909   5.446
13281TIP3   OH239783   6.649   0.058   5.332
13281TIP3    H139784   6.743   0.042   5.344
13281TIP3    H239785   6.614  -0.026   5.302
13282TIP3   OH239786   7.889   0.032   5.597
13282TIP3    H139787   7.812   0.088   5.588
13282TIP3    H239788   7.944   0.078   5.661
13283TIP3   OH239789   3.703   7.764   5.858
13283TIP3    H139790   3.650   7.798   5.785
13283TIP3    H239791   3.649   7.779   5.935
13284TIP3   OH239792   6.987   0.439   4.852
13284TIP3    H139793   6.925   0.440   4.779
13284TIP3    H239794   7.023   0.528   4.853
13285TIP3   OH239795   6.674   0.385   5.643
13285TIP3    H139796   6.617   0.455   5.672
13285TIP3    H239797   6.725   0.424   5.571
13286TIP3   OH239798   4.586   7.886   5.249
13286TIP3    H139799   4.550   7.860   5.334
13286TIP3    H239800   4.646   7.958   5.270
13287TIP3   OH239801   3.589   7.870   5.629
13287TIP3    H139802   3.643   7.944   5.653
13287TIP3    H239803   3.637   7.827   5.558
13288TIP3   OH239804   6.520   0.587   5.726
13288TIP3    H139805   6.512   0.682   5.725
13288TIP3    H239806   6.449   0.558   5.783
13289TIP3   OH239807   5.892   0.261   5.027
13289TIP3    H139808   5.853   0.258   4.940
13289TIP3    H239809   5.924   0.350   5.036
13290TIP3   OH239810   7.329   0.722   5.206
13290TIP3    H139811   7.302   0.726   5.297
13290TIP3    H239812   7.365   0.809   5.188
13291TIP3   OH239813   4.786   7.818   5.586
13291TIP3    H139814   4.701   7.845   5.550
13291TIP3    H239815   4.850   7.847   5.521
13292TIP3   OH239816   4.046   7.460   5.579
13292TIP3    H139817   4.037   7.368   5.603
13292TIP3    H239818   3.970   7.503   5.619
13293TIP3   OH239819   7.243   0.602   4.807
13293TIP3    H139820   7.245   0.525   4.750
13293TIP3    H239821   7.236   0.567   4.895
13294TIP3   OH239822   7.614   0.679   5.578
13294TIP3    H139823   7.572   0.607   5.531
13294TIP3    H239824   7.597   0.756   5.525
13295TIP3   OH239825   6.878   0.109   4.847
13295TIP3    H139826   6.799   0.160   4.832
13295TIP3    H239827   6.922   0.107   4.762
13296TIP3   OH239828   3.949   8.033   4.537
13296TIP3    H139829   4.017   8.079   4.586
13296TIP3    H239830   3.995   7.965   4.489
13297TIP3   OH239831   7.739   0.381   5.440
13297TIP3    H139832   7.654   0.424   5.433
13297TIP3    H239833   7.775   0.383   5.351
13298TIP3   OH239834   7.204   0.186   4.810
13298TIP3    H139835   7.152   0.208   4.887
13298TIP3    H239836   7.291   0.165   4.844
13299TIP3   OH239837   7.426   0.238   5.730
13299TIP3    H139838   7.426   0.318   5.783
13299TIP3    H239839   7.343   0.241   5.682
13300TIP3   OH239840   6.443   0.184   5.203
13300TIP3    H139841   6.407   0.126   5.137
13300TIP3    H239842   6.512   0.134   5.246
13301TIP3   OH239843   6.561   0.507   5.371
13301TIP3    H139844   6.543   0.522   5.278
13301TIP3    H239845   6.656   0.499   5.376
13302TIP3   OH239846   6.532   0.175   5.552
13302TIP3    H139847   6.576   0.143   5.473
13302TIP3    H239848   6.583   0.252   5.579
13303TIP3   OH239849   7.073   0.816   5.420
13303TIP3    H139850   7.003   0.856   5.472
13303TIP3    H239851   7.081   0.727   5.454
13304TIP3   OH239852   6.724   0.607   5.915
13304TIP3    H139853   6.671   0.672   5.962
13304TIP3    H239854   6.674   0.588   5.836
13305TIP3   OH239855   7.038   0.068   4.627
13305TIP3    H139856   7.103   0.120   4.674
13305TIP3    H239857   7.069   0.067   4.536
13306TIP3   OH239858   6.460   0.263   6.004
13306TIP3    H139859   6.470   0.348   6.046
13306TIP3    H239860   6.367   0.243   6.012
13307TIP3   OH239861   4.683   7.420   4.680
13307TIP3    H139862   4.604   7.441   4.731
13307TIP3    H239863   4.695   7.496   4.623
13308TIP3   OH239864   6.332   0.020   5.007
13308TIP3    H139865   6.247   0.055   4.980
13308TIP3    H239866   6.314  -0.072   5.029
13309TIP3   OH239867   6.090   0.391   5.901
13309TIP3    H139868   6.011   0.365   5.854
13309TIP3    H239869   6.121   0.311   5.943
13310TIP3   OH239870   5.998   0.518   5.623
13310TIP3    H139871   6.081   0.562   5.603
13310TIP3    H239872   5.931   0.577   5.587
13311TIP3   OH239873   7.664   1.084   5.563
13311TIP3    H139874   7.710   1.053   5.485
13311TIP3    H239875   7.733   1.096   5.628
13312TIP3   OH239876   7.676   0.209   5.911
13312TIP3    H139877   7.595   0.223   5.862
13312TIP3    H239878   7.694   0.115   5.902
13313TIP3   OH239879   6.302   0.554   5.884
13313TIP3    H139880   6.342   0.553   5.971
13313TIP3    H239881   6.230   0.492   5.890
13314TIP3   OH239882   3.810   7.553   5.707
13314TIP3    H139883   3.726   7.519   5.676
13314TIP3    H239884   3.787   7.632   5.756
13315TIP3   OH239885   4.347   7.680   5.912
13315TIP3    H139886   4.414   7.644   5.970
13315TIP3    H239887   4.264   7.655   5.953
13316TIP3   OH239888   7.441  -0.021   5.832
13316TIP3    H139889   7.398  -0.021   5.918
13316TIP3    H239890   7.423   0.067   5.797
13317TIP3   OH239891   7.109   0.046   4.366
13317TIP3    H139892   7.074   0.026   4.279
13317TIP3    H239893   7.134   0.138   4.360
13318TIP3   OH239894   3.953   7.601   4.674
13318TIP3    H139895   3.919   7.604   4.764
13318TIP3    H239896   3.920   7.518   4.639
13319TIP3   OH239897   3.744   8.079   5.716
13319TIP3    H139898   3.697   8.088   5.799
13319TIP3    H239899   3.716   8.154   5.664
13320TIP3   OH239900   3.631   7.957   5.238
13320TIP3    H139901   3.542   7.930   5.262
13320TIP3    H239902   3.643   7.923   5.149
13321TIP3   OH239903   4.125   8.007   4.971
13321TIP3    H139904   4.081   8.081   4.929
13321TIP3    H239905   4.187   7.976   4.905
13322TIP3   OH239906   7.179   0.192   6.028
13322TIP3    H139907   7.149   0.133   6.097
13322TIP3    H239908   7.268   0.214   6.052
13323TIP3   OH239909   4.285   8.056   5.198
13323TIP3    H139910   4.218   8.087   5.137
13323TIP3    H239911   4.323   7.980   5.155
13324TIP3   OH239912   3.572   8.089   5.931
13324TIP3    H139913   3.591   8.156   5.996
13324TIP3    H239914   3.557   8.009   5.981
13325TIP3   OH239915   3.621   7.579   4.647
13325TIP3    H139916   3.610   7.578   4.743
13325TIP3    H239917   3.542   7.623   4.615
13326TIP3   OH239918   3.167   7.654   5.482
13326TIP3    H139919   3.241   7.663   5.542
13326TIP3    H239920   3.197   7.593   5.415
13327TIP3   OH239921   3.098   7.606   5.034
13327TIP3    H139922   3.136   7.631   4.950
13327TIP3    H239923   3.054   7.685   5.065
13328TIP3   OH239924   7.170   0.200   5.616
13328TIP3    H139925   7.202   0.132   5.556
13328TIP3    H239926   7.127   0.151   5.686
13329TIP3   OH239927   3.989   7.758   5.295
13329TIP3    H139928   3.913   7.757   5.354
13329TIP3    H239929   4.064   7.747   5.354
13330TIP3   OH239930   3.395   7.827   5.290
13330TIP3    H139931   3.304   7.821   5.262
13330TIP3    H239932   3.429   7.738   5.280
13331TIP3   OH239933   3.641   7.838   4.993
13331TIP3    H139934   3.735   7.846   4.981
13331TIP3    H239935   3.604   7.855   4.906
13332TIP3   OH239936   4.452   7.843   5.498
13332TIP3    H139937   4.427   7.860   5.589
13332TIP3    H239938   4.386   7.781   5.466
13333TIP3   OH239939   3.514   7.865   4.752
13333TIP3    H139940   3.449   7.815   4.702
13333TIP3    H239941   3.572   7.902   4.685
13334TIP3   OH239942   6.453   0.491   6.153
13334TIP3    H139943   6.539   0.510   6.189
13334TIP3    H239944   6.398   0.564   6.181
13335TIP3   OH239945   4.048   8.109   5.394
13335TIP3    H139946   4.115   8.058   5.350
13335TIP3    H239947   4.043   8.072   5.482
13336TIP3   OH239948   3.541   7.587   5.285
13336TIP3    H139949   3.510   7.513   5.336
13336TIP3    H239950   3.575   7.548   5.204
13337TIP3   OH239951   4.012   8.024   5.663
13337TIP3    H139952   3.924   8.055   5.685
13337TIP3    H239953   4.070   8.077   5.717
13338TIP3   OH239954   6.652   0.254   4.817
13338TIP3    H139955   6.576   0.196   4.808
13338TIP3    H239956   6.647   0.287   4.907
13339TIP3   OH239957   7.488   0.499   5.410
13339TIP3    H139958   7.523   0.542   5.332
13339TIP3    H239959   7.409   0.456   5.379
13340TIP3   OH239960   4.211   7.689   4.675
13340TIP3    H139961   4.117   7.674   4.670
13340TIP3    H239962   4.220   7.784   4.685
13341TIP3   OH239963   7.047   0.576   5.791
13341TIP3    H139964   7.018   0.564   5.881
13341TIP3    H239965   7.058   0.671   5.781
13342TIP3   OH239966   4.283   7.948   4.748
13342TIP3    H139967   4.378   7.953   4.756
13342TIP3    H239968   4.259   8.026   4.698
13343TIP3   OH239969   6.284   0.222   5.425
13343TIP3    H139970   6.333   0.220   5.343
13343TIP3    H239971   6.348   0.197   5.491
13344TIP3   OH239972   6.784   0.421   4.644
13344TIP3    H139973   6.757   0.508   4.673
13344TIP3    H239974   6.733   0.361   4.699
13345TIP3   OH239975   6.200   0.199   6.070
13345TIP3    H139976   6.215   0.191   6.164
13345TIP3    H239977   6.127   0.140   6.052
13346TIP3   OH239978   6.922   0.287   6.102
13346TIP3    H139979   6.848   0.240   6.062
13346TIP3    H239980   6.998   0.260   6.050
13347TIP3   OH239981   7.116   0.839   5.706
13347TIP3    H139982   7.154   0.866   5.622
13347TIP3    H239983   7.153   0.900   5.770
13348TIP3   OH239984   4.698   8.040   4.579
13348TIP3    H139985   4.638   7.997   4.518
13348TIP3    H239986   4.711   8.127   4.542
13349TIP3   OH239987   7.866   0.764   5.650
13349TIP3    H139988   7.772   0.747   5.642
13349TIP3    H239989   7.902   0.736   5.565
13350TIP3   OH239990   7.338   0.601   4.473
13350TIP3    H139991   7.315   0.528   4.530
13350TIP3    H239992   7.288   0.586   4.393
13351TIP3   OH239993   7.266   0.362   5.308
13351TIP3    H139994   7.175   0.336   5.323
13351TIP3    H239995   7.307   0.286   5.267
13352TIP3   OH239996   6.450   0.547   5.103
13352TIP3    H139997   6.391   0.613   5.138
13352TIP3    H239998   6.393   0.490   5.050
13353TIP3   OH239999   3.107   8.011   4.787
13353TIP3    H140000   3.162   8.075   4.831
13353TIP3    H240001   3.020   8.051   4.785
13354TIP3   OH240002   6.626   0.346   5.069
13354TIP3    H140003   6.576   0.426   5.080
13354TIP3    H240004   6.582   0.282   5.126
13355TIP3   OH240005   7.093   0.558   5.524
13355TIP3    H140006   7.078   0.563   5.618
13355TIP3    H240007   7.175   0.509   5.515
13356TIP3   OH240008   6.979   0.480   4.457
13356TIP3    H140009   7.045   0.413   4.439
13356TIP3    H240010   6.925   0.443   4.527
13357TIP3   OH240011   3.531   7.842   6.064
13357TIP3    H140012   3.436   7.851   6.070
13357TIP3    H240013   3.555   7.791   6.141
13358TIP3   OH240014   7.239   0.392   4.635
13358TIP3    H140015   7.209   0.322   4.693
13358TIP3    H240016   7.330   0.369   4.616
13359TIP3   OH240017   6.330   0.383   4.361
13359TIP3    H140018   6.389   0.367   4.288
13359TIP3    H240019   6.388   0.385   4.438
13360TIP3   OH240020   6.386   0.575   4.590
13360TIP3    H140021   6.426   0.489   4.602
13360TIP3    H240022   6.455   0.637   4.613
13361TIP3   OH240023   6.096   0.117   4.912
13361TIP3    H140024   6.033   0.157   4.971
13361TIP3    H240025   6.101   0.177   4.838
13362TIP3   OH240026   4.380   7.905   5.757
13362TIP3    H140027   4.459   7.948   5.790
13362TIP3    H240028   4.369   7.829   5.814
13363TIP3   OH240029   4.267   7.648   4.945
13363TIP3    H140030   4.248   7.664   4.852
13363TIP3    H240031   4.311   7.728   4.975
13364TIP3   OH240032   3.919   7.843   5.041
13364TIP3    H140033   3.989   7.901   5.013
13364TIP3    H240034   3.939   7.823   5.133
13365TIP3   OH240035   7.087   0.027   5.813
13365TIP3    H140036   7.120   0.072   5.891
13365TIP3    H240037   7.138  -0.053   5.808
13366TIP3   OH240038   4.083   7.548   5.126
13366TIP3    H140039   4.062   7.625   5.178
13366TIP3    H240040   4.151   7.577   5.066
13367TIP3   OH240041   3.597   7.566   4.926
13367TIP3    H140042   3.587   7.655   4.959
13367TIP3    H240043   3.691   7.549   4.931
13368TIP3   OH240044   4.844   8.055   5.821
13368TIP3    H140045   4.749   8.046   5.821
13368TIP3    H240046   4.869   8.043   5.729
13369TIP3   OH240047   7.373   0.128   5.199
13369TIP3    H140048   7.298   0.069   5.205
13369TIP3    H240049   7.441   0.085   5.252
13370TIP3   OH240050   6.082   0.289   4.702
13370TIP3    H140051   6.099   0.383   4.693
13370TIP3    H240052   6.128   0.249   4.629
13371TIP3   OH240053   3.149   7.737   4.800
13371TIP3    H140054   3.144   7.832   4.806
13371TIP3    H240055   3.096   7.715   4.724
13372TIP3   OH240056   3.549   7.464   5.669
13372TIP3    H140057   3.521   7.429   5.584
13372TIP3    H240058   3.540   7.390   5.729
13373TIP3   OH240059   7.181   0.980   5.926
13373TIP3    H140060   7.144   0.953   6.010
13373TIP3    H240061   7.228   1.061   5.946
13374TIP3   OH240062   6.220   0.483   6.372
13374TIP3    H140063   6.269   0.402   6.358
13374TIP3    H240064   6.170   0.496   6.292
13375TIP3   OH240065   6.235   0.144   4.520
13375TIP3    H140066   6.298   0.106   4.582
13375TIP3    H240067   6.289   0.190   4.456
13376TIP3   OH240068   6.952   0.557   6.050
13376TIP3    H140069   6.869   0.581   6.008
13376TIP3    H240070   6.937   0.469   6.083
13377TIP3   OH240071   6.665   0.354   4.394
13377TIP3    H140072   6.731   0.376   4.460
13377TIP3    H240073   6.692   0.268   4.361
13378TIP3   OH240074   7.353   0.617   5.689
13378TIP3    H140075   7.440   0.658   5.692
13378TIP3    H240076   7.304   0.661   5.758
13379TIP3   OH240077   6.376   0.249   6.331
13379TIP3    H140078   6.445   0.271   6.269
13379TIP3    H240079   6.407   0.281   6.415
13380TIP3   OH240080   6.438   0.086   4.749
13380TIP3    H140081   6.402   0.052   4.830
13380TIP3    H240082   6.471   0.010   4.702
13381TIP3   OH240083   6.711   0.151   5.969
13381TIP3    H140084   6.628   0.199   5.971
13381TIP3    H240085   6.757   0.187   5.893
13382TIP3   OH240086   3.676   8.002   4.580
13382TIP3    H140087   3.648   7.984   4.490
13382TIP3    H240088   3.772   8.007   4.574
13383TIP3   OH240089   7.259   0.547   6.122
13383TIP3    H140090   7.275   0.486   6.050
13383TIP3    H240091   7.232   0.490   6.195
13384TIP3   OH240092   7.389   0.196   4.235
13384TIP3    H140093   7.338   0.150   4.168
13384TIP3    H240094   7.461   0.237   4.187
13385TIP3   OH240095   3.960   8.044   6.087
13385TIP3    H140096   3.963   7.969   6.027
13385TIP3    H240097   3.918   8.113   6.037
13386TIP3   OH240098   3.964   7.844   5.888
13386TIP3    H140099   3.989   7.884   5.805
13386TIP3    H240100   3.872   7.820   5.876
13387TIP3   OH240101   6.873   0.263   5.781
13387TIP3    H140102   6.954   0.312   5.766
13387TIP3    H240103   6.807   0.311   5.732
13388TIP3   OH240104   7.436   0.246   6.134
13388TIP3    H140105   7.498   0.173   6.131
13388TIP3    H240106   7.491   0.324   6.126
13389TIP3   OH240107   7.464   0.461   5.888
13389TIP3    H140108   7.410   0.517   5.833
13389TIP3    H240109   7.554   0.484   5.864
13390TIP3   OH240110   3.841   8.134   6.328
13390TIP3    H140111   3.770   8.073   6.348
13390TIP3    H240112   3.870   8.110   6.240
13391TIP3   OH240113   4.086   7.612   5.985
13391TIP3    H140114   4.044   7.692   5.952
13391TIP3    H240115   4.020   7.544   5.973
13392TIP3   OH240116   4.210   8.103   6.191
13392TIP3    H140117   4.191   8.091   6.284
13392TIP3    H240118   4.128   8.082   6.147
13393TIP3   OH240119   4.444   8.027   6.065
13393TIP3    H140120   4.365   8.053   6.112
13393TIP3    H240121   4.466   7.941   6.100
13394TIP3   OH240122   3.671   7.920   6.394
13394TIP3    H140123   3.676   7.830   6.361
13394TIP3    H240124   3.708   7.915   6.482
13395TIP3   OH240125   4.160   7.600   6.250
13395TIP3    H140126   4.228   7.533   6.245
13395TIP3    H240127   4.126   7.606   6.161
13396TIP3   OH240128   4.255   7.824   6.379
13396TIP3    H140129   4.219   7.751   6.329
13396TIP3    H240130   4.184   7.888   6.383
13397TIP3   OH240131   5.813   0.248   4.770
13397TIP3    H140132   5.899   0.274   4.738
13397TIP3    H240133   5.774   0.199   4.697
13398TIP3   OH240134   7.771   0.941   6.059
13398TIP3    H140135   7.705   1.010   6.069
13398TIP3    H240136   7.855   0.985   6.074
13399TIP3   OH240137   7.505   0.376   4.597
13399TIP3    H140138   7.561   0.448   4.567
13399TIP3    H240139   7.552   0.338   4.671
13400TIP3   OH240140   7.637   0.251   4.795
13400TIP3    H140141   7.573   0.213   4.856
13400TIP3    H240142   7.703   0.290   4.852
13401TIP3   OH240143   7.658   0.597   5.224
13401TIP3    H140144   7.708   0.526   5.184
13401TIP3    H240145   7.684   0.675   5.175
13402TIP3   OH240146   7.569   0.165   4.438
13402TIP3    H140147   7.500   0.162   4.372
13402TIP3    H240148   7.548   0.241   4.491
13403TIP3   OH240149   4.533   7.949   4.384
13403TIP3    H140150   4.491   7.988   4.307
13403TIP3    H240151   4.521   7.855   4.373
13404TIP3   OH240152   7.440   0.114   4.932
13404TIP3    H140153   7.448   0.019   4.919
13404TIP3    H240154   7.422   0.124   5.026
13405TIP3   OH240155   6.047   0.137   5.679
13405TIP3    H140156   6.043   0.113   5.586
13405TIP3    H240157   6.139   0.153   5.696
13406TIP3   OH240158   7.717   0.533   5.812
13406TIP3    H140159   7.786   0.470   5.790
13406TIP3    H240160   7.708   0.587   5.734
13407TIP3   OH240161   7.890   0.323   5.782
13407TIP3    H140162   7.819   0.282   5.832
13407TIP3    H240163   7.966   0.267   5.799
13408TIP3   OH240164   4.491   7.682   4.359
13408TIP3    H140165   4.562   7.647   4.413
13408TIP3    H240166   4.415   7.628   4.381
13409TIP3   OH240167   4.566   7.952   4.811
13409TIP3    H140168   4.609   7.868   4.825
13409TIP3    H240169   4.612   7.990   4.736
13410TIP3   OH240170   7.589   0.007   5.333
13410TIP3    H140171   7.669   0.030   5.286
13410TIP3    H240172   7.599   0.047   5.420
13411TIP3   OH240173   7.643   0.157   5.566
13411TIP3    H140174   7.566   0.186   5.616
13411TIP3    H240175   7.676   0.237   5.524
13412TIP3   OH240176   3.407   7.974   6.336
13412TIP3    H140177   3.501   7.974   6.352
13412TIP3    H240178   3.375   7.894   6.377
13413TIP3   OH240179   5.236   7.867   6.093
13413TIP3    H140180   5.303   7.807   6.060
13413TIP3    H240181   5.206   7.914   6.015
13414TIP3   OH240182   4.675   7.703   4.864
13414TIP3    H140183   4.720   7.686   4.946
13414TIP3    H240184   4.613   7.630   4.855
13415TIP3   OH240185   3.374   7.679   5.667
13415TIP3    H140186   3.429   7.601   5.681
13415TIP3    H240187   3.436   7.752   5.664
13416TIP3   OH240188   3.171   7.942   5.747
13416TIP3    H140189   3.222   7.933   5.667
13416TIP3    H240190   3.192   8.029   5.779
13417TIP3   OH240191   5.099   7.983   5.888
13417TIP3    H140192   5.012   8.022   5.898
13417TIP3    H240193   5.084   7.904   5.836
13418TIP3   OH240194   4.729   7.621   4.498
13418TIP3    H140195   4.772   7.559   4.440
13418TIP3    H240196   4.788   7.696   4.500
13419TIP3   OH240197   3.151   7.465   5.261
13419TIP3    H140198   3.062   7.443   5.290
13419TIP3    H240199   3.138   7.518   5.183
13420TIP3   OH240200   3.375   7.529   6.074
13420TIP3    H140201   3.324   7.522   6.156
13420TIP3    H240202   3.316   7.574   6.013
13421TIP3   OH240203   6.324   0.727   6.205
13421TIP3    H140204   6.262   0.770   6.147
13421TIP3    H240205   6.294   0.751   6.293
13422TIP3   OH240206   5.024   7.743   5.772
13422TIP3    H140207   4.938   7.745   5.732
13422TIP3    H240208   5.049   7.650   5.771
13423TIP3   OH240209   4.221   7.663   5.425
13423TIP3    H140210   4.181   7.590   5.472
13423TIP3    H240211   4.290   7.623   5.373
13424TIP3   OH240212   4.729   7.574   5.323
13424TIP3    H140213   4.763   7.621   5.248
13424TIP3    H240214   4.634   7.590   5.321
13425TIP3   OH240215   4.836   7.651   5.084
13425TIP3    H140216   4.904   7.592   5.051
13425TIP3    H240217   4.872   7.739   5.071
13426TIP3   OH240218   3.460   7.364   5.427
13426TIP3    H140219   3.370   7.331   5.435
13426TIP3    H240220   3.513   7.285   5.420
13427TIP3   OH240221   3.269   7.266   5.081
13427TIP3    H140222   3.298   7.316   5.005
13427TIP3    H240223   3.238   7.333   5.142
13428TIP3   OH240224   3.926   7.410   5.319
13428TIP3    H140225   3.978   7.453   5.251
13428TIP3    H240226   3.970   7.434   5.401
13429TIP3   OH240227   4.442   7.550   5.298
13429TIP3    H140228   4.454   7.515   5.210
13429TIP3    H240229   4.443   7.473   5.354
13430TIP3   OH240230   4.488   7.494   4.864
13430TIP3    H140231   4.407   7.539   4.886
13430TIP3    H240232   4.478   7.407   4.902
13431TIP3   OH240233   3.383   7.400   4.845
13431TIP3    H140234   3.428   7.337   4.789
13431TIP3    H240235   3.454   7.455   4.879
13432TIP3   OH240236   3.871   7.594   4.939
13432TIP3    H140237   3.930   7.538   4.990
13432TIP3    H240238   3.889   7.682   4.970
13433TIP3   OH240239   3.682   7.647   6.313
13433TIP3    H140240   3.647   7.580   6.370
13433TIP3    H240241   3.775   7.653   6.337
13434TIP3   OH240242   3.934   7.652   6.431
13434TIP3    H140243   4.012   7.626   6.382
13434TIP3    H240244   3.922   7.583   6.496
13435TIP3   OH240245   0.210   0.541   4.486
13435TIP3    H140246   0.185   0.627   4.453
13435TIP3    H240247   0.138   0.483   4.460
13436TIP3   OH240248   0.191   0.529   4.880
13436TIP3    H140249   0.231   0.512   4.966
13436TIP3    H240250   0.151   0.446   4.855
13437TIP3   OH240251   8.117   0.436   5.226
13437TIP3    H140252   8.151   0.372   5.289
13437TIP3    H240253   8.194   0.463   5.175
13438TIP3   OH240254   0.412   0.784   4.556
13438TIP3    H140255   0.388   0.713   4.616
13438TIP3    H240256   0.433   0.858   4.614
13439TIP3   OH240257   8.197   0.734   5.003
13439TIP3    H140258   8.153   0.656   4.969
13439TIP3    H240259   8.259   0.758   4.934
13440TIP3   OH240260   7.794   0.033   4.716
13440TIP3    H140261   7.752   0.116   4.738
13440TIP3    H240262   7.723  -0.020   4.678
13441TIP3   OH240263   7.864   0.335   4.926
13441TIP3    H140264   7.909   0.254   4.948
13441TIP3    H240265   7.934   0.397   4.905
13442TIP3   OH240266   0.042   0.765   4.888
13442TIP3    H140267   0.080   0.681   4.863
13442TIP3    H240268   0.116   0.818   4.917
13443TIP3   OH240269   0.975   0.056   4.937
13443TIP3    H140270   1.014   0.135   4.974
13443TIP3    H240271   1.030   0.036   4.861
13444TIP3   OH240272   0.423   0.254   4.936
13444TIP3    H140273   0.473   0.177   4.962
13444TIP3    H240274   0.383   0.230   4.852
13445TIP3   OH240275   5.518   8.017   4.904
13445TIP3    H140276   5.501   8.091   4.847
13445TIP3    H240277   5.465   7.946   4.867
13446TIP3   OH240278   0.473   0.015   4.525
13446TIP3    H140279   0.537  -0.002   4.593
13446TIP3    H240280   0.525   0.032   4.447
13447TIP3   OH240281   8.006   0.118   5.016
13447TIP3    H140282   8.087   0.098   5.064
13447TIP3    H240283   8.014   0.069   4.935
13448TIP3   OH240284   8.435   0.317   4.823
13448TIP3    H140285   8.529   0.301   4.827
13448TIP3    H240286   8.398   0.234   4.791
13449TIP3   OH240287   1.072   0.272   5.072
13449TIP3    H140288   0.990   0.319   5.058
13449TIP3    H240289   1.081   0.268   5.168
13450TIP3   OH240290   0.124   0.750   4.327
13450TIP3    H140291   0.073   0.739   4.246
13450TIP3    H240292   0.155   0.841   4.323
13451TIP3   OH240293   8.504   0.651   5.098
13451TIP3    H140294   8.454   0.714   5.149
13451TIP3    H240295   8.546   0.704   5.030
13452TIP3   OH240296   0.644   0.008   4.736
13452TIP3    H140297   0.609  -0.021   4.820
13452TIP3    H240298   0.694   0.088   4.758
13453TIP3   OH240299   8.243   0.017   5.120
13453TIP3    H140300   8.304   0.079   5.159
13453TIP3    H240301   8.293  -0.025   5.049
13454TIP3   OH240302   8.323   0.798   5.238
13454TIP3    H140303   8.276   0.777   5.157
13454TIP3    H240304   8.254   0.825   5.299
13455TIP3   OH240305   7.691   0.552   4.496
13455TIP3    H140306   7.656   0.552   4.407
13455TIP3    H240307   7.741   0.633   4.503
13456TIP3   OH240308   0.475   0.984   4.734
13456TIP3    H140309   0.417   1.027   4.797
13456TIP3    H240310   0.541   1.051   4.713
13457TIP3   OH240311   6.520   8.060   5.097
13457TIP3    H140312   6.436   8.088   5.062
13457TIP3    H240313   6.585   8.095   5.035
13458TIP3   OH240314   5.861   7.714   5.054
13458TIP3    H140315   5.844   7.624   5.081
13458TIP3    H240316   5.790   7.764   5.096
13459TIP3   OH240317   0.404   0.866   4.290
13459TIP3    H140318   0.379   0.796   4.230
13459TIP3    H240319   0.393   0.829   4.377
13460TIP3   OH240320   0.042   0.391   4.316
13460TIP3    H140321  -0.037   0.441   4.292
13460TIP3    H240322   0.091   0.383   4.234
13461TIP3   OH240323   0.015   0.182   4.017
13461TIP3    H140324   0.081   0.234   4.063
13461TIP3    H240325   0.066   0.116   3.969
13462TIP3   OH240326   0.890   0.648   4.988
13462TIP3    H140327   0.807   0.694   5.000
13462TIP3    H240328   0.896   0.633   4.894
13463TIP3   OH240329   0.388   0.464   4.295
13463TIP3    H140330   0.334   0.492   4.369
13463TIP3    H240331   0.470   0.434   4.335
13464TIP3   OH240332   0.599   0.499   5.177
13464TIP3    H140333   0.628   0.586   5.150
13464TIP3    H240334   0.508   0.494   5.150
13465TIP3   OH240335   8.240   0.452   4.681
13465TIP3    H140336   8.205   0.392   4.615
13465TIP3    H240337   8.314   0.406   4.720
13466TIP3   OH240338   8.380   0.815   4.816
13466TIP3    H140339   8.384   0.825   4.721
13466TIP3    H240340   8.471   0.806   4.844
13467TIP3   OH240341   8.341   0.436   5.051
13467TIP3    H140342   8.376   0.397   4.971
13467TIP3    H240343   8.397   0.512   5.067
13468TIP3   OH240344   0.299   1.117   4.911
13468TIP3    H140345   0.268   1.174   4.981
13468TIP3    H240346   0.284   1.028   4.943
13469TIP3   OH240347   8.532   0.925   5.375
13469TIP3    H140348   8.478   0.989   5.422
13469TIP3    H240349   8.470   0.878   5.319
13470TIP3   OH240350   0.228   0.336   4.114
13470TIP3    H140351   0.288   0.388   4.167
13470TIP3    H240352   0.257   0.351   4.024
13471TIP3   OH240353   8.257   0.517   5.518
13471TIP3    H140354   8.270   0.607   5.549
13471TIP3    H240355   8.162   0.506   5.515
13472TIP3   OH240356   6.506   7.718   4.199
13472TIP3    H140357   6.414   7.721   4.225
13472TIP3    H240358   6.510   7.766   4.116
13473TIP3   OH240359   8.120   0.288   4.489
13473TIP3    H140360   8.040   0.330   4.459
13473TIP3    H240361   8.095   0.198   4.509
13474TIP3   OH240362   7.885   0.659   5.393
13474TIP3    H140363   7.813   0.639   5.333
13474TIP3    H240364   7.919   0.573   5.419
13475TIP3   OH240365   7.796   0.804   5.119
13475TIP3    H140366   7.877   0.849   5.093
13475TIP3    H240367   7.726   0.859   5.085
13476TIP3   OH240368   8.100   0.823   5.396
13476TIP3    H140369   8.137   0.794   5.479
13476TIP3    H240370   8.023   0.768   5.383
13477TIP3   OH240371   5.655   7.843   5.180
13477TIP3    H140372   5.618   7.808   5.261
13477TIP3    H240373   5.582   7.889   5.138
13478TIP3   OH240374   6.132   7.935   5.390
13478TIP3    H140375   6.205   7.909   5.445
13478TIP3    H240376   6.054   7.914   5.441
13479TIP3   OH240377   0.643   0.248   5.307
13479TIP3    H140378   0.607   0.251   5.396
13479TIP3    H240379   0.629   0.336   5.273
13480TIP3   OH240380   0.318   0.359   3.861
13480TIP3    H140381   0.272   0.340   3.779
13480TIP3    H240382   0.397   0.405   3.834
13481TIP3   OH240383   5.752   7.851   4.162
13481TIP3    H140384   5.715   7.855   4.250
13481TIP3    H240385   5.716   7.770   4.126
13482TIP3   OH240386   8.412   0.217   5.212
13482TIP3    H140387   8.362   0.231   5.293
13482TIP3    H240388   8.393   0.293   5.158
13483TIP3   OH240389   8.296   0.100   4.728
13483TIP3    H140390   8.206   0.077   4.752
13483TIP3    H240391   8.306   0.067   4.639
13484TIP3   OH240392   0.172   0.189   4.453
13484TIP3    H140393   0.122   0.259   4.410
13484TIP3    H240394   0.229   0.155   4.384
13485TIP3   OH240395   0.353   0.454   5.520
13485TIP3    H140396   0.338   0.390   5.590
13485TIP3    H240397   0.443   0.483   5.534
13486TIP3   OH240398   0.328   0.194   4.684
13486TIP3    H140399   0.263   0.220   4.618
13486TIP3    H240400   0.377   0.123   4.644
13487TIP3   OH240401   8.228   0.262   5.413
13487TIP3    H140402   8.252   0.339   5.465
13487TIP3    H240403   8.169   0.212   5.470
13488TIP3   OH240404   5.420   7.835   4.136
13488TIP3    H140405   5.407   7.835   4.231
13488TIP3    H240406   5.341   7.877   4.102
13489TIP3   OH240407   4.964   7.877   5.011
13489TIP3    H140408   5.037   7.911   5.061
13489TIP3    H240409   5.002   7.853   4.926
13490TIP3   OH240410   4.891   7.848   4.516
13490TIP3    H140411   4.935   7.882   4.438
13490TIP3    H240412   4.827   7.917   4.538
13491TIP3   OH240413   0.328   0.442   5.106
13491TIP3    H140414   0.365   0.382   5.042
13491TIP3    H240415   0.303   0.386   5.180
13492TIP3   OH240416   5.785   8.014   4.779
13492TIP3    H140417   5.709   8.013   4.837
13492TIP3    H240418   5.860   8.007   4.838
13493TIP3   OH240419   5.188   8.092   4.784
13493TIP3    H140420   5.099   8.095   4.749
13493TIP3    H240421   5.217   8.002   4.767
13494TIP3   OH240422   5.440   8.096   4.479
13494TIP3    H140423   5.534   8.106   4.465
13494TIP3    H240424   5.401   8.113   4.393
13495TIP3   OH240425   6.239   8.097   4.991
13495TIP3    H140426   6.212   8.121   5.080
13495TIP3    H240427   6.169   8.040   4.959
13496TIP3   OH240428   8.182   0.015   4.236
13496TIP3    H140429   8.118  -0.036   4.186
13496TIP3    H240430   8.239   0.054   4.170
13497TIP3   OH240431   8.258   0.769   5.624
13497TIP3    H140432   8.341   0.816   5.613
13497TIP3    H240433   8.203   0.829   5.675
13498TIP3   OH240434   0.102   0.264   4.863
13498TIP3    H140435   0.172   0.213   4.821
13498TIP3    H240436   0.100   0.232   4.953
13499TIP3   OH240437   5.337   7.848   4.771
13499TIP3    H140438   5.303   7.776   4.823
13499TIP3    H240439   5.364   7.808   4.688
13500TIP3   OH240440   0.079   0.191   5.125
13500TIP3    H140441  -0.009   0.192   5.163
13500TIP3    H240442   0.137   0.219   5.196
13501TIP3   OH240443   8.403   0.537   4.257
13501TIP3    H140444   8.340   0.465   4.247
13501TIP3    H240445   8.395   0.563   4.349
13502TIP3   OH240446   0.624   0.742   4.988
13502TIP3    H140447   0.655   0.829   4.960
13502TIP3    H240448   0.579   0.707   4.911
13503TIP3   OH240449   6.004   7.953   4.160
13503TIP3    H140450   5.911   7.931   4.156
13503TIP3    H240451   6.005   8.048   4.172
13504TIP3   OH240452   0.187   0.838   5.257
13504TIP3    H140453   0.226   0.800   5.336
13504TIP3    H240454   0.107   0.881   5.287
13505TIP3   OH240455   0.331   0.107   4.237
13505TIP3    H140456   0.426   0.107   4.243
13505TIP3    H240457   0.309   0.181   4.181
13506TIP3   OH240458   8.094   0.488   4.908
13506TIP3    H140459   8.136   0.484   4.822
13506TIP3    H240460   8.159   0.450   4.968
13507TIP3   OH240461   8.545   0.715   4.107
13507TIP3    H140462   8.477   0.775   4.074
13507TIP3    H240463   8.496   0.650   4.157
13508TIP3   OH240464   7.991   0.452   5.553
13508TIP3    H140465   8.003   0.445   5.648
13508TIP3    H240466   7.909   0.407   5.535
13509TIP3   OH240467   0.123   0.605   5.547
13509TIP3    H140468   0.062   0.553   5.495
13509TIP3    H240469   0.207   0.560   5.538
13510TIP3   OH240470   0.734   0.179   4.039
13510TIP3    H140471   0.676   0.129   3.981
13510TIP3    H240472   0.737   0.266   3.999
13511TIP3   OH240473   0.511   0.920   3.984
13511TIP3    H140474   0.479   0.926   4.074
13511TIP3    H240475   0.432   0.931   3.930
13512TIP3   OH240476   0.441   0.628   4.799
13512TIP3    H140477   0.352   0.596   4.816
13512TIP3    H240478   0.486   0.553   4.761
13513TIP3   OH240479   8.194   0.853   4.475
13513TIP3    H140480   8.207   0.948   4.481
13513TIP3    H240481   8.112   0.836   4.522
13514TIP3   OH240482   7.796   0.153   4.284
13514TIP3    H140483   7.843   0.232   4.309
13514TIP3    H240484   7.718   0.153   4.338
13515TIP3   OH240485   8.355   0.631   4.505
13515TIP3    H140486   8.302   0.710   4.503
13515TIP3    H240487   8.317   0.578   4.576
13516TIP3   OH240488   0.279   0.857   4.995
13516TIP3    H140489   0.260   0.846   5.088
13516TIP3    H240490   0.355   0.801   4.980
13517TIP3   OH240491   0.254   0.737   3.855
13517TIP3    H140492   0.284   0.712   3.942
13517TIP3    H240493   0.167   0.698   3.847
13518TIP3   OH240494   0.365   0.660   4.100
13518TIP3    H140495   0.354   0.594   4.168
13518TIP3    H240496   0.455   0.647   4.069
13519TIP3   OH240497   8.251   0.698   3.913
13519TIP3    H140498   8.247   0.610   3.876
13519TIP3    H240499   8.215   0.689   4.001
13520TIP3   OH240500   8.201   0.734   4.198
13520TIP3    H140501   8.258   0.658   4.212
13520TIP3    H240502   8.211   0.786   4.278
13521TIP3   OH240503   7.891   0.393   4.385
13521TIP3    H140504   7.825   0.433   4.442
13521TIP3    H240505   7.895   0.450   4.309
13522TIP3   OH240506   0.442   0.061   5.249
13522TIP3    H140507   0.525   0.102   5.277
13522TIP3    H240508   0.435  -0.018   5.303
13523TIP3   OH240509   6.055   7.907   4.430
13523TIP3    H140510   6.037   7.924   4.337
13523TIP3    H240511   6.098   7.987   4.461
13524TIP3   OH240512  -0.013  -0.005   4.522
13524TIP3    H140513   0.050   0.063   4.498
13524TIP3    H240514   0.007  -0.024   4.614
13525TIP3   OH240515   0.270   0.273   5.314
13525TIP3    H140516   0.304   0.325   5.387
13525TIP3    H240517   0.332   0.201   5.304
13526TIP3   OH240518   5.878   7.803   4.613
13526TIP3    H140519   5.856   7.881   4.664
13526TIP3    H240520   5.945   7.833   4.551
13527TIP3   OH240521   5.393   7.823   4.415
13527TIP3    H140522   5.382   7.913   4.446
13527TIP3    H240523   5.488   7.807   4.420
13528TIP3   OH240524   0.916   0.177   5.306
13528TIP3    H140525   0.824   0.205   5.305
13528TIP3    H240526   0.918   0.102   5.247
13529TIP3   OH240527   0.540   0.388   4.692
13529TIP3    H140528   0.465   0.332   4.710
13529TIP3    H240529   0.611   0.352   4.745
13530TIP3   OH240530   7.884   0.559   4.167
13530TIP3    H140531   7.914   0.649   4.162
13530TIP3    H240532   7.939   0.513   4.103
13531TIP3   OH240533   4.956   7.987   4.292
13531TIP3    H140534   4.963   8.082   4.294
13531TIP3    H240535   4.911   7.968   4.209
13532TIP3   OH240536   5.329   7.727   5.175
13532TIP3    H140537   5.312   7.691   5.088
13532TIP3    H240538   5.402   7.675   5.208
13533TIP3   OH240539   8.032   0.748   5.875
13533TIP3    H140540   8.075   0.664   5.860
13533TIP3    H240541   7.978   0.762   5.798
13534TIP3   OH240542   8.049   0.407   4.012
13534TIP3    H140543   8.102   0.379   4.087
13534TIP3    H240544   8.111   0.417   3.940
13535TIP3   OH240545   0.033   0.853   5.626
13535TIP3    H140546   0.011   0.883   5.538
13535TIP3    H240547   0.071   0.766   5.613
13536TIP3   OH240548   8.600   0.628   3.840
13536TIP3    H140549   8.566   0.644   3.928
13536TIP3    H240550   8.579   0.536   3.822
13537TIP3   OH240551   8.166   0.505   5.810
13537TIP3    H140552   8.239   0.499   5.748
13537TIP3    H240553   8.207   0.527   5.893
13538TIP3   OH240554   8.216   0.340   4.226
13538TIP3    H140555   8.190   0.305   4.310
13538TIP3    H240556   8.258   0.267   4.181
13539TIP3   OH240557   8.507   0.409   5.457
13539TIP3    H140558   8.428   0.462   5.465
13539TIP3    H240559   8.550   0.441   5.378
13540TIP3   OH240560   8.342   0.154   4.063
13540TIP3    H140561   8.312   0.155   3.972
13540TIP3    H240562   8.437   0.159   4.057
13541TIP3   OH240563   0.531   0.477   3.726
13541TIP3    H140564   0.511   0.426   3.648
13541TIP3    H240565   0.510   0.567   3.702
13542TIP3   OH240566   0.026   0.201   5.579
13542TIP3    H140567   0.022   0.129   5.515
13542TIP3    H240568  -0.010   0.276   5.532
13543TIP3   OH240569   0.065   0.512   5.264
13543TIP3    H140570   0.152   0.510   5.226
13543TIP3    H240571   0.013   0.565   5.203
13544TIP3   OH240572   8.477   0.290   5.807
13544TIP3    H140573   8.414   0.219   5.818
13544TIP3    H240574   8.508   0.281   5.718
13545TIP3   OH240575   5.857   7.853   5.450
13545TIP3    H140576   5.842   7.894   5.365
13545TIP3    H240577   5.777   7.803   5.467
13546TIP3   OH240578   0.281   0.241   5.679
13546TIP3    H140579   0.262   0.221   5.771
13546TIP3    H240580   0.198   0.229   5.634
13547TIP3   OH240581   0.524   0.202   5.552
13547TIP3    H140582   0.440   0.206   5.598
13547TIP3    H240583   0.577   0.142   5.605
13548TIP3   OH240584   8.332   0.057   5.860
13548TIP3    H140585   8.343  -0.034   5.830
13548TIP3    H240586   8.361   0.056   5.951
13549TIP3   OH240587   5.968   7.850   5.706
13549TIP3    H140588   6.035   7.783   5.704
13549TIP3    H240589   5.925   7.845   5.621
13550TIP3   OH240590   6.010   8.046   5.894
13550TIP3    H140591   5.995   7.995   5.815
13550TIP3    H240592   5.954   8.122   5.886
13551TIP3   OH240593   7.623   0.520   4.234
13551TIP3    H140594   7.710   0.544   4.201
13551TIP3    H240595   7.601   0.440   4.186
13552TIP3   OH240596   0.630   0.604   4.068
13552TIP3    H140597   0.668   0.692   4.059
13552TIP3    H240598   0.667   0.571   4.150
13553TIP3   OH240599   0.752   0.526   4.292
13553TIP3    H140600   0.700   0.471   4.350
13553TIP3    H240601   0.808   0.577   4.350
13554TIP3   OH240602   0.832   0.990   4.684
13554TIP3    H140603   0.903   0.928   4.670
13554TIP3    H240604   0.852   1.062   4.624
13555TIP3   OH240605   0.734   0.419   3.901
13555TIP3    H140606   0.667   0.421   3.833
13555TIP3    H240607   0.706   0.485   3.964
13556TIP3   OH240608   0.572   0.076   3.843
13556TIP3    H140609   0.532   0.101   3.759
13556TIP3    H240610   0.574  -0.020   3.841
13557TIP3   OH240611   0.608   0.346   4.433
13557TIP3    H140612   0.587   0.255   4.414
13557TIP3    H240613   0.579   0.359   4.524
13558TIP3   OH240614   7.851   0.400   5.189
13558TIP3    H140615   7.842   0.381   5.096
13558TIP3    H240616   7.943   0.424   5.201
13559TIP3   OH240617   6.298   7.911   3.826
13559TIP3    H140618   6.365   7.884   3.888
13559TIP3    H240619   6.219   7.866   3.854
13560TIP3   OH240620   0.614   0.099   4.290
13560TIP3    H140621   0.657   0.016   4.309
13560TIP3    H240622   0.655   0.129   4.208
13561TIP3   OH240623   0.748   0.252   4.817
13561TIP3    H140624   0.834   0.258   4.776
13561TIP3    H240625   0.761   0.289   4.905
13562TIP3   OH240626   0.823   0.391   5.044
13562TIP3    H140627   0.747   0.407   5.100
13562TIP3    H240628   0.859   0.477   5.027
13563TIP3   OH240629   8.070   0.119   5.812
13563TIP3    H140630   8.165   0.114   5.824
13563TIP3    H240631   8.037   0.037   5.849
13564TIP3   OH240632   6.446   7.966   4.368
13564TIP3    H140633   6.496   7.940   4.445
13564TIP3    H240634   6.392   7.889   4.347
13565TIP3   OH240635   5.170   7.947   5.191
13565TIP3    H140636   5.220   7.866   5.192
13565TIP3    H240637   5.235   8.016   5.174
13566TIP3   OH240638   7.823   0.111   5.231
13566TIP3    H140639   7.877   0.084   5.157
13566TIP3    H240640   7.839   0.205   5.239
13567TIP3   OH240641   6.531   7.885   3.982
13567TIP3    H140642   6.572   7.824   3.922
13567TIP3    H240643   6.589   7.961   3.983
13568TIP3   OH240644   4.950   7.722   4.749
13568TIP3    H140645   4.862   7.707   4.782
13568TIP3    H240646   4.938   7.773   4.669
13569TIP3   OH240647   5.219   7.820   5.585
13569TIP3    H140648   5.159   7.794   5.655
13569TIP3    H240649   5.163   7.856   5.517
13570TIP3   OH240650   8.108   0.985   5.703
13570TIP3    H140651   8.049   1.026   5.640
13570TIP3    H240652   8.073   1.011   5.789
13571TIP3   OH240653   6.783   7.986   5.255
13571TIP3    H140654   6.702   7.976   5.205
13571TIP3    H240655   6.828   7.902   5.245
13572TIP3   OH240656   6.017   7.922   4.912
13572TIP3    H140657   5.976   7.848   4.957
13572TIP3    H240658   6.085   7.882   4.858
13573TIP3   OH240659   6.513   7.818   4.806
13573TIP3    H140660   6.552   7.869   4.735
13573TIP3    H240661   6.420   7.842   4.804
13574TIP3   OH240662   6.624   7.903   4.571
13574TIP3    H140663   6.699   7.854   4.538
13574TIP3    H240664   6.652   7.995   4.567
13575TIP3   OH240665   5.251   7.634   4.922
13575TIP3    H140666   5.161   7.600   4.926
13575TIP3    H240667   5.305   7.556   4.912
13576TIP3   OH240668   5.074   7.525   4.572
13576TIP3    H140669   5.098   7.573   4.493
13576TIP3    H240670   5.039   7.591   4.632
13577TIP3   OH240671   5.730   7.665   4.805
13577TIP3    H140672   5.778   7.710   4.736
13577TIP3    H240673   5.776   7.688   4.885
13578TIP3   OH240674   6.229   7.804   4.780
13578TIP3    H140675   6.243   7.769   4.692
13578TIP3    H240676   6.232   7.728   4.838
13579TIP3   OH240677   6.271   7.751   4.343
13579TIP3    H140678   6.189   7.794   4.369
13579TIP3    H240679   6.263   7.662   4.378
13580TIP3   OH240680   5.178   7.657   4.332
13580TIP3    H140681   5.221   7.595   4.273
13580TIP3    H240682   5.249   7.712   4.365
13581TIP3   OH240683   5.668   7.851   4.427
13581TIP3    H140684   5.728   7.799   4.480
13581TIP3    H240685   5.685   7.942   4.454
13582TIP3   OH240686   5.473   7.864   5.774
13582TIP3    H140687   5.440   7.809   5.845
13582TIP3    H240688   5.562   7.886   5.801
13583TIP3   OH240689   5.706   7.912   5.916
13583TIP3    H140690   5.794   7.896   5.884
13583TIP3    H240691   5.694   7.849   5.987
13584TIP3   OH240692   6.560   7.924   5.692
13584TIP3    H140693   6.599   7.864   5.756
13584TIP3    H240694   6.634   7.956   5.640
13585TIP3   OH240695   0.954   0.294   4.175
13585TIP3    H140696   0.923   0.321   4.262
13585TIP3    H240697   0.879   0.247   4.138
13586TIP3   OH240698   0.989   0.577   4.483
13586TIP3    H140699   0.968   0.483   4.476
13586TIP3    H240700   1.069   0.587   4.432
13587TIP3   OH240701   1.470   0.220   4.398
13587TIP3    H140702   1.499   0.281   4.331
13587TIP3    H240703   1.391   0.180   4.361
13588TIP3   OH240704   1.212   0.366   4.455
13588TIP3    H140705   1.231   0.341   4.545
13588TIP3    H240706   1.209   0.283   4.407
13589TIP3   OH240707   1.722   0.543   4.175
13589TIP3    H140708   1.759   0.466   4.218
13589TIP3    H240709   1.629   0.522   4.165
13590TIP3   OH240710   1.563   0.336   4.679
13590TIP3    H140711   1.621   0.411   4.694
13590TIP3    H240712   1.501   0.367   4.613
13591TIP3   OH240713   0.803   1.049   3.846
13591TIP3    H140714   0.796   0.980   3.780
13591TIP3    H240715   0.859   1.013   3.914
13592TIP3   OH240716   7.638   7.929   4.560
13592TIP3    H140717   7.642   7.837   4.588
13592TIP3    H240718   7.552   7.959   4.587
13593TIP3   OH240719   1.221   0.774   4.057
13593TIP3    H140720   1.271   0.703   4.018
13593TIP3    H240721   1.285   0.843   4.075
13594TIP3   OH240722   1.321   0.480   3.943
13594TIP3    H140723   1.283   0.441   3.864
13594TIP3    H240724   1.260   0.457   4.013
13595TIP3   OH240725   7.398   8.000   4.667
13595TIP3    H140726   7.311   7.969   4.642
13595TIP3    H240727   7.402   8.090   4.635
13596TIP3   OH240728   7.545   8.096   3.599
13596TIP3    H140729   7.498   8.118   3.680
13596TIP3    H240730   7.505   8.013   3.571
13597TIP3   OH240731   1.493   0.378   4.175
13597TIP3    H140732   1.400   0.400   4.167
13597TIP3    H240733   1.514   0.332   4.093
13598TIP3   OH240734   7.185   8.063   3.622
13598TIP3    H140735   7.159   8.072   3.713
13598TIP3    H240736   7.123   8.119   3.574
13599TIP3   OH240737   0.964   0.057   4.490
13599TIP3    H140738   1.045   0.041   4.538
13599TIP3    H240739   0.973   0.006   4.410
13600TIP3   OH240740   0.956   0.005   4.007
13600TIP3    H140741   1.003   0.031   3.928
13600TIP3    H240742   0.883   0.067   4.014
13601TIP3   OH240743   1.765   0.312   4.313
13601TIP3    H140744   1.746   0.245   4.248
13601TIP3    H240745   1.848   0.284   4.352
13602TIP3   OH240746   1.218   0.120   4.307
13602TIP3    H140747   1.131   0.117   4.265
13602TIP3    H240748   1.274   0.068   4.248
13603TIP3   OH240749   1.593   0.264   3.928
13603TIP3    H140750   1.655   0.329   3.896
13603TIP3    H240751   1.524   0.261   3.862
13604TIP3   OH240752   1.357   0.251   3.751
13604TIP3    H140753   1.305   0.199   3.690
13604TIP3    H240754   1.387   0.326   3.698
13605TIP3   OH240755   7.138   8.047   4.211
13605TIP3    H140756   7.104   7.965   4.245
13605TIP3    H240757   7.139   8.035   4.116
13606TIP3   OH240758   0.934   0.389   3.715
13606TIP3    H140759   0.994   0.464   3.716
13606TIP3    H240760   0.870   0.408   3.783
13607TIP3   OH240761   1.128   0.582   3.746
13607TIP3    H140762   1.098   0.563   3.835
13607TIP3    H240763   1.197   0.648   3.758
13608TIP3   OH240764   2.025   0.153   3.977
13608TIP3    H140765   2.070   0.154   4.062
13608TIP3    H240766   2.087   0.109   3.918
13609TIP3   OH240767   7.159   8.057   3.915
13609TIP3    H140768   7.131   8.142   3.949
13609TIP3    H240769   7.249   8.070   3.887
13610TIP3   OH240770   1.002   0.126   3.767
13610TIP3    H140771   0.985   0.218   3.749
13610TIP3    H240772   0.943   0.079   3.708
13611TIP3   OH240773   7.164   7.882   4.610
13611TIP3    H140774   7.095   7.943   4.585
13611TIP3    H240775   7.130   7.837   4.687
13612TIP3   OH240776   0.797   0.833   3.649
13612TIP3    H140777   0.872   0.884   3.619
13612TIP3    H240778   0.798   0.754   3.597
13613TIP3   OH240779   1.017   0.792   4.649
13613TIP3    H140780   1.004   0.706   4.610
13613TIP3    H240781   1.110   0.810   4.637
13614TIP3   OH240782   1.171   0.010   4.756
13614TIP3    H140783   1.199  -0.035   4.676
13614TIP3    H240784   1.211   0.097   4.750
13615TIP3   OH240785   0.988   0.319   4.707
13615TIP3    H140786   0.960   0.330   4.616
13615TIP3    H240787   1.010   0.408   4.736
13616TIP3   OH240788   6.716   8.020   4.260
13616TIP3    H140789   6.638   7.965   4.270
13616TIP3    H240790   6.715   8.047   4.168
13617TIP3   OH240791   6.979   8.017   5.037
13617TIP3    H140792   6.918   8.043   5.106
13617TIP3    H240793   6.942   8.055   4.957
13618TIP3   OH240794   2.135   0.099   4.484
13618TIP3    H140795   2.131   0.008   4.513
13618TIP3    H240796   2.166   0.094   4.393
13619TIP3   OH240797   7.032   7.827   4.332
13619TIP3    H140798   6.946   7.787   4.344
13619TIP3    H240799   7.094   7.764   4.370
13620TIP3   OH240800   6.875   7.767   4.050
13620TIP3    H140801   6.889   7.803   3.962
13620TIP3    H240802   6.824   7.835   4.096
13621TIP3   OH240803   7.463   7.872   4.224
13621TIP3    H140804   7.511   7.905   4.148
13621TIP3    H240805   7.441   7.951   4.273
13622TIP3   OH240806   6.962   7.898   3.812
13622TIP3    H140807   7.008   7.838   3.754
13622TIP3    H240808   7.031   7.948   3.855
13623TIP3   OH240809   7.419   8.099   3.845
13623TIP3    H140810   7.464   8.025   3.887
13623TIP3    H240811   7.428   8.171   3.907
13624TIP3   OH240812   7.547   5.866   0.812
13624TIP3    H140813   7.544   5.962   0.812
13624TIP3    H240814   7.639   5.845   0.828
13625TIP3   OH240815   7.032   6.095   1.007
13625TIP3    H140816   7.095   6.023   1.003
13625TIP3    H240817   6.969   6.067   1.073
13626TIP3   OH240818   7.256   5.257   1.163
13626TIP3    H140819   7.213   5.179   1.196
13626TIP3    H240820   7.349   5.235   1.163
13627TIP3   OH240821   7.324   5.688   1.147
13627TIP3    H140822   7.333   5.691   1.242
13627TIP3    H240823   7.414   5.692   1.114
13628TIP3   OH240824   7.111   5.497   1.148
13628TIP3    H140825   7.184   5.559   1.148
13628TIP3    H240826   7.152   5.411   1.152
13629TIP3   OH240827   7.516   6.123   0.856
13629TIP3    H140828   7.586   6.188   0.841
13629TIP3    H240829   7.435   6.171   0.840
13630TIP3   OH240830   6.604   5.580   0.884
13630TIP3    H140831   6.550   5.571   0.963
13630TIP3    H240832   6.693   5.560   0.913
13631TIP3   OH240833   7.078   5.803   0.919
13631TIP3    H140834   7.158   5.834   0.961
13631TIP3    H240835   7.093   5.814   0.826
13632TIP3   OH240836   7.457   5.331   0.944
13632TIP3    H140837   7.464   5.254   0.887
13632TIP3    H240838   7.398   5.390   0.898
13633TIP3   OH240839   7.698   5.236   1.139
13633TIP3    H140840   7.689   5.203   1.049
13633TIP3    H240841   7.643   5.177   1.191
13634TIP3   OH240842   7.450   4.810   1.141
13634TIP3    H140843   7.538   4.822   1.177
13634TIP3    H240844   7.461   4.823   1.046
13635TIP3   OH240845   6.604   5.928   1.308
13635TIP3    H140846   6.667   5.993   1.340
13635TIP3    H240847   6.617   5.928   1.213
13636TIP3   OH240848   7.456   6.131   1.359
13636TIP3    H140849   7.502   6.064   1.307
13636TIP3    H240850   7.387   6.163   1.302
13637TIP3   OH240851   0.324   5.644   1.193
13637TIP3    H140852   0.296   5.731   1.163
13637TIP3    H240853   0.256   5.585   1.159
13638TIP3   OH240854   0.581   5.911   1.245
13638TIP3    H140855   0.548   5.854   1.314
13638TIP3    H240856   0.585   5.998   1.285
13639TIP3   OH240857   0.240   6.392   1.285
13639TIP3    H140858   0.265   6.317   1.231
13639TIP3    H240859   0.248   6.360   1.375
13640TIP3   OH240860   0.218   5.863   1.047
13640TIP3    H140861   0.179   5.838   0.963
13640TIP3    H240862   0.164   5.936   1.077
13641TIP3   OH240863   7.881   5.679   1.187
13641TIP3    H140864   7.820   5.634   1.127
13641TIP3    H240865   7.838   5.763   1.205
13642TIP3   OH240866   0.572   6.165   1.360
13642TIP3    H140867   0.493   6.176   1.412
13642TIP3    H240868   0.604   6.254   1.345
13643TIP3   OH240869   0.330   6.222   1.079
13643TIP3    H140870   0.382   6.144   1.063
13643TIP3    H240871   0.387   6.295   1.052
13644TIP3   OH240872   0.470   5.998   1.007
13644TIP3    H140873   0.400   5.934   0.996
13644TIP3    H240874   0.522   5.965   1.080
13645TIP3   OH240875   0.154   5.491   1.039
13645TIP3    H140876   0.073   5.538   1.019
13645TIP3    H240877   0.200   5.486   0.955
13646TIP3   OH240878   0.105   5.290   0.737
13646TIP3    H140879   0.168   5.345   0.784
13646TIP3    H240880   0.160   5.224   0.694
13647TIP3   OH240881   0.500   5.554   0.997
13647TIP3    H140882   0.456   5.586   1.076
13647TIP3    H240883   0.571   5.499   1.030
13648TIP3   OH240884   8.339   5.573   1.374
13648TIP3    H140885   8.329   5.514   1.299
13648TIP3    H240886   8.350   5.514   1.449
13649TIP3   OH240887   0.372   6.175   1.541
13649TIP3    H140888   0.354   6.266   1.564
13649TIP3    H240889   0.365   6.127   1.623
13650TIP3   OH240890   0.319   5.450   0.820
13650TIP3    H140891   0.386   5.497   0.869
13650TIP3    H240892   0.350   5.453   0.729
13651TIP3   OH240893   0.079   6.107   1.089
13651TIP3    H140894   0.163   6.152   1.095
13651TIP3    H240895   0.021   6.169   1.044
13652TIP3   OH240896   8.291   5.401   1.163
13652TIP3    H140897   8.208   5.442   1.139
13652TIP3    H240898   8.267   5.314   1.194
13653TIP3   OH240899   0.655   6.036   0.441
13653TIP3    H140900   0.655   6.130   0.422
13653TIP3    H240901   0.744   6.008   0.420
13654TIP3   OH240902   8.567   6.333   0.915
13654TIP3    H140903   8.525   6.318   0.830
13654TIP3    H240904   8.537   6.420   0.941
13655TIP3   OH240905   8.139   6.175   1.346
13655TIP3    H140906   8.173   6.200   1.432
13655TIP3    H240907   8.044   6.170   1.358
13656TIP3   OH240908   0.173   6.257   0.544
13656TIP3    H140909   0.223   6.183   0.508
13656TIP3    H240910   0.209   6.269   0.632
13657TIP3   OH240911   0.222   6.303   0.815
13657TIP3    H140912   0.136   6.306   0.857
13657TIP3    H240913   0.280   6.265   0.881
13658TIP3   OH240914   0.410   5.426   0.563
13658TIP3    H140915   0.366   5.423   0.478
13658TIP3    H240916   0.489   5.478   0.548
13659TIP3   OH240917   0.246   5.261   1.159
13659TIP3    H140918   0.211   5.345   1.129
13659TIP3    H240919   0.310   5.237   1.093
13660TIP3   OH240920   8.401   5.067   1.203
13660TIP3    H140921   8.496   5.064   1.196
13660TIP3    H240922   8.370   5.073   1.113
13661TIP3   OH240923   8.287   5.097   0.952
13661TIP3    H140924   8.223   5.052   0.896
13661TIP3    H240925   8.342   5.145   0.891
13662TIP3   OH240926   8.532   5.635   0.969
13662TIP3    H140927   8.455   5.586   0.941
13662TIP3    H240928   8.505   5.677   1.051
13663TIP3   OH240929   0.332   4.987   0.792
13663TIP3    H140930   0.357   4.909   0.841
13663TIP3    H240931   0.359   5.060   0.848
13664TIP3   OH240932   0.404   5.211   0.935
13664TIP3    H140933   0.496   5.221   0.962
13664TIP3    H240934   0.384   5.292   0.888
13665TIP3   OH240935   0.081   5.795   0.807
13665TIP3    H140936   0.031   5.877   0.808
13665TIP3    H240937   0.028   5.735   0.861
13666TIP3   OH240938   0.896   5.272   0.700
13666TIP3    H140939   0.818   5.225   0.670
13666TIP3    H240940   0.874   5.364   0.688
13667TIP3   OH240941   0.583   6.107   0.708
13667TIP3    H140942   0.562   6.038   0.771
13667TIP3    H240943   0.602   6.060   0.627
13668TIP3   OH240944   8.373   6.009   1.286
13668TIP3    H140945   8.372   6.070   1.212
13668TIP3    H240946   8.280   5.999   1.309
13669TIP3   OH240947   7.969   5.229   1.044
13669TIP3    H140948   8.038   5.292   1.026
13669TIP3    H240949   7.893   5.282   1.067
13670TIP3   OH240950   8.448   5.756   1.195
13670TIP3    H140951   8.442   5.846   1.228
13670TIP3    H240952   8.411   5.702   1.266
13671TIP3   OH240953   8.284   6.218   1.119
13671TIP3    H140954   8.227   6.205   1.194
13671TIP3    H240955   8.296   6.313   1.114
13672TIP3   OH240956   0.351   5.842   0.612
13672TIP3    H140957   0.411   5.814   0.682
13672TIP3    H240958   0.264   5.815   0.643
13673TIP3   OH240959   0.552   6.491   1.774
13673TIP3    H140960   0.604   6.411   1.780
13673TIP3    H240961   0.583   6.534   1.695
13674TIP3   OH240962   0.667   6.310   0.403
13674TIP3    H140963   0.687   6.370   0.331
13674TIP3    H240964   0.594   6.352   0.449
13675TIP3   OH240965   0.528   5.752   0.802
13675TIP3    H140966   0.512   5.691   0.874
13675TIP3    H240967   0.623   5.761   0.798
13676TIP3   OH240968   8.310   5.812   0.603
13676TIP3    H140969   8.332   5.726   0.567
13676TIP3    H240970   8.310   5.799   0.698
13677TIP3   OH240971   8.287   5.821   0.882
13677TIP3    H140972   8.318   5.801   0.970
13677TIP3    H240973   8.284   5.917   0.878
13678TIP3   OH240974   8.068   5.519   1.068
13678TIP3    H140975   8.005   5.561   1.126
13678TIP3    H240976   8.121   5.592   1.034
13679TIP3   OH240977   8.530   6.020   0.812
13679TIP3    H140978   8.444   6.039   0.848
13679TIP3    H240979   8.551   6.095   0.757
13680TIP3   OH240980   0.087   5.048   1.208
13680TIP3    H140981   0.131   5.132   1.196
13680TIP3    H240982   0.149   4.983   1.174
13681TIP3   OH240983   8.267   6.094   0.879
13681TIP3    H140984   8.251   6.163   0.814
13681TIP3    H240985   8.278   6.141   0.961
13682TIP3   OH240986   8.025   5.731   0.861
13682TIP3    H140987   8.094   5.788   0.896
13682TIP3    H240988   8.068   5.682   0.790
13683TIP3   OH240989   7.955   4.959   0.997
13683TIP3    H140990   7.977   5.051   1.006
13683TIP3    H240991   7.897   4.940   1.071
13684TIP3   OH240992   0.646   6.439   1.331
13684TIP3    H140993   0.592   6.491   1.272
13684TIP3    H240994   0.736   6.467   1.313
13685TIP3   OH240995   7.793   5.924   1.267
13685TIP3    H140996   7.818   5.927   1.360
13685TIP3    H240997   7.797   6.015   1.239
13686TIP3   OH240998   8.464   6.016   0.499
13686TIP3    H140999   8.418   5.944   0.541
13686TIP3    H241000   8.539   5.974   0.456
13687TIP3   OH241001   0.302   6.045   0.426
13687TIP3    H141002   0.337   5.982   0.490
13687TIP3    H241003   0.363   6.040   0.352
13688TIP3   OH241004   8.159   5.541   0.702
13688TIP3    H141005   8.220   5.519   0.772
13688TIP3    H241006   8.213   5.547   0.623
13689TIP3   OH241007   0.055   5.728   0.541
13689TIP3    H141008   0.056   5.742   0.635
13689TIP3    H241009   0.053   5.633   0.530
13690TIP3   OH241010   8.331   5.456   0.898
13690TIP3    H141011   8.329   5.429   0.990
13690TIP3    H241012   8.372   5.382   0.853
13691TIP3   OH241013   8.438   5.239   0.772
13691TIP3    H141014   8.411   5.246   0.680
13691TIP3    H241015   8.533   5.250   0.770
13692TIP3   OH241016   0.627   5.556   0.452
13692TIP3    H141017   0.616   5.516   0.366
13692TIP3    H241018   0.600   5.647   0.440
13693TIP3   OH241019   8.255   6.305   0.703
13693TIP3    H141020   8.347   6.291   0.680
13693TIP3    H241021   8.218   6.349   0.628
13694TIP3   OH241022   7.771   5.668   0.793
13694TIP3    H141023   7.853   5.702   0.828
13694TIP3    H241024   7.788   5.574   0.778
13695TIP3   OH241025   7.670   6.317   1.348
13695TIP3    H141026   7.621   6.268   1.282
13695TIP3    H241027   7.654   6.270   1.429
13696TIP3   OH241028   0.885   6.560   1.276
13696TIP3    H141029   0.900   6.647   1.312
13696TIP3    H241030   0.947   6.553   1.203
13697TIP3   OH241031   0.805   5.749   0.803
13697TIP3    H141032   0.856   5.816   0.758
13697TIP3    H241033   0.858   5.727   0.880
13698TIP3   OH241034   0.831   5.532   0.634
13698TIP3    H141035   0.756   5.546   0.577
13698TIP3    H241036   0.824   5.600   0.701
13699TIP3   OH241037   0.672   5.197   0.556
13699TIP3    H141038   0.662   5.285   0.519
13699TIP3    H241039   0.633   5.139   0.491
13700TIP3   OH241040   0.473   6.426   0.973
13700TIP3    H141041   0.522   6.409   0.893
13700TIP3    H241042   0.524   6.493   1.018
13701TIP3   OH241043   0.121   6.607   1.545
13701TIP3    H141044   0.053   6.549   1.510
13701TIP3    H241045   0.117   6.685   1.490
13702TIP3   OH241046   0.327   6.433   1.601
13702TIP3    H141047   0.258   6.498   1.592
13702TIP3    H241048   0.387   6.470   1.665
13703TIP3   OH241049   0.585   6.618   1.529
13703TIP3    H141050   0.524   6.674   1.480
13703TIP3    H241051   0.602   6.545   1.470
13704TIP3   OH241052   8.428   6.249   1.445
13704TIP3    H141053   8.431   6.169   1.392
13704TIP3    H241054   8.402   6.219   1.532
13705TIP3   OH241055   7.789   6.161   1.114
13705TIP3    H141056   7.826   6.121   1.036
13705TIP3    H241057   7.710   6.205   1.084
13706TIP3   OH241058   8.516   6.243   0.642
13706TIP3    H141059   8.600   6.269   0.605
13706TIP3    H241060   8.487   6.171   0.585
13707TIP3   OH241061   0.610   6.375   0.738
13707TIP3    H141062   0.607   6.280   0.732
13707TIP3    H241063   0.567   6.406   0.658
13708TIP3   OH241064   7.811   6.079   0.689
13708TIP3    H141065   7.817   6.135   0.766
13708TIP3    H241066   7.895   6.035   0.683
13709TIP3   OH241067   0.958   5.933   0.666
13709TIP3    H141068   0.929   5.956   0.578
13709TIP3    H241069   0.991   6.015   0.703
13710TIP3   OH241070   1.738   6.577   0.418
13710TIP3    H141071   1.696   6.556   0.335
13710TIP3    H241072   1.706   6.665   0.440
13711TIP3   OH241073   1.179   6.438   0.749
13711TIP3    H141074   1.209   6.408   0.834
13711TIP3    H241075   1.126   6.365   0.715
13712TIP3   OH241076   1.959   6.501   0.012
13712TIP3    H141077   2.018   6.429  -0.012
13712TIP3    H241078   1.993   6.533   0.096
13713TIP3   OH241079   1.979   6.555   0.292
13713TIP3    H141080   1.904   6.570   0.349
13713TIP3    H241081   2.053   6.549   0.351
13714TIP3   OH241082   1.465   6.197   0.729
13714TIP3    H141083   1.443   6.281   0.689
13714TIP3    H241084   1.382   6.148   0.730
13715TIP3   OH241085   1.043   5.536   0.458
13715TIP3    H141086   1.100   5.609   0.482
13715TIP3    H241087   0.973   5.537   0.524
13716TIP3   OH241088   1.423   6.458   0.623
13716TIP3    H141089   1.335   6.466   0.660
13716TIP3    H241090   1.463   6.543   0.637
13717TIP3   OH241091   8.166   2.516   6.923
13717TIP3    H141092   8.197   2.550   6.839
13717TIP3    H241093   8.086   2.566   6.941
13718TIP3   OH241094   1.486   6.084   0.105
13718TIP3    H141095   1.496   5.993   0.076
13718TIP3    H241096   1.465   6.077   0.198
13719TIP3   OH241097   1.401   6.107   0.375
13719TIP3    H141098   1.453   6.088   0.453
13719TIP3    H241099   1.412   6.201   0.361
13720TIP3   OH241100   1.163   5.773   0.548
13720TIP3    H141101   1.109   5.810   0.618
13720TIP3    H241102   1.166   5.842   0.481
13721TIP3   OH241103   1.689   6.179   0.336
13721TIP3    H141104   1.629   6.254   0.335
13721TIP3    H241105   1.773   6.215   0.307
13722TIP3   OH241106   1.472   6.368   0.365
13722TIP3    H141107   1.447   6.437   0.303
13722TIP3    H241108   1.457   6.406   0.451
13723TIP3   OH241109   1.172   5.962   0.341
13723TIP3    H141110   1.242   6.027   0.353
13723TIP3    H241111   1.211   5.897   0.283
13724TIP3   OH241112   1.073   5.262   0.492
13724TIP3    H141113   1.074   5.357   0.480
13724TIP3    H241114   1.023   5.249   0.572
13725TIP3   OH241115   1.017   6.202   0.735
13725TIP3    H141116   0.979   6.241   0.814
13725TIP3    H241117   0.973   6.246   0.663
13726TIP3   OH241118   1.649   6.274  -0.004
13726TIP3    H141119   1.587   6.213   0.037
13726TIP3    H241120   1.726   6.220  -0.023
13727TIP3   OH241121   7.857   2.238   6.944
13727TIP3    H141122   7.867   2.149   6.978
13727TIP3    H241123   7.892   2.233   6.855
13728TIP3   OH241124   1.304   5.769   0.200
13728TIP3    H141125   1.343   5.709   0.264
13728TIP3    H241126   1.376   5.790   0.140
13729TIP3   OH241127   1.810   6.030   0.004
13729TIP3    H141128   1.773   6.043   0.092
13729TIP3    H241129   1.809   5.936  -0.010
13730TIP3   OH241130   1.442   6.573   0.185
13730TIP3    H141131   1.535   6.558   0.165
13730TIP3    H241132   1.407   6.616   0.107
13731TIP3   OH241133   0.907   5.944   0.383
13731TIP3    H141134   1.000   5.963   0.372
13731TIP3    H241135   0.896   5.857   0.344
13732TIP3   OH241136   0.818   6.532   0.821
13732TIP3    H141137   0.750   6.482   0.775
13732TIP3    H241138   0.863   6.467   0.874
13733TIP3   OH241139   0.943   6.340   0.974
13733TIP3    H141140   0.935   6.270   1.038
13733TIP3    H241141   0.998   6.405   1.017
13734TIP3   OH241142   1.109   6.532   1.096
13734TIP3    H141143   1.158   6.578   1.164
13734TIP3    H241144   1.171   6.466   1.063
13735TIP3   OH241145   0.915   6.343   0.525
13735TIP3    H141146   0.831   6.309   0.495
13735TIP3    H241147   0.916   6.434   0.497
13736TIP3   OH241148   1.702   6.504   0.136
13736TIP3    H141149   1.785   6.530   0.094
13736TIP3    H241150   1.676   6.424   0.091
13737TIP3   OH241151   1.010   6.337   0.190
13737TIP3    H141152   1.012   6.346   0.285
13737TIP3    H241153   1.092   6.292   0.168
13738TIP3   OH241154   5.338   7.390   1.050
13738TIP3    H141155   5.327   7.463   0.990
13738TIP3    H241156   5.429   7.362   1.037
13739TIP3   OH241157   5.215   7.667   1.023
13739TIP3    H141158   5.291   7.688   0.969
13739TIP3    H241159   5.215   7.733   1.092
13740TIP3   OH241160   4.967   7.304   1.116
13740TIP3    H141161   4.992   7.340   1.201
13740TIP3    H241162   4.983   7.376   1.054
13741TIP3   OH241163   5.228   6.865   1.040
13741TIP3    H141164   5.307   6.811   1.049
13741TIP3    H241165   5.255   6.952   1.067
13742TIP3   OH241166   6.580   7.222   1.299
13742TIP3    H141167   6.615   7.278   1.368
13742TIP3    H241168   6.638   7.145   1.299
13743TIP3   OH241169   7.030   7.523   1.413
13743TIP3    H141170   7.096   7.457   1.430
13743TIP3    H241171   7.062   7.602   1.457
13744TIP3   OH241172   6.734   7.972   1.472
13744TIP3    H141173   6.784   7.916   1.413
13744TIP3    H241174   6.766   7.950   1.559
13745TIP3   OH241175   6.581   7.444   1.129
13745TIP3    H141176   6.613   7.371   1.182
13745TIP3    H241177   6.586   7.520   1.187
13746TIP3   OH241178   7.141   7.736   1.543
13746TIP3    H141179   7.121   7.730   1.637
13746TIP3    H241180   7.114   7.824   1.518
13747TIP3   OH241181   6.850   7.822   1.276
13747TIP3    H141182   6.899   7.746   1.245
13747TIP3    H241183   6.878   7.893   1.219
13748TIP3   OH241184   6.947   7.592   1.163
13748TIP3    H141185   6.963   7.521   1.101
13748TIP3    H241186   6.976   7.558   1.247
13749TIP3   OH241187   6.456   6.936   1.187
13749TIP3    H141188   6.461   7.008   1.124
13749TIP3    H241189   6.532   6.882   1.167
13750TIP3   OH241190   6.541   6.866   0.861
13750TIP3    H141191   6.564   6.918   0.938
13750TIP3    H241192   6.625   6.833   0.829
13751TIP3   OH241193   6.853   7.318   1.204
13751TIP3    H141194   6.832   7.276   1.121
13751TIP3    H241195   6.948   7.309   1.212
13752TIP3   OH241196   6.801   6.934   0.890
13752TIP3    H141197   6.895   6.935   0.905
13752TIP3    H241198   6.790   6.971   0.803
13753TIP3   OH241199   6.630   7.664   1.289
13753TIP3    H141200   6.703   7.724   1.275
13753TIP3    H241201   6.556   7.704   1.245
13754TIP3   OH241202   7.257   6.218   0.879
13754TIP3    H141203   7.196   6.210   0.952
13754TIP3    H241204   7.283   6.310   0.879
13755TIP3   OH241205   7.105   7.592   0.583
13755TIP3    H141206   7.106   7.685   0.559
13755TIP3    H241207   7.195   7.563   0.570
13756TIP3   OH241208   6.427   7.959   0.977
13756TIP3    H141209   6.384   7.943   0.893
13756TIP3    H241210   6.410   8.051   0.997
13757TIP3   OH241211   6.599   7.817   0.682
13757TIP3    H141212   6.651   7.743   0.650
13757TIP3    H241213   6.644   7.844   0.762
13758TIP3   OH241214   6.688   7.902   0.929
13758TIP3    H141215   6.600   7.914   0.964
13758TIP3    H241216   6.714   7.815   0.958
13759TIP3   OH241217   6.816   7.066   0.656
13759TIP3    H141218   6.807   7.031   0.567
13759TIP3    H241219   6.906   7.095   0.661
13760TIP3   OH241220   6.505   6.376   1.046
13760TIP3    H141221   6.498   6.418   1.132
13760TIP3    H241222   6.472   6.287   1.060
13761TIP3   OH241223   6.743   7.019   1.284
13761TIP3    H141224   6.713   6.932   1.254
13761TIP3    H241225   6.833   7.025   1.253
13762TIP3   OH241226   6.164   6.314   1.011
13762TIP3    H141227   6.147   6.341   1.102
13762TIP3    H241228   6.180   6.396   0.965
13763TIP3   OH241229   6.123   6.551   1.161
13763TIP3    H141230   6.054   6.540   1.096
13763TIP3    H241231   6.173   6.627   1.131
13764TIP3   OH241232   6.317   7.243   1.276
13764TIP3    H141233   6.298   7.182   1.205
13764TIP3    H241234   6.406   7.219   1.305
13765TIP3   OH241235   6.906   6.548   0.867
13765TIP3    H141236   6.811   6.554   0.877
13765TIP3    H241237   6.941   6.611   0.930
13766TIP3   OH241238   6.958   6.745   1.049
13766TIP3    H141239   7.003   6.738   1.134
13766TIP3    H241240   7.006   6.813   1.002
13767TIP3   OH241241   6.457   7.364   0.902
13767TIP3    H141242   6.412   7.445   0.879
13767TIP3    H241243   6.516   7.389   0.973
13768TIP3   OH241244   7.395   6.888   0.839
13768TIP3    H141245   7.321   6.835   0.808
13768TIP3    H241246   7.367   6.978   0.827
13769TIP3   OH241247   7.039   7.661   0.842
13769TIP3    H141248   7.013   7.582   0.890
13769TIP3    H241249   7.058   7.631   0.753
13770TIP3   OH241250   6.027   7.741   1.274
13770TIP3    H141251   5.965   7.788   1.328
13770TIP3    H241252   6.107   7.738   1.325
13771TIP3   OH241253   6.782   7.408   0.739
13771TIP3    H141254   6.835   7.427   0.817
13771TIP3    H241255   6.730   7.332   0.763
13772TIP3   OH241256   7.115   7.866   0.548
13772TIP3    H141257   7.136   7.925   0.476
13772TIP3    H241258   7.043   7.909   0.595
13773TIP3   OH241259   6.975   7.408   0.947
13773TIP3    H141260   6.927   7.326   0.949
13773TIP3    H241261   7.067   7.382   0.940
13774TIP3   OH241262   6.163   7.379   0.691
13774TIP3    H141263   6.179   7.293   0.652
13774TIP3    H241264   6.164   7.364   0.785
13775TIP3   OH241265   6.156   7.334   0.958
13775TIP3    H141266   6.198   7.255   0.990
13775TIP3    H241267   6.177   7.401   1.023
13776TIP3   OH241268   5.856   7.082   1.273
13776TIP3    H141269   5.858   7.113   1.363
13776TIP3    H241270   5.842   7.161   1.220
13777TIP3   OH241271   6.832   6.285   1.177
13777TIP3    H141272   6.784   6.251   1.102
13777TIP3    H241273   6.792   6.370   1.195
13778TIP3   OH241274   6.388   7.621   0.899
13778TIP3    H141275   6.371   7.668   0.981
13778TIP3    H241276   6.378   7.687   0.831
13779TIP3   OH241277   6.142   7.732   1.028
13779TIP3    H141278   6.102   7.793   0.967
13779TIP3    H241279   6.089   7.739   1.107
13780TIP3   OH241280   5.826   7.283   1.097
13780TIP3    H141281   5.867   7.357   1.142
13780TIP3    H241282   5.847   7.297   1.004
13781TIP3   OH241283   7.084   8.002   1.472
13781TIP3    H141284   7.035   8.064   1.417
13781TIP3    H241285   7.176   8.018   1.451
13782TIP3   OH241286   6.307   7.601   0.614
13782TIP3    H141287   6.268   7.523   0.653
13782TIP3    H241288   6.385   7.569   0.570
13783TIP3   OH241289   6.743   7.616   0.567
13783TIP3    H141290   6.770   7.548   0.629
13783TIP3    H241291   6.806   7.607   0.495
13784TIP3   OH241292   6.010   7.102   0.848
13784TIP3    H141293   6.010   7.048   0.927
13784TIP3    H241294   6.097   7.089   0.810
13785TIP3   OH241295   6.463   7.288   0.640
13785TIP3    H141296   6.456   7.306   0.734
13785TIP3    H241297   6.464   7.192   0.635
13786TIP3   OH241298   5.998   6.953   1.077
13786TIP3    H141299   5.957   6.979   1.159
13786TIP3    H241300   6.053   6.878   1.100
13787TIP3   OH241301   6.217   6.779   1.041
13787TIP3    H141302   6.228   6.831   0.961
13787TIP3    H241303   6.305   6.744   1.059
13788TIP3   OH241304   7.081   7.119   0.551
13788TIP3    H141305   7.074   7.078   0.464
13788TIP3    H241306   7.047   7.208   0.538
13789TIP3   OH241307   6.076   7.906   0.828
13789TIP3    H141308   6.167   7.886   0.806
13789TIP3    H241309   6.038   7.938   0.746
13790TIP3   OH241310   5.582   7.287   0.986
13790TIP3    H141311   5.655   7.309   1.044
13790TIP3    H241312   5.605   7.202   0.949
13791TIP3   OH241313   1.612  -0.030   1.453
13791TIP3    H141314   1.598   0.039   1.517
13791TIP3    H241315   1.676   0.007   1.391
13792TIP3   OH241316   7.237   7.348   0.952
13792TIP3    H141317   7.303   7.395   0.901
13792TIP3    H241318   7.285   7.313   1.027
13793TIP3   OH241319   7.351   7.269   1.191
13793TIP3    H141320   7.263   7.260   1.229
13793TIP3    H241321   7.392   7.337   1.244
13794TIP3   OH241322   7.344   7.502   1.498
13794TIP3    H141323   7.437   7.509   1.520
13794TIP3    H241324   7.313   7.593   1.497
13795TIP3   OH241325   7.297   7.135   0.729
13795TIP3    H141326   7.236   7.129   0.655
13795TIP3    H241327   7.240   7.140   0.806
13796TIP3   OH241328   7.203   6.753   0.711
13796TIP3    H141329   7.135   6.819   0.703
13796TIP3    H241330   7.163   6.673   0.675
13797TIP3   OH241331   7.220   6.979   1.385
13797TIP3    H141332   7.184   6.896   1.353
13797TIP3    H241333   7.175   6.995   1.468
13798TIP3   OH241334   7.134   6.498   0.641
13798TIP3    H141335   7.197   6.481   0.712
13798TIP3    H241336   7.060   6.441   0.661
13799TIP3   OH241337   7.140   6.746   1.263
13799TIP3    H141338   7.136   6.663   1.310
13799TIP3    H241339   7.194   6.729   1.187
13800TIP3   OH241340   7.309   6.421   1.089
13800TIP3    H141341   7.344   6.452   1.172
13800TIP3    H241342   7.239   6.483   1.068
13801TIP3   OH241343   7.362   6.454   0.790
13801TIP3    H141344   7.407   6.394   0.731
13801TIP3    H241345   7.406   6.538   0.777
13802TIP3   OH241346   6.926   8.020   1.109
13802TIP3    H141347   6.960   7.977   1.030
13802TIP3    H241348   6.980   8.099   1.118
13803TIP3   OH241349   1.422   0.123   1.633
13803TIP3    H141350   1.359   0.192   1.613
13803TIP3    H241351   1.379   0.042   1.606
13804TIP3   OH241352   7.450   6.492   1.312
13804TIP3    H141353   7.518   6.430   1.337
13804TIP3    H241354   7.491   6.578   1.320
13805TIP3   OH241355   7.060   6.221   1.309
13805TIP3    H141356   6.979   6.247   1.265
13805TIP3    H241357   7.039   6.139   1.354
13806TIP3   OH241358   5.683   7.774   1.189
13806TIP3    H141359   5.673   7.679   1.197
13806TIP3    H241360   5.601   7.803   1.148
13807TIP3   OH241361   6.332   7.846   0.734
13807TIP3    H141362   6.424   7.855   0.709
13807TIP3    H241363   6.299   7.775   0.680
13808TIP3   OH241364   7.061   7.929   0.885
13808TIP3    H141365   7.057   7.834   0.878
13808TIP3    H241366   7.019   7.961   0.806
13809TIP3   OH241367   5.727   7.685   0.886
13809TIP3    H141368   5.733   7.736   0.967
13809TIP3    H241369   5.802   7.626   0.890
13810TIP3   OH241370   8.553   7.436   0.834
13810TIP3    H141371   8.517   7.524   0.822
13810TIP3    H241372   8.485   7.378   0.801
13811TIP3   OH241373   8.556   7.455   1.234
13811TIP3    H141374   8.601   7.437   1.316
13811TIP3    H241375   8.508   7.375   1.215
13812TIP3   OH241376   7.990   7.313   1.536
13812TIP3    H141377   7.987   7.302   1.631
13812TIP3    H241378   7.993   7.407   1.522
13813TIP3   OH241379   0.209   7.754   0.913
13813TIP3    H141380   0.203   7.687   0.981
13813TIP3    H241381   0.239   7.832   0.960
13814TIP3   OH241382   7.864   7.739   1.329
13814TIP3    H141383   7.850   7.645   1.317
13814TIP3    H241384   7.953   7.754   1.297
13815TIP3   OH241385   7.559   7.109   1.071
13815TIP3    H141386   7.470   7.142   1.076
13815TIP3    H241387   7.550   7.016   1.049
13816TIP3   OH241388   7.664   7.280   1.254
13816TIP3    H141389   7.721   7.208   1.283
13816TIP3    H241390   7.621   7.246   1.176
13817TIP3   OH241391   2.725   0.070   0.942
13817TIP3    H141392   2.752   0.010   0.872
13817TIP3    H241393   2.757   0.029   1.022
13818TIP3   OH241394   8.364   7.669   1.242
13818TIP3    H141395   8.411   7.588   1.221
13818TIP3    H241396   8.431   7.727   1.279
13819TIP3   OH241397   0.760   6.992   1.227
13819TIP3    H141398   0.775   7.076   1.271
13819TIP3    H241399   0.802   7.001   1.142
13820TIP3   OH241400   0.154   7.150   1.292
13820TIP3    H141401   0.203   7.069   1.307
13820TIP3    H241402   0.124   7.143   1.201
13821TIP3   OH241403   8.153   6.843   1.258
13821TIP3    H141404   8.123   6.909   1.195
13821TIP3    H241405   8.103   6.764   1.235
13822TIP3   OH241406   0.215   6.926   0.876
13822TIP3    H141407   0.282   6.916   0.943
13822TIP3    H241408   0.262   6.959   0.799
13823TIP3   OH241409   7.844   7.086   1.342
13823TIP3    H141410   7.821   7.033   1.418
13823TIP3    H241411   7.832   7.027   1.267
13824TIP3   OH241412   8.145   7.205   1.253
13824TIP3    H141413   8.240   7.221   1.251
13824TIP3    H241414   8.130   7.144   1.181
13825TIP3   OH241415   0.807   7.203   1.397
13825TIP3    H141416   0.725   7.252   1.395
13825TIP3    H241417   0.820   7.183   1.490
13826TIP3   OH241418   8.421   7.654   0.716
13826TIP3    H141419   8.395   7.635   0.626
13826TIP3    H241420   8.487   7.723   0.708
13827TIP3   OH241421   0.390   6.941   1.082
13827TIP3    H141422   0.353   6.917   1.167
13827TIP3    H241423   0.446   7.017   1.101
13828TIP3   OH241424   8.087   7.020   1.477
13828TIP3    H141425   8.137   6.959   1.423
13828TIP3    H241426   8.017   6.967   1.515
13829TIP3   OH241427   8.011   7.790   1.625
13829TIP3    H141428   8.010   7.875   1.581
13829TIP3    H241429   7.946   7.738   1.578
13830TIP3   OH241430   7.428   7.502   0.823
13830TIP3    H141431   7.391   7.512   0.735
13830TIP3    H241432   7.447   7.591   0.851
13831TIP3   OH241433   0.254   7.998   1.053
13831TIP3    H141434   0.166   7.991   1.088
13831TIP3    H241435   0.255   8.083   1.008
13832TIP3   OH241436   0.546   6.932   1.400
13832TIP3    H141437   0.459   6.915   1.363
13832TIP3    H241438   0.603   6.941   1.324
13833TIP3   OH241439   8.504   6.509   1.388
13833TIP3    H141440   8.488   6.415   1.401
13833TIP3    H241441   8.427   6.552   1.425
13834TIP3   OH241442   8.536   8.022   0.728
13834TIP3    H141443   8.583   7.940   0.715
13834TIP3    H241444   8.597   8.090   0.698
13835TIP3   OH241445   0.072   7.792   0.677
13835TIP3    H141446   0.110   7.739   0.607
13835TIP3    H241447   0.128   7.776   0.753
13836TIP3   OH241448   0.461   7.898   1.399
13836TIP3    H141449   0.452   7.821   1.343
13836TIP3    H241450   0.453   7.972   1.340
13837TIP3   OH241451   8.379   7.296   0.668
13837TIP3    H141452   8.299   7.346   0.650
13837TIP3    H241453   8.426   7.293   0.585
13838TIP3   OH241454   8.354   7.093   0.371
13838TIP3    H141455   8.420   7.145   0.416
13838TIP3    H241456   8.404   7.029   0.320
13839TIP3   OH241457   0.675   7.556   1.266
13839TIP3    H141458   0.592   7.604   1.265
13839TIP3    H241459   0.710   7.568   1.178
13840TIP3   OH241460   0.136   7.389   0.635
13840TIP3    H141461   0.082   7.408   0.711
13840TIP3    H241462   0.220   7.361   0.671
13841TIP3   OH241463   0.354   7.390   1.559
13841TIP3    H141464   0.364   7.473   1.604
13841TIP3    H241465   0.271   7.398   1.512
13842TIP3   OH241466   7.971   7.354   1.051
13842TIP3    H141467   7.918   7.309   0.985
13842TIP3    H241468   8.039   7.290   1.075
13843TIP3   OH241469   8.109   7.767   1.203
13843TIP3    H141470   8.091   7.738   1.114
13843TIP3    H241471   8.196   7.734   1.222
13844TIP3   OH241472   0.008   7.998   1.171
13844TIP3    H141473  -0.000   8.074   1.229
13844TIP3    H241474  -0.001   7.923   1.230
13845TIP3   OH241475   8.246   7.911   1.732
13845TIP3    H141476   8.189   7.975   1.775
13845TIP3    H241477   8.187   7.843   1.701
13846TIP3   OH241478   8.571   7.248   0.464
13846TIP3    H141479   8.631   7.305   0.512
13846TIP3    H241480   8.597   7.258   0.372
13847TIP3   OH241481   8.256   7.987   0.738
13847TIP3    H141482   8.350   7.986   0.756
13847TIP3    H241483   8.242   7.915   0.676
13848TIP3   OH241484   8.039   8.085   1.792
13848TIP3    H141485   8.025   8.085   1.698
13848TIP3    H241486   7.959   8.047   1.829
13849TIP3   OH241487   0.477   6.474   0.518
13849TIP3    H141488   0.401   6.497   0.572
13849TIP3    H241489   0.492   6.552   0.464
13850TIP3   OH241490   7.827   7.214   0.861
13850TIP3    H141491   7.767   7.271   0.814
13850TIP3    H241492   7.776   7.136   0.882
13851TIP3   OH241493   0.305   7.853   0.080
13851TIP3    H141494   0.304   7.944   0.051
13851TIP3    H241495   0.392   7.821   0.057
13852TIP3   OH241496   7.464   7.818   1.411
13852TIP3    H141497   7.551   7.847   1.440
13852TIP3    H241498   7.404   7.885   1.445
13853TIP3   OH241499   3.571   0.112   1.465
13853TIP3    H141500   3.578   0.017   1.471
13853TIP3    H241501   3.483   0.131   1.498
13854TIP3   OH241502   8.429   8.053   1.592
13854TIP3    H141503   8.424   8.144   1.622
13854TIP3    H241504   8.362   8.007   1.643
13855TIP3   OH241505   2.416   0.067   0.546
13855TIP3    H141506   2.410   0.034   0.457
13855TIP3    H241507   2.412   0.162   0.537
13856TIP3   OH241508   7.653   7.996   0.920
13856TIP3    H141509   7.693   7.984   1.006
13856TIP3    H241510   7.602   7.917   0.905
13857TIP3   OH241511   8.413   8.075   0.182
13857TIP3    H141512   8.461   8.001   0.144
13857TIP3    H241513   8.449   8.084   0.270
13858TIP3   OH241514   2.717   0.017   0.455
13858TIP3    H141515   2.639  -0.001   0.507
13858TIP3    H241516   2.790   0.002   0.514
13859TIP3   OH241517   0.629   7.362   1.717
13859TIP3    H141518   0.544   7.403   1.699
13859TIP3    H241519   0.622   7.275   1.677
13860TIP3   OH241520   8.285   6.654   1.445
13860TIP3    H141521   8.201   6.626   1.482
13860TIP3    H241522   8.267   6.740   1.408
13861TIP3   OH241523   0.332   7.154   1.697
13861TIP3    H141524   0.346   7.189   1.785
13861TIP3    H241525   0.337   7.230   1.640
13862TIP3   OH241526   0.051   7.258   0.203
13862TIP3    H141527   0.007   7.251   0.118
13862TIP3    H241528   0.137   7.294   0.182
13863TIP3   OH241529   8.361   6.648   0.523
13863TIP3    H141530   8.324   6.652   0.611
13863TIP3    H241531   8.324   6.569   0.484
13864TIP3   OH241532   8.049   7.029   1.074
13864TIP3    H141533   7.961   7.000   1.094
13864TIP3    H241534   8.065   6.998   0.984
13865TIP3   OH241535   8.511   7.096   0.804
13865TIP3    H141536   8.461   7.165   0.760
13865TIP3    H241537   8.571   7.064   0.736
13866TIP3   OH241538   0.077   7.115   1.031
13866TIP3    H141539   0.010   7.141   0.968
13866TIP3    H241540   0.121   7.041   0.989
13867TIP3   OH241541   8.031   6.633   0.493
13867TIP3    H141542   8.022   6.643   0.587
13867TIP3    H241543   7.952   6.675   0.456
13868TIP3   OH241544   7.554   6.751   1.291
13868TIP3    H141545   7.504   6.799   1.356
13868TIP3    H241546   7.567   6.813   1.219
13869TIP3   OH241547   7.533   6.665   0.762
13869TIP3    H141548   7.570   6.687   0.676
13869TIP3    H241549   7.480   6.742   0.785
13870TIP3   OH241550   0.100   7.361   1.453
13870TIP3    H141551   0.122   7.288   1.395
13870TIP3    H241552   0.055   7.320   1.527
13871TIP3   OH241553   8.405   6.818   1.130
13871TIP3    H141554   8.327   6.823   1.185
13871TIP3    H241555   8.478   6.807   1.192
13872TIP3   OH241556   7.828   6.891   1.144
13872TIP3    H141557   7.749   6.877   1.092
13872TIP3    H241558   7.879   6.811   1.133
13873TIP3   OH241559   8.051   6.897   0.836
13873TIP3    H141560   8.145   6.905   0.817
13873TIP3    H241561   8.008   6.914   0.752
13874TIP3   OH241562   0.264   6.893   1.328
13874TIP3    H141563   0.240   6.906   1.420
13874TIP3    H241564   0.197   6.834   1.294
13875TIP3   OH241565   7.926   6.920   0.595
13875TIP3    H141566   7.862   6.871   0.542
13875TIP3    H241567   7.981   6.965   0.531
13876TIP3   OH241568   3.214   0.463   1.514
13876TIP3    H141569   3.211   0.485   1.421
13876TIP3    H241570   3.300   0.492   1.543
13877TIP3   OH241571   8.427   7.192   1.241
13877TIP3    H141572   8.492   7.141   1.192
13877TIP3    H241573   8.432   7.158   1.330
13878TIP3   OH241574   7.988   6.661   1.100
13878TIP3    H141575   7.927   6.588   1.107
13878TIP3    H241576   8.058   6.629   1.043
13879TIP3   OH241577   8.424   7.100   1.499
13879TIP3    H141578   8.371   7.046   1.558
13879TIP3    H241579   8.488   7.142   1.556
13880TIP3   OH241580   8.140   7.446   0.618
13880TIP3    H141581   8.071   7.382   0.601
13880TIP3    H241582   8.122   7.477   0.706
13881TIP3   OH241583   0.436   7.689   1.224
13881TIP3    H141584   0.473   7.738   1.150
13881TIP3    H241585   0.357   7.648   1.188
13882TIP3   OH241586   8.613   6.753   0.517
13882TIP3    H141587   8.519   6.732   0.514
13882TIP3    H241588   8.615   6.849   0.527
13883TIP3   OH241589   8.534   7.780   1.610
13883TIP3    H141590   8.539   7.748   1.700
13883TIP3    H241591   8.482   7.861   1.616
13884TIP3   OH241592   0.075   7.018   0.590
13884TIP3    H141593   0.170   7.020   0.596
13884TIP3    H241594   0.053   7.093   0.534
13885TIP3   OH241595   7.865   7.462   1.285
13885TIP3    H141596   7.917   7.444   1.207
13885TIP3    H241597   7.784   7.413   1.273
13886TIP3   OH241598   8.292   7.611   0.466
13886TIP3    H141599   8.248   7.695   0.474
13886TIP3    H241600   8.237   7.550   0.514
13887TIP3   OH241601   0.108   8.053   1.562
13887TIP3    H141602   0.013   8.040   1.561
13887TIP3    H241603   0.122   8.134   1.514
13888TIP3   OH241604   0.493   7.108   0.416
13888TIP3    H141605   0.437   7.061   0.354
13888TIP3    H241606   0.498   7.197   0.381
13889TIP3   OH241607   0.710   7.945   1.489
13889TIP3    H141608   0.617   7.933   1.469
13889TIP3    H241609   0.755   7.923   1.407
13890TIP3   OH241610   0.220   7.915   0.337
13890TIP3    H141611   0.193   7.834   0.380
13890TIP3    H241612   0.246   7.888   0.249
13891TIP3   OH241613   0.205   7.558   1.123
13891TIP3    H141614   0.116   7.535   1.147
13891TIP3    H241615   0.242   7.477   1.087
13892TIP3   OH241616   7.941   7.763   0.956
13892TIP3    H141617   7.942   7.859   0.955
13892TIP3    H241618   7.849   7.741   0.968
13893TIP3   OH241619   7.554   7.092   0.649
13893TIP3    H141620   7.598   7.176   0.666
13893TIP3    H241621   7.464   7.106   0.678
13894TIP3   OH241622   8.064   7.535   0.861
13894TIP3    H141623   8.032   7.621   0.888
13894TIP3    H241624   8.039   7.476   0.932
13895TIP3   OH241625   2.499  -0.016   1.390
13895TIP3    H141626   2.532   0.054   1.333
13895TIP3    H241627   2.575  -0.042   1.442
13896TIP3   OH241628   0.004   7.781   1.346
13896TIP3    H141629  -0.015   7.777   1.440
13896TIP3    H241630   0.073   7.715   1.332
13897TIP3   OH241631   8.586   7.666   0.249
13897TIP3    H141632   8.626   7.641   0.332
13897TIP3    H241633   8.503   7.617   0.247
13898TIP3   OH241634   3.108   0.170   1.386
13898TIP3    H141635   3.020   0.145   1.357
13898TIP3    H241636   3.132   0.244   1.330
13899TIP3   OH241637   3.175   0.017   0.038
13899TIP3    H141638   3.194   0.077  -0.034
13899TIP3    H241639   3.103   0.060   0.086
13900TIP3   OH241640   0.159   7.614   0.471
13900TIP3    H141641   0.142   7.536   0.525
13900TIP3    H241642   0.250   7.605   0.444
13901TIP3   OH241643   7.662   8.021   1.535
13901TIP3    H141644   7.750   7.990   1.553
13901TIP3    H241645   7.661   8.111   1.568
13902TIP3   OH241646   7.946   7.622   0.242
13902TIP3    H141647   7.952   7.532   0.209
13902TIP3    H241648   7.923   7.612   0.335
13903TIP3   OH241649   7.892   7.638   0.514
13903TIP3    H141650   7.960   7.601   0.570
13903TIP3    H241651   7.900   7.733   0.526
13904TIP3   OH241652   7.635   7.349   0.722
13904TIP3    H141653   7.563   7.387   0.772
13904TIP3    H241654   7.645   7.406   0.646
13905TIP3   OH241655   0.197   6.938   1.589
13905TIP3    H141656   0.253   7.004   1.628
13905TIP3    H241657   0.181   6.875   1.660
13906TIP3   OH241658   0.073   6.707   0.783
13906TIP3    H141659   0.053   6.724   0.691
13906TIP3    H241660   0.115   6.787   0.814
13907TIP3   OH241661   8.164   7.856   0.500
13907TIP3    H141662   8.071   7.873   0.515
13907TIP3    H241663   8.184   7.900   0.417
13908TIP3   OH241664   8.331   6.902   0.876
13908TIP3    H141665   8.392   6.970   0.847
13908TIP3    H241666   8.356   6.885   0.967
13909TIP3   OH241667   0.015   7.206   1.670
13909TIP3    H141668   0.014   7.244   1.758
13909TIP3    H241669   0.086   7.143   1.671
13910TIP3   OH241670   8.493   6.608   0.965
13910TIP3    H141671   8.473   6.687   1.016
13910TIP3    H241672   8.561   6.636   0.903
13911TIP3   OH241673   7.895   7.920   0.534
13911TIP3    H141674   7.890   7.984   0.463
13911TIP3    H241675   7.810   7.925   0.578
13912TIP3   OH241676   8.005   6.623   0.771
13912TIP3    H141677   7.988   6.711   0.805
13912TIP3    H241678   8.100   6.613   0.776
13913TIP3   OH241679   0.597   7.105   1.613
13913TIP3    H141680   0.510   7.098   1.653
13913TIP3    H241681   0.587   7.064   1.527
13914TIP3   OH241682   0.293   7.304   1.035
13914TIP3    H141683   0.218   7.245   1.042
13914TIP3    H241684   0.363   7.260   1.085
13915TIP3   OH241685   7.635   7.522   0.503
13915TIP3    H141686   7.708   7.584   0.508
13915TIP3    H241687   7.665   7.455   0.442
13916TIP3   OH241688   7.541   6.834   0.549
13916TIP3    H141689   7.564   6.916   0.594
13916TIP3    H241690   7.446   6.833   0.548
13917TIP3   OH241691   3.141   0.157   0.976
13917TIP3    H141692   3.101   0.205   0.903
13917TIP3    H241693   3.235   0.166   0.962
13918TIP3   OH241694   8.023   6.638   1.513
13918TIP3    H141695   7.962   6.637   1.440
13918TIP3    H241696   8.002   6.559   1.563
13919TIP3   OH241697   7.479   7.774   0.897
13919TIP3    H141698   7.434   7.809   0.974
13919TIP3    H241699   7.435   7.815   0.823
13920TIP3   OH241700   8.108   7.827   0.158
13920TIP3    H141701   8.055   7.753   0.186
13920TIP3    H241702   8.177   7.788   0.104
13921TIP3   OH241703   3.067   0.053   1.800
13921TIP3    H141704   3.040  -0.006   1.730
13921TIP3    H241705   3.142   0.100   1.764
13922TIP3   OH241706   8.537   7.864   0.061
13922TIP3    H141707   8.573   7.799   0.122
13922TIP3    H241708   8.593   7.857  -0.016
13923TIP3   OH241709   7.769   7.326   0.370
13923TIP3    H141710   7.822   7.299   0.445
13923TIP3    H241711   7.832   7.334   0.298
13924TIP3   OH241712   8.336   7.542   0.201
13924TIP3    H141713   8.307   7.554   0.292
13924TIP3    H241714   8.318   7.449   0.183
13925TIP3   OH241715   0.268   7.823   1.581
13925TIP3    H141716   0.337   7.851   1.521
13925TIP3    H241717   0.201   7.891   1.575
13926TIP3   OH241718   7.946   7.252   0.580
13926TIP3    H141719   7.917   7.210   0.660
13926TIP3    H241720   7.991   7.183   0.531
13927TIP3   OH241721   8.080   7.067   0.422
13927TIP3    H141722   8.048   7.069   0.332
13927TIP3    H241723   8.175   7.071   0.414
13928TIP3   OH241724   0.281   7.360   0.088
13928TIP3    H141725   0.270   7.325  -0.000
13928TIP3    H241726   0.255   7.451   0.081
13929TIP3   OH241727   0.403   7.615   1.696
13929TIP3    H141728   0.342   7.684   1.669
13929TIP3    H241729   0.488   7.658   1.698
13930TIP3   OH241730   2.163   0.008   0.342
13930TIP3    H141731   2.253  -0.002   0.312
13930TIP3    H241732   2.119   0.052   0.270
13931TIP3   OH241733   7.364   7.504   0.552
13931TIP3    H141734   7.456   7.522   0.531
13931TIP3    H241735   7.344   7.424   0.504
13932TIP3   OH241736   7.272   8.084   0.975
13932TIP3    H141737   7.206   8.031   0.930
13932TIP3    H241738   7.315   8.022   1.034
13933TIP3   OH241739   7.412   7.917   1.145
13933TIP3    H141740   7.403   7.852   1.215
13933TIP3    H241741   7.464   7.987   1.183
13934TIP3   OH241742   3.409   0.205   0.954
13934TIP3    H141743   3.419   0.279   1.014
13934TIP3    H241744   3.463   0.228   0.879
13935TIP3   OH241745   3.418   0.257   1.259
13935TIP3    H141746   3.384   0.172   1.232
13935TIP3    H241747   3.501   0.236   1.303
13936TIP3   OH241748   0.611   8.074   1.808
13936TIP3    H141749   0.537   8.101   1.753
13936TIP3    H241750   0.679   8.138   1.789
13937TIP3   OH241751   0.430   7.572   0.428
13937TIP3    H141752   0.491   7.638   0.395
13937TIP3    H241753   0.477   7.530   0.499
13938TIP3   OH241754   0.560   7.429   0.625
13938TIP3    H141755   0.495   7.390   0.684
13938TIP3    H241756   0.625   7.467   0.684
13939TIP3   OH241757   0.609   7.828   1.057
13939TIP3    H141758   0.663   7.760   1.018
13939TIP3    H241759   0.615   7.902   0.996
13940TIP3   OH241760   3.288   0.009   1.241
13940TIP3    H141761   3.217   0.052   1.288
13940TIP3    H241762   3.246  -0.034   1.167
13941TIP3   OH241763   0.482   7.346   0.274
13941TIP3    H141764   0.416   7.342   0.206
13941TIP3    H241765   0.460   7.424   0.324
13942TIP3   OH241766   0.339   7.000   0.220
13942TIP3    H141767   0.299   7.043   0.144
13942TIP3    H241768   0.324   6.907   0.206
13943TIP3   OH241769   0.362   7.289   0.766
13943TIP3    H141770   0.371   7.194   0.754
13943TIP3    H241771   0.344   7.300   0.859
13944TIP3   OH241772   7.613   7.345   1.513
13944TIP3    H141773   7.614   7.328   1.419
13944TIP3    H241774   7.684   7.407   1.527
13945TIP3   OH241775   0.646   7.737   1.665
13945TIP3    H141776   0.712   7.670   1.646
13945TIP3    H241777   0.667   7.809   1.606
13946TIP3   OH241778   0.823   7.537   1.639
13946TIP3    H141779   0.760   7.473   1.674
13946TIP3    H241780   0.908   7.497   1.654
13947TIP3   OH241781   0.296   6.731   0.194
13947TIP3    H141782   0.361   6.702   0.257
13947TIP3    H241783   0.215   6.686   0.220
13948TIP3   OH241784   0.363   7.011   0.651
13948TIP3    H141785   0.408   6.928   0.666
13948TIP3    H241786   0.408   7.050   0.576
13949TIP3   OH241787   0.507   7.179   1.164
13949TIP3    H141788   0.588   7.199   1.117
13949TIP3    H241789   0.517   7.222   1.249
13950TIP3   OH241790   0.567   7.333   1.387
13950TIP3    H141791   0.494   7.360   1.443
13950TIP3    H241792   0.601   7.414   1.351
13951TIP3   OH241793   0.476   6.760   0.708
13951TIP3    H141794   0.520   6.745   0.791
13951TIP3    H241795   0.415   6.687   0.699
13952TIP3   OH241796   7.858   6.884   1.531
13952TIP3    H141797   7.866   6.799   1.488
13952TIP3    H241798   7.850   6.862   1.624
13953TIP3   OH241799   7.611   7.078   1.595
13953TIP3    H141800   7.577   7.046   1.511
13953TIP3    H241801   7.616   7.173   1.584
13954TIP3   OH241802   0.883   7.100   1.650
13954TIP3    H141803   0.790   7.079   1.656
13954TIP3    H241804   0.926   7.017   1.631
13955TIP3   OH241805   0.529   6.679   0.343
13955TIP3    H141806   0.575   6.618   0.286
13955TIP3    H241807   0.585   6.757   0.344
13956TIP3   OH241808   7.567   6.539   0.994
13956TIP3    H141809   7.475   6.522   1.015
13956TIP3    H241810   7.564   6.576   0.906
13957TIP3   OH241811   2.956   0.106   0.614
13957TIP3    H141812   3.015   0.099   0.539
13957TIP3    H241813   2.992   0.176   0.667
13958TIP3   OH241814   7.998   8.044   1.521
13958TIP3    H141815   7.942   8.108   1.477
13958TIP3    H241816   8.082   8.052   1.477
13959TIP3   OH241817   2.696   0.204   1.691
13959TIP3    H141818   2.736   0.196   1.778
13959TIP3    H241819   2.763   0.244   1.637
13960TIP3   OH241820   2.921   0.306   1.577
13960TIP3    H141821   2.985   0.301   1.506
13960TIP3    H241822   2.958   0.369   1.639
13961TIP3   OH241823   0.733   6.842   1.580
13961TIP3    H141824   0.665   6.883   1.527
13961TIP3    H241825   0.709   6.749   1.583
13962TIP3   OH241826   1.917   0.197   1.582
13962TIP3    H141827   1.823   0.215   1.574
13962TIP3    H241828   1.956   0.282   1.604
13963TIP3   OH241829   2.121   0.125   1.397
13963TIP3    H141830   2.048   0.167   1.442
13963TIP3    H241831   2.131   0.175   1.316
13964TIP3   OH241832   2.598   0.170   1.215
13964TIP3    H141833   2.581   0.154   1.123
13964TIP3    H241834   2.559   0.256   1.232
13965TIP3   OH241835   2.864   0.149   1.274
13965TIP3    H141836   2.769   0.160   1.267
13965TIP3    H241837   2.899   0.223   1.224
13966TIP3   OH241838   3.068   0.338   1.169
13966TIP3    H141839   3.049   0.418   1.120
13966TIP3    H241840   3.093   0.274   1.102
13967TIP3   OH241841   7.579   8.101   1.284
13967TIP3    H141842   7.604   8.079   1.374
13967TIP3    H241843   7.651   8.065   1.231
13968TIP3   OH241844   7.779   7.954   1.163
13968TIP3    H141845   7.792   7.880   1.223
13968TIP3    H241846   7.864   7.997   1.160
13969TIP3   OH241847   8.041   8.033   1.156
13969TIP3    H141848   8.081   7.949   1.180
13969TIP3    H241849   8.078   8.095   1.218
13970TIP3   OH241850   0.035   6.721   1.266
13970TIP3    H141851  -0.008   6.644   1.305
13970TIP3    H241852   0.099   6.684   1.205
13971TIP3   OH241853   0.522   6.632   1.176
13971TIP3    H141854   0.563   6.677   1.102
13971TIP3    H241855   0.428   6.646   1.162
13972TIP3   OH241856   0.633   6.704   0.933
13972TIP3    H141857   0.700   6.646   0.898
13972TIP3    H241858   0.667   6.792   0.920
13973TIP3   OH241859   7.972   6.406   1.332
13973TIP3    H141860   7.909   6.425   1.262
13973TIP3    H241861   8.050   6.374   1.286
13974TIP3   OH241862   7.712   6.315   0.868
13974TIP3    H141863   7.734   6.368   0.791
13974TIP3    H241864   7.654   6.372   0.920
13975TIP3   OH241865   8.315   6.491   1.145
13975TIP3    H141866   8.380   6.527   1.085
13975TIP3    H241867   8.350   6.509   1.232
13976TIP3   OH241868   0.243   6.610   1.126
13976TIP3    H141869   0.260   6.574   1.039
13976TIP3    H241870   0.242   6.534   1.184
13977TIP3   OH241871   0.290   6.549   0.707
13977TIP3    H141872   0.210   6.597   0.729
13977TIP3    H241873   0.278   6.463   0.747
13978TIP3   OH241874   7.360   7.894   0.681
13978TIP3    H141875   7.277   7.859   0.650
13978TIP3    H241876   7.359   7.986   0.652
13979TIP3   OH241877   7.804   6.466   0.660
13979TIP3    H141878   7.849   6.410   0.596
13979TIP3    H241879   7.872   6.522   0.696
13980TIP3   OH241880   8.276   6.649   0.788
13980TIP3    H141881   8.339   6.599   0.839
13980TIP3    H241882   8.293   6.741   0.811
13981TIP3   OH241883   8.161   8.058   0.290
13981TIP3    H141884   8.242   8.087   0.249
13981TIP3    H241885   8.132   7.985   0.235
13982TIP3   OH241886   3.115   0.075   0.387
13982TIP3    H141887   3.111  -0.019   0.374
13982TIP3    H241888   3.078   0.112   0.307
13983TIP3   OH241889   7.459   7.887   0.334
13983TIP3    H141890   7.452   7.890   0.430
13983TIP3    H241891   7.539   7.838   0.317
13984TIP3   OH241892   3.320   0.182   1.570
13984TIP3    H141893   3.249   0.167   1.508
13984TIP3    H241894   3.324   0.277   1.580
13985TIP3   OH241895   1.749   7.711   0.314
13985TIP3    H141896   1.719   7.798   0.291
13985TIP3    H241897   1.679   7.653   0.285
13986TIP3   OH241898   1.721   7.709   0.701
13986TIP3    H141899   1.745   7.688   0.791
13986TIP3    H241900   1.681   7.629   0.667
13987TIP3   OH241901   1.040   7.577   1.063
13987TIP3    H141902   1.079   7.536   1.140
13987TIP3    H241903   1.115   7.616   1.017
13988TIP3   OH241904   2.011   8.016   0.398
13988TIP3    H141905   1.985   7.955   0.467
13988TIP3    H241906   2.046   8.092   0.445
13989TIP3   OH241907   1.028   7.996   0.777
13989TIP3    H141908   1.010   7.902   0.782
13989TIP3    H241909   1.123   8.002   0.765
13990TIP3   OH241910   0.718   7.202   0.559
13990TIP3    H141911   0.679   7.287   0.580
13990TIP3    H241912   0.647   7.154   0.516
13991TIP3   OH241913   0.787   7.516   0.762
13991TIP3    H141914   0.835   7.437   0.787
13991TIP3    H241915   0.856   7.578   0.735
13992TIP3   OH241916   4.537   0.343   0.403
13992TIP3    H141917   4.571   0.275   0.345
13992TIP3    H241918   4.504   0.295   0.479
13993TIP3   OH241919   1.547   7.930   0.734
13993TIP3    H141920   1.588   7.851   0.700
13993TIP3    H241921   1.620   7.986   0.760
13994TIP3   OH241922   1.887   7.385   0.760
13994TIP3    H141923   1.978   7.387   0.790
13994TIP3    H241924   1.893   7.388   0.664
13995TIP3   OH241925   1.290   7.088   0.737
13995TIP3    H141926   1.275   7.161   0.676
13995TIP3    H241927   1.241   7.015   0.700
13996TIP3   OH241928   1.999   7.171   0.415
13996TIP3    H141929   2.017   7.082   0.447
13996TIP3    H241930   2.052   7.179   0.336
13997TIP3   OH241931   0.918   7.292   0.850
13997TIP3    H141932   1.001   7.278   0.895
13997TIP3    H241933   0.926   7.240   0.770
13998TIP3   OH241934   1.350   7.495   0.663
13998TIP3    H141935   1.444   7.477   0.667
13998TIP3    H241936   1.311   7.415   0.628
13999TIP3   OH241937   1.330   7.104   1.147
13999TIP3    H141938   1.259   7.131   1.089
13999TIP3    H241939   1.310   7.147   1.230
14000TIP3   OH241940   1.632   7.925   0.186
14000TIP3    H141941   1.599   7.906   0.098
14000TIP3    H241942   1.586   8.005   0.212
14001TIP3   OH241943   1.406   7.852   0.959
14001TIP3    H141944   1.339   7.915   0.987
14001TIP3    H241945   1.449   7.894   0.884
14002TIP3   OH241946   1.159   7.200   0.951
14002TIP3    H141947   1.214   7.276   0.970
14002TIP3    H241948   1.204   7.156   0.879
14003TIP3   OH241949   1.223   8.036   1.044
14003TIP3    H141950   1.209   8.122   1.006
14003TIP3    H241951   1.146   8.020   1.099
14004TIP3   OH241952   0.610   7.753   0.312
14004TIP3    H141953   0.578   7.767   0.223
14004TIP3    H241954   0.636   7.840   0.343
14005TIP3   OH241955   4.936   0.143   0.544
14005TIP3    H141956   4.848   0.137   0.583
14005TIP3    H241957   4.932   0.218   0.486
14006TIP3   OH241958   4.629   0.181   0.196
14006TIP3    H141959   4.681   0.102   0.185
14006TIP3    H241960   4.687   0.252   0.168
14007TIP3   OH241961   1.917   8.073   0.144
14007TIP3    H141962   1.892   7.991   0.103
14007TIP3    H241963   1.954   8.048   0.229
14008TIP3   OH241964   5.109   0.027   0.893
14008TIP3    H141965   5.109  -0.044   0.829
14008TIP3    H241966   5.134   0.105   0.843
14009TIP3   OH241967   1.575   7.561   0.154
14009TIP3    H141968   1.494   7.608   0.136
14009TIP3    H241969   1.622   7.562   0.070
14010TIP3   OH241970   7.279   3.302   6.880
14010TIP3    H141971   7.345   3.351   6.929
14010TIP3    H241972   7.329   3.234   6.834
14011TIP3   OH241973   1.933   7.645   0.122
14011TIP3    H141974   1.877   7.670   0.196
14011TIP3    H241975   2.016   7.620   0.163
14012TIP3   OH241976   1.150   7.633   0.527
14012TIP3    H141977   1.114   7.573   0.461
14012TIP3    H241978   1.223   7.585   0.565
14013TIP3   OH241979   1.288   8.015   0.670
14013TIP3    H141980   1.272   8.000   0.577
14013TIP3    H241981   1.379   7.988   0.683
14014TIP3   OH241982   1.262   7.630   0.891
14014TIP3    H141983   1.299   7.595   0.809
14014TIP3    H241984   1.317   7.705   0.911
14015TIP3   OH241985   4.693   0.137   0.666
14015TIP3    H141986   4.666   0.215   0.715
14015TIP3    H241987   4.672   0.064   0.723
14016TIP3   OH241988   4.290   0.038   1.196
14016TIP3    H141989   4.226   0.101   1.230
14016TIP3    H241990   4.241  -0.016   1.135
14017TIP3   OH241991   7.501   3.448   6.976
14017TIP3    H141992   7.562   3.503   7.026
14017TIP3    H241993   7.527   3.459   6.885
14018TIP3   OH241994   1.157   7.749   1.292
14018TIP3    H141995   1.159   7.834   1.335
14018TIP3    H241996   1.073   7.710   1.317
14019TIP3   OH241997   4.377   0.069   0.221
14019TIP3    H141998   4.463   0.112   0.217
14019TIP3    H241999   4.321   0.123   0.165
14020TIP3   OH242000   4.086   0.190   1.291
14020TIP3    H142001   4.061   0.242   1.215
14020TIP3    H242002   4.003   0.165   1.332
14021TIP3   OH242003   7.957   2.678   6.972
14021TIP3    H142004   7.890   2.692   7.040
14021TIP3    H242005   7.973   2.765   6.936
14022TIP3   OH242006   1.033   7.470   0.327
14022TIP3    H142007   0.958   7.517   0.292
14022TIP3    H242008   1.001   7.381   0.342
14023TIP3   OH242009   7.814   4.054   6.584
14023TIP3    H142010   7.818   4.148   6.566
14023TIP3    H242011   7.903   4.023   6.569
14024TIP3   OH242012   0.812   7.868   1.251
14024TIP3    H142013   0.746   7.849   1.185
14024TIP3    H242014   0.849   7.782   1.273
14025TIP3   OH242015   0.666   8.056   0.904
14025TIP3    H142016   0.760   8.070   0.910
14025TIP3    H242017   0.627   8.133   0.946
14026TIP3   OH242018   4.478   0.188   1.025
14026TIP3    H142019   4.514   0.252   1.088
14026TIP3    H242020   4.448   0.116   1.080
14027TIP3   OH242021   4.269   0.286   0.037
14027TIP3    H142022   4.223   0.265  -0.044
14027TIP3    H242023   4.235   0.371   0.063
14028TIP3   OH242024   3.699   0.142   0.415
14028TIP3    H142025   3.743   0.135   0.499
14028TIP3    H242026   3.653   0.059   0.405
14029TIP3   OH242027   7.338   4.274   6.688
14029TIP3    H142028   7.389   4.201   6.653
14029TIP3    H242029   7.371   4.285   6.778
14030TIP3   OH242030   7.389   4.314   6.959
14030TIP3    H142031   7.302   4.319   6.998
14030TIP3    H242032   7.444   4.276   7.027
14031TIP3   OH242033   1.006   8.059   1.219
14031TIP3    H142034   1.062   8.044   1.296
14031TIP3    H242035   0.936   7.995   1.227
14032TIP3   OH242036   1.389   6.805   0.911
14032TIP3    H142037   1.297   6.822   0.929
14032TIP3    H242038   1.436   6.873   0.959
14033TIP3   OH242039   7.576   3.452   6.716
14033TIP3    H142040   7.536   3.444   6.629
14033TIP3    H242041   7.661   3.491   6.699
14034TIP3   OH242042   1.534   6.913   0.008
14034TIP3    H142043   1.506   6.912   0.099
14034TIP3    H242044   1.501   6.830  -0.028
14035TIP3   OH242045   1.326   7.401   1.028
14035TIP3    H142046   1.286   7.414   1.114
14035TIP3    H242047   1.311   7.483   0.982
14036TIP3   OH242048   1.210   7.281   0.560
14036TIP3    H142049   1.121   7.253   0.582
14036TIP3    H242050   1.225   7.244   0.472
14037TIP3   OH242051   1.705   7.348   0.269
14037TIP3    H142052   1.656   7.421   0.230
14037TIP3    H242053   1.762   7.318   0.198
14038TIP3   OH242054   1.870   7.401   0.486
14038TIP3    H142055   1.798   7.408   0.423
14038TIP3    H242056   1.915   7.321   0.461
14039TIP3   OH242057   1.185   7.439   1.256
14039TIP3    H142058   1.245   7.490   1.311
14039TIP3    H242059   1.148   7.374   1.315
14040TIP3   OH242060   1.211   6.886  -0.019
14040TIP3    H142061   1.203   6.890   0.076
14040TIP3    H242062   1.134   6.933  -0.052
14041TIP3   OH242063   0.757   6.929   0.851
14041TIP3    H142064   0.827   6.974   0.899
14041TIP3    H242065   0.794   6.912   0.765
14042TIP3   OH242066   0.685   6.912   0.355
14042TIP3    H142067   0.729   6.945   0.277
14042TIP3    H242068   0.622   6.980   0.378
14043TIP3   OH242069   1.821   7.627   0.953
14043TIP3    H142070   1.858   7.557   0.900
14043TIP3    H242071   1.896   7.673   0.990
14044TIP3   OH242072   1.541   7.101   0.608
14044TIP3    H142073   1.470   7.097   0.672
14044TIP3    H242074   1.618   7.070   0.655
14045TIP3   OH242075   0.979   7.146   0.624
14045TIP3    H142076   0.890   7.150   0.589
14045TIP3    H242077   1.008   7.058   0.605
14046TIP3   OH242078   1.235   7.149   0.320
14046TIP3    H142079   1.329   7.162   0.308
14046TIP3    H242080   1.196   7.168   0.235
14047TIP3   OH242081   1.114   7.178   0.077
14047TIP3    H142082   1.050   7.130   0.024
14047TIP3    H242083   1.170   7.222   0.014
14048TIP3   OH242084   1.165   7.982   1.440
14048TIP3    H142085   1.247   7.965   1.487
14048TIP3    H242086   1.097   7.968   1.506
14049TIP3   OH242087   1.614   7.436   0.721
14049TIP3    H142088   1.706   7.413   0.709
14049TIP3    H242089   1.587   7.386   0.798
14050TIP3   OH242090   1.129   6.903   0.603
14050TIP3    H142091   1.097   6.827   0.650
14050TIP3    H242092   1.155   6.869   0.517
14051TIP3   OH242093   1.569   7.294   0.955
14051TIP3    H142094   1.483   7.323   0.986
14051TIP3    H242095   1.632   7.334   1.015
14052TIP3   OH242096   1.338   7.702   0.102
14052TIP3    H142097   1.266   7.642   0.084
14052TIP3    H242098   1.318   7.739   0.188
14053TIP3   OH242099   2.218   7.941   0.701
14053TIP3    H142100   2.269   7.978   0.629
14053TIP3    H242101   2.135   7.916   0.661
14054TIP3   OH242102   7.520   2.951   7.005
14054TIP3    H142103   7.426   2.933   7.011
14054TIP3    H242104   7.528   3.045   7.022
14055TIP3   OH242105   1.775   7.962   1.095
14055TIP3    H142106   1.871   7.963   1.095
14055TIP3    H242107   1.751   8.033   1.154
14056TIP3   OH242108   1.867   7.259   0.057
14056TIP3    H142109   1.952   7.229   0.024
14056TIP3    H242110   1.851   7.341   0.010
14057TIP3   OH242111   1.023   7.711   0.759
14057TIP3    H142112   1.060   7.697   0.671
14057TIP3    H242113   1.092   7.681   0.819
14058TIP3   OH242114   7.229   3.805   6.967
14058TIP3    H142115   7.183   3.889   6.966
14058TIP3    H242116   7.173   3.747   7.019
14059TIP3   OH242117   0.914   7.646   1.389
14059TIP3    H142118   0.923   7.627   1.483
14059TIP3    H242119   0.839   7.593   1.361
14060TIP3   OH242120   4.771   0.208   1.004
14060TIP3    H142121   4.678   0.183   1.003
14060TIP3    H242122   4.778   0.269   1.077
14061TIP3   OH242123   8.086   3.314   6.897
14061TIP3    H142124   8.014   3.253   6.910
14061TIP3    H242125   8.047   3.387   6.849
14062TIP3   OH242126   7.758   4.121   6.854
14062TIP3    H142127   7.730   4.052   6.915
14062TIP3    H242128   7.767   4.076   6.770
14063TIP3   OH242129   1.967   7.833   0.612
14063TIP3    H142130   1.876   7.807   0.626
14063TIP3    H242131   2.007   7.757   0.570
14064TIP3   OH242132   1.152   8.046   0.419
14064TIP3    H142133   1.150   8.123   0.363
14064TIP3    H242134   1.061   8.031   0.443
14065TIP3   OH242135   0.724   7.334   0.139
14065TIP3    H142136   0.763   7.420   0.155
14065TIP3    H242137   0.641   7.336   0.186
14066TIP3   OH242138   1.257   7.805   0.337
14066TIP3    H142139   1.233   7.894   0.361
14066TIP3    H242140   1.222   7.751   0.408
14067TIP3   OH242141   4.320   0.238   0.806
14067TIP3    H142142   4.363   0.311   0.761
14067TIP3    H242143   4.386   0.205   0.867
14068TIP3   OH242144   3.932   0.162   0.269
14068TIP3    H142145   3.846   0.166   0.309
14068TIP3    H242146   3.961   0.253   0.265
14069TIP3   OH242147   1.791   8.023   0.826
14069TIP3    H142148   1.779   8.000   0.918
14069TIP3    H242149   1.871   7.978   0.800
14070TIP3   OH242150   7.515   3.857   6.744
14070TIP3    H142151   7.562   3.837   6.825
14070TIP3    H242152   7.430   3.815   6.755
14071TIP3   OH242153   4.932   0.391   0.855
14071TIP3    H142154   4.875   0.325   0.894
14071TIP3    H242155   4.884   0.421   0.778
14072TIP3   OH242156   7.836   4.327   6.550
14072TIP3    H142157   7.865   4.394   6.487
14072TIP3    H242158   7.762   4.368   6.595
14073TIP3   OH242159   1.077   7.237   1.396
14073TIP3    H142160   0.986   7.220   1.374
14073TIP3    H242161   1.119   7.150   1.394
14074TIP3   OH242162   7.680   3.797   6.959
14074TIP3    H142163   7.668   3.726   7.022
14074TIP3    H242164   7.773   3.796   6.939
14075TIP3   OH242165   3.727   0.135   1.035
14075TIP3    H142166   3.785   0.083   1.090
14075TIP3    H242167   3.743   0.226   1.062
14076TIP3   OH242168   6.870   3.825   6.750
14076TIP3    H142169   6.879   3.734   6.723
14076TIP3    H242170   6.852   3.820   6.844
14077TIP3   OH242171   1.081   7.895   0.000
14077TIP3    H142172   1.152   7.866   0.058
14077TIP3    H242173   1.082   7.991   0.007
14078TIP3   OH242174   0.812   7.589   0.211
14078TIP3    H142175   0.746   7.634   0.263
14078TIP3    H242176   0.829   7.648   0.137
14079TIP3   OH242177   1.850   6.963   0.249
14079TIP3    H142178   1.829   6.971   0.156
14079TIP3    H242179   1.877   7.051   0.275
14080TIP3   OH242180   7.087   4.034   6.967
14080TIP3    H142181   7.001   4.056   7.003
14080TIP3    H242182   7.107   4.106   6.906
14081TIP3   OH242183   1.511   7.166   0.344
14081TIP3    H142184   1.578   7.230   0.319
14081TIP3    H242185   1.524   7.152   0.437
14082TIP3   OH242186   1.690   6.856   0.450
14082TIP3    H142187   1.713   6.910   0.526
14082TIP3    H242188   1.748   6.887   0.381
14083TIP3   OH242189   3.967   0.060   0.016
14083TIP3    H142190   3.944   0.131  -0.044
14083TIP3    H242191   3.953   0.097   0.103
14084TIP3   OH242192   1.194   6.877   0.263
14084TIP3    H142193   1.186   6.968   0.289
14084TIP3    H242194   1.287   6.858   0.268
14085TIP3   OH242195   2.065   7.589   0.533
14085TIP3    H142196   1.983   7.548   0.508
14085TIP3    H242197   2.120   7.516   0.562
14086TIP3   OH242198   6.564   3.717   7.020
14086TIP3    H142199   6.635   3.780   7.028
14086TIP3    H242200   6.596   3.653   6.957
14087TIP3   OH242201   0.745   7.057   0.131
14087TIP3    H142202   0.759   7.151   0.142
14087TIP3    H242203   0.686   7.050   0.056
14088TIP3   OH242204   4.953   0.384   0.412
14088TIP3    H142205   4.912   0.447   0.353
14088TIP3    H242206   5.047   0.404   0.408
14089TIP3   OH242207   1.117   6.800   0.975
14089TIP3    H142208   1.087   6.760   0.893
14089TIP3    H242209   1.118   6.729   1.038
14090TIP3   OH242210   0.665   8.024   0.388
14090TIP3    H142211   0.617   8.059   0.464
14090TIP3    H242212   0.624   8.067   0.313
14091TIP3   OH242213   3.653   0.342   1.586
14091TIP3    H142214   3.742   0.363   1.560
14091TIP3    H242215   3.635   0.258   1.542
14092TIP3   OH242216   4.133   0.386   1.480
14092TIP3    H142217   4.227   0.385   1.494
14092TIP3    H242218   4.116   0.318   1.415
14093TIP3   OH242219   7.030   4.025   6.646
14093TIP3    H142220   6.981   3.955   6.689
14093TIP3    H242221   7.104   3.980   6.605
14094TIP3   OH242222   7.469   4.065   6.569
14094TIP3    H142223   7.500   4.000   6.632
14094TIP3    H242224   7.531   4.058   6.496
14095TIP3   OH242225   0.961   7.936   1.607
14095TIP3    H142226   0.977   7.846   1.635
14095TIP3    H242227   0.867   7.938   1.588
14096TIP3   OH242228   6.696   3.526   6.877
14096TIP3    H142229   6.749   3.502   6.953
14096TIP3    H242230   6.760   3.537   6.806
14097TIP3   OH242231   1.520   7.917   1.339
14097TIP3    H142232   1.498   7.986   1.277
14097TIP3    H242233   1.576   7.857   1.290
14098TIP3   OH242234   7.249   3.746   6.700
14098TIP3    H142235   7.230   3.759   6.793
14098TIP3    H242236   7.235   3.652   6.685
14099TIP3   OH242237   2.028   8.067   1.048
14099TIP3    H142238   2.111   8.073   1.002
14099TIP3    H242239   1.981   8.147   1.024
14100TIP3   OH242240   1.085   7.691   1.659
14100TIP3    H142241   1.167   7.700   1.611
14100TIP3    H242242   1.106   7.725   1.747
14101TIP3   OH242243   1.139   7.515   0.063
14101TIP3    H142244   1.116   7.483   0.150
14101TIP3    H242245   1.184   7.441   0.022
14102TIP3   OH242246   1.395   7.621   1.297
14102TIP3    H142247   1.318   7.674   1.277
14102TIP3    H242248   1.458   7.644   1.229
14103TIP3   OH242249   7.005   3.271   6.930
14103TIP3    H142250   6.976   3.276   6.839
14103TIP3    H242251   7.101   3.277   6.925
14104TIP3   OH242252   7.795   3.579   6.602
14104TIP3    H142253   7.786   3.528   6.522
14104TIP3    H242254   7.765   3.667   6.578
14105TIP3   OH242255   1.577   7.695   1.103
14105TIP3    H142256   1.659   7.692   1.055
14105TIP3    H242257   1.521   7.754   1.052
14106TIP3   OH242258   6.824   4.324   6.855
14106TIP3    H142259   6.914   4.304   6.828
14106TIP3    H242260   6.786   4.369   6.779
14107TIP3   OH242261   0.558   7.750   0.031
14107TIP3    H142262   0.651   7.769   0.018
14107TIP3    H242263   0.546   7.664  -0.008
14108TIP3   OH242264   3.327   0.230   0.469
14108TIP3    H142265   3.260   0.177   0.428
14108TIP3    H242266   3.372   0.171   0.529
14109TIP3   OH242267   3.465   0.062   0.641
14109TIP3    H142268   3.457  -0.006   0.708
14109TIP3    H242269   3.525   0.127   0.680
14110TIP3   OH242270   5.215   0.467   0.431
14110TIP3    H142271   5.223   0.518   0.512
14110TIP3    H242272   5.287   0.499   0.376
14111TIP3   OH242273   7.955   3.780   6.926
14111TIP3    H142274   8.017   3.847   6.897
14111TIP3    H242275   7.995   3.744   7.005
14112TIP3   OH242276   2.340   7.715   0.119
14112TIP3    H142277   2.277   7.671   0.176
14112TIP3    H242278   2.404   7.753   0.179
14113TIP3   OH242279   2.368   8.055   0.497
14113TIP3    H142280   2.418   8.004   0.433
14113TIP3    H242281   2.370   8.144   0.463
14114TIP3   OH242282   5.128   0.248   0.718
14114TIP3    H142283   5.070   0.304   0.770
14114TIP3    H242284   5.070   0.205   0.655
14115TIP3   OH242285   8.002   3.550   6.777
14115TIP3    H142286   7.930   3.543   6.715
14115TIP3    H242287   7.981   3.626   6.831
14116TIP3   OH242288   7.857   3.247   6.673
14116TIP3    H142289   7.802   3.194   6.615
14116TIP3    H242290   7.855   3.200   6.757
14117TIP3   OH242291   2.160   7.566   0.266
14117TIP3    H142292   2.179   7.472   0.258
14117TIP3    H242293   2.137   7.578   0.358
14118TIP3   OH242294   0.777   7.613   1.018
14118TIP3    H142295   0.764   7.581   0.928
14118TIP3    H242296   0.871   7.610   1.032
14119TIP3   OH242297   7.837   2.894   6.720
14119TIP3    H142298   7.851   2.954   6.793
14119TIP3    H242299   7.744   2.871   6.724
14120TIP3   OH242300   2.216   7.299   0.211
14120TIP3    H142301   2.212   7.206   0.232
14120TIP3    H242302   2.201   7.303   0.116
14121TIP3   OH242303   1.016   7.343   1.637
14121TIP3    H142304   1.049   7.318   1.550
14121TIP3    H242305   0.958   7.272   1.662
14122TIP3   OH242306   2.178   7.031   0.235
14122TIP3    H142307   2.267   6.997   0.244
14122TIP3    H242308   2.161   7.028   0.141
14123TIP3   OH242309   0.958   7.016   1.025
14123TIP3    H142310   1.014   6.939   1.016
14123TIP3    H242311   1.017   7.090   1.009
14124TIP3   OH242312   0.747   7.275   1.071
14124TIP3    H142313   0.794   7.267   0.988
14124TIP3    H242314   0.788   7.348   1.116
14125TIP3   OH242315   8.138   2.860   6.851
14125TIP3    H142316   8.121   2.810   6.771
14125TIP3    H242317   8.121   2.951   6.825
14126TIP3   OH242318   0.747   6.781   0.586
14126TIP3    H142319   0.660   6.766   0.623
14126TIP3    H242320   0.732   6.834   0.508
14127TIP3   OH242321   4.767   0.388   0.090
14127TIP3    H142322   4.824   0.371   0.015
14127TIP3    H242323   4.815   0.451   0.143
14128TIP3   OH242324   0.924   6.815   1.377
14128TIP3    H142325   0.851   6.833   1.436
14128TIP3    H242326   0.912   6.876   1.304
14129TIP3   OH242327   3.856   0.179   1.441
14129TIP3    H142328   3.774   0.129   1.446
14129TIP3    H242329   3.907   0.150   1.516
14130TIP3   OH242330   4.062   0.190   0.984
14130TIP3    H142331   4.005   0.257   0.947
14130TIP3    H242332   4.149   0.231   0.985
14131TIP3   OH242333   4.568   0.390   1.184
14131TIP3    H142334   4.508   0.446   1.233
14131TIP3    H242335   4.628   0.450   1.141
14132TIP3   OH242336   4.730   0.562   1.055
14132TIP3    H142337   4.759   0.585   0.966
14132TIP3    H242338   4.783   0.617   1.112
14133TIP3   OH242339   3.716   0.417   1.039
14133TIP3    H142340   3.625   0.435   1.016
14133TIP3    H242341   3.743   0.492   1.093
14134TIP3   OH242342   3.946   0.418   0.882
14134TIP3    H142343   3.868   0.423   0.937
14134TIP3    H242344   3.913   0.438   0.794
14135TIP3   OH242345   4.379   0.460   0.646
14135TIP3    H142346   4.296   0.443   0.602
14135TIP3    H242347   4.363   0.540   0.697
14136TIP3   OH242348   4.632   0.400   0.731
14136TIP3    H142349   4.554   0.419   0.679
14136TIP3    H242350   4.704   0.440   0.682
14137TIP3   OH242351   4.849   0.524   0.620
14137TIP3    H142352   4.878   0.611   0.593
14137TIP3    H242353   4.882   0.466   0.551
14138TIP3   OH242354   3.635   0.234   0.786
14138TIP3    H142355   3.661   0.218   0.877
14138TIP3    H242356   3.710   0.205   0.734
14139TIP3   OH242357   3.840   0.123   0.650
14139TIP3    H142358   3.850   0.041   0.698
14139TIP3    H242359   3.928   0.159   0.646
14140TIP3   OH242360   4.111   0.179   0.643
14140TIP3    H142361   4.120   0.084   0.636
14140TIP3    H242362   4.172   0.204   0.712
14141TIP3   OH242363   1.773   6.977   0.703
14141TIP3    H142364   1.786   6.908   0.769
14141TIP3    H242365   1.859   7.016   0.692
14142TIP3   OH242366   1.043   6.679   0.740
14142TIP3    H142367   0.953   6.648   0.748
14142TIP3    H242368   1.095   6.599   0.734
14143TIP3   OH242369   0.869   6.587   0.411
14143TIP3    H142370   0.895   6.637   0.333
14143TIP3    H242371   0.835   6.654   0.471
14144TIP3   OH242372   1.509   6.717   0.670
14144TIP3    H142373   1.533   6.791   0.614
14144TIP3    H242374   1.466   6.757   0.745
14145TIP3   OH242375   2.045   6.779   0.151
14145TIP3    H142376   1.989   6.851   0.182
14145TIP3    H242377   2.019   6.704   0.205
14146TIP3   OH242378   3.417   0.044   0.175
14146TIP3    H142379   3.335   0.010   0.139
14146TIP3    H242380   3.421   0.134   0.143
14147TIP3   OH242381   0.978   6.715   0.174
14147TIP3    H142382   1.022   6.654   0.115
14147TIP3    H242383   1.048   6.770   0.209
14148TIP3   OH242384   1.470   6.905   0.277
14148TIP3    H142385   1.535   6.861   0.334
14148TIP3    H242386   1.482   6.998   0.295
14149TIP3   OH242387   7.081   4.252   6.787
14149TIP3    H142388   7.165   4.279   6.750
14149TIP3    H242389   7.053   4.180   6.731
14150TIP3   OH242390   7.788   4.389   6.887
14150TIP3    H142391   7.782   4.294   6.880
14150TIP3    H242392   7.743   4.421   6.808
14151TIP3   OH242393   6.384   4.093   6.842
14151TIP3    H142394   6.383   4.100   6.938
14151TIP3    H242395   6.465   4.046   6.822
14152TIP3   OH242396   5.655   0.130   0.269
14152TIP3    H142397   5.601   0.051   0.263
14152TIP3    H242398   5.745   0.098   0.270
14153TIP3   OH242399   2.509   7.502   0.059
14153TIP3    H142400   2.449   7.577   0.063
14153TIP3    H242401   2.467   7.441  -0.001
14154TIP3   OH242402   2.567   7.786   0.264
14154TIP3    H142403   2.570   7.700   0.305
14154TIP3    H242404   2.649   7.792   0.215
14155TIP3   OH242405   0.614   4.262   6.645
14155TIP3    H142406   0.639   4.181   6.601
14155TIP3    H242407   0.547   4.235   6.708
14156TIP3   OH242408   8.140   3.961   6.819
14156TIP3    H142409   8.100   3.977   6.734
14156TIP3    H242410   8.166   4.048   6.851
14157TIP3   OH242411   0.541   3.872   6.663
14157TIP3    H142412   0.447   3.858   6.672
14157TIP3    H242413   0.573   3.795   6.615
14158TIP3   OH242414   2.931   7.897   0.020
14158TIP3    H142415   2.891   7.833  -0.039
14158TIP3    H242416   2.976   7.846   0.086
14159TIP3   OH242417   0.359   4.411   6.784
14159TIP3    H142418   0.419   4.443   6.851
14159TIP3    H242419   0.337   4.488   6.732
14160TIP3   OH242420   8.542   3.665   6.855
14160TIP3    H142421   8.470   3.718   6.820
14160TIP3    H242422   8.499   3.589   6.894
14161TIP3   OH242423   5.307   0.203   0.379
14161TIP3    H142424   5.399   0.210   0.407
14161TIP3    H242425   5.263   0.276   0.422
14162TIP3   OH242426   0.311   4.619   6.584
14162TIP3    H142427   0.265   4.580   6.509
14162TIP3    H242428   0.336   4.706   6.554
14163TIP3   OH242429   8.362   4.459   6.927
14163TIP3    H142430   8.403   4.446   7.012
14163TIP3    H242431   8.312   4.379   6.911
14164TIP3   OH242432   0.529   4.553   6.278
14164TIP3    H142433   0.564   4.488   6.217
14164TIP3    H242434   0.592   4.554   6.350
14165TIP3   OH242435   0.576   4.533   6.620
14165TIP3    H142436   0.485   4.552   6.597
14165TIP3    H242437   0.583   4.438   6.614
14166TIP3   OH242438   0.065   3.106   6.443
14166TIP3    H142439   0.008   3.086   6.369
14166TIP3    H242440   0.025   3.062   6.518
14167TIP3   OH242441   8.262   3.125   6.814
14167TIP3    H142442   8.311   3.169   6.746
14167TIP3    H242443   8.197   3.189   6.843
14168TIP3   OH242444   8.589   3.397   6.606
14168TIP3    H142445   8.499   3.363   6.614
14168TIP3    H242446   8.642   3.334   6.654
14169TIP3   OH242447   0.261   3.850   6.716
14169TIP3    H142448   0.171   3.820   6.710
14169TIP3    H242449   0.259   3.922   6.779
14170TIP3   OH242450   0.394   4.026   6.438
14170TIP3    H142451   0.325   4.087   6.412
14170TIP3    H242452   0.414   4.050   6.529
14171TIP3   OH242453   0.050   4.256   6.895
14171TIP3    H142454   0.052   4.339   6.848
14171TIP3    H242455  -0.035   4.217   6.873
14172TIP3   OH242456   8.235   3.549   6.635
14172TIP3    H142457   8.276   3.633   6.658
14172TIP3    H242458   8.154   3.547   6.685
14173TIP3   OH242459   0.235   4.050   6.906
14173TIP3    H142460   0.174   4.125   6.909
14173TIP3    H242461   0.223   4.007   6.990
14174TIP3   OH242462   8.581   4.498   6.766
14174TIP3    H142463   8.498   4.495   6.815
14174TIP3    H242464   8.607   4.590   6.769
14175TIP3   OH242465   0.078   4.055   6.216
14175TIP3    H142466   0.049   3.968   6.191
14175TIP3    H242467   0.095   4.049   6.310
14176TIP3   OH242468   8.538   4.122   6.571
14176TIP3    H142469   8.623   4.092   6.539
14176TIP3    H242470   8.538   4.216   6.557
14177TIP3   OH242471   8.338   3.794   6.722
14177TIP3    H142472   8.273   3.840   6.775
14177TIP3    H242473   8.348   3.850   6.644
14178TIP3   OH242474   0.174   4.223   6.436
14178TIP3    H142475   0.106   4.282   6.468
14178TIP3    H242476   0.256   4.271   6.450
14179TIP3   OH242477   8.576   4.390   6.516
14179TIP3    H142478   8.546   4.459   6.458
14179TIP3    H242479   8.580   4.431   6.603
14180TIP3   OH242480   8.329   3.967   6.501
14180TIP3    H142481   8.395   4.031   6.526
14180TIP3    H242482   8.374   3.909   6.439
14181TIP3   OH242483   8.332   3.297   6.612
14181TIP3    H142484   8.297   3.384   6.631
14181TIP3    H242485   8.268   3.258   6.553
14182TIP3   OH242486   8.197   4.232   6.894
14182TIP3    H142487   8.147   4.264   6.969
14182TIP3    H242488   8.156   4.273   6.818
14183TIP3   OH242489   0.215   4.307   6.177
14183TIP3    H142490   0.163   4.265   6.245
14183TIP3    H242491   0.274   4.239   6.145
14184TIP3   OH242492   8.469   3.775   6.367
14184TIP3    H142493   8.521   3.740   6.440
14184TIP3    H242494   8.531   3.785   6.295
14185TIP3   OH242495   0.476   3.928   6.179
14185TIP3    H142496   0.491   3.989   6.251
14185TIP3    H242497   0.432   3.853   6.219
14186TIP3   OH242498   0.039   3.700   6.594
14186TIP3    H142499  -0.005   3.676   6.675
14186TIP3    H242500   0.070   3.616   6.558
14187TIP3   OH242501   0.200   3.549   6.405
14187TIP3    H142502   0.129   3.514   6.352
14187TIP3    H242503   0.268   3.481   6.403
14188TIP3   OH242504   8.550   4.613   6.350
14188TIP3    H142505   8.644   4.598   6.356
14188TIP3    H242506   8.536   4.645   6.261
14189TIP3   OH242507   8.064   3.953   6.541
14189TIP3    H142508   8.158   3.968   6.529
14189TIP3    H242509   8.048   3.868   6.500
14190TIP3   OH242510   7.996   4.543   6.973
14190TIP3    H142511   7.929   4.489   6.930
14190TIP3    H242512   8.041   4.483   7.032
14191TIP3   OH242513   5.270   0.328   0.125
14191TIP3    H142514   5.259   0.261   0.193
14191TIP3    H242515   5.320   0.398   0.168
14192TIP3   OH242516   2.527   7.122   0.061
14192TIP3    H142517   2.475   7.043   0.050
14192TIP3    H242518   2.547   7.151  -0.028
14193TIP3   OH242519   5.447   0.514   0.279
14193TIP3    H142520   5.500   0.566   0.339
14193TIP3    H242521   5.511   0.464   0.228
14194TIP3   OH242522   5.636   0.370   0.141
14194TIP3    H142523   5.636   0.286   0.186
14194TIP3    H242524   5.725   0.380   0.108
14195TIP3   OH242525   8.416   2.843   6.861
14195TIP3    H142526   8.323   2.861   6.848
14195TIP3    H242527   8.425   2.826   6.955
14196TIP3   OH242528   8.084   4.353   6.676
14196TIP3    H142529   7.999   4.318   6.648
14196TIP3    H242530   8.082   4.445   6.649
14197TIP3   OH242531   8.520   2.962   6.633
14197TIP3    H142532   8.563   2.882   6.603
14197TIP3    H242533   8.488   2.940   6.721
14198TIP3   OH242534   0.213   4.549   6.330
14198TIP3    H142535   0.246   4.608   6.263
14198TIP3    H242536   0.216   4.463   6.290
14199TIP3   OH242537   8.179   4.351   6.337
14199TIP3    H142538   8.179   4.359   6.433
14199TIP3    H242539   8.261   4.306   6.317
14200TIP3   OH242540   7.459   1.193   1.328
14200TIP3    H142541   7.487   1.102   1.339
14200TIP3    H242542   7.541   1.242   1.321
14201TIP3   OH242543   7.620   0.972   1.331
14201TIP3    H142544   7.634   0.925   1.249
14201TIP3    H242545   7.700   1.022   1.344
14202TIP3   OH242546   7.250   0.320   1.051
14202TIP3    H142547   7.328   0.356   1.093
14202TIP3    H242548   7.259   0.225   1.063
14203TIP3   OH242549   7.501   0.416   1.140
14203TIP3    H142550   7.471   0.501   1.172
14203TIP3    H242551   7.526   0.432   1.049
14204TIP3   OH242552   5.159   7.827   1.232
14204TIP3    H142553   5.078   7.807   1.279
14204TIP3    H242554   5.136   7.900   1.175
14205TIP3   OH242555   7.819   1.039   0.735
14205TIP3    H142556   7.821   1.130   0.707
14205TIP3    H242557   7.908   1.007   0.720
14206TIP3   OH242558   7.055   1.319   1.196
14206TIP3    H142559   7.038   1.312   1.102
14206TIP3    H242560   7.075   1.411   1.210
14207TIP3   OH242561   7.316   1.267   0.839
14207TIP3    H142562   7.369   1.195   0.806
14207TIP3    H242563   7.338   1.272   0.932
14208TIP3   OH242564   7.326   1.301   1.116
14208TIP3    H142565   7.235   1.292   1.146
14208TIP3    H242566   7.378   1.257   1.182
14209TIP3   OH242567   7.567   0.457   0.879
14209TIP3    H142568   7.516   0.467   0.798
14209TIP3    H242569   7.654   0.490   0.857
14210TIP3   OH242570   7.549  -0.021   1.111
14210TIP3    H142571   7.457   0.005   1.109
14210TIP3    H242572   7.591   0.040   1.171
14211TIP3   OH242573   7.658   0.202   1.230
14211TIP3    H142574   7.729   0.216   1.167
14211TIP3    H242575   7.597   0.274   1.215
14212TIP3   OH242576   7.189   0.784   1.109
14212TIP3    H142577   7.175   0.879   1.108
14212TIP3    H242578   7.113   0.749   1.156
14213TIP3   OH242579   8.055   0.316   1.032
14213TIP3    H142580   8.001   0.269   0.968
14213TIP3    H242581   8.038   0.408   1.014
14214TIP3   OH242582   7.733   1.094   0.992
14214TIP3    H142583   7.694   1.014   1.027
14214TIP3    H242584   7.760   1.071   0.903
14215TIP3   OH242585   7.493   0.853   0.890
14215TIP3    H142586   7.530   0.838   0.977
14215TIP3    H242587   7.409   0.808   0.892
14216TIP3   OH242588   7.842   1.305   0.683
14216TIP3    H142589   7.868   1.367   0.614
14216TIP3    H242590   7.765   1.346   0.724
14217TIP3   OH242591   7.673   0.815   1.107
14217TIP3    H142592   7.650   0.733   1.151
14217TIP3    H242593   7.767   0.808   1.092
14218TIP3   OH242594   6.887   0.816   0.891
14218TIP3    H142595   6.886   0.726   0.859
14218TIP3    H242596   6.889   0.808   0.986
14219TIP3   OH242597   6.877   0.807   1.167
14219TIP3    H142598   6.796   0.775   1.207
14219TIP3    H242599   6.866   0.902   1.164
14220TIP3   OH242600   7.098   1.040   1.100
14220TIP3    H142601   7.015   1.062   1.143
14220TIP3    H242602   7.101   1.097   1.023
14221TIP3   OH242603   6.812   1.076   1.151
14221TIP3    H142604   6.793   1.132   1.076
14221TIP3    H242605   6.729   1.073   1.200
14222TIP3   OH242606   6.562   0.790   1.114
14222TIP3    H142607   6.570   0.863   1.052
14222TIP3    H242608   6.573   0.712   1.060
14223TIP3   OH242609   7.024   1.035   0.801
14223TIP3    H142610   6.978   0.959   0.838
14223TIP3    H242611   7.097   0.996   0.752
14224TIP3   OH242612   7.453   1.063   0.719
14224TIP3    H142613   7.485   0.995   0.779
14224TIP3    H242614   7.508   1.055   0.642
14225TIP3   OH242615   6.642   0.560   0.980
14225TIP3    H142616   6.664   0.511   1.059
14225TIP3    H242617   6.724   0.562   0.930
14226TIP3   OH242618   7.246   0.729   0.848
14226TIP3    H142619   7.212   0.743   0.936
14226TIP3    H242620   7.226   0.637   0.829
14227TIP3   OH242621   6.981   0.233   1.071
14227TIP3    H142622   6.942   0.255   0.986
14227TIP3    H242623   7.061   0.286   1.074
14228TIP3   OH242624   7.788   0.567   0.757
14228TIP3    H142625   7.778   0.518   0.675
14228TIP3    H242626   7.759   0.656   0.735
14229TIP3   OH242627   6.759   1.273   0.967
14229TIP3    H142628   6.820   1.342   0.992
14229TIP3    H242629   6.734   1.294   0.877
14230TIP3   OH242630   8.060   1.575   1.490
14230TIP3    H142631   7.974   1.557   1.528
14230TIP3    H242632   8.069   1.670   1.494
14231TIP3   OH242633   7.944   0.778   1.096
14231TIP3    H142634   8.003   0.843   1.057
14231TIP3    H242635   7.994   0.742   1.169
14232TIP3   OH242636   8.095   0.663   1.296
14232TIP3    H142637   8.047   0.629   1.372
14232TIP3    H242638   8.179   0.693   1.332
14233TIP3   OH242639   7.997   0.562   0.933
14233TIP3    H142640   7.927   0.551   0.869
14233TIP3    H242641   7.971   0.639   0.984
14234TIP3   OH242642   7.865   0.254   0.840
14234TIP3    H142643   7.824   0.241   0.754
14234TIP3    H242644   7.832   0.181   0.893
14235TIP3   OH242645   7.785   0.044   0.983
14235TIP3    H142646   7.856  -0.017   1.003
14235TIP3    H242647   7.706  -0.001   1.013
14236TIP3   OH242648   5.127   7.979   1.002
14236TIP3    H142649   5.162   7.943   0.921
14236TIP3    H242650   5.187   8.050   1.025
14237TIP3   OH242651   7.695   1.329   1.286
14237TIP3    H142652   7.726   1.357   1.200
14237TIP3    H242653   7.651   1.407   1.321
14238TIP3   OH242654   7.054   1.281   0.924
14238TIP3    H142655   7.141   1.289   0.883
14238TIP3    H242656   7.011   1.211   0.875
14239TIP3   OH242657   7.779   1.364   1.022
14239TIP3    H142658   7.768   1.270   1.017
14239TIP3    H242659   7.735   1.398   0.944
14240TIP3   OH242660   0.660   0.905   0.980
14240TIP3    H142661   0.626   0.993   0.962
14240TIP3    H242662   0.590   0.846   0.950
14241TIP3   OH242663   0.659   0.911   1.374
14241TIP3    H142664   0.706   0.892   1.455
14241TIP3    H242665   0.614   0.828   1.353
14242TIP3   OH242666   0.919   1.206   1.067
14242TIP3    H142667   0.912   1.140   1.136
14242TIP3    H242668   0.941   1.287   1.115
14243TIP3   OH242669   8.548   1.213   1.452
14243TIP3    H142670   8.539   1.117   1.456
14243TIP3    H242671   8.641   1.227   1.435
14244TIP3   OH242672   8.317   0.492   1.184
14244TIP3    H142673   8.254   0.564   1.176
14244TIP3    H242674   8.269   0.423   1.231
14245TIP3   OH242675   8.349   0.684   1.391
14245TIP3    H142676   8.415   0.704   1.457
14245TIP3    H242677   8.392   0.622   1.332
14246TIP3   OH242678   0.580   1.643   1.080
14246TIP3    H142679   0.610   1.584   1.011
14246TIP3    H242680   0.581   1.591   1.160
14247TIP3   OH242681   0.473   1.131   1.402
14247TIP3    H142682   0.511   1.051   1.364
14247TIP3    H242683   0.549   1.181   1.432
14248TIP3   OH242684   1.511   0.441   1.407
14248TIP3    H142685   1.529   0.526   1.446
14248TIP3    H242686   1.546   0.447   1.318
14249TIP3   OH242687   0.863   0.604   1.453
14249TIP3    H142688   0.914   0.525   1.470
14249TIP3    H242689   0.835   0.595   1.362
14250TIP3   OH242690   0.135   0.348   1.420
14250TIP3    H142691   0.131   0.410   1.347
14250TIP3    H242692   0.071   0.280   1.398
14251TIP3   OH242693   0.928   0.386   1.024
14251TIP3    H142694   0.994   0.373   1.093
14251TIP3    H242695   0.978   0.420   0.949
14252TIP3   OH242696   0.284   0.700   1.328
14252TIP3    H142697   0.378   0.685   1.339
14252TIP3    H242698   0.250   0.617   1.295
14253TIP3   OH242699   1.567   0.662   1.571
14253TIP3    H142700   1.477   0.694   1.560
14253TIP3    H242701   1.589   0.683   1.662
14254TIP3   OH242702   0.516   1.112   0.869
14254TIP3    H142703   0.512   1.107   0.773
14254TIP3    H242704   0.479   1.198   0.889
14255TIP3   OH242705   0.327   1.039   1.618
14255TIP3    H142706   0.266   1.110   1.637
14255TIP3    H242707   0.380   1.071   1.546
14256TIP3   OH242708   1.100   0.396   1.233
14256TIP3    H142709   1.064   0.370   1.318
14256TIP3    H242710   1.159   0.469   1.253
14257TIP3   OH242711   8.128   0.945   0.974
14257TIP3    H142712   8.098   0.961   0.884
14257TIP3    H242713   8.150   1.032   1.007
14258TIP3   OH242714   0.955   1.459   1.210
14258TIP3    H142715   0.869   1.459   1.254
14258TIP3    H242716   0.957   1.541   1.161
14259TIP3   OH242717   1.289   0.360   1.558
14259TIP3    H142718   1.209   0.366   1.506
14259TIP3    H242719   1.360   0.382   1.497
14260TIP3   OH242720   0.675   1.496   0.864
14260TIP3    H142721   0.719   1.412   0.855
14260TIP3    H242722   0.739   1.560   0.832
14261TIP3   OH242723   0.810   1.267   0.817
14261TIP3    H142724   0.826   1.199   0.751
14261TIP3    H242725   0.850   1.232   0.896
14262TIP3   OH242726   1.198   1.358   1.560
14262TIP3    H142727   1.189   1.278   1.508
14262TIP3    H242728   1.185   1.429   1.498
14263TIP3   OH242729   0.488   0.751   0.818
14263TIP3    H142730   0.409   0.802   0.802
14263TIP3    H242731   0.535   0.752   0.735
14264TIP3   OH242732   0.457   0.545   0.527
14264TIP3    H142733   0.523   0.598   0.572
14264TIP3    H242734   0.508   0.481   0.477
14265TIP3   OH242735   1.387   0.999   1.413
14265TIP3    H142736   1.304   1.046   1.421
14265TIP3    H242737   1.417   1.016   1.324
14266TIP3   OH242738   0.844   0.829   0.791
14266TIP3    H142739   0.790   0.858   0.864
14266TIP3    H242740   0.928   0.806   0.831
14267TIP3   OH242741   1.083   0.873   1.659
14267TIP3    H142742   1.088   0.961   1.695
14267TIP3    H242743   0.992   0.862   1.633
14268TIP3   OH242744   0.072   0.835   1.205
14268TIP3    H142745   0.029   0.767   1.152
14268TIP3    H242746   0.147   0.791   1.244
14269TIP3   OH242747   0.209   1.242   1.338
14269TIP3    H142748   0.182   1.219   1.249
14269TIP3    H242749   0.296   1.203   1.347
14270TIP3   OH242750   0.177   0.815   1.557
14270TIP3    H142751   0.224   0.773   1.486
14270TIP3    H242752   0.238   0.881   1.591
14271TIP3   OH242753   0.727   1.467   1.366
14271TIP3    H142754   0.721   1.524   1.442
14271TIP3    H242755   0.717   1.379   1.401
14272TIP3   OH242756   0.678   0.698   0.614
14272TIP3    H142757   0.737   0.755   0.663
14272TIP3    H242758   0.706   0.707   0.523
14273TIP3   OH242759   0.423   1.376   0.888
14273TIP3    H142760   0.508   1.421   0.885
14273TIP3    H242761   0.365   1.430   0.834
14274TIP3   OH242762   6.932   8.037   0.665
14274TIP3    H142763   6.855   8.065   0.715
14274TIP3    H242764   6.950   8.110   0.606
14275TIP3   OH242765   8.521   0.642   1.050
14275TIP3    H142766   8.478   0.702   0.989
14275TIP3    H242767   8.451   0.582   1.077
14276TIP3   OH242768   8.228   1.254   1.503
14276TIP3    H142769   8.316   1.216   1.512
14276TIP3    H242770   8.188   1.243   1.589
14277TIP3   OH242771   1.428   1.709   1.605
14277TIP3    H142772   1.434   1.613   1.612
14277TIP3    H242773   1.347   1.731   1.649
14278TIP3   OH242774   0.513   1.528   1.728
14278TIP3    H142775   0.506   1.618   1.762
14278TIP3    H242776   0.454   1.477   1.784
14279TIP3   OH242777   0.307   1.594   0.706
14279TIP3    H142778   0.264   1.571   0.624
14279TIP3    H242779   0.269   1.678   0.730
14280TIP3   OH242780   8.345   1.446   1.076
14280TIP3    H142781   8.384   1.442   1.163
14280TIP3    H242782   8.295   1.365   1.068
14281TIP3   OH242783   0.526   1.516   0.340
14281TIP3    H142784   0.606   1.485   0.296
14281TIP3    H242785   0.551   1.527   0.432
14282TIP3   OH242786   0.562   1.567   0.610
14282TIP3    H142787   0.474   1.571   0.648
14282TIP3    H242788   0.615   1.524   0.677
14283TIP3   OH242789   0.762   0.686   0.353
14283TIP3    H142790   0.720   0.683   0.267
14283TIP3    H242791   0.836   0.747   0.341
14284TIP3   OH242792   0.463   0.106   0.670
14284TIP3    H142793   0.426   0.103   0.758
14284TIP3    H242794   0.428   0.028   0.626
14285TIP3   OH242795   0.128   0.510   1.195
14285TIP3    H142796   0.052   0.554   1.157
14285TIP3    H242797   0.180   0.482   1.120
14286TIP3   OH242798   0.642   0.565   0.948
14286TIP3    H142799   0.588   0.633   0.907
14286TIP3    H242800   0.700   0.535   0.879
14287TIP3   OH242801   0.792   0.569   1.187
14287TIP3    H142802   0.727   0.598   1.124
14287TIP3    H242803   0.836   0.495   1.145
14288TIP3   OH242804   0.129   0.085   0.612
14288TIP3    H142805   0.119   0.086   0.707
14288TIP3    H242806   0.053   0.132   0.579
14289TIP3   OH242807   8.317   0.278   0.977
14289TIP3    H142808   8.324   0.238   0.890
14289TIP3    H242809   8.224   0.295   0.988
14290TIP3   OH242810   0.810   0.829   1.595
14290TIP3    H142811   0.832   0.750   1.546
14290TIP3    H242812   0.750   0.799   1.664
14291TIP3   OH242813   0.563   0.326   1.257
14291TIP3    H142814   0.497   0.324   1.327
14291TIP3    H242815   0.645   0.303   1.301
14292TIP3   OH242816   0.221   0.417   0.956
14292TIP3    H142817   0.315   0.399   0.960
14292TIP3    H242818   0.200   0.418   0.863
14293TIP3   OH242819   0.981   0.350   1.481
14293TIP3    H142820   0.999   0.304   1.562
14293TIP3    H242821   0.905   0.305   1.443
14294TIP3   OH242822   0.019   0.362   0.746
14294TIP3    H142823  -0.044   0.318   0.688
14294TIP3    H242824   0.076   0.410   0.686
14295TIP3   OH242825   1.114   2.030   1.700
14295TIP3    H142826   1.111   2.041   1.605
14295TIP3    H242827   1.196   2.072   1.726
14296TIP3   OH242828   0.550   0.640   1.383
14296TIP3    H142829   0.610   0.583   1.335
14296TIP3    H242830   0.537   0.596   1.467
14297TIP3   OH242831   8.537   0.199   1.275
14297TIP3    H142832   8.527   0.115   1.320
14297TIP3    H242833   8.617   0.189   1.223
14298TIP3   OH242834   0.255   0.896   0.762
14298TIP3    H142835   0.182   0.838   0.744
14298TIP3    H242836   0.234   0.936   0.846
14299TIP3   OH242837   1.151   1.147   1.385
14299TIP3    H142838   1.188   1.194   1.310
14299TIP3    H242839   1.072   1.105   1.351
14300TIP3   OH242840   0.714   0.213   0.649
14300TIP3    H142841   0.621   0.192   0.654
14300TIP3    H242842   0.717   0.308   0.662
14301TIP3   OH242843   0.791   0.469   0.732
14301TIP3    H142844   0.886   0.473   0.741
14301TIP3    H242845   0.769   0.546   0.679
14302TIP3   OH242846   8.564   0.940   1.442
14302TIP3    H142847   8.587   0.912   1.353
14302TIP3    H242848   8.629   0.897   1.498
14303TIP3   OH242849   0.418   1.050   0.594
14303TIP3    H142850   0.372   1.134   0.597
14303TIP3    H242851   0.366   0.993   0.651
14304TIP3   OH242852   0.781   1.532   1.660
14304TIP3    H142853   0.686   1.524   1.672
14304TIP3    H242854   0.818   1.472   1.725
14305TIP3   OH242855   1.202   0.560   0.562
14305TIP3    H142856   1.146   0.511   0.502
14305TIP3    H242857   1.204   0.649   0.526
14306TIP3   OH242858   1.448   1.426   1.646
14306TIP3    H142859   1.354   1.411   1.634
14306TIP3    H242860   1.488   1.392   1.566
14307TIP3   OH242861   0.911   1.010   1.279
14307TIP3    H142862   0.820   0.981   1.289
14307TIP3    H242863   0.957   0.932   1.246
14308TIP3   OH242864   0.067   1.243   1.089
14308TIP3    H142865   0.065   1.319   1.031
14308TIP3    H242866  -0.025   1.221   1.103
14309TIP3   OH242867   8.226   0.540   0.783
14309TIP3    H142868   8.277   0.616   0.808
14309TIP3    H242869   8.145   0.547   0.835
14310TIP3   OH242870   0.160   0.998   0.996
14310TIP3    H142871   0.147   1.089   1.021
14310TIP3    H242872   0.134   0.947   1.072
14311TIP3   OH242873   0.336   1.570   1.516
14311TIP3    H142874   0.374   1.645   1.472
14311TIP3    H242875   0.405   1.538   1.575
14312TIP3   OH242876   8.580   1.464   0.932
14312TIP3    H142877   8.493   1.468   0.972
14312TIP3    H242878   8.611   1.555   0.934
14313TIP3   OH242879   0.737   1.212   1.483
14313TIP3    H142880   0.786   1.211   1.565
14313TIP3    H242881   0.777   1.143   1.430
14314TIP3   OH242882   0.672   1.058   0.424
14314TIP3    H142883   0.739   1.066   0.492
14314TIP3    H242884   0.589   1.058   0.472
14315TIP3   OH242885   0.964   1.716   1.543
14315TIP3    H142886   0.886   1.669   1.574
14315TIP3    H242887   0.929   1.784   1.485
14316TIP3   OH242888   0.863   1.054   0.630
14316TIP3    H142889   0.855   0.975   0.684
14316TIP3    H242890   0.955   1.054   0.601
14317TIP3   OH242891   0.043   1.076   0.393
14317TIP3    H142892   0.062   0.987   0.364
14317TIP3    H242893   0.029   1.069   0.487
14318TIP3   OH242894  -0.006   1.088   0.667
14318TIP3    H142895   0.069   1.062   0.720
14318TIP3    H242896  -0.005   1.184   0.671
14319TIP3   OH242897   8.338   0.781   0.881
14319TIP3    H142898   8.270   0.827   0.930
14319TIP3    H242899   8.357   0.838   0.807
14320TIP3   OH242900   0.784   0.180   0.914
14320TIP3    H142901   0.763   0.200   0.823
14320TIP3    H242902   0.827   0.259   0.947
14321TIP3   OH242903   0.269   1.277   0.608
14321TIP3    H142904   0.183   1.301   0.643
14321TIP3    H242905   0.290   1.347   0.546
14322TIP3   OH242906   0.480   0.354   1.000
14322TIP3    H142907   0.537   0.424   0.968
14322TIP3    H242908   0.503   0.344   1.092
14323TIP3   OH242909   0.616   0.091   1.103
14323TIP3    H142910   0.595   0.161   1.165
14323TIP3    H242911   0.679   0.130   1.043
14324TIP3   OH242912   0.015   1.361   0.679
14324TIP3    H142913  -0.006   1.432   0.618
14324TIP3    H242914   0.001   1.399   0.766
14325TIP3   OH242915   0.107   0.082   0.883
14325TIP3    H142916   0.086   0.172   0.904
14325TIP3    H242917   0.199   0.072   0.907
14326TIP3   OH242918   1.406   0.571   1.805
14326TIP3    H142919   1.321   0.613   1.796
14326TIP3    H242920   1.403   0.498   1.743
14327TIP3   OH242921   1.011   0.755   1.196
14327TIP3    H142922   0.936   0.696   1.202
14327TIP3    H242923   1.081   0.710   1.245
14328TIP3   OH242924   8.344   0.963   0.664
14328TIP3    H142925   8.415   1.028   0.672
14328TIP3    H242926   8.376   0.901   0.599
14329TIP3   OH242927   8.266   0.276   0.711
14329TIP3    H142928   8.246   0.365   0.738
14329TIP3    H242929   8.181   0.237   0.692
14330TIP3   OH242930   0.981   1.729   1.128
14330TIP3    H142931   0.937   1.783   1.062
14330TIP3    H242932   1.074   1.745   1.114
14331TIP3   OH242933   8.173   1.216   1.055
14331TIP3    H142934   8.126   1.255   1.129
14331TIP3    H242935   8.135   1.260   0.978
14332TIP3   OH242936   0.213   1.270   0.286
14332TIP3    H142937   0.165   1.198   0.327
14332TIP3    H242938   0.291   1.228   0.249
14333TIP3   OH242939   8.470   0.772   0.518
14333TIP3    H142940   8.524   0.748   0.593
14333TIP3    H242941   8.533   0.784   0.447
14334TIP3   OH242942   0.360   0.984   0.328
14334TIP3    H142943   0.377   1.000   0.421
14334TIP3    H242944   0.372   0.889   0.318
14335TIP3   OH242945   0.941   1.294   1.666
14335TIP3    H142946   1.036   1.285   1.665
14335TIP3    H242947   0.922   1.365   1.605
14336TIP3   OH242948   0.052   0.704   0.726
14336TIP3    H142949   0.025   0.657   0.806
14336TIP3    H242950   0.100   0.639   0.675
14337TIP3   OH242951   0.185   0.511   0.581
14337TIP3    H142952   0.152   0.512   0.491
14337TIP3    H242953   0.280   0.519   0.572
14338TIP3   OH242954   0.966   0.851   0.254
14338TIP3    H142955   0.954   0.813   0.167
14338TIP3    H242956   0.941   0.942   0.244
14339TIP3   OH242957   5.702   6.863   0.705
14339TIP3    H142958   5.644   6.862   0.630
14339TIP3    H242959   5.765   6.933   0.687
14340TIP3   OH242960   0.010   1.573   0.497
14340TIP3    H142961   0.099   1.550   0.468
14340TIP3    H242962  -0.030   1.616   0.422
14341TIP3   OH242963   8.073   0.944   0.696
14341TIP3    H142964   8.167   0.961   0.683
14341TIP3    H242965   8.057   0.862   0.648
14342TIP3   OH242966   7.975   1.536   1.110
14342TIP3    H142967   7.911   1.480   1.064
14342TIP3    H242968   8.025   1.475   1.164
14343TIP3   OH242969   8.109   1.381   1.292
14343TIP3    H142970   8.153   1.317   1.348
14343TIP3    H242971   8.086   1.452   1.351
14344TIP3   OH242972   1.241   1.807   1.103
14344TIP3    H142973   1.275   1.831   1.190
14344TIP3    H242974   1.313   1.827   1.043
14345TIP3   OH242975   1.272   1.814   1.388
14345TIP3    H142976   1.228   1.730   1.375
14345TIP3    H242977   1.348   1.793   1.442
14346TIP3   OH242978   1.308   1.552   1.939
14346TIP3    H142979   1.255   1.475   1.920
14346TIP3    H242980   1.276   1.619   1.879
14347TIP3   OH242981   1.140   1.019   0.586
14347TIP3    H142982   1.198   1.087   0.552
14347TIP3    H242983   1.189   0.980   0.659
14348TIP3   OH242984   1.274   0.876   0.783
14348TIP3    H142985   1.206   0.839   0.840
14348TIP3    H242986   1.339   0.912   0.843
14349TIP3   OH242987   1.321   1.279   1.209
14349TIP3    H142988   1.374   1.210   1.171
14349TIP3    H242989   1.328   1.352   1.147
14350TIP3   OH242990   1.138   1.567   1.392
14350TIP3    H142991   1.071   1.615   1.440
14350TIP3    H242992   1.091   1.526   1.319
14351TIP3   OH242993   1.180   0.800   0.423
14351TIP3    H142994   1.109   0.807   0.359
14351TIP3    H242995   1.167   0.875   0.481
14352TIP3   OH242996   1.043   0.444   0.373
14352TIP3    H142997   1.003   0.487   0.297
14352TIP3    H242998   1.034   0.351   0.355
14353TIP3   OH242999   1.073   0.741   0.923
14353TIP3    H143000   1.082   0.647   0.909
14353TIP3    H243001   1.057   0.750   1.017
14354TIP3   OH243002   1.359   1.153   1.751
14354TIP3    H143003   1.442   1.106   1.753
14354TIP3    H243004   1.381   1.240   1.719
14355TIP3   OH243005   1.566   0.968   1.799
14355TIP3    H143006   1.482   0.947   1.841
14355TIP3    H243007   1.615   0.886   1.802
14356TIP3   OH243008   1.005   0.172   0.331
14356TIP3    H143009   1.072   0.149   0.396
14356TIP3    H243010   0.925   0.131   0.365
14357TIP3   OH243011   1.076   0.470   0.800
14357TIP3    H143012   1.126   0.389   0.816
14357TIP3    H243013   1.119   0.509   0.724
14358TIP3   OH243014   1.229   0.625   1.320
14358TIP3    H143015   1.308   0.646   1.272
14358TIP3    H243016   1.244   0.659   1.408
14359TIP3   OH243017   1.311   0.769   1.548
14359TIP3    H143018   1.231   0.796   1.592
14359TIP3    H243019   1.340   0.847   1.500
14360TIP3   OH243020   1.201   0.227   0.852
14360TIP3    H143021   1.239   0.203   0.936
14360TIP3    H243022   1.136   0.159   0.835
14361TIP3   OH243023   1.240   0.131   0.484
14361TIP3    H143024   1.285   0.070   0.425
14361TIP3    H243025   1.298   0.207   0.488
14362TIP3   OH243026   5.326   8.071   1.195
14362TIP3    H143027   5.314   8.007   1.266
14362TIP3    H243028   5.358   8.150   1.239
14363TIP3   OH243029   0.847   1.672   0.744
14363TIP3    H143030   0.872   1.639   0.657
14363TIP3    H243031   0.920   1.727   0.771
14364TIP3   OH243032   0.126   1.543   1.697
14364TIP3    H143033   0.068   1.613   1.665
14364TIP3    H243034   0.194   1.537   1.630
14365TIP3   OH243035   0.584   1.796   1.795
14365TIP3    H143036   0.629   1.803   1.880
14365TIP3    H243037   0.654   1.776   1.733
14366TIP3   OH243038   8.591   1.748   1.559
14366TIP3    H143039   8.505   1.705   1.566
14366TIP3    H243040   8.592   1.784   1.470
14367TIP3   OH243041   0.410   1.801   1.384
14367TIP3    H143042   0.364   1.793   1.300
14367TIP3    H243043   0.350   1.848   1.441
14368TIP3   OH243044   0.675   1.773   1.471
14368TIP3    H143045   0.587   1.778   1.433
14368TIP3    H243046   0.733   1.810   1.404
14369TIP3   OH243047   0.894   1.897   1.329
14369TIP3    H143048   0.882   1.979   1.282
14369TIP3    H243049   0.923   1.835   1.263
14370TIP3   OH243050   8.352   1.606   1.480
14370TIP3    H143051   8.273   1.559   1.508
14370TIP3    H243052   8.399   1.542   1.426
14371TIP3   OH243053   8.489   1.439   1.312
14371TIP3    H143054   8.498   1.357   1.361
14371TIP3    H243055   8.578   1.472   1.303
14372TIP3   OH243056   0.160   1.518   1.311
14372TIP3    H143057   0.179   1.425   1.295
14372TIP3    H243058   0.209   1.539   1.390
14373TIP3   OH243059   0.767   0.202   1.390
14373TIP3    H143060   0.723   0.143   1.451
14373TIP3    H243061   0.825   0.145   1.339
14374TIP3   OH243062   1.242   0.111   1.334
14374TIP3    H143063   1.285   0.143   1.254
14374TIP3    H243064   1.149   0.110   1.312
14375TIP3   OH243065   1.351   0.149   1.079
14375TIP3    H143066   1.421   0.093   1.043
14375TIP3    H243067   1.383   0.238   1.066
14376TIP3   OH243068   5.484   7.898   1.049
14376TIP3    H143069   5.552   7.962   1.029
14376TIP3    H243070   5.428   7.942   1.114
14377TIP3   OH243071   0.388   0.055   1.317
14377TIP3    H143072   0.395   0.010   1.234
14377TIP3    H243073   0.449   0.009   1.375
14378TIP3   OH243074   0.972   0.056   1.277
14378TIP3    H143075   0.989   0.008   1.196
14378TIP3    H243076   0.980  -0.010   1.346
14379TIP3   OH243077   1.005   0.037   0.828
14379TIP3    H143078   0.925   0.082   0.853
14379TIP3    H243079   0.997  -0.049   0.869
14380TIP3   OH243080   8.069   1.345   0.837
14380TIP3    H143081   7.989   1.310   0.798
14380TIP3    H243082   8.073   1.436   0.808
14381TIP3   OH243083   5.638   8.013   0.804
14381TIP3    H143084   5.668   7.942   0.749
14381TIP3    H243085   5.717   8.064   0.823
14382TIP3   OH243086   0.377   0.105   0.937
14382TIP3    H143087   0.429   0.046   0.990
14382TIP3    H243088   0.413   0.192   0.954
14383TIP3   OH243089   0.266   1.496   0.429
14383TIP3    H143090   0.352   1.521   0.395
14383TIP3    H243091   0.237   1.425   0.371
14384TIP3   OH243092   0.951   1.605   0.492
14384TIP3    H143093   0.924   1.528   0.442
14384TIP3    H243094   0.930   1.679   0.435
14385TIP3   OH243095   8.165   1.341   0.487
14385TIP3    H143096   8.169   1.356   0.581
14385TIP3    H243097   8.246   1.295   0.466
14386TIP3   OH243098   1.181   1.758   1.715
14386TIP3    H143099   1.110   1.729   1.658
14386TIP3    H243100   1.164   1.851   1.730
14387TIP3   OH243101   2.458   1.163   0.467
14387TIP3    H143102   2.429   1.251   0.440
14387TIP3    H243103   2.388   1.106   0.437
14388TIP3   OH243104   2.430   1.172   0.867
14388TIP3    H143105   2.474   1.148   0.949
14388TIP3    H243106   2.391   1.091   0.836
14389TIP3   OH243107   1.755   1.032   1.231
14389TIP3    H143108   1.787   0.972   1.298
14389TIP3    H243109   1.831   1.049   1.176
14390TIP3   OH243110   2.722   1.429   0.545
14390TIP3    H143111   2.702   1.365   0.614
14390TIP3    H243112   2.732   1.512   0.592
14391TIP3   OH243113   1.728   1.449   0.933
14391TIP3    H143114   1.718   1.353   0.932
14391TIP3    H243115   1.822   1.463   0.923
14392TIP3   OH243116   1.430   0.652   0.709
14392TIP3    H143117   1.390   0.736   0.732
14392TIP3    H243118   1.361   0.604   0.663
14393TIP3   OH243119   1.505   0.955   0.922
14393TIP3    H143120   1.555   0.878   0.948
14393TIP3    H243121   1.569   1.014   0.882
14394TIP3   OH243122   2.363   1.886   0.573
14394TIP3    H143123   2.403   1.822   0.513
14394TIP3    H243124   2.355   1.839   0.656
14395TIP3   OH243125   2.254   1.392   0.902
14395TIP3    H143126   2.309   1.318   0.875
14395TIP3    H243127   2.316   1.463   0.920
14396TIP3   OH243128   3.277   0.656   0.875
14396TIP3    H143129   3.293   0.735   0.927
14396TIP3    H243130   3.317   0.674   0.791
14397TIP3   OH243131   2.672   0.869   0.924
14397TIP3    H143132   2.715   0.787   0.950
14397TIP3    H243133   2.636   0.851   0.837
14398TIP3   OH243134   2.014   0.525   0.884
14398TIP3    H143135   1.996   0.601   0.828
14398TIP3    H243136   1.958   0.456   0.849
14399TIP3   OH243137   2.722   0.631   0.516
14399TIP3    H143138   2.786   0.606   0.582
14399TIP3    H243139   2.774   0.665   0.443
14400TIP3   OH243140   1.652   0.739   1.013
14400TIP3    H143141   1.735   0.719   1.058
14400TIP3    H243142   1.657   0.688   0.932
14401TIP3   OH243143   2.066   0.942   0.823
14401TIP3    H143144   2.161   0.931   0.820
14401TIP3    H243145   2.031   0.859   0.789
14402TIP3   OH243146   3.243   0.851   1.079
14402TIP3    H143147   3.169   0.900   1.044
14402TIP3    H243148   3.210   0.810   1.158
14403TIP3   OH243149   1.985   0.494   1.346
14403TIP3    H143150   1.953   0.535   1.265
14403TIP3    H243151   1.940   0.541   1.416
14404TIP3   OH243152   2.356   1.381   0.324
14404TIP3    H143153   2.317   1.353   0.241
14404TIP3    H243154   2.303   1.455   0.352
14405TIP3   OH243155   2.108   1.293   1.114
14405TIP3    H143156   2.049   1.360   1.147
14405TIP3    H243157   2.155   1.335   1.042
14406TIP3   OH243158   2.887   0.594   0.733
14406TIP3    H143159   2.839   0.598   0.816
14406TIP3    H243160   2.938   0.675   0.732
14407TIP3   OH243161   1.892   0.626   1.113
14407TIP3    H143162   1.950   0.698   1.139
14407TIP3    H243163   1.937   0.584   1.040
14408TIP3   OH243164   1.936   1.482   1.214
14408TIP3    H143165   1.930   1.569   1.174
14408TIP3    H243166   1.852   1.469   1.256
14409TIP3   OH243167   1.321   1.199   0.468
14409TIP3    H143168   1.288   1.206   0.378
14409TIP3    H243169   1.347   1.288   0.492
14410TIP3   OH243170   2.721   1.668   0.685
14410TIP3    H143171   2.636   1.668   0.730
14410TIP3    H243172   2.716   1.742   0.624
14411TIP3   OH243173   3.059   0.577   1.037
14411TIP3    H143174   2.976   0.597   0.995
14411TIP3    H243175   3.125   0.599   0.971
14412TIP3   OH243176   2.474   1.733   0.374
14412TIP3    H143177   2.521   1.652   0.356
14412TIP3    H243178   2.526   1.802   0.332
14413TIP3   OH243179   2.608   1.507   0.307
14413TIP3    H143180   2.535   1.445   0.299
14413TIP3    H243181   2.660   1.474   0.380
14414TIP3   OH243182   3.041   1.581   1.000
14414TIP3    H143183   3.022   1.505   0.945
14414TIP3    H243184   2.990   1.652   0.962
14415TIP3   OH243185   2.286   1.006   0.313
14415TIP3    H143186   2.204   1.052   0.293
14415TIP3    H243187   2.333   1.003   0.229
14416TIP3   OH243188   2.254   0.805   0.011
14416TIP3    H143189   2.319   0.856   0.059
14416TIP3    H243190   2.304   0.738  -0.035
14417TIP3   OH243191   3.121   1.201   0.842
14417TIP3    H143192   3.047   1.261   0.853
14417TIP3    H243193   3.157   1.224   0.756
14418TIP3   OH243194   2.640   1.094   0.274
14418TIP3    H143195   2.588   1.123   0.349
14418TIP3    H243196   2.724   1.068   0.312
14419TIP3   OH243197   2.822   1.117   1.127
14419TIP3    H143198   2.816   1.165   1.210
14419TIP3    H243199   2.732   1.115   1.094
14420TIP3   OH243200   1.865   1.077   0.682
14420TIP3    H143201   1.830   1.018   0.616
14420TIP3    H243202   1.939   1.028   0.720
14421TIP3   OH243203   1.991   1.494   0.826
14421TIP3    H143204   1.971   1.477   0.734
14421TIP3    H243205   2.078   1.457   0.838
14422TIP3   OH243206   1.972   1.063   1.054
14422TIP3    H143207   2.009   1.028   0.973
14422TIP3    H243208   2.024   1.141   1.072
14423TIP3   OH243209   2.501   1.705   0.844
14423TIP3    H143210   2.494   1.800   0.858
14423TIP3    H243211   2.496   1.668   0.932
14424TIP3   OH243212   2.092   1.539   1.442
14424TIP3    H143213   2.050   1.625   1.447
14424TIP3    H243214   2.067   1.504   1.356
14425TIP3   OH243215   2.474   0.953   0.107
14425TIP3    H143216   2.533   1.011   0.155
14425TIP3    H243217   2.500   0.962   0.015
14426TIP3   OH243218   1.888   1.145   1.528
14426TIP3    H143219   1.887   1.241   1.530
14426TIP3    H243220   1.797   1.120   1.514
14427TIP3   OH243221   2.220   1.622   0.369
14427TIP3    H143222   2.303   1.669   0.377
14427TIP3    H243223   2.164   1.681   0.318
14428TIP3   OH243224   1.912   1.740   1.476
14428TIP3    H143225   1.902   1.781   1.390
14428TIP3    H243226   1.823   1.713   1.501
14429TIP3   OH243227   2.991   0.183   0.163
14429TIP3    H143228   2.911   0.203   0.212
14429TIP3    H243229   3.004   0.258   0.105
14430TIP3   OH243230   1.744   0.919   0.480
14430TIP3    H143231   1.669   0.966   0.444
14430TIP3    H243232   1.711   0.830   0.495
14431TIP3   OH243233   5.671   5.611   6.728
14431TIP3    H143234   5.670   5.705   6.712
14431TIP3    H243235   5.760   5.584   6.710
14432TIP3   OH243236   1.519   1.314   1.408
14432TIP3    H143237   1.451   1.296   1.343
14432TIP3    H243238   1.556   1.228   1.428
14433TIP3   OH243239   1.410   1.497   1.046
14433TIP3    H143240   1.496   1.478   1.010
14433TIP3    H243241   1.424   1.571   1.105
14434TIP3   OH243242   3.241   2.045   1.136
14434TIP3    H143243   3.308   1.980   1.115
14434TIP3    H243244   3.158   1.999   1.124
14435TIP3   OH243245   2.113   1.847   0.194
14435TIP3    H143246   2.068   1.830   0.111
14435TIP3    H243247   2.078   1.932   0.222
14436TIP3   OH243248   1.541   1.709   0.570
14436TIP3    H143249   1.587   1.698   0.653
14436TIP3    H243250   1.495   1.626   0.557
14437TIP3   OH243251   5.178   5.829   6.838
14437TIP3    H143252   5.229   5.757   6.802
14437TIP3    H243253   5.211   5.840   6.927
14438TIP3   OH243254   2.364   1.821   0.083
14438TIP3    H143255   2.283   1.819   0.134
14438TIP3    H243256   2.434   1.807   0.147
14439TIP3   OH243257   3.044   1.069   1.328
14439TIP3    H143258   2.973   1.128   1.352
14439TIP3    H243259   3.001   0.987   1.304
14440TIP3   OH243260   1.701   1.512   1.367
14440TIP3    H143261   1.760   1.488   1.438
14440TIP3    H243262   1.631   1.448   1.369
14441TIP3   OH243263   2.116   0.278   1.168
14441TIP3    H143264   2.023   0.299   1.166
14441TIP3    H243265   2.158   0.360   1.194
14442TIP3   OH243266   2.862   0.877   1.294
14442TIP3    H143267   2.806   0.849   1.367
14442TIP3    H243268   2.802   0.920   1.233
14443TIP3   OH243269   5.422   5.010   6.869
14443TIP3    H143270   5.377   5.004   6.785
14443TIP3    H243271   5.504   5.055   6.849
14444TIP3   OH243272   2.263   0.354   0.161
14444TIP3    H143273   2.225   0.360   0.249
14444TIP3    H243274   2.223   0.276   0.123
14445TIP3   OH243275   2.049   0.834   1.196
14445TIP3    H143276   2.005   0.846   1.280
14445TIP3    H243277   2.030   0.915   1.147
14446TIP3   OH243278   1.929   0.725   0.717
14446TIP3    H143279   1.839   0.701   0.741
14446TIP3    H243280   1.940   0.691   0.628
14447TIP3   OH243281   2.413   0.801   0.446
14447TIP3    H143282   2.365   0.873   0.406
14447TIP3    H243283   2.471   0.769   0.376
14448TIP3   OH243284   2.565   1.070   1.540
14448TIP3    H143285   2.540   0.998   1.598
14448TIP3    H243286   2.657   1.087   1.561
14449TIP3   OH243287   2.578   0.815   0.670
14449TIP3    H143288   2.510   0.839   0.607
14449TIP3    H243289   2.623   0.740   0.629
14450TIP3   OH243290   1.873   0.856   1.412
14450TIP3    H143291   1.930   0.910   1.466
14450TIP3    H243292   1.860   0.776   1.462
14451TIP3   OH243293   1.929   0.342   0.132
14451TIP3    H143294   1.917   0.343   0.227
14451TIP3    H243295   1.850   0.384   0.097
14452TIP3   OH243296   1.468   0.380   1.002
14452TIP3    H143297   1.538   0.421   1.053
14452TIP3    H243298   1.506   0.366   0.915
14453TIP3   OH243299   1.396   0.363   0.505
14453TIP3    H143300   1.440   0.398   0.427
14453TIP3    H243301   1.332   0.431   0.528
14454TIP3   OH243302   2.558   1.057   1.081
14454TIP3    H143303   2.594   0.991   1.021
14454TIP3    H243304   2.533   1.007   1.159
14455TIP3   OH243305   2.280   0.514   0.775
14455TIP3    H143306   2.204   0.520   0.832
14455TIP3    H243307   2.355   0.519   0.834
14456TIP3   OH243308   1.691   0.600   0.780
14456TIP3    H143309   1.602   0.605   0.745
14456TIP3    H243310   1.718   0.510   0.761
14457TIP3   OH243311   1.946   0.601   0.472
14457TIP3    H143312   2.039   0.616   0.460
14457TIP3    H243313   1.907   0.620   0.386
14458TIP3   OH243314   2.765   0.613   0.985
14458TIP3    H143315   2.745   0.632   1.077
14458TIP3    H243316   2.689   0.564   0.954
14459TIP3   OH243317   1.824   0.628   0.228
14459TIP3    H143318   1.759   0.578   0.179
14459TIP3    H243319   1.878   0.670   0.161
14460TIP3   OH243320   1.866   1.415   1.568
14460TIP3    H143321   1.944   1.471   1.565
14460TIP3    H243322   1.824   1.437   1.652
14461TIP3   OH243323   2.342   0.901   0.844
14461TIP3    H143324   2.412   0.847   0.807
14461TIP3    H243325   2.338   0.875   0.936
14462TIP3   OH243326   1.833   0.351   0.756
14462TIP3    H143327   1.808   0.274   0.807
14462TIP3    H243328   1.847   0.317   0.667
14463TIP3   OH243329   2.317   0.839   1.108
14463TIP3    H143330   2.232   0.816   1.145
14463TIP3    H243331   2.377   0.838   1.182
14464TIP3   OH243332   2.049   1.146   0.256
14464TIP3    H143333   1.976   1.089   0.234
14464TIP3    H243334   2.026   1.184   0.341
14465TIP3   OH243335   2.905   1.368   0.877
14465TIP3    H143336   2.933   1.414   0.798
14465TIP3    H243337   2.821   1.329   0.852
14466TIP3   OH243338   2.513   0.461   0.149
14466TIP3    H143339   2.421   0.438   0.148
14466TIP3    H243340   2.515   0.556   0.160
14467TIP3   OH243341   2.577   0.723   0.230
14467TIP3    H143342   2.672   0.727   0.237
14467TIP3    H243343   2.554   0.800   0.177
14468TIP3   OH243344   1.743   1.167   0.913
14468TIP3    H143345   1.778   1.147   0.826
14468TIP3    H243346   1.808   1.132   0.974
14469TIP3   OH243347   2.204   1.306   0.098
14469TIP3    H143348   2.157   1.389   0.096
14469TIP3    H243349   2.148   1.248   0.150
14470TIP3   OH243350   1.615   1.080   1.547
14470TIP3    H143351   1.612   1.043   1.635
14470TIP3    H243352   1.543   1.037   1.500
14471TIP3   OH243353   2.342   1.227   1.538
14471TIP3    H143354   2.305   1.211   1.451
14471TIP3    H243355   2.415   1.166   1.545
14472TIP3   OH243356   2.997   0.811   0.052
14472TIP3    H143357   2.942   0.765  -0.011
14472TIP3    H243358   3.002   0.901   0.020
14473TIP3   OH243359   3.264   1.782   1.019
14473TIP3    H143360   3.204   1.725   0.971
14473TIP3    H243361   3.315   1.721   1.073
14474TIP3   OH243362   5.583   5.656   6.998
14474TIP3    H143363   5.560   5.585   7.057
14474TIP3    H243364   5.605   5.613   6.915
14475TIP3   OH243365   2.687   1.247   0.759
14475TIP3    H143366   2.595   1.230   0.780
14475TIP3    H243367   2.718   1.165   0.720
14476TIP3   OH243368   1.861   1.496   0.572
14476TIP3    H143369   1.863   1.574   0.516
14476TIP3    H243370   1.768   1.475   0.580
14477TIP3   OH243371   1.417   0.787   0.278
14477TIP3    H143372   1.462   0.868   0.298
14477TIP3    H243373   1.336   0.791   0.330
14478TIP3   OH243374   1.964   1.252   0.489
14478TIP3    H143375   1.944   1.342   0.515
14478TIP3    H243376   1.932   1.199   0.562
14479TIP3   OH243377   2.143   1.799   1.027
14479TIP3    H143378   2.177   1.880   0.989
14479TIP3    H243379   2.216   1.762   1.075
14480TIP3   OH243380   1.776   1.723   0.422
14480TIP3    H143381   1.689   1.730   0.462
14480TIP3    H243382   1.809   1.813   0.423
14481TIP3   OH243383   5.354   5.415   6.890
14481TIP3    H143384   5.404   5.389   6.967
14481TIP3    H243385   5.268   5.374   6.901
14482TIP3   OH243386   2.689   1.870   1.049
14482TIP3    H143387   2.645   1.801   1.100
14482TIP3    H243388   2.618   1.916   1.005
14483TIP3   OH243389   5.683   5.890   6.697
14483TIP3    H143390   5.725   5.966   6.658
14483TIP3    H243391   5.601   5.924   6.733
14484TIP3   OH243392   1.841   0.615   1.550
14484TIP3    H143393   1.745   0.622   1.551
14484TIP3    H243394   1.861   0.548   1.615
14485TIP3   OH243395   2.657   1.282   0.067
14485TIP3    H143396   2.643   1.226   0.144
14485TIP3    H243397   2.753   1.286   0.059
14486TIP3   OH243398   1.555   1.706   1.194
14486TIP3    H143399   1.616   1.648   1.239
14486TIP3    H243400   1.578   1.794   1.225
14487TIP3   OH243401   4.713   5.386   6.901
14487TIP3    H143402   4.723   5.295   6.874
14487TIP3    H243403   4.697   5.381   6.995
14488TIP3   OH243404   1.794   1.347   0.152
14488TIP3    H143405   1.867   1.321   0.208
14488TIP3    H243406   1.792   1.442   0.158
14489TIP3   OH243407   1.522   1.035   0.361
14489TIP3    H143408   1.455   1.080   0.413
14489TIP3    H243409   1.541   1.094   0.289
14490TIP3   OH243410   2.665   0.670   1.242
14490TIP3    H143411   2.699   0.651   1.329
14490TIP3    H243412   2.595   0.605   1.229
14491TIP3   OH243413   2.579   0.418   0.413
14491TIP3    H143414   2.557   0.434   0.322
14491TIP3    H243415   2.620   0.499   0.443
14492TIP3   OH243416   2.059   1.535   0.095
14492TIP3    H143417   1.974   1.560   0.131
14492TIP3    H243418   2.083   1.607   0.037
14493TIP3   OH243419   2.224   0.613   0.517
14493TIP3    H143420   2.288   0.680   0.493
14493TIP3    H243421   2.242   0.594   0.609
14494TIP3   OH243422   2.513   0.906   1.304
14494TIP3    H143423   2.535   0.951   1.385
14494TIP3    H243424   2.566   0.827   1.305
14495TIP3   OH243425   2.398   0.333   0.598
14495TIP3    H143426   2.375   0.406   0.655
14495TIP3    H243427   2.466   0.368   0.540
14496TIP3   OH243428   1.808   1.620   0.169
14496TIP3    H143429   1.784   1.690   0.107
14496TIP3    H243430   1.794   1.658   0.255
14497TIP3   OH243431   1.903   0.328   0.414
14497TIP3    H143432   1.893   0.419   0.441
14497TIP3    H243433   1.997   0.312   0.419
14498TIP3   OH243434   3.081   0.725   1.269
14498TIP3    H143435   2.995   0.768   1.270
14498TIP3    H243436   3.076   0.663   1.197
14499TIP3   OH243437   2.790   1.001   0.666
14499TIP3    H143438   2.712   0.945   0.671
14499TIP3    H243439   2.859   0.950   0.708
14500TIP3   OH243440   1.549   1.215   0.148
14500TIP3    H143441   1.619   1.279   0.155
14500TIP3    H243442   1.580   1.153   0.082
14501TIP3   OH243443   1.454   0.510   0.282
14501TIP3    H143444   1.458   0.605   0.285
14501TIP3    H243445   1.397   0.490   0.208
14502TIP3   OH243446   2.721   1.914   0.559
14502TIP3    H143447   2.690   1.965   0.484
14502TIP3    H243448   2.816   1.926   0.558
14503TIP3   OH243449   1.830   0.237   1.148
14503TIP3    H143450   1.814   0.204   1.060
14503TIP3    H243451   1.834   0.159   1.203
14504TIP3   OH243452   1.378   1.481   0.534
14504TIP3    H143453   1.321   1.506   0.607
14504TIP3    H243454   1.334   1.514   0.456
14505TIP3   OH243455   1.555   1.976   1.584
14505TIP3    H143456   1.643   1.970   1.622
14505TIP3    H243457   1.522   1.886   1.584
14506TIP3   OH243458   1.919   1.926   1.677
14506TIP3    H143459   2.007   1.955   1.652
14506TIP3    H243460   1.900   1.853   1.618
14507TIP3   OH243461   4.871   5.586   6.796
14507TIP3    H143462   4.822   5.515   6.839
14507TIP3    H243463   4.945   5.543   6.754
14508TIP3   OH243464   2.580   1.962   1.408
14508TIP3    H143465   2.568   1.867   1.415
14508TIP3    H243466   2.668   1.971   1.369
14509TIP3   OH243467   5.310   5.623   6.717
14509TIP3    H143468   5.341   5.558   6.780
14509TIP3    H243469   5.371   5.616   6.643
14510TIP3   OH243470   1.704   1.431   1.791
14510TIP3    H143471   1.730   1.342   1.816
14510TIP3    H243472   1.611   1.424   1.770
14511TIP3   OH243473   1.671   1.023  -0.001
14511TIP3    H143474   1.723   1.000   0.076
14511TIP3    H243475   1.735   1.038  -0.070
14512TIP3   OH243476   2.287   1.481   1.617
14512TIP3    H143477   2.233   1.502   1.541
14512TIP3    H243478   2.322   1.394   1.598
14513TIP3   OH243479   5.090   5.303   6.851
14513TIP3    H143480   5.071   5.315   6.944
14513TIP3    H243481   5.078   5.209   6.836
14514TIP3   OH243482   2.716   1.498   1.303
14514TIP3    H143483   2.785   1.490   1.236
14514TIP3    H243484   2.643   1.539   1.257
14515TIP3   OH243485   1.801   1.168   1.823
14515TIP3    H143486   1.864   1.138   1.757
14515TIP3    H243487   1.744   1.092   1.838
14516TIP3   OH243488   1.847   0.962   0.211
14516TIP3    H143489   1.824   0.929   0.297
14516TIP3    H243490   1.891   0.889   0.167
14517TIP3   OH243491   2.113   1.005   1.457
14517TIP3    H143492   2.047   1.069   1.482
14517TIP3    H243493   2.167   1.050   1.392
14518TIP3   OH243494   1.976   0.773   0.049
14518TIP3    H143495   1.947   0.779  -0.042
14518TIP3    H243496   2.071   0.779   0.045
14519TIP3   OH243497   2.622   1.371   1.563
14519TIP3    H143498   2.649   1.392   1.474
14519TIP3    H243499   2.592   1.280   1.558
14520TIP3   OH243500   5.646   5.127   6.754
14520TIP3    H143501   5.631   5.084   6.670
14520TIP3    H243502   5.620   5.218   6.740
14521TIP3   OH243503   2.248   0.816   1.594
14521TIP3    H143504   2.245   0.738   1.538
14521TIP3    H243505   2.205   0.884   1.543
14522TIP3   OH243506   2.270   1.150   1.283
14522TIP3    H143507   2.340   1.118   1.227
14522TIP3    H243508   2.216   1.205   1.225
14523TIP3   OH243509   2.808   1.102   1.652
14523TIP3    H143510   2.844   1.017   1.677
14523TIP3    H243511   2.884   1.153   1.624
14524TIP3   OH243512   2.821   1.245   1.373
14524TIP3    H143513   2.786   1.328   1.338
14524TIP3    H243514   2.872   1.272   1.449
14525TIP3   OH243515   2.099   0.933   1.821
14525TIP3    H143516   2.037   0.860   1.816
14525TIP3    H243517   2.158   0.919   1.747
14526TIP3   OH243518   2.507   0.844   1.681
14526TIP3    H143519   2.520   0.776   1.747
14526TIP3    H243520   2.415   0.837   1.656
14527TIP3   OH243521   2.721   0.785   1.514
14527TIP3    H143522   2.645   0.808   1.567
14527TIP3    H243523   2.778   0.737   1.573
14528TIP3   OH243524   2.873   0.671   1.712
14528TIP3    H143525   2.938   0.601   1.723
14528TIP3    H243526   2.921   0.752   1.733
14529TIP3   OH243527   1.961   0.688   1.859
14529TIP3    H143528   1.975   0.609   1.807
14529TIP3    H243529   2.026   0.683   1.929
14530TIP3   OH243530   2.471   0.370   1.688
14530TIP3    H143531   2.542   0.307   1.694
14530TIP3    H243532   2.454   0.378   1.594
14531TIP3   OH243533   2.497   0.616   1.835
14531TIP3    H143534   2.529   0.542   1.783
14531TIP3    H243535   2.412   0.588   1.868
14532TIP3   OH243536   4.664   5.882   7.006
14532TIP3    H143537   4.755   5.863   6.981
14532TIP3    H243538   4.627   5.926   6.929
14533TIP3   OH243539   1.281   1.187   0.194
14533TIP3    H143540   1.372   1.203   0.172
14533TIP3    H243541   1.257   1.110   0.143
14534TIP3   OH243542   1.143   1.783   0.620
14534TIP3    H143543   1.097   1.720   0.564
14534TIP3    H243544   1.196   1.728   0.678
14535TIP3   OH243545   1.300   1.636   0.797
14535TIP3    H143546   1.293   1.567   0.863
14535TIP3    H243547   1.357   1.702   0.838
14536TIP3   OH243548   2.980   1.968   0.613
14536TIP3    H143549   3.046   1.980   0.682
14536TIP3    H243550   3.003   2.032   0.546
14537TIP3   OH243551   3.078   1.941   0.870
14537TIP3    H143552   3.015   1.870   0.861
14537TIP3    H243553   3.058   1.981   0.955
14538TIP3   OH243554   3.067   1.756   1.559
14538TIP3    H143555   3.005   1.698   1.513
14538TIP3    H243556   3.085   1.826   1.496
14539TIP3   OH243557   2.933   1.276   0.059
14539TIP3    H143558   2.995   1.342   0.029
14539TIP3    H243559   2.976   1.236   0.134
14540TIP3   OH243560   3.057   1.129   0.252
14540TIP3    H143561   2.994   1.091   0.314
14540TIP3    H243562   3.126   1.166   0.307
14541TIP3   OH243563   3.070   1.485   0.703
14541TIP3    H143564   3.113   1.423   0.643
14541TIP3    H243565   3.053   1.562   0.648
14542TIP3   OH243566   2.876   1.754   0.888
14542TIP3    H143567   2.806   1.774   0.950
14542TIP3    H243568   2.833   1.714   0.813
14543TIP3   OH243569   5.852   5.104   6.934
14543TIP3    H143570   5.782   5.101   6.869
14543TIP3    H243571   5.833   5.181   6.987
14544TIP3   OH243572   5.713   4.760   6.874
14544TIP3    H143573   5.666   4.798   6.799
14544TIP3    H243574   5.701   4.665   6.864
14545TIP3   OH243575   2.867   0.993   0.401
14545TIP3    H143576   2.876   0.898   0.389
14545TIP3    H243577   2.847   1.004   0.494
14546TIP3   OH243578   1.492   1.067   1.170
14546TIP3    H143579   1.483   1.030   1.083
14546TIP3    H243580   1.586   1.065   1.188
14547TIP3   OH243581   3.202   1.378   1.352
14547TIP3    H143582   3.245   1.443   1.296
14547TIP3    H243583   3.120   1.358   1.308
14548TIP3   OH243584   3.401   1.215   1.259
14548TIP3    H143585   3.330   1.263   1.301
14548TIP3    H243586   3.460   1.192   1.330
14549TIP3   OH243587   5.669   4.491   6.850
14549TIP3    H143588   5.733   4.458   6.914
14549TIP3    H243589   5.587   4.447   6.875
14550TIP3   OH243590   2.869   0.717   0.291
14550TIP3    H143591   2.914   0.634   0.303
14550TIP3    H243592   2.912   0.756   0.215
14551TIP3   OH243593   2.995   0.842   0.766
14551TIP3    H143594   3.075   0.863   0.718
14551TIP3    H243595   3.009   0.879   0.853
14552TIP3   OH243596   3.026   0.995   0.990
14552TIP3    H143597   2.948   1.028   1.034
14552TIP3    H243598   3.045   1.059   0.922
14553TIP3   OH243599   1.688   0.727   1.821
14553TIP3    H143600   1.782   0.717   1.835
14553TIP3    H243601   1.649   0.655   1.872
14554TIP3   OH243602   3.465   0.528   1.565
14554TIP3    H143603   3.534   0.463   1.577
14554TIP3    H243604   3.512   0.611   1.554
14555TIP3   OH243605   2.979   0.465   0.341
14555TIP3    H143606   3.025   0.450   0.424
14555TIP3    H243607   2.918   0.392   0.332
14556TIP3   OH243608   1.674   0.459   1.176
14556TIP3    H143609   1.724   0.377   1.175
14556TIP3    H243610   1.738   0.527   1.160
14557TIP3   OH243611   1.467   0.724   1.226
14557TIP3    H143612   1.520   0.711   1.147
14557TIP3    H243613   1.503   0.803   1.266
14558TIP3   OH243614   3.377   0.752   1.363
14558TIP3    H143615   3.324   0.740   1.441
14558TIP3    H243616   3.356   0.677   1.307
14559TIP3   OH243617   5.903   4.437   7.001
14559TIP3    H143618   5.947   4.376   6.942
14559TIP3    H243619   5.958   4.515   7.001
14560TIP3   OH243620   1.463   0.233   0.733
14560TIP3    H143621   1.377   0.223   0.773
14560TIP3    H243622   1.448   0.285   0.655
14561TIP3   OH243623   2.597   1.922   0.227
14561TIP3    H143624   2.653   1.907   0.151
14561TIP3    H243625   2.626   2.005   0.263
14562TIP3   OH243626   1.650   0.261   1.570
14562TIP3    H143627   1.576   0.220   1.613
14562TIP3    H243628   1.610   0.322   1.507
14563TIP3   OH243629   1.700   1.690   1.646
14563TIP3    H143630   1.606   1.697   1.625
14563TIP3    H243631   1.703   1.626   1.717
14564TIP3   OH243632   1.899   1.740   1.139
14564TIP3    H143633   1.849   1.817   1.113
14564TIP3    H243634   1.988   1.757   1.108
14565TIP3   OH243635   2.262   2.003   1.197
14565TIP3    H143636   2.284   1.922   1.244
14565TIP3    H243637   2.346   2.048   1.188
14566TIP3   OH243638   2.467   2.166   1.154
14566TIP3    H143639   2.554   2.127   1.166
14566TIP3    H243640   2.484   2.260   1.141
14567TIP3   OH243641   3.302   0.505   1.251
14567TIP3    H143642   3.227   0.482   1.196
14567TIP3    H243643   3.351   0.423   1.260
14568TIP3   OH243644   1.563   2.001   1.218
14568TIP3    H143645   1.475   2.032   1.196
14568TIP3    H243646   1.594   2.062   1.286
14569TIP3   OH243647   1.782   1.973   1.054
14569TIP3    H143648   1.702   1.988   1.104
14569TIP3    H243649   1.766   2.013   0.969
14570TIP3   OH243650   2.219   2.012   0.855
14570TIP3    H143651   2.154   2.011   0.784
14570TIP3    H243652   2.215   2.100   0.891
14571TIP3   OH243653   2.487   1.974   0.898
14571TIP3    H143654   2.391   1.981   0.899
14571TIP3    H243655   2.514   2.029   0.825
14572TIP3   OH243656   2.563   2.122   0.685
14572TIP3    H143657   2.605   2.197   0.643
14572TIP3    H243658   2.608   2.046   0.648
14573TIP3   OH243659   1.483   1.803   0.943
14573TIP3    H143660   1.507   1.778   1.032
14573TIP3    H243661   1.554   1.771   0.888
14574TIP3   OH243662   1.687   1.690   0.805
14574TIP3    H143663   1.698   1.606   0.849
14574TIP3    H243664   1.774   1.730   0.806
14575TIP3   OH243665   1.957   1.773   0.818
14575TIP3    H143666   1.972   1.679   0.804
14575TIP3    H243667   2.011   1.795   0.894
14576TIP3   OH243668   2.521   0.479   0.908
14576TIP3    H143669   2.500   0.460   1.000
14576TIP3    H243670   2.581   0.410   0.882
14577TIP3   OH243671   3.020   0.319   0.789
14577TIP3    H143672   3.068   0.363   0.719
14577TIP3    H243673   2.943   0.374   0.803
14578TIP3   OH243674   3.139   0.408   0.563
14578TIP3    H143675   3.210   0.352   0.532
14578TIP3    H243676   3.169   0.497   0.545
14579TIP3   OH243677   1.770   0.123   0.902
14579TIP3    H143678   1.681   0.088   0.908
14579TIP3    H243679   1.825   0.045   0.895
14580TIP3   OH243680   1.582   0.032   0.566
14580TIP3    H143681   1.607   0.080   0.487
14580TIP3    H243682   1.547   0.099   0.624
14581TIP3   OH243683   2.292   0.159   0.818
14581TIP3    H143684   2.290   0.244   0.774
14581TIP3    H243685   2.244   0.174   0.900
14582TIP3   OH243686   2.719   0.315   0.810
14582TIP3    H143687   2.748   0.296   0.720
14582TIP3    H243688   2.729   0.231   0.856
14583TIP3   OH243689   2.793   0.257   0.340
14583TIP3    H143690   2.715   0.310   0.359
14583TIP3    H243691   2.773   0.171   0.377
14584TIP3   OH243692   1.241   1.586   0.322
14584TIP3    H143693   1.163   1.544   0.286
14584TIP3    H243694   1.242   1.673   0.282
14585TIP3   OH243695   1.690   0.160   0.326
14585TIP3    H143696   1.736   0.099   0.268
14585TIP3    H243697   1.760   0.217   0.360
14586TIP3   OH243698   2.178   0.360   0.426
14586TIP3    H143699   2.244   0.317   0.480
14586TIP3    H243700   2.186   0.453   0.447
14587TIP3   OH243701   4.922   5.812   6.942
14587TIP3    H143702   5.006   5.839   6.904
14587TIP3    H243703   4.893   5.740   6.885
14588TIP3   OH243704   5.613   5.923   7.019
14588TIP3    H143705   5.603   5.828   7.014
14588TIP3    H243706   5.564   5.957   6.945
14589TIP3   OH243707   1.995   0.431   1.763
14589TIP3    H143708   1.956   0.359   1.814
14589TIP3    H243709   2.089   0.424   1.782
14590TIP3   OH243710   2.258   0.409   1.860
14590TIP3    H143711   2.325   0.393   1.793
14590TIP3    H243712   2.281   0.350   1.932
14591TIP3   OH243713   4.225   5.653   6.990
14591TIP3    H143714   4.224   5.666   7.084
14591TIP3    H243715   4.307   5.607   6.972
14592TIP3   OH243716   3.071   0.479   1.742
14592TIP3    H143717   3.134   0.466   1.813
14592TIP3    H243718   3.124   0.481   1.662
14593TIP3   OH243719   2.974   1.988   1.122
14593TIP3    H143720   2.917   1.919   1.155
14593TIP3    H243721   2.958   2.063   1.180
14594TIP3   OH243722   7.122   5.446   6.939
14594TIP3    H143723   7.097   5.538   6.941
14594TIP3    H243724   7.051   5.402   6.893
14595TIP3   OH243725   4.205   1.365   0.384
14595TIP3    H143726   4.293   1.400   0.397
14595TIP3    H243727   4.208   1.324   0.297
14596TIP3   OH243728   3.558   1.254   0.739
14596TIP3    H143729   3.580   1.198   0.664
14596TIP3    H243730   3.518   1.332   0.699
14597TIP3   OH243731   4.542   1.671   0.014
14597TIP3    H143732   4.477   1.626   0.067
14597TIP3    H243733   4.546   1.760   0.051
14598TIP3   OH243734   3.402   1.607   0.411
14598TIP3    H143735   3.415   1.524   0.365
14598TIP3    H243736   3.488   1.649   0.411
14599TIP3   OH243737   3.225   0.909   0.189
14599TIP3    H143738   3.185   0.994   0.210
14599TIP3    H243739   3.153   0.857   0.152
14600TIP3   OH243740   3.291   1.206   0.370
14600TIP3    H143741   3.338   1.128   0.400
14600TIP3    H243742   3.361   1.266   0.341
14601TIP3   OH243743   4.058   2.171  -0.021
14601TIP3    H143744   4.134   2.221  -0.050
14601TIP3    H243745   4.066   2.170   0.075
14602TIP3   OH243746   4.127   1.624   0.314
14602TIP3    H143747   4.138   1.529   0.301
14602TIP3    H243748   4.181   1.644   0.391
14603TIP3   OH243749   4.502   1.067   0.424
14603TIP3    H143750   4.475   0.988   0.470
14603TIP3    H243751   4.470   1.055   0.335
14604TIP3   OH243752   3.814   0.775   0.358
14604TIP3    H143753   3.792   0.849   0.301
14604TIP3    H243754   3.764   0.702   0.323
14605TIP3   OH243755   7.389   4.915   7.008
14605TIP3    H143756   7.457   4.892   7.072
14605TIP3    H243757   7.437   4.952   6.934
14606TIP3   OH243758   3.423   0.993   0.473
14606TIP3    H143759   3.498   0.968   0.525
14606TIP3    H243760   3.430   0.941   0.393
14607TIP3   OH243761   3.903   1.143   0.244
14607TIP3    H143762   3.985   1.099   0.263
14607TIP3    H243763   3.842   1.073   0.220
14608TIP3   OH243764   3.700   0.690   0.798
14608TIP3    H143765   3.666   0.745   0.727
14608TIP3    H243766   3.635   0.699   0.868
14609TIP3   OH243767   7.023   5.668   6.757
14609TIP3    H143768   6.975   5.625   6.686
14609TIP3    H243769   6.983   5.754   6.765
14610TIP3   OH243770   3.972   1.577   0.568
14610TIP3    H143771   3.965   1.545   0.657
14610TIP3    H243772   3.948   1.670   0.574
14611TIP3   OH243773   4.700   0.840   0.191
14611TIP3    H143774   4.672   0.818   0.279
14611TIP3    H243775   4.713   0.935   0.193
14612TIP3   OH243776   3.638   0.853   0.568
14612TIP3    H143777   3.698   0.915   0.609
14612TIP3    H243778   3.685   0.821   0.492
14613TIP3   OH243779   3.638   1.691   0.665
14613TIP3    H143780   3.671   1.770   0.623
14613TIP3    H243781   3.633   1.714   0.758
14614TIP3   OH243782   5.981   5.503   6.963
14614TIP3    H143783   5.945   5.521   6.876
14614TIP3    H243784   5.996   5.590   7.001
14615TIP3   OH243785   4.902   0.776   0.525
14615TIP3    H143786   4.822   0.829   0.523
14615TIP3    H243787   4.930   0.771   0.434
14616TIP3   OH243788   4.116   0.426   0.531
14616TIP3    H143789   4.125   0.333   0.550
14616TIP3    H243790   4.027   0.448   0.558
14617TIP3   OH243791   7.145   6.050   6.798
14617TIP3    H143792   7.203   5.973   6.791
14617TIP3    H243793   7.203   6.125   6.784
14618TIP3   OH243794   7.305   5.824   6.800
14618TIP3    H143795   7.290   5.761   6.729
14618TIP3    H243796   7.342   5.772   6.871
14619TIP3   OH243797   6.938   5.300   6.800
14619TIP3    H143798   6.854   5.343   6.781
14619TIP3    H243799   6.981   5.293   6.715
14620TIP3   OH243800   6.915   5.106   6.512
14620TIP3    H143801   6.983   5.156   6.557
14620TIP3    H243802   6.962   5.039   6.464
14621TIP3   OH243803   7.305   5.409   6.742
14621TIP3    H143804   7.257   5.424   6.824
14621TIP3    H243805   7.388   5.370   6.770
14622TIP3   OH243806   3.681   1.292   0.141
14622TIP3    H143807   3.639   1.232   0.080
14622TIP3    H243808   3.762   1.247   0.167
14623TIP3   OH243809   3.908   1.776   0.358
14623TIP3    H143810   3.818   1.747   0.369
14623TIP3    H243811   3.958   1.696   0.344
14624TIP3   OH243812   3.708   1.188   0.481
14624TIP3    H143813   3.750   1.177   0.396
14624TIP3    H243814   3.709   1.282   0.496
14625TIP3   OH243815   7.131   5.256   6.602
14625TIP3    H143816   7.190   5.316   6.648
14625TIP3    H243817   7.158   5.262   6.510
14626TIP3   OH243818   3.696   1.471   0.861
14626TIP3    H143819   3.639   1.538   0.898
14626TIP3    H243820   3.638   1.398   0.843
14627TIP3   OH243821   6.913   5.910   6.796
14627TIP3    H143822   6.985   5.973   6.803
14627TIP3    H243823   6.836   5.958   6.824
14628TIP3   OH243824   7.648   4.490   6.669
14628TIP3    H143825   7.570   4.509   6.722
14628TIP3    H243826   7.660   4.568   6.615
14629TIP3   OH243827   6.399   5.205   6.975
14629TIP3    H143828   6.326   5.260   6.946
14629TIP3    H243829   6.360   5.120   6.992
14630TIP3   OH243830   7.465   5.869   6.215
14630TIP3    H143831   7.452   5.963   6.204
14630TIP3    H243832   7.542   5.849   6.162
14631TIP3   OH243833   3.286   1.530   0.867
14631TIP3    H143834   3.213   1.507   0.809
14631TIP3    H243835   3.330   1.447   0.885
14632TIP3   OH243836   3.046   1.708   0.560
14632TIP3    H143837   3.125   1.737   0.514
14632TIP3    H243838   3.000   1.789   0.583
14633TIP3   OH243839   6.771   6.182   6.666
14633TIP3    H143840   6.707   6.172   6.596
14633TIP3    H243841   6.748   6.265   6.708
14634TIP3   OH243842   3.287   1.952   0.028
14634TIP3    H143843   3.240   1.993   0.101
14634TIP3    H243844   3.261   1.860   0.032
14635TIP3   OH243845   6.968   6.086   6.308
14635TIP3    H143846   7.022   6.012   6.277
14635TIP3    H243847   6.999   6.103   6.397
14636TIP3   OH243848   7.018   6.139   6.570
14636TIP3    H143849   6.931   6.150   6.608
14636TIP3    H243850   7.070   6.104   6.642
14637TIP3   OH243851   3.603   1.737   0.933
14637TIP3    H143852   3.665   1.781   0.992
14637TIP3    H243853   3.517   1.760   0.968
14638TIP3   OH243854   3.871   0.495   0.631
14638TIP3    H143855   3.776   0.483   0.629
14638TIP3    H243856   3.883   0.589   0.638
14639TIP3   OH243857   4.417   0.769   0.808
14639TIP3    H143858   4.442   0.691   0.859
14639TIP3    H243859   4.326   0.787   0.834
14640TIP3   OH243860   7.219   5.268   6.349
14640TIP3    H143861   7.174   5.261   6.264
14640TIP3    H243862   7.301   5.312   6.328
14641TIP3   OH243863   6.925   4.667   6.663
14641TIP3    H143864   6.889   4.672   6.752
14641TIP3    H243865   6.889   4.587   6.627
14642TIP3   OH243866   3.842   1.021   0.647
14642TIP3    H143867   3.790   1.027   0.727
14642TIP3    H243868   3.809   1.092   0.592
14643TIP3   OH243869   3.712   0.964   0.191
14643TIP3    H143870   3.624   0.939   0.219
14643TIP3    H243871   3.720   0.926   0.103
14644TIP3   OH243872   7.071   5.098   6.941
14644TIP3    H143873   7.023   5.165   6.894
14644TIP3    H243874   7.136   5.066   6.878
14645TIP3   OH243875   4.378   1.001   0.180
14645TIP3    H143876   4.324   1.052   0.119
14645TIP3    H243877   4.428   0.942   0.124
14646TIP3   OH243878   3.623   1.203   1.067
14646TIP3    H143879   3.711   1.179   1.039
14646TIP3    H243880   3.572   1.122   1.057
14647TIP3   OH243881   6.591   4.651   6.639
14647TIP3    H143882   6.579   4.648   6.734
14647TIP3    H243883   6.512   4.695   6.607
14648TIP3   OH243884   3.238   0.638   0.464
14648TIP3    H143885   3.308   0.667   0.522
14648TIP3    H243886   3.284   0.607   0.385
14649TIP3   OH243887   6.058   4.671   7.014
14649TIP3    H143888   6.103   4.706   6.937
14649TIP3    H243889   5.994   4.739   7.037
14650TIP3   OH243890   4.445   1.375   0.521
14650TIP3    H143891   4.481   1.306   0.466
14650TIP3    H243892   4.437   1.335   0.608
14651TIP3   OH243893   4.074   0.744   0.237
14651TIP3    H143894   3.999   0.752   0.296
14651TIP3    H243895   4.149   0.731   0.295
14652TIP3   OH243896   3.481   0.838   0.256
14652TIP3    H143897   3.392   0.846   0.221
14652TIP3    H243898   3.506   0.747   0.239
14653TIP3   OH243899   6.606   4.900   6.972
14653TIP3    H143900   6.700   4.914   6.960
14653TIP3    H243901   6.567   4.923   6.888
14654TIP3   OH243902   4.615   0.782   0.446
14654TIP3    H143903   4.579   0.822   0.525
14654TIP3    H243904   4.543   0.729   0.411
14655TIP3   OH243905   6.481   4.940   6.734
14655TIP3    H143906   6.418   4.889   6.684
14655TIP3    H243907   6.538   4.981   6.669
14656TIP3   OH243908   4.135   1.018   0.323
14656TIP3    H143909   4.222   0.997   0.289
14656TIP3    H243910   4.134   0.984   0.412
14657TIP3   OH243911   3.640   0.596   0.241
14657TIP3    H143912   3.606   0.521   0.290
14657TIP3    H243913   3.670   0.559   0.158
14658TIP3   OH243914   4.100   0.969   0.603
14658TIP3    H143915   4.014   1.012   0.611
14658TIP3    H243916   4.162   1.041   0.599
14659TIP3   OH243917   6.703   5.447   6.755
14659TIP3    H143918   6.629   5.390   6.736
14659TIP3    H243919   6.685   5.483   6.841
14660TIP3   OH243920   7.177   4.770   6.655
14660TIP3    H143921   7.083   4.749   6.655
14660TIP3    H243922   7.180   4.864   6.672
14661TIP3   OH243923   7.244   5.030   6.732
14661TIP3    H143924   7.339   5.028   6.735
14661TIP3    H243925   7.224   5.106   6.676
14662TIP3   OH243926   3.508   1.371   0.337
14662TIP3    H143927   3.565   1.348   0.263
14662TIP3    H243928   3.568   1.391   0.409
14663TIP3   OH243929   6.835   5.596   6.570
14663TIP3    H143930   6.792   5.682   6.573
14663TIP3    H243931   6.784   5.541   6.630
14664TIP3   OH243932   3.363   1.308   1.001
14664TIP3    H143933   3.407   1.264   1.074
14664TIP3    H243934   3.272   1.281   1.009
14665TIP3   OH243935   7.667   5.118   6.556
14665TIP3    H143936   7.612   5.072   6.493
14665TIP3    H243937   7.670   5.208   6.525
14666TIP3   OH243938   7.375   5.916   6.478
14666TIP3    H143939   7.349   5.839   6.528
14666TIP3    H243940   7.401   5.882   6.392
14667TIP3   OH243941   4.666   1.543   0.317
14667TIP3    H143942   4.616   1.594   0.380
14667TIP3    H243943   4.611   1.541   0.238
14668TIP3   OH243944   3.682   1.729   0.070
14668TIP3    H143945   3.678   1.820   0.040
14668TIP3    H243946   3.591   1.706   0.091
14669TIP3   OH243947   6.089   5.094   6.793
14669TIP3    H143948   6.130   5.178   6.811
14669TIP3    H243949   6.008   5.095   6.844
14670TIP3   OH243950   3.776   1.491  -0.022
14670TIP3    H143951   3.743   1.577   0.004
14670TIP3    H243952   3.734   1.429   0.038
14671TIP3   OH243953   6.357   6.109   6.797
14671TIP3    H143954   6.266   6.139   6.808
14671TIP3    H243955   6.409   6.189   6.803
14672TIP3   OH243956   7.149   5.666   6.371
14672TIP3    H143957   7.191   5.654   6.456
14672TIP3    H243958   7.064   5.623   6.379
14673TIP3   OH243959   7.464   6.140   6.183
14673TIP3    H143960   7.499   6.205   6.121
14673TIP3    H243961   7.394   6.186   6.229
14674TIP3   OH243962   3.561   0.739   1.026
14674TIP3    H143963   3.535   0.824   1.061
14674TIP3    H243964   3.622   0.704   1.091
14675TIP3   OH243965   7.324   5.636   6.589
14675TIP3    H143966   7.298   5.559   6.640
14675TIP3    H243967   7.418   5.624   6.574
14676TIP3   OH243968   3.457   1.952   0.606
14676TIP3    H143969   3.439   1.860   0.620
14676TIP3    H243970   3.472   1.988   0.693
14677TIP3   OH243971   6.506   5.636   6.386
14677TIP3    H143972   6.517   5.545   6.357
14677TIP3    H243973   6.488   5.630   6.479
14678TIP3   OH243974   6.451   5.648   6.658
14678TIP3    H143975   6.526   5.628   6.715
14678TIP3    H243976   6.448   5.743   6.654
14679TIP3   OH243977   6.186   5.345   6.868
14679TIP3    H143978   6.119   5.388   6.920
14679TIP3    H243979   6.203   5.405   6.795
14680TIP3   OH243980   4.592   0.943   0.697
14680TIP3    H143981   4.599   1.017   0.757
14680TIP3    H243982   4.551   0.874   0.750
14681TIP3   OH243983   7.229   4.709   6.921
14681TIP3    H143984   7.210   4.728   6.829
14681TIP3    H243985   7.276   4.787   6.952
14682TIP3   OH243986   6.711   5.836   6.586
14682TIP3    H143987   6.623   5.868   6.602
14682TIP3    H243988   6.767   5.913   6.593
14683TIP3   OH243989   4.017   0.859  -0.006
14683TIP3    H143990   4.084   0.923  -0.030
14683TIP3    H243991   4.040   0.834   0.083
14684TIP3   OH243992   4.449   1.301   0.784
14684TIP3    H143993   4.373   1.293   0.841
14684TIP3    H243994   4.517   1.251   0.829
14685TIP3   OH243995   4.183   0.548   0.077
14685TIP3    H143996   4.159   0.623   0.131
14685TIP3    H243997   4.250   0.582   0.017
14686TIP3   OH243998   6.453   5.920   6.628
14686TIP3    H143999   6.436   5.975   6.553
14686TIP3    H244000   6.424   5.972   6.703
14687TIP3   OH244001   6.562   4.631   6.918
14687TIP3    H144002   6.554   4.722   6.946
14687TIP3    H244003   6.656   4.613   6.922
14688TIP3   OH244004   4.651   1.321   0.061
14688TIP3    H144005   4.570   1.329   0.111
14688TIP3    H244006   4.699   1.249   0.102
14689TIP3   OH244007   6.199   5.527   6.655
14689TIP3    H144008   6.271   5.589   6.666
14689TIP3    H244009   6.232   5.464   6.590
14690TIP3   OH244010   6.118   4.818   6.790
14690TIP3    H144011   6.127   4.913   6.796
14690TIP3    H244012   6.050   4.804   6.724
14691TIP3   OH244013   3.598   0.459   0.623
14691TIP3    H144014   3.579   0.422   0.536
14691TIP3    H244015   3.597   0.383   0.681
14692TIP3   OH244016   3.136   1.712   0.022
14692TIP3    H144017   3.083   1.755   0.089
14692TIP3    H244018   3.111   1.757  -0.059
14693TIP3   OH244019   6.661   5.838   6.277
14693TIP3    H144020   6.616   5.768   6.325
14693TIP3    H244021   6.738   5.795   6.239
14694TIP3   OH244022   7.108   5.877   6.198
14694TIP3    H144023   7.137   5.810   6.260
14694TIP3    H244024   7.169   5.869   6.124
14695TIP3   OH244025   3.476   1.719   1.190
14695TIP3    H144026   3.519   1.642   1.154
14695TIP3    H244027   3.408   1.684   1.249
14696TIP3   OH244028   6.329   5.337   6.508
14696TIP3    H144029   6.380   5.311   6.585
14696TIP3    H244030   6.395   5.349   6.440
14697TIP3   OH244031   6.888   5.549   6.310
14697TIP3    H144032   6.857   5.562   6.399
14697TIP3    H244033   6.877   5.454   6.295
14698TIP3   OH244034   3.672   1.274   1.329
14698TIP3    H144035   3.652   1.257   1.237
14698TIP3    H244036   3.621   1.351   1.352
14699TIP3   OH244037   6.501   5.265   6.718
14699TIP3    H144038   6.474   5.229   6.802
14699TIP3    H244039   6.547   5.193   6.675
14700TIP3   OH244040   3.856   1.200   0.933
14700TIP3    H144041   3.843   1.284   0.978
14700TIP3    H244042   3.883   1.224   0.844
14701TIP3   OH244043   6.642   5.082   6.563
14701TIP3    H144044   6.612   5.087   6.473
14701TIP3    H244045   6.737   5.085   6.558
14702TIP3   OH244046   7.445   5.386   6.240
14702TIP3    H144047   7.427   5.339   6.159
14702TIP3    H244048   7.419   5.476   6.222
14703TIP3   OH244049   4.044   1.042   1.058
14703TIP3    H144050   4.105   1.028   0.987
14703TIP3    H244051   3.970   1.087   1.017
14704TIP3   OH244052   4.159   0.871   0.851
14704TIP3    H144053   4.149   0.908   0.763
14704TIP3    H244054   4.070   0.844   0.876
14705TIP3   OH244055   4.165   1.410   0.701
14705TIP3    H144056   4.180   1.420   0.607
14705TIP3    H244057   4.074   1.381   0.707
14706TIP3   OH244058   3.941   1.188   1.264
14706TIP3    H144059   3.890   1.133   1.323
14706TIP3    H244060   3.982   1.127   1.203
14707TIP3   OH244061   4.158   0.589   0.930
14707TIP3    H144062   4.152   0.648   0.855
14707TIP3    H244063   4.080   0.533   0.923
14708TIP3   OH244064   3.809   0.987   1.402
14708TIP3    H144065   3.856   0.910   1.371
14708TIP3    H244066   3.844   1.002   1.490
14709TIP3   OH244067   4.350   0.561   1.240
14709TIP3    H144068   4.322   0.496   1.176
14709TIP3    H244069   4.394   0.629   1.189
14710TIP3   OH244070   6.443   6.123   6.444
14710TIP3    H144071   6.538   6.115   6.435
14710TIP3    H244072   6.417   6.177   6.370
14711TIP3   OH244073   5.926   5.514   6.677
14711TIP3    H144074   6.021   5.528   6.672
14711TIP3    H244075   5.913   5.428   6.638
14712TIP3   OH244076   2.969   2.020   0.026
14712TIP3    H144077   2.894   1.964   0.005
14712TIP3    H244078   3.011   1.975   0.100
14713TIP3   OH244079   3.070   1.890   0.244
14713TIP3    H144080   3.131   1.841   0.300
14713TIP3    H244081   3.045   1.966   0.296
14714TIP3   OH244082   7.594   5.583   6.573
14714TIP3    H144083   7.651   5.651   6.537
14714TIP3    H244084   7.642   5.549   6.649
14715TIP3   OH244085   7.731   5.453   6.777
14715TIP3    H144086   7.662   5.388   6.786
14715TIP3    H244087   7.729   5.503   6.858
14716TIP3   OH244088   7.645   5.358   6.424
14716TIP3    H144089   7.576   5.357   6.358
14716TIP3    H244090   7.625   5.434   6.478
14717TIP3   OH244091   7.509   5.014   6.360
14717TIP3    H144092   7.462   5.050   6.285
14717TIP3    H244093   7.497   4.919   6.352
14718TIP3   OH244094   7.528   5.279   6.832
14718TIP3    H144095   7.533   5.183   6.834
14718TIP3    H244096   7.524   5.305   6.924
14719TIP3   OH244097   3.244   1.293   0.621
14719TIP3    H144098   3.250   1.255   0.533
14719TIP3    H244099   3.321   1.349   0.628
14720TIP3   OH244100   7.463   4.745   6.338
14720TIP3    H144101   7.529   4.715   6.401
14720TIP3    H244102   7.383   4.700   6.364
14721TIP3   OH244103   7.532   5.006   6.778
14721TIP3    H144104   7.575   4.923   6.798
14721TIP3    H244105   7.580   5.041   6.703
14722TIP3   OH244106   4.964   1.181   0.264
14722TIP3    H144107   5.042   1.140   0.227
14722TIP3    H244108   4.988   1.204   0.354
14723TIP3   OH244109   3.533   1.017   1.401
14723TIP3    H144110   3.628   1.031   1.402
14723TIP3    H244111   3.516   0.966   1.322
14724TIP3   OH244112   7.644   4.767   6.853
14724TIP3    H144113   7.693   4.756   6.935
14724TIP3    H244114   7.583   4.694   6.852
14725TIP3   OH244115   3.439   0.682   0.645
14725TIP3    H144116   3.496   0.605   0.648
14725TIP3    H244117   3.497   0.753   0.619
14726TIP3   OH244118   3.227   0.930   0.661
14726TIP3    H144119   3.279   0.945   0.582
14726TIP3    H244120   3.282   0.963   0.732
14727TIP3   OH244121   7.696   4.695   6.490
14727TIP3    H144122   7.739   4.632   6.433
14727TIP3    H244123   7.755   4.771   6.491
14728TIP3   OH244124   3.250   0.481   0.220
14728TIP3    H144125   3.162   0.468   0.255
14728TIP3    H244126   3.237   0.534   0.142
14729TIP3   OH244127   7.310   6.247   6.723
14729TIP3    H144128   7.360   6.221   6.646
14729TIP3    H244129   7.361   6.319   6.762
14730TIP3   OH244130   3.446   0.474   1.011
14730TIP3    H144131   3.427   0.516   1.096
14730TIP3    H244132   3.406   0.532   0.947
14731TIP3   OH244133   3.740   1.956   0.562
14731TIP3    H144134   3.690   2.016   0.507
14731TIP3    H244135   3.731   1.993   0.650
14732TIP3   OH244136   3.478   2.287   0.722
14732TIP3    H144137   3.427   2.363   0.697
14732TIP3    H244138   3.497   2.299   0.815
14733TIP3   OH244139   3.595   2.181   0.487
14733TIP3    H144140   3.545   2.224   0.556
14733TIP3    H244141   3.661   2.246   0.462
14734TIP3   OH244142   3.318   2.128   0.444
14734TIP3    H144143   3.380   2.082   0.500
14734TIP3    H244144   3.337   2.097   0.355
14735TIP3   OH244145   3.432   1.758   0.183
14735TIP3    H144146   3.368   1.712   0.237
14735TIP3    H244147   3.438   1.845   0.221
14736TIP3   OH244148   3.823   2.032   0.282
14736TIP3    H144149   3.857   1.952   0.324
14736TIP3    H244150   3.848   2.102   0.341
14737TIP3   OH244151   4.304   0.647   0.352
14737TIP3    H144152   4.303   0.579   0.418
14737TIP3    H244153   4.379   0.627   0.297
14738TIP3   OH244154   4.840   0.588   0.271
14738TIP3    H144155   4.873   0.640   0.197
14738TIP3    H244156   4.749   0.618   0.282
14739TIP3   OH244157   4.956   0.681   0.042
14739TIP3    H144158   5.019   0.616   0.011
14739TIP3    H244159   5.000   0.765   0.028
14740TIP3   OH244160   3.549   0.369   0.368
14740TIP3    H144161   3.460   0.335   0.377
14740TIP3    H244162   3.604   0.291   0.367
14741TIP3   OH244163   3.378   0.287   0.052
14741TIP3    H144164   3.402   0.336  -0.027
14741TIP3    H244165   3.341   0.353   0.110
14742TIP3   OH244166   4.016   0.422   0.268
14742TIP3    H144167   4.071   0.464   0.202
14742TIP3    H244168   4.061   0.436   0.351
14743TIP3   OH244169   4.542   0.561   0.243
14743TIP3    H144170   4.574   0.527   0.160
14743TIP3    H244171   4.544   0.486   0.302
14744TIP3   OH244172   7.456   4.561   6.856
14744TIP3    H144173   7.373   4.605   6.874
14744TIP3    H244174   7.446   4.474   6.895
14745TIP3   OH244175   5.936   5.895   6.808
14745TIP3    H144176   5.847   5.871   6.782
14745TIP3    H244177   5.940   5.990   6.799
14746TIP3   OH244178   6.347   4.472   6.834
14746TIP3    H144179   6.392   4.409   6.777
14746TIP3    H244180   6.418   4.526   6.869
14747TIP3   OH244181   6.836   4.660   6.924
14747TIP3    H144182   6.896   4.607   6.977
14747TIP3    H244183   6.851   4.750   6.954
14748TIP3   OH244184   6.707   6.079   6.402
14748TIP3    H144185   6.795   6.099   6.370
14748TIP3    H244186   6.687   5.993   6.364
14749TIP3   OH244187   7.451   6.177   6.501
14749TIP3    H144188   7.422   6.086   6.493
14749TIP3    H244189   7.401   6.224   6.435
14750TIP3   OH244190   3.749   0.639   1.206
14750TIP3    H144191   3.771   0.576   1.275
14750TIP3    H244192   3.823   0.700   1.205
14751TIP3   OH244193   4.110   0.631   1.342
14751TIP3    H144194   4.202   0.625   1.315
14751TIP3    H244195   4.105   0.575   1.419
14752TIP3   OH244196   6.014   5.901   6.493
14752TIP3    H144197   6.011   5.902   6.588
14752TIP3    H244198   6.099   5.861   6.472
14753TIP3   OH244199   7.885   5.211   6.725
14753TIP3    H144200   7.857   5.300   6.745
14753TIP3    H244201   7.812   5.173   6.676
14754TIP3   OH244202   7.766   5.768   6.463
14754TIP3    H144203   7.763   5.776   6.368
14754TIP3    H244204   7.757   5.857   6.496
14755TIP3   OH244205   0.125   5.353   6.022
14755TIP3    H144206   0.186   5.397   6.081
14755TIP3    H244207   0.179   5.290   5.975
14756TIP3   OH244208   8.224   5.480   6.426
14756TIP3    H144209   8.133   5.509   6.433
14756TIP3    H244210   8.242   5.438   6.510
14757TIP3   OH244211   0.126   4.925   6.169
14757TIP3    H144212   0.095   4.922   6.259
14757TIP3    H244213   0.096   4.842   6.131
14758TIP3   OH244214   8.347   5.303   6.644
14758TIP3    H144215   8.286   5.271   6.710
14758TIP3    H244216   8.380   5.224   6.601
14759TIP3   OH244217   8.370   4.905   6.118
14759TIP3    H144218   8.362   4.899   6.214
14759TIP3    H244219   8.294   4.957   6.092
14760TIP3   OH244220   7.969   4.946   6.969
14760TIP3    H144221   8.030   5.017   6.952
14760TIP3    H244222   7.962   4.900   6.885
14761TIP3   OH244223   7.858   4.922   6.500
14761TIP3    H144224   7.908   4.954   6.424
14761TIP3    H244225   7.801   4.995   6.523
14762TIP3   OH244226   8.154   5.162   6.782
14762TIP3    H144227   8.063   5.169   6.753
14762TIP3    H244228   8.181   5.073   6.757
14763TIP3   OH244229   8.464   5.145   6.437
14763TIP3    H144230   8.497   5.233   6.450
14763TIP3    H244231   8.399   5.153   6.368
14764TIP3   OH244232   8.288   5.171   6.231
14764TIP3    H144233   8.211   5.141   6.184
14764TIP3    H244234   8.337   5.222   6.167
14765TIP3   OH244235   8.265   4.912   6.734
14765TIP3    H144236   8.238   4.842   6.793
14765TIP3    H244237   8.345   4.878   6.692
14766TIP3   OH244238   0.347   5.073   6.129
14766TIP3    H144239   0.265   5.028   6.151
14766TIP3    H244240   0.369   5.123   6.208
14767TIP3   OH244241   7.877   5.345   6.276
14767TIP3    H144242   7.925   5.425   6.299
14767TIP3    H244243   7.799   5.347   6.331
14768TIP3   OH244244   8.274   5.890   5.866
14768TIP3    H144245   8.327   5.837   5.807
14768TIP3    H244246   8.246   5.829   5.935
14769TIP3   OH244247   7.966   5.594   6.363
14769TIP3    H144248   7.908   5.640   6.424
14769TIP3    H244249   7.979   5.657   6.292
14770TIP3   OH244250   8.359   4.870   6.391
14770TIP3    H144251   8.368   4.958   6.428
14770TIP3    H244252   8.445   4.830   6.402
14771TIP3   OH244253   7.968   5.792   6.165
14771TIP3    H144254   7.992   5.884   6.154
14771TIP3    H244255   8.017   5.746   6.096
14772TIP3   OH244256   7.918   5.069   6.275
14772TIP3    H144257   7.928   5.164   6.284
14772TIP3    H244258   7.846   5.058   6.213
14773TIP3   OH244259   5.460   0.746   0.113
14773TIP3    H144260   5.420   0.733   0.027
14773TIP3    H244261   5.434   0.670   0.164
14774TIP3   OH244262   8.132   5.652   5.990
14774TIP3    H144263   8.176   5.609   6.063
14774TIP3    H244264   8.185   5.630   5.914
14775TIP3   OH244265   8.532   5.740   5.834
14775TIP3    H144266   8.522   5.815   5.892
14775TIP3    H244267   8.626   5.722   5.833
14776TIP3   OH244268   8.289   5.524   6.165
14776TIP3    H144269   8.272   5.512   6.258
14776TIP3    H244270   8.349   5.452   6.142
14777TIP3   OH244271   8.445   5.319   6.053
14777TIP3    H144272   8.424   5.320   5.959
14777TIP3    H244273   8.541   5.322   6.056
14778TIP3   OH244274   7.907   4.797   6.737
14778TIP3    H144275   7.817   4.778   6.763
14778TIP3    H244276   7.898   4.848   6.656
14779TIP3   OH244277   8.218   4.695   6.898
14779TIP3    H144278   8.129   4.663   6.910
14779TIP3    H244279   8.272   4.616   6.897
14780TIP3   OH244280   8.028   4.598   6.559
14780TIP3    H144281   8.057   4.646   6.482
14780TIP3    H244282   8.001   4.665   6.621
14781TIP3   OH244283   0.059   4.762   6.795
14781TIP3    H144284   0.155   4.760   6.794
14781TIP3    H244285   0.037   4.809   6.875
14782TIP3   OH244286   0.566   4.766   6.107
14782TIP3    H144287   0.590   4.847   6.152
14782TIP3    H244288   0.579   4.698   6.173
14783TIP3   OH244289   7.726   6.154   6.286
14783TIP3    H144290   7.636   6.125   6.272
14783TIP3    H244291   7.725   6.247   6.267
14784TIP3   OH244292   8.132   4.726   6.324
14784TIP3    H144293   8.174   4.662   6.266
14784TIP3    H244294   8.204   4.779   6.357
14785TIP3   OH244295   0.040   4.930   6.432
14785TIP3    H144296   0.058   4.905   6.522
14785TIP3    H244297  -0.010   5.011   6.439
14786TIP3   OH244298   7.851   6.195   5.998
14786TIP3    H144299   7.828   6.169   6.087
14786TIP3    H244300   7.916   6.131   5.970
14787TIP3   OH244301   7.945   2.041   1.518
14787TIP3    H144302   7.956   2.135   1.505
14787TIP3    H244303   8.000   2.001   1.450
14788TIP3   OH244304   7.500   1.859   1.143
14788TIP3    H144305   7.550   1.878   1.222
14788TIP3    H244306   7.448   1.938   1.128
14789TIP3   OH244307   7.640   1.934   1.360
14789TIP3    H144308   7.683   1.863   1.409
14789TIP3    H244309   7.707   2.003   1.354
14790TIP3   OH244310   6.934   2.212   0.961
14790TIP3    H144311   6.881   2.291   0.962
14790TIP3    H244312   7.009   2.234   0.907
14791TIP3   OH244313   6.982   1.999   0.766
14791TIP3    H144314   6.960   2.061   0.836
14791TIP3    H244315   6.938   2.034   0.688
14792TIP3   OH244316   7.294   2.305   1.016
14792TIP3    H144317   7.274   2.356   1.094
14792TIP3    H244318   7.383   2.331   0.993
14793TIP3   OH244319   7.139   2.254   0.802
14793TIP3    H144320   7.205   2.289   0.863
14793TIP3    H244321   7.170   2.281   0.715
14794TIP3   OH244322   7.644   1.454   0.791
14794TIP3    H144323   7.571   1.464   0.852
14794TIP3    H244324   7.654   1.540   0.751
14795TIP3   OH244325   7.466   2.866   0.205
14795TIP3    H144326   7.482   2.958   0.223
14795TIP3    H244327   7.553   2.827   0.198
14796TIP3   OH244328   7.251   2.318   0.558
14796TIP3    H144329   7.255   2.222   0.554
14796TIP3    H244330   7.315   2.347   0.494
14797TIP3   OH244331   6.935   1.578   0.731
14797TIP3    H144332   6.952   1.576   0.826
14797TIP3    H244333   6.868   1.510   0.718
14798TIP3   OH244334   7.095   2.130   1.163
14798TIP3    H144335   7.023   2.168   1.113
14798TIP3    H244336   7.162   2.108   1.098
14799TIP3   OH244337   7.199   2.218   1.401
14799TIP3    H144338   7.158   2.218   1.315
14799TIP3    H244339   7.213   2.125   1.421
14800TIP3   OH244340   7.133   1.769   0.738
14800TIP3    H144341   7.059   1.708   0.742
14800TIP3    H244342   7.093   1.855   0.752
14801TIP3   OH244343   7.247   2.021   0.932
14801TIP3    H144344   7.337   2.010   0.900
14801TIP3    H244345   7.212   2.092   0.879
14802TIP3   OH244346   7.700   2.079   0.699
14802TIP3    H144347   7.647   2.038   0.631
14802TIP3    H244348   7.716   2.168   0.667
14803TIP3   OH244349   7.219   2.924   0.649
14803TIP3    H144350   7.238   2.849   0.705
14803TIP3    H244351   7.305   2.955   0.620
14804TIP3   OH244352   7.156   2.680   0.490
14804TIP3    H144353   7.152   2.603   0.547
14804TIP3    H244354   7.087   2.738   0.522
14805TIP3   OH244355   7.513   3.127   0.265
14805TIP3    H144356   7.534   3.192   0.197
14805TIP3    H244357   7.422   3.146   0.289
14806TIP3   OH244358   7.361   2.686   0.735
14806TIP3    H144359   7.291   2.621   0.738
14806TIP3    H244360   7.442   2.636   0.740
14807TIP3   OH244361   7.311   1.703   0.930
14807TIP3    H144362   7.255   1.730   0.857
14807TIP3    H244363   7.277   1.750   1.006
14808TIP3   OH244364   6.894   1.830   1.175
14808TIP3    H144365   6.845   1.907   1.147
14808TIP3    H244366   6.916   1.848   1.267
14809TIP3   OH244367   7.097   1.584   1.244
14809TIP3    H144368   7.089   1.595   1.339
14809TIP3    H244369   7.188   1.607   1.225
14810TIP3   OH244370   7.474   2.331   1.382
14810TIP3    H144371   7.401   2.274   1.409
14810TIP3    H244372   7.552   2.286   1.414
14811TIP3   OH244373   7.109   3.006   0.408
14811TIP3    H144374   7.139   2.963   0.488
14811TIP3    H244375   7.132   2.944   0.338
14812TIP3   OH244376   6.732   2.547   0.457
14812TIP3    H144377   6.719   2.548   0.552
14812TIP3    H244378   6.725   2.455   0.433
14813TIP3   OH244379   6.589   1.982   0.627
14813TIP3    H144380   6.582   1.960   0.534
14813TIP3    H244381   6.657   1.923   0.661
14814TIP3   OH244382   7.432   2.249   0.352
14814TIP3    H144383   7.406   2.257   0.260
14814TIP3    H244384   7.459   2.338   0.376
14815TIP3   OH244385   7.624   2.578   0.702
14815TIP3    H144386   7.676   2.658   0.698
14815TIP3    H244387   7.652   2.536   0.783
14816TIP3   OH244388   7.745   2.448   0.902
14816TIP3    H144389   7.679   2.419   0.966
14816TIP3    H244390   7.820   2.474   0.956
14817TIP3   OH244391   7.696   2.327   0.590
14817TIP3    H144392   7.616   2.330   0.539
14817TIP3    H244393   7.690   2.402   0.649
14818TIP3   OH244394   7.535   2.023   0.494
14818TIP3    H144395   7.488   2.083   0.435
14818TIP3    H244396   7.500   1.937   0.473
14819TIP3   OH244397   7.572   2.318   1.070
14819TIP3    H144398   7.607   2.235   1.039
14819TIP3    H244399   7.630   2.343   1.141
14820TIP3   OH244400   7.468   1.752   0.480
14820TIP3    H144401   7.528   1.730   0.551
14820TIP3    H244402   7.388   1.703   0.499
14821TIP3   OH244403   7.648   2.069   0.993
14821TIP3    H144404   7.641   1.989   1.045
14821TIP3    H244405   7.630   2.041   0.903
14822TIP3   OH244406   7.705   2.193   1.464
14822TIP3    H144407   7.769   2.250   1.423
14822TIP3    H244408   7.756   2.139   1.525
14823TIP3   OH244409   7.692   1.690   0.988
14823TIP3    H144410   7.701   1.716   1.079
14823TIP3    H244411   7.626   1.621   0.989
14824TIP3   OH244412   7.693   1.682   0.642
14824TIP3    H144413   7.729   1.616   0.581
14824TIP3    H244414   7.758   1.752   0.642
14825TIP3   OH244415   7.684   1.675   1.495
14825TIP3    H144416   7.735   1.679   1.414
14825TIP3    H244417   7.626   1.600   1.482
14826TIP3   OH244418   7.811   1.699   1.256
14826TIP3    H144419   7.867   1.638   1.208
14826TIP3    H244420   7.840   1.785   1.228
14827TIP3   OH244421   7.506   1.484   1.416
14827TIP3    H144422   7.454   1.530   1.350
14827TIP3    H244423   7.444   1.423   1.456
14828TIP3   OH244424   7.480   1.505   1.001
14828TIP3    H144425   7.415   1.572   0.980
14828TIP3    H244426   7.432   1.438   1.050
14829TIP3   OH244427   6.845   1.499   1.104
14829TIP3    H144428   6.892   1.514   1.187
14829TIP3    H244429   6.890   1.556   1.041
14830TIP3   OH244430   0.338   2.715   0.518
14830TIP3    H144431   0.303   2.803   0.532
14830TIP3    H244432   0.260   2.659   0.518
14831TIP3   OH244433   0.297   2.701   1.018
14831TIP3    H144434   0.344   2.686   1.100
14831TIP3    H244435   0.251   2.619   1.001
14832TIP3   OH244436   8.233   2.616   1.403
14832TIP3    H144437   8.264   2.542   1.455
14832TIP3    H244438   8.300   2.627   1.335
14833TIP3   OH244439   0.537   2.985   0.679
14833TIP3    H144440   0.534   2.927   0.755
14833TIP3    H244441   0.551   3.072   0.716
14834TIP3   OH244442   7.898   2.211   0.857
14834TIP3    H144443   7.856   2.296   0.870
14834TIP3    H244444   7.825   2.151   0.839
14835TIP3   OH244445   7.969   2.502   1.038
14835TIP3    H144446   8.005   2.429   1.089
14835TIP3    H244447   8.039   2.568   1.039
14836TIP3   OH244448   0.206   3.464   0.692
14836TIP3    H144449   0.246   3.396   0.638
14836TIP3    H244450   0.205   3.428   0.780
14837TIP3   OH244451   0.138   2.927   1.052
14837TIP3    H144452   0.177   2.846   1.018
14837TIP3    H244453   0.213   2.980   1.080
14838TIP3   OH244454   1.117   2.246   1.047
14838TIP3    H144455   1.138   2.327   1.093
14838TIP3    H244456   1.155   2.257   0.960
14839TIP3   OH244457   0.513   2.417   1.093
14839TIP3    H144458   0.544   2.330   1.118
14839TIP3    H244459   0.482   2.407   1.003
14840TIP3   OH244460   8.470   2.082   1.027
14840TIP3    H144461   8.448   2.155   0.970
14840TIP3    H244462   8.418   2.009   0.995
14841TIP3   OH244463   0.556   2.192   0.688
14841TIP3    H144464   0.624   2.171   0.752
14841TIP3    H244465   0.604   2.210   0.607
14842TIP3   OH244466   8.088   2.282   1.165
14842TIP3    H144467   8.177   2.274   1.200
14842TIP3    H244468   8.090   2.235   1.082
14843TIP3   OH244469   8.519   2.495   0.974
14843TIP3    H144470   8.613   2.474   0.981
14843TIP3    H244471   8.480   2.415   0.940
14844TIP3   OH244472   1.169   2.450   1.231
14844TIP3    H144473   1.096   2.508   1.213
14844TIP3    H244474   1.224   2.498   1.293
14845TIP3   OH244475   8.454   2.083   1.470
14845TIP3    H144476   8.401   2.116   1.398
14845TIP3    H244477   8.401   2.099   1.548
14846TIP3   OH244478   0.191   2.952   0.474
14846TIP3    H144479   0.144   2.918   0.398
14846TIP3    H244480   0.136   3.024   0.506
14847TIP3   OH244481   8.565   2.861   1.256
14847TIP3    H144482   8.489   2.919   1.251
14847TIP3    H244483   8.622   2.889   1.184
14848TIP3   OH244484   0.747   2.193   0.898
14848TIP3    H144485   0.822   2.135   0.889
14848TIP3    H244486   0.785   2.280   0.909
14849TIP3   OH244487   8.340   2.192   1.245
14849TIP3    H144488   8.397   2.267   1.263
14849TIP3    H244489   8.382   2.147   1.172
14850TIP3   OH244490   7.881   2.747   0.672
14850TIP3    H144491   7.823   2.752   0.596
14850TIP3    H244492   7.887   2.837   0.704
14851TIP3   OH244493   0.547   3.233   0.793
14851TIP3    H144494   0.475   3.244   0.854
14851TIP3    H244495   0.566   3.321   0.762
14852TIP3   OH244496   0.902   2.158   1.218
14852TIP3    H144497   0.820   2.169   1.171
14852TIP3    H244498   0.970   2.179   1.154
14853TIP3   OH244499   0.196   1.776   1.194
14853TIP3    H144500   0.186   1.683   1.217
14853TIP3    H244501   0.119   1.818   1.234
14854TIP3   OH244502   0.320   3.286   0.507
14854TIP3    H144503   0.377   3.209   0.504
14854TIP3    H244504   0.376   3.358   0.478
14855TIP3   OH244505   0.453   3.005   0.418
14855TIP3    H144506   0.360   2.994   0.438
14855TIP3    H244507   0.496   3.000   0.504
14856TIP3   OH244508   0.790   3.130   1.181
14856TIP3    H144509   0.791   3.052   1.126
14856TIP3    H244510   0.756   3.199   1.124
14857TIP3   OH244511   0.119   2.559   0.455
14857TIP3    H144512   0.036   2.608   0.454
14857TIP3    H244513   0.128   2.528   0.365
14858TIP3   OH244514   0.109   2.357   0.162
14858TIP3    H144515   0.184   2.398   0.205
14858TIP3    H244516   0.148   2.288   0.107
14859TIP3   OH244517   1.001   2.792   1.027
14859TIP3    H144518   0.918   2.839   1.025
14859TIP3    H244519   1.034   2.796   0.938
14860TIP3   OH244520   0.574   2.583   0.484
14860TIP3    H144521   0.494   2.629   0.510
14860TIP3    H244522   0.613   2.553   0.566
14861TIP3   OH244523   0.706   2.659   1.355
14861TIP3    H144524   0.701   2.734   1.414
14861TIP3    H244525   0.625   2.661   1.305
14862TIP3   OH244526   8.322   2.631   0.827
14862TIP3    H144527   8.282   2.570   0.765
14862TIP3    H244528   8.392   2.580   0.869
14863TIP3   OH244529   8.456   2.983   1.012
14863TIP3    H144530   8.418   3.003   0.927
14863TIP3    H244531   8.550   2.974   0.996
14864TIP3   OH244532   8.426   2.629   1.197
14864TIP3    H144533   8.457   2.594   1.113
14864TIP3    H244534   8.476   2.709   1.210
14865TIP3   OH244535   0.368   3.257   0.999
14865TIP3    H144536   0.311   3.312   1.053
14865TIP3    H244537   0.374   3.174   1.046
14866TIP3   OH244538   0.335   2.514   0.255
14866TIP3    H144539   0.329   2.603   0.289
14866TIP3    H244540   0.354   2.525   0.162
14867TIP3   OH244541   0.058   3.192   0.517
14867TIP3    H144542   0.144   3.235   0.521
14867TIP3    H244543   0.005   3.250   0.463
14868TIP3   OH244544   0.875   1.831   0.357
14868TIP3    H144545   0.784   1.812   0.381
14868TIP3    H244546   0.870   1.861   0.267
14869TIP3   OH244547   8.200   2.466   0.633
14869TIP3    H144548   8.128   2.509   0.588
14869TIP3    H244549   8.163   2.382   0.662
14870TIP3   OH244550   3.515   7.169   6.888
14870TIP3    H144551   3.512   7.262   6.865
14870TIP3    H244552   3.602   7.141   6.861
14871TIP3   OH244553   0.925   3.507   1.244
14871TIP3    H144554   0.976   3.428   1.223
14871TIP3    H244555   0.928   3.512   1.340
14872TIP3   OH244556   8.546   3.392   0.342
14872TIP3    H144557   8.508   3.374   0.256
14872TIP3    H244558   8.518   3.482   0.361
14873TIP3   OH244559   3.020   7.388   6.990
14873TIP3    H144560   3.071   7.315   6.955
14873TIP3    H244561   3.055   7.402   7.078
14874TIP3   OH244562   0.205   3.378   0.241
14874TIP3    H144563   0.118   3.376   0.283
14874TIP3    H244564   0.265   3.352   0.311
14875TIP3   OH244565   0.927   2.604   1.543
14875TIP3    H144566   0.870   2.638   1.473
14875TIP3    H244567   0.944   2.513   1.517
14876TIP3   OH244568   8.567   1.878   1.316
14876TIP3    H144569   8.485   1.845   1.279
14876TIP3    H244570   8.541   1.955   1.367
14877TIP3   OH244571   0.634   2.373   1.464
14877TIP3    H144572   0.671   2.418   1.539
14877TIP3    H244573   0.668   2.421   1.388
14878TIP3   OH244574   3.270   6.605   7.021
14878TIP3    H144575   3.223   6.580   6.942
14878TIP3    H244576   3.357   6.632   6.990
14879TIP3   OH244577   0.098   1.916   0.304
14879TIP3    H144578   0.062   1.921   0.393
14879TIP3    H244579   0.064   1.833   0.270
14880TIP3   OH244580   8.508   2.398   1.323
14880TIP3    H144581   8.459   2.402   1.404
14880TIP3    H244582   8.487   2.479   1.278
14881TIP3   OH244583   8.378   2.284   0.867
14881TIP3    H144584   8.290   2.257   0.894
14881TIP3    H244585   8.386   2.251   0.778
14882TIP3   OH244586   0.254   2.370   0.606
14882TIP3    H144587   0.203   2.437   0.562
14882TIP3    H244588   0.307   2.331   0.537
14883TIP3   OH244589   0.482   2.605   1.677
14883TIP3    H144590   0.441   2.554   1.747
14883TIP3    H244591   0.563   2.638   1.714
14884TIP3   OH244592   0.418   2.379   0.833
14884TIP3    H144593   0.351   2.399   0.767
14884TIP3    H244594   0.466   2.305   0.795
14885TIP3   OH244595   8.350   2.407   1.544
14885TIP3    H144596   8.415   2.451   1.598
14885TIP3    H244597   8.323   2.331   1.595
14886TIP3   OH244598   8.367   1.897   0.281
14886TIP3    H144599   8.356   1.899   0.377
14886TIP3    H244600   8.289   1.941   0.248
14887TIP3   OH244601   7.907   1.929   1.156
14887TIP3    H144602   7.983   1.972   1.194
14887TIP3    H244603   7.933   1.908   1.066
14888TIP3   OH244604   7.883   1.887   0.649
14888TIP3    H144605   7.922   1.918   0.568
14888TIP3    H244606   7.824   1.957   0.676
14889TIP3   OH244607   0.443   2.629   1.243
14889TIP3    H144608   0.472   2.558   1.185
14889TIP3    H244609   0.408   2.585   1.320
14890TIP3   OH244610   0.135   2.079   0.923
14890TIP3    H144611   0.054   2.076   0.974
14890TIP3    H244612   0.204   2.068   0.987
14891TIP3   OH244613   8.150   2.149   0.933
14891TIP3    H144614   8.063   2.158   0.896
14891TIP3    H244615   8.175   2.058   0.913
14892TIP3   OH244616   8.390   2.160   0.623
14892TIP3    H144617   8.484   2.168   0.608
14892TIP3    H244618   8.350   2.177   0.538
14893TIP3   OH244619   0.583   2.153   1.130
14893TIP3    H144620   0.505   2.099   1.128
14893TIP3    H244621   0.626   2.137   1.046
14894TIP3   OH244622   8.267   2.186   0.380
14894TIP3    H144623   8.201   2.138   0.330
14894TIP3    H244624   8.323   2.226   0.314
14895TIP3   OH244625   0.192   2.436   1.024
14895TIP3    H144626   0.257   2.390   0.971
14895TIP3    H244627   0.195   2.394   1.109
14896TIP3   OH244628   8.292   1.903   0.908
14896TIP3    H144629   8.258   1.831   0.960
14896TIP3    H244630   8.313   1.864   0.823
14897TIP3   OH244631   0.179   2.347   1.296
14897TIP3    H144632   0.088   2.376   1.306
14897TIP3    H244633   0.229   2.403   1.355
14898TIP3   OH244634   8.486   2.705   0.408
14898TIP3    H144635   8.412   2.646   0.389
14898TIP3    H244636   8.466   2.740   0.494
14899TIP3   OH244637   0.771   2.934   0.995
14899TIP3    H144638   0.807   2.984   0.922
14899TIP3    H244639   0.689   2.898   0.961
14900TIP3   OH244640   0.352   2.012   0.311
14900TIP3    H144641   0.260   1.988   0.304
14900TIP3    H244642   0.351   2.108   0.319
14901TIP3   OH244643   0.397   2.279   0.386
14901TIP3    H144644   0.492   2.271   0.396
14901TIP3    H244645   0.386   2.357   0.333
14902TIP3   OH244646   8.177   2.674   1.060
14902TIP3    H144647   8.221   2.679   0.976
14902TIP3    H244648   8.248   2.675   1.125
14903TIP3   OH244649   0.048   2.857   0.252
14903TIP3    H144650   0.001   2.940   0.245
14903TIP3    H244651  -0.011   2.800   0.302
14904TIP3   OH244652   0.750   2.482   0.222
14904TIP3    H144653   0.731   2.423   0.149
14904TIP3    H244654   0.845   2.475   0.233
14905TIP3   OH244655   1.031   3.258   1.180
14905TIP3    H144656   0.945   3.217   1.181
14905TIP3    H244657   1.082   3.205   1.118
14906TIP3   OH244658   0.562   3.196   0.122
14906TIP3    H144659   0.520   3.126   0.173
14906TIP3    H244660   0.587   3.154   0.040
14907TIP3   OH244661   0.532   2.815   0.913
14907TIP3    H144662   0.444   2.784   0.936
14907TIP3    H244663   0.576   2.738   0.878
14908TIP3   OH244664   8.297   3.040   0.725
14908TIP3    H144665   8.287   3.113   0.664
14908TIP3    H244666   8.208   3.013   0.746
14909TIP3   OH244667   7.900   2.330   0.409
14909TIP3    H144668   7.944   2.413   0.425
14909TIP3    H244669   7.831   2.327   0.475
14910TIP3   OH244670   8.427   2.810   0.647
14910TIP3    H144671   8.397   2.897   0.673
14910TIP3    H244672   8.393   2.752   0.716
14911TIP3   OH244673   8.221   3.263   0.561
14911TIP3    H144674   8.143   3.305   0.598
14911TIP3    H244675   8.288   3.332   0.561
14912TIP3   OH244676   0.399   3.015   1.135
14912TIP3    H144677   0.440   3.008   1.222
14912TIP3    H244678   0.452   2.957   1.080
14913TIP3   OH244679   0.335   2.904   0.021
14913TIP3    H144680   0.358   2.855   0.101
14913TIP3    H244681   0.246   2.876   0.001
14914TIP3   OH244682   3.520   7.442   6.850
14914TIP3    H144683   3.555   7.507   6.790
14914TIP3    H244684   3.445   7.484   6.891
14915TIP3   OH244685   8.295   2.171   1.686
14915TIP3    H144686   8.203   2.147   1.687
14915TIP3    H244687   8.325   2.155   1.775
14916TIP3   OH244688   0.538   2.775   0.267
14916TIP3    H144689   0.493   2.821   0.338
14916TIP3    H244690   0.577   2.844   0.214
14917TIP3   OH244691   8.296   2.882   0.027
14917TIP3    H144692   8.302   2.791  -0.003
14917TIP3    H244693   8.279   2.875   0.121
14918TIP3   OH244694   8.247   2.893   0.299
14918TIP3    H144695   8.320   2.869   0.356
14918TIP3    H244696   8.245   2.989   0.302
14919TIP3   OH244697   7.994   2.579   0.491
14919TIP3    H144698   7.960   2.627   0.567
14919TIP3    H244699   7.994   2.644   0.420
14920TIP3   OH244700   0.408   1.970   0.580
14920TIP3    H144701   0.390   1.986   0.488
14920TIP3    H244702   0.452   2.050   0.610
14921TIP3   OH244703   8.507   3.087   0.238
14921TIP3    H144704   8.419   3.110   0.269
14921TIP3    H244705   8.532   3.158   0.180
14922TIP3   OH244706   0.074   2.167   0.666
14922TIP3    H144707   0.135   2.237   0.644
14922TIP3    H244708   0.092   2.147   0.758
14923TIP3   OH244709   0.372   2.479   1.459
14923TIP3    H144710   0.383   2.535   1.536
14923TIP3    H244711   0.452   2.427   1.455
14924TIP3   OH244712   0.224   1.867   0.758
14924TIP3    H144713   0.201   1.945   0.808
14924TIP3    H244714   0.292   1.897   0.697
14925TIP3   OH244715   8.250   3.167   0.301
14925TIP3    H144716   8.226   3.237   0.241
14925TIP3    H244717   8.229   3.201   0.388
14926TIP3   OH244718   8.341   1.886   0.561
14926TIP3    H144719   8.330   1.976   0.592
14926TIP3    H244720   8.436   1.872   0.565
14927TIP3   OH244721   0.956   2.363   1.414
14927TIP3    H144722   0.911   2.291   1.370
14927TIP3    H244723   1.034   2.379   1.360
14928TIP3   OH244724   0.634   2.572   0.824
14928TIP3    H144725   0.565   2.505   0.831
14928TIP3    H244726   0.711   2.531   0.863
14929TIP3   OH244727   7.992   2.780   0.296
14929TIP3    H144728   8.066   2.840   0.308
14929TIP3    H244729   8.023   2.717   0.231
14930TIP3   OH244730   7.902   2.050   0.424
14930TIP3    H144731   7.920   2.143   0.419
14930TIP3    H244732   7.821   2.038   0.374
14931TIP3   OH244733   0.611   3.493   0.750
14931TIP3    H144734   0.567   3.564   0.704
14931TIP3    H244735   0.704   3.510   0.737
14932TIP3   OH244736   8.303   1.798   1.285
14932TIP3    H144737   8.270   1.754   1.207
14932TIP3    H244738   8.312   1.728   1.350
14933TIP3   OH244739   7.821   3.018   0.688
14933TIP3    H144740   7.731   3.006   0.717
14933TIP3    H244741   7.815   3.042   0.596
14934TIP3   OH244742   2.711   7.145   6.948
14934TIP3    H144743   2.664   7.072   6.988
14934TIP3    H244744   2.784   7.104   6.902
14935TIP3   OH244745   3.151   7.177   6.871
14935TIP3    H144746   3.194   7.113   6.929
14935TIP3    H244747   3.204   7.177   6.792
14936TIP3   OH244748   8.111   2.583   0.151
14936TIP3    H144749   8.162   2.557   0.228
14936TIP3    H244750   8.176   2.594   0.081
14937TIP3   OH244751   0.082   2.805  -0.018
14937TIP3    H144752   0.056   2.817   0.074
14937TIP3    H244753   0.067   2.712  -0.036
14938TIP3   OH244754   0.600   3.079   1.370
14938TIP3    H144755   0.677   3.091   1.315
14938TIP3    H244756   0.556   3.164   1.369
14939TIP3   OH244757   8.291   2.515   0.361
14939TIP3    H144758   8.267   2.479   0.446
14939TIP3    H244759   8.336   2.444   0.316
14940TIP3   OH244760   8.576   2.561   1.607
14940TIP3    H144761   8.549   2.643   1.648
14940TIP3    H244762   8.625   2.588   1.529
14941TIP3   OH244763   8.427   2.329   0.206
14941TIP3    H144764   8.396   2.332   0.115
14941TIP3    H244765   8.523   2.331   0.199
14942TIP3   OH244766   3.508   6.692   6.915
14942TIP3    H144767   3.497   6.643   6.833
14942TIP3    H244768   3.482   6.781   6.893
14943TIP3   OH244769   0.138   2.356   1.706
14943TIP3    H144770   0.126   2.285   1.643
14943TIP3    H244771   0.078   2.425   1.676
14944TIP3   OH244772   0.113   2.164   1.503
14944TIP3    H144773   0.137   2.209   1.423
14944TIP3    H244774   0.021   2.139   1.491
14945TIP3   OH244775   0.110   2.670   1.394
14945TIP3    H144776   0.199   2.686   1.364
14945TIP3    H244777   0.058   2.739   1.353
14946TIP3   OH244778   0.742   2.657   1.770
14946TIP3    H144779   0.810   2.590   1.760
14946TIP3    H244780   0.763   2.722   1.703
14947TIP3   OH244781   0.718   2.882   1.538
14947TIP3    H144782   0.663   2.946   1.491
14947TIP3    H244783   0.804   2.891   1.497
14948TIP3   OH244784   0.228   1.918   1.558
14948TIP3    H144785   0.183   2.001   1.543
14948TIP3    H244786   0.158   1.856   1.579
14949TIP3   OH244787   0.367   2.411   1.839
14949TIP3    H144788   0.337   2.413   1.930
14949TIP3    H244789   0.288   2.391   1.789
14950TIP3   OH244790   0.586   2.286   1.731
14950TIP3    H144791   0.514   2.331   1.774
14950TIP3    H244792   0.664   2.312   1.780
14951TIP3   OH244793   0.819   2.335   1.867
14951TIP3    H144794   0.843   2.242   1.870
14951TIP3    H244795   0.822   2.363   1.958
14952TIP3   OH244796   0.472   2.009   1.648
14952TIP3    H144797   0.505   1.941   1.707
14952TIP3    H244798   0.385   1.979   1.624
14953TIP3   OH244799   8.235   3.385   0.130
14953TIP3    H144800   8.327   3.373   0.107
14953TIP3    H244801   8.197   3.427   0.053
14954TIP3   OH244802   7.731   2.780   0.193
14954TIP3    H144803   7.811   2.797   0.243
14954TIP3    H244804   7.718   2.686   0.201
14955TIP3   OH244805   0.878   3.550   0.712
14955TIP3    H144806   0.895   3.589   0.797
14955TIP3    H244807   0.931   3.601   0.651
14956TIP3   OH244808   0.843   3.545   0.993
14956TIP3    H144809   0.798   3.462   0.977
14956TIP3    H244810   0.861   3.544   1.087
14957TIP3   OH244811   0.926   3.067   0.817
14957TIP3    H144812   0.983   3.004   0.774
14957TIP3    H244813   0.930   3.145   0.762
14958TIP3   OH244814   0.691   3.316   1.012
14958TIP3    H144815   0.624   3.382   1.027
14958TIP3    H244816   0.666   3.275   0.929
14959TIP3   OH244817   3.544   6.354   7.051
14959TIP3    H144818   3.529   6.375   6.959
14959TIP3    H244819   3.531   6.259   7.057
14960TIP3   OH244820   7.975   2.558   1.326
14960TIP3    H144821   7.961   2.612   1.249
14960TIP3    H244822   8.054   2.594   1.367
14961TIP3   OH244823   0.945   2.904   1.391
14961TIP3    H144824   1.031   2.877   1.421
14961TIP3    H244825   0.949   2.999   1.388
14962TIP3   OH244826   1.161   2.738   1.490
14962TIP3    H144827   1.082   2.690   1.513
14962TIP3    H244828   1.224   2.671   1.463
14963TIP3   OH244829   0.633   2.028   0.016
14963TIP3    H144830   0.713   1.988   0.049
14963TIP3    H244831   0.567   1.959   0.019
14964TIP3   OH244832   0.671   2.264   0.426
14964TIP3    H144833   0.714   2.184   0.455
14964TIP3    H244834   0.728   2.299   0.358
14965TIP3   OH244835   0.858   2.445   0.947
14965TIP3    H144836   0.941   2.464   0.903
14965TIP3    H244837   0.870   2.477   1.036
14966TIP3   OH244838   0.928   2.583   1.187
14966TIP3    H144839   0.856   2.615   1.241
14966TIP3    H244840   0.953   2.659   1.133
14967TIP3   OH244841   1.370   2.133   1.707
14967TIP3    H144842   1.436   2.080   1.664
14967TIP3    H244843   1.345   2.199   1.643
14968TIP3   OH244844   0.768   2.042   0.543
14968TIP3    H144845   0.842   2.017   0.599
14968TIP3    H244846   0.729   1.959   0.517
14969TIP3   OH244847   8.130   2.006   1.312
14969TIP3    H144848   8.190   1.932   1.306
14969TIP3    H244849   8.183   2.082   1.290
14970TIP3   OH244850   7.970   2.295   1.417
14970TIP3    H144851   7.999   2.273   1.329
14970TIP3    H244852   7.970   2.390   1.419
14971TIP3   OH244853   1.232   2.294   1.534
14971TIP3    H144854   1.166   2.323   1.597
14971TIP3    H244855   1.189   2.223   1.486
14972TIP3   OH244856   0.887   1.960   0.117
14972TIP3    H144857   0.922   1.893   0.058
14972TIP3    H244858   0.950   2.032   0.113
14973TIP3   OH244859   7.934   1.795   0.901
14973TIP3    H144860   7.853   1.750   0.924
14973TIP3    H244861   7.917   1.833   0.815
14974TIP3   OH244862   0.459   3.487   0.399
14974TIP3    H144863   0.513   3.488   0.320
14974TIP3    H244864   0.497   3.554   0.455
14975TIP3   OH244865   1.139   2.054   1.419
14975TIP3    H144866   1.055   2.038   1.376
14975TIP3    H244867   1.187   1.971   1.409
14976TIP3   OH244868   0.358   1.982   1.069
14976TIP3    H144869   0.312   1.907   1.107
14976TIP3    H244870   0.427   1.942   1.014
14977TIP3   OH244871   0.863   1.914   0.960
14977TIP3    H144872   0.902   1.933   0.875
14977TIP3    H244873   0.769   1.904   0.942
14978TIP3   OH244874   0.978   1.984   0.718
14978TIP3    H144875   1.039   1.921   0.680
14978TIP3    H244876   1.014   2.069   0.693
14979TIP3   OH244877   8.207   1.684   1.054
14979TIP3    H144878   8.115   1.657   1.052
14979TIP3    H244879   8.256   1.602   1.048
14980TIP3   OH244880   8.035   1.590   0.714
14980TIP3    H144881   8.055   1.636   0.633
14980TIP3    H244882   8.009   1.658   0.775
14981TIP3   OH244883   0.069   1.724   0.944
14981TIP3    H144884   0.117   1.770   0.875
14981TIP3    H244885   0.115   1.748   1.024
14982TIP3   OH244886   0.579   1.872   0.931
14982TIP3    H144887   0.574   1.837   0.842
14982TIP3    H244888   0.581   1.795   0.987
14983TIP3   OH244889   0.628   1.809   0.494
14983TIP3    H144890   0.543   1.850   0.512
14983TIP3    H244891   0.619   1.720   0.526
14984TIP3   OH244892   7.762   3.135   0.439
14984TIP3    H144893   7.705   3.079   0.387
14984TIP3    H244894   7.751   3.222   0.401
14985TIP3   OH244895   8.133   1.717   0.474
14985TIP3    H144896   8.179   1.656   0.416
14985TIP3    H244897   8.202   1.773   0.509
14986TIP3   OH244898   0.016   1.917   0.569
14986TIP3    H144899   0.073   1.861   0.621
14986TIP3    H244900   0.036   2.006   0.597
14987TIP3   OH244901   8.497   3.317   0.071
14987TIP3    H144902   8.579   3.345   0.031
14987TIP3    H244903   8.466   3.246   0.014
14988TIP3   OH244904   0.600   3.462   0.162
14988TIP3    H144905   0.594   3.367   0.152
14988TIP3    H244906   0.560   3.497   0.083
14989TIP3   OH244907   7.803   3.162   0.102
14989TIP3    H144908   7.812   3.199   0.190
14989TIP3    H244909   7.883   3.111   0.088
14990TIP3   OH244910   0.895   2.073   1.861
14990TIP3    H144911   0.921   2.015   1.934
14990TIP3    H244912   0.965   2.062   1.796
14991TIP3   OH244913   2.054   2.957   0.108
14991TIP3    H144914   2.031   3.033   0.054
14991TIP3    H244915   1.992   2.889   0.080
14992TIP3   OH244916   1.999   2.945   0.488
14992TIP3    H144917   2.032   2.940   0.578
14992TIP3    H244918   1.990   2.854   0.461
14993TIP3   OH244919   1.354   2.804   0.865
14993TIP3    H144920   1.393   2.728   0.910
14993TIP3    H244921   1.424   2.869   0.863
14994TIP3   OH244922   2.336   3.299   0.111
14994TIP3    H144923   2.299   3.212   0.128
14994TIP3    H244924   2.343   3.339   0.198
14995TIP3   OH244925   1.363   3.232   0.565
14995TIP3    H144926   1.342   3.139   0.575
14995TIP3    H244927   1.454   3.232   0.536
14996TIP3   OH244928   1.032   2.459   0.379
14996TIP3    H144929   1.058   2.548   0.403
14996TIP3    H244930   1.030   2.412   0.462
14997TIP3   OH244931   1.151   2.746   0.525
14997TIP3    H144932   1.202   2.678   0.567
14997TIP3    H244933   1.213   2.818   0.512
14998TIP3   OH244934   1.886   3.766   0.197
14998TIP3    H144935   1.959   3.704   0.200
14998TIP3    H244936   1.876   3.795   0.288
14999TIP3   OH244937   1.852   3.162   0.462
14999TIP3    H144938   1.898   3.084   0.429
14999TIP3    H244939   1.864   3.158   0.557
15000TIP3   OH244940   2.920   2.465   0.535
15000TIP3    H144941   2.881   2.548   0.562
15000TIP3    H244942   2.944   2.479   0.443
15001TIP3   OH244943   2.240   2.547   0.592
15001TIP3    H144944   2.286   2.468   0.565
15001TIP3    H244945   2.277   2.616   0.537
15002TIP3   OH244946   1.644   2.334   0.529
15002TIP3    H144947   1.634   2.408   0.469
15002TIP3    H244948   1.601   2.261   0.485
15003TIP3   OH244949   2.338   2.439   0.121
15003TIP3    H144950   2.404   2.414   0.187
15003TIP3    H244951   2.389   2.473   0.048
15004TIP3   OH244952   1.278   2.533   0.640
15004TIP3    H144953   1.358   2.518   0.691
15004TIP3    H244954   1.291   2.482   0.560
15005TIP3   OH244955   1.699   2.752   0.417
15005TIP3    H144956   1.793   2.733   0.418
15005TIP3    H244957   1.658   2.669   0.394
15006TIP3   OH244958   1.620   2.317   0.978
15006TIP3    H144959   1.565   2.353   0.909
15006TIP3    H244960   1.569   2.329   1.058
15007TIP3   OH244961   4.880   7.215   6.956
15007TIP3    H144962   4.830   7.194   6.877
15007TIP3    H244963   4.836   7.292   6.992
15008TIP3   OH244964   1.643   3.082   0.723
15008TIP3    H144965   1.596   3.153   0.769
15008TIP3    H244966   1.733   3.113   0.719
15009TIP3   OH244967   2.517   2.389   0.313
15009TIP3    H144968   2.484   2.363   0.400
15009TIP3    H244969   2.609   2.364   0.314
15010TIP3   OH244970   1.507   2.422   0.748
15010TIP3    H144971   1.560   2.497   0.775
15010TIP3    H244972   1.556   2.382   0.677
15011TIP3   OH244973   1.516   3.279   0.868
15011TIP3    H144974   1.507   3.366   0.828
15011TIP3    H244975   1.426   3.247   0.876
15012TIP3   OH244976   0.978   3.019   0.090
15012TIP3    H144977   0.928   3.044   0.013
15012TIP3    H244978   0.997   3.102   0.134
15013TIP3   OH244979   2.330   3.598   0.339
15013TIP3    H144980   2.295   3.609   0.428
15013TIP3    H244981   2.349   3.687   0.310
15014TIP3   OH244982   2.690   2.339   0.590
15014TIP3    H144983   2.645   2.419   0.617
15014TIP3    H244984   2.778   2.367   0.567
15015TIP3   OH244985   1.978   2.025   0.694
15015TIP3    H144986   1.969   1.934   0.722
15015TIP3    H244987   1.904   2.070   0.735
15016TIP3   OH244988   4.981   7.582   6.895
15016TIP3    H144989   5.022   7.500   6.870
15016TIP3    H244990   5.050   7.632   6.939
15017TIP3   OH244991   5.114   7.344   6.872
15017TIP3    H144992   5.042   7.284   6.889
15017TIP3    H244993   5.166   7.343   6.953
15018TIP3   OH244994   4.767   6.862   6.950
15018TIP3    H144995   4.689   6.912   6.930
15018TIP3    H244996   4.820   6.866   6.870
15019TIP3   OH244997   4.757   6.671   6.664
15019TIP3    H144998   4.823   6.722   6.711
15019TIP3    H244999   4.806   6.605   6.616
15020TIP3   OH245000   2.788   3.024   0.459
15020TIP3    H145001   2.711   3.079   0.473
15020TIP3    H245002   2.858   3.086   0.438
15021TIP3   OH245003   5.121   6.979   6.931
15021TIP3    H145004   5.072   6.985   7.013
15021TIP3    H245005   5.207   6.947   6.957
15022TIP3   OH245006   2.438   2.957   0.947
15022TIP3    H145007   2.532   2.976   0.934
15022TIP3    H245008   2.403   2.951   0.859
15023TIP3   OH245009   1.495   2.899   0.313
15023TIP3    H145010   1.459   2.840   0.247
15023TIP3    H245011   1.572   2.853   0.347
15024TIP3   OH245012   1.607   3.265   0.447
15024TIP3    H145013   1.579   3.266   0.356
15024TIP3    H245014   1.692   3.221   0.445
15025TIP3   OH245015   1.592   2.830   0.656
15025TIP3    H145016   1.635   2.811   0.573
15025TIP3    H245017   1.618   2.919   0.677
15026TIP3   OH245018   2.260   3.546   0.596
15026TIP3    H145019   2.251   3.608   0.668
15026TIP3    H245020   2.231   3.462   0.632
15027TIP3   OH245021   1.708   3.378   1.040
15027TIP3    H145022   1.673   3.464   1.062
15027TIP3    H245023   1.641   3.339   0.983
15028TIP3   OH245024   4.969   6.828   6.757
15028TIP3    H145025   5.023   6.890   6.807
15028TIP3    H245026   4.999   6.837   6.667
15029TIP3   OH245027   1.490   3.003   1.025
15029TIP3    H145028   1.503   3.078   1.083
15029TIP3    H245029   1.421   2.952   1.067
15030TIP3   OH245030   1.900   3.394   0.009
15030TIP3    H145031   1.969   3.454  -0.020
15030TIP3    H245032   1.828   3.451   0.036
15031TIP3   OH245033   1.556   3.593   1.088
15031TIP3    H145034   1.582   3.672   1.040
15031TIP3    H245035   1.506   3.625   1.163
15032TIP3   OH245036   5.477   6.042   6.808
15032TIP3    H145037   5.400   6.063   6.860
15032TIP3    H245038   5.494   6.121   6.756
15033TIP3   OH245039   1.386   2.734   0.113
15033TIP3    H145040   1.307   2.776   0.078
15033TIP3    H245041   1.362   2.642   0.125
15034TIP3   OH245042   5.307   7.429   6.374
15034TIP3    H145043   5.310   7.523   6.357
15034TIP3    H245044   5.394   7.398   6.350
15035TIP3   OH245045   1.142   3.066   1.015
15035TIP3    H145046   1.073   3.028   0.960
15035TIP3    H245047   1.178   2.991   1.063
15036TIP3   OH245048   0.981   3.297   0.673
15036TIP3    H145049   1.069   3.300   0.709
15036TIP3    H245050   0.943   3.383   0.694
15037TIP3   OH245051   4.553   7.778   6.775
15037TIP3    H145052   4.470   7.733   6.792
15037TIP3    H245053   4.547   7.859   6.825
15038TIP3   OH245054   1.163   3.510   0.197
15038TIP3    H145055   1.212   3.497   0.278
15038TIP3    H245056   1.113   3.429   0.186
15039TIP3   OH245057   4.817   7.672   6.454
15039TIP3    H145058   4.866   7.604   6.408
15039TIP3    H245059   4.859   7.679   6.539
15040TIP3   OH245060   4.822   7.724   6.727
15040TIP3    H145061   4.739   7.706   6.771
15040TIP3    H245062   4.888   7.677   6.779
15041TIP3   OH245063   1.314   3.332   1.080
15041TIP3    H145064   1.407   3.350   1.094
15041TIP3    H245065   1.295   3.258   1.138
15042TIP3   OH245066   1.744   2.117   0.821
15042TIP3    H145067   1.659   2.089   0.786
15042TIP3    H245068   1.725   2.199   0.866
15043TIP3   OH245069   2.244   2.245   1.011
15043TIP3    H145070   2.317   2.203   1.057
15043TIP3    H245071   2.166   2.202   1.046
15044TIP3   OH245072   2.435   2.652   0.948
15044TIP3    H145073   2.435   2.675   1.041
15044TIP3    H245074   2.395   2.728   0.905
15045TIP3   OH245075   5.058   6.828   6.502
15045TIP3    H145076   5.017   6.818   6.416
15045TIP3    H245077   5.139   6.876   6.485
15046TIP3   OH245078   4.762   6.227   6.815
15046TIP3    H145079   4.729   6.231   6.905
15046TIP3    H245080   4.726   6.145   6.781
15047TIP3   OH245081   1.674   2.623   0.811
15047TIP3    H145082   1.666   2.657   0.900
15047TIP3    H245083   1.648   2.696   0.755
15048TIP3   OH245084   1.560   2.527   0.352
15048TIP3    H145085   1.471   2.500   0.376
15048TIP3    H245086   1.572   2.492   0.263
15049TIP3   OH245087   2.033   2.599   0.047
15049TIP3    H145088   1.982   2.669   0.006
15049TIP3    H245089   2.095   2.572  -0.020
15050TIP3   OH245090   2.236   2.913   1.191
15050TIP3    H145091   2.193   2.862   1.259
15050TIP3    H245092   2.328   2.916   1.217
15051TIP3   OH245093   2.165   2.586   0.283
15051TIP3    H145094   2.114   2.604   0.204
15051TIP3    H245095   2.230   2.521   0.256
15052TIP3   OH245096   1.455   2.602   1.030
15052TIP3    H145097   1.471   2.669   1.097
15052TIP3    H245098   1.466   2.519   1.076
15053TIP3   OH245099   4.430   6.208   6.789
15053TIP3    H145100   4.420   6.207   6.884
15053TIP3    H245101   4.351   6.251   6.757
15054TIP3   OH245102   1.091   2.218   0.612
15054TIP3    H145103   1.168   2.229   0.668
15054TIP3    H245104   1.121   2.160   0.542
15055TIP3   OH245105   1.064   2.184   0.161
15055TIP3    H145106   1.084   2.209   0.071
15055TIP3    H245107   1.051   2.267   0.207
15056TIP3   OH245108   2.356   2.824   0.703
15056TIP3    H145109   2.331   2.822   0.611
15056TIP3    H245110   2.274   2.804   0.750
15057TIP3   OH245111   1.924   2.345   0.409
15057TIP3    H145112   1.855   2.360   0.473
15057TIP3    H245113   2.000   2.319   0.462
15058TIP3   OH245114   1.326   2.391   0.410
15058TIP3    H145115   1.245   2.378   0.360
15058TIP3    H245116   1.372   2.308   0.403
15059TIP3   OH245117   1.577   2.410   0.107
15059TIP3    H145118   1.672   2.421   0.098
15059TIP3    H245119   1.542   2.430   0.020
15060TIP3   OH245120   2.392   2.326   0.549
15060TIP3    H145121   2.396   2.320   0.645
15060TIP3    H245122   2.334   2.255   0.524
15061TIP3   OH245123   4.324   6.501   6.885
15061TIP3    H145124   4.263   6.448   6.833
15061TIP3    H245125   4.381   6.543   6.821
15062TIP3   OH245126   1.519   3.198   1.212
15062TIP3    H145127   1.603   3.192   1.258
15062TIP3    H245128   1.454   3.205   1.281
15063TIP3   OH245129   1.954   2.664   0.445
15063TIP3    H145130   2.021   2.616   0.395
15063TIP3    H245131   1.930   2.604   0.516
15064TIP3   OH245132   1.473   2.156   0.395
15064TIP3    H145133   1.443   2.082   0.448
15064TIP3    H245134   1.508   2.116   0.316
15065TIP3   OH245135   1.878   2.508   0.658
15065TIP3    H145136   1.808   2.541   0.714
15065TIP3    H245137   1.948   2.484   0.719
15066TIP3   OH245138   4.541   7.022   6.906
15066TIP3    H145139   4.469   6.960   6.889
15066TIP3    H245140   4.524   7.055   6.994
15067TIP3   OH245141   2.586   3.207   0.473
15067TIP3    H145142   2.556   3.298   0.473
15067TIP3    H245143   2.507   3.155   0.487
15068TIP3   OH245144   5.015   6.325   6.807
15068TIP3    H145145   4.921   6.306   6.804
15068TIP3    H245146   5.020   6.421   6.816
15069TIP3   OH245147   2.139   3.321   0.871
15069TIP3    H145148   2.149   3.262   0.945
15069TIP3    H245149   2.105   3.402   0.909
15070TIP3   OH245150   5.078   6.591   6.863
15070TIP3    H145151   5.173   6.588   6.869
15070TIP3    H245152   5.059   6.670   6.813
15071TIP3   OH245153   1.357   2.944   0.549
15071TIP3    H145154   1.398   2.943   0.462
15071TIP3    H245155   1.421   2.904   0.607
15072TIP3   OH245156   4.703   7.171   6.749
15072TIP3    H145157   4.665   7.259   6.750
15072TIP3    H245158   4.643   7.118   6.801
15073TIP3   OH245159   1.213   2.866   1.188
15073TIP3    H145160   1.190   2.909   1.271
15073TIP3    H245161   1.131   2.827   1.158
15074TIP3   OH245162   1.952   3.104   1.234
15074TIP3    H145163   1.877   3.069   1.185
15074TIP3    H245164   1.973   3.036   1.297
15075TIP3   OH245165   5.501   6.684   6.700
15075TIP3    H145166   5.449   6.633   6.638
15075TIP3    H245167   5.501   6.772   6.664
15076TIP3   OH245168   5.218   7.490   6.646
15076TIP3    H145169   5.192   7.424   6.709
15076TIP3    H245170   5.240   7.440   6.567
15077TIP3   OH245171   2.364   3.049   0.501
15077TIP3    H145172   2.286   3.050   0.557
15077TIP3    H245173   2.330   3.062   0.412
15078TIP3   OH245174   1.480   3.302   0.202
15078TIP3    H145175   1.471   3.369   0.134
15078TIP3    H245176   1.395   3.301   0.246
15079TIP3   OH245177   3.906   6.662   6.933
15079TIP3    H145178   3.961   6.736   6.960
15079TIP3    H245179   3.817   6.695   6.940
15080TIP3   OH245180   1.603   3.068   0.123
15080TIP3    H145181   1.572   3.156   0.146
15080TIP3    H245182   1.572   3.013   0.194
15081TIP3   OH245183   1.752   3.649   0.607
15081TIP3    H145184   1.800   3.713   0.554
15081TIP3    H245185   1.816   3.620   0.673
15082TIP3   OH245186   1.374   3.502   0.026
15082TIP3    H145187   1.286   3.504   0.065
15082TIP3    H245188   1.422   3.571   0.072
15083TIP3   OH245189   2.187   3.249   0.613
15083TIP3    H145190   2.135   3.276   0.689
15083TIP3    H245191   2.271   3.222   0.651
15084TIP3   OH245192   4.979   7.234   6.519
15084TIP3    H145193   5.035   7.195   6.586
15084TIP3    H245194   4.895   7.190   6.529
15085TIP3   OH245195   5.333   7.707   6.337
15085TIP3    H145196   5.376   7.785   6.303
15085TIP3    H245197   5.248   7.738   6.368
15086TIP3   OH245198   1.469   2.374   1.200
15086TIP3    H145199   1.374   2.378   1.216
15086TIP3    H245200   1.503   2.324   1.274
15087TIP3   OH245201   5.152   7.108   6.688
15087TIP3    H145202   5.135   7.075   6.776
15087TIP3    H245203   5.245   7.129   6.687
15088TIP3   OH245204   1.237   3.524   0.779
15088TIP3    H145205   1.237   3.428   0.783
15088TIP3    H245206   1.229   3.551   0.871
15089TIP3   OH245207   4.343   7.195   6.540
15089TIP3    H145208   4.354   7.105   6.510
15089TIP3    H245209   4.326   7.188   6.634
15090TIP3   OH245210   4.293   7.210   6.811
15090TIP3    H145211   4.361   7.179   6.871
15090TIP3    H245212   4.299   7.305   6.814
15091TIP3   OH245213   4.029   6.898   7.014
15091TIP3    H145214   3.968   6.948   7.068
15091TIP3    H245215   4.050   6.956   6.941
15092TIP3   OH245216   2.376   2.401   0.822
15092TIP3    H145217   2.385   2.482   0.872
15092TIP3    H245218   2.347   2.336   0.887
15093TIP3   OH245219   2.194   2.216   0.052
15093TIP3    H145220   2.174   2.230  -0.041
15093TIP3    H245221   2.238   2.296   0.079
15094TIP3   OH245222   4.574   7.411   6.730
15094TIP3    H145223   4.490   7.436   6.769
15094TIP3    H245224   4.561   7.422   6.636
15095TIP3   OH245225   1.853   2.420   0.153
15095TIP3    H145226   1.916   2.483   0.119
15095TIP3    H245227   1.878   2.406   0.244
15096TIP3   OH245228   2.192   2.795   0.948
15096TIP3    H145229   2.216   2.852   1.021
15096TIP3    H245230   2.189   2.708   0.987
15097TIP3   OH245231   2.021   2.121   0.245
15097TIP3    H145232   2.004   2.199   0.297
15097TIP3    H245233   2.089   2.148   0.183
15098TIP3   OH245234   4.320   7.483   6.803
15098TIP3    H145235   4.293   7.553   6.744
15098TIP3    H245236   4.288   7.511   6.889
15099TIP3   OH245237   1.540   2.139   0.046
15099TIP3    H145238   1.531   2.229   0.076
15099TIP3    H245239   1.634   2.121   0.051
15100TIP3   OH245240   2.829   2.674   0.681
15100TIP3    H145241   2.743   2.703   0.712
15100TIP3    H245242   2.850   2.599   0.736
15101TIP3   OH245243   2.370   2.796   0.211
15101TIP3    H145244   2.350   2.719   0.266
15101TIP3    H245245   2.424   2.851   0.267
15102TIP3   OH245246   4.040   7.087   6.804
15102TIP3    H145247   4.111   7.150   6.817
15102TIP3    H245248   4.075   7.025   6.740
15103TIP3   OH245249   3.939   6.383   6.951
15103TIP3    H145250   3.938   6.479   6.946
15103TIP3    H245251   3.894   6.355   6.871
15104TIP3   OH245252   1.478   2.037   0.787
15104TIP3    H145253   1.450   2.003   0.702
15104TIP3    H245254   1.473   1.962   0.845
15105TIP3   OH245255   1.005   3.282   0.179
15105TIP3    H145256   0.966   3.320   0.258
15105TIP3    H245257   0.961   3.327   0.107
15106TIP3   OH245258   4.508   7.392   6.450
15106TIP3    H145259   4.452   7.320   6.480
15106TIP3    H245260   4.579   7.350   6.403
15107TIP3   OH245261   4.938   7.448   6.350
15107TIP3    H145262   4.970   7.384   6.414
15107TIP3    H245263   5.001   7.442   6.278
15108TIP3   OH245264   1.347   3.270   1.406
15108TIP3    H145265   1.414   3.308   1.464
15108TIP3    H245266   1.281   3.235   1.466
15109TIP3   OH245267   4.170   6.897   6.659
15109TIP3    H145268   4.222   6.870   6.736
15109TIP3    H245269   4.235   6.907   6.589
15110TIP3   OH245270   1.900   3.368   1.233
15110TIP3    H145271   1.831   3.381   1.169
15110TIP3    H245272   1.915   3.273   1.234
15111TIP3   OH245273   4.716   7.116   6.481
15111TIP3    H145274   4.702   7.125   6.576
15111TIP3    H245275   4.709   7.021   6.465
15112TIP3   OH245276   1.477   2.981   1.429
15112TIP3    H145277   1.569   2.991   1.402
15112TIP3    H245278   1.476   3.004   1.522
15113TIP3   OH245279   4.346   6.831   6.868
15113TIP3    H145280   4.327   6.800   6.956
15113TIP3    H245281   4.393   6.759   6.826
15114TIP3   OH245282   1.681   2.810   1.022
15114TIP3    H145283   1.612   2.877   1.018
15114TIP3    H245284   1.751   2.845   0.966
15115TIP3   OH245285   4.483   6.645   6.714
15115TIP3    H145286   4.455   6.647   6.623
15115TIP3    H245287   4.579   6.647   6.709
15116TIP3   OH245288   5.282   6.947   6.386
15116TIP3    H145289   5.267   6.904   6.302
15116TIP3    H245290   5.254   7.038   6.373
15117TIP3   OH245291   1.755   2.589   1.173
15117TIP3    H145292   1.832   2.574   1.118
15117TIP3    H245293   1.711   2.664   1.132
15118TIP3   OH245294   1.884   2.357   0.989
15118TIP3    H145295   1.901   2.445   0.956
15118TIP3    H245296   1.788   2.350   0.990
15119TIP3   OH245297   1.886   2.885   0.859
15119TIP3    H145298   1.949   2.856   0.794
15119TIP3    H245299   1.875   2.978   0.843
15120TIP3   OH245300   1.730   2.714   1.417
15120TIP3    H145301   1.667   2.673   1.477
15120TIP3    H245302   1.730   2.658   1.340
15121TIP3   OH245303   2.006   2.135   1.080
15121TIP3    H145304   1.954   2.201   1.032
15121TIP3    H245305   1.946   2.062   1.092
15122TIP3   OH245306   2.196   2.691   1.372
15122TIP3    H145307   2.122   2.657   1.423
15122TIP3    H245308   2.182   2.656   1.284
15123TIP3   OH245309   2.440   2.650   1.219
15123TIP3    H145310   2.434   2.732   1.269
15123TIP3    H245311   2.498   2.595   1.270
15124TIP3   OH245312   1.582   2.498   1.539
15124TIP3    H145313   1.617   2.419   1.498
15124TIP3    H245314   1.613   2.494   1.630
15125TIP3   OH245315   2.119   2.193   1.374
15125TIP3    H145316   2.211   2.178   1.396
15125TIP3    H245317   2.093   2.115   1.325
15126TIP3   OH245318   2.174   2.407   1.556
15126TIP3    H145319   2.180   2.368   1.469
15126TIP3    H245320   2.110   2.478   1.547
15127TIP3   OH245321   4.307   7.695   6.629
15127TIP3    H145322   4.388   7.682   6.579
15127TIP3    H245323   4.249   7.742   6.570
15128TIP3   OH245324   3.765   7.073   6.815
15128TIP3    H145325   3.860   7.086   6.818
15128TIP3    H245326   3.754   6.985   6.781
15129TIP3   OH245327   0.804   3.609   0.269
15129TIP3    H145328   0.740   3.561   0.217
15129TIP3    H245329   0.848   3.542   0.321
15130TIP3   OH245330   0.942   3.419   0.416
15130TIP3    H145331   0.934   3.353   0.484
15130TIP3    H245332   0.995   3.488   0.455
15131TIP3   OH245333   5.423   7.148   6.713
15131TIP3    H145334   5.486   7.210   6.676
15131TIP3    H245335   5.465   7.118   6.794
15132TIP3   OH245336   5.546   7.038   6.926
15132TIP3    H145337   5.481   6.982   6.968
15132TIP3    H245338   5.605   7.063   6.997
15133TIP3   OH245339   5.484   6.922   6.569
15133TIP3    H145340   5.415   6.921   6.503
15133TIP3    H245341   5.464   6.999   6.623
15134TIP3   OH245342   5.347   6.572   6.506
15134TIP3    H145343   5.300   6.608   6.431
15134TIP3    H245344   5.335   6.478   6.500
15135TIP3   OH245345   5.358   6.840   6.999
15135TIP3    H145346   5.359   6.750   6.968
15135TIP3    H245347   5.306   6.837   7.079
15136TIP3   OH245348   1.104   2.861   0.776
15136TIP3    H145349   1.099   2.826   0.687
15136TIP3    H245350   1.195   2.850   0.801
15137TIP3   OH245351   5.302   6.304   6.485
15137TIP3    H145352   5.369   6.274   6.547
15137TIP3    H245353   5.223   6.258   6.512
15138TIP3   OH245354   5.363   6.576   6.918
15138TIP3    H145355   5.400   6.490   6.938
15138TIP3    H245356   5.416   6.608   6.844
15139TIP3   OH245357   2.727   2.617   0.364
15139TIP3    H145358   2.721   2.682   0.294
15139TIP3    H245359   2.723   2.668   0.445
15140TIP3   OH245360   2.622   2.815   0.526
15140TIP3    H145361   2.596   2.843   0.614
15140TIP3    H245362   2.679   2.885   0.495
15141TIP3   OH245363   1.328   2.531   1.442
15141TIP3    H145364   1.420   2.543   1.463
15141TIP3    H245365   1.306   2.445   1.479
15142TIP3   OH245366   5.457   6.327   6.972
15142TIP3    H145367   5.514   6.294   7.042
15142TIP3    H245368   5.389   6.260   6.964
15143TIP3   OH245369   1.296   2.246   0.808
15143TIP3    H145370   1.354   2.169   0.813
15143TIP3    H245371   1.356   2.319   0.791
15144TIP3   OH245372   1.109   2.530   0.866
15144TIP3    H145373   1.154   2.520   0.782
15144TIP3    H245374   1.163   2.592   0.915
15145TIP3   OH245375   5.533   6.254   6.637
15145TIP3    H145376   5.576   6.190   6.580
15145TIP3    H245377   5.592   6.329   6.637
15146TIP3   OH245378   1.087   2.030   0.391
15146TIP3    H145379   1.015   1.967   0.393
15146TIP3    H245380   1.074   2.079   0.310
15147TIP3   OH245381   5.080   7.874   6.870
15147TIP3    H145382   5.128   7.828   6.801
15147TIP3    H245383   5.147   7.904   6.931
15148TIP3   OH245384   1.310   2.105   1.195
15148TIP3    H145385   1.259   2.104   1.276
15148TIP3    H245386   1.250   2.141   1.129
15149TIP3   OH245387   1.409   3.656   1.309
15149TIP3    H145388   1.330   3.604   1.319
15149TIP3    H245389   1.478   3.604   1.352
15150TIP3   OH245390   1.534   3.526   0.748
15150TIP3    H145391   1.448   3.549   0.712
15150TIP3    H245392   1.596   3.575   0.695
15151TIP3   OH245393   2.896   2.297   1.053
15151TIP3    H145394   2.878   2.325   0.963
15151TIP3    H245395   2.992   2.287   1.056
15152TIP3   OH245396   1.289   3.845   0.883
15152TIP3    H145397   1.242   3.925   0.858
15152TIP3    H245398   1.270   3.834   0.976
15153TIP3   OH245399   1.376   3.685   0.587
15153TIP3    H145400   1.356   3.748   0.656
15153TIP3    H245401   1.444   3.727   0.535
15154TIP3   OH245402   1.846   3.876   0.460
15154TIP3    H145403   1.797   3.957   0.448
15154TIP3    H245404   1.898   3.892   0.540
15155TIP3   OH245405   1.104   3.603   0.552
15155TIP3    H145406   1.139   3.596   0.641
15155TIP3    H245407   1.175   3.573   0.496
15156TIP3   OH245408   1.303   3.457   0.421
15156TIP3    H145409   1.309   3.379   0.477
15156TIP3    H245410   1.376   3.512   0.449
15157TIP3   OH245411   1.580   3.533   0.434
15157TIP3    H145412   1.600   3.440   0.443
15157TIP3    H245413   1.645   3.577   0.490
15158TIP3   OH245414   2.125   2.203   0.531
15158TIP3    H145415   2.085   2.138   0.589
15158TIP3    H245416   2.183   2.153   0.474
15159TIP3   OH245417   2.647   2.127   0.404
15159TIP3    H145418   2.714   2.195   0.398
15159TIP3    H245419   2.574   2.169   0.449
15160TIP3   OH245420   2.750   2.153   0.128
15160TIP3    H145421   2.833   2.116   0.098
15160TIP3    H245422   2.776   2.219   0.193
15161TIP3   OH245423   1.386   1.937   0.546
15161TIP3    H145424   1.297   1.903   0.543
15161TIP3    H245425   1.441   1.859   0.539
15162TIP3   OH245426   1.237   1.835   0.203
15162TIP3    H145427   1.252   1.877   0.118
15162TIP3    H245428   1.197   1.904   0.256
15163TIP3   OH245429   1.864   1.982   0.434
15163TIP3    H145430   1.914   2.028   0.367
15163TIP3    H245431   1.903   2.008   0.517
15164TIP3   OH245432   2.335   2.090   0.396
15164TIP3    H145433   2.392   2.069   0.322
15164TIP3    H245434   2.348   2.017   0.457
15165TIP3   OH245435   5.277   6.118   6.986
15165TIP3    H145436   5.198   6.163   7.015
15165TIP3    H245437   5.273   6.032   7.028
15166TIP3   OH245438   3.760   7.466   6.989
15166TIP3    H145439   3.676   7.434   6.958
15166TIP3    H245440   3.768   7.554   6.953
15167TIP3   OH245441   4.194   6.029   6.984
15167TIP3    H145442   4.237   5.968   6.925
15167TIP3    H245443   4.265   6.083   7.019
15168TIP3   OH245444   1.814   2.167   0.058
15168TIP3    H145445   1.873   2.115   0.112
15168TIP3    H245446   1.827   2.257   0.087
15169TIP3   OH245447   4.558   7.652   6.502
15169TIP3    H145448   4.647   7.645   6.469
15169TIP3    H245449   4.518   7.568   6.482
15170TIP3   OH245450   5.238   7.762   6.668
15170TIP3    H145451   5.233   7.667   6.665
15170TIP3    H245452   5.201   7.790   6.583
15171TIP3   OH245453   1.579   2.212   1.419
15171TIP3    H145454   1.553   2.141   1.476
15171TIP3    H245455   1.675   2.214   1.424
15172TIP3   OH245456   1.832   2.120   1.478
15172TIP3    H145457   1.905   2.114   1.416
15172TIP3    H245458   1.857   2.060   1.549
15173TIP3   OH245459   3.864   7.467   6.630
15173TIP3    H145460   3.862   7.483   6.724
15173TIP3    H245461   3.946   7.421   6.614
15174TIP3   OH245462   2.606   2.389   1.335
15174TIP3    H145463   2.652   2.322   1.386
15174TIP3    H245464   2.662   2.403   1.258
15175TIP3   OH245465   5.709   6.807   6.854
15175TIP3    H145466   5.693   6.901   6.860
15175TIP3    H245467   5.632   6.772   6.811
15176TIP3   OH245468   5.848   7.083   6.868
15176TIP3    H145469   5.886   7.114   6.950
15176TIP3    H245470   5.922   7.052   6.817
15177TIP3   OH245471   6.385   6.603   6.868
15177TIP3    H145472   6.335   6.684   6.861
15177TIP3    H245473   6.318   6.535   6.878
15178TIP3   OH245474   3.086   2.829   0.116
15178TIP3    H145475   3.132   2.913   0.112
15178TIP3    H245476   3.137   2.771   0.060
15179TIP3   OH245477   3.366   2.745   0.214
15179TIP3    H145478   3.335   2.819   0.266
15179TIP3    H245479   3.458   2.737   0.239
15180TIP3   OH245480   5.610   7.304   6.590
15180TIP3    H145481   5.575   7.320   6.503
15180TIP3    H245482   5.629   7.392   6.625
15181TIP3   OH245483   3.881   2.403   0.175
15181TIP3    H145484   3.890   2.340   0.246
15181TIP3    H245485   3.810   2.368   0.120
15182TIP3   OH245486   6.596   7.176   6.460
15182TIP3    H145487   6.506   7.202   6.439
15182TIP3    H245488   6.638   7.166   6.375
15183TIP3   OH245489   6.549   6.926   6.145
15183TIP3    H145490   6.609   6.981   6.196
15183TIP3    H245491   6.606   6.864   6.101
15184TIP3   OH245492   6.218   7.223   6.690
15184TIP3    H145493   6.159   7.152   6.666
15184TIP3    H245494   6.223   7.219   6.786
15185TIP3   OH245495   6.747   7.098   6.242
15185TIP3    H145496   6.817   7.044   6.277
15185TIP3    H245497   6.769   7.111   6.150
15186TIP3   OH245498   7.291   6.311   6.313
15186TIP3    H145499   7.214   6.333   6.365
15186TIP3    H245500   7.302   6.386   6.254
15187TIP3   OH245501   6.041   7.020   6.610
15187TIP3    H145502   5.955   7.052   6.583
15187TIP3    H245503   6.023   6.936   6.651
15188TIP3   OH245504   3.578   2.456   0.178
15188TIP3    H145505   3.494   2.439   0.219
15188TIP3    H245506   3.612   2.535   0.221
15189TIP3   OH245507   6.828   7.100   5.984
15189TIP3    H145508   6.796   7.074   5.898
15189TIP3    H245509   6.917   7.131   5.969
15190TIP3   OH245510   6.552   6.469   6.300
15190TIP3    H145511   6.523   6.470   6.391
15190TIP3    H245512   6.513   6.391   6.262
15191TIP3   OH245513   6.304   6.871   6.837
15191TIP3    H145514   6.225   6.874   6.890
15191TIP3    H245515   6.274   6.841   6.751
15192TIP3   OH245516   6.694   6.919   6.513
15192TIP3    H145517   6.660   7.008   6.504
15192TIP3    H245518   6.766   6.914   6.450
15193TIP3   OH245519   6.219   6.461   6.276
15193TIP3    H145520   6.215   6.460   6.372
15193TIP3    H245521   6.143   6.512   6.250
15194TIP3   OH245522   2.988   2.336   0.083
15194TIP3    H145523   2.978   2.430   0.063
15194TIP3    H245524   2.952   2.292   0.006
15195TIP3   OH245525   5.697   6.485   6.651
15195TIP3    H145526   5.744   6.515   6.573
15195TIP3    H245527   5.643   6.558   6.677
15196TIP3   OH245528   6.641   6.633   6.944
15196TIP3    H145529   6.555   6.599   6.919
15196TIP3    H245530   6.623   6.698   7.012
15197TIP3   OH245531   5.972   6.803   6.763
15197TIP3    H145532   5.881   6.794   6.792
15197TIP3    H245533   6.022   6.749   6.825
15198TIP3   OH245534   6.246   6.721   6.608
15198TIP3    H145535   6.339   6.726   6.584
15198TIP3    H245536   6.199   6.745   6.529
15199TIP3   OH245537   6.120   6.760   6.371
15199TIP3    H145538   6.054   6.710   6.323
15199TIP3    H245539   6.176   6.797   6.302
15200TIP3   OH245540   6.149   6.458   6.860
15200TIP3    H145541   6.110   6.377   6.895
15200TIP3    H245542   6.145   6.447   6.765
15201TIP3   OH245543   6.322   7.277   6.434
15201TIP3    H145544   6.271   7.206   6.396
15201TIP3    H245545   6.300   7.276   6.527
15202TIP3   OH245546   6.794   6.593   6.290
15202TIP3    H145547   6.706   6.556   6.291
15202TIP3    H245548   6.780   6.687   6.276
15203TIP3   OH245549   6.910   6.875   6.312
15203TIP3    H145550   6.973   6.828   6.367
15203TIP3    H245551   6.945   6.869   6.224
15204TIP3   OH245552   6.389   7.480   6.251
15204TIP3    H145553   6.480   7.508   6.260
15204TIP3    H245554   6.379   7.411   6.317
15205TIP3   OH245555   5.719   6.899   6.428
15205TIP3    H145556   5.766   6.980   6.449
15205TIP3    H245557   5.639   6.903   6.481
15206TIP3   OH245558   6.748   7.491   5.985
15206TIP3    H145559   6.798   7.443   6.051
15206TIP3    H245560   6.663   7.448   5.982
15207TIP3   OH245561   6.162   7.463   6.046
15207TIP3    H145562   6.196   7.433   5.962
15207TIP3    H245563   6.095   7.398   6.069
15208TIP3   OH245564   6.105   7.462   6.341
15208TIP3    H145565   6.130   7.379   6.382
15208TIP3    H245566   6.059   7.510   6.410
15209TIP3   OH245567   5.819   7.148   6.498
15209TIP3    H145568   5.754   7.185   6.557
15209TIP3    H245569   5.831   7.214   6.430
15210TIP3   OH245570   6.877   6.568   6.553
15210TIP3    H145571   6.848   6.573   6.461
15210TIP3    H245572   6.853   6.653   6.590
15211TIP3   OH245573   6.526   6.726   6.622
15211TIP3    H145574   6.591   6.791   6.594
15211TIP3    H245575   6.520   6.739   6.717
15212TIP3   OH245576   6.726   6.446   6.750
15212TIP3    H145577   6.722   6.514   6.818
15212TIP3    H245578   6.784   6.483   6.683
15213TIP3   OH245579   6.170   7.735   6.270
15213TIP3    H145580   6.155   7.806   6.209
15213TIP3    H245581   6.150   7.773   6.356
15214TIP3   OH245582   6.197   6.451   6.560
15214TIP3    H145583   6.191   6.544   6.584
15214TIP3    H245584   6.290   6.431   6.566
15215TIP3   OH245585   5.827   7.345   6.293
15215TIP3    H145586   5.863   7.432   6.274
15215TIP3    H245587   5.876   7.286   6.235
15216TIP3   OH245588   5.754   6.623   6.419
15216TIP3    H145589   5.764   6.717   6.430
15216TIP3    H245590   5.676   6.613   6.364
15217TIP3   OH245591   3.390   2.391   0.387
15217TIP3    H145592   3.333   2.406   0.311
15217TIP3    H245593   3.359   2.308   0.423
15218TIP3   OH245594   5.645   7.564   6.656
15218TIP3    H145595   5.580   7.611   6.708
15218TIP3    H245596   5.648   7.612   6.573
15219TIP3   OH245597   6.691   7.712   5.822
15219TIP3    H145598   6.730   7.654   5.887
15219TIP3    H245599   6.752   7.708   5.747
15220TIP3   OH245600   5.985   7.176   6.151
15220TIP3    H145601   6.030   7.135   6.225
15220TIP3    H245602   6.046   7.170   6.078
15221TIP3   OH245603   6.497   7.374   5.980
15221TIP3    H145604   6.434   7.375   6.051
15221TIP3    H245605   6.502   7.282   5.954
15222TIP3   OH245606   6.148   7.081   6.358
15222TIP3    H145607   6.113   7.045   6.439
15222TIP3    H245608   6.189   7.007   6.314
15223TIP3   OH245609   6.277   6.898   6.194
15223TIP3    H145610   6.249   6.902   6.103
15223TIP3    H245611   6.373   6.899   6.190
15224TIP3   OH245612   7.065   7.193   5.890
15224TIP3    H145613   7.063   7.150   5.805
15224TIP3    H245614   7.044   7.284   5.872
15225TIP3   OH245615   6.141   7.942   6.105
15225TIP3    H145616   6.191   8.021   6.125
15225TIP3    H245617   6.088   7.966   6.029
15226TIP3   OH245618   5.555   7.325   6.308
15226TIP3    H145619   5.650   7.337   6.307
15226TIP3    H245620   5.542   7.237   6.272
15227TIP3   OH245621   5.507   7.840   6.651
15227TIP3    H145622   5.413   7.821   6.647
15227TIP3    H245623   5.523   7.863   6.742
15228TIP3   OH245624   7.026   6.844   6.063
15228TIP3    H145625   7.068   6.903   6.001
15228TIP3    H245626   7.055   6.757   6.036
15229TIP3   OH245627   3.057   3.064   0.339
15229TIP3    H145628   2.985   3.056   0.276
15229TIP3    H245629   3.132   3.092   0.287
15230TIP3   OH245630   7.094   6.584   6.002
15230TIP3    H145631   7.161   6.535   6.049
15230TIP3    H245632   7.015   6.531   6.007
15231TIP3   OH245633   7.285   6.574   6.565
15231TIP3    H145634   7.345   6.514   6.610
15231TIP3    H245635   7.215   6.518   6.531
15232TIP3   OH245636   3.246   2.471   0.176
15232TIP3    H145637   3.154   2.445   0.164
15232TIP3    H245638   3.242   2.564   0.195
15233TIP3   OH245639   2.950   2.809   0.400
15233TIP3    H145640   3.019   2.857   0.354
15233TIP3    H245641   2.889   2.877   0.429
15234TIP3   OH245642   7.346   6.495   6.112
15234TIP3    H145643   7.381   6.430   6.051
15234TIP3    H245644   7.376   6.579   6.076
15235TIP3   OH245645   5.734   6.318   6.865
15235TIP3    H145646   5.641   6.309   6.887
15235TIP3    H245647   5.737   6.386   6.798
15236TIP3   OH245648   3.163   2.374   0.605
15236TIP3    H145649   3.201   2.448   0.653
15236TIP3    H245650   3.073   2.402   0.586
15237TIP3   OH245651   6.040   6.206   6.902
15237TIP3    H145652   5.951   6.191   6.933
15237TIP3    H245653   6.093   6.143   6.950
15238TIP3   OH245654   5.839   6.133   6.674
15238TIP3    H145655   5.885   6.188   6.610
15238TIP3    H245656   5.815   6.193   6.745
15239TIP3   OH245657   6.507   6.326   6.851
15239TIP3    H145658   6.588   6.368   6.820
15239TIP3    H245659   6.517   6.321   6.946
15240TIP3   OH245660   7.086   6.391   6.482
15240TIP3    H145661   7.012   6.445   6.509
15240TIP3    H245662   7.067   6.304   6.517
15241TIP3   OH245663   5.598   7.707   6.424
15241TIP3    H145664   5.511   7.685   6.391
15241TIP3    H245665   5.582   7.775   6.490
15242TIP3   OH245666   5.981   6.290   6.474
15242TIP3    H145667   6.030   6.228   6.420
15242TIP3    H245668   6.048   6.346   6.512
15243TIP3   OH245669   6.474   6.462   6.567
15243TIP3    H145670   6.502   6.411   6.643
15243TIP3    H245671   6.495   6.552   6.589
15244TIP3   OH245672   5.655   7.733   6.124
15244TIP3    H145673   5.643   7.743   6.219
15244TIP3    H245674   5.735   7.681   6.116
15245TIP3   OH245675   7.648   6.395   6.173
15245TIP3    H145676   7.687   6.436   6.096
15245TIP3    H245677   7.588   6.460   6.208
15246TIP3   OH245678   7.761   6.539   5.955
15246TIP3    H145679   7.800   6.475   5.896
15246TIP3    H245680   7.835   6.596   5.981
15247TIP3   OH245681   0.192   3.985   0.280
15247TIP3    H145682   0.246   3.998   0.358
15247TIP3    H245683   0.240   4.031   0.210
15248TIP3   OH245684   5.478   0.124   6.803
15248TIP3    H145685   5.539   0.166   6.863
15248TIP3    H245686   5.530   0.057   6.758
15249TIP3   OH245687   5.705   0.254   6.910
15249TIP3    H145688   5.702   0.341   6.950
15249TIP3    H245689   5.726   0.271   6.818
15250TIP3   OH245690   3.330   7.607   6.961
15250TIP3    H145691   3.255   7.627   7.016
15250TIP3    H245692   3.344   7.687   6.909
15251TIP3   OH245693   5.759   0.299   6.645
15251TIP3    H145694   5.733   0.250   6.567
15251TIP3    H245695   5.850   0.324   6.628
15252TIP3   OH245696   2.603   7.778   6.976
15252TIP3    H145697   2.567   7.782   7.064
15252TIP3    H245698   2.561   7.703   6.935
15253TIP3   OH245699   2.272   7.770   6.937
15253TIP3    H145700   2.259   7.762   7.032
15253TIP3    H245701   2.197   7.821   6.907
15254TIP3   OH245702   2.862   7.857   6.945
15254TIP3    H145703   2.767   7.848   6.953
15254TIP3    H245704   2.878   7.951   6.948
15255TIP3   OH245705   5.810   0.005   6.972
15255TIP3    H145706   5.898   0.016   7.007
15255TIP3    H245707   5.778   0.094   6.958
15256TIP3   OH245708   6.212   0.137   6.856
15256TIP3    H145709   6.157   0.088   6.795
15256TIP3    H245710   6.216   0.225   6.820
15257TIP3   OH245711   0.055   3.769   0.190
15257TIP3    H145712   0.035   3.784   0.097
15257TIP3    H245713   0.096   3.850   0.219
15258TIP3   OH245714   8.492   3.664   0.378
15258TIP3    H145715   8.523   3.705   0.459
15258TIP3    H245716   8.549   3.698   0.310
15259TIP3   OH245717   7.994   3.658   0.186
15259TIP3    H145718   7.974   3.728   0.247
15259TIP3    H245719   8.089   3.646   0.192
15260TIP3   OH245720   5.222   0.033   6.873
15260TIP3    H145721   5.173   0.053   6.794
15260TIP3    H245722   5.310   0.069   6.857
15261TIP3   OH245723   5.991   0.408   6.556
15261TIP3    H145724   5.988   0.369   6.469
15261TIP3    H245725   5.994   0.503   6.540
15262TIP3   OH245726   6.204   0.381   6.726
15262TIP3    H145727   6.131   0.379   6.664
15262TIP3    H245728   6.201   0.469   6.763
15263TIP3   OH245729   6.061   0.021   6.656
15263TIP3    H145730   6.017   0.051   6.577
15263TIP3    H245731   6.050  -0.074   6.655
15264TIP3   OH245732   3.147   7.857   6.632
15264TIP3    H145733   3.212   7.832   6.698
15264TIP3    H245734   3.067   7.813   6.660
15265TIP3   OH245735   0.340   4.070   0.057
15265TIP3    H145736   0.389   3.990   0.075
15265TIP3    H245737   0.393   4.116  -0.009
15266TIP3   OH245738   0.461   3.832   0.130
15266TIP3    H145739   0.507   3.819   0.213
15266TIP3    H245740   0.400   3.758   0.125
15267TIP3   OH245741   3.376   7.815   6.785
15267TIP3    H145742   3.424   7.753   6.730
15267TIP3    H245743   3.435   7.889   6.795
15268TIP3   OH245744   0.513   3.692   0.586
15268TIP3    H145745   0.553   3.746   0.519
15268TIP3    H245746   0.420   3.717   0.585
15269TIP3   OH245747   0.621   3.795   0.353
15269TIP3    H145748   0.687   3.730   0.331
15269TIP3    H245749   0.661   3.879   0.330
15270TIP3   OH245750   7.698   3.382   0.331
15270TIP3    H145751   7.707   3.419   0.243
15270TIP3    H245752   7.690   3.457   0.389
15271TIP3   OH245753   0.237   3.698   0.549
15271TIP3    H145754   0.235   3.656   0.463
15271TIP3    H245755   0.218   3.627   0.611
15272TIP3   OH245756   0.279   3.619   0.130
15272TIP3    H145757   0.198   3.668   0.145
15272TIP3    H245758   0.263   3.534   0.170
15273TIP3   OH245759   7.776   3.511   0.091
15273TIP3    H145760   7.813   3.458   0.021
15273TIP3    H245761   7.850   3.561   0.125
15274TIP3   OH245762   8.263   3.731   0.226
15274TIP3    H145763   8.333   3.689   0.278
15274TIP3    H245764   8.279   3.825   0.236
15275TIP3   OH245765   7.477   0.711   6.769
15275TIP3    H145766   7.468   0.797   6.727
15275TIP3    H245767   7.416   0.655   6.720
15276TIP3   OH245768   0.696   4.284  -0.004
15276TIP3    H145769   0.661   4.326   0.074
15276TIP3    H245770   0.619   4.249  -0.049
15277TIP3   OH245771   1.282   4.102   0.113
15277TIP3    H145772   1.252   4.186   0.079
15277TIP3    H245773   1.226   4.038   0.070
15278TIP3   OH245774   7.754   0.132   6.781
15278TIP3    H145775   7.759   0.152   6.874
15278TIP3    H245776   7.797   0.206   6.738
15279TIP3   OH245777   0.917   4.425   0.237
15279TIP3    H145778   0.996   4.397   0.282
15279TIP3    H245779   0.908   4.364   0.163
15280TIP3   OH245780   1.384   4.553  -0.002
15280TIP3    H145781   1.478   4.537  -0.006
15280TIP3    H245782   1.346   4.466   0.009
15281TIP3   OH245783   1.133   4.124   0.635
15281TIP3    H145784   1.135   4.075   0.552
15281TIP3    H245785   1.202   4.189   0.626
15282TIP3   OH245786   7.435   0.939   6.637
15282TIP3    H145787   7.362   0.961   6.578
15282TIP3    H245788   7.449   1.019   6.688
15283TIP3   OH245789   1.173   4.345   0.310
15283TIP3    H145790   1.174   4.440   0.300
15283TIP3    H245791   1.262   4.317   0.289
15284TIP3   OH245792   1.603   3.917   0.214
15284TIP3    H145793   1.613   3.838   0.266
15284TIP3    H245794   1.543   3.972   0.265
15285TIP3   OH245795   7.310   0.590   6.587
15285TIP3    H145796   7.224   0.632   6.589
15285TIP3    H245797   7.334   0.589   6.494
15286TIP3   OH245798   7.262   0.353   6.325
15286TIP3    H145799   7.331   0.399   6.373
15286TIP3    H245800   7.310   0.295   6.265
15287TIP3   OH245801   7.668   0.640   6.567
15287TIP3    H145802   7.619   0.666   6.644
15287TIP3    H245803   7.751   0.607   6.602
15288TIP3   OH245804   6.886   0.626   6.964
15288TIP3    H145805   6.837   0.567   6.906
15288TIP3    H245806   6.970   0.582   6.978
15289TIP3   OH245807   7.497   0.492   6.397
15289TIP3    H145808   7.558   0.547   6.446
15289TIP3    H245809   7.524   0.503   6.306
15290TIP3   OH245810   5.123   7.865   6.438
15290TIP3    H145811   5.045   7.892   6.486
15290TIP3    H245812   5.145   7.942   6.384
15291TIP3   OH245813   6.747   0.455   6.791
15291TIP3    H145814   6.667   0.500   6.764
15291TIP3    H245815   6.716   0.373   6.828
15292TIP3   OH245816   1.439   4.073   0.358
15292TIP3    H145817   1.366   4.044   0.304
15292TIP3    H245818   1.417   4.044   0.446
15293TIP3   OH245819   7.577   0.503   6.139
15293TIP3    H145820   7.526   0.511   6.059
15293TIP3    H245821   7.657   0.552   6.121
15294TIP3   OH245822   4.476   7.932   6.503
15294TIP3    H145823   4.425   7.991   6.558
15294TIP3    H245824   4.413   7.897   6.440
15295TIP3   OH245825   6.945   0.278   7.005
15295TIP3    H145826   6.853   0.266   7.030
15295TIP3    H245827   6.951   0.246   6.916
15296TIP3   OH245828   7.443   0.394   6.714
15296TIP3    H145829   7.391   0.452   6.658
15296TIP3    H245830   7.489   0.337   6.653
15297TIP3   OH245831   7.679   0.438   6.875
15297TIP3    H145832   7.613   0.454   6.808
15297TIP3    H245833   7.654   0.355   6.914
15298TIP3   OH245834   4.077   8.028   6.426
15298TIP3    H145835   4.067   8.027   6.521
15298TIP3    H245836   3.996   8.068   6.394
15299TIP3   OH245837   0.749   4.012   0.251
15299TIP3    H145838   0.727   4.095   0.293
15299TIP3    H245839   0.842   4.022   0.227
15300TIP3   OH245840   3.538   8.046   6.807
15300TIP3    H145841   3.580   8.078   6.727
15300TIP3    H245842   3.478   8.116   6.833
15301TIP3   OH245843   1.528   4.168   0.014
15301TIP3    H145844   1.450   4.121   0.043
15301TIP3    H245845   1.599   4.131   0.065
15302TIP3   OH245846   0.962   4.228   0.012
15302TIP3    H145847   0.867   4.238  -0.001
15302TIP3    H245848   0.978   4.135   0.001
15303TIP3   OH245849   6.959   0.166   6.758
15303TIP3    H145850   7.049   0.189   6.737
15303TIP3    H245851   6.909   0.186   6.679
15304TIP3   OH245852   6.817   0.196   6.528
15304TIP3    H145853   6.754   0.146   6.476
15304TIP3    H245854   6.874   0.238   6.464
15305TIP3   OH245855   1.682   4.415   0.164
15305TIP3    H145856   1.689   4.473   0.088
15305TIP3    H245857   1.735   4.459   0.231
15306TIP3   OH245858   3.953   8.006   7.019
15306TIP3    H145859   3.922   7.937   7.077
15306TIP3    H245860   3.973   7.962   6.936
15307TIP3   OH245861   7.072   0.718   6.598
15307TIP3    H145862   7.013   0.643   6.600
15307TIP3    H245863   7.046   0.770   6.675
15308TIP3   OH245864   7.583   0.254   6.521
15308TIP3    H145865   7.678   0.256   6.529
15308TIP3    H245866   7.562   0.323   6.458
15309TIP3   OH245867   7.200   0.871   6.405
15309TIP3    H145868   7.173   0.961   6.427
15309TIP3    H245869   7.157   0.817   6.472
15310TIP3   OH245870   8.009   0.382   6.336
15310TIP3    H145871   7.951   0.347   6.269
15310TIP3    H245872   8.025   0.473   6.309
15311TIP3   OH245873   6.439   0.348   6.582
15311TIP3    H145874   6.485   0.426   6.610
15311TIP3    H245875   6.355   0.352   6.628
15312TIP3   OH245876   6.974   0.840   6.819
15312TIP3    H145877   7.024   0.904   6.869
15312TIP3    H245878   6.941   0.778   6.884
15313TIP3   OH245879   7.440   0.884   6.209
15313TIP3    H145880   7.502   0.852   6.274
15313TIP3    H245881   7.356   0.846   6.236
15314TIP3   OH245882   7.653   0.846   6.381
15314TIP3    H145883   7.658   0.779   6.449
15314TIP3    H245884   7.740   0.846   6.341
15315TIP3   OH245885   6.791   0.800   6.131
15315TIP3    H145886   6.837   0.808   6.048
15315TIP3    H245887   6.858   0.770   6.193
15316TIP3   OH245888   6.896   1.001   6.400
15316TIP3    H145889   6.859   0.974   6.484
15316TIP3    H245890   6.898   1.097   6.405
15317TIP3   OH245891   6.525   0.592   6.701
15317TIP3    H145892   6.486   0.653   6.764
15317TIP3    H245893   6.530   0.641   6.619
15318TIP3   OH245894   7.560  -0.001   6.654
15318TIP3    H145895   7.536   0.063   6.587
15318TIP3    H245896   7.623   0.044   6.710
15319TIP3   OH245897   7.241   0.195   6.771
15319TIP3    H145898   7.314   0.255   6.757
15319TIP3    H245899   7.247   0.171   6.864
15320TIP3   OH245900   4.545   8.027   6.870
15320TIP3    H145901   4.583   8.070   6.947
15320TIP3    H245902   4.592   8.066   6.796
15321TIP3   OH245903   4.045   8.002   6.705
15321TIP3    H145904   4.032   8.092   6.737
15321TIP3    H245905   4.139   7.989   6.708
15322TIP3   OH245906   6.531   0.739   6.475
15322TIP3    H145907   6.534   0.835   6.465
15322TIP3    H245908   6.564   0.705   6.393
15323TIP3   OH245909   6.469   0.072   6.577
15323TIP3    H145910   6.481   0.166   6.588
15323TIP3    H245911   6.414   0.064   6.499
15324TIP3   OH245912   1.143   3.875   0.498
15324TIP3    H145913   1.182   3.869   0.411
15324TIP3    H245914   1.123   3.784   0.521
15325TIP3   OH245915   6.677   0.589   6.277
15325TIP3    H145916   6.753   0.584   6.336
15325TIP3    H245917   6.705   0.650   6.209
15326TIP3   OH245918   7.127   0.815   6.142
15326TIP3    H145919   7.135   0.831   6.236
15326TIP3    H245920   7.096   0.725   6.135
15327TIP3   OH245921   6.901   0.515   6.562
15327TIP3    H145922   6.850   0.476   6.634
15327TIP3    H245923   6.918   0.442   6.503
15328TIP3   OH245924   6.986   0.332   6.365
15328TIP3    H145925   6.956   0.320   6.275
15328TIP3    H245926   7.081   0.337   6.358
15329TIP3   OH245927   7.794   0.655   6.055
15329TIP3    H145928   7.779   0.617   5.968
15329TIP3    H245929   7.798   0.749   6.039
15330TIP3   OH245930   1.631   4.199   0.664
15330TIP3    H145931   1.649   4.288   0.634
15330TIP3    H245932   1.537   4.197   0.679
15331TIP3   OH245933   1.692   3.932   0.713
15331TIP3    H145934   1.662   4.023   0.714
15331TIP3    H245935   1.640   3.889   0.782
15332TIP3   OH245936   6.253   0.733   6.484
15332TIP3    H145937   6.346   0.742   6.504
15332TIP3    H245938   6.243   0.641   6.461
15333TIP3   OH245939   8.016   0.636   6.217
15333TIP3    H145940   7.941   0.630   6.158
15333TIP3    H245941   8.004   0.719   6.263
15334TIP3   OH245942   7.843   0.287   6.141
15334TIP3    H145943   7.789   0.309   6.065
15334TIP3    H245944   7.830   0.193   6.154
15335TIP3   OH245945   4.935   8.124   6.165
15335TIP3    H145946   5.022   8.110   6.201
15335TIP3    H245947   4.889   8.042   6.182
15336TIP3   OH245948   7.859   0.276   6.549
15336TIP3    H145949   7.907   0.194   6.563
15336TIP3    H245950   7.913   0.324   6.486
15337TIP3   OH245951   7.991   0.039   6.608
15337TIP3    H145952   8.039   0.037   6.691
15337TIP3    H245953   7.924  -0.028   6.617
15338TIP3   OH245954   0.886   4.008   0.546
15338TIP3    H145955   0.963   3.952   0.546
15338TIP3    H245956   0.876   4.037   0.455
15339TIP3   OH245957   5.184   8.076   6.263
15339TIP3    H145958   5.229   8.009   6.212
15339TIP3    H245959   5.248   8.146   6.272
15340TIP3   OH245960   3.599   7.872   7.009
15340TIP3    H145961   3.530   7.885   7.075
15340TIP3    H245962   3.587   7.944   6.947
15341TIP3   OH245963   1.782   4.061   0.084
15341TIP3    H145964   1.737   4.000   0.143
15341TIP3    H245965   1.861   4.014   0.057
15342TIP3   OH245966   2.405   3.938   0.024
15342TIP3    H145967   2.366   4.022   0.049
15342TIP3    H245968   2.387   3.880   0.098
15343TIP3   OH245969   8.198   0.034   6.796
15343TIP3    H145970   8.249  -0.001   6.723
15343TIP3    H245971   8.217  -0.025   6.869
15344TIP3   OH245972   1.032   3.747   0.170
15344TIP3    H145973   0.940   3.733   0.196
15344TIP3    H245974   1.071   3.660   0.173
15345TIP3   OH245975   3.720   7.694   6.839
15345TIP3    H145976   3.746   7.750   6.766
15345TIP3    H245977   3.680   7.753   6.902
15346TIP3   OH245978   4.338   7.886   6.987
15346TIP3    H145979   4.409   7.948   6.973
15346TIP3    H245980   4.336   7.872   7.082
15347TIP3   OH245981   4.830   7.951   6.977
15347TIP3    H145982   4.905   7.919   6.927
15347TIP3    H245983   4.823   7.891   7.051
15348TIP3   OH245984   4.923   7.953   6.607
15348TIP3    H145985   4.852   8.013   6.627
15348TIP3    H245986   4.910   7.879   6.667
15349TIP3   OH245987   3.828   7.844   6.617
15349TIP3    H145988   3.874   7.783   6.559
15349TIP3    H245989   3.897   7.900   6.652
15350TIP3   OH245990   4.319   8.043   6.698
15350TIP3    H145991   4.355   8.004   6.778
15350TIP3    H245992   4.334   8.137   6.709
15351TIP3   OH245993   0.122   0.165   5.895
15351TIP3    H145994   0.109   0.219   5.973
15351TIP3    H245995   0.048   0.185   5.839
15352TIP3   OH245996   8.213   0.195   6.299
15352TIP3    H145997   8.248   0.226   6.215
15352TIP3    H245998   8.150   0.262   6.324
15353TIP3   OH245999   8.599   0.350   6.054
15353TIP3    H146000   8.535   0.344   5.983
15353TIP3    H246001   8.611   0.444   6.067
15354TIP3   OH246002   8.241   0.587   6.063
15354TIP3    H146003   8.296   0.664   6.081
15354TIP3    H246004   8.162   0.601   6.115
15355TIP3   OH246005   8.253   0.312   6.054
15355TIP3    H146006   8.264   0.406   6.064
15355TIP3    H246007   8.185   0.302   5.987
15356TIP3   OH246008   8.035   1.018   5.980
15356TIP3    H146009   8.102   1.061   6.033
15356TIP3    H246010   8.065   0.928   5.971
15357TIP3   OH246011   8.247   0.015   6.500
15357TIP3    H146012   8.155   0.015   6.526
15357TIP3    H246013   8.254   0.086   6.437
15358TIP3   OH246014   5.463   7.949   6.295
15358TIP3    H146015   5.509   8.007   6.234
15358TIP3    H246016   5.448   8.002   6.373
15359TIP3   OH246017   8.465   0.001   6.099
15359TIP3    H146018   8.522  -0.055   6.047
15359TIP3    H246019   8.522   0.071   6.130
15360TIP3   OH246020   2.846   0.160   1.920
15360TIP3    H146021   2.816   0.091   1.979
15360TIP3    H246022   2.926   0.125   1.880
15361TIP3   OH246023   0.718   7.843   1.911
15361TIP3    H146024   0.697   7.785   1.838
15361TIP3    H246025   0.681   7.928   1.885
15362TIP3   OH246026   4.421   0.085   1.444
15362TIP3    H146027   4.356   0.090   1.374
15362TIP3    H246028   4.378   0.127   1.519
15363TIP3   OH246029   1.401   7.977   1.581
15363TIP3    H146030   1.465   7.960   1.650
15363TIP3    H246031   1.452   7.978   1.500
15364TIP3   OH246032   2.280   1.729   1.732
15364TIP3    H146033   2.302   1.659   1.671
15364TIP3    H246034   2.356   1.736   1.789
15365TIP3   OH246035   2.431   1.980   1.656
15365TIP3    H146036   2.455   1.902   1.606
15365TIP3    H246037   2.415   2.047   1.590
15366TIP3   OH246038   2.089   1.539   1.805
15366TIP3    H146039   2.045   1.458   1.832
15366TIP3    H246040   2.154   1.511   1.741
15367TIP3   OH246041   2.484   1.712   1.509
15367TIP3    H146042   2.526   1.669   1.583
15367TIP3    H246043   2.506   1.657   1.434
15368TIP3   OH246044   3.286   1.649   1.421
15368TIP3    H146045   3.298   1.561   1.458
15368TIP3    H246046   3.240   1.698   1.490
15369TIP3   OH246047   3.303   0.768   1.668
15369TIP3    H146048   3.362   0.843   1.671
15369TIP3    H246049   3.227   0.799   1.619
15370TIP3   OH246050   1.174   3.223   1.618
15370TIP3    H146051   1.136   3.163   1.682
15370TIP3    H246052   1.203   3.298   1.669
15371TIP3   OH246053   1.068   2.376   1.738
15371TIP3    H146054   1.126   2.401   1.811
15371TIP3    H246055   0.982   2.370   1.778
   8.60000   8.10816   7.02187   0.00000   0.00000  -2.86667   0.00000  -2.86667  -4.05408
