Title
19942
    1ASP      N    1   3.776   4.940   2.925 -0.4284 -0.0548  0.1744
    1ASP    HT1    2   3.761   5.042   2.939 -0.5634  0.1136 -1.1377
    1ASP    HT2    3   3.808   4.895   3.013 -1.2699  1.5273  1.3559
    1ASP    HT3    4   3.679   4.908   2.903  0.1730 -0.6529 -1.7348
    1ASP     CA    5   3.878   4.927   2.810  0.4127  0.0860 -0.6741
    1ASP     HA    6   3.848   4.846   2.746  2.0691  0.4088 -1.9140
    1ASP     CB    7   3.872   5.053   2.715 -0.0928  0.2460  0.6272
    1ASP    HB1    8   3.943   5.048   2.630  0.5028  2.0534  0.9688
    1ASP    HB2    9   3.896   5.143   2.776 -0.0632  0.0970  0.8339
    1ASP     CG   10   3.726   5.081   2.664 -0.2821  0.9865  0.1225
    1ASP    OD1   11   3.702   5.201   2.631  0.5444  0.3997 -0.2602
    1ASP    OD2   12   3.637   4.988   2.663  0.2828 -0.8779 -0.1405
    1ASP      C   13   4.017   4.894   2.867 -0.3362 -0.0976 -0.4497
    1ASP      O   14   4.058   4.779   2.877  0.1449  0.1895 -0.4402
    2ALA      N   15   4.102   4.988   2.914  0.2103 -0.4134 -0.1771
    2ALA     HN   16   4.079   5.085   2.920 -0.0165 -0.5518  2.3947
    2ALA     CA   17   4.242   4.976   2.948 -0.8719 -0.1895 -0.7712
    2ALA     HA   18   4.290   4.893   2.898  0.3147 -0.3178  0.5130
    2ALA     CB   19   4.309   5.101   2.889 -0.3396 -0.3779  0.3175
    2ALA    HB1   20   4.417   5.108   2.913 -0.1153 -1.7291 -0.2028
    2ALA    HB2   21   4.266   5.189   2.943 -3.4534 -1.8106  0.3832
    2ALA    HB3   22   4.281   5.111   2.781 -0.0272 -2.4930  0.0054
    2ALA      C   23   4.266   4.963   3.104 -0.2287 -0.0227 -0.2990
    2ALA      O   24   4.376   4.987   3.158 -0.6222  0.4643  0.4291
    3ASP      N   25   4.161   4.919   3.175  0.4973 -0.2705  0.6046
    3ASP     HN   26   4.070   4.916   3.135  0.1543  2.4344  0.9766
    3ASP     CA   27   4.155   4.903   3.320 -0.0160  0.1591  1.1908
    3ASP     HA   28   4.250   4.925   3.367 -0.2960  0.0839  1.8040
    3ASP     CB   29   4.040   4.987   3.375  0.6350 -0.6573 -0.1745
    3ASP    HB1   30   3.982   4.937   3.456  0.8068 -0.3487  0.1445
    3ASP    HB2   31   3.971   5.010   3.292 -2.8137 -2.9616  1.7985
    3ASP     CG   32   4.096   5.111   3.427 -0.2712 -0.4025 -0.3994
    3ASP    OD1   33   4.032   5.219   3.440  0.1597 -0.3014  0.2257
    3ASP    OD2   34   4.202   5.098   3.491  0.1711  0.2676 -0.1621
    3ASP      C   35   4.136   4.755   3.351 -0.0447  0.2857  0.8973
    3ASP      O   36   4.093   4.676   3.265  0.6370 -0.1520 -0.9874
    4GLY      N   37   4.177   4.718   3.465  0.2197 -0.2835 -0.4001
    4GLY     HN   38   4.216   4.783   3.530  0.5668  0.2883 -1.1574
    4GLY     CA   39   4.165   4.583   3.508 -0.3598 -0.0436 -0.5381
    4GLY    HA1   40   4.188   4.576   3.614 -0.3960 -1.8554 -0.6183
    4GLY    HA2   41   4.234   4.527   3.448 -1.2171 -0.2855 -1.3245
    4GLY      C   42   4.029   4.507   3.498 -0.1628  0.0325  0.2438
    4GLY      O   43   3.933   4.555   3.438  0.3720 -0.7827  0.5619
    5PRO      N   44   4.013   4.387   3.551  0.0109  0.1058  0.1344
    5PRO     CD   45   4.127   4.299   3.592 -0.2741 -0.3940 -0.7255
    5PRO    HD1   46   4.165   4.343   3.687  0.4674 -0.9592 -0.7490
    5PRO    HD2   47   4.209   4.310   3.518 -0.5596  0.8867 -0.8698
    5PRO     CA   48   3.885   4.315   3.556 -0.0502 -0.6385 -0.0465
    5PRO     HA   49   3.861   4.298   3.452  2.4233  0.2810 -0.8380
    5PRO     CB   50   3.927   4.191   3.636 -0.4683  0.5512 -0.1318
    5PRO    HB1   51   3.861   4.109   3.600 -1.2818  1.9076 -1.8664
    5PRO    HB2   52   3.911   4.213   3.743  0.8823 -0.5370  0.3258
    5PRO     CG   53   4.070   4.159   3.596 -0.0923 -0.1721 -0.5642
    5PRO    HG1   54   4.124   4.094   3.669  2.2869  1.9392 -0.3376
    5PRO    HG2   55   4.068   4.108   3.497  1.6802 -0.6084 -0.4061
    5PRO      C   56   3.755   4.381   3.625 -0.1802  0.4478  0.2339
    5PRO      O   57   3.763   4.492   3.672  0.1265 -0.5423  0.5145
    6GLY      N   58   3.641   4.315   3.617  0.7899 -0.2047  0.2131
    6GLY     HN   59   3.642   4.221   3.582  2.4796 -0.8325  1.8148
    6GLY     CA   60   3.510   4.370   3.662 -1.0133  0.5160  0.1667
    6GLY    HA1   61   3.493   4.457   3.600  3.6898  2.2544  0.8509
    6GLY    HA2   62   3.521   4.381   3.769  2.8947 -0.0583 -0.0199
    6GLY      C   63   3.413   4.258   3.636 -0.7306 -0.0568 -0.3607
    6GLY      O   64   3.438   4.147   3.585 -0.4239 -0.0706  0.0688
    7ASP      N   65   3.288   4.285   3.678 -0.4197  0.3112 -0.2586
    7ASP     HN   66   3.263   4.371   3.722 -0.1344 -0.8266  2.3118
    7ASP     CA   67   3.182   4.188   3.644  0.0266  0.1380 -0.0542
    7ASP     HA   68   3.216   4.094   3.684  1.4244  0.7941  0.3716
    7ASP     CB   69   3.049   4.232   3.726  0.0367  0.7111  0.2804
    7ASP    HB1   70   2.958   4.173   3.704  1.5169 -0.5953 -2.9169
    7ASP    HB2   71   3.025   4.339   3.707 -1.7268  0.7732  2.4524
    7ASP     CG   72   3.078   4.216   3.876 -0.4135  0.1935 -0.0823
    7ASP    OD1   73   3.158   4.123   3.909 -0.5295  0.0354 -0.3844
    7ASP    OD2   74   3.000   4.277   3.955 -0.8155  0.3935 -0.7434
    7ASP      C   75   3.153   4.175   3.501  1.0326 -0.0839  0.0038
    7ASP      O   76   3.159   4.278   3.438  0.1696  0.1243 -0.3583
    8PRO      N   77   3.114   4.061   3.444  0.6753  0.4817  1.1774
    8PRO     CD   78   3.157   3.935   3.491  0.2706 -0.0598  0.4349
    8PRO    HD1   79   3.078   3.903   3.561  0.3603 -0.3404  0.4086
    8PRO    HD2   80   3.253   3.938   3.547  0.8777  0.5392 -0.6002
    8PRO     CA   81   3.094   4.056   3.298 -0.5873  0.1049  0.2302
    8PRO     HA   82   3.176   4.107   3.250  0.8945 -2.6193 -0.3072
    8PRO     CB   83   3.087   3.907   3.266  0.1144  0.7838 -0.3777
    8PRO    HB1   84   3.128   3.886   3.165 -1.2746 -1.3823 -0.5515
    8PRO    HB2   85   2.991   3.855   3.287  1.2512 -0.9088  0.9436
    8PRO     CG   86   3.169   3.839   3.368 -0.3225 -0.7302  0.0795
    8PRO    HG1   87   3.156   3.730   3.389 -0.5517 -1.3822 -2.8910
    8PRO    HG2   88   3.271   3.846   3.323 -0.2238 -2.2849 -0.0027
    8PRO      C   89   2.969   4.123   3.251 -0.2976 -1.0590  0.1247
    8PRO      O   90   2.969   4.187   3.149 -1.0221 -0.6569  0.1953
    9ASP      N   91   2.855   4.103   3.328 -0.3226 -0.5998  0.1605
    9ASP     HN   92   2.852   4.033   3.399 -0.4190 -0.9202 -0.1550
    9ASP     CA   93   2.724   4.181   3.310 -0.1662  0.0987  0.1191
    9ASP     HA   94   2.731   4.261   3.237 -1.1973 -1.0087 -1.2448
    9ASP     CB   95   2.617   4.085   3.250 -0.6374 -0.3076  0.1025
    9ASP    HB1   96   2.607   3.992   3.310  1.3344  0.8910  2.4585
    9ASP    HB2   97   2.650   4.048   3.150 -3.1872 -1.5481 -0.3739
    9ASP     CG   98   2.477   4.144   3.250  0.1002  0.3304 -0.1815
    9ASP    OD1   99   2.374   4.073   3.229  0.0374  0.4241 -0.4325
    9ASP    OD2  100   2.467   4.269   3.269  0.4131  0.0282 -0.0820
    9ASP      C  101   2.708   4.247   3.444  0.1675 -0.4984  0.1732
    9ASP      O  102   2.713   4.186   3.551 -0.1010  0.4062 -0.3689
   10ALA      N  103   2.675   4.379   3.439  0.2822  1.1367  0.1735
   10ALA     HN  104   2.662   4.421   3.350  0.8372  2.0611  0.5212
   10ALA     CA  105   2.658   4.445   3.571  0.4343 -0.4454  0.8198
   10ALA     HA  106   2.742   4.429   3.637  0.6389 -0.6879  0.4965
   10ALA     CB  107   2.645   4.592   3.549 -0.6120  1.1220  0.2235
   10ALA    HB1  108   2.641   4.637   3.651 -0.8138 -0.7722  1.0817
   10ALA    HB2  109   2.545   4.616   3.507 -0.1105  1.5027 -0.7821
   10ALA    HB3  110   2.735   4.625   3.492 -1.1163  0.7508 -0.8005
   10ALA      C  111   2.537   4.404   3.654 -0.3765 -0.1644  0.2815
   10ALA      O  112   2.535   4.397   3.778  0.3680  0.1461  0.2735
   11GLY      N  113   2.427   4.362   3.589 -0.7981  0.3187 -0.1151
   11GLY     HN  114   2.432   4.351   3.490 -1.9249 -2.5696  0.0364
   11GLY     CA  115   2.299   4.322   3.639 -0.0753  0.0136 -0.3021
   11GLY    HA1  116   2.244   4.415   3.632  0.6276  0.4335 -0.2834
   11GLY    HA2  117   2.309   4.273   3.735 -0.7126  1.3195  0.4623
   11GLY      C  118   2.249   4.214   3.543  0.2864 -0.3132  0.2721
   11GLY    OT1  119   2.283   4.097   3.573 -0.4610  0.8878 -0.1374
   11GLY    OT2  120   2.175   4.243   3.447  0.4286  0.4831 -0.0368
   12LIT    LIT  121   1.108   5.426   0.360 -0.4800 -0.4014  0.4204
   13LIT    LIT  122   6.155   1.296   0.610 -0.3243  0.1802  0.3420
   14LIT    LIT  123   5.907   0.950   5.079  0.3728 -0.2844  0.8211
   15LIT    LIT  124   3.776   5.724   4.514  0.3228 -0.0948  0.7350
   16LIT    LIT  125   1.965   4.178   0.280  0.1165  0.8143 -0.4561
   17LIT    LIT  126   2.279   0.903   1.596  1.0950 -0.8281 -0.4048
   18LIT    LIT  127   3.372   3.094   4.986  0.9425 -0.3540  0.0441
   19LIT    LIT  128   3.029   4.195   4.119 -0.1610  0.4517  0.4050
   20LIT    LIT  129   0.005   5.454   0.460  0.4156 -0.0643 -0.5011
   21LIT    LIT  130   4.162   5.268   3.589 -0.7010  0.3977 -0.0539
   22LIT    LIT  131   0.577   4.862   2.855 -0.4107 -0.0544 -0.0798
   23LIT    LIT  132   2.280   4.220   3.284  0.3812  0.0883  0.2254
   24LIT    LIT  133   3.254   3.974   2.852 -0.3323 -1.0651 -0.1456
   25LIT    LIT  134   0.355   2.433   1.689 -0.4556  0.1415  0.6263
   26LIT    LIT  135   6.339   1.377   3.472  0.4501 -0.1600 -0.4743
   27LIT    LIT  136   3.608   3.319   0.491 -0.5242 -0.0742 -0.6138
   28LIT    LIT  137   6.278   2.546   2.469 -0.0175 -0.9871 -0.0701
   29LIT    LIT  138   5.201   0.819   4.779  0.4103 -0.2455 -0.7646
   30LIT    LIT  139   3.692   4.441   0.359 -0.3463 -0.5631 -0.5602
   31LIT    LIT  140   4.766   1.039   2.156  0.6430 -0.8611 -0.2788
   32LIT    LIT  141   5.926   5.873   4.152 -1.0308  1.0178  0.4960
   33LIT    LIT  142   5.730   3.267   1.565 -0.3188 -0.6476 -0.4254
   34CLA    CLA  143   1.888   1.674   0.578 -0.2157  0.1577 -0.2827
   35CLA    CLA  144   4.894   4.566   0.036  0.0701 -0.0422  0.0811
   36CLA    CLA  145   5.954   1.723   2.663 -0.0513  0.1082  0.3594
   37CLA    CLA  146   0.073   1.773   2.770  0.3129  0.0110 -0.1609
   38CLA    CLA  147   2.745   5.936   3.305 -0.1274  0.0748 -0.0135
   39CLA    CLA  148   3.639   5.738   4.945  0.4288 -0.0946 -0.4133
   40CLA    CLA  149   6.313   5.050   4.857 -0.2966 -0.1225 -0.0449
   41CLA    CLA  150   0.221   0.369   4.709  0.1986 -0.0259 -0.2131
   42CLA    CLA  151   6.216   5.513   3.794  0.2797  0.1247  0.1078
   43CLA    CLA  152   6.196   1.734   4.913  0.4555 -0.1159  0.2345
   44CLA    CLA  153   2.207   4.365   0.821 -0.0923 -0.4088  0.0423
   45CLA    CLA  154   0.569   0.866   1.755 -0.1007 -0.7649 -0.1348
   46CLA    CLA  155   0.575   4.290   4.213 -0.0791 -0.2964  0.1751
   47CLA    CLA  156   3.103   1.908   2.586  0.2412  0.5016  0.1112
   48CLA    CLA  157   5.112   3.920   3.708  0.0054 -0.4174 -0.0170
   49CLA    CLA  158   2.648   0.576   1.749  0.1685  0.0630 -0.1014
   50CLA    CLA  159   5.691   5.046   2.405 -0.1843 -0.2332  0.0991
   51CLA    CLA  160   3.867   3.398   4.536 -0.1977  0.0886  0.5932
   52TIP3   OH2  161   4.783   3.644   1.761 -0.6745 -0.2717  0.2324
   52TIP3    H1  162   4.713   3.580   1.759  0.2114 -1.3228 -3.3015
   52TIP3    H2  163   4.742   3.726   1.732 -0.9308 -0.2540  0.6371
   53TIP3   OH2  164   0.613   4.736   0.121  0.0402  0.0296 -0.1633
   53TIP3    H1  165   0.613   4.800   0.050 -2.4024  3.8522  2.8642
   53TIP3    H2  166   0.672   4.774   0.187 -1.6250 -0.6485  1.8270
   54TIP3   OH2  167   1.363   4.113   4.844  0.0404  0.3136 -0.0107
   54TIP3    H1  168   1.311   4.100   4.924 -0.5891  1.8683 -0.1512
   54TIP3    H2  169   1.310   4.075   4.774 -0.1293  0.3957  0.0748
   55TIP3   OH2  170   5.155   3.345   3.787 -0.0577  0.0003 -0.1455
   55TIP3    H1  171   5.096   3.342   3.863  0.4683  1.3805  0.3458
   55TIP3    H2  172   5.160   3.437   3.763 -0.2905 -0.4207 -1.9542
   56TIP3   OH2  173   2.397   5.234   3.070 -0.2977 -0.1231  0.1308
   56TIP3    H1  174   2.360   5.175   3.004 -0.4678  0.5446 -0.3764
   56TIP3    H2  175   2.337   5.309   3.072  0.1289  0.2125  0.4848
   57TIP3   OH2  176   1.809   0.982   0.238  0.3897 -0.7109  0.3797
   57TIP3    H1  177   1.754   0.928   0.180  0.4861  0.5598 -0.9534
   57TIP3    H2  178   1.751   1.005   0.310  0.1442 -2.0189  0.6279
   58TIP3   OH2  179   3.062   5.890   2.506 -0.1870  0.3747 -0.5446
   58TIP3    H1  180   2.981   5.847   2.479 -0.9920  0.1286  1.9635
   58TIP3    H2  181   3.108   5.825   2.559  1.7123  0.5090 -1.8993
   59TIP3   OH2  182   0.121   5.860   2.070  0.0949  0.4035  0.4188
   59TIP3    H1  183   0.053   5.915   2.111  0.3512  0.7672  0.3637
   59TIP3    H2  184   0.086   5.841   1.983 -0.4314 -0.3323  0.7799
   60TIP3   OH2  185   1.632   1.830   0.990  0.2480  0.5068 -0.0510
   60TIP3    H1  186   1.640   1.836   0.895  0.1560  2.5445  0.0127
   60TIP3    H2  187   1.609   1.739   1.007  1.0598 -0.0932 -1.9113
   61TIP3   OH2  188   1.674   1.530   4.665 -0.0431 -0.1794  0.0639
   61TIP3    H1  189   1.678   1.501   4.574  0.5343  0.7295 -0.2092
   61TIP3    H2  190   1.619   1.608   4.664 -0.8712 -0.7284  0.6658
   62TIP3   OH2  191   3.894   0.414   1.182  0.0909  0.1243  0.3820
   62TIP3    H1  192   3.841   0.471   1.238 -0.2369  1.5485 -1.2746
   62TIP3    H2  193   3.983   0.448   1.190  0.0551  0.2867  0.0908
   63TIP3   OH2  194   1.835   2.661   4.236  0.1914  0.6424 -0.5615
   63TIP3    H1  195   1.782   2.583   4.253 -0.5769  0.9173 -1.5892
   63TIP3    H2  196   1.839   2.667   4.140  1.8016  0.8350 -0.5089
   64TIP3   OH2  197   2.874   5.624   0.450  0.5608 -0.4044 -0.3829
   64TIP3    H1  198   2.799   5.683   0.457  0.0782 -1.0562  0.0723
   64TIP3    H2  199   2.842   5.552   0.395  0.1288 -1.7483  1.5449
   65TIP3   OH2  200   3.079   3.140   1.476  0.3028  0.3600  0.0126
   65TIP3    H1  201   3.070   3.213   1.537  0.3559  1.2046 -0.9739
   65TIP3    H2  202   3.140   3.080   1.520  1.6620  1.7251  0.0784
   66TIP3   OH2  203   3.171   0.222   0.827 -0.4180 -0.0331 -0.4403
   66TIP3    H1  204   3.217   0.302   0.802 -1.0080  1.0683  1.7228
   66TIP3    H2  205   3.084   0.253   0.853 -1.0307 -1.5483 -0.6215
   67TIP3   OH2  206   2.368   4.746   0.240  0.1335  0.0923 -0.2417
   67TIP3    H1  207   2.381   4.664   0.193  1.2271 -0.0295  0.2540
   67TIP3    H2  208   2.303   4.794   0.187 -3.4853 -2.5776  1.3545
   68TIP3   OH2  209   4.044   5.150   0.158  0.6884  0.1455 -0.4390
   68TIP3    H1  210   3.966   5.183   0.114  1.0787  1.6579 -0.0836
   68TIP3    H2  211   4.019   5.147   0.251  1.0105  0.5890 -0.3299
   69TIP3   OH2  212   0.456   3.517   1.486 -0.1489  0.4083  0.2653
   69TIP3    H1  213   0.442   3.497   1.393 -1.6678 -1.0075  0.7660
   69TIP3    H2  214   0.517   3.450   1.516  0.4457  0.9447  0.2820
   70TIP3   OH2  215   5.743   5.154   4.195  0.2753  0.4765 -0.1216
   70TIP3    H1  216   5.776   5.232   4.239  2.6250 -1.0868  1.0846
   70TIP3    H2  217   5.776   5.161   4.106  0.5527  0.8156  0.0026
   71TIP3   OH2  218   5.781   4.648   1.888  0.3045 -0.1254  0.3394
   71TIP3    H1  219   5.733   4.656   1.805  0.4048 -0.0669  0.2874
   71TIP3    H2  220   5.814   4.558   1.888 -1.9720 -1.0673  1.5374
   72TIP3   OH2  221   2.058   2.449   4.427 -0.3037  1.0512 -0.0941
   72TIP3    H1  222   2.052   2.433   4.333 -1.8466  1.1578 -0.0277
   72TIP3    H2  223   1.974   2.421   4.462  0.7827 -0.4412  1.4963
   73TIP3   OH2  224   5.866   3.169   4.754 -0.1765  0.1761  0.6628
   73TIP3    H1  225   5.861   3.099   4.689 -0.6463  0.8349 -0.0290
   73TIP3    H2  226   5.892   3.125   4.835 -1.6092 -0.9843  0.5277
   74TIP3   OH2  227   1.014   4.646   2.541  0.5388  0.2630  0.4283
   74TIP3    H1  228   1.008   4.653   2.636  0.8173  0.2992  0.4436
   74TIP3    H2  229   0.980   4.560   2.521 -3.6648  1.7610  0.1861
   75TIP3   OH2  230   2.014   2.939   3.124 -0.8063  0.2104 -0.1576
   75TIP3    H1  231   2.059   3.004   3.178 -0.3527  0.8516 -1.2619
   75TIP3    H2  232   1.975   2.878   3.186 -0.8012  1.2550  0.8894
   76TIP3   OH2  233   2.690   0.744   2.024 -0.1797 -0.2414 -0.3614
   76TIP3    H1  234   2.731   0.679   2.081  0.5036  1.2545  0.9446
   76TIP3    H2  235   2.677   0.699   1.941  2.1942 -1.4091 -0.1618
   77TIP3   OH2  236   0.385   4.638   0.947  0.4768  0.2053  0.5234
   77TIP3    H1  237   0.369   4.728   0.975 -1.9502  0.7851 -2.2477
   77TIP3    H2  238   0.351   4.584   1.019  1.0046  1.4616  1.7699
   78TIP3   OH2  239   5.532   0.092   0.646  0.0957  0.0246  0.1817
   78TIP3    H1  240   5.580   0.010   0.646 -0.1138 -0.1043 -0.4895
   78TIP3    H2  241   5.455   0.075   0.592  0.3299  0.8206 -0.4259
   79TIP3   OH2  242   6.224   3.286   4.457 -0.1516  0.4830 -0.0495
   79TIP3    H1  243   6.169   3.277   4.534  2.8104  0.0083  2.1862
   79TIP3    H2  244   6.286   3.356   4.479  0.9084  0.2260 -1.9208
   80TIP3   OH2  245   1.089   1.425   1.491  0.2107  0.0381  0.8403
   80TIP3    H1  246   1.062   1.499   1.437  0.4672 -1.1071 -0.9322
   80TIP3    H2  247   1.015   1.364   1.488  1.7042 -1.8433 -1.6979
   81TIP3   OH2  248   2.413   5.426   3.832  0.6560  0.7336 -0.7168
   81TIP3    H1  249   2.493   5.423   3.781  0.6735 -0.6019 -0.6526
   81TIP3    H2  250   2.437   5.386   3.916 -0.5816 -1.8417 -1.4922
   82TIP3   OH2  251   1.464   5.765   3.601 -0.0843  0.4864 -0.1232
   82TIP3    H1  252   1.491   5.781   3.510 -0.4366  0.8616 -0.1654
   82TIP3    H2  253   1.487   5.846   3.647 -2.7183  1.5838 -0.5226
   83TIP3   OH2  254   3.594   3.033   1.544 -0.2871  0.4429  0.2332
   83TIP3    H1  255   3.688   3.032   1.525 -0.5249  2.7493 -1.4833
   83TIP3    H2  256   3.559   2.957   1.499  0.7878 -0.8143  1.4252
   84TIP3   OH2  257   2.097   1.751   4.769 -0.6717 -0.4490 -0.0484
   84TIP3    H1  258   2.077   1.799   4.850  2.2124  0.1125  0.4450
   84TIP3    H2  259   2.039   1.675   4.772 -1.0350 -0.1618  2.2870
   85TIP3   OH2  260   1.958   5.829   0.654 -0.2570 -0.0007 -0.5934
   85TIP3    H1  261   2.002   5.761   0.603  1.3803  0.0129  0.7238
   85TIP3    H2  262   1.949   5.793   0.742  0.9543  1.5503  0.2259
   86TIP3   OH2  263   3.593   2.780   4.801  0.7148 -0.9377  0.0927
   86TIP3    H1  264   3.535   2.842   4.757  1.8046  1.0707  1.3335
   86TIP3    H2  265   3.621   2.720   4.732 -0.8849 -0.4653 -1.0214
   87TIP3   OH2  266   1.556   3.644   3.784  1.1988 -0.2491 -0.6565
   87TIP3    H1  267   1.642   3.681   3.766  1.9161 -2.2848 -1.8222
   87TIP3    H2  268   1.494   3.712   3.757  2.4223  0.3724 -2.0777
   88TIP3   OH2  269   5.209   1.428   1.879 -0.3782 -0.0068  0.0002
   88TIP3    H1  270   5.203   1.369   1.954 -1.0418 -0.5101 -0.4368
   88TIP3    H2  271   5.303   1.439   1.865 -0.1803  1.8553  2.2367
   89TIP3   OH2  272   6.244   5.411   2.544 -0.4291 -0.0946 -0.0710
   89TIP3    H1  273   6.158   5.446   2.567 -0.2458 -0.5808  1.4733
   89TIP3    H2  274   6.298   5.489   2.527 -0.9612  0.2304 -0.3046
   90TIP3   OH2  275   4.659   2.744   3.648  0.1926 -0.6965  0.3123
   90TIP3    H1  276   4.652   2.839   3.661  2.1055 -0.6783  1.5888
   90TIP3    H2  277   4.588   2.708   3.701 -0.9974 -0.0082 -0.7236
   91TIP3   OH2  278   2.527   4.010   2.860  0.4334  0.1813 -0.1749
   91TIP3    H1  279   2.452   3.997   2.919 -0.8668 -0.2580 -1.8573
   91TIP3    H2  280   2.530   4.104   2.845  0.3291  0.2171  0.0292
   92TIP3   OH2  281   0.877   3.363   1.748 -0.2845 -0.3824 -0.2975
   92TIP3    H1  282   0.905   3.446   1.708 -0.1085  0.1230  0.8494
   92TIP3    H2  283   0.817   3.389   1.817  0.6002 -1.1297  0.7872
   93TIP3   OH2  284   1.465   5.499   3.588 -0.1226 -0.0828 -0.9625
   93TIP3    H1  285   1.459   5.578   3.641  2.3880 -0.4329 -0.0415
   93TIP3    H2  286   1.465   5.531   3.497  1.0459  1.0432 -0.5978
   94TIP3   OH2  287   5.563   2.391   1.010  0.2042  0.1922 -0.0714
   94TIP3    H1  288   5.604   2.343   0.938  1.0684  1.4668 -0.4733
   94TIP3    H2  289   5.575   2.483   0.987 -0.2364  0.6204  1.3097
   95TIP3   OH2  290   4.839   2.314   0.351 -0.3814 -0.4582  0.8457
   95TIP3    H1  291   4.851   2.230   0.394 -0.1105 -0.7155  0.2746
   95TIP3    H2  292   4.768   2.299   0.288  1.0567 -0.8668 -0.7745
   96TIP3   OH2  293   2.400   2.549   0.875 -0.3281 -0.2443  0.2736
   96TIP3    H1  294   2.347   2.549   0.955 -1.1748 -0.1263 -0.2840
   96TIP3    H2  295   2.363   2.480   0.821 -1.0710  1.0028 -0.8666
   97TIP3   OH2  296   2.281   0.373   4.175  0.0598  0.3775 -0.3973
   97TIP3    H1  297   2.371   0.372   4.209 -0.1110  0.1950  0.0588
   97TIP3    H2  298   2.249   0.284   4.189 -0.5558  0.7182  0.4418
   98TIP3   OH2  299   0.749   0.295   4.586 -0.0617  0.3753 -0.2322
   98TIP3    H1  300   0.737   0.260   4.674 -1.2624  0.8122 -0.2112
   98TIP3    H2  301   0.668   0.342   4.567  0.7964  1.6384 -0.9487
   99TIP3   OH2  302   1.272   0.823   1.654  0.5749 -0.3668 -0.0442
   99TIP3    H1  303   1.238   0.893   1.710 -0.8669 -1.1213  0.0724
   99TIP3    H2  304   1.367   0.833   1.659  0.4435  0.6570  1.1432
  100TIP3   OH2  305   4.453   5.893   3.241 -0.2857 -0.0160  0.4781
  100TIP3    H1  306   4.408   5.976   3.226 -1.2523 -0.6784 -0.3626
  100TIP3    H2  307   4.425   5.866   3.329 -2.6433 -1.0756 -0.5402
  101TIP3   OH2  308   1.931   5.013   1.301 -0.2655 -0.2544 -0.4902
  101TIP3    H1  309   1.920   5.053   1.215  0.1726 -0.9658 -0.8824
  101TIP3    H2  310   1.998   5.067   1.343 -0.5677  0.1685 -0.5391
  102TIP3   OH2  311   3.345   4.757   1.256  0.0792  0.0341 -0.4554
  102TIP3    H1  312   3.413   4.813   1.220  0.6996 -0.0871  0.4858
  102TIP3    H2  313   3.347   4.678   1.203  2.4437 -1.0468  1.0804
  103TIP3   OH2  314   3.318   2.895   2.298  0.3424 -0.2138 -0.0017
  103TIP3    H1  315   3.280   2.889   2.386 -0.6663 -0.9652 -0.4596
  103TIP3    H2  316   3.318   2.988   2.279 -1.6021 -0.1812 -0.0802
  104TIP3   OH2  317   4.333   4.936   4.353 -0.4212 -0.0707 -0.1935
  104TIP3    H1  318   4.327   4.866   4.418 -0.0283 -0.3115 -0.4126
  104TIP3    H2  319   4.247   4.978   4.354 -0.5082 -0.2594  0.2712
  105TIP3   OH2  320   4.581   1.955   2.628 -0.2905  0.3758 -0.0254
  105TIP3    H1  321   4.612   2.042   2.602  2.3748  0.5217  3.0164
  105TIP3    H2  322   4.648   1.895   2.596 -0.8971 -0.3087 -0.0364
  106TIP3   OH2  323   6.323   5.788   0.649 -0.4657 -0.5403 -0.7492
  106TIP3    H1  324   6.300   5.862   0.704  0.8091 -0.9566  0.4077
  106TIP3    H2  325   6.294   5.813   0.562 -0.0611  1.3304 -0.3977
  107TIP3   OH2  326   1.813   4.178   4.841 -0.1281  0.0328  0.4079
  107TIP3    H1  327   1.860   4.187   4.758 -0.7658 -0.6324 -0.0366
  107TIP3    H2  328   1.736   4.126   4.819 -0.6156  0.3628  1.3039
  108TIP3   OH2  329   5.348   5.482   3.055  0.3080 -0.0346 -0.2305
  108TIP3    H1  330   5.355   5.398   3.010  0.3932 -0.5650  0.7451
  108TIP3    H2  331   5.254   5.497   3.061  0.2957  0.0216 -0.5535
  109TIP3   OH2  332   3.033   3.493   4.866 -0.3635 -0.0381  0.2222
  109TIP3    H1  333   3.045   3.413   4.917 -0.9906  0.2031  0.7605
  109TIP3    H2  334   2.952   3.479   4.818 -1.1421  0.7491  1.2598
  110TIP3   OH2  335   4.289   3.062   5.185  0.5804 -0.0796  0.1428
  110TIP3    H1  336   4.236   3.046   5.107  1.6237 -2.0849 -0.2448
  110TIP3    H2  337   4.348   3.133   5.160  1.5430 -1.3185 -1.2968
  111TIP3   OH2  338   0.123   3.424   1.044 -0.4245  0.5048  0.2015
  111TIP3    H1  339   0.032   3.453   1.044 -0.8425 -0.7503 -0.0476
  111TIP3    H2  340   0.142   3.406   0.952  0.1263  0.8868  0.2336
  112TIP3   OH2  341   4.088   5.789   2.841  0.1726 -0.0557 -0.2004
  112TIP3    H1  342   4.029   5.864   2.840  0.5498  0.2423 -0.7560
  112TIP3    H2  343   4.171   5.824   2.807  0.2422 -0.8086 -0.8175
  113TIP3   OH2  344   1.454   3.994   1.459  0.5952  0.3347 -0.1103
  113TIP3    H1  345   1.366   3.997   1.421  0.6954  0.1090 -0.3606
  113TIP3    H2  346   1.440   3.999   1.553  0.3974  2.1783 -0.1886
  114TIP3   OH2  347   0.221   2.894   1.494 -0.1494 -0.6207 -0.3119
  114TIP3    H1  348   0.303   2.921   1.453 -0.1673  0.4108  0.2880
  114TIP3    H2  349   0.155   2.951   1.454 -0.5251 -1.1931 -0.5203
  115TIP3   OH2  350   0.232   0.098   3.810  0.1014 -0.3002 -0.1721
  115TIP3    H1  351   0.251   0.045   3.733 -0.4178  0.3123 -0.7321
  115TIP3    H2  352   0.167   0.048   3.858 -0.6242 -0.0382 -0.8635
  116TIP3   OH2  353   4.735   3.813   2.048  0.5048  0.4842  0.0415
  116TIP3    H1  354   4.705   3.845   1.962 -0.6046  0.4774  0.4071
  116TIP3    H2  355   4.667   3.751   2.075  2.5856 -2.3372 -0.6642
  117TIP3   OH2  356   5.016   5.297   5.168  0.3825 -0.6712  0.1387
  117TIP3    H1  357   4.983   5.368   5.222  1.9541  1.3269 -1.3717
  117TIP3    H2  358   4.942   5.271   5.114  0.3041  1.4595 -0.8896
  118TIP3   OH2  359   5.697   0.848   3.547 -0.0322 -0.2887  0.8346
  118TIP3    H1  360   5.626   0.816   3.603 -1.3996 -1.0497 -1.2247
  118TIP3    H2  361   5.669   0.934   3.518 -0.5677 -0.9509 -0.6852
  119TIP3   OH2  362   0.235   5.787   5.177 -0.4689 -0.9910 -0.3694
  119TIP3    H1  363   0.273   5.773   5.090 -0.2809  1.0296 -0.6621
  119TIP3    H2  364   0.309   5.782   5.237 -0.4302 -1.2756 -0.4358
  120TIP3   OH2  365   4.055   0.026   1.161  0.3280 -0.2542  0.1639
  120TIP3    H1  366   3.991   0.075   1.213 -2.8261 -3.0098 -0.7622
  120TIP3    H2  367   4.053   0.069   1.075  2.0021  1.4026  0.8821
  121TIP3   OH2  368   1.667   1.497   4.396 -0.0084  0.4354 -0.1016
  121TIP3    H1  369   1.733   1.429   4.413 -0.2799  0.3242  0.5737
  121TIP3    H2  370   1.601   1.453   4.343 -0.7196 -0.1702  1.2243
  122TIP3   OH2  371   5.709   3.984   2.985 -0.5522 -0.2157  0.1849
  122TIP3    H1  372   5.616   3.962   2.979 -0.3676 -1.2052  0.7919
  122TIP3    H2  373   5.733   3.964   3.075  0.8263 -2.4011 -0.6040
  123TIP3   OH2  374  -0.026   5.473   2.174  0.0357  0.3123  0.1159
  123TIP3    H1  375   0.032   5.421   2.118 -1.4555 -2.1364  0.6769
  123TIP3    H2  376   0.033   5.531   2.222  1.8548 -0.9245 -0.5073
  124TIP3   OH2  377   2.764   3.692   1.277 -0.2559  0.0351  0.0778
  124TIP3    H1  378   2.748   3.777   1.235 -0.1650  0.8275  1.5881
  124TIP3    H2  379   2.856   3.694   1.301 -0.2446 -0.5082  0.0909
  125TIP3   OH2  380   6.176   5.229   0.329  0.0512  0.1197  0.4281
  125TIP3    H1  381   6.092   5.185   0.322  0.3700 -0.2816 -1.4336
  125TIP3    H2  382   6.228   5.193   0.256  1.7344  0.5588  1.3589
  126TIP3   OH2  383   1.414   0.406   2.263 -0.1953 -0.1582  0.1792
  126TIP3    H1  384   1.396   0.447   2.179  0.4861  0.4044  0.2999
  126TIP3    H2  385   1.347   0.440   2.322  0.3076  0.7106  0.2550
  127TIP3   OH2  386   0.507   3.802   5.120  0.3134 -0.6942  0.1785
  127TIP3    H1  387   0.517   3.875   5.181  1.2686 -1.7157  1.3031
  127TIP3    H2  388   0.551   3.728   5.163  0.1523 -1.7153 -1.3119
  128TIP3   OH2  389   6.293   1.572   3.523  0.1045  0.2198 -0.8348
  128TIP3    H1  390   6.344   1.592   3.602 -1.1617  0.3594 -0.0244
  128TIP3    H2  391   6.275   1.658   3.484  0.0505  0.2066 -0.8386
  129TIP3   OH2  392   0.557   2.853   4.941 -0.6784  0.0734 -0.5305
  129TIP3    H1  393   0.486   2.880   4.883 -2.6324  0.3209  1.8277
  129TIP3    H2  394   0.519   2.853   5.028  2.1216 -0.2503  0.8251
  130TIP3   OH2  395   0.132   2.304   0.687  0.4472 -0.1760 -0.2447
  130TIP3    H1  396   0.209   2.316   0.631 -1.1006  0.6340 -2.3447
  130TIP3    H2  397   0.125   2.386   0.736 -0.0698  0.4676 -1.3756
  131TIP3   OH2  398   3.681   0.766   2.622  0.9809 -0.1671 -0.4119
  131TIP3    H1  399   3.755   0.825   2.636  0.3410  0.2974  1.2839
  131TIP3    H2  400   3.622   0.815   2.564 -0.2962  1.6521  2.2467
  132TIP3   OH2  401   3.811   3.657   4.169 -0.1112 -0.0382 -0.2716
  132TIP3    H1  402   3.885   3.648   4.108  0.1713 -0.8176  0.1756
  132TIP3    H2  403   3.757   3.726   4.130  1.8725  2.0687  0.4536
  133TIP3   OH2  404   0.703   1.784   1.824 -0.8779 -0.1631  0.4991
  133TIP3    H1  405   0.787   1.759   1.786 -0.1459  1.5262  0.8800
  133TIP3    H2  406   0.676   1.709   1.875  0.2007 -0.8947  0.0332
  134TIP3   OH2  407   5.484   1.204   4.779 -0.0619  0.2179  0.2193
  134TIP3    H1  408   5.444   1.291   4.785  0.8177  0.6216  0.3703
  134TIP3    H2  409   5.420   1.146   4.821 -0.4623  0.8523  0.5139
  135TIP3   OH2  410   2.549   4.131   3.905 -0.1486  0.5265 -0.3476
  135TIP3    H1  411   2.565   4.217   3.867  0.7135  0.9193  0.8558
  135TIP3    H2  412   2.636   4.092   3.914 -0.4508 -0.0863 -0.0241
  136TIP3   OH2  413   1.380   1.622   4.870 -0.9082 -0.2605 -0.1492
  136TIP3    H1  414   1.403   1.713   4.888  0.0168 -0.4895 -0.1389
  136TIP3    H2  415   1.287   1.625   4.845 -1.0139  0.6156  0.3278
  137TIP3   OH2  416   4.162   0.528   1.154 -0.0408 -0.3200 -0.1677
  137TIP3    H1  417   4.232   0.532   1.219 -0.0142  0.2431 -0.2256
  137TIP3    H2  418   4.175   0.444   1.110  0.9699  0.0389 -0.5859
  138TIP3   OH2  419   4.346   3.197   3.469 -0.2101 -0.0681 -0.2543
  138TIP3    H1  420   4.438   3.225   3.477  0.0265 -1.0018  0.4364
  138TIP3    H2  421   4.331   3.195   3.374  0.8545 -1.0535 -0.4252
  139TIP3   OH2  422   5.360   5.199   1.961 -0.0997  0.2666 -0.1357
  139TIP3    H1  423   5.295   5.230   2.023  0.5408  1.6471 -0.1145
  139TIP3    H2  424   5.413   5.276   1.941  3.6513 -1.3607  2.3725
  140TIP3   OH2  425   1.524   2.513   4.438  0.1862 -0.3289  0.1497
  140TIP3    H1  426   1.465   2.450   4.480  0.0218 -0.3316 -0.0820
  140TIP3    H2  427   1.593   2.460   4.399  0.4164 -0.3170  0.5349
  141TIP3   OH2  428   3.081   2.307   0.911  0.0093 -0.2927  0.0608
  141TIP3    H1  429   3.163   2.277   0.952 -0.0754  0.6747  0.9799
  141TIP3    H2  430   3.109   2.357   0.835  0.4521  1.9761  1.6021
  142TIP3   OH2  431   3.627   3.462   4.275 -0.0808  0.1458 -0.8401
  142TIP3    H1  432   3.718   3.485   4.254 -0.0064  0.4496 -0.2064
  142TIP3    H2  433   3.625   3.458   4.371 -0.3034 -1.6285 -0.8949
  143TIP3   OH2  434   4.514   3.164   1.483 -0.0105  0.7636  0.0273
  143TIP3    H1  435   4.602   3.147   1.517  0.1123  1.3648  0.0205
  143TIP3    H2  436   4.456   3.143   1.556  0.0623 -0.6371 -0.3028
  144TIP3   OH2  437   2.022   4.312   2.885  0.2283 -0.0345  0.4472
  144TIP3    H1  438   2.093   4.376   2.895  0.7677 -0.3421 -1.0617
  144TIP3    H2  439   2.040   4.269   2.801 -0.7284 -1.4185  0.9077
  145TIP3   OH2  440   4.133   3.073   0.176 -0.4102  0.1971 -0.1993
  145TIP3    H1  441   4.157   2.982   0.158 -1.3600  0.1354 -1.2624
  145TIP3    H2  442   4.044   3.081   0.141  0.0784  1.8351 -1.1484
  146TIP3   OH2  443   1.299   3.725   4.721  0.4101  0.1110  0.0806
  146TIP3    H1  444   1.255   3.804   4.752  0.8850  0.2272  0.4761
  146TIP3    H2  445   1.290   3.728   4.626  1.6785  1.4113 -0.0354
  147TIP3   OH2  446   5.063   1.971   4.745 -0.2887  0.5401 -0.6401
  147TIP3    H1  447   5.135   1.938   4.798 -0.3532  3.1942  1.2987
  147TIP3    H2  448   5.104   2.004   4.665  0.6246  1.6166  0.2490
  148TIP3   OH2  449   1.971   1.484   2.185  0.1694 -0.3522  0.4178
  148TIP3    H1  450   1.956   1.392   2.165  0.6614 -0.0896 -1.2848
  148TIP3    H2  451   1.973   1.488   2.281 -1.6448 -1.8005  0.5542
  149TIP3   OH2  452   3.317   3.136   2.197  0.2776 -0.3729  0.8492
  149TIP3    H1  453   3.293   3.137   2.104 -1.5667 -0.0527  1.2851
  149TIP3    H2  454   3.254   3.195   2.238  1.2763 -0.2650  2.2627
  150TIP3   OH2  455   6.247   4.379   0.428 -0.0914 -0.0681  0.2474
  150TIP3    H1  456   6.284   4.458   0.467 -0.2699  0.2724 -0.2623
  150TIP3    H2  457   6.323   4.331   0.395  0.0342 -0.2085  0.7274
  151TIP3   OH2  458   5.109   3.847   4.456  0.0182 -0.6396 -0.4269
  151TIP3    H1  459   5.150   3.769   4.493  1.0037  0.3574  0.6611
  151TIP3    H2  460   5.128   3.843   4.362 -1.2942 -2.4762 -0.6778
  152TIP3   OH2  461   2.661   0.203   4.780  0.5386  0.0776  0.4749
  152TIP3    H1  462   2.623   0.141   4.718  0.0556  1.2066 -0.3869
  152TIP3    H2  463   2.593   0.269   4.794  0.6312 -0.1410  2.2278
  153TIP3   OH2  464   2.333   3.941   3.993  0.6379  0.1281  0.2946
  153TIP3    H1  465   2.402   3.996   3.956 -0.4908  1.2471 -0.2087
  153TIP3    H2  466   2.363   3.852   3.977  2.1990  0.5719  0.5387
  154TIP3   OH2  467   5.701   5.096   4.703 -0.4354  0.3951 -0.1688
  154TIP3    H1  468   5.720   5.111   4.796 -3.0448  0.6282  0.4039
  154TIP3    H2  469   5.783   5.114   4.658  0.2627  2.7509  1.8573
  155TIP3   OH2  470   4.005   2.721   1.898 -0.1408 -0.1340 -0.2168
  155TIP3    H1  471   4.016   2.637   1.943 -0.0723 -0.2468 -0.4419
  155TIP3    H2  472   4.069   2.779   1.939 -0.0460 -0.2500 -0.2001
  156TIP3   OH2  473   4.546   5.465   3.832 -0.2574  0.3778 -0.1403
  156TIP3    H1  474   4.588   5.415   3.902 -1.5504  0.7084  0.9160
  156TIP3    H2  475   4.580   5.427   3.751  2.3103  0.8514  0.6186
  157TIP3   OH2  476   0.978   2.754   0.208 -0.6208 -0.3275 -0.1575
  157TIP3    H1  477   1.058   2.746   0.261 -0.1165 -2.3281 -1.0896
  157TIP3    H2  478   0.907   2.737   0.269 -0.0276 -3.0544 -0.0726
  158TIP3   OH2  479   6.313   0.155   5.035 -0.0134 -0.2225  0.1390
  158TIP3    H1  480   6.353   0.175   5.120 -0.1858  0.8107 -0.0130
  158TIP3    H2  481   6.219   0.163   5.050 -0.0250  0.5903 -0.2839
  159TIP3   OH2  482   1.625   1.401   2.795  0.1902 -0.5501 -0.2160
  159TIP3    H1  483   1.715   1.370   2.784  0.0853 -1.2181  0.6262
  159TIP3    H2  484   1.596   1.358   2.875 -0.7884 -0.1178 -0.3329
  160TIP3   OH2  485   4.501   4.584   2.614  0.0503  0.2332 -0.1478
  160TIP3    H1  486   4.451   4.505   2.638 -0.6673  0.5109 -0.6940
  160TIP3    H2  487   4.561   4.597   2.688 -1.7227  0.7482  1.2684
  161TIP3   OH2  488   1.435   3.908   3.748 -0.5684  0.2702 -0.1982
  161TIP3    H1  489   1.352   3.916   3.795 -1.0824 -0.0001 -1.0354
  161TIP3    H2  490   1.464   3.998   3.734 -0.1132  0.3563  1.1057
  162TIP3   OH2  491   4.091   4.937   5.084 -0.1637  0.0892 -0.0108
  162TIP3    H1  492   4.034   4.872   5.126 -0.0970  0.2627  0.3564
  162TIP3    H2  493   4.178   4.897   5.087  0.0694  0.6188  1.1733
  163TIP3   OH2  494   5.935   5.481   0.176 -0.1979 -0.0174  0.1272
  163TIP3    H1  495   5.936   5.428   0.255 -0.8949  1.0882  0.9031
  163TIP3    H2  496   5.962   5.420   0.106  0.9350 -0.8798  1.2631
  164TIP3   OH2  497   4.697   4.641   3.734 -0.2387 -0.3859 -0.1726
  164TIP3    H1  498   4.707   4.731   3.763  0.2864 -0.3323 -0.5028
  164TIP3    H2  499   4.684   4.591   3.815 -1.9371  0.1463 -0.0847
  165TIP3   OH2  500   1.121   2.468   3.108  0.0412  0.2916  0.3691
  165TIP3    H1  501   1.194   2.407   3.104  2.1600  2.7137 -0.6248
  165TIP3    H2  502   1.085   2.468   3.020  1.1086  1.5922 -0.1027
  166TIP3   OH2  503   3.624   1.268   3.777  0.0171  0.2056  0.1065
  166TIP3    H1  504   3.549   1.225   3.736  0.6394  0.5729 -1.5097
  166TIP3    H2  505   3.688   1.198   3.788  0.3783  0.3532 -0.9154
  167TIP3   OH2  506   6.317   3.436   3.491  0.5647  0.1622  0.4822
  167TIP3    H1  507   6.339   3.461   3.581 -0.2372  1.1609  0.4287
  167TIP3    H2  508   6.303   3.520   3.447 -0.0731 -0.3464 -0.2995
  168TIP3   OH2  509   0.172   1.387   0.277 -0.2439 -0.2675  0.3568
  168TIP3    H1  510   0.256   1.413   0.239 -0.5920  1.6354  0.7819
  168TIP3    H2  511   0.108   1.402   0.207 -0.4232 -0.2930  0.5130
  169TIP3   OH2  512   0.805   0.197   2.721  0.2964 -0.1861  0.0491
  169TIP3    H1  513   0.815   0.127   2.786  0.0593  0.2655  0.5757
  169TIP3    H2  514   0.783   0.151   2.640  1.5431 -0.8261  0.0513
  170TIP3   OH2  515   2.981   0.838   4.487 -0.8278  0.3848 -0.1845
  170TIP3    H1  516   2.916   0.832   4.557 -1.0003 -1.3151 -0.4585
  170TIP3    H2  517   3.020   0.751   4.483 -0.3125  0.6573 -1.7314
  171TIP3   OH2  518   6.087   5.311   0.009 -0.3981  0.6243 -0.5099
  171TIP3    H1  519   6.068   5.234   0.063  0.8085  2.4903  2.9070
  171TIP3    H2  520   6.176   5.296  -0.024  0.0606  0.7630  0.6310
  172TIP3   OH2  521   4.746   4.139   3.612 -0.0278  0.2677 -0.0439
  172TIP3    H1  522   4.776   4.211   3.666  2.1494  0.6742 -1.6522
  172TIP3    H2  523   4.778   4.060   3.657  1.0821  0.5578 -0.2824
  173TIP3   OH2  524   0.392   5.714   4.115 -0.9943 -0.4693  0.0418
  173TIP3    H1  525   0.403   5.625   4.081 -0.6223 -1.1434  1.7970
  173TIP3    H2  526   0.480   5.740   4.143 -1.2046  0.2181  0.0791
  174TIP3   OH2  527   4.103   3.853   4.519 -0.0733 -0.1990 -0.2981
  174TIP3    H1  528   4.053   3.772   4.526 -0.5053 -0.0109 -1.1162
  174TIP3    H2  529   4.142   3.850   4.432  0.2281  0.2920 -0.1844
  175TIP3   OH2  530   4.896   5.727   1.230 -0.1818 -0.5336 -0.5129
  175TIP3    H1  531   4.978   5.680   1.213 -0.2714 -0.5065 -1.0277
  175TIP3    H2  532   4.900   5.749   1.323 -1.7084 -4.6726  0.7547
  176TIP3   OH2  533   1.907   4.534   1.283 -0.0883  0.6304  0.1561
  176TIP3    H1  534   1.932   4.549   1.192 -1.9651 -1.3123 -0.7728
  176TIP3    H2  535   1.897   4.622   1.320  2.9014  1.4686 -0.7945
  177TIP3   OH2  536   3.646   5.884   2.967 -0.7168 -0.0615  0.0025
  177TIP3    H1  537   3.661   5.974   2.939 -0.9791 -0.5145 -1.7235
  177TIP3    H2  538   3.730   5.856   3.003 -0.4046  0.6072 -0.1940
  178TIP3   OH2  539   2.143   2.502   3.109 -0.2042 -0.0113  0.3329
  178TIP3    H1  540   2.090   2.459   3.042 -0.2456  1.6319 -0.7335
  178TIP3    H2  541   2.137   2.443   3.185 -0.0720 -1.9592 -1.0958
  179TIP3   OH2  542   0.149   1.363   1.964 -0.1903 -0.2994 -0.4091
  179TIP3    H1  543   0.097   1.310   1.905 -0.0924 -1.5987  0.6398
  179TIP3    H2  544   0.201   1.301   2.014 -0.7582  0.6825  1.5296
  180TIP3   OH2  545   2.499   3.962   3.668  0.7656  0.1536 -0.0503
  180TIP3    H1  546   2.434   4.012   3.619  0.8954  0.3535 -0.0192
  180TIP3    H2  547   2.542   4.027   3.724  0.7615 -0.0367  0.1733
  181TIP3   OH2  548   2.402   2.856   3.512  0.1483 -0.1074  0.5338
  181TIP3    H1  549   2.403   2.887   3.602  0.8419 -0.1553  0.5494
  181TIP3    H2  550   2.437   2.929   3.460 -1.6063  0.4609  0.1069
  182TIP3   OH2  551   1.990   3.841   2.112 -0.3787 -0.5117  0.1645
  182TIP3    H1  552   2.022   3.905   2.048 -1.9695  0.4913  0.2912
  182TIP3    H2  553   1.939   3.779   2.060 -0.2821 -0.6611  0.2494
  183TIP3   OH2  554   4.678   3.862   1.669 -0.3692  0.6147 -0.4240
  183TIP3    H1  555   4.699   3.939   1.617  1.2058 -1.0337 -2.3764
  183TIP3    H2  556   4.584   3.850   1.658 -0.3292  1.2642 -1.5131
  184TIP3   OH2  557   5.990   3.416   3.486  0.1955  0.0780 -0.0605
  184TIP3    H1  558   6.057   3.477   3.517 -0.0176  1.3775 -1.9808
  184TIP3    H2  559   6.034   3.331   3.483  0.7342  0.2438  1.8862
  185TIP3   OH2  560   3.650   2.870   2.683  0.1588 -0.2424  0.5397
  185TIP3    H1  561   3.673   2.917   2.763  4.3453 -1.4840  0.3469
  185TIP3    H2  562   3.662   2.778   2.705 -3.1310 -1.0265 -0.3883
  186TIP3   OH2  563   3.074   2.380   2.602  0.3762  0.0816 -0.0602
  186TIP3    H1  564   3.031   2.321   2.540 -0.8343  0.2052  0.6322
  186TIP3    H2  565   3.155   2.335   2.625  0.5863 -0.2161 -1.3025
  187TIP3   OH2  566   1.579   4.402   1.006  0.4252 -0.0368 -0.2915
  187TIP3    H1  567   1.565   4.480   0.952 -0.6266  0.7537  1.0418
  187TIP3    H2  568   1.517   4.338   0.972  0.7191 -0.0167 -0.8767
  188TIP3   OH2  569   3.776   4.735   1.412 -0.3563 -0.3059 -0.4175
  188TIP3    H1  570   3.744   4.682   1.484  1.7287 -1.3293 -0.1719
  188TIP3    H2  571   3.775   4.825   1.445  0.7647 -0.7799  0.9957
  189TIP3   OH2  572   1.216   4.948   1.430  0.1420 -0.2756  0.0962
  189TIP3    H1  573   1.167   4.897   1.494  0.1441 -0.0152  0.3093
  189TIP3    H2  574   1.308   4.937   1.455  0.0847  0.6987  0.8096
  190TIP3   OH2  575   6.358   1.044   3.777  0.1777 -0.9398  0.1847
  190TIP3    H1  576   6.353   1.013   3.867 -1.2504 -0.3498  0.3419
  190TIP3    H2  577   6.327   0.970   3.725  0.2135 -1.0020  0.2518
  191TIP3   OH2  578   0.318   4.785   1.953  0.7664  0.3211 -0.4375
  191TIP3    H1  579   0.245   4.800   1.892  1.5292  0.2439 -1.3988
  191TIP3    H2  580   0.396   4.808   1.902  1.5166 -0.9769  0.0944
  192TIP3   OH2  581   3.215   1.910   3.510 -0.0683  0.0423  0.7872
  192TIP3    H1  582   3.183   1.829   3.469  0.7062  0.0372  0.1827
  192TIP3    H2  583   3.283   1.942   3.451 -1.5013  2.0626  0.1259
  193TIP3   OH2  584   1.230   0.967   0.155 -0.4757 -0.6454 -0.1076
  193TIP3    H1  585   1.281   1.009   0.224  0.2711 -1.0213 -0.4213
  193TIP3    H2  586   1.139   0.981   0.181 -0.2409  0.6827  0.0789
  194TIP3   OH2  587   4.954   2.881   4.020  0.0360  0.5368 -0.2679
  194TIP3    H1  588   4.859   2.874   4.008  0.0852  0.6003 -0.6970
  194TIP3    H2  589   4.965   2.888   4.115 -0.5889  3.6614 -0.3136
  195TIP3   OH2  590   2.529   5.524   4.702 -0.7735  0.1963 -0.5246
  195TIP3    H1  591   2.514   5.599   4.759  0.0635 -0.3214  0.4227
  195TIP3    H2  592   2.543   5.561   4.616  0.8312  1.2500  0.1410
  196TIP3   OH2  593   0.166   3.574   4.257 -0.6571  0.1879 -0.3643
  196TIP3    H1  594   0.195   3.502   4.313  0.6491  1.4626  0.6758
  196TIP3    H2  595   0.080   3.598   4.292 -0.1935  0.4640  0.6249
  197TIP3   OH2  596   2.938   3.939   0.518  0.0774 -0.2857  0.4132
  197TIP3    H1  597   2.990   3.901   0.588  1.2531 -0.8869 -0.7325
  197TIP3    H2  598   3.000   3.993   0.469 -0.9052  0.7716  0.2895
  198TIP3   OH2  599   3.324   5.847   3.843 -0.2621 -0.1895  0.0622
  198TIP3    H1  600   3.398   5.809   3.797 -0.6665 -0.1509 -0.6409
  198TIP3    H2  601   3.311   5.932   3.800  0.9361  0.9993  1.9266
  199TIP3   OH2  602   1.416   3.013   2.607 -0.2356  0.2599  0.3611
  199TIP3    H1  603   1.361   3.009   2.685 -0.7625 -0.9976 -0.0595
  199TIP3    H2  604   1.484   3.077   2.629  0.3733 -0.9714  2.3570
  200TIP3   OH2  605   4.223   3.313   0.066  0.0166 -0.3256  0.3749
  200TIP3    H1  606   4.313   3.318   0.098  0.7894 -2.1239 -1.3225
  200TIP3    H2  607   4.207   3.220   0.054 -2.1735 -0.0516  0.8104
  201TIP3   OH2  608   1.602   4.362   0.118  0.3559 -0.0564  0.0142
  201TIP3    H1  609   1.534   4.389   0.181 -0.0569 -0.3472 -0.2999
  201TIP3    H2  610   1.626   4.442   0.073 -1.6903 -0.3450 -1.7199
  202TIP3   OH2  611   1.460   0.319   0.749 -0.7347  0.2902 -0.1642
  202TIP3    H1  612   1.399   0.247   0.740 -0.4630  0.1200 -0.6661
  202TIP3    H2  613   1.494   0.311   0.838  0.0368 -0.8025 -0.5338
  203TIP3   OH2  614   4.264   0.275   4.476 -0.3457  0.4378  0.3274
  203TIP3    H1  615   4.311   0.352   4.506 -0.9028  1.0648 -0.3656
  203TIP3    H2  616   4.190   0.310   4.425  1.0827 -0.5138 -2.6664
  204TIP3   OH2  617   4.170   3.041   2.553 -0.1101 -0.2842 -0.2386
  204TIP3    H1  618   4.124   3.015   2.473  0.3507 -1.8740 -0.0102
  204TIP3    H2  619   4.218   3.121   2.528 -0.7305 -0.2190 -1.2676
  205TIP3   OH2  620   0.049   2.414   1.381  0.5650  0.1650  0.2060
  205TIP3    H1  621   0.072   2.416   1.288  0.5083 -1.2956  0.1278
  205TIP3    H2  622   0.087   2.493   1.417 -1.4517  2.0555 -1.4898
  206TIP3   OH2  623   0.128  -0.012   4.283 -0.6570  0.2059  0.5593
  206TIP3    H1  624   0.152   0.073   4.322 -1.9399  2.0234 -2.3087
  206TIP3    H2  625   0.211  -0.059   4.277  0.4696  2.0682  0.4769
  207TIP3   OH2  626   2.351   5.688   2.950  0.1010 -0.2554 -0.1322
  207TIP3    H1  627   2.434   5.714   2.989 -0.3894  2.0615 -0.4558
  207TIP3    H2  628   2.286   5.746   2.990 -1.2800 -1.5835 -0.3452
  208TIP3   OH2  629   2.261   3.974   1.050 -0.8642 -0.7224  0.3790
  208TIP3    H1  630   2.295   3.986   1.139 -1.5238 -0.9303  0.6700
  208TIP3    H2  631   2.173   3.939   1.063 -2.6607  3.0249 -0.1794
  209TIP3   OH2  632   1.252   0.809   3.254  0.2141  0.3635  0.2395
  209TIP3    H1  633   1.195   0.741   3.289  2.5008 -1.6688  0.2204
  209TIP3    H2  634   1.325   0.813   3.315  0.6788  2.0610 -0.3768
  210TIP3   OH2  635   2.642   3.721   3.675  0.1822 -0.2044 -0.0231
  210TIP3    H1  636   2.641   3.669   3.755  1.6118  0.2871  0.3258
  210TIP3    H2  637   2.572   3.785   3.687 -0.2891 -0.7846  0.3835
  211TIP3   OH2  638   1.468   1.171   1.953 -0.2534 -0.2578  0.3861
  211TIP3    H1  639   1.524   1.167   1.876 -0.1982  1.8943  0.2673
  211TIP3    H2  640   1.515   1.119   2.019  1.6696  1.0640  0.1335
  212TIP3   OH2  641   2.709   0.654   5.123  0.5951  0.0146 -0.1035
  212TIP3    H1  642   2.746   0.578   5.169 -0.0359 -0.9061 -1.0521
  212TIP3    H2  643   2.778   0.720   5.124  1.7241 -1.1231 -0.5639
  213TIP3   OH2  644   2.819   5.126   1.833  0.1072 -0.3355  0.1020
  213TIP3    H1  645   2.868   5.180   1.896  1.8481 -0.5578 -0.9912
  213TIP3    H2  646   2.818   5.179   1.753 -2.5594  0.1893  0.3931
  214TIP3   OH2  647   5.218   4.961   3.723  0.4762 -0.2443  0.3483
  214TIP3    H1  648   5.179   4.913   3.649  1.1948 -0.8739  0.3681
  214TIP3    H2  649   5.307   4.982   3.694 -0.0100  1.6852  0.0809
  215TIP3   OH2  650   6.121   0.918   5.060  0.2336  0.2855  0.4821
  215TIP3    H1  651   6.166   0.938   4.977  0.9005  1.2292  1.0515
  215TIP3    H2  652   6.144   0.826   5.077 -0.1055  0.0053 -0.4900
  216TIP3   OH2  653   5.284   2.418   0.561 -0.2669  0.1082  0.0478
  216TIP3    H1  654   5.191   2.420   0.537 -0.2090 -2.1398 -0.6304
  216TIP3    H2  655   5.285   2.383   0.650 -0.0810  0.4857  0.1962
  217TIP3   OH2  656   6.202   5.079   0.750 -0.5068  0.7328  0.1537
  217TIP3    H1  657   6.154   5.092   0.832 -1.0370  3.8017 -0.5115
  217TIP3    H2  658   6.275   5.022   0.774 -2.0881 -0.6185  2.1282
  218TIP3   OH2  659   5.693   3.169   4.268  0.1180  0.4787 -0.3137
  218TIP3    H1  660   5.745   3.089   4.256  0.6714  0.9486 -1.1343
  218TIP3    H2  661   5.758   3.239   4.272 -0.3423  0.8700  0.7102
  219TIP3   OH2  662   5.072   5.967   0.107 -0.1309 -0.4365 -0.2030
  219TIP3    H1  663   5.148   6.025   0.102  0.6877 -1.1930  2.1054
  219TIP3    H2  664   5.108   5.879   0.100 -1.0123 -0.7649 -0.7733
  220TIP3   OH2  665   0.091   3.021   2.861  0.1612 -0.3066 -0.2478
  220TIP3    H1  666   0.096   3.052   2.771  0.7035 -1.3591 -0.5958
  220TIP3    H2  667   0.085   3.101   2.914  1.2063  0.3696 -1.1233
  221TIP3   OH2  668   6.257   1.268   3.601  0.4341  0.4583 -0.5117
  221TIP3    H1  669   6.268   1.189   3.654  0.5123  0.3525 -0.6878
  221TIP3    H2  670   6.162   1.277   3.591  0.4662 -1.2363 -2.9433
  222TIP3   OH2  671   3.315   5.934   4.104  0.3756  0.5184  0.0080
  222TIP3    H1  672   3.250   6.004   4.096 -3.4416 -2.5987  0.4120
  222TIP3    H2  673   3.326   5.901   4.014  0.4912  0.3154  0.0948
  223TIP3   OH2  674   3.287   3.792   4.108 -0.0056  0.3771 -0.0276
  223TIP3    H1  675   3.340   3.824   4.035  0.7871  2.1924  1.2632
  223TIP3    H2  676   3.338   3.720   4.145  0.8729  1.1241  0.2724
  224TIP3   OH2  677   3.173   1.285   0.388 -0.1507 -0.4392 -0.6381
  224TIP3    H1  678   3.093   1.318   0.346 -0.6973 -1.8229 -0.7126
  224TIP3    H2  679   3.209   1.223   0.325 -1.9902 -4.0422  1.5613
  225TIP3   OH2  680   5.177   4.719   3.065  0.4329  0.0278  0.2265
  225TIP3    H1  681   5.138   4.705   3.152 -0.0130  1.6239  0.3237
  225TIP3    H2  682   5.234   4.643   3.052 -2.0539 -2.0220  0.4304
  226TIP3   OH2  683   2.714   0.365   1.483  0.1098 -0.7381  0.3701
  226TIP3    H1  684   2.670   0.435   1.530 -1.4339  0.3474 -2.4718
  226TIP3    H2  685   2.672   0.285   1.513 -0.1134 -0.2108  1.5170
  227TIP3   OH2  686   2.373   4.503   1.600  0.1957  0.3277  0.2646
  227TIP3    H1  687   2.286   4.467   1.616  0.8495 -0.4135  2.5147
  227TIP3    H2  688   2.420   4.433   1.555 -0.2061  0.5411 -0.5003
  228TIP3   OH2  689   3.064   1.805   4.421  0.5244 -0.2021  0.2263
  228TIP3    H1  690   3.047   1.764   4.337  0.6113  0.1553  0.0331
  228TIP3    H2  691   3.002   1.763   4.481 -0.7442  0.7646 -0.3641
  229TIP3   OH2  692   5.068   0.164   4.798  0.1217 -0.2948 -0.1504
  229TIP3    H1  693   5.044   0.121   4.880 -0.6582 -1.5083 -0.9720
  229TIP3    H2  694   5.164   0.169   4.801  0.0844 -0.0417  0.9589
  230TIP3   OH2  695   3.039   2.446   3.362  0.2163  0.2358 -0.0878
  230TIP3    H1  696   3.015   2.538   3.374 -1.7210 -0.4062  1.4498
  230TIP3    H2  697   2.987   2.418   3.286  1.2215  0.5016 -0.9046
  231TIP3   OH2  698   3.313   4.855   1.865  0.0987  0.1323 -0.0833
  231TIP3    H1  699   3.364   4.895   1.935  0.9050 -0.0777 -0.5388
  231TIP3    H2  700   3.224   4.888   1.878  0.5875  1.4926 -0.0135
  232TIP3   OH2  701   5.185   2.649   1.273  0.1453  0.0442  0.2560
  232TIP3    H1  702   5.211   2.714   1.339 -0.1461  0.5438 -0.1166
  232TIP3    H2  703   5.193   2.565   1.319 -2.3667  0.5156  1.7446
  233TIP3   OH2  704   1.496   2.307   4.087 -0.5862 -0.5803  0.0718
  233TIP3    H1  705   1.526   2.216   4.086 -0.7397 -0.6313  0.0167
  233TIP3    H2  706   1.405   2.302   4.056 -0.8792 -0.5134  0.8896
  234TIP3   OH2  707   3.589   2.853   1.917  0.7546  0.0877 -0.7323
  234TIP3    H1  708   3.568   2.806   1.998  0.4449  1.0339 -0.2535
  234TIP3    H2  709   3.675   2.892   1.934  0.3937  0.8396 -0.6012
  235TIP3   OH2  710   3.636   2.679   4.166 -0.3042  0.0116 -0.2755
  235TIP3    H1  711   3.647   2.584   4.158  0.4637 -0.0360  1.0472
  235TIP3    H2  712   3.666   2.713   4.082 -1.9631 -0.9763 -1.3248
  236TIP3   OH2  713   5.988   2.961   0.565  0.0449 -0.1969  0.0879
  236TIP3    H1  714   5.937   3.007   0.632  0.7007  0.6868  0.0032
  236TIP3    H2  715   6.057   3.022   0.542  1.0635 -1.3107  0.0921
  237TIP3   OH2  716   4.757   3.238   0.371  0.3984 -0.1328  0.4102
  237TIP3    H1  717   4.825   3.229   0.305  1.8226  1.2440  1.6154
  237TIP3    H2  718   4.700   3.162   0.358  2.8189 -2.0124  0.0934
  238TIP3   OH2  719   4.659   3.695   0.828  0.1835 -0.1903  0.9883
  238TIP3    H1  720   4.748   3.728   0.836 -0.1814  0.7273  1.3927
  238TIP3    H2  721   4.667   3.601   0.842  1.2536 -0.3181 -0.2947
  239TIP3   OH2  722   5.400   4.517   1.075 -0.5242  0.3363 -0.1268
  239TIP3    H1  723   5.415   4.599   1.028 -2.7029  1.3092  0.7594
  239TIP3    H2  724   5.366   4.457   1.008 -0.2596  0.5798 -0.4844
  240TIP3   OH2  725   0.622   3.988   4.128 -0.3579 -0.2720  0.0095
  240TIP3    H1  726   0.595   4.056   4.189  2.5099 -0.3104  1.4883
  240TIP3    H2  727   0.703   4.020   4.089 -0.1038 -1.9024 -0.9356
  241TIP3   OH2  728   1.367   1.390   2.065  0.2274 -0.0443  0.4192
  241TIP3    H1  729   1.403   1.316   2.016  1.2541  0.7161 -0.0262
  241TIP3    H2  730   1.398   1.377   2.155 -0.2697 -0.5613  0.5254
  242TIP3   OH2  731   4.965   2.963   4.598 -0.3201  0.1531  0.0055
  242TIP3    H1  732   4.915   3.014   4.535 -2.1145  0.2407  1.3999
  242TIP3    H2  733   4.998   3.027   4.661 -0.5561 -0.1391  0.4385
  243TIP3   OH2  734   0.722   3.264   3.096  0.0004 -0.2341 -0.1852
  243TIP3    H1  735   0.731   3.171   3.118  0.7262 -0.0649  0.3024
  243TIP3    H2  736   0.756   3.310   3.174 -0.1477  0.4324 -0.5050
  244TIP3   OH2  737   3.335   3.196   0.646  0.2341  0.4514  0.3237
  244TIP3    H1  738   3.310   3.106   0.626  2.1754  0.3385 -2.0077
  244TIP3    H2  739   3.421   3.189   0.688 -0.0379  1.1920  1.0329
  245TIP3   OH2  740   3.997   4.062   2.116 -0.6447  1.0289  0.5437
  245TIP3    H1  741   3.965   4.145   2.081 -0.1902  0.4322 -1.4908
  245TIP3    H2  742   4.085   4.054   2.079 -1.6240 -1.5312 -1.5978
  246TIP3   OH2  743   0.658   2.040   3.568  0.5997  0.0381  0.2565
  246TIP3    H1  744   0.733   2.009   3.619 -0.2288 -1.1202  0.8190
  246TIP3    H2  745   0.600   2.078   3.634 -0.8171 -2.1323  0.3378
  247TIP3   OH2  746   0.093   4.144   1.678  0.4331  0.2592  0.0481
  247TIP3    H1  747   0.186   4.124   1.668  0.1466 -0.5907 -1.0788
  247TIP3    H2  748   0.049   4.060   1.669 -0.4945  0.7521 -0.1039
  248TIP3   OH2  749   1.844   3.904   5.087  0.1232  0.9099 -0.7147
  248TIP3    H1  750   1.920   3.959   5.072  0.2832  1.1652  0.8345
  248TIP3    H2  751   1.794   3.908   5.006  0.8217  2.2268 -1.0952
  249TIP3   OH2  752   1.659   1.218   3.159  1.1215  0.0468  0.1841
  249TIP3    H1  753   1.730   1.272   3.125  1.1178  0.6194  1.0788
  249TIP3    H2  754   1.637   1.256   3.243  0.1989 -0.5321  0.2205
  250TIP3   OH2  755   5.765   1.509   0.740 -0.3538 -0.5176  0.2294
  250TIP3    H1  756   5.783   1.428   0.694 -1.0006  0.3470 -1.6158
  250TIP3    H2  757   5.669   1.516   0.742 -0.3582 -0.5288  1.7536
  251TIP3   OH2  758   5.932   0.250   0.238 -0.1110  0.0558  0.0788
  251TIP3    H1  759   5.914   0.282   0.150 -2.1930  0.6292  0.6553
  251TIP3    H2  760   5.870   0.297   0.294  1.4978  0.0980  1.9471
  252TIP3   OH2  761   4.225   2.586   2.641 -0.0792  0.2853 -0.1036
  252TIP3    H1  762   4.209   2.585   2.547 -0.9110  1.0132  0.0118
  252TIP3    H2  763   4.201   2.674   2.669 -0.4098 -0.0911  0.8750
  253TIP3   OH2  764   2.685   5.741   1.367  0.2726  0.5625  0.9706
  253TIP3    H1  765   2.704   5.799   1.441 -0.0827 -0.5520  1.9691
  253TIP3    H2  766   2.624   5.677   1.402  0.3332 -0.1751 -0.2163
  254TIP3   OH2  767   2.219   0.487   3.598  0.0585 -0.1370  0.2015
  254TIP3    H1  768   2.288   0.488   3.532  1.7409 -0.0062  1.8910
  254TIP3    H2  769   2.247   0.420   3.661 -0.7470  0.7217  1.5170
  255TIP3   OH2  770   3.546   5.708   3.723 -0.6782  0.0465  0.4521
  255TIP3    H1  771   3.588   5.794   3.714 -0.1666 -0.3287 -1.0914
  255TIP3    H2  772   3.618   5.647   3.736 -0.9005 -0.3433 -0.1121
  256TIP3   OH2  773   1.649   2.221   4.716  0.2508 -0.6456  0.1934
  256TIP3    H1  774   1.676   2.130   4.719  0.6771 -0.5035  1.1778
  256TIP3    H2  775   1.566   2.223   4.765  0.5170 -0.4204  0.6392
  257TIP3   OH2  776   5.274   0.477   1.546  0.1554 -0.0510 -0.6872
  257TIP3    H1  777   5.192   0.432   1.565 -0.1236  1.1375  1.0944
  257TIP3    H2  778   5.247   0.557   1.501  0.4807 -0.3878 -1.5165
  258TIP3   OH2  779   5.728  -0.012   3.687 -0.8281 -0.7078 -0.1860
  258TIP3    H1  780   5.812   0.015   3.651  0.0445 -1.5182  1.1533
  258TIP3    H2  781   5.705   0.058   3.749 -0.0246 -1.5190  1.0779
  259TIP3   OH2  782   4.167   0.820   2.652 -0.0431 -0.3949  0.0694
  259TIP3    H1  783   4.156   0.749   2.715  0.5886 -1.7162 -1.2425
  259TIP3    H2  784   4.211   0.889   2.701 -0.8406 -0.8064  1.4335
  260TIP3   OH2  785   2.758   1.709   2.766 -0.0569 -0.1224  0.0225
  260TIP3    H1  786   2.723   1.768   2.831  0.4384  0.1726  0.0305
  260TIP3    H2  787   2.791   1.634   2.816 -1.2529 -0.7031 -0.0406
  261TIP3   OH2  788   1.167   5.618   1.351 -0.4163  0.2507 -0.6435
  261TIP3    H1  789   1.151   5.542   1.296 -0.2462 -0.3830  0.1606
  261TIP3    H2  790   1.257   5.644   1.330 -1.3533  1.9655 -2.9465
  262TIP3   OH2  791   6.259   4.375   1.303  0.4149 -0.0019 -0.0051
  262TIP3    H1  792   6.166   4.393   1.317  0.1105 -0.2200 -1.5851
  262TIP3    H2  793   6.282   4.313   1.372 -0.5159  0.3279  0.6152
  263TIP3   OH2  794   6.007   4.016   1.845 -0.3194 -0.3450  0.0063
  263TIP3    H1  795   5.944   4.077   1.808  0.6501 -1.0410 -3.0511
  263TIP3    H2  796   6.085   4.069   1.862 -0.5972 -0.1212  0.6171
  264TIP3   OH2  797   3.441   1.336   4.647  0.4629  0.2130 -0.4222
  264TIP3    H1  798   3.398   1.258   4.681  0.1592  0.4442 -0.2694
  264TIP3    H2  799   3.416   1.406   4.707  1.7638  0.1933  0.1815
  265TIP3   OH2  800   0.270   0.551   2.157 -0.1936 -0.2725  0.1972
  265TIP3    H1  801   0.177   0.575   2.157 -0.1175  0.0183  0.4200
  265TIP3    H2  802   0.274   0.472   2.211 -0.3015 -0.2464  0.2449
  266TIP3   OH2  803   2.330   2.865   1.253 -0.7225  0.0814 -0.1656
  266TIP3    H1  804   2.248   2.841   1.295 -0.2999 -2.1353 -0.4898
  266TIP3    H2  805   2.319   2.840   1.161  0.0931  0.3164 -0.3382
  267TIP3   OH2  806   0.361   2.844   4.686 -0.4319  0.0184  0.2411
  267TIP3    H1  807   0.275   2.812   4.657  0.5382 -2.4342 -0.1320
  267TIP3    H2  808   0.381   2.915   4.624 -1.2803 -0.7857 -1.0227
  268TIP3   OH2  809   4.448   1.810   4.413  0.1269  0.5588  0.2975
  268TIP3    H1  810   4.434   1.860   4.333  0.7864  2.6438  1.4231
  268TIP3    H2  811   4.378   1.744   4.412 -0.2433  0.9106 -1.6592
  269TIP3   OH2  812   2.473   0.173   1.314 -0.0744  0.4947 -0.6561
  269TIP3    H1  813   2.445   0.175   1.223 -0.2743 -0.7923 -0.6337
  269TIP3    H2  814   2.441   0.256   1.351 -2.5401 -0.2360 -1.0038
  270TIP3   OH2  815   1.647   5.721   4.906  0.5876  0.4601 -0.1742
  270TIP3    H1  816   1.692   5.653   4.956  1.2359  1.3346  0.4527
  270TIP3    H2  817   1.659   5.801   4.957 -0.6532  0.9497 -0.6066
  271TIP3   OH2  818   0.419   0.222   3.188 -0.6155 -0.1072  0.1935
  271TIP3    H1  819   0.397   0.315   3.192 -0.1014  0.2154 -2.6615
  271TIP3    H2  820   0.345   0.181   3.144 -0.0673 -0.7213 -0.1898
  272TIP3   OH2  821   2.951   2.304   3.756  0.2083  0.3753 -0.2123
  272TIP3    H1  822   2.922   2.391   3.785 -1.3234 -0.4212  0.7692
  272TIP3    H2  823   2.933   2.246   3.830  2.2605 -0.6294 -0.4271
  273TIP3   OH2  824   4.069   3.620   4.763 -0.7822 -0.4004  0.3824
  273TIP3    H1  825   4.076   3.547   4.701 -1.8116 -0.7420  0.6468
  273TIP3    H2  826   4.010   3.587   4.831 -2.1454  1.0616 -0.0449
  274TIP3   OH2  827   0.747   2.432   3.118 -0.3106 -0.3906 -0.2981
  274TIP3    H1  828   0.801   2.504   3.151  0.8428 -0.9435 -0.9259
  274TIP3    H2  829   0.693   2.407   3.193  1.1480 -0.5885  0.7352
  275TIP3   OH2  830   3.997   1.248   4.162  0.3394 -0.3263  0.5823
  275TIP3    H1  831   4.040   1.224   4.244  0.7557  1.1938  0.8462
  275TIP3    H2  832   3.904   1.230   4.177  0.2480  1.0323  1.8458
  276TIP3   OH2  833   2.739   0.725   4.210  0.4751 -0.0114 -0.0073
  276TIP3    H1  834   2.670   0.754   4.270  0.1253  0.8693 -0.8010
  276TIP3    H2  835   2.700   0.652   4.161 -0.2290  0.9976 -1.0216
  277TIP3   OH2  836   4.280   1.307   1.118  0.1846 -0.2153  0.0181
  277TIP3    H1  837   4.196   1.267   1.139  1.1088 -1.3629  1.7910
  277TIP3    H2  838   4.303   1.270   1.032 -0.5869 -0.7728  0.0404
  278TIP3   OH2  839   1.931   2.752   1.649  0.7207 -0.2936 -0.4168
  278TIP3    H1  840   1.958   2.745   1.741  0.2201  1.0647 -0.1547
  278TIP3    H2  841   1.872   2.827   1.647  1.2517  0.1082 -1.9704
  279TIP3   OH2  842   1.399   1.508   1.764  0.3777 -0.6280 -0.4307
  279TIP3    H1  843   1.439   1.521   1.850  0.5056 -1.3184 -0.3860
  279TIP3    H2  844   1.472   1.489   1.706  0.1619 -1.5248 -0.4197
  280TIP3   OH2  845   4.442   4.390   2.125  0.1311 -0.2226  0.0735
  280TIP3    H1  846   4.498   4.383   2.202 -0.5479 -0.1450  0.5849
  280TIP3    H2  847   4.373   4.325   2.140 -1.0300  1.0571  0.4202
  281TIP3   OH2  848   2.332   0.253   2.751  0.0410  0.7435  0.0728
  281TIP3    H1  849   2.274   0.206   2.811  0.1935  0.6829  0.1714
  281TIP3    H2  850   2.378   0.184   2.703 -2.5270  0.6339 -2.5788
  282TIP3   OH2  851   1.813   0.032   5.198 -0.5809  0.2663  0.1325
  282TIP3    H1  852   1.724   0.001   5.181 -0.8946  0.9322  0.4984
  282TIP3    H2  853   1.841   0.072   5.116  0.1939 -1.7897 -0.6475
  283TIP3   OH2  854   0.042   2.760   0.001  0.3351 -0.5122 -0.0111
  283TIP3    H1  855  -0.032   2.798  -0.046  1.5850  0.1278 -1.5164
  283TIP3    H2  856   0.052   2.816   0.078 -1.0508 -0.9187  0.4949
  284TIP3   OH2  857   2.687   2.294   0.603 -0.1263 -0.2288  0.5267
  284TIP3    H1  858   2.612   2.235   0.598  0.4479 -0.9033 -0.2941
  284TIP3    H2  859   2.709   2.314   0.512  0.5219  0.1836  0.7616
  285TIP3   OH2  860   2.302   4.682   0.737 -0.5190 -0.1290  0.4781
  285TIP3    H1  861   2.393   4.695   0.764 -0.9728 -0.3619  2.2011
  285TIP3    H2  862   2.284   4.590   0.755 -0.4312 -0.7401 -2.0798
  286TIP3   OH2  863   3.695   0.215   2.594  0.2846  0.4976 -0.3802
  286TIP3    H1  864   3.790   0.216   2.578  0.1238  0.4936 -1.3438
  286TIP3    H2  865   3.664   0.301   2.565  0.1675  0.9899  1.1201
  287TIP3   OH2  866   6.131   3.331   1.355 -0.4128 -0.2366 -0.8222
  287TIP3    H1  867   6.165   3.398   1.414 -0.8407  0.6595 -1.5664
  287TIP3    H2  868   6.121   3.253   1.410 -2.4678  1.0331  0.7607
  288TIP3   OH2  869   0.999   5.920   4.420  0.4344  0.0390 -0.2428
  288TIP3    H1  870   0.945   5.912   4.499 -1.9361  0.6373 -1.7036
  288TIP3    H2  871   1.027   6.012   4.419 -2.9868  1.2282 -2.0558
  289TIP3   OH2  872   1.803   0.877   4.404  0.1286  0.0350 -0.0729
  289TIP3    H1  873   1.778   0.926   4.483 -1.0362 -2.1740  1.0026
  289TIP3    H2  874   1.897   0.894   4.395 -0.0291  1.6430  0.8032
  290TIP3   OH2  875   0.955   0.889   3.354  0.2298  0.3308 -0.1309
  290TIP3    H1  876   1.016   0.817   3.366 -0.7885 -0.5297  0.0632
  290TIP3    H2  877   0.875   0.859   3.398  0.4579  2.4856  1.9480
  291TIP3   OH2  878   3.178   4.759   4.707 -0.0463  0.2725 -0.0025
  291TIP3    H1  879   3.113   4.818   4.668  0.9236  1.4789  0.1477
  291TIP3    H2  880   3.254   4.766   4.649  0.1932 -0.5963  0.1980
  292TIP3   OH2  881   5.681   5.805   3.720 -0.0417 -0.3361 -0.5490
  292TIP3    H1  882   5.773   5.802   3.746  0.0738 -1.7177 -1.0117
  292TIP3    H2  883   5.658   5.713   3.704 -1.9001 -0.1667  0.9043
  293TIP3   OH2  884   3.122   5.673   0.922  0.1195  0.1960  0.4457
  293TIP3    H1  885   3.040   5.652   0.879  0.3447 -0.9460  0.5332
  293TIP3    H2  886   3.111   5.762   0.953 -0.6389  0.4768 -0.5800
  294TIP3   OH2  887   2.389   0.353   4.636 -0.1728  0.7627  0.0280
  294TIP3    H1  888   2.363   0.416   4.703  1.5218  2.5756 -0.9178
  294TIP3    H2  889   2.317   0.290   4.634 -0.7754  1.2011  2.7866
  295TIP3   OH2  890   4.607   1.473   2.325 -0.4079 -0.5127 -0.5019
  295TIP3    H1  891   4.598   1.462   2.419 -0.0732 -1.8319 -0.6086
  295TIP3    H2  892   4.696   1.508   2.314 -0.7278  0.4029 -0.2955
  296TIP3   OH2  893   5.893   2.702   3.617 -0.1262  0.4439  0.0198
  296TIP3    H1  894   5.895   2.643   3.693 -0.0222 -1.2642 -1.2371
  296TIP3    H2  895   5.853   2.782   3.650  0.3568 -0.0673  1.9851
  297TIP3   OH2  896   4.584   0.625   2.654  0.1502  0.3275  0.4500
  297TIP3    H1  897   4.523   0.678   2.604  1.1378  0.4844 -0.6396
  297TIP3    H2  898   4.544   0.617   2.741 -2.5553 -1.5450 -0.8311
  298TIP3   OH2  899   3.836   0.549   2.071 -0.6917 -0.3804  0.2484
  298TIP3    H1  900   3.872   0.544   1.982 -0.9063 -0.2083  0.1505
  298TIP3    H2  901   3.897   0.608   2.117 -1.4432  0.8015 -0.2208
  299TIP3   OH2  902   5.334   3.758   4.756  0.4879  0.0973 -0.3568
  299TIP3    H1  903   5.358   3.683   4.810  2.2117  0.0009 -1.1781
  299TIP3    H2  904   5.360   3.835   4.807 -0.8679  0.1465  0.2941
  300TIP3   OH2  905   5.488   5.062   4.376  0.7131 -0.0267 -0.1228
  300TIP3    H1  906   5.485   5.157   4.380  2.3680  0.0717 -0.6867
  300TIP3    H2  907   5.466   5.034   4.465 -1.1047  0.8030 -0.2670
  301TIP3   OH2  908   2.239   3.175   0.959 -0.1592  0.5280 -0.4505
  301TIP3    H1  909   2.271   3.265   0.968  0.0209  0.4303 -0.1037
  301TIP3    H2  910   2.144   3.183   0.950 -0.3158  0.6590  1.1229
  302TIP3   OH2  911   3.611   5.672   4.076 -0.4183  0.0433  0.8172
  302TIP3    H1  912   3.527   5.630   4.059 -0.7137  1.5673 -2.0898
  302TIP3    H2  913   3.593   5.730   4.150 -1.9786  0.3960  0.2035
  303TIP3   OH2  914   5.798   6.022   2.985 -0.2784  0.4715 -0.4872
  303TIP3    H1  915   5.720   5.993   2.939 -0.3040 -0.9284  0.3725
  303TIP3    H2  916   5.832   5.943   3.027 -0.5558  1.7075  2.3221
  304TIP3   OH2  917   3.983   1.721   2.837 -0.4959 -0.2620  0.3984
  304TIP3    H1  918   4.009   1.647   2.783 -3.5600 -1.9265  1.0110
  304TIP3    H2  919   3.988   1.688   2.927  0.3028  1.0668  0.8758
  305TIP3   OH2  920   2.978   1.806   0.529 -0.4276  0.0980  0.1845
  305TIP3    H1  921   3.004   1.746   0.599 -2.0532 -0.9352 -0.0478
  305TIP3    H2  922   2.885   1.823   0.546 -0.4997  0.9240 -0.9535
  306TIP3   OH2  923   1.577   3.792   2.716 -0.2237 -0.5412  0.4572
  306TIP3    H1  924   1.646   3.858   2.718  1.8442 -2.5248 -0.2256
  306TIP3    H2  925   1.537   3.795   2.803  0.3064  1.0667  0.6613
  307TIP3   OH2  926   0.645   4.627   0.887  0.4237 -0.0748 -0.1962
  307TIP3    H1  927   0.650   4.532   0.878  0.6372 -0.2795  1.6244
  307TIP3    H2  928   0.552   4.646   0.888  0.3757 -0.3091 -0.1296
  308TIP3   OH2  929   1.128   3.644   4.013 -0.0073  0.5236  0.4865
  308TIP3    H1  930   1.164   3.621   4.098 -0.6973 -0.8557  0.4396
  308TIP3    H2  931   1.172   3.585   3.952  0.1599  1.1939 -0.0519
  309TIP3   OH2  932   0.288   3.037   2.081  0.4675  0.2687 -0.2297
  309TIP3    H1  933   0.251   2.967   2.134  0.8798  0.7850  0.7581
  309TIP3    H2  934   0.219   3.103   2.077 -0.8892 -1.1075 -3.1700
  310TIP3   OH2  935   1.725   5.803   2.113  0.9886  0.0087  0.4410
  310TIP3    H1  936   1.804   5.838   2.072  1.4056 -0.5636  0.7497
  310TIP3    H2  937   1.655   5.824   2.050  1.5411 -0.4009 -0.3273
  311TIP3   OH2  938   6.075   3.018   1.176 -0.1471  0.0179 -0.0774
  311TIP3    H1  939   6.024   2.985   1.102 -0.4305 -1.2573  0.6643
  311TIP3    H2  940   6.136   3.081   1.137  0.1369 -1.0810 -1.4790
  312TIP3   OH2  941   2.576   5.015   4.237 -0.2472  0.1236 -0.7525
  312TIP3    H1  942   2.525   5.091   4.265  0.5751 -0.0167  1.3360
  312TIP3    H2  943   2.512   4.945   4.227 -0.6078  0.1976  0.8598
  313TIP3   OH2  944   5.863   2.547   1.943 -0.2320  0.1742  0.6029
  313TIP3    H1  945   5.847   2.607   1.870 -1.4610 -0.6093  0.1871
  313TIP3    H2  946   5.899   2.468   1.901 -1.1517 -0.3629  0.7998
  314TIP3   OH2  947   6.139   2.659   1.000 -0.6545 -0.5887  0.6932
  314TIP3    H1  948   6.152   2.662   1.094 -0.6163 -0.0017  0.6725
  314TIP3    H2  949   6.180   2.739   0.967 -0.4852 -0.8859  0.1577
  315TIP3   OH2  950   1.813   4.734   0.638 -0.2132  0.4835 -0.2100
  315TIP3    H1  951   1.760   4.661   0.607 -0.0226  0.7129 -1.0947
  315TIP3    H2  952   1.903   4.700   0.639 -0.2670  0.3437  0.5216
  316TIP3   OH2  953   1.344   0.730   3.685 -0.5298  0.1983  0.5028
  316TIP3    H1  954   1.385   0.751   3.601 -0.0599 -1.0297  0.4019
  316TIP3    H2  955   1.267   0.786   3.689 -0.1944  0.7561 -0.4346
  317TIP3   OH2  956   4.471   4.393   3.582  0.3998 -0.2390 -0.2367
  317TIP3    H1  957   4.476   4.350   3.667  3.0505  0.7628  0.2296
  317TIP3    H2  958   4.466   4.487   3.602  0.4851 -0.0183 -1.1742
  318TIP3   OH2  959   1.657   5.441   4.328  0.3873 -0.6434 -0.0642
  318TIP3    H1  960   1.646   5.434   4.423 -0.2458 -1.1273 -0.1618
  318TIP3    H2  961   1.731   5.384   4.308  0.1378 -1.0247  0.0760
  319TIP3   OH2  962   2.519   0.755   2.419  0.0815 -0.5439 -0.1544
  319TIP3    H1  963   2.460   0.747   2.494 -1.8424  0.6264 -1.4357
  319TIP3    H2  964   2.486   0.831   2.371  3.2273  0.7421 -0.5248
  320TIP3   OH2  965   1.664   2.336   0.184 -0.2835 -0.0411  0.1209
  320TIP3    H1  966   1.695   2.247   0.169 -1.0586 -0.3387  0.2167
  320TIP3    H2  967   1.584   2.325   0.235  0.6493  0.8042  1.8347
  321TIP3   OH2  968   2.306   2.053   3.633  0.6141 -0.1940 -0.3874
  321TIP3    H1  969   2.259   2.106   3.697  3.8460  0.1501  1.9454
  321TIP3    H2  970   2.337   2.115   3.567  1.0062  0.2128  0.1699
  322TIP3   OH2  971   5.120   0.298   0.051  0.2241  0.3865 -0.2664
  322TIP3    H1  972   5.182   0.359   0.090 -1.2036  2.4382 -1.0631
  322TIP3    H2  973   5.073   0.260   0.125 -0.6791  2.2933  0.1905
  323TIP3   OH2  974   0.854   2.640   3.268  0.3560  0.1387 -0.1617
  323TIP3    H1  975   0.847   2.635   3.363 -0.6249  0.0203 -0.2259
  323TIP3    H2  976   0.945   2.619   3.249  1.1474  2.3067  0.8989
  324TIP3   OH2  977   3.285   1.209   4.089  0.0388 -0.3026 -0.6073
  324TIP3    H1  978   3.245   1.281   4.039  0.1011  0.9652  1.0744
  324TIP3    H2  979   3.305   1.248   4.174 -0.1126 -2.3911  0.4338
  325TIP3   OH2  980   3.345   3.918   3.015  0.3231 -0.0732  0.1396
  325TIP3    H1  981   3.336   3.824   3.030  0.7600 -0.2604 -0.7021
  325TIP3    H2  982   3.432   3.939   3.048  0.8653 -0.2853 -1.0882
  326TIP3   OH2  983   4.792   2.230   2.361 -0.2029 -0.2649 -0.1311
  326TIP3    H1  984   4.725   2.168   2.331  0.9509 -0.1004 -3.4813
  326TIP3    H2  985   4.867   2.175   2.384  0.1518 -0.2703 -1.2226
  327TIP3   OH2  986   0.728   4.871   3.349 -0.1866 -0.3545  0.1099
  327TIP3    H1  987   0.737   4.841   3.439 -0.7943 -0.1820  0.2294
  327TIP3    H2  988   0.806   4.836   3.304 -1.0341 -2.4277  0.1533
  328TIP3   OH2  989   0.026   4.221   4.665 -0.2416  0.0469 -0.2984
  328TIP3    H1  990  -0.008   4.161   4.599  1.5932 -1.1410 -0.2335
  328TIP3    H2  991   0.119   4.229   4.644 -0.2794  2.3163  0.1389
  329TIP3   OH2  992   5.351   2.742   2.255 -0.0033 -0.2237  0.7407
  329TIP3    H1  993   5.390   2.663   2.293 -2.6674 -1.5309  0.9541
  329TIP3    H2  994   5.257   2.733   2.271 -0.6156  2.0288 -1.0535
  330TIP3   OH2  995   4.646   3.339   4.840  0.2581  0.3347  0.8092
  330TIP3    H1  996   4.571   3.393   4.867 -0.1078  0.8949 -1.1010
  330TIP3    H2  997   4.721   3.379   4.883 -0.2082  1.4892  0.6045
  331TIP3   OH2  998   4.258   5.713   4.694 -0.6672  0.1892 -0.1275
  331TIP3    H1  999   4.329   5.774   4.676 -0.8895  1.1216  1.9049
  331TIP3    H2 1000   4.249   5.663   4.613  1.0188  1.3208 -1.0858
  332TIP3   OH2 1001   5.879   1.213   1.337  0.2496 -0.1004  0.2212
  332TIP3    H1 1002   5.936   1.252   1.403 -0.8296 -0.8734  1.6686
  332TIP3    H2 1003   5.839   1.287   1.293 -1.7848  0.5607  2.9280
  333TIP3   OH2 1004   3.123   4.606   0.134 -0.2261  0.1347  0.5790
  333TIP3    H1 1005   3.049   4.590   0.193  0.2307  0.0522  1.1308
  333TIP3    H2 1006   3.112   4.540   0.065 -0.2778 -0.3339  1.0270
  334TIP3   OH2 1007   0.598   1.147   0.407 -0.0825  0.4650 -0.4952
  334TIP3    H1 1008   0.679   1.187   0.376 -1.1911  1.8610 -1.7917
  334TIP3    H2 1009   0.593   1.063   0.361 -0.7451  1.6572 -2.7213
  335TIP3   OH2 1010   4.793   4.917   1.137  0.1293  0.7928 -0.3410
  335TIP3    H1 1011   4.866   4.930   1.197 -1.1325 -1.1516  1.7915
  335TIP3    H2 1012   4.758   5.004   1.122  0.4711  1.3708  1.8711
  336TIP3   OH2 1013   2.190   2.722   2.663  0.5627  0.2491 -0.1860
  336TIP3    H1 1014   2.145   2.793   2.619 -0.2050 -0.3780 -0.4342
  336TIP3    H2 1015   2.130   2.695   2.733  0.2174 -1.0394 -0.9398
  337TIP3   OH2 1016   6.224   1.521   0.284 -0.2456 -0.6076 -0.2214
  337TIP3    H1 1017   6.237   1.509   0.190 -0.8557 -1.0467 -0.2539
  337TIP3    H2 1018   6.137   1.561   0.291 -0.1098 -0.3686  0.1494
  338TIP3   OH2 1019   6.029   5.832   2.330 -0.0030 -0.1308 -0.1528
  338TIP3    H1 1020   6.035   5.863   2.420  1.3522 -0.2886 -0.1590
  338TIP3    H2 1021   6.025   5.737   2.337 -1.8479 -0.0818 -0.2118
  339TIP3   OH2 1022   2.310   5.567   2.438 -0.1854 -0.0346  0.7867
  339TIP3    H1 1023   2.361   5.644   2.465 -1.3817  1.5367 -1.1811
  339TIP3    H2 1024   2.345   5.545   2.352  0.5824 -2.1892  1.5800
  340TIP3   OH2 1025   2.753   4.564   0.027 -0.6390  0.0754  0.2917
  340TIP3    H1 1026   2.821   4.629   0.048  0.5338 -0.7750 -0.7314
  340TIP3    H2 1027   2.785   4.520  -0.051 -0.8190 -2.5537  1.5827
  341TIP3   OH2 1028   4.777   2.436   2.584 -0.1564 -0.0142 -0.0738
  341TIP3    H1 1029   4.688   2.412   2.612 -0.8450 -1.3261 -2.9694
  341TIP3    H2 1030   4.764   2.512   2.527  0.5846 -0.1656 -0.4573
  342TIP3   OH2 1031   2.972   1.263   1.005 -0.1948  0.1884 -0.4488
  342TIP3    H1 1032   2.956   1.172   0.980 -0.1225  0.5716 -2.0115
  342TIP3    H2 1033   2.922   1.314   0.941  0.4858  1.2584 -0.1483
  343TIP3   OH2 1034   3.586   2.141   4.065  1.0675 -0.0401  0.4173
  343TIP3    H1 1035   3.615   2.228   4.094  0.8654  0.2016 -0.0943
  343TIP3    H2 1036   3.550   2.101   4.144  3.1462 -0.5204  1.1678
  344TIP3   OH2 1037   0.306   2.486   0.975  0.0156  0.0700 -0.2699
  344TIP3    H1 1038   0.248   2.530   0.912  1.0223  3.1977  0.8297
  344TIP3    H2 1039   0.389   2.477   0.928 -0.0710 -0.3194 -0.3524
  345TIP3   OH2 1040   0.560   5.342   2.281  0.1912  0.0384 -0.1994
  345TIP3    H1 1041   0.623   5.312   2.346 -0.3007  0.7540  0.6244
  345TIP3    H2 1042   0.497   5.394   2.330 -0.1860  0.6092 -1.2538
  346TIP3   OH2 1043   0.015   2.419   2.351  0.4235  1.0614 -0.0271
  346TIP3    H1 1044  -0.045   2.354   2.313  1.3363 -0.3503  0.8344
  346TIP3    H2 1045   0.070   2.446   2.278 -0.3534  1.3127 -0.5262
  347TIP3   OH2 1046   4.063   1.364   1.766 -0.7370 -0.5785  0.6146
  347TIP3    H1 1047   3.995   1.422   1.733  0.9403  1.0809 -0.1400
  347TIP3    H2 1048   4.083   1.398   1.853  0.1084 -0.1286  0.2541
  348TIP3   OH2 1049   1.036   1.748   2.051  0.3109 -0.4961  0.2389
  348TIP3    H1 1050   1.040   1.658   2.084 -0.9425 -0.6053  0.1658
  348TIP3    H2 1051   1.025   1.802   2.129 -0.4346 -0.5548  0.1839
  349TIP3   OH2 1052   3.465   2.925   3.843  0.2604  0.3215  0.1213
  349TIP3    H1 1053   3.463   2.963   3.931 -1.1140 -1.4083  0.9157
  349TIP3    H2 1054   3.375   2.898   3.827  0.7632 -0.6662 -1.2466
  350TIP3   OH2 1055   0.525   3.487   4.383  0.5433  0.0417 -0.0743
  350TIP3    H1 1056   0.604   3.435   4.388  1.0292  0.7401 -0.3208
  350TIP3    H2 1057   0.454   3.423   4.388  1.0274 -0.3870  3.2562
  351TIP3   OH2 1058   2.407   5.672   0.295 -0.4242 -0.0550  0.0920
  351TIP3    H1 1059   2.430   5.598   0.240 -0.0915 -0.5354  0.8547
  351TIP3    H2 1060   2.350   5.727   0.240 -1.4455 -1.3345 -0.1853
  352TIP3   OH2 1061   2.756   3.778   4.893  0.0425 -0.1558  0.6381
  352TIP3    H1 1062   2.778   3.768   4.986 -0.7569  1.2866  1.0156
  352TIP3    H2 1063   2.817   3.844   4.861 -0.5956  0.3644  0.4919
  353TIP3   OH2 1064   4.651   5.433   1.255  0.8790 -0.7940  0.2816
  353TIP3    H1 1065   4.588   5.503   1.269  1.4514 -0.2810  0.3444
  353TIP3    H2 1066   4.719   5.449   1.320  1.0610 -1.3581  0.2347
  354TIP3   OH2 1067   4.672   2.869   4.554  0.4930 -0.4789 -0.1409
  354TIP3    H1 1068   4.762   2.861   4.523  0.9744 -0.1946  1.1165
  354TIP3    H2 1069   4.665   2.959   4.586 -0.6786 -0.0449 -1.4830
  355TIP3   OH2 1070   6.029   4.763   4.706 -0.2499  0.3654  0.1218
  355TIP3    H1 1071   5.948   4.741   4.661  0.4718  0.8682 -1.4620
  355TIP3    H2 1072   6.023   4.715   4.789 -2.2418  0.5497  0.1382
  356TIP3   OH2 1073   5.871   0.148   4.562 -0.3450  0.0737 -0.2954
  356TIP3    H1 1074   5.827   0.064   4.547  1.5436 -1.1453  0.5361
  356TIP3    H2 1075   5.884   0.184   4.474 -1.3068 -0.4173 -0.6531
  357TIP3   OH2 1076   5.461   1.826   3.844 -0.5689  0.4009  0.2497
  357TIP3    H1 1077   5.543   1.792   3.880 -0.5449 -1.1407 -1.0929
  357TIP3    H2 1078   5.466   1.920   3.856  0.7124  0.2013  1.5668
  358TIP3   OH2 1079   0.736   5.788   2.281  0.2133 -0.5474 -0.6618
  358TIP3    H1 1080   0.800   5.794   2.210  0.6053 -1.2731 -0.3792
  358TIP3    H2 1081   0.720   5.879   2.307 -0.7921 -0.1804 -2.4196
  359TIP3   OH2 1082   3.407   4.307   4.008  0.2471 -0.1127 -0.0055
  359TIP3    H1 1083   3.352   4.373   3.965  0.2986 -0.6808 -0.9763
  359TIP3    H2 1084   3.350   4.232   4.019  0.4598 -0.2420  0.2051
  360TIP3   OH2 1085   1.817   5.489   2.614 -0.3333  0.3455 -0.2462
  360TIP3    H1 1086   1.870   5.455   2.542  0.7148  0.3253  0.5100
  360TIP3    H2 1087   1.868   5.561   2.650 -0.4228 -0.1775  1.0056
  361TIP3   OH2 1088   6.147   3.171   0.547 -0.1326  0.2439 -0.0781
  361TIP3    H1 1089   6.203   3.219   0.485 -0.8252  0.5510 -0.4812
  361TIP3    H2 1090   6.096   3.240   0.590 -0.0110 -0.0123  0.4892
  362TIP3   OH2 1091   0.398   4.337   0.191 -0.4327  0.4643 -0.0151
  362TIP3    H1 1092   0.390   4.432   0.201  1.2661  0.5561  0.7805
  362TIP3    H2 1093   0.441   4.308   0.271  0.4502 -0.7824 -0.9075
  363TIP3   OH2 1094   0.818   0.610   2.129 -0.0310  0.2306 -0.0408
  363TIP3    H1 1095   0.777   0.694   2.106  0.3882  0.1736 -1.0381
  363TIP3    H2 1096   0.830   0.565   2.045 -2.1641 -1.7578  0.6020
  364TIP3   OH2 1097   5.892   4.838   5.110 -0.5172 -0.2658  0.3181
  364TIP3    H1 1098   5.926   4.859   5.023  2.5262 -0.4600  1.3342
  364TIP3    H2 1099   5.809   4.793   5.093 -0.3055  0.2120 -2.4324
  365TIP3   OH2 1100   2.833   4.751   0.776 -0.2075  0.1491  0.3211
  365TIP3    H1 1101   2.915   4.771   0.821 -0.0603 -0.9298  0.5543
  365TIP3    H2 1102   2.837   4.802   0.695  0.8326 -0.1290  0.1908
  366TIP3   OH2 1103   0.441   2.616   1.229 -0.3224  0.5251 -0.5004
  366TIP3    H1 1104   0.411   2.560   1.158  0.4899 -1.1440  0.4307
  366TIP3    H2 1105   0.399   2.700   1.212 -2.8883 -0.7763 -1.0341
  367TIP3   OH2 1106   5.224   1.855   0.506 -0.1666  0.0078 -1.2317
  367TIP3    H1 1107   5.281   1.929   0.525  0.3057 -1.0335  2.0678
  367TIP3    H2 1108   5.283   1.787   0.472 -0.0271  0.0473 -1.0688
  368TIP3   OH2 1109   4.572   3.459   0.378 -0.0561 -0.2339  0.5230
  368TIP3    H1 1110   4.636   3.428   0.443  2.0766  2.9832  0.1631
  368TIP3    H2 1111   4.581   3.398   0.305  0.9691 -1.1276  1.3516
  369TIP3   OH2 1112   2.469   1.271   5.203 -0.3652  0.5158  0.3693
  369TIP3    H1 1113   2.551   1.244   5.162 -0.7616  0.2066 -0.2335
  369TIP3    H2 1114   2.407   1.202   5.180 -1.1853  1.4998 -0.4777
  370TIP3   OH2 1115   4.395   0.594   0.934  0.3725 -0.3999 -0.2402
  370TIP3    H1 1116   4.419   0.635   0.851  0.7019 -0.4940 -0.1906
  370TIP3    H2 1117   4.318   0.541   0.914 -0.1629  0.3619 -0.2774
  371TIP3   OH2 1118   2.658   3.785   0.097 -0.1972 -0.2276  0.0952
  371TIP3    H1 1119   2.696   3.767   0.182  0.7389 -1.4169 -0.5438
  371TIP3    H2 1120   2.573   3.826   0.116  0.2533  0.0626  1.5684
  372TIP3   OH2 1121   2.425   5.948   3.234  0.2152 -0.1756 -0.2812
  372TIP3    H1 1122   2.515   5.928   3.258  0.6750  0.4423 -1.4456
  372TIP3    H2 1123   2.386   5.984   3.313  0.7082 -1.3138  0.5015
  373TIP3   OH2 1124   1.459   1.748   2.940 -0.2554 -0.2576 -0.7483
  373TIP3    H1 1125   1.371   1.767   2.907  0.4055 -0.0266 -2.4844
  373TIP3    H2 1126   1.458   1.654   2.958 -1.1923 -0.0521  0.4055
  374TIP3   OH2 1127   6.000   1.922   1.550 -0.3223 -0.1278 -0.1389
  374TIP3    H1 1128   6.067   1.960   1.607 -1.5378 -1.2123  2.1732
  374TIP3    H2 1129   5.933   1.989   1.543 -0.7366 -0.4264  0.7933
  375TIP3   OH2 1130   5.527   2.605   1.514 -0.0406 -0.2105  0.7085
  375TIP3    H1 1131   5.607   2.570   1.476 -0.0816  0.0059  0.4192
  375TIP3    H2 1132   5.488   2.531   1.562  0.1783 -0.3935  0.6019
  376TIP3   OH2 1133   3.880   5.733   3.041 -0.2198  0.4828  0.1508
  376TIP3    H1 1134   3.973   5.745   3.027  0.1813 -1.0352  1.1888
  376TIP3    H2 1135   3.873   5.702   3.132 -1.7202  0.5165  0.0789
  377TIP3   OH2 1136   4.881   1.601   4.464 -0.3392  0.3735 -0.1821
  377TIP3    H1 1137   4.812   1.635   4.407  0.2325  0.0962 -1.0520
  377TIP3    H2 1138   4.912   1.678   4.511  0.0205  0.8362 -1.1515
  378TIP3   OH2 1139   5.279   5.708   0.219  0.5014  0.2625 -0.1750
  378TIP3    H1 1140   5.305   5.639   0.280  0.4719  0.8345  0.4874
  378TIP3    H2 1141   5.184   5.698   0.211  0.4518  0.4502  0.1919
  379TIP3   OH2 1142   5.741   5.377   0.482  0.5538  0.0192 -0.3721
  379TIP3    H1 1143   5.836   5.385   0.473  0.5262  0.5835 -0.2254
  379TIP3    H2 1144   5.729   5.317   0.556  0.8250  1.6158  1.0269
  380TIP3   OH2 1145   0.221   2.175   2.442  0.4813  0.1129  0.3266
  380TIP3    H1 1146   0.196   2.251   2.494  0.2356  1.6093 -1.8226
  380TIP3    H2 1147   0.290   2.208   2.384 -1.2592 -0.5609 -2.3189
  381TIP3   OH2 1148   1.752   1.064   2.437 -0.3201  0.2835 -0.5672
  381TIP3    H1 1149   1.676   1.058   2.494 -2.0316 -1.5180 -2.8310
  381TIP3    H2 1150   1.818   1.109   2.489 -2.5272  0.8816  1.9128
  382TIP3   OH2 1151   2.027   2.576   2.205 -0.1035 -0.0300  0.3597
  382TIP3    H1 1152   2.034   2.611   2.294 -0.6712 -2.3392  1.3907
  382TIP3    H2 1153   1.942   2.608   2.174  0.3135  1.2061  0.4023
  383TIP3   OH2 1154   0.958   3.815   4.194 -0.1075  0.0174 -0.7528
  383TIP3    H1 1155   0.995   3.745   4.140 -0.5055  0.2371 -1.3152
  383TIP3    H2 1156   0.865   3.795   4.200 -0.0275 -0.1406  0.0658
  384TIP3   OH2 1157   2.076   1.397   1.439 -0.2234  0.1316  0.7933
  384TIP3    H1 1158   2.021   1.474   1.452 -0.3344 -0.0941  1.7871
  384TIP3    H2 1159   2.147   1.407   1.503 -0.7901 -1.0679  1.6564
  385TIP3   OH2 1160   6.070   4.611   0.348 -0.1305 -0.4711 -0.2473
  385TIP3    H1 1161   6.106   4.524   0.329  0.9698  0.1859 -1.3501
  385TIP3    H2 1162   5.999   4.595   0.410  0.4906 -2.0829  0.0921
  386TIP3   OH2 1163   3.983   5.578   2.345  0.2635 -0.4232  0.3416
  386TIP3    H1 1164   4.014   5.632   2.418 -0.6986 -1.0787  1.2837
  386TIP3    H2 1165   3.891   5.561   2.366  0.6927 -3.0543  0.5110
  387TIP3   OH2 1166   0.058   1.538   3.005 -0.0580  0.1611 -0.1081
  387TIP3    H1 1167   0.004   1.592   3.062  0.1967  0.2446  0.0550
  387TIP3    H2 1168   0.068   1.589   2.925 -0.8659 -0.1874 -0.4380
  388TIP3   OH2 1169   4.025   5.955   4.783  0.0197  0.1345 -0.6858
  388TIP3    H1 1170   4.115   5.950   4.752  0.1815  0.9371 -0.3700
  388TIP3    H2 1171   4.008   5.869   4.823  0.0674 -0.6301 -2.2307
  389TIP3   OH2 1172   4.560   3.309   0.647  0.0479  0.7310  0.0779
  389TIP3    H1 1173   4.512   3.246   0.701 -1.0675  0.7184 -0.9029
  389TIP3    H2 1174   4.646   3.316   0.690 -0.5417  0.1693  1.4268
  390TIP3   OH2 1175   6.005   5.046   0.574  0.4903 -0.3195  0.3020
  390TIP3    H1 1176   5.926   5.083   0.612 -0.5216 -1.8173 -0.2707
  390TIP3    H2 1177   6.076   5.083   0.626 -0.6155  0.5241  1.2590
  391TIP3   OH2 1178   0.912   4.620   4.543  0.2569  0.3148 -0.4234
  391TIP3    H1 1179   0.857   4.692   4.511 -0.5014 -0.1711 -0.2199
  391TIP3    H2 1180   0.857   4.542   4.536 -0.0645  0.1944  2.3137
  392TIP3   OH2 1181   2.122   2.028   0.169 -0.4090 -0.0158 -0.0436
  392TIP3    H1 1182   2.140   1.987   0.085  0.4977 -0.8930  0.5439
  392TIP3    H2 1183   2.047   1.979   0.204 -0.1847 -0.2924  0.0607
  393TIP3   OH2 1184   5.320   1.136   1.450  0.3602 -0.2397 -0.2135
  393TIP3    H1 1185   5.329   1.163   1.542  0.8339  0.2805 -0.4126
  393TIP3    H2 1186   5.349   1.045   1.449  0.7772 -0.1099  0.0713
  394TIP3   OH2 1187   4.222   2.350   5.080 -0.5465 -0.5169  0.2746
  394TIP3    H1 1188   4.217   2.338   4.986 -2.1210  0.6386  0.1685
  394TIP3    H2 1189   4.312   2.329   5.103 -0.4301 -1.8656 -1.3159
  395TIP3   OH2 1190   3.606   0.835   4.171 -0.2174  0.6205 -0.3612
  395TIP3    H1 1191   3.600   0.930   4.181 -0.5290  0.4795  1.1781
  395TIP3    H2 1192   3.517   0.804   4.186  0.1459  0.0036  0.6352
  396TIP3   OH2 1193   0.895   1.062   0.618  0.2749 -0.3508  0.5211
  396TIP3    H1 1194   0.867   1.149   0.590 -0.2356 -0.5614  0.3521
  396TIP3    H2 1195   0.821   1.029   0.670 -0.2317 -1.3234 -0.7783
  397TIP3   OH2 1196   0.480   5.615   4.616 -0.3432 -0.2289 -0.2825
  397TIP3    H1 1197   0.419   5.599   4.543 -1.3518 -0.2829  0.5475
  397TIP3    H2 1198   0.528   5.534   4.625 -2.0206 -1.1686  0.7473
  398TIP3   OH2 1199   0.056   0.072   4.786  0.5269 -0.7417 -0.0646
  398TIP3    H1 1200   0.066   0.159   4.746  0.1624 -0.6601  0.0242
  398TIP3    H2 1201   0.017   0.089   4.872 -0.4873 -1.0673 -0.4508
  399TIP3   OH2 1202   4.974   1.195   3.877 -0.0984 -0.2660  0.0836
  399TIP3    H1 1203   4.896   1.224   3.830 -0.3468 -2.1232 -0.7398
  399TIP3    H2 1204   4.949   1.110   3.914  0.2312  0.8956  3.2654
  400TIP3   OH2 1205   4.335   3.702   4.745 -0.0645 -0.0800 -0.1798
  400TIP3    H1 1206   4.243   3.674   4.750  0.0398 -0.4458 -0.3456
  400TIP3    H2 1207   4.342   3.748   4.662  0.2135 -1.1816 -0.7841
  401TIP3   OH2 1208   0.475   5.512   1.443  0.4100  0.8702  0.3842
  401TIP3    H1 1209   0.516   5.500   1.357  2.1962 -0.4633  1.3801
  401TIP3    H2 1210   0.539   5.481   1.506 -2.2106 -1.6996  2.0443
  402TIP3   OH2 1211   3.625   1.786   0.359  0.2052 -0.5130 -0.4818
  402TIP3    H1 1212   3.559   1.852   0.337  0.6545  0.0378 -0.1992
  402TIP3    H2 1213   3.700   1.837   0.392  0.3445 -1.1966  0.2745
  403TIP3   OH2 1214   4.355   4.024   4.458  0.7273 -0.1369  0.4743
  403TIP3    H1 1215   4.300   4.010   4.535  0.3972  1.3723  0.5508
  403TIP3    H2 1216   4.424   3.959   4.465  0.6428 -0.0913  1.9871
  404TIP3   OH2 1217   4.382   4.096   3.284  0.1109 -1.0227  0.5465
  404TIP3    H1 1218   4.287   4.101   3.282  0.1632 -0.0821 -1.1258
  404TIP3    H2 1219   4.401   4.013   3.329 -1.5138 -1.7335 -0.0122
  405TIP3   OH2 1220   2.881   4.008   0.122  0.2166 -0.0990 -0.1230
  405TIP3    H1 1221   2.875   4.040   0.032 -0.4936 -0.8905 -0.3707
  405TIP3    H2 1222   2.862   4.085   0.176  0.2258  0.2873 -0.6638
  406TIP3   OH2 1223   1.963   2.898   2.121  0.1817 -0.5887  0.0684
  406TIP3    H1 1224   2.044   2.946   2.102  0.6006 -1.2907  0.0557
  406TIP3    H2 1225   1.931   2.937   2.202  0.3545 -0.0887 -0.0942
  407TIP3   OH2 1226   3.934   2.505   2.084  0.3105  0.3669 -0.4619
  407TIP3    H1 1227   3.849   2.498   2.041 -0.4162 -0.3196  1.0075
  407TIP3    H2 1228   3.961   2.414   2.098  1.5380  0.5739 -1.3479
  408TIP3   OH2 1229   2.419   3.431   0.724 -0.3735 -0.2673 -0.0860
  408TIP3    H1 1230   2.334   3.394   0.702 -1.9257  2.8889 -0.0115
  408TIP3    H2 1231   2.460   3.448   0.639  0.0434 -1.4783 -0.1316
  409TIP3   OH2 1232   5.468   1.722   0.387 -0.2432  0.4826 -0.2678
  409TIP3    H1 1233   5.414   1.676   0.323 -1.5733  0.3708  0.8920
  409TIP3    H2 1234   5.480   1.810   0.349  0.1698  0.0013 -1.2951
  410TIP3   OH2 1235   0.933   0.582   1.524 -0.3186  0.2821 -0.1444
  410TIP3    H1 1236   1.023   0.585   1.556 -0.0649  0.4610 -0.8669
  410TIP3    H2 1237   0.938   0.533   1.442 -1.3354 -2.5137  1.3198
  411TIP3   OH2 1238   6.071   0.612   3.855  0.8967  0.1931 -0.1129
  411TIP3    H1 1239   6.055   0.693   3.903 -1.4401 -0.9539  1.1886
  411TIP3    H2 1240   5.984   0.578   3.835  1.8144 -1.6255 -1.3097
  412TIP3   OH2 1241   5.247   4.727   0.156  0.3688  0.2510 -0.1067
  412TIP3    H1 1242   5.207   4.643   0.133 -1.6464  1.3428 -0.8474
  412TIP3    H2 1243   5.284   4.759   0.074  0.9703  0.2042  0.1377
  413TIP3   OH2 1244   5.172   3.771   2.599  0.1840 -0.2570  0.0780
  413TIP3    H1 1245   5.231   3.791   2.671 -0.6038 -1.5936  1.1388
  413TIP3    H2 1246   5.195   3.834   2.531  0.0954  1.9279  1.9538
  414TIP3   OH2 1247   1.658   3.427   4.823 -0.4425  0.0351 -0.3129
  414TIP3    H1 1248   1.673   3.472   4.741 -0.5425  0.5882 -0.0344
  414TIP3    H2 1249   1.646   3.497   4.887 -1.0449 -0.3816  0.0463
  415TIP3   OH2 1250   5.081   4.706   0.755  0.1988 -0.0417 -0.4221
  415TIP3    H1 1251   5.019   4.713   0.827  0.7472  0.6771 -0.0141
  415TIP3    H2 1252   5.047   4.764   0.687  0.3956  0.3207 -0.2139
  416TIP3   OH2 1253   2.301   0.232   1.974 -0.2494 -0.4342 -0.2991
  416TIP3    H1 1254   2.254   0.259   2.053 -0.6459 -2.3213  0.1431
  416TIP3    H2 1255   2.375   0.292   1.968 -1.8208  1.6594 -0.1725
  417TIP3   OH2 1256   1.606   3.308   3.465  0.1244  0.0858 -0.1740
  417TIP3    H1 1257   1.515   3.334   3.451  0.1370 -0.6362 -1.8281
  417TIP3    H2 1258   1.655   3.358   3.399  0.8067 -0.2724  0.0534
  418TIP3   OH2 1259   4.079   2.916   1.345  0.1790 -0.3583  0.2705
  418TIP3    H1 1260   4.166   2.930   1.383  0.9858 -0.7460 -1.3023
  418TIP3    H2 1261   4.081   2.825   1.314 -1.6284 -1.1187  2.1919
  419TIP3   OH2 1262   3.562   0.149   1.063  0.7815  0.3424  0.0682
  419TIP3    H1 1263   3.523   0.099   1.135 -0.6553  0.6784 -0.4567
  419TIP3    H2 1264   3.516   0.119   0.985  3.1223 -0.8961 -0.9455
  420TIP3   OH2 1265   0.602   0.635   2.526  0.1954  0.2305 -0.5210
  420TIP3    H1 1266   0.556   0.663   2.447 -0.2765  0.9149 -0.0094
  420TIP3    H2 1267   0.685   0.683   2.524  0.6380 -0.5295 -1.1180
  421TIP3   OH2 1268   1.157   3.171   0.671  0.8417  0.0538 -0.9051
  421TIP3    H1 1269   1.125   3.166   0.761 -0.1567 -0.3494 -1.2658
  421TIP3    H2 1270   1.244   3.209   0.678  0.0471  1.7753  0.0659
  422TIP3   OH2 1271   4.989   1.018   2.800  0.6149  0.0620  0.0360
  422TIP3    H1 1272   4.957   0.985   2.716  0.6345  0.2898 -0.0611
  422TIP3    H2 1273   5.074   1.057   2.780  0.8950 -0.4213  0.2721
  423TIP3   OH2 1274   3.569   3.389   4.700 -0.6761  0.1634 -0.5268
  423TIP3    H1 1275   3.538   3.469   4.658  0.3777  0.9282  0.1088
  423TIP3    H2 1276   3.661   3.382   4.674 -0.7094 -0.7430 -0.4229
  424TIP3   OH2 1277   5.987   4.041   1.414 -0.3003 -0.1513 -0.3841
  424TIP3    H1 1278   5.941   4.024   1.332 -0.8734  0.4004 -0.1914
  424TIP3    H2 1279   6.073   4.074   1.388 -0.3594 -0.3020 -0.7622
  425TIP3   OH2 1280   5.630   0.138   1.440 -0.0258 -0.0010  0.2134
  425TIP3    H1 1281   5.660   0.069   1.381  0.2166  0.7842 -0.6067
  425TIP3    H2 1282   5.607   0.211   1.382 -2.1352 -0.0490  0.9104
  426TIP3   OH2 1283   3.879   3.417   2.184 -0.6221  0.3355  0.2063
  426TIP3    H1 1284   3.919   3.363   2.116  1.2799  1.8654  0.0246
  426TIP3    H2 1285   3.859   3.356   2.255 -0.9433 -0.9896 -0.9928
  427TIP3   OH2 1286   1.204   2.968   4.869 -0.1461 -0.1074 -0.0625
  427TIP3    H1 1287   1.218   3.054   4.829  0.2242 -0.2130 -0.1719
  427TIP3    H2 1288   1.167   2.915   4.799  0.6965 -0.3495 -0.3330
  428TIP3   OH2 1289   0.115   2.810   5.008 -0.6211  0.1697 -0.0981
  428TIP3    H1 1290   0.147   2.740   4.951 -0.9279  2.0281 -2.7623
  428TIP3    H2 1291   0.179   2.814   5.079  1.2535 -0.6488 -1.6483
  429TIP3   OH2 1292   1.838   1.791   3.936  0.0746  0.0420 -0.3004
  429TIP3    H1 1293   1.790   1.801   4.018 -0.1878 -1.9891 -0.1426
  429TIP3    H2 1294   1.771   1.768   3.871  0.4766  0.1054 -0.7460
  430TIP3   OH2 1295   4.530   1.158   4.639  0.3696  0.1717 -0.2372
  430TIP3    H1 1296   4.506   1.159   4.546 -0.0548 -0.3941 -0.1326
  430TIP3    H2 1297   4.456   1.197   4.684  0.2123 -0.3304 -0.0530
  431TIP3   OH2 1298   3.190   3.024   3.621 -0.5756 -0.8889  0.4318
  431TIP3    H1 1299   3.233   3.006   3.537 -1.2268  0.7645 -0.2970
  431TIP3    H2 1300   3.125   3.091   3.600 -2.6566 -2.3988  1.7395
  432TIP3   OH2 1301   6.158   0.871   1.108 -0.2027 -0.0284  0.0864
  432TIP3    H1 1302   6.130   0.960   1.086 -3.2692 -1.7033 -3.9301
  432TIP3    H2 1303   6.096   0.843   1.176  0.8866  0.8562  1.4965
  433TIP3   OH2 1304   0.419   1.226   0.602  0.5883 -0.0198 -0.8581
  433TIP3    H1 1305   0.461   1.261   0.680  0.5077  1.6545 -1.5122
  433TIP3    H2 1306   0.487   1.177   0.556  0.7784 -0.5326 -0.0367
  434TIP3   OH2 1307   5.788   3.855   2.758 -0.1597 -0.2071 -0.1526
  434TIP3    H1 1308   5.797   3.896   2.844  0.4173  0.8062 -0.6808
  434TIP3    H2 1309   5.726   3.784   2.772 -0.9117  0.6186  0.8726
  435TIP3   OH2 1310   0.818   5.534   2.157 -0.1410  0.1155  0.3876
  435TIP3    H1 1311   0.793   5.526   2.249  1.1793  2.0313  0.9668
  435TIP3    H2 1312   0.825   5.628   2.142 -1.4209 -0.0981 -2.0190
  436TIP3   OH2 1313   0.083   4.970   0.864 -0.3640 -0.7103  0.0089
  436TIP3    H1 1314   0.134   4.977   0.945  1.2509  1.4166 -1.0856
  436TIP3    H2 1315   0.125   5.032   0.804 -0.1830 -3.5905 -3.1699
  437TIP3   OH2 1316   0.542   4.672   2.861  0.0302 -0.8623 -0.0561
  437TIP3    H1 1317   0.513   4.651   2.949 -0.8855 -0.3542 -0.2239
  437TIP3    H2 1318   0.528   4.591   2.811 -0.5368 -0.8061  0.0066
  438TIP3   OH2 1319   3.692   5.189   3.008 -0.6311  0.2141 -0.7313
  438TIP3    H1 1320   3.609   5.204   3.052 -0.3755 -1.8910  0.6116
  438TIP3    H2 1321   3.752   5.252   3.047 -0.4651 -1.4490  1.9388
  439TIP3   OH2 1322   2.351   4.214   1.566 -0.2730 -0.0738 -0.2674
  439TIP3    H1 1323   2.264   4.174   1.569  0.0177 -0.6597  0.4546
  439TIP3    H2 1324   2.412   4.142   1.579  0.2197  0.7636  2.9081
  440TIP3   OH2 1325   1.839   1.287   5.017  0.0878  0.0972  0.2564
  440TIP3    H1 1326   1.905   1.240   5.067  0.2739  0.0560 -0.0263
  440TIP3    H2 1327   1.853   1.260   4.926 -2.4271 -2.5184  0.5050
  441TIP3   OH2 1328   5.114   2.063   3.140  0.4699 -0.0925  0.3619
  441TIP3    H1 1329   5.170   2.132   3.104  1.6317 -1.2141 -0.0667
  441TIP3    H2 1330   5.117   1.994   3.074 -1.5684 -0.1528  0.2663
  442TIP3   OH2 1331   1.022   3.981   1.341 -0.4752  0.1034 -0.1437
  442TIP3    H1 1332   1.069   3.925   1.403 -1.7027 -1.3102 -0.4323
  442TIP3    H2 1333   1.090   4.030   1.296  0.6692 -1.3985 -0.1064
  443TIP3   OH2 1334   1.719   4.768   2.290  0.1369  0.5058 -0.4415
  443TIP3    H1 1335   1.743   4.830   2.222  0.1908  0.3494 -0.5650
  443TIP3    H2 1336   1.668   4.819   2.353  0.8648  0.8677 -0.1302
  444TIP3   OH2 1337   4.335   0.969   0.554  0.0884  0.0335 -0.1962
  444TIP3    H1 1338   4.364   1.054   0.585 -0.4368  0.0855  0.1803
  444TIP3    H2 1339   4.377   0.958   0.468  1.2560  0.0563  0.3583
  445TIP3   OH2 1340   2.167   5.562   3.811  0.2242  0.3861 -0.2295
  445TIP3    H1 1341   2.253   5.523   3.819 -0.3156 -0.9115 -0.4954
  445TIP3    H2 1342   2.109   5.503   3.859 -0.8828 -0.1433 -2.1061
  446TIP3   OH2 1343   5.039   0.951   0.104 -0.6009 -0.7338  0.0476
  446TIP3    H1 1344   5.044   0.906   0.189 -0.0789 -0.1050  0.3600
  446TIP3    H2 1345   5.032   1.044   0.126 -0.8276 -0.5938 -0.5977
  447TIP3   OH2 1346   4.158   2.236   1.144 -0.1206 -0.2053 -0.4691
  447TIP3    H1 1347   4.242   2.249   1.101  0.0588 -0.4196 -0.1883
  447TIP3    H2 1348   4.156   2.142   1.165 -0.6545 -0.3020 -0.9459
  448TIP3   OH2 1349   0.964   2.788   4.702  0.3543  0.3907 -0.3796
  448TIP3    H1 1350   0.890   2.756   4.651  1.6184 -0.2252 -1.8722
  448TIP3    H2 1351   0.923   2.834   4.776 -1.5035 -1.0865 -0.4111
  449TIP3   OH2 1352   1.613   0.810   0.114 -0.4081  0.0903  0.3969
  449TIP3    H1 1353   1.647   0.728   0.077 -0.5072 -0.3717  1.3127
  449TIP3    H2 1354   1.554   0.782   0.184 -1.0641  0.9355  0.1971
  450TIP3   OH2 1355   1.500   3.348   1.752 -0.5301  0.3059  0.5251
  450TIP3    H1 1356   1.510   3.297   1.833 -1.8205 -0.6990  0.0850
  450TIP3    H2 1357   1.428   3.408   1.770 -0.5181  0.3964  0.2729
  451TIP3   OH2 1358   0.413   4.825   5.006  0.4380  0.2925  0.1223
  451TIP3    H1 1359   0.395   4.912   4.970 -4.0296 -1.4792 -2.8066
  451TIP3    H2 1360   0.449   4.775   4.932 -0.9543 -1.3275  0.4653
  452TIP3   OH2 1361   3.018   5.403   1.612 -0.5855  0.3057  0.3826
  452TIP3    H1 1362   3.051   5.418   1.701 -1.6670  0.5831  0.7584
  452TIP3    H2 1363   3.038   5.484   1.565  1.1702 -0.3235 -0.0313
  453TIP3   OH2 1364   3.312   5.472   0.904  0.5046 -0.2440  0.0105
  453TIP3    H1 1365   3.374   5.501   0.838 -0.3719 -0.8021 -1.0997
  453TIP3    H2 1366   3.259   5.549   0.923  1.6701  0.3050  1.1566
  454TIP3   OH2 1367   5.454   5.815   0.801  0.2216  0.1370  0.2392
  454TIP3    H1 1368   5.472   5.736   0.750  0.4767 -0.5976  1.4468
  454TIP3    H2 1369   5.363   5.836   0.781  0.8436  1.0345 -2.0582
  455TIP3   OH2 1370   0.838   2.341   4.363 -0.2347 -0.5932 -0.9134
  455TIP3    H1 1371   0.743   2.348   4.369 -0.3779 -0.6560 -2.5861
  455TIP3    H2 1372   0.868   2.432   4.353 -0.0512 -0.5234  0.1469
  456TIP3   OH2 1373   0.464   4.945   3.002  0.5638 -0.8554 -0.7344
  456TIP3    H1 1374   0.414   5.023   2.976  2.1316  0.4775  0.0861
  456TIP3    H2 1375   0.454   4.940   3.097  3.3865  0.5760 -0.2410
  457TIP3   OH2 1376   2.248   5.528   3.277 -0.3043 -0.5456  0.7417
  457TIP3    H1 1377   2.227   5.529   3.184 -0.7880  2.3843  0.7913
  457TIP3    H2 1378   2.178   5.580   3.318  1.1067  0.1417  2.4062
  458TIP3   OH2 1379   1.107   1.929   0.401  0.0889 -0.9186 -0.1759
  458TIP3    H1 1380   1.191   1.919   0.357 -0.2140 -1.9206 -0.5676
  458TIP3    H2 1381   1.078   1.839   0.419 -0.1588 -0.5683  1.3913
  459TIP3   OH2 1382   5.004   0.168   0.289  0.1966  0.2188 -0.0780
  459TIP3    H1 1383   5.026   0.081   0.257  1.0146  0.4353 -0.1492
  459TIP3    H2 1384   5.008   0.160   0.385  0.1547  0.1473 -0.0825
  460TIP3   OH2 1385   5.144   4.365   2.027 -0.1407  0.7432  0.2781
  460TIP3    H1 1386   5.060   4.410   2.021  0.1528  1.2051 -0.7717
  460TIP3    H2 1387   5.200   4.410   1.963  0.9165  0.4659  0.9692
  461TIP3   OH2 1388   4.342   0.949   4.444 -0.0384 -0.0331  0.3768
  461TIP3    H1 1389   4.423   0.915   4.406  0.0517  1.7454 -1.1436
  461TIP3    H2 1390   4.279   0.948   4.372 -0.1396  2.5312  0.3265
  462TIP3   OH2 1391   1.001   3.895   1.689  0.0361 -0.0928 -0.0174
  462TIP3    H1 1392   0.932   3.838   1.723 -0.2149  0.2443  0.0406
  462TIP3    H2 1393   0.954   3.961   1.637  0.2924  0.2956  0.2439
  463TIP3   OH2 1394   2.024   0.475   2.865 -0.0507  0.5736 -0.3978
  463TIP3    H1 1395   1.952   0.492   2.925 -0.6093 -1.0983 -0.5358
  463TIP3    H2 1396   1.986   0.417   2.799  0.9483  1.1750 -1.5368
  464TIP3   OH2 1397   2.071   0.975   1.899  0.3454  0.5901 -0.3502
  464TIP3    H1 1398   2.043   0.913   1.966 -1.0317  2.8863  1.3589
  464TIP3    H2 1399   2.151   1.014   1.936 -0.0122  1.3478 -0.3601
  465TIP3   OH2 1400   3.357   2.274   1.040  0.0525 -0.6224  0.4916
  465TIP3    H1 1401   3.400   2.335   0.981 -3.2657  0.8038 -0.6376
  465TIP3    H2 1402   3.425   2.251   1.104  2.4714  1.3069 -1.2051
  466TIP3   OH2 1403   4.111   1.938   2.733 -0.1032  0.5713  0.4637
  466TIP3    H1 1404   4.049   1.993   2.780 -0.0438 -0.4735  1.8606
  466TIP3    H2 1405   4.068   1.852   2.729 -1.0829  1.0697 -3.4387
  467TIP3   OH2 1406   3.035   5.936   0.231 -0.0503 -0.4102 -0.1255
  467TIP3    H1 1407   3.100   5.991   0.187  0.0469 -0.6375 -0.2706
  467TIP3    H2 1408   3.080   5.852   0.243  0.3969  0.0272  1.5899
  468TIP3   OH2 1409   2.113   1.535   4.105  0.4837 -0.5461 -0.0724
  468TIP3    H1 1410   2.026   1.500   4.091  0.4159 -1.2689  1.8322
  468TIP3    H2 1411   2.106   1.628   4.082 -0.6920 -0.6662 -0.2445
  469TIP3   OH2 1412   1.087   3.370   2.938 -0.2862 -0.3354 -0.2238
  469TIP3    H1 1413   1.067   3.315   2.862  0.6172 -0.8126 -0.1251
  469TIP3    H2 1414   1.090   3.309   3.012 -3.5173  0.3924  0.6771
  470TIP3   OH2 1415   2.657   1.183   4.403  0.6235  0.1636  0.0932
  470TIP3    H1 1416   2.680   1.167   4.312 -0.2027  0.0072 -0.0926
  470TIP3    H2 1417   2.741   1.187   4.449  1.2375  2.9928 -1.0938
  471TIP3   OH2 1418   4.611   2.146   4.009 -0.1466 -0.0325 -0.0872
  471TIP3    H1 1419   4.539   2.163   3.948 -2.2319  1.4580  2.5760
  471TIP3    H2 1420   4.690   2.167   3.959 -1.7913  2.2106 -1.9543
  472TIP3   OH2 1421   0.051   2.406   4.529 -0.1020  0.2485 -0.0007
  472TIP3    H1 1422  -0.038   2.376   4.548 -0.2820  0.7522 -0.0519
  472TIP3    H2 1423   0.045   2.449   4.444  0.4801 -0.9898 -0.6964
  473TIP3   OH2 1424   1.402   1.986   0.607  0.2339 -0.5396 -0.2417
  473TIP3    H1 1425   1.409   2.028   0.520  0.5861  0.6910  0.3510
  473TIP3    H2 1426   1.309   1.990   0.627 -0.0393 -1.9985 -1.0971
  474TIP3   OH2 1427   1.801   4.854   4.117  0.2547 -0.1296  0.2644
  474TIP3    H1 1428   1.834   4.942   4.097 -1.9892  0.9818  1.1133
  474TIP3    H2 1429   1.798   4.851   4.213 -0.1568 -0.9600  0.2320
  475TIP3   OH2 1430   4.430   3.523   4.971 -0.5290 -0.4273 -0.5225
  475TIP3    H1 1431   4.356   3.522   5.031  0.2883  1.3876  0.6258
  475TIP3    H2 1432   4.396   3.562   4.891 -0.6533  1.2865  0.3172
  476TIP3   OH2 1433   5.622   1.522   3.827  0.2829 -0.1086  0.7458
  476TIP3    H1 1434   5.713   1.500   3.806 -0.0201 -2.3433  1.4495
  476TIP3    H2 1435   5.628   1.590   3.893  1.3278  2.1261 -1.4817
  477TIP3   OH2 1436   2.452   5.791   2.500  0.5088 -0.3031  0.0808
  477TIP3    H1 1437   2.511   5.847   2.450  0.0647  0.6267  0.5841
  477TIP3    H2 1438   2.460   5.822   2.590 -0.6700 -0.2272  0.1754
  478TIP3   OH2 1439   6.026   0.350   1.435  0.1168  0.8338 -0.2978
  478TIP3    H1 1440   6.012   0.384   1.347  1.7366 -0.0458 -0.9510
  478TIP3    H2 1441   6.115   0.377   1.457  0.6119 -0.9243  0.0682
  479TIP3   OH2 1442   3.041   3.447   2.612 -0.7598  0.1960 -0.3079
  479TIP3    H1 1443   2.971   3.394   2.650 -0.0547  0.5398  1.5617
  479TIP3    H2 1444   3.117   3.389   2.613 -0.2827  0.8145  0.6099
  480TIP3   OH2 1445   3.021   3.424   3.830  0.1234  0.2135  0.1268
  480TIP3    H1 1446   3.008   3.493   3.765  0.6494 -1.4015 -1.7828
  480TIP3    H2 1447   3.011   3.469   3.915 -0.1681  2.4737 -1.0247
  481TIP3   OH2 1448   6.333   2.760   2.872  0.2712 -0.5544  0.2584
  481TIP3    H1 1449   6.239   2.760   2.857  0.4885  0.0588 -1.3768
  481TIP3    H2 1450   6.360   2.851   2.856  1.0082 -0.4602  1.8260
  482TIP3   OH2 1451   1.228   0.677   4.173 -0.0528  0.5014  0.3228
  482TIP3    H1 1452   1.202   0.586   4.162  0.0213  0.6153 -0.9350
  482TIP3    H2 1453   1.316   0.682   4.136  0.1756  0.9727  0.9061
  483TIP3   OH2 1454   2.068   3.151   3.588  0.0684 -1.1237  0.7137
  483TIP3    H1 1455   1.974   3.157   3.609 -0.1427  1.3343 -0.5729
  483TIP3    H2 1456   2.077   3.066   3.545 -1.9321 -0.7708 -0.5570
  484TIP3   OH2 1457   0.631   0.412   3.057  0.1674 -0.4583 -0.2084
  484TIP3    H1 1458   0.535   0.417   3.057  0.2172  1.9916  1.3869
  484TIP3    H2 1459   0.660   0.498   3.027  1.9370 -1.4220 -1.4812
  485TIP3   OH2 1460   2.215   1.793   1.238  0.2656  0.4788 -0.1275
  485TIP3    H1 1461   2.172   1.802   1.323  0.3767  0.9031 -0.1164
  485TIP3    H2 1462   2.165   1.849   1.179  1.8344  2.3951  0.2727
  486TIP3   OH2 1463   5.661   0.954   1.648  0.5864  0.0948 -0.3688
  486TIP3    H1 1464   5.631   0.871   1.609  0.5986 -0.1765  0.1917
  486TIP3    H2 1465   5.671   1.013   1.573  3.1312 -1.1575 -1.1298
  487TIP3   OH2 1466   4.391   1.818   1.417 -0.1792 -0.4826  0.0468
  487TIP3    H1 1467   4.314   1.855   1.459  0.0398  2.7850 -2.0499
  487TIP3    H2 1468   4.463   1.874   1.445  0.2035  0.9100 -3.2810
  488TIP3   OH2 1469   3.215   5.069   4.954  0.4704  0.8893 -0.2899
  488TIP3    H1 1470   3.178   4.995   5.002 -2.6876  2.1976 -0.4696
  488TIP3    H2 1471   3.309   5.063   4.969  0.4608 -3.4407 -0.7580
  489TIP3   OH2 1472   4.168   2.406   1.759 -0.0471  0.2205  0.0446
  489TIP3    H1 1473   4.243   2.413   1.818  0.9063  1.8269 -1.2753
  489TIP3    H2 1474   4.140   2.315   1.767  1.7695 -0.3134  0.9141
  490TIP3   OH2 1475   1.063   5.961   1.628  0.0752  0.0764  0.8999
  490TIP3    H1 1476   1.015   5.947   1.709 -0.2117 -1.4851  0.4988
  490TIP3    H2 1477   0.996   5.959   1.560  0.3929  0.6746  0.5617
  491TIP3   OH2 1478   1.665   3.995   2.385  0.4626  0.1268 -0.4438
  491TIP3    H1 1479   1.749   4.042   2.381 -0.0743  1.2162  0.5333
  491TIP3    H2 1480   1.606   4.049   2.332 -0.0467  0.3190  0.3084
  492TIP3   OH2 1481   3.423   5.635   0.005  0.5183 -0.0873 -0.3256
  492TIP3    H1 1482   3.417   5.730   0.016  2.4556 -0.1312  1.8545
  492TIP3    H2 1483   3.514   5.614   0.027  0.0094 -2.5148 -0.2294
  493TIP3   OH2 1484   4.241   4.527   3.874  0.2989  0.6528  0.0969
  493TIP3    H1 1485   4.305   4.595   3.855  0.4589  0.6136  0.4669
  493TIP3    H2 1486   4.294   4.454   3.908 -0.1228  1.6512  3.2517
  494TIP3   OH2 1487   0.720   5.173   2.745  0.0244  0.8477  0.2224
  494TIP3    H1 1488   0.669   5.253   2.759 -0.5273  0.8579 -1.6482
  494TIP3    H2 1489   0.764   5.187   2.661 -1.9465 -1.7275 -1.3506
  495TIP3   OH2 1490   2.861   2.388   3.155  0.1817  0.2379 -0.5035
  495TIP3    H1 1491   2.792   2.442   3.115  1.5672  1.7706 -0.9239
  495TIP3    H2 1492   2.864   2.309   3.100 -1.6973 -0.2074 -0.0345
  496TIP3   OH2 1493   3.446   2.974   4.094 -0.0828  0.2078 -0.0419
  496TIP3    H1 1494   3.393   3.023   4.157 -1.1306 -0.0603 -0.6835
  496TIP3    H2 1495   3.522   2.945   4.144 -0.6679  0.3885  0.9800
  497TIP3   OH2 1496   0.961   2.960   2.374 -0.1033 -1.1862 -0.2887
  497TIP3    H1 1497   0.867   2.978   2.370 -0.7009 -3.6691  0.5472
  497TIP3    H2 1498   1.000   3.044   2.400 -1.7888  0.4586 -2.6005
  498TIP3   OH2 1499   5.945   3.470   2.714 -0.0378 -0.2929 -0.2144
  498TIP3    H1 1500   5.906   3.392   2.674 -0.3001 -0.0820 -0.3649
  498TIP3    H2 1501   6.010   3.434   2.775 -0.2677 -0.6357 -0.1647
  499TIP3   OH2 1502   2.246   3.273   4.982  0.4103 -0.1565  0.1324
  499TIP3    H1 1503   2.179   3.331   4.947  1.0503  0.0984 -0.6957
  499TIP3    H2 1504   2.260   3.208   4.914  0.3421 -0.7618  0.6833
  500TIP3   OH2 1505   4.708   2.663   0.096  0.0878 -0.0327  0.4277
  500TIP3    H1 1506   4.721   2.597   0.028  2.0092  1.6600 -0.9617
  500TIP3    H2 1507   4.771   2.639   0.165  0.4476  0.0792  0.1389
  501TIP3   OH2 1508   0.047   3.945   4.106  0.0195  0.0088 -0.3663
  501TIP3    H1 1509   0.023   3.915   4.194 -0.0420  2.5130  0.5543
  501TIP3    H2 1510   0.100   4.022   4.121 -1.0906  1.2995 -2.5341
  502TIP3   OH2 1511   3.945   0.460   0.871 -0.1842 -0.1885  0.6068
  502TIP3    H1 1512   4.032   0.437   0.839 -0.1983 -1.1827  1.2434
  502TIP3    H2 1513   3.891   0.383   0.852 -1.1769  0.7633 -0.6412
  503TIP3   OH2 1514   5.590   1.301   0.319  0.5044 -0.7773 -0.3478
  503TIP3    H1 1515   5.600   1.393   0.344  1.3659 -0.8820 -0.2791
  503TIP3    H2 1516   5.552   1.259   0.397 -0.5073 -0.3618 -0.6119
  504TIP3   OH2 1517   1.932   3.562   4.084  0.2022 -0.0301  0.2923
  504TIP3    H1 1518   1.893   3.633   4.034 -0.3807 -0.9137 -0.5432
  504TIP3    H2 1519   1.912   3.583   4.175  0.2419  0.9841  0.0803
  505TIP3   OH2 1520   1.079   3.106   4.235  0.0670  0.4685 -0.0957
  505TIP3    H1 1521   1.155   3.151   4.198  0.8723  0.0700  1.0142
  505TIP3    H2 1522   1.003   3.149   4.194  0.8608  1.3585 -0.6760
  506TIP3   OH2 1523   1.148   1.124   0.767  0.6136 -0.4113  0.0964
  506TIP3    H1 1524   1.199   1.158   0.694 -1.8897  0.9140 -1.1995
  506TIP3    H2 1525   1.063   1.103   0.729 -0.8721  0.4751  2.6300
  507TIP3   OH2 1526   0.147   5.827   4.259 -0.1701 -0.4591 -0.0943
  507TIP3    H1 1527   0.217   5.851   4.198 -0.8282  0.4281 -0.5259
  507TIP3    H2 1528   0.174   5.743   4.295  2.2063  0.8337  1.4043
  508TIP3   OH2 1529   3.587   4.374   1.771 -0.1389  0.3446 -0.6168
  508TIP3    H1 1530   3.646   4.449   1.767 -0.0641  0.3683  0.6264
  508TIP3    H2 1531   3.559   4.370   1.863 -2.0239  0.3062 -1.1587
  509TIP3   OH2 1532   5.915   5.124   4.532  0.5114 -0.4756 -0.8070
  509TIP3    H1 1533   6.007   5.113   4.557  0.6327 -0.5744 -1.2704
  509TIP3    H2 1534   5.892   5.040   4.491  0.4593 -0.1625 -1.4223
  510TIP3   OH2 1535   4.835   5.822   2.080  0.1682 -0.0186 -0.1788
  510TIP3    H1 1536   4.822   5.916   2.084 -0.5843 -0.0759 -0.8492
  510TIP3    H2 1537   4.884   5.800   2.159  0.5644  0.9637 -0.1450
  511TIP3   OH2 1538   1.933   0.306   2.657 -0.4911  0.0892 -0.0614
  511TIP3    H1 1539   1.977   0.221   2.659 -0.1739  0.2519 -0.0835
  511TIP3    H2 1540   1.917   0.323   2.564 -2.0187 -0.6912  0.0302
  512TIP3   OH2 1541   3.309   1.857   0.629  0.2354  0.5280 -0.2185
  512TIP3    H1 1542   3.292   1.802   0.705 -2.0531  0.8369 -0.4489
  512TIP3    H2 1543   3.337   1.795   0.561  1.7938  0.1927  0.6774
  513TIP3   OH2 1544   2.193   5.258   3.855  0.2526  0.2393  0.3642
  513TIP3    H1 1545   2.187   5.310   3.934 -0.8642  2.9541 -1.3486
  513TIP3    H2 1546   2.269   5.293   3.808 -0.2384  0.0407 -0.6150
  514TIP3   OH2 1547   5.830   3.242   3.021 -0.2691 -0.1759  0.1556
  514TIP3    H1 1548   5.827   3.311   3.088 -2.3285  0.9856 -1.0318
  514TIP3    H2 1549   5.903   3.267   2.964 -0.9451  1.0102 -0.2168
  515TIP3   OH2 1550   1.367   1.869   0.885 -0.2549  0.0381  0.2412
  515TIP3    H1 1551   1.458   1.854   0.910  0.6264 -0.8959 -3.0031
  515TIP3    H2 1552   1.373   1.907   0.797 -2.9976  0.6189  0.2299
  516TIP3   OH2 1553   5.611   5.059   2.953  0.3148  0.0186  0.5979
  516TIP3    H1 1554   5.563   5.032   3.031  0.6679 -1.5157  0.3140
  516TIP3    H2 1555   5.703   5.056   2.979  0.3644  2.1340  0.8875
  517TIP3   OH2 1556   5.790   3.196   0.555  0.5688  0.7469  0.4212
  517TIP3    H1 1557   5.848   3.268   0.581  1.6996 -0.6486  1.9996
  517TIP3    H2 1558   5.760   3.220   0.468 -0.3013  3.8311  1.4280
  518TIP3   OH2 1559   1.557   2.865   1.603 -0.6477 -0.1745  0.0400
  518TIP3    H1 1560   1.514   2.926   1.543  1.5191 -0.5208 -1.9974
  518TIP3    H2 1561   1.646   2.898   1.611 -0.5600 -0.7991  2.2330
  519TIP3   OH2 1562   5.294   0.795   4.250  0.1364 -0.0385 -0.2782
  519TIP3    H1 1563   5.349   0.863   4.289  0.6330  0.0479 -1.1023
  519TIP3    H2 1564   5.213   0.840   4.226 -0.5998 -0.2954  1.5222
  520TIP3   OH2 1565   6.228   5.332   1.784 -0.0174  0.2491 -0.4255
  520TIP3    H1 1566   6.320   5.311   1.768  0.0218  0.5391 -0.6036
  520TIP3    H2 1567   6.211   5.301   1.873 -0.2324 -1.3809 -1.0008
  521TIP3   OH2 1568   5.607   4.640   0.728 -0.0608 -0.1649 -0.3098
  521TIP3    H1 1569   5.523   4.684   0.737 -0.0384  0.2332 -1.8923
  521TIP3    H2 1570   5.666   4.688   0.787 -1.1007 -0.9913  1.4824
  522TIP3   OH2 1571   4.678   2.016   1.913  0.2076  0.1106  0.2124
  522TIP3    H1 1572   4.725   2.085   1.959  0.0036  1.8945 -2.0399
  522TIP3    H2 1573   4.591   2.015   1.952 -0.1631  2.0237 -0.4873
  523TIP3   OH2 1574   4.021   3.465   0.357 -0.1553 -0.2092  0.0161
  523TIP3    H1 1575   4.015   3.561   0.355 -0.3272 -0.2331 -1.0237
  523TIP3    H2 1576   4.114   3.447   0.374 -0.4283  0.1246  2.1387
  524TIP3   OH2 1577   2.134   1.003   2.617 -0.1000 -0.0720  0.0080
  524TIP3    H1 1578   2.220   1.025   2.654  0.6605  0.4249 -1.9289
  524TIP3    H2 1579   2.148   0.920   2.571  0.2860  1.5765 -3.0856
  525TIP3   OH2 1580   5.992   5.809   4.573  0.1003 -0.1391 -0.1063
  525TIP3    H1 1581   5.975   5.897   4.539 -1.1750  0.1118  1.0812
  525TIP3    H2 1582   5.993   5.753   4.496 -0.3004  0.7479 -0.7721
  526TIP3   OH2 1583   1.164   3.975   3.575 -0.0803  0.5222 -0.2158
  526TIP3    H1 1584   1.095   3.962   3.641  2.4180  0.0265  2.5048
  526TIP3    H2 1585   1.187   4.067   3.583 -0.4699  0.7268 -1.2441
  527TIP3   OH2 1586   2.035   4.934   2.113 -0.3750  0.1380 -0.3993
  527TIP3    H1 1587   1.994   4.878   2.046 -0.8814 -1.1635  0.9276
  527TIP3    H2 1588   1.997   5.021   2.097  0.4130  0.1666 -2.5060
  528TIP3   OH2 1589   5.726   4.451   4.057  0.5378  0.1578  0.5231
  528TIP3    H1 1590   5.810   4.437   4.013 -0.1459 -0.3746 -0.6947
  528TIP3    H2 1591   5.712   4.372   4.109  0.5689  0.0186  0.3230
  529TIP3   OH2 1592   6.340   3.498   2.726 -0.0316 -0.6231 -0.3848
  529TIP3    H1 1593   6.357   3.571   2.667 -0.0217 -0.1252  0.2262
  529TIP3    H2 1594   6.312   3.427   2.668  3.2189 -1.2662 -1.3658
  530TIP3   OH2 1595   0.197   4.068   0.068 -0.1152  0.0627  0.4339
  530TIP3    H1 1596   0.114   4.108   0.094 -1.4459 -2.5353  0.5983
  530TIP3    H2 1597   0.196   4.071  -0.027 -1.1581 -1.1785  0.3630
  531TIP3   OH2 1598   2.039   2.271   0.260  0.1603  0.0900 -0.3328
  531TIP3    H1 1599   2.057   2.197   0.202  0.0791  1.4256 -2.1830
  531TIP3    H2 1600   2.062   2.348   0.208 -1.2685  1.4403  0.9119
  532TIP3   OH2 1601   4.502   4.102   3.845 -0.0291 -0.2809  0.0893
  532TIP3    H1 1602   4.481   4.037   3.778 -1.6071 -1.1168  1.3192
  532TIP3    H2 1603   4.473   4.062   3.927  3.2372  0.0518  1.5502
  533TIP3   OH2 1604   4.754   5.136   0.534  1.1549  0.2541  0.3037
  533TIP3    H1 1605   4.744   5.047   0.500  0.7918  0.2656  0.3802
  533TIP3    H2 1606   4.665   5.166   0.550  1.1671  1.2773 -1.3794
  534TIP3   OH2 1607   1.102   3.669   5.021 -0.3123 -0.2429  0.1445
  534TIP3    H1 1608   1.198   3.668   5.030 -0.2855 -2.3104  0.1977
  534TIP3    H2 1609   1.080   3.578   5.000 -2.1866  0.4104 -0.8955
  535TIP3   OH2 1610   3.263   3.561   2.858 -0.0012 -0.4167 -0.1382
  535TIP3    H1 1611   3.282   3.564   2.952 -0.7153  0.4152 -0.0100
  535TIP3    H2 1612   3.225   3.474   2.845  0.0505 -0.5186  0.3501
  536TIP3   OH2 1613   3.556   4.828   2.324  0.6739 -0.4225 -1.0798
  536TIP3    H1 1614   3.528   4.738   2.341 -0.9420  0.2811  0.2706
  536TIP3    H2 1615   3.652   4.822   2.318  0.6176 -2.1902 -0.7955
  537TIP3   OH2 1616   0.700   5.332   0.135 -0.0350  0.5835 -0.5529
  537TIP3    H1 1617   0.681   5.423   0.158  0.0373  0.9290 -1.7824
  537TIP3    H2 1618   0.772   5.338   0.072  1.0873 -0.4343  0.6009
  538TIP3   OH2 1619   3.692   1.084   0.157 -1.0362 -0.0004  0.6390
  538TIP3    H1 1620   3.607   1.103   0.119 -0.7381 -0.5021 -0.3029
  538TIP3    H2 1621   3.685   0.993   0.187  0.0356 -1.0783 -2.0545
  539TIP3   OH2 1622   5.631   4.338   2.754  0.3302 -0.1040 -0.4007
  539TIP3    H1 1623   5.713   4.290   2.750  0.5498  0.2934 -0.8173
  539TIP3    H2 1624   5.612   4.361   2.663  0.5679  1.1342 -0.1693
  540TIP3   OH2 1625   3.311   0.462   2.787 -0.4636  0.0031  0.0422
  540TIP3    H1 1626   3.256   0.397   2.831 -2.0700  1.3847  0.1516
  540TIP3    H2 1627   3.287   0.456   2.695  0.2572 -0.3637 -0.1302
  541TIP3   OH2 1628   0.238   5.668   1.154  0.3507 -0.2658 -0.5784
  541TIP3    H1 1629   0.244   5.595   1.215 -2.2427 -1.4706 -1.6228
  541TIP3    H2 1630   0.321   5.667   1.106  1.7652 -0.2994  1.7420
  542TIP3   OH2 1631   5.971   2.016   2.790 -0.0837 -0.1293 -0.5597
  542TIP3    H1 1632   5.923   1.946   2.746 -0.5337  0.0522 -0.3741
  542TIP3    H2 1633   6.056   1.978   2.811  0.3541 -0.0313 -2.0869
  543TIP3   OH2 1634   5.416   2.875   0.171 -0.3250 -0.3236 -0.0577
  543TIP3    H1 1635   5.455   2.793   0.202  0.4872 -0.0383 -0.2950
  543TIP3    H2 1636   5.413   2.865   0.076 -1.0547 -0.4299 -0.0314
  544TIP3   OH2 1637   2.920   2.540   2.022 -0.3082 -0.0286 -0.0583
  544TIP3    H1 1638   2.967   2.589   1.955 -1.2079 -0.0632 -0.7308
  544TIP3    H2 1639   2.854   2.490   1.974 -0.4689 -0.6428  0.7781
  545TIP3   OH2 1640   4.821   2.680   2.994  0.5039  0.3007  0.0941
  545TIP3    H1 1641   4.877   2.757   2.998  1.0843 -0.0978 -0.2530
  545TIP3    H2 1642   4.778   2.686   2.909  0.2887  0.4147  0.2090
  546TIP3   OH2 1643   3.880   0.925   4.305  0.1104 -0.3514 -0.7574
  546TIP3    H1 1644   3.812   0.949   4.368  0.1384 -2.7156  0.3012
  546TIP3    H2 1645   3.835   0.864   4.245  1.2666 -2.0798  0.0586
  547TIP3   OH2 1646   0.644   3.980   0.546  0.6165  0.2080 -0.2374
  547TIP3    H1 1647   0.691   3.900   0.523 -0.5853 -1.0714  1.5404
  547TIP3    H2 1648   0.673   4.000   0.635  0.1999  1.2235 -0.3142
  548TIP3   OH2 1649   2.065   5.628   2.682  0.0388 -0.2284  0.1291
  548TIP3    H1 1650   2.134   5.690   2.660 -0.9610  0.3138 -1.6619
  548TIP3    H2 1651   2.058   5.633   2.777 -0.4257  2.9151  0.0255
  549TIP3   OH2 1652   5.106   3.602   3.777 -0.0421 -0.4645 -0.0657
  549TIP3    H1 1653   5.148   3.688   3.769  1.7399 -1.3512 -0.8315
  549TIP3    H2 1654   5.027   3.619   3.829  1.5521  1.2391  2.0054
  550TIP3   OH2 1655   4.422   1.600   2.154 -0.2951  0.0679 -0.0402
  550TIP3    H1 1656   4.420   1.689   2.189 -4.8165  0.2678 -0.1198
  550TIP3    H2 1657   4.466   1.549   2.222 -0.2415  1.9492  1.4350
  551TIP3   OH2 1658   0.159   5.317   2.034  0.1037  0.5638 -0.2052
  551TIP3    H1 1659   0.201   5.304   2.119 -2.0523 -1.3813  0.6703
  551TIP3    H2 1660   0.217   5.273   1.972  0.5045 -0.1410  0.6382
  552TIP3   OH2 1661   4.455   3.436   3.263 -0.3020 -0.4260 -0.1463
  552TIP3    H1 1662   4.517   3.363   3.272  0.2528  0.0217 -0.3008
  552TIP3    H2 1663   4.427   3.455   3.353  1.5603  0.8776  0.2164
  553TIP3   OH2 1664   3.679   4.336   4.918  0.2547 -0.5153 -0.0274
  553TIP3    H1 1665   3.662   4.242   4.925  0.2574 -0.7206 -2.1355
  553TIP3    H2 1666   3.640   4.361   4.834  0.7384  1.2716  0.2364
  554TIP3   OH2 1667   5.794   4.580   4.639 -0.0002 -0.0713  0.0340
  554TIP3    H1 1668   5.800   4.517   4.568  0.6977 -2.9033  2.4036
  554TIP3    H2 1669   5.709   4.563   4.680 -0.2283  1.2297  0.1423
  555TIP3   OH2 1670   3.184   1.914   4.056 -0.0690  0.4132 -0.2308
  555TIP3    H1 1671   3.210   1.985   4.116  0.1226  0.6594 -0.6034
  555TIP3    H2 1672   3.187   1.954   3.969 -0.8092  0.1891 -0.3675
  556TIP3   OH2 1673   2.792   1.422   4.466  0.2442  1.0663 -0.0417
  556TIP3    H1 1674   2.745   1.353   4.512  0.4396  1.3401  0.5880
  556TIP3    H2 1675   2.726   1.466   4.413  0.2350  0.0232 -0.9094
  557TIP3   OH2 1676   2.950   5.736   4.750  0.2011  0.2015 -0.1031
  557TIP3    H1 1677   3.023   5.753   4.811  0.0249  3.4141 -0.6134
  557TIP3    H2 1678   2.912   5.654   4.781  2.4430 -0.2376  1.7807
  558TIP3   OH2 1679   2.119   4.058   4.451  0.3797  0.1545  0.3412
  558TIP3    H1 1680   2.084   4.069   4.362 -0.9486  1.7509  1.0061
  558TIP3    H2 1681   2.179   3.983   4.444  0.3258  0.2473 -1.8871
  559TIP3   OH2 1682   3.594   1.211   3.432 -0.0861  0.3920  0.1474
  559TIP3    H1 1683   3.655   1.284   3.423  1.1789 -0.5036  1.0505
  559TIP3    H2 1684   3.511   1.252   3.457  0.3605  1.5799 -0.2577
  560TIP3   OH2 1685   6.334   0.834   4.652  0.2755  0.5475  0.3368
  560TIP3    H1 1686   6.298   0.758   4.605  3.0110 -0.6346  0.0073
  560TIP3    H2 1687   6.395   0.874   4.591  0.5739  1.6928  1.3416
  561TIP3   OH2 1688   2.479   4.128   2.474  0.4458 -0.5077  0.1152
  561TIP3    H1 1689   2.413   4.179   2.523  1.7227  0.8431  0.5033
  561TIP3    H2 1690   2.457   4.037   2.493 -1.2652 -0.1064  0.2828
  562TIP3   OH2 1691   0.715   1.432   1.644 -0.5110  0.2745 -0.1411
  562TIP3    H1 1692   0.636   1.483   1.657  0.3652  1.2598  1.8231
  562TIP3    H2 1693   0.749   1.418   1.733  0.6197 -1.5734 -0.8047
  563TIP3   OH2 1694   0.123   1.804   4.816 -0.3917  0.5131  0.3904
  563TIP3    H1 1695   0.139   1.854   4.736 -0.4311  0.2914  0.2442
  563TIP3    H2 1696   0.030   1.817   4.835 -0.2705  0.9792  0.6819
  564TIP3   OH2 1697   0.776   4.928   0.644  0.1100  0.0042  0.9781
  564TIP3    H1 1698   0.682   4.917   0.635  0.2360 -1.4989  1.2702
  564TIP3    H2 1699   0.801   4.865   0.712  1.5908 -1.0228 -0.4418
  565TIP3   OH2 1700   2.795   3.514   1.971 -0.2602  0.3658 -0.4045
  565TIP3    H1 1701   2.880   3.520   2.014 -0.1834  1.2179 -0.6548
  565TIP3    H2 1702   2.783   3.421   1.953 -0.0791  0.0539  1.0172
  566TIP3   OH2 1703   2.675   5.918   4.404  0.0708  0.5241 -0.1988
  566TIP3    H1 1704   2.685   5.829   4.436 -1.9629  0.4561  0.3548
  566TIP3    H2 1705   2.721   5.972   4.469 -0.5930  0.0529  0.6720
  567TIP3   OH2 1706   6.157   2.294   4.545 -0.1989 -0.4481 -0.6029
  567TIP3    H1 1707   6.117   2.320   4.628 -1.2251 -1.2016 -0.8539
  567TIP3    H2 1708   6.139   2.201   4.537  0.7016 -0.5861 -1.2434
  568TIP3   OH2 1709   4.078   4.638   0.621  0.1551  0.6770  0.3991
  568TIP3    H1 1710   4.078   4.553   0.578  1.0515  0.0270  1.6193
  568TIP3    H2 1711   4.170   4.664   0.626 -0.0297  1.3024  0.8210
  569TIP3   OH2 1712   2.675   2.806   0.098 -0.6376 -0.2759  0.7445
  569TIP3    H1 1713   2.622   2.742   0.052 -2.0002  0.4134  1.2954
  569TIP3    H2 1714   2.713   2.758   0.171  0.2012 -0.9726 -0.1195
  570TIP3   OH2 1715   0.782   3.059   4.339  0.4093 -0.5495  0.3459
  570TIP3    H1 1716   0.799   3.008   4.260 -1.7441 -2.4347  0.9977
  570TIP3    H2 1717   0.772   2.993   4.408 -0.6199  0.8661  1.6184
  571TIP3   OH2 1718   2.283   2.250   2.527 -0.6298  0.3339 -0.4672
  571TIP3    H1 1719   2.318   2.289   2.447  0.0788  0.0338 -0.3144
  571TIP3    H2 1720   2.192   2.228   2.505 -0.2204 -0.4635 -1.4503
  572TIP3   OH2 1721   4.596   2.228   2.558 -0.5411 -0.6082  0.0958
  572TIP3    H1 1722   4.675   2.239   2.505 -0.4519 -0.8434  0.1773
  572TIP3    H2 1723   4.626   2.234   2.649 -0.6147 -0.7219  0.1279
  573TIP3   OH2 1724   3.949   2.183   3.692 -0.0104 -0.4044 -0.0307
  573TIP3    H1 1725   3.876   2.222   3.643  0.6359 -0.7514 -1.3150
  573TIP3    H2 1726   3.908   2.151   3.773 -1.1378  0.0973 -0.3770
  574TIP3   OH2 1727   0.740   3.754   2.702 -0.7033 -0.1542 -0.0157
  574TIP3    H1 1728   0.775   3.669   2.675  0.0380 -0.2004  1.0203
  574TIP3    H2 1729   0.728   3.746   2.797  0.4975  1.2632  0.2941
  575TIP3   OH2 1730   5.302   3.866   2.363  0.5164  0.0979 -0.5180
  575TIP3    H1 1731   5.328   3.958   2.355  0.3165  0.2425  0.3853
  575TIP3    H2 1732   5.383   3.820   2.386  0.5053  0.1360 -0.4016
  576TIP3   OH2 1733   3.883   1.328   1.451 -0.3989  0.3065 -0.1392
  576TIP3    H1 1734   3.807   1.272   1.471 -0.5732  0.8166  0.6779
  576TIP3    H2 1735   3.871   1.405   1.506  0.9748  0.1821  0.3644
  577TIP3   OH2 1736   1.608   5.836   4.131 -0.8113 -0.1511  0.4604
  577TIP3    H1 1737   1.644   5.849   4.043 -1.6913  1.1814  0.2650
  577TIP3    H2 1738   1.560   5.754   4.125  1.6151 -1.6830  0.5718
  578TIP3   OH2 1739   2.719   1.814   2.160  0.5738  0.2169 -0.0490
  578TIP3    H1 1740   2.787   1.862   2.112 -0.5498  0.0704 -1.8820
  578TIP3    H2 1741   2.652   1.880   2.178  0.7038  0.1282  0.7929
  579TIP3   OH2 1742   4.547   4.016   1.407  0.0742  0.2020  0.0616
  579TIP3    H1 1743   4.570   4.044   1.495 -1.4571  0.2304  0.4918
  579TIP3    H2 1744   4.455   3.991   1.413  0.3806 -1.3990 -1.1574
  580TIP3   OH2 1745   1.303   4.146   2.161 -0.0135  0.0863  0.7647
  580TIP3    H1 1746   1.265   4.110   2.241  0.2101 -0.7831  0.4875
  580TIP3    H2 1747   1.380   4.093   2.145  0.9533  1.3897  0.9375
  581TIP3   OH2 1748   6.111   3.719   2.354  0.1939 -0.0511 -0.2716
  581TIP3    H1 1749   6.082   3.786   2.292  1.1084  1.4272  0.8232
  581TIP3    H2 1750   6.053   3.731   2.430  0.4561 -0.4020 -0.0129
  582TIP3   OH2 1751   1.110   5.869   5.091  0.5330  0.0549 -0.0938
  582TIP3    H1 1752   1.084   5.900   5.004  0.7223  2.9059  0.7610
  582TIP3    H2 1753   1.033   5.824   5.126 -0.0057  0.1206 -1.1679
  583TIP3   OH2 1754   1.172   1.129   2.917 -0.1532  0.2143 -0.9875
  583TIP3    H1 1755   1.193   1.192   2.848 -0.1521  0.3355 -0.8772
  583TIP3    H2 1756   1.089   1.159   2.953  0.3373  0.7465 -0.2518
  584TIP3   OH2 1757   0.154   3.878   1.409 -0.0128 -0.5612 -0.3893
  584TIP3    H1 1758   0.237   3.855   1.369  0.9887 -0.8982  1.7542
  584TIP3    H2 1759   0.152   3.973   1.408  0.6272 -0.5376 -0.0590
  585TIP3   OH2 1760   3.866   0.806   0.466  0.3386  0.0901  0.5798
  585TIP3    H1 1761   3.951   0.831   0.502  0.4433  0.8702 -0.1786
  585TIP3    H2 1762   3.808   0.879   0.487  0.7575  1.3209 -2.0530
  586TIP3   OH2 1763   5.605   1.066   2.353 -0.6850  0.6565  0.5393
  586TIP3    H1 1764   5.546   1.113   2.412  1.3795  2.1315  1.5761
  586TIP3    H2 1765   5.645   1.135   2.300 -0.3280 -0.3625 -0.5565
  587TIP3   OH2 1766   0.746   2.876   3.846  0.3215 -0.5095 -0.5870
  587TIP3    H1 1767   0.676   2.939   3.862  0.7084 -0.2703  0.2378
  587TIP3    H2 1768   0.706   2.808   3.792 -1.6457 -2.2277  2.6910
  588TIP3   OH2 1769   4.463   3.883   4.914  0.1578  0.2607 -0.8484
  588TIP3    H1 1770   4.397   3.826   4.875  1.7318 -1.8649 -0.6180
  588TIP3    H2 1771   4.513   3.916   4.840 -0.7834  1.4459 -0.9858
  589TIP3   OH2 1772   3.505   3.677   3.307  0.6890  0.4096  0.2076
  589TIP3    H1 1773   3.501   3.761   3.352  1.9702  0.5802  0.0330
  589TIP3    H2 1774   3.577   3.630   3.350  0.0882 -0.5558  0.2084
  590TIP3   OH2 1775   2.356   5.866   0.918  0.4287  0.6060  0.0710
  590TIP3    H1 1776   2.429   5.807   0.937  1.4709  1.7297 -0.3485
  590TIP3    H2 1777   2.369   5.892   0.827  0.1873  1.7431  0.3485
  591TIP3   OH2 1778   2.057   0.338   4.466 -0.0473  0.3097  0.5549
  591TIP3    H1 1779   2.048   0.385   4.383  1.2933  0.7884  0.6554
  591TIP3    H2 1780   2.089   0.404   4.527  0.5429 -0.4164  1.0424
  592TIP3   OH2 1781   3.144   4.582   1.104  0.3761 -0.4457 -0.1928
  592TIP3    H1 1782   3.118   4.604   1.194 -0.3599 -1.5552 -0.1158
  592TIP3    H2 1783   3.118   4.491   1.093 -0.6076  0.0008 -1.9257
  593TIP3   OH2 1784   6.233   0.411   3.023 -0.8144  0.0493 -0.2562
  593TIP3    H1 1785   6.162   0.394   3.085  0.3862  1.2246  1.5336
  593TIP3    H2 1786   6.286   0.331   3.026  0.2765  0.7563  1.8017
  594TIP3   OH2 1787   4.436   3.475   3.975 -0.2423 -0.0122 -0.2429
  594TIP3    H1 1788   4.506   3.534   3.948  1.3609 -1.1191  1.2538
  594TIP3    H2 1789   4.452   3.461   4.069 -2.2433 -0.6360  0.0525
  595TIP3   OH2 1790   5.250   2.142   4.107  0.1155 -0.2400 -0.4697
  595TIP3    H1 1791   5.161   2.173   4.089  0.6000  1.4680 -0.1165
  595TIP3    H2 1792   5.291   2.137   4.021 -0.1876 -0.5880 -0.5950
  596TIP3   OH2 1793   5.272   0.308   0.534  0.2758  0.5746 -0.4908
  596TIP3    H1 1794   5.190   0.263   0.517  1.3453 -1.9931  0.6584
  596TIP3    H2 1795   5.324   0.294   0.455  1.1328 -1.5839  0.3953
  597TIP3   OH2 1796   3.852   0.683   3.729 -0.2527 -0.2554  0.0557
  597TIP3    H1 1797   3.894   0.670   3.644 -0.5156  1.3764 -0.3619
  597TIP3    H2 1798   3.758   0.684   3.709 -0.3438 -0.5281  0.4697
  598TIP3   OH2 1799   0.716   1.391   5.005 -0.5241 -0.1028  0.0756
  598TIP3    H1 1800   0.634   1.397   4.954  0.1293  0.2088 -0.9768
  598TIP3    H2 1801   0.722   1.298   5.028 -1.9216  0.1207  1.4685
  599TIP3   OH2 1802   2.978   1.153   1.446  0.2851  0.5302 -0.8521
  599TIP3    H1 1803   3.013   1.074   1.405 -2.0890 -0.4319 -1.1327
  599TIP3    H2 1804   2.988   1.221   1.379  0.1857 -0.0862 -1.5070
  600TIP3   OH2 1805   3.674   5.887   0.176 -0.5269 -0.0126  0.0102
  600TIP3    H1 1806   3.584   5.919   0.170  0.0376  2.1327  1.5698
  600TIP3    H2 1807   3.709   5.929   0.255  1.4043 -1.9707  0.3139
  601TIP3   OH2 1808   0.010   3.293   2.933  0.3002  0.2110 -0.0381
  601TIP3    H1 1809   0.105   3.284   2.922  0.3625  0.8618 -0.0736
  601TIP3    H2 1810  -0.006   3.387   2.920 -0.4242  0.0057 -0.6095
  602TIP3   OH2 1811   1.697   3.416   2.111 -0.0355  0.4142  0.1049
  602TIP3    H1 1812   1.657   3.339   2.070  1.2309  0.0521 -0.4995
  602TIP3    H2 1813   1.641   3.435   2.186 -0.8753 -0.5523 -0.2572
  603TIP3   OH2 1814   1.087   0.338   4.462 -0.6101 -0.1545 -0.3570
  603TIP3    H1 1815   1.009   0.289   4.437 -1.0326 -0.0620  0.7252
  603TIP3    H2 1816   1.054   0.425   4.484 -0.3081 -0.3050  0.7439
  604TIP3   OH2 1817   0.674   3.902   1.884 -0.3633  0.2921 -0.0418
  604TIP3    H1 1818   0.597   3.871   1.932 -0.5351 -0.5438 -0.8240
  604TIP3    H2 1819   0.650   3.990   1.854 -2.2979 -1.0476 -2.8976
  605TIP3   OH2 1820   2.831   4.431   2.124 -0.7346  0.8185  0.5560
  605TIP3    H1 1821   2.907   4.457   2.176 -1.2498 -1.0905  2.4510
  605TIP3    H2 1822   2.868   4.394   2.044  0.3389  0.3360  1.2467
  606TIP3   OH2 1823   1.559   2.749   4.566 -0.2209 -0.4432  0.0247
  606TIP3    H1 1824   1.520   2.669   4.531  0.6455 -1.0592  0.4254
  606TIP3    H2 1825   1.653   2.730   4.570  0.2101  1.1852 -1.3931
  607TIP3   OH2 1826   5.574   0.298   2.858 -0.8793 -0.1333 -0.6549
  607TIP3    H1 1827   5.494   0.299   2.911 -2.5594 -2.2214 -2.9407
  607TIP3    H2 1828   5.550   0.345   2.778  0.4685 -0.0947 -1.0596
  608TIP3   OH2 1829   2.830   2.906   1.932  0.3973  0.3283  0.3461
  608TIP3    H1 1830   2.897   2.921   1.998 -0.5037  1.3894  1.0627
  608TIP3    H2 1831   2.878   2.884   1.853  1.5822  0.9584  0.8752
  609TIP3   OH2 1832   0.633   4.261   2.319 -0.5086  0.5476  0.2366
  609TIP3    H1 1833   0.561   4.215   2.274 -1.2867  1.2025  0.7817
  609TIP3    H2 1834   0.630   4.228   2.409  0.6879 -0.3431 -0.0226
  610TIP3   OH2 1835   0.747   5.630   3.262 -0.3377 -0.5696 -0.2908
  610TIP3    H1 1836   0.829   5.646   3.307 -0.7982  0.8776  0.0969
  610TIP3    H2 1837   0.768   5.637   3.169  0.1017 -0.8931 -0.2159
  611TIP3   OH2 1838   3.487   0.952   0.871 -0.1717  0.0031  0.2658
  611TIP3    H1 1839   3.568   0.957   0.921 -1.6465 -1.1688  2.9779
  611TIP3    H2 1840   3.442   1.034   0.890 -0.0907  0.2133 -0.4195
  612TIP3   OH2 1841   5.404   2.450   1.705  0.2799 -0.1603  0.0667
  612TIP3    H1 1842   5.352   2.531   1.704  0.3738 -0.0763  1.2479
  612TIP3    H2 1843   5.340   2.380   1.699  0.0024 -0.0588  1.5508
  613TIP3   OH2 1844   4.693   5.948   1.693 -0.1711  0.3219  0.1662
  613TIP3    H1 1845   4.746   5.957   1.773 -0.3451  3.2035  0.0557
  613TIP3    H2 1846   4.659   6.036   1.677 -1.7703 -0.6097 -2.0119
  614TIP3   OH2 1847   2.128   3.777   4.437 -0.0846 -0.4983 -0.0933
  614TIP3    H1 1848   2.221   3.783   4.456  0.7568  1.8869 -3.9361
  614TIP3    H2 1849   2.121   3.707   4.372 -0.8171 -0.0154 -0.5450
  615TIP3   OH2 1850   6.248   5.890   0.414  0.2145 -0.1452  0.0779
  615TIP3    H1 1851   6.301   5.945   0.356  0.1181  0.1053  0.2244
  615TIP3    H2 1852   6.164   5.883   0.370 -0.2694  1.0704  0.7648
  616TIP3   OH2 1853   0.246   2.756   2.168  0.3021 -0.3788  0.6978
  616TIP3    H1 1854   0.341   2.745   2.161  0.4269  0.6694  0.5699
  616TIP3    H2 1855   0.210   2.669   2.151  1.1765 -0.5236 -0.5201
  617TIP3   OH2 1856   6.366   5.842   2.695 -0.0368  0.1196  0.3486
  617TIP3    H1 1857   6.401   5.805   2.776 -2.2538 -0.2601  1.1935
  617TIP3    H2 1858   6.271   5.841   2.706 -0.3512  2.0119 -1.4089
  618TIP3   OH2 1859   2.452   1.098   4.589 -0.6153 -0.0982  0.5682
  618TIP3    H1 1860   2.526   1.124   4.536  0.1962 -2.3230  0.4767
  618TIP3    H2 1861   2.375   1.132   4.543  0.2250  0.3111 -0.5577
  619TIP3   OH2 1862   1.680   4.115  -0.007 -0.4172  0.2010 -0.0482
  619TIP3    H1 1863   1.733   4.182  -0.049  0.3763 -0.2459  0.2148
  619TIP3    H2 1864   1.646   4.157   0.072  0.7057  0.0827  0.5244
  620TIP3   OH2 1865   1.208   4.351   2.407  0.7118 -0.2852 -0.2271
  620TIP3    H1 1866   1.231   4.404   2.331  0.6584  2.1470  1.3411
  620TIP3    H2 1867   1.264   4.385   2.477 -2.8340  1.3708  2.0968
  621TIP3   OH2 1868   0.028   0.453   3.369 -0.6331 -0.0301  0.3558
  621TIP3    H1 1869   0.122   0.438   3.379 -0.9572 -1.3380  1.7283
  621TIP3    H2 1870   0.023   0.526   3.308  1.2617 -0.2031 -0.0881
  622TIP3   OH2 1871   4.430   2.069   3.197 -0.7828  0.4150 -0.1177
  622TIP3    H1 1872   4.438   2.005   3.268 -0.2510  2.7243  2.0610
  622TIP3    H2 1873   4.337   2.071   3.177 -0.9133 -0.4387  0.3539
  623TIP3   OH2 1874   1.243   0.129   4.944 -0.0143  0.7568  0.5004
  623TIP3    H1 1875   1.163   0.091   4.979  1.0837 -1.3606  0.8542
  623TIP3    H2 1876   1.284   0.172   5.020  0.0554  0.2901  0.7272
  624TIP3   OH2 1877   2.238   2.498   1.624  0.4758 -0.3817  0.7036
  624TIP3    H1 1878   2.317   2.449   1.647  0.9519 -0.0297 -0.1600
  624TIP3    H2 1879   2.239   2.573   1.684  1.4645  0.2810 -0.1082
  625TIP3   OH2 1880   0.680   1.814   2.478 -0.0646 -0.3740 -0.1741
  625TIP3    H1 1881   0.645   1.893   2.519 -0.1963 -1.2204  1.4389
  625TIP3    H2 1882   0.752   1.787   2.535 -0.5872 -1.9007 -0.1860
  626TIP3   OH2 1883   2.432   2.175   5.089  0.0120  0.2238 -0.1849
  626TIP3    H1 1884   2.355   2.183   5.033 -0.2025 -1.5244 -0.1944
  626TIP3    H2 1885   2.403   2.125   5.165  0.7689  0.8887  0.5617
  627TIP3   OH2 1886   0.231   1.902   0.461  0.0611  0.4036  0.0545
  627TIP3    H1 1887   0.164   1.833   0.458 -0.7627  1.1670  0.3142
  627TIP3    H2 1888   0.249   1.913   0.554 -1.8940  2.4414  0.2780
  628TIP3   OH2 1889   5.073   4.802   3.907  0.3361  0.3403 -0.7583
  628TIP3    H1 1890   5.136   4.844   3.849 -0.3071  1.2038 -0.8528
  628TIP3    H2 1891   5.069   4.711   3.877 -0.4737  0.9059 -2.5334
  629TIP3   OH2 1892   5.864   2.653   2.600 -0.5240  0.4656  0.5482
  629TIP3    H1 1893   5.873   2.664   2.695 -0.3697 -0.1876  0.6186
  629TIP3    H2 1894   5.876   2.559   2.586 -1.6057  0.3925  0.0048
  630TIP3   OH2 1895   3.778   0.244   2.994  0.0387 -0.1520 -0.9933
  630TIP3    H1 1896   3.814   0.290   3.070  2.3197 -1.9587 -0.8588
  630TIP3    H2 1897   3.685   0.268   2.993  0.2845  1.2354  1.3577
  631TIP3   OH2 1898   5.066   4.611   1.847 -0.6243  0.6286 -0.0212
  631TIP3    H1 1899   4.978   4.641   1.826 -0.2751  0.9612 -1.0649
  631TIP3    H2 1900   5.092   4.664   1.922 -1.4693  0.2207  0.5797
  632TIP3   OH2 1901   1.465   0.599   4.960 -0.1265  0.3482 -0.2309
  632TIP3    H1 1902   1.517   0.518   4.958 -0.5071  0.1053 -1.3735
  632TIP3    H2 1903   1.412   0.594   4.880  0.0926  1.8936 -0.4872
  633TIP3   OH2 1904   0.066   1.205   4.439 -0.1309 -0.1213  0.1658
  633TIP3    H1 1905  -0.017   1.208   4.487 -0.2128  0.1998  0.0107
  633TIP3    H2 1906   0.129   1.170   4.502 -0.3762 -0.3285  0.2973
  634TIP3   OH2 1907   6.248   2.636   1.539 -0.1817 -0.4329  0.1317
  634TIP3    H1 1908   6.187   2.565   1.558 -0.3798 -1.1715 -2.7859
  634TIP3    H2 1909   6.210   2.681   1.464  1.3030  1.0872  0.2268
  635TIP3   OH2 1910   3.786   3.278   3.663 -0.0803 -0.1706 -0.4966
  635TIP3    H1 1911   3.730   3.200   3.665  0.0386 -0.2571  1.2610
  635TIP3    H2 1912   3.794   3.304   3.755  1.2397  0.9521 -0.8904
  636TIP3   OH2 1913   4.881   1.834   4.231  0.2983  0.3270  0.1521
  636TIP3    H1 1914   4.819   1.773   4.271  0.3819  0.8216  1.0706
  636TIP3    H2 1915   4.858   1.835   4.138  1.4369 -2.4990 -0.2659
  637TIP3   OH2 1916   2.956   1.946   2.881  0.8047 -0.1732  0.4157
  637TIP3    H1 1917   2.898   1.872   2.862  1.3393 -0.9017  1.5028
  637TIP3    H2 1918   3.019   1.947   2.809 -1.5335  1.7496 -1.7911
  638TIP3   OH2 1919   3.784   0.151   1.682  0.0818 -0.1644 -0.8771
  638TIP3    H1 1920   3.854   0.151   1.748 -0.5068 -0.6614 -0.2400
  638TIP3    H2 1921   3.801   0.229   1.630  0.3039  0.5004  0.1478
  639TIP3   OH2 1922   4.486   2.432   3.253 -0.0947  0.5005  0.7768
  639TIP3    H1 1923   4.577   2.443   3.226  0.1690 -0.3846  1.2845
  639TIP3    H2 1924   4.442   2.398   3.175  0.5999 -1.7318  1.3063
  640TIP3   OH2 1925   0.117   4.550   1.289  0.3755 -0.0111  0.0440
  640TIP3    H1 1926   0.058   4.475   1.294 -0.2376  0.3677 -1.2610
  640TIP3    H2 1927   0.098   4.600   1.368  0.1372 -0.7366  0.4614
  641TIP3   OH2 1928   2.235   3.656   3.993 -0.3346  0.1784 -0.2723
  641TIP3    H1 1929   2.304   3.625   3.935 -0.0177  0.7676 -0.2208
  641TIP3    H2 1930   2.192   3.577   4.024 -0.4017 -0.1593 -1.1786
  642TIP3   OH2 1931   5.732   3.007   2.715  0.0274 -0.1742  0.1865
  642TIP3    H1 1932   5.816   3.033   2.677  0.1784  0.0823  0.6828
  642TIP3    H2 1933   5.699   2.940   2.656  0.4089 -0.0133 -0.2154
  643TIP3   OH2 1934   4.458   3.425   1.016 -1.2026 -0.0344 -0.1642
  643TIP3    H1 1935   4.445   3.350   1.074  0.1865 -0.6078 -0.5629
  643TIP3    H2 1936   4.553   3.434   1.009 -1.3530  0.7952 -1.3809
  644TIP3   OH2 1937   3.909   1.480   4.039  0.2990  0.4216 -0.1541
  644TIP3    H1 1938   3.821   1.498   4.074 -0.2421 -1.5332 -0.3743
  644TIP3    H2 1939   3.950   1.425   4.106  0.7587 -0.0016 -0.7739
  645TIP3   OH2 1940   2.868   0.238   4.580 -0.3947  0.2967  0.0001
  645TIP3    H1 1941   2.795   0.277   4.627 -1.7139 -0.3601 -1.4335
  645TIP3    H2 1942   2.906   0.176   4.642 -0.2378  1.5255  1.1845
  646TIP3   OH2 1943   0.416   4.586   4.557  0.5447 -0.0322  0.2581
  646TIP3    H1 1944   0.473   4.522   4.599 -0.4843 -0.8780  0.4130
  646TIP3    H2 1945   0.359   4.534   4.500  1.3510  1.0107 -1.5656
  647TIP3   OH2 1946   3.855   3.534   3.229 -0.2733 -0.5356  0.0225
  647TIP3    H1 1947   3.799   3.459   3.208 -0.0112 -0.0509 -2.8724
  647TIP3    H2 1948   3.883   3.568   3.143  2.0563  1.0495  1.2917
  648TIP3   OH2 1949   2.284   3.234   2.179 -0.1295 -0.0738  0.3044
  648TIP3    H1 1950   2.222   3.300   2.211  0.9859  1.5723 -0.7502
  648TIP3    H2 1951   2.230   3.160   2.153 -1.5952  1.0348  0.0624
  649TIP3   OH2 1952   0.761   4.567   3.410  0.8392  0.3547  0.0288
  649TIP3    H1 1953   0.735   4.544   3.321 -0.2459  1.1325  0.1119
  649TIP3    H2 1954   0.853   4.541   3.417  0.6082 -0.7749 -0.9305
  650TIP3   OH2 1955   2.835   4.975   0.539  0.2512  0.5787 -0.2482
  650TIP3    H1 1956   2.908   4.912   0.540 -0.9779 -1.2619 -4.4271
  650TIP3    H2 1957   2.869   5.050   0.491 -0.1303  0.3238 -0.9324
  651TIP3   OH2 1958   1.430   5.905   5.136 -0.4566  0.1046  0.5197
  651TIP3    H1 1959   1.412   5.919   5.043  2.0619 -2.0927 -0.4215
  651TIP3    H2 1960   1.406   5.813   5.150  2.0382 -0.4983  1.1989
  652TIP3   OH2 1961   1.001   2.849   4.381 -0.4067 -0.3161  0.0650
  652TIP3    H1 1962   1.021   2.919   4.318  0.2358 -0.4347  0.1337
  652TIP3    H2 1963   1.061   2.864   4.453 -0.4826 -0.7608  0.2204
  653TIP3   OH2 1964   3.086   0.748   3.038  0.4778 -0.2559  0.2293
  653TIP3    H1 1965   3.091   0.843   3.043  0.0032 -0.2127 -0.0179
  653TIP3    H2 1966   3.173   0.720   3.010  0.5714  0.1199  0.1415
  654TIP3   OH2 1967   4.044   5.896   5.124  0.2297 -0.1125 -0.0692
  654TIP3    H1 1968   4.000   5.838   5.063  0.3856  0.0919 -0.3789
  654TIP3    H2 1969   4.127   5.917   5.082  0.3317  0.0432  0.2054
  655TIP3   OH2 1970   3.195   2.638   2.113 -0.5441  0.6086  0.1412
  655TIP3    H1 1971   3.188   2.624   2.019 -0.2701 -3.1764  0.5062
  655TIP3    H2 1972   3.105   2.638   2.145 -0.6413 -2.9335  0.2376
  656TIP3   OH2 1973   0.794   0.771   4.120  0.7272  0.3011  0.4299
  656TIP3    H1 1974   0.714   0.824   4.128  0.9730  0.6758  0.4013
  656TIP3    H2 1975   0.815   0.774   4.027  0.4678 -0.2581  0.3447
  657TIP3   OH2 1976   0.083   0.668   4.090 -0.1218  0.0065 -0.6003
  657TIP3    H1 1977   0.116   0.590   4.136 -0.3179 -1.7638 -3.2117
  657TIP3    H2 1978  -0.009   0.673   4.115 -0.2271 -0.9350 -0.7515
  658TIP3   OH2 1979   6.018   1.656   2.062  0.0438 -0.1215  0.9488
  658TIP3    H1 1980   6.047   1.649   1.971 -1.3185 -0.3082  0.4906
  658TIP3    H2 1981   6.032   1.747   2.086  0.2871 -0.0412  0.4948
  659TIP3   OH2 1982   3.599   4.113   2.454  0.6233  0.1215  0.0338
  659TIP3    H1 1983   3.637   4.173   2.518 -0.7986  0.6940  0.3883
  659TIP3    H2 1984   3.664   4.108   2.384  0.6925  2.2917 -0.1299
  660TIP3   OH2 1985   1.308   3.980   4.167  0.2574 -0.0364  0.0702
  660TIP3    H1 1986   1.218   3.995   4.194  0.0100 -1.4513  0.0964
  660TIP3    H2 1987   1.355   4.059   4.194 -1.0241  0.8473 -0.2312
  661TIP3   OH2 1988   0.935   0.304   5.065  0.3459  0.6525  0.5205
  661TIP3    H1 1989   1.020   0.336   5.097  0.7797 -0.1258  0.1828
  661TIP3    H2 1990   0.909   0.239   5.130  1.1387 -0.8012 -0.5579
  662TIP3   OH2 1991   2.038   2.316   2.129 -0.3500 -0.2001  0.6884
  662TIP3    H1 1992   2.053   2.409   2.142  1.0572 -0.2935 -0.0929
  662TIP3    H2 1993   2.015   2.307   2.037  0.0577 -0.6707  0.6240
  663TIP3   OH2 1994   0.130   3.760   2.113 -0.0289  0.2771 -0.7035
  663TIP3    H1 1995   0.167   3.846   2.092  0.2962 -0.1454 -1.9136
  663TIP3    H2 1996   0.142   3.708   2.034  0.3627 -1.0912  0.2142
  664TIP3   OH2 1997   0.159   3.256   0.516  0.9127 -0.1908 -0.0470
  664TIP3    H1 1998   0.154   3.173   0.469  0.1214 -1.1810  1.6872
  664TIP3    H2 1999   0.090   3.310   0.477 -0.4171 -1.3529  0.6087
  665TIP3   OH2 2000   2.868   1.487   2.294 -0.5609  0.1378  0.2091
  665TIP3    H1 2001   2.851   1.555   2.360 -1.9514  1.2372 -1.2125
  665TIP3    H2 2002   2.943   1.519   2.244 -0.7503  0.2628  0.0056
  666TIP3   OH2 2003   6.096   1.328   4.762 -0.2411 -0.3911  0.3374
  666TIP3    H1 2004   6.024   1.387   4.740  0.4899 -0.2725 -1.9868
  666TIP3    H2 2005   6.105   1.335   4.857 -1.7443  1.3868  0.3945
  667TIP3   OH2 2006   2.780   2.364   0.862  0.2699 -0.0383  0.3828
  667TIP3    H1 2007   2.732   2.323   0.790 -0.8792  0.6421  0.7231
  667TIP3    H2 2008   2.754   2.314   0.940 -0.2389  0.5794  0.6279
  668TIP3   OH2 2009   3.516   5.014   1.188 -0.3145  0.3577 -0.2789
  668TIP3    H1 2010   3.470   5.060   1.119 -1.1524  0.4587  0.3336
  668TIP3    H2 2011   3.454   5.010   1.261  0.7244  0.7466  0.6715
  669TIP3   OH2 2012   1.679   0.460   0.685 -0.2415  0.2001 -0.1734
  669TIP3    H1 2013   1.588   0.433   0.683 -0.0131 -0.5625 -1.4951
  669TIP3    H2 2014   1.701   0.465   0.778 -1.5234  0.0768  0.1544
  670TIP3   OH2 2015   0.474   0.500   4.998 -0.0302  0.3624 -0.4503
  670TIP3    H1 2016   0.460   0.526   4.907 -0.6514  1.5510 -0.0324
  670TIP3    H2 2017   0.568   0.509   5.011  0.1272 -0.2126 -1.0731
  671TIP3   OH2 2018   4.690   1.220   2.184 -0.1030  0.0159 -0.3416
  671TIP3    H1 2019   4.657   1.275   2.254 -0.8283 -0.5686 -0.2035
  671TIP3    H2 2020   4.649   1.255   2.104 -2.2569 -1.5126 -0.0247
  672TIP3   OH2 2021   5.031   2.090   2.453 -0.2922 -0.0187  0.1138
  672TIP3    H1 2022   5.066   2.160   2.509  0.7128 -0.8128  0.5106
  672TIP3    H2 2023   5.080   2.012   2.479 -0.0616 -0.4972 -1.6248
  673TIP3   OH2 2024   0.723   0.743   5.066  0.3545  0.0857 -0.3952
  673TIP3    H1 2025   0.745   0.658   5.104  0.9017  0.4501  0.1152
  673TIP3    H2 2026   0.682   0.791   5.139  0.2587  0.3418 -0.6181
  674TIP3   OH2 2027   2.783   2.654   2.257 -0.0809  0.8522  0.4732
  674TIP3    H1 2028   2.791   2.569   2.301  0.1786  0.3103 -0.6052
  674TIP3    H2 2029   2.817   2.639   2.169  0.0994  2.1181  0.3139
  675TIP3   OH2 2030   4.359   1.311   4.796  0.4081  0.0271 -0.1649
  675TIP3    H1 2031   4.270   1.308   4.761  0.2131  2.7260 -0.0417
  675TIP3    H2 2032   4.349   1.343   4.886  1.3635 -1.8282  0.6668
  676TIP3   OH2 2033   2.011   1.692   0.881  0.0735 -0.4064  0.5290
  676TIP3    H1 2034   2.004   1.697   0.786 -0.8485  0.2896  0.6180
  676TIP3    H2 2035   1.939   1.636   0.908 -0.0614 -0.0840  0.8587
  677TIP3   OH2 2036   1.926   4.817   3.149  0.0744  0.2395 -0.3763
  677TIP3    H1 2037   1.914   4.722   3.159  0.4720  0.2076 -0.1712
  677TIP3    H2 2038   1.932   4.830   3.054 -0.2844  0.1010 -0.4225
  678TIP3   OH2 2039   1.120   4.796   4.666  0.2578 -0.2620  0.3815
  678TIP3    H1 2040   1.067   4.720   4.642 -0.2122  0.2208 -0.1456
  678TIP3    H2 2041   1.159   4.773   4.750 -2.4867  0.1755  1.9030
  679TIP3   OH2 2042   3.732   0.970   0.989 -0.3107 -0.4123 -0.6640
  679TIP3    H1 2043   3.758   1.001   1.076  1.5031  0.2987 -1.4212
  679TIP3    H2 2044   3.747   0.876   0.992 -1.4206 -0.5914  0.1469
  680TIP3   OH2 2045   2.435   1.003   3.136  0.4372  0.0053 -0.5051
  680TIP3    H1 2046   2.454   1.001   3.230 -0.2619  0.0529 -0.3568
  680TIP3    H2 2047   2.520   0.994   3.094  1.0636  2.3380  0.1114
  681TIP3   OH2 2048   5.767   4.516   1.595  0.4799 -0.0254 -0.4590
  681TIP3    H1 2049   5.775   4.442   1.534  0.6019 -0.2335 -0.1961
  681TIP3    H2 2050   5.823   4.491   1.670 -0.0897 -0.0200 -0.0262
  682TIP3   OH2 2051   0.921   5.919   1.861 -0.4443 -0.0183  0.4532
  682TIP3    H1 2052   0.850   5.983   1.860  0.5239  1.1364 -1.9324
  682TIP3    H2 2053   0.877   5.835   1.844 -1.3090  0.6397 -0.7401
  683TIP3   OH2 2054   1.104   1.237   2.672  0.0621  0.4473  0.0719
  683TIP3    H1 2055   1.021   1.196   2.648  0.1152  0.8393 -0.8255
  683TIP3    H2 2056   1.079   1.324   2.704  0.1648  0.8000 -0.7873
  684TIP3   OH2 2057   5.093   1.914   4.388 -0.0997 -0.5609 -0.1585
  684TIP3    H1 2058   5.141   1.831   4.391  1.0340  0.0707  0.0493
  684TIP3    H2 2059   5.013   1.894   4.340  0.1502 -1.7705 -0.1117
  685TIP3   OH2 2060   0.842   5.259   5.044  0.0033  0.5134 -0.3035
  685TIP3    H1 2061   0.841   5.349   5.012 -0.9088  0.6631  0.0961
  685TIP3    H2 2062   0.872   5.266   5.135  1.1147  0.2619 -0.6320
  686TIP3   OH2 2063   2.887   0.161   0.610  0.6245 -0.4996 -0.0088
  686TIP3    H1 2064   2.819   0.093   0.618 -0.6233  0.2992 -2.5276
  686TIP3    H2 2065   2.882   0.210   0.691 -1.3063 -0.9681  0.2033
  687TIP3   OH2 2066   2.497   3.676   1.621  1.1890 -0.2145  0.0167
  687TIP3    H1 2067   2.528   3.677   1.711 -0.1773  1.3032  0.5115
  687TIP3    H2 2068   2.460   3.763   1.607 -0.9366 -1.2151 -1.1771
  688TIP3   OH2 2069   6.057   2.766   4.949 -0.3926  0.0984  0.6845
  688TIP3    H1 2070   6.115   2.705   4.996 -1.0810 -1.3590 -0.2631
  688TIP3    H2 2071   6.116   2.826   4.904  0.4386 -1.4229 -0.3512
  689TIP3   OH2 2072   5.183   0.240   3.648  0.2353 -0.2641 -0.1506
  689TIP3    H1 2073   5.190   0.331   3.675 -0.0713 -0.7178  1.6329
  689TIP3    H2 2074   5.120   0.240   3.577 -1.1018  0.7339  0.9874
  690TIP3   OH2 2075   5.120   5.093   4.676 -0.0434 -0.3176  0.3647
  690TIP3    H1 2076   5.055   5.163   4.671  1.5891  1.3426  1.1117
  690TIP3    H2 2077   5.143   5.074   4.585  0.6225  1.2768  0.1677
  691TIP3   OH2 2078   1.959   5.756   4.823  0.6151  0.1713 -0.0499
  691TIP3    H1 2079   1.900   5.702   4.877  1.3085 -0.7046 -0.1380
  691TIP3    H2 2080   1.938   5.730   4.733  0.4465  0.5953 -0.1351
  692TIP3   OH2 2081   3.786   5.920   3.308  0.2644  0.4506 -0.0411
  692TIP3    H1 2082   3.772   5.826   3.304  1.3036  0.1952  1.3075
  692TIP3    H2 2083   3.793   5.948   3.217 -3.2582 -0.1942 -0.6289
  693TIP3   OH2 2084   0.607   0.583   0.274  0.2886  0.5117  0.1141
  693TIP3    H1 2085   0.525   0.558   0.231  0.4938 -0.8722  0.4549
  693TIP3    H2 2086   0.597   0.551   0.364  1.4287 -0.2199 -0.0012
  694TIP3   OH2 2087   3.687   1.526   1.466  0.4735  0.1763  0.5592
  694TIP3    H1 2088   3.706   1.535   1.372 -0.4938 -0.4710  0.2779
  694TIP3    H2 2089   3.597   1.494   1.468  0.2079  0.9401  1.7374
  695TIP3   OH2 2090   3.963   0.134   4.368  0.2652  0.1713  0.1841
  695TIP3    H1 2091   4.053   0.112   4.344  0.1501  0.3465 -0.4147
  695TIP3    H2 2092   3.952   0.096   4.455  0.2520 -1.7161 -0.5780
  696TIP3   OH2 2093   4.813   1.821   3.636 -0.2823  0.1073  0.4624
  696TIP3    H1 2094   4.908   1.824   3.644 -0.2235  0.8076 -0.3907
  696TIP3    H2 2095   4.784   1.909   3.660 -0.7039 -0.0706  0.6083
  697TIP3   OH2 2096   1.050   3.600   2.765 -0.0679  0.1604  0.1397
  697TIP3    H1 2097   1.080   3.549   2.841 -3.3534 -1.2096  0.6521
  697TIP3    H2 2098   0.963   3.566   2.745 -1.1336  3.4393 -1.5711
  698TIP3   OH2 2099   2.946   0.961   0.977  0.4252  0.4057 -0.2361
  698TIP3    H1 2100   3.014   0.899   0.951 -0.7951 -2.4640  2.6589
  698TIP3    H2 2101   2.868   0.932   0.930 -0.1017 -0.2483  0.9764
  699TIP3   OH2 2102   2.337   1.392   3.552 -0.0309 -0.1742  0.0261
  699TIP3    H1 2103   2.307   1.476   3.516 -0.7006  0.7098  2.4592
  699TIP3    H2 2104   2.263   1.333   3.538 -0.0822 -0.0015 -0.4734
  700TIP3   OH2 2105   4.892   2.670   4.654  0.0748  0.1903  0.3968
  700TIP3    H1 2106   4.912   2.758   4.620 -1.6454  0.0748 -1.0869
  700TIP3    H2 2107   4.905   2.612   4.579  0.0776 -0.6579  1.0456
  701TIP3   OH2 2108   5.390   5.595   4.674 -0.2221 -0.4778 -0.4492
  701TIP3    H1 2109   5.401   5.589   4.580  0.1371 -0.2719 -0.4194
  701TIP3    H2 2110   5.363   5.507   4.701 -0.1014 -0.5945 -0.7105
  702TIP3   OH2 2111   1.964   3.930   2.605  0.5776 -0.5599 -0.1295
  702TIP3    H1 2112   1.935   4.000   2.546 -0.2973 -0.1167  0.7964
  702TIP3    H2 2113   1.900   3.860   2.591  0.2946 -0.4065  0.3567
  703TIP3   OH2 2114   5.398   0.710   3.412  0.2747 -0.0344 -0.0696
  703TIP3    H1 2115   5.464   0.761   3.366  0.4807 -0.1327  0.1139
  703TIP3    H2 2116   5.424   0.619   3.399 -0.2947 -0.1102 -0.7000
  704TIP3   OH2 2117   1.527   4.518   1.236 -0.2757  0.0710 -0.1374
  704TIP3    H1 2118   1.576   4.465   1.173 -1.0524 -0.7351 -0.0979
  704TIP3    H2 2119   1.508   4.457   1.308 -1.8007  0.1805 -0.4036
  705TIP3   OH2 2120   1.570   1.620   3.356 -0.2751  0.1685  0.4604
  705TIP3    H1 2121   1.592   1.529   3.378  0.2979 -0.0357 -0.8444
  705TIP3    H2 2122   1.617   1.672   3.420  0.1327 -0.4324  0.6612
  706TIP3   OH2 2123   1.038   4.752   0.435  0.2400 -0.3353 -0.0849
  706TIP3    H1 2124   1.108   4.688   0.445  0.7963  0.3947  0.8530
  706TIP3    H2 2125   0.957   4.701   0.446  0.6807 -0.8554  0.8658
  707TIP3   OH2 2126   4.312   3.972   5.126 -0.8088 -0.3125 -0.0743
  707TIP3    H1 2127   4.384   3.954   5.065 -0.9043  0.9793 -0.6024
  707TIP3    H2 2128   4.335   3.923   5.205  0.7464  0.1700 -0.1833
  708TIP3   OH2 2129   0.976   3.280   3.543 -0.3186  0.1476 -0.1789
  708TIP3    H1 2130   1.053   3.266   3.599 -0.9115 -0.2031  0.5647
  708TIP3    H2 2131   0.908   3.309   3.603 -0.6156  1.0030 -0.9243
  709TIP3   OH2 2132   1.280   4.682   3.005 -0.3284  0.3955 -0.3063
  709TIP3    H1 2133   1.347   4.625   2.966  0.2874  1.2692 -0.5538
  709TIP3    H2 2134   1.208   4.623   3.026  1.4130 -1.0233  2.1915
  710TIP3   OH2 2135   2.287   4.550   1.099 -0.4173  0.5435 -0.0487
  710TIP3    H1 2136   2.257   4.472   1.053  0.6839 -0.1592  0.3905
  710TIP3    H2 2137   2.381   4.554   1.082 -0.3265  1.3552  0.5497
  711TIP3   OH2 2138   4.481   0.274   2.309 -0.0804  0.1147 -0.1085
  711TIP3    H1 2139   4.575   0.294   2.304 -0.0516  0.1297  0.4344
  711TIP3    H2 2140   4.438   0.359   2.302 -0.0126  0.2199  0.6422
  712TIP3   OH2 2141   3.044   2.480   4.901 -0.1835  0.2733 -0.4883
  712TIP3    H1 2142   3.068   2.425   4.975 -0.3436  0.4639 -0.2915
  712TIP3    H2 2143   2.948   2.485   4.904 -0.1407  1.1616 -0.0535
  713TIP3   OH2 2144   4.339   5.084   2.548 -0.8002 -0.2505  0.3950
  713TIP3    H1 2145   4.348   4.989   2.552 -2.6368 -0.4950 -0.3158
  713TIP3    H2 2146   4.428   5.117   2.546 -0.1281 -1.9382  1.0188
  714TIP3   OH2 2147   5.562   0.311   4.063 -0.2542 -0.4427  0.6203
  714TIP3    H1 2148   5.553   0.332   3.970  1.9899  0.6810  0.6033
  714TIP3    H2 2149   5.480   0.267   4.085 -0.7581 -0.9458 -1.9295
  715TIP3   OH2 2150   1.177   0.997   2.436  0.1270  0.4547  0.3246
  715TIP3    H1 2151   1.183   1.013   2.531  0.7052  2.9412 -0.0529
  715TIP3    H2 2152   1.084   0.981   2.420  0.0369 -0.1063  1.3107
  716TIP3   OH2 2153   4.321   5.882   3.947  0.0503 -0.1195  0.5250
  716TIP3    H1 2154   4.240   5.843   3.979 -0.9103  1.7552  0.4774
  716TIP3    H2 2155   4.384   5.867   4.017 -1.1933  1.1955  1.9916
  717TIP3   OH2 2156   4.003   1.122   2.510 -0.0578  0.3378  0.2830
  717TIP3    H1 2157   4.079   1.110   2.452 -1.1135  3.2907 -1.9751
  717TIP3    H2 2158   4.040   1.157   2.590  1.0145  2.7831 -1.1662
  718TIP3   OH2 2159   4.470   3.893   1.022  0.2361  0.2493  0.2645
  718TIP3    H1 2160   4.553   3.857   0.991  0.1424  0.9140 -0.8258
  718TIP3    H2 2161   4.495   3.960   1.086  0.5044 -0.1741  0.6015
  719TIP3   OH2 2162   6.200   2.430   4.005 -0.0136 -0.0107  0.0891
  719TIP3    H1 2163   6.122   2.416   4.058  0.4236 -1.3133  0.4307
  719TIP3    H2 2164   6.266   2.372   4.043  0.7431  0.0956 -0.9994
  720TIP3   OH2 2165   3.074   1.278   1.248 -0.2750 -0.3783 -0.2971
  720TIP3    H1 2166   3.120   1.362   1.254 -1.2424  0.2866 -1.6425
  720TIP3    H2 2167   3.053   1.269   1.155 -1.2963 -1.5015  0.0221
  721TIP3   OH2 2168   3.334   1.074   2.942  0.1875 -0.0135 -0.2635
  721TIP3    H1 2169   3.355   0.982   2.928  1.9335  0.3708 -0.4069
  721TIP3    H2 2170   3.397   1.103   3.008 -1.0389  0.8279  0.5851
  722TIP3   OH2 2171   1.964   2.429   3.895 -0.0719  0.6766  0.2819
  722TIP3    H1 2172   1.991   2.365   3.830 -2.9262 -1.1128  0.6681
  722TIP3    H2 2173   1.937   2.506   3.845 -0.5777 -0.0176 -0.5156
  723TIP3   OH2 2174   0.991   4.777   4.076  0.0789  0.0384 -0.1061
  723TIP3    H1 2175   0.965   4.707   4.135 -0.2251 -0.2249 -0.5469
  723TIP3    H2 2176   0.989   4.856   4.130 -2.2248  0.1280 -0.2195
  724TIP3   OH2 2177   5.756   5.709   0.985  0.1139 -0.3208 -0.2833
  724TIP3    H1 2178   5.799   5.624   0.977 -1.2300 -0.9974 -0.7566
  724TIP3    H2 2179   5.662   5.688   0.984 -0.2497  1.1890 -0.7077
  725TIP3   OH2 2180   0.949   0.816   2.271  0.0321 -0.1873  0.5520
  725TIP3    H1 2181   1.040   0.810   2.245  0.3839  2.0265  1.0316
  725TIP3    H2 2182   0.905   0.747   2.223  1.6608 -0.1218 -1.1257
  726TIP3   OH2 2183   2.861   4.865   2.802  0.3087  0.3412  0.1919
  726TIP3    H1 2184   2.872   4.807   2.878 -0.3698 -0.4842 -0.3202
  726TIP3    H2 2185   2.858   4.953   2.839  2.5140  0.1840  0.9036
  727TIP3   OH2 2186   5.292   1.410   1.036  0.2910  0.3206 -0.0541
  727TIP3    H1 2187   5.232   1.347   1.076  0.4964 -0.0204 -0.2768
  727TIP3    H2 2188   5.317   1.468   1.108  0.8572 -0.4398  0.3850
  728TIP3   OH2 2189   3.441   1.354   5.084  0.0814  0.0782 -0.2705
  728TIP3    H1 2190   3.407   1.439   5.058 -0.0234 -0.2242 -1.1626
  728TIP3    H2 2191   3.371   1.314   5.136  0.1614  0.5573  0.2167
  729TIP3   OH2 2192   2.472   5.262   4.382  0.1450 -0.0888 -0.5605
  729TIP3    H1 2193   2.383   5.295   4.393  0.0992 -0.8296  2.1280
  729TIP3    H2 2194   2.523   5.339   4.356 -1.0310  0.6394 -0.8102
  730TIP3   OH2 2195   1.342   5.489   0.706  0.4570 -0.1066 -0.1832
  730TIP3    H1 2196   1.300   5.482   0.791 -0.0907  2.8024 -0.1252
  730TIP3    H2 2197   1.430   5.522   0.726  1.0323 -1.3136 -0.6436
  731TIP3   OH2 2198   1.104   3.584   1.763  0.7685 -0.2721  0.4047
  731TIP3    H1 2199   1.030   3.632   1.800 -0.5439 -1.5025 -0.5466
  731TIP3    H2 2200   1.181   3.634   1.790 -0.5000  2.0870 -0.1478
  732TIP3   OH2 2201   6.303   0.925   2.641 -0.0079  0.2871 -0.1962
  732TIP3    H1 2202   6.233   0.885   2.589  0.2413  1.0785 -1.1753
  732TIP3    H2 2203   6.295   1.019   2.625  1.2139  0.3997 -0.2522
  733TIP3   OH2 2204   4.396   1.878   4.697  0.2708 -0.0624  0.6017
  733TIP3    H1 2205   4.374   1.826   4.620 -0.5529 -0.0105  0.7962
  733TIP3    H2 2206   4.484   1.848   4.721  0.4101 -0.2961 -0.1671
  734TIP3   OH2 2207   4.436   4.139   1.918  0.4086  0.0164  0.2207
  734TIP3    H1 2208   4.379   4.097   1.982  0.7563 -0.6328  0.1068
  734TIP3    H2 2209   4.507   4.178   1.970  0.3936 -0.0322  0.2769
  735TIP3   OH2 2210   4.263   1.543   0.290  0.2633  0.1274  0.0352
  735TIP3    H1 2211   4.196   1.573   0.353  0.6804 -0.6433  0.8602
  735TIP3    H2 2212   4.252   1.602   0.215 -0.1900  1.1338  0.8566
  736TIP3   OH2 2213   0.142   5.860   4.568 -0.2044 -0.0251 -0.2525
  736TIP3    H1 2214   0.053   5.879   4.597  0.5013  1.5869  1.0230
  736TIP3    H2 2215   0.145   5.892   4.478 -0.2860  2.2218  0.4736
  737TIP3   OH2 2216   2.728   1.944   0.785 -0.2468  0.0931  0.2959
  737TIP3    H1 2217   2.816   1.982   0.791 -0.0355 -0.4672  0.8532
  737TIP3    H2 2218   2.727   1.898   0.701 -0.4203  1.1083 -0.2682
  738TIP3   OH2 2219   0.691   1.032   3.205  0.0214  0.0820  0.4699
  738TIP3    H1 2220   0.651   1.089   3.139 -0.3165 -1.6799 -0.9383
  738TIP3    H2 2221   0.635   0.955   3.207  0.1029  0.0073  2.7756
  739TIP3   OH2 2222   2.703   0.517   4.621  0.3096 -0.1079  0.4102
  739TIP3    H1 2223   2.657   0.521   4.705 -0.2683  0.0811  0.0897
  739TIP3    H2 2224   2.636   0.491   4.558  0.2334  1.8507 -0.3652
  740TIP3   OH2 2225   5.561   0.282   3.535 -0.1098 -0.0814  0.4727
  740TIP3    H1 2226   5.503   0.213   3.503  0.1540  0.9103 -2.5549
  740TIP3    H2 2227   5.646   0.261   3.496 -0.0794  1.9696 -0.7604
  741TIP3   OH2 2228   1.984   1.524   5.159  0.1143 -0.4987 -0.2905
  741TIP3    H1 2229   2.077   1.500   5.155  0.3447  0.3305 -0.0441
  741TIP3    H2 2230   1.951   1.505   5.071  0.5290 -0.7465 -0.3956
  742TIP3   OH2 2231   4.082   1.368   3.293  0.2028 -0.0898  0.0934
  742TIP3    H1 2232   4.133   1.341   3.217 -0.3665 -0.5920 -0.1191
  742TIP3    H2 2233   4.133   1.337   3.369  1.1068  0.9894 -0.0358
  743TIP3   OH2 2234   2.276   4.453   2.251  0.0659  0.2627  0.0142
  743TIP3    H1 2235   2.249   4.443   2.342 -0.6677  0.8842 -0.1264
  743TIP3    H2 2236   2.195   4.471   2.204  0.1489 -1.8441 -1.0629
  744TIP3   OH2 2237   3.704   0.814   1.882 -0.2632 -0.5040 -0.3165
  744TIP3    H1 2238   3.757   0.881   1.925  1.2250 -0.9900 -1.2951
  744TIP3    H2 2239   3.657   0.771   1.954  1.5774 -0.8152  0.7881
  745TIP3   OH2 2240   5.809   1.718   4.528 -0.3389  0.0193  0.2660
  745TIP3    H1 2241   5.762   1.653   4.580 -0.0514 -0.3048  0.1256
  745TIP3    H2 2242   5.900   1.691   4.532  0.0117  1.2489  1.4431
  746TIP3   OH2 2243   2.254   5.016   3.784  0.1038 -0.6087  0.5984
  746TIP3    H1 2244   2.218   5.103   3.805 -0.8437 -0.6253 -0.7574
  746TIP3    H2 2245   2.176   4.960   3.775  0.5798 -1.1188 -0.4825
  747TIP3   OH2 2246   1.488   0.533   1.628  0.2478  0.2111  0.4215
  747TIP3    H1 2247   1.559   0.540   1.564  0.8550  0.0343  1.0631
  747TIP3    H2 2248   1.532   0.532   1.713 -0.5151 -0.0953  0.8243
  748TIP3   OH2 2249   0.864   1.800   2.731  0.3651  0.4475  0.0085
  748TIP3    H1 2250   0.884   1.868   2.666  1.7494  0.6226  0.5906
  748TIP3    H2 2251   0.880   1.842   2.816 -0.9142  0.0612  0.4664
  749TIP3   OH2 2252   0.434   3.222   2.253  0.2950  0.1021  0.2433
  749TIP3    H1 2253   0.391   3.185   2.176  0.2620  2.3870 -0.9401
  749TIP3    H2 2254   0.523   3.241   2.224 -0.1216  2.3448  0.2136
  750TIP3   OH2 2255   0.106   4.110   3.150 -0.1513  0.0180  0.3420
  750TIP3    H1 2256   0.134   4.019   3.139 -0.5655 -0.0153 -0.5200
  750TIP3    H2 2257   0.062   4.111   3.235 -1.3447 -0.9068 -0.2342
  751TIP3   OH2 2258   3.195   3.486   4.441 -0.6345 -0.0095  0.0092
  751TIP3    H1 2259   3.110   3.456   4.409  0.0266 -2.1957  0.1296
  751TIP3    H2 2260   3.205   3.443   4.526  0.7252 -0.0762 -0.1662
  752TIP3   OH2 2261   5.100   4.931   1.016 -0.3666  0.0403 -0.6534
  752TIP3    H1 2262   5.060   4.965   1.096 -1.2273  1.0340 -1.4806
  752TIP3    H2 2263   5.119   4.839   1.035  0.5288  0.5536  1.0854
  753TIP3   OH2 2264   5.458   3.409   1.188 -0.1172 -0.1536  0.2553
  753TIP3    H1 2265   5.390   3.477   1.182  0.8536  0.8388  0.2898
  753TIP3    H2 2266   5.431   3.356   1.263 -1.1971 -0.1664 -0.1205
  754TIP3   OH2 2267   0.113   4.505   4.565 -0.2337  0.3164  0.1652
  754TIP3    H1 2268   0.114   4.498   4.469  3.8266  3.4077 -0.3260
  754TIP3    H2 2269   0.062   4.585   4.582  0.4609  0.7263  0.3699
  755TIP3   OH2 2270   2.221   3.706   1.986 -0.2428  0.7566  0.8482
  755TIP3    H1 2271   2.131   3.698   2.016 -0.0595  1.2322  1.5502
  755TIP3    H2 2272   2.274   3.684   2.063  0.2454 -0.0458  0.2974
  756TIP3   OH2 2273   5.288   4.510   2.225  0.2421 -0.2640  0.0445
  756TIP3    H1 2274   5.325   4.544   2.143 -1.2310  0.3664 -0.3970
  756TIP3    H2 2275   5.210   4.463   2.198  0.4958 -1.2582  0.9871
  757TIP3   OH2 2276   0.428   2.253   1.277 -0.0793  0.6300 -0.3703
  757TIP3    H1 2277   0.506   2.283   1.231 -0.1916  0.5333 -0.6276
  757TIP3    H2 2278   0.359   2.252   1.210  0.0151 -0.5931 -0.4751
  758TIP3   OH2 2279   4.242   1.552   4.168 -0.0541  0.1686  0.2335
  758TIP3    H1 2280   4.219   1.490   4.099  2.1148 -0.0244 -0.3634
  758TIP3    H2 2281   4.247   1.498   4.247 -0.1922 -0.0472  0.0981
  759TIP3   OH2 2282   0.168   4.097   1.051 -0.1105  0.6380 -0.7083
  759TIP3    H1 2283   0.091   4.114   0.997  0.1488  1.0644 -0.9486
  759TIP3    H2 2284   0.241   4.093   0.989 -0.0786 -0.8633 -0.6052
  760TIP3   OH2 2285   0.941   0.083   2.436 -0.4590 -0.1870 -0.5920
  760TIP3    H1 2286   0.976   0.170   2.416 -1.2359  0.0899 -0.7618
  760TIP3    H2 2287   0.992   0.054   2.512 -0.6121  0.6696 -0.1484
  761TIP3   OH2 2288   2.342   2.639   2.434 -0.0233 -0.0932  0.2353
  761TIP3    H1 2289   2.359   2.546   2.417  0.6880 -0.1450  1.1631
  761TIP3    H2 2290   2.307   2.641   2.523 -1.0350  0.4373 -0.1579
  762TIP3   OH2 2291   4.694   3.650   2.412 -0.4890 -0.3122  0.4448
  762TIP3    H1 2292   4.769   3.696   2.449  0.2771 -2.3532  1.6352
  762TIP3    H2 2293   4.655   3.712   2.351 -0.4310  2.4289  2.9578
  763TIP3   OH2 2294   0.315   1.113   3.227 -0.3499 -0.1408  0.5121
  763TIP3    H1 2295   0.322   1.155   3.313 -2.5002  0.2053  0.5590
  763TIP3    H2 2296   0.392   1.145   3.179  1.5066 -1.1890  2.5903
  764TIP3   OH2 2297   5.356   2.085   3.839  0.5054  0.2055 -0.0154
  764TIP3    H1 2298   5.338   2.179   3.832 -1.6568 -0.0519  1.0042
  764TIP3    H2 2299   5.328   2.049   3.754  0.5415  0.3892 -0.1055
  765TIP3   OH2 2300   4.717   1.041   2.521 -0.0040 -0.4229 -0.3983
  765TIP3    H1 2301   4.793   1.099   2.527  0.1213 -0.6874  0.8031
  765TIP3    H2 2302   4.651   1.083   2.575 -0.1262 -1.0770 -0.0293
  766TIP3   OH2 2303   4.189   5.363   4.126  0.2299 -0.6722 -0.0497
  766TIP3    H1 2304   4.115   5.401   4.174  0.2501 -1.5463  0.6901
  766TIP3    H2 2305   4.165   5.271   4.113  1.0450 -0.8879 -0.0783
  767TIP3   OH2 2306   3.514   2.656   0.232  0.3548 -0.5160 -0.7382
  767TIP3    H1 2307   3.433   2.685   0.191  0.3595  0.3858 -0.1472
  767TIP3    H2 2308   3.524   2.565   0.205  1.1924  0.4236 -4.0080
  768TIP3   OH2 2309   1.263   5.392   1.956  0.0119 -0.4529 -0.3796
  768TIP3    H1 2310   1.220   5.455   1.898 -0.8243  1.4686  2.1318
  768TIP3    H2 2311   1.333   5.442   1.998  2.5344 -2.5920 -1.7409
  769TIP3   OH2 2312   4.784   1.173   0.724  0.7686 -0.1398 -0.2701
  769TIP3    H1 2313   4.714   1.237   0.740 -0.4590 -1.0226 -1.8276
  769TIP3    H2 2314   4.749   1.090   0.757  1.6277 -0.3640  0.1044
  770TIP3   OH2 2315   4.131   4.523   1.548 -0.0206 -0.4500 -0.0614
  770TIP3    H1 2316   4.098   4.568   1.470 -1.3879 -0.8731  0.2610
  770TIP3    H2 2317   4.118   4.586   1.619  0.9245 -0.1913 -0.1027
  771TIP3   OH2 2318   0.584   0.961   4.514  0.0901 -0.1085  0.5192
  771TIP3    H1 2319   0.610   1.040   4.468  1.2879 -1.0199 -0.4385
  771TIP3    H2 2320   0.514   0.989   4.573  1.0263  1.8125  0.7985
  772TIP3   OH2 2321   5.174   1.868   1.341 -0.5025  0.6081  0.2224
  772TIP3    H1 2322   5.104   1.905   1.287  0.5223  1.2905 -0.6716
  772TIP3    H2 2323   5.143   1.879   1.431 -1.3201  1.3557 -0.1386
  773TIP3   OH2 2324   0.666   2.104   1.572  0.6751  0.3319 -0.9442
  773TIP3    H1 2325   0.739   2.140   1.522  0.8678 -0.7395 -1.4493
  773TIP3    H2 2326   0.595   2.096   1.508  0.4733  0.2848 -0.7186
  774TIP3   OH2 2327   2.619   0.503   0.765 -0.1385 -0.4371  0.5061
  774TIP3    H1 2328   2.550   0.517   0.830 -0.2102 -0.3314  0.4089
  774TIP3    H2 2329   2.693   0.554   0.797 -1.3495  2.8122 -1.3793
  775TIP3   OH2 2330   4.726   2.161   5.183  0.2128  0.1328  0.2763
  775TIP3    H1 2331   4.768   2.075   5.187  0.2734  0.1513  0.0639
  775TIP3    H2 2332   4.798   2.223   5.189  0.2263  0.1641 -0.1851
  776TIP3   OH2 2333   5.602   4.252   2.019 -0.2665  0.0487 -0.0838
  776TIP3    H1 2334   5.524   4.233   1.968  0.0951  0.2941 -0.7439
  776TIP3    H2 2335   5.579   4.328   2.072 -0.6533 -0.2262  0.1447
  777TIP3   OH2 2336   4.068   2.316   3.254  0.4883 -0.1983 -0.2125
  777TIP3    H1 2337   4.114   2.245   3.210  0.5211 -0.8958  0.9034
  777TIP3    H2 2338   4.076   2.295   3.347 -3.4378 -1.2656  0.0467
  778TIP3   OH2 2339   1.656   3.715   1.309 -0.2380  0.3607 -0.3943
  778TIP3    H1 2340   1.682   3.775   1.238 -1.1334 -0.3801 -1.3889
  778TIP3    H2 2341   1.672   3.764   1.389  2.4779  0.6030 -0.9915
  779TIP3   OH2 2342   1.569   1.461   2.543  0.0296  0.3933  0.5902
  779TIP3    H1 2343   1.498   1.396   2.538 -1.1535  1.7191 -1.9896
  779TIP3    H2 2344   1.584   1.472   2.637 -0.1490 -3.0593  1.1623
  780TIP3   OH2 2345   4.102   3.563   1.655 -0.2037  0.2600  0.0316
  780TIP3    H1 2346   4.051   3.589   1.578 -0.6630 -0.6421  0.0156
  780TIP3    H2 2347   4.058   3.605   1.729  0.5514  1.5620 -0.2357
  781TIP3   OH2 2348   2.630   1.265   4.877 -0.0667  0.4575 -0.0530
  781TIP3    H1 2349   2.678   1.200   4.827 -1.8259 -0.5670 -0.4947
  781TIP3    H2 2350   2.678   1.273   4.959  1.7851  0.7542 -1.1021
  782TIP3   OH2 2351   1.429   2.506   0.700  0.2173 -0.2611 -0.1271
  782TIP3    H1 2352   1.337   2.522   0.722  0.1711 -1.2268  0.4754
  782TIP3    H2 2353   1.451   2.573   0.635 -0.6468  0.5399  0.3874
  783TIP3   OH2 2354   4.794   0.685   0.897 -0.0214  0.2059 -0.1419
  783TIP3    H1 2355   4.738   0.662   0.823 -0.6025 -1.2595  0.7055
  783TIP3    H2 2356   4.865   0.621   0.894 -0.0841  0.0955  0.5980
  784TIP3   OH2 2357   5.241   4.431   4.301  0.0615 -0.0012  0.3106
  784TIP3    H1 2358   5.273   4.404   4.215  2.2499 -0.4007  1.1673
  784TIP3    H2 2359   5.288   4.374   4.362 -2.3365 -0.5708  1.7657
  785TIP3   OH2 2360   1.016   5.003   4.230 -0.1144 -0.6151 -0.6910
  785TIP3    H1 2361   0.930   5.023   4.265 -0.2069  0.1837 -1.3231
  785TIP3    H2 2362   1.067   4.972   4.305 -0.7915 -0.5653 -0.2102
  786TIP3   OH2 2363   5.552   2.017   4.426  0.3453 -0.1530 -0.0115
  786TIP3    H1 2364   5.496   1.974   4.490 -0.5378 -0.4659 -0.9679
  786TIP3    H2 2365   5.493   2.078   4.380  1.2932  1.1769  0.4800
  787TIP3   OH2 2366   6.342   3.727   2.907  0.4499 -0.7210 -0.1568
  787TIP3    H1 2367   6.354   3.638   2.876  0.9494 -0.3444 -1.1011
  787TIP3    H2 2368   6.262   3.757   2.865  1.5705  0.0778 -1.8823
  788TIP3   OH2 2369   3.713   3.039   4.816  0.6493  0.2259 -0.4130
  788TIP3    H1 2370   3.801   3.012   4.789 -0.1329 -1.8115 -1.1168
  788TIP3    H2 2371   3.672   2.959   4.849 -1.4089  0.7624 -1.4623
  789TIP3   OH2 2372   1.177   0.887   2.046 -0.3507  0.4635 -0.0363
  789TIP3    H1 2373   1.163   0.946   1.973  1.3502  0.2163 -0.5826
  789TIP3    H2 2374   1.186   0.800   2.006 -1.3771  0.0152  0.6429
  790TIP3   OH2 2375   5.410   0.541   0.527  0.3644 -0.2076  0.3081
  790TIP3    H1 2376   5.320   0.564   0.502  0.4568 -1.4446 -1.3118
  790TIP3    H2 2377   5.403   0.454   0.565  1.0928 -1.2052 -1.7179
  791TIP3   OH2 2378   2.631   2.265   2.528 -0.0364 -0.3874 -0.4642
  791TIP3    H1 2379   2.701   2.222   2.577 -1.8192  0.1289  2.8198
  791TIP3    H2 2380   2.555   2.207   2.537 -1.5446  1.6737  1.1237
  792TIP3   OH2 2381   1.958   0.856   0.559  0.1559 -0.3813  0.0412
  792TIP3    H1 2382   2.017   0.801   0.611 -1.8571 -0.5671  2.3283
  792TIP3    H2 2383   1.924   0.798   0.491  0.6464 -1.0103  0.3266
  793TIP3   OH2 2384   4.519   0.253   5.105  0.0827 -0.0194  0.0916
  793TIP3    H1 2385   4.535   0.231   5.013 -0.6400  0.7545 -0.2288
  793TIP3    H2 2386   4.475   0.175   5.140 -1.9185  0.6132 -0.8831
  794TIP3   OH2 2387   1.382   2.864   3.988 -0.5578 -0.3664 -0.0688
  794TIP3    H1 2388   1.453   2.826   4.040  0.2481 -1.8707 -2.1206
  794TIP3    H2 2389   1.329   2.789   3.961  0.4335 -0.0499 -3.3390
  795TIP3   OH2 2390   5.498   4.751   4.690  0.2258 -0.7417 -0.0374
  795TIP3    H1 2391   5.459   4.835   4.713  0.8590 -0.5834  0.4921
  795TIP3    H2 2392   5.472   4.736   4.599  0.6928  0.3621 -0.3656
  796TIP3   OH2 2393   1.516   4.386   1.650 -0.3673  0.2931  0.1386
  796TIP3    H1 2394   1.466   4.403   1.571  0.6785  0.8183 -0.4296
  796TIP3    H2 2395   1.607   4.395   1.623  0.0365 -0.5023  1.1770
  797TIP3   OH2 2396   1.192   0.336   5.146 -0.1042  0.1861  0.9998
  797TIP3    H1 2397   1.259   0.401   5.168 -0.5051  0.8295  0.3813
  797TIP3    H2 2398   1.198   0.270   5.215  1.8407 -0.2937  0.4320
  798TIP3   OH2 2399   3.372   2.967   1.235  0.4477  0.1803 -0.3497
  798TIP3    H1 2400   3.454   2.943   1.193  0.3838 -0.9048  0.1054
  798TIP3    H2 2401   3.323   3.014   1.168  1.1301  0.1772 -0.8611
  799TIP3   OH2 2402   1.853   5.885   1.388  0.0366  0.8958 -0.4531
  799TIP3    H1 2403   1.868   5.939   1.311  0.8906  2.9409  1.0604
  799TIP3    H2 2404   1.898   5.803   1.369 -1.2045  0.6482 -2.7773
  800TIP3   OH2 2405   0.172   5.804   0.903 -0.5914 -0.3364 -0.4033
  800TIP3    H1 2406   0.084   5.780   0.874 -0.2266 -2.7292  0.2014
  800TIP3    H2 2407   0.180   5.766   0.990  0.4611  1.3700  0.2987
  801TIP3   OH2 2408   4.302   4.233   5.182  0.2582  0.1477  0.1598
  801TIP3    H1 2409   4.298   4.138   5.172  1.9915 -0.1021  1.4283
  801TIP3    H2 2410   4.213   4.262   5.164 -0.1833 -1.6421 -0.8547
  802TIP3   OH2 2411   4.432   4.004   4.094 -0.1410  0.0769  0.2820
  802TIP3    H1 2412   4.410   3.936   4.157  1.4710 -1.0462 -0.2942
  802TIP3    H2 2413   4.475   4.072   4.146 -1.1289  0.3619  0.7522
  803TIP3   OH2 2414   1.690   5.417   3.708 -0.5734 -0.3974 -0.1350
  803TIP3    H1 2415   1.606   5.449   3.674 -0.5907 -0.6514 -0.3309
  803TIP3    H2 2416   1.727   5.365   3.637 -0.1483 -0.1093 -0.1253
  804TIP3   OH2 2417   1.627   5.369   4.583 -0.2114 -0.2669 -0.2454
  804TIP3    H1 2418   1.553   5.382   4.642  0.5596  3.1109  0.2108
  804TIP3    H2 2419   1.686   5.310   4.630 -1.8478 -1.7452  0.0520
  805TIP3   OH2 2420   2.500   1.038   4.055 -0.1111 -0.4927 -0.3322
  805TIP3    H1 2421   2.491   1.128   4.085 -1.1926 -0.2187 -1.3825
  805TIP3    H2 2422   2.593   1.018   4.067  0.5592  1.4001 -1.7709
  806TIP3   OH2 2423   0.569   4.851   4.637  0.5224 -0.0837 -0.3750
  806TIP3    H1 2424   0.634   4.804   4.583  1.0541 -1.6042  1.4670
  806TIP3    H2 2425   0.496   4.867   4.578  1.5402 -0.6543 -1.8488
  807TIP3   OH2 2426   0.920   3.431   0.242  0.0157 -0.0499  0.6184
  807TIP3    H1 2427   0.924   3.345   0.283  1.9521  0.6969  2.1035
  807TIP3    H2 2428   0.918   3.493   0.314 -1.5907  1.2065 -0.4194
  808TIP3   OH2 2429   1.330   4.278   4.282 -0.5593  0.0577 -0.0509
  808TIP3    H1 2430   1.276   4.243   4.353 -1.2656  0.7545 -0.2333
  808TIP3    H2 2431   1.268   4.293   4.210  0.1760 -0.8607 -0.9075
  809TIP3   OH2 2432   4.683   2.072   3.710 -0.9178 -0.1826 -0.0823
  809TIP3    H1 2433   4.590   2.093   3.698 -1.0172 -1.0231 -0.8197
  809TIP3    H2 2434   4.728   2.130   3.649 -0.8529  0.9527  0.9838
  810TIP3   OH2 2435   0.636   3.502   1.116  0.0761  0.8265  0.6850
  810TIP3    H1 2436   0.633   3.497   1.021  1.3823  0.0874  0.6654
  810TIP3    H2 2437   0.580   3.430   1.146  2.1621 -1.0310  0.4224
  811TIP3   OH2 2438   3.241   1.549   0.494  0.5384 -0.3395 -0.4580
  811TIP3    H1 2439   3.329   1.530   0.460  0.7918 -1.8908  0.9266
  811TIP3    H2 2440   3.199   1.463   0.501 -0.3419  0.1717  0.8402
  812TIP3   OH2 2441   0.034   4.231   2.842 -0.0094  0.5491  0.1030
  812TIP3    H1 2442   0.105   4.245   2.904  0.8369 -0.3602 -0.6153
  812TIP3    H2 2443   0.043   4.139   2.817 -0.8315  0.6882 -0.7405
  813TIP3   OH2 2444   1.657   0.055   4.234  0.2816  0.4085 -0.0971
  813TIP3    H1 2445   1.680   0.148   4.231  0.3088  0.4113  0.2001
  813TIP3    H2 2446   1.631   0.039   4.325  1.9689 -0.2741  0.3035
  814TIP3   OH2 2447   0.046   1.521   3.788  0.3424  0.6601  0.3054
  814TIP3    H1 2448   0.068   1.431   3.763  0.2777  0.7382 -0.0327
  814TIP3    H2 2449   0.121   1.550   3.839  0.8903  0.8141 -0.5681
  815TIP3   OH2 2450   4.204   2.842   4.827 -0.1503  0.0944  0.0126
  815TIP3    H1 2451   4.255   2.864   4.905  0.2745  1.0456 -0.5188
  815TIP3    H2 2452   4.267   2.844   4.755 -0.7806  0.4997 -0.5430
  816TIP3   OH2 2453   0.958   0.561   3.870  0.1003  0.5053 -0.2862
  816TIP3    H1 2454   1.035   0.513   3.839  2.4514  2.9578  1.3628
  816TIP3    H2 2455   0.915   0.500   3.930  0.7507 -0.9030 -1.1928
  817TIP3   OH2 2456   4.182   4.900   3.667 -0.0617  0.1154 -0.1090
  817TIP3    H1 2457   4.200   4.989   3.636  1.0015 -0.0771 -0.0635
  817TIP3    H2 2458   4.196   4.904   3.761 -0.8604  0.0949  0.0200
  818TIP3   OH2 2459   0.378   0.568   0.920  0.2488 -0.3633 -0.1620
  818TIP3    H1 2460   0.374   0.625   0.844  0.2628  0.0267  0.1235
  818TIP3    H2 2461   0.411   0.485   0.887  0.6608 -0.0671 -0.5049
  819TIP3   OH2 2462   5.380   5.413   2.676 -0.2463 -0.5973  0.1220
  819TIP3    H1 2463   5.319   5.339   2.676  1.4503 -2.0827 -0.4431
  819TIP3    H2 2464   5.399   5.428   2.583 -1.5149  1.4555  0.1211
  820TIP3   OH2 2465   1.635   5.646   1.209 -0.0939  0.3256 -0.5572
  820TIP3    H1 2466   1.652   5.657   1.115  1.7360  0.1278 -0.2812
  820TIP3    H2 2467   1.721   5.650   1.250 -0.8618  0.4255  1.1357
  821TIP3   OH2 2468   1.685   2.770   2.568  0.1412 -0.0904 -0.0798
  821TIP3    H1 2469   1.638   2.768   2.651 -1.3091  1.2572 -0.8032
  821TIP3    H2 2470   1.745   2.844   2.576 -1.3144  1.2450 -0.8233
  822TIP3   OH2 2471   5.575   1.190   2.745 -0.0392  0.4091 -0.0328
  822TIP3    H1 2472   5.517   1.240   2.688  0.2827  3.0684  1.8342
  822TIP3    H2 2473   5.663   1.205   2.709 -0.0851 -0.1902 -0.4125
  823TIP3   OH2 2474   1.935   3.945   0.634  0.3285  0.0360  0.2311
  823TIP3    H1 2475   1.950   4.023   0.687 -0.7371  0.5902 -0.2807
  823TIP3    H2 2476   1.946   3.872   0.696  0.1238  0.6331  0.9771
  824TIP3   OH2 2477   4.530   2.462   1.549 -0.3570 -1.3264 -0.8369
  824TIP3    H1 2478   4.542   2.400   1.477 -0.0408  0.5740 -2.4876
  824TIP3    H2 2479   4.470   2.528   1.515  1.8903  1.1045 -0.4077
  825TIP3   OH2 2480   2.143   0.801   4.890 -0.0526 -0.2238 -0.1232
  825TIP3    H1 2481   2.221   0.843   4.927 -0.5831  1.5458 -0.8939
  825TIP3    H2 2482   2.173   0.766   4.806  0.1987 -0.6794  0.1522
  826TIP3   OH2 2483   1.077   3.233   3.186 -0.3657  0.7820  0.0548
  826TIP3    H1 2484   1.077   3.145   3.226 -0.0894  0.2325 -1.1091
  826TIP3    H2 2485   0.988   3.265   3.198 -0.4938  0.3108  0.4203
  827TIP3   OH2 2486   3.685   0.905   1.621 -0.6622  0.1995  0.0085
  827TIP3    H1 2487   3.603   0.869   1.586 -1.7270  0.5214  2.0326
  827TIP3    H2 2488   3.695   0.863   1.706  1.2179  0.3090 -0.1228
  828TIP3   OH2 2489   5.732   1.643   0.371  0.1311  0.1080 -0.9689
  828TIP3    H1 2490   5.718   1.618   0.462  2.0207  1.2041 -0.3078
  828TIP3    H2 2491   5.726   1.739   0.372 -0.6560  0.0880 -2.1810
  829TIP3   OH2 2492   5.140   4.688   1.138  0.0206  0.1317  0.1217
  829TIP3    H1 2493   5.211   4.625   1.123 -0.4708 -0.6280  0.9191
  829TIP3    H2 2494   5.062   4.643   1.106 -0.2613  0.5437  0.2370
  830TIP3   OH2 2495   5.862   4.537   1.037 -0.4939  0.1174 -0.0492
  830TIP3    H1 2496   5.955   4.550   1.056 -0.5484  0.4940 -0.0404
  830TIP3    H2 2497   5.848   4.444   1.053  0.0182 -0.0665 -0.6360
  831TIP3   OH2 2498   3.831   4.795   3.150  0.3292 -0.1789  0.0094
  831TIP3    H1 2499   3.754   4.811   3.205  0.5856  2.6583 -0.3130
  831TIP3    H2 2500   3.884   4.732   3.200 -1.9300 -1.8501  0.4350
  832TIP3   OH2 2501   2.366   3.007   4.554  0.1505 -0.1781 -0.6741
  832TIP3    H1 2502   2.408   2.924   4.576  0.3762  0.2604  0.6496
  832TIP3    H2 2503   2.290   2.982   4.501 -1.5476 -1.5414  2.1642
  833TIP3   OH2 2504   5.347   0.107   4.806  0.3917  0.3782 -0.1933
  833TIP3    H1 2505   5.399   0.138   4.881 -0.0244  0.2353  0.1579
  833TIP3    H2 2506   5.399   0.036   4.769 -0.0119 -0.4441  0.7703
  834TIP3   OH2 2507   6.231   2.138   3.295  0.1778  0.4550  0.5004
  834TIP3    H1 2508   6.230   2.087   3.213 -2.1922  0.1936  0.6410
  834TIP3    H2 2509   6.250   2.227   3.267  2.2761 -0.0866  0.0239
  835TIP3   OH2 2510   4.480   4.196   4.297 -0.4178  0.2102  0.5338
  835TIP3    H1 2511   4.547   4.238   4.350 -1.0051  2.0317 -0.0684
  835TIP3    H2 2512   4.423   4.152   4.360  0.4829 -0.0763  1.1620
  836TIP3   OH2 2513   5.410   1.294   4.435 -0.4639  0.6665 -0.2276
  836TIP3    H1 2514   5.430   1.387   4.422  0.7600  0.3570 -0.7389
  836TIP3    H2 2515   5.358   1.291   4.515  0.0769  1.7282  0.1787
  837TIP3   OH2 2516   4.386   0.122   1.574  0.1124 -0.1778  0.3109
  837TIP3    H1 2517   4.408   0.097   1.484  0.6826 -0.0111  0.4004
  837TIP3    H2 2518   4.407   0.215   1.580 -0.2169 -0.1154  0.5264
  838TIP3   OH2 2519   4.131   3.092   4.935  0.2992 -0.2792  0.2774
  838TIP3    H1 2520   4.186   3.048   4.870 -1.2863 -1.0995 -0.5664
  838TIP3    H2 2521   4.080   3.155   4.885  1.2770  1.3197  1.2294
  839TIP3   OH2 2522   2.640   5.734   1.785  0.1940 -0.2394 -0.1446
  839TIP3    H1 2523   2.574   5.727   1.854 -0.2947 -2.0439 -0.7300
  839TIP3    H2 2524   2.720   5.701   1.826  0.2660  0.1099 -0.0028
  840TIP3   OH2 2525   5.046   0.086   1.799  0.0950 -0.0943  0.0845
  840TIP3    H1 2526   5.122   0.043   1.760 -0.1425 -0.0483 -0.4330
  840TIP3    H2 2527   5.036   0.166   1.748  0.4745  0.5389  0.9708
  841TIP3   OH2 2528   3.133   4.279   0.156  0.1549  0.3620 -0.4790
  841TIP3    H1 2529   3.050   4.327   0.154  1.1704  2.2068 -2.3298
  841TIP3    H2 2530   3.182   4.320   0.227  0.1620  0.5159 -0.5723
  842TIP3   OH2 2531   2.904   3.461   0.391 -0.1766 -0.0194  0.0744
  842TIP3    H1 2532   2.957   3.403   0.445  1.9795  1.3506 -0.4567
  842TIP3    H2 2533   2.883   3.535   0.447  0.2101  0.3821 -0.2986
  843TIP3   OH2 2534   0.531   3.401   3.303  0.1888  0.1157 -0.7059
  843TIP3    H1 2535   0.450   3.353   3.281 -1.0132  3.0401 -3.5968
  843TIP3    H2 2536   0.601   3.345   3.270 -0.8985 -1.1058 -1.0469
  844TIP3   OH2 2537   2.695   4.217   4.633  0.3212  0.3757 -0.2869
  844TIP3    H1 2538   2.754   4.283   4.670 -0.0536  0.5515  0.0116
  844TIP3    H2 2539   2.661   4.258   4.554  1.3952 -0.1393 -1.0438
  845TIP3   OH2 2540   3.786   2.338   0.326 -0.3102 -0.0395 -0.3276
  845TIP3    H1 2541   3.714   2.387   0.366  0.1022 -0.2547  0.6914
  845TIP3    H2 2542   3.748   2.253   0.304 -0.1901 -0.4255  0.8984
  846TIP3   OH2 2543   0.823   3.035   2.913 -0.1933 -0.1295  0.2948
  846TIP3    H1 2544   0.828   3.005   3.003  1.5730  4.1429  1.8769
  846TIP3    H2 2545   0.731   3.024   2.888 -0.6298 -1.7685  2.4180
  847TIP3   OH2 2546   3.578   2.485   3.507 -0.4377  0.2078 -0.0136
  847TIP3    H1 2547   3.528   2.524   3.435  0.2940  0.4856 -0.3756
  847TIP3    H2 2548   3.519   2.419   3.544 -0.4531 -0.6593 -1.5143
  848TIP3   OH2 2549   0.461   1.402   4.879 -0.1716  0.1071  0.2460
  848TIP3    H1 2550   0.394   1.470   4.866  1.6925  2.1462  0.6317
  848TIP3    H2 2551   0.490   1.380   4.791 -0.7812 -0.2005  0.1170
  849TIP3   OH2 2552   2.439   5.408   1.270 -0.3150 -0.4674  0.1877
  849TIP3    H1 2553   2.381   5.365   1.207 -0.2299 -0.0806 -0.1627
  849TIP3    H2 2554   2.494   5.337   1.304 -0.9426 -0.8245  0.4784
  850TIP3   OH2 2555   1.402   1.833   4.243  0.0812  0.0937 -0.2987
  850TIP3    H1 2556   1.365   1.921   4.238 -0.0181  0.5438  4.1371
  850TIP3    H2 2557   1.340   1.784   4.298  0.5204 -2.6082 -2.0230
  851TIP3   OH2 2558   3.946   4.814   4.391  0.0226 -0.3588  0.3688
  851TIP3    H1 2559   3.994   4.731   4.386 -0.9477 -0.9634  0.8744
  851TIP3    H2 2560   3.883   4.810   4.320 -2.6372 -1.8056  2.5768
  852TIP3   OH2 2561   1.806   2.191   2.094  0.1558 -0.2993 -0.6798
  852TIP3    H1 2562   1.868   2.120   2.078  0.0357 -0.2585 -1.3882
  852TIP3    H2 2563   1.730   2.169   2.040 -0.8846 -0.8732  0.9481
  853TIP3   OH2 2564   0.822   1.904   0.684 -0.3868  0.3377 -0.4066
  853TIP3    H1 2565   0.730   1.930   0.695 -0.1008  0.9545  0.6644
  853TIP3    H2 2566   0.820   1.842   0.611 -1.7202  0.0126 -0.1311
  854TIP3   OH2 2567   3.875   0.037   3.610  0.2422 -0.0835  0.5428
  854TIP3    H1 2568   3.889   0.091   3.533  0.7499 -0.2644  0.5018
  854TIP3    H2 2569   3.789   0.063   3.643  0.8193  1.3586  1.0121
  855TIP3   OH2 2570   1.189   5.330   0.502  0.1593 -0.8643  0.4193
  855TIP3    H1 2571   1.234   5.246   0.492 -0.1906 -0.8852 -1.2179
  855TIP3    H2 2572   1.244   5.379   0.563  1.2034 -1.7069  0.1935
  856TIP3   OH2 2573   6.003   1.354   2.099  0.2677  0.1137  0.3273
  856TIP3    H1 2574   6.064   1.285   2.125  1.5312  0.6278 -1.1446
  856TIP3    H2 2575   6.045   1.435   2.125 -0.1731  0.4426  0.0306
  857TIP3   OH2 2576   5.891   0.199   4.288 -0.6312 -0.1117  0.3110
  857TIP3    H1 2577   5.956   0.143   4.245 -0.8344  0.4883 -0.8247
  857TIP3    H2 2578   5.865   0.262   4.220  1.5457  3.1171  2.2438
  858TIP3   OH2 2579   4.387   5.351   0.208  0.2116 -0.2127 -0.1631
  858TIP3    H1 2580   4.447   5.409   0.256 -0.8292  1.8941 -1.3046
  858TIP3    H2 2581   4.443   5.279   0.179  2.4964  2.0424 -1.8558
  859TIP3   OH2 2582   0.764   4.314   2.622 -0.6081  0.2835 -0.6908
  859TIP3    H1 2583   0.823   4.331   2.549 -0.8976 -1.1129 -1.2786
  859TIP3    H2 2584   0.777   4.221   2.642 -1.2436  0.4089  0.3983
  860TIP3   OH2 2585   3.145   5.005   4.137 -0.2997  0.0966 -0.3241
  860TIP3    H1 2586   3.185   4.987   4.052  0.6624  0.9677 -0.0729
  860TIP3    H2 2587   3.102   5.089   4.126 -0.6414 -0.0445 -0.0981
  861TIP3   OH2 2588   6.033   2.080  -0.015  0.4460 -0.1594 -0.6451
  861TIP3    H1 2589   5.989   2.144   0.042  3.1256 -0.0314  1.4671
  861TIP3    H2 2590   6.012   1.995   0.024  1.0929 -0.1729 -0.3125
  862TIP3   OH2 2591   5.451   2.279   0.133  0.5011  0.2214 -0.0460
  862TIP3    H1 2592   5.533   2.296   0.179  0.6242 -0.0502 -0.1626
  862TIP3    H2 2593   5.477   2.245   0.048  0.2815 -1.0728  0.3712
  863TIP3   OH2 2594   2.917   3.798   4.330  0.0628 -0.4513 -0.5432
  863TIP3    H1 2595   2.957   3.755   4.405 -1.5511 -1.2019 -0.0854
  863TIP3    H2 2596   2.913   3.730   4.263 -1.3659 -0.7077 -0.2294
  864TIP3   OH2 2597   1.519   4.167   2.574  0.3979  0.2371  0.5108
  864TIP3    H1 2598   1.439   4.139   2.618 -0.2678 -1.4496 -1.6073
  864TIP3    H2 2599   1.573   4.088   2.569  1.6103  1.0240  0.6611
  865TIP3   OH2 2600   0.687   0.011   4.480  0.1315 -0.3255  0.2212
  865TIP3    H1 2601   0.606   0.054   4.508  1.8174  2.0073  1.8558
  865TIP3    H2 2602   0.698   0.038   4.389 -0.5809 -0.0698  0.2045
  866TIP3   OH2 2603   0.655   5.395   1.602  0.4504 -0.2143 -0.2073
  866TIP3    H1 2604   0.649   5.318   1.658  0.1830 -0.0065  0.0558
  866TIP3    H2 2605   0.742   5.431   1.620  1.7300 -1.9654 -2.3501
  867TIP3   OH2 2606   3.450   0.644   1.461  0.4026 -0.4448 -0.1431
  867TIP3    H1 2607   3.419   0.689   1.540 -2.5681 -1.4217 -0.6492
  867TIP3    H2 2608   3.501   0.711   1.414 -1.4319  1.5469  0.5346
  868TIP3   OH2 2609   4.247   0.608   3.816 -0.3275 -0.5200 -0.9152
  868TIP3    H1 2610   4.287   0.687   3.782  0.3849 -0.9738 -1.1482
  868TIP3    H2 2611   4.225   0.556   3.738 -2.7995  0.3699 -0.8953
  869TIP3   OH2 2612   0.243   5.323   4.197  0.0172 -0.4561 -0.5007
  869TIP3    H1 2613   0.181   5.355   4.131  0.4646 -0.6088 -1.0010
  869TIP3    H2 2614   0.204   5.242   4.229 -0.9857  0.4088  0.5717
  870TIP3   OH2 2615   6.197   1.158   4.578 -0.0774 -0.1391  0.0866
  870TIP3    H1 2616   6.126   1.125   4.523 -0.1006  0.5183 -0.2792
  870TIP3    H2 2617   6.155   1.224   4.634  0.1772  0.0204  0.0902
  871TIP3   OH2 2618   4.526   1.960   0.359  0.3381 -0.0846 -0.1782
  871TIP3    H1 2619   4.581   1.983   0.435  1.6576 -1.4664 -0.6652
  871TIP3    H2 2620   4.511   1.866   0.368 -1.2793  0.1263 -0.5258
  872TIP3   OH2 2621   3.856   4.423   5.115 -0.0293 -0.4316 -0.0578
  872TIP3    H1 2622   3.804   4.407   5.037 -0.1562  2.3086 -0.6340
  872TIP3    H2 2623   3.947   4.420   5.084  0.0334 -1.4927  0.1808
  873TIP3   OH2 2624   4.425   5.948   0.595 -0.2683 -0.3374 -0.4914
  873TIP3    H1 2625   4.430   5.856   0.571  0.6029 -0.0324 -1.5138
  873TIP3    H2 2626   4.514   5.972   0.620 -0.5214  0.1906 -0.0562
  874TIP3   OH2 2627   1.688   2.920   5.100  0.8456 -0.1431 -0.0188
  874TIP3    H1 2628   1.660   2.945   5.188 -0.8793  0.7786 -0.7768
  874TIP3    H2 2629   1.641   2.839   5.081  1.7192 -0.7008  0.1229
  875TIP3   OH2 2630   1.830   4.511   1.798 -0.3455  0.1966  0.2925
  875TIP3    H1 2631   1.758   4.544   1.852 -1.9062 -3.0504  0.4831
  875TIP3    H2 2632   1.793   4.507   1.709 -0.7480 -2.0453  0.4883
  876TIP3   OH2 2633   1.780   1.499   1.347 -0.2210 -0.4881 -0.2417
  876TIP3    H1 2634   1.687   1.523   1.345 -0.4176 -1.1987 -0.0169
  876TIP3    H2 2635   1.800   1.471   1.258 -0.1265 -0.0118 -0.3750
  877TIP3   OH2 2636   5.537   0.653   5.001  0.1647 -0.3901  0.1557
  877TIP3    H1 2637   5.506   0.577   4.952  0.0288 -0.4759  0.3741
  877TIP3    H2 2638   5.631   0.640   5.010  0.6727  0.8589 -2.3011
  878TIP3   OH2 2639   4.383   0.723   0.682 -0.3385  0.0019  0.0797
  878TIP3    H1 2640   4.375   0.811   0.645  1.6524 -0.1406 -0.8013
  878TIP3    H2 2641   4.305   0.677   0.652 -0.9744  1.2123 -0.1661
  879TIP3   OH2 2642   1.672   3.586   5.042 -0.5340  0.0859 -0.5668
  879TIP3    H1 2643   1.739   3.616   5.103  1.9625 -1.1899 -2.4774
  879TIP3    H2 2644   1.648   3.665   4.992 -0.7992  0.6352  0.4031
  880TIP3   OH2 2645   4.907   1.027   3.364  0.2306  0.1510 -0.8257
  880TIP3    H1 2646   4.932   1.011   3.455  1.1209 -0.4755 -1.1658
  880TIP3    H2 2647   4.952   1.109   3.341 -0.5666  0.6874 -0.4933
  881TIP3   OH2 2648   4.157   5.534   1.200 -0.2399 -0.1528 -0.5089
  881TIP3    H1 2649   4.066   5.510   1.214 -0.5623  0.6920 -1.0843
  881TIP3    H2 2650   4.185   5.482   1.125 -0.5186  0.2510 -0.8919
  882TIP3   OH2 2651   6.219   1.793   0.613 -0.2626 -0.2287  0.0170
  882TIP3    H1 2652   6.135   1.752   0.593  0.2274 -1.1959 -0.1422
  882TIP3    H2 2653   6.244   1.757   0.698 -0.1587  0.3048  0.2154
  883TIP3   OH2 2654   0.746   0.422   1.693  0.2200 -0.3190 -0.2727
  883TIP3    H1 2655   0.669   0.472   1.719  0.4600  0.4146 -0.9452
  883TIP3    H2 2656   0.812   0.488   1.674  1.1666 -0.9508  0.7148
  884TIP3   OH2 2657   3.289   0.491   2.297 -0.2060 -0.4507  0.6820
  884TIP3    H1 2658   3.208   0.527   2.260  0.2424 -0.1888 -0.0746
  884TIP3    H2 2659   3.351   0.494   2.224  0.6448 -0.1288  1.4093
  885TIP3   OH2 2660   0.159   2.604   4.086 -0.2389 -0.2824  0.2334
  885TIP3    H1 2661   0.101   2.679   4.074 -0.8662 -0.5051  1.6286
  885TIP3    H2 2662   0.166   2.594   4.181 -0.0640 -1.9086  0.0782
  886TIP3   OH2 2663   3.342   0.150   5.130 -0.1781 -0.5021 -0.0779
  886TIP3    H1 2664   3.292   0.170   5.051  0.6773 -0.1770 -0.5579
  886TIP3    H2 2665   3.308   0.066   5.160 -0.2306 -0.8361 -1.0392
  887TIP3   OH2 2666   1.879   2.870   0.608 -0.4122  0.0800  0.1721
  887TIP3    H1 2667   1.836   2.836   0.530 -0.8423  1.6902 -0.3285
  887TIP3    H2 2668   1.973   2.865   0.589 -0.5257  2.3421 -1.3536
  888TIP3   OH2 2669   3.283   1.214   0.871 -0.8071  0.6495 -0.3294
  888TIP3    H1 2670   3.345   1.241   0.803 -0.7757  1.3763 -0.0250
  888TIP3    H2 2671   3.199   1.212   0.827 -1.1634  3.3084  0.0698
  889TIP3   OH2 2672   4.230   5.908   2.230 -0.4703 -0.4654 -0.8744
  889TIP3    H1 2673   4.277   5.833   2.194  0.1122 -0.0482 -1.0023
  889TIP3    H2 2674   4.250   5.907   2.324 -3.6025 -2.7408 -0.0588
  890TIP3   OH2 2675   0.092   5.736   2.966 -0.0801 -0.0195  0.1444
  890TIP3    H1 2676   0.065   5.647   2.988 -1.1522  0.1708 -0.3503
  890TIP3    H2 2677   0.157   5.759   3.033 -0.3211 -0.9090  0.6970
  891TIP3   OH2 2678   4.891   5.017   2.005  0.0125 -0.0093  0.2560
  891TIP3    H1 2679   4.843   4.934   2.002  0.3537 -0.1931 -0.4214
  891TIP3    H2 2680   4.825   5.083   1.984  0.2858 -0.3904 -2.1333
  892TIP3   OH2 2681   1.368   2.669   2.149  0.1845  0.1492 -0.0870
  892TIP3    H1 2682   1.423   2.625   2.084 -0.8733  0.1331 -1.0088
  892TIP3    H2 2683   1.430   2.708   2.211  1.1664 -2.1620  0.4713
  893TIP3   OH2 2684   4.604   4.284   2.774 -0.2385  0.6144 -0.1276
  893TIP3    H1 2685   4.675   4.236   2.816 -0.4484  0.3553 -0.0684
  893TIP3    H2 2686   4.535   4.287   2.839 -0.2288  0.9911 -0.1349
  894TIP3   OH2 2687   1.461   5.130   1.733 -0.6989 -0.1074 -0.1811
  894TIP3    H1 2688   1.458   5.064   1.664 -1.0201  0.7801 -1.0364
  894TIP3    H2 2689   1.533   5.188   1.709  0.2532 -0.7067  1.1091
  895TIP3   OH2 2690   3.231   2.345   0.206 -0.7360  0.0337  0.2213
  895TIP3    H1 2691   3.279   2.391   0.137  1.9814 -1.7887  0.7497
  895TIP3    H2 2692   3.144   2.329   0.169  0.2737  0.0959 -2.3558
  896TIP3   OH2 2693   0.136   2.663   3.069 -0.1864 -0.5223 -0.1937
  896TIP3    H1 2694   0.096   2.707   3.144  0.1164 -1.7868  0.7630
  896TIP3    H2 2695   0.080   2.686   2.995 -1.4340 -0.5151  0.7054
  897TIP3   OH2 2696   6.273   0.388   1.578  0.4553  0.6066  0.2434
  897TIP3    H1 2697   6.231   0.468   1.610  0.8307  1.2709 -0.8763
  897TIP3    H2 2698   6.343   0.418   1.520 -0.2261 -0.5165 -1.2590
  898TIP3   OH2 2699   0.902   0.071   1.955  0.1506  0.1065  0.0871
  898TIP3    H1 2700   0.921   0.069   1.861 -0.7099  1.0801 -0.1132
  898TIP3    H2 2701   0.862  -0.014   1.972  1.2549 -0.5016 -0.2029
  899TIP3   OH2 2702   3.326   2.928   2.998  0.1679  0.0093 -0.5808
  899TIP3    H1 2703   3.323   2.841   2.960  0.9985  1.1702 -3.5440
  899TIP3    H2 2704   3.247   2.971   2.964 -2.1363 -0.4281  3.5196
  900TIP3   OH2 2705   5.637   3.825   4.620  0.7623  0.0612  0.4941
  900TIP3    H1 2706   5.569   3.892   4.617  0.9370  0.2626  0.8962
  900TIP3    H2 2707   5.703   3.854   4.558  0.7965  0.2174  0.6034
  901TIP3   OH2 2708   3.641   2.920   3.418 -0.0901 -0.2078 -0.0090
  901TIP3    H1 2709   3.652   3.012   3.394  1.2985 -0.6545 -1.1895
  901TIP3    H2 2710   3.635   2.874   3.335  3.1657 -1.6185  0.3953
  902TIP3   OH2 2711   3.137   4.335   4.219 -0.1050  0.4413 -0.1511
  902TIP3    H1 2712   3.201   4.339   4.290  0.7877 -0.3972 -0.8615
  902TIP3    H2 2713   3.101   4.423   4.214  1.0430  0.9623  0.2495
  903TIP3   OH2 2714   1.176   0.343   1.153 -0.1944 -0.2236 -0.0828
  903TIP3    H1 2715   1.248   0.404   1.168 -1.1618  0.8047  0.6820
  903TIP3    H2 2716   1.155   0.310   1.241 -0.8742 -0.2246 -0.2401
  904TIP3   OH2 2717   5.553   0.880   3.259  0.0463  0.2643  0.3878
  904TIP3    H1 2718   5.645   0.855   3.268 -0.4585 -2.9818 -1.5989
  904TIP3    H2 2719   5.549   0.929   3.177 -0.0376 -0.1396  0.1446
  905TIP3   OH2 2720   0.771   0.201   4.869 -0.3537  0.1756 -0.2154
  905TIP3    H1 2721   0.700   0.180   4.930 -0.4582 -0.3206 -0.5008
  905TIP3    H2 2722   0.845   0.222   4.925 -1.1360  2.2775  0.1192
  906TIP3   OH2 2723   6.267   3.555   0.641  0.0231  0.1780 -0.0823
  906TIP3    H1 2724   6.242   3.643   0.612 -2.3983 -0.2089  0.6482
  906TIP3    H2 2725   6.216   3.540   0.720  1.7681 -1.2259  0.8623
  907TIP3   OH2 2726   4.844   5.134   4.057 -0.2010  0.3425  0.1671
  907TIP3    H1 2727   4.929   5.150   4.016 -0.4362 -0.3547 -0.6467
  907TIP3    H2 2728   4.864   5.085   4.137  0.2961  2.0757  1.1380
  908TIP3   OH2 2729   0.325   4.457   2.820 -0.1703  0.8022 -0.1290
  908TIP3    H1 2730   0.311   4.381   2.876 -0.4088  2.3488  2.0220
  908TIP3    H2 2731   0.372   4.423   2.744 -1.9848 -1.8124 -0.1968
  909TIP3   OH2 2732   2.962   2.066   0.758 -0.1788 -0.5089 -0.1603
  909TIP3    H1 2733   3.018   2.077   0.681 -0.1359 -0.9041 -0.1882
  909TIP3    H2 2734   2.988   2.137   0.817 -2.1324  1.5742 -1.6278
  910TIP3   OH2 2735   5.658   2.843   1.611  0.2412 -0.0673 -0.2521
  910TIP3    H1 2736   5.596   2.844   1.684  1.2248  0.5788  0.6050
  910TIP3    H2 2737   5.632   2.767   1.559 -3.3060  1.9138 -1.7426
  911TIP3   OH2 2738   5.643   1.701   4.839  0.2807 -0.1585  0.5766
  911TIP3    H1 2739   5.606   1.667   4.920  1.4017  0.1594  1.2429
  911TIP3    H2 2740   5.735   1.674   4.842  0.0584 -1.2787 -1.2139
  912TIP3   OH2 2741   5.357   5.472   0.391  0.4970 -0.5316 -0.6645
  912TIP3    H1 2742   5.277   5.422   0.405 -1.4121  2.5158  0.0948
  912TIP3    H2 2743   5.365   5.528   0.468  3.0115 -0.2430 -1.0532
  913TIP3   OH2 2744   3.865   3.031   1.488 -0.1253 -0.3313  0.2962
  913TIP3    H1 2745   3.930   2.980   1.439  1.0835  1.2341  0.1736
  913TIP3    H2 2746   3.918   3.085   1.547 -1.3285  1.1053  0.0892
  914TIP3   OH2 2747   1.801   5.876   0.418 -0.5866  0.1254 -0.3964
  914TIP3    H1 2748   1.831   5.891   0.507 -3.4206  0.6689  0.5729
  914TIP3    H2 2749   1.785   5.964   0.383 -0.2386 -0.1154 -1.1843
  915TIP3   OH2 2750   5.982   1.353   3.618 -0.1394  0.3589 -0.0594
  915TIP3    H1 2751   5.911   1.414   3.594  0.1637  0.0371 -1.9141
  915TIP3    H2 2752   5.955   1.318   3.703 -2.4150 -0.0233 -0.8540
  916TIP3   OH2 2753   5.372   0.353   2.408 -0.1143 -0.0374 -0.5268
  916TIP3    H1 2754   5.375   0.333   2.501  0.4148  1.7213 -0.1353
  916TIP3    H2 2755   5.464   0.351   2.380 -0.0857  1.2729 -0.5743
  917TIP3   OH2 2756   2.031   1.752   4.459 -0.2945 -0.2901 -0.1068
  917TIP3    H1 2757   1.957   1.746   4.398 -0.7829  3.3962 -0.0495
  917TIP3    H2 2758   1.990   1.756   4.545  0.0777  0.0724  0.0524
  918TIP3   OH2 2759   1.556   2.798   4.251 -0.1774 -0.2331 -0.1711
  918TIP3    H1 2760   1.499   2.722   4.238  0.9778 -0.9317 -1.3981
  918TIP3    H2 2761   1.643   2.760   4.263  0.0521  0.8060  1.8117
  919TIP3   OH2 2762   2.025   4.354   0.308 -0.0628  0.2131 -0.4319
  919TIP3    H1 2763   1.981   4.437   0.292 -0.4228  0.5954  2.0942
  919TIP3    H2 2764   2.108   4.377   0.349  0.1105 -0.6445 -0.2649
  920TIP3   OH2 2765   3.306   4.060   2.690  0.2606  0.1953  0.1979
  920TIP3    H1 2766   3.299   4.054   2.594  0.5259 -0.8638  0.2313
  920TIP3    H2 2767   3.348   4.144   2.705 -0.3629  0.6658 -0.5896
  921TIP3   OH2 2768   6.318   4.147   4.370  0.6678  0.4687 -0.0683
  921TIP3    H1 2769   6.316   4.243   4.376 -1.3028  0.6876 -2.5788
  921TIP3    H2 2770   6.235   4.119   4.408  0.4095 -0.0651 -0.9990
  922TIP3   OH2 2771   3.558   0.118   1.820 -0.0020  0.0503 -0.0085
  922TIP3    H1 2772   3.643   0.117   1.777 -0.2377 -0.9568 -0.4636
  922TIP3    H2 2773   3.577   0.100   1.912  0.2257 -0.6988 -0.2021
  923TIP3   OH2 2774   0.241   5.168   3.840  0.0213  0.2208 -0.3057
  923TIP3    H1 2775   0.235   5.262   3.823  0.3733  0.0456 -1.5433
  923TIP3    H2 2776   0.330   5.146   3.814 -0.6063 -0.7542 -1.7896
  924TIP3   OH2 2777   5.363   0.790   2.995 -0.7989  0.5271  0.1070
  924TIP3    H1 2778   5.430   0.732   3.030 -0.4325  0.9712  0.1589
  924TIP3    H2 2779   5.282   0.740   3.000 -0.7642  0.5952  1.6320
  925TIP3   OH2 2780   0.207   4.009   2.382 -0.6480  0.1471 -0.2135
  925TIP3    H1 2781   0.215   3.915   2.373 -0.7556 -0.1149  1.8812
  925TIP3    H2 2782   0.143   4.021   2.453  1.0499  1.7169  1.1433
  926TIP3   OH2 2783   5.794   1.444   2.728  0.7952  0.4473 -0.4844
  926TIP3    H1 2784   5.773   1.454   2.821  0.3410  3.3016 -0.8010
  926TIP3    H2 2785   5.817   1.532   2.699 -0.7408  0.0063 -3.4636
  927TIP3   OH2 2786   1.398   4.432   3.263  0.3834  0.6403 -0.0555
  927TIP3    H1 2787   1.475   4.458   3.212  2.7573 -2.5549  1.5650
  927TIP3    H2 2788   1.390   4.500   3.330  0.7010  1.9197 -1.2750
  928TIP3   OH2 2789   5.000   0.292   4.373  0.2058  0.0864 -0.2111
  928TIP3    H1 2790   5.002   0.202   4.405 -2.1783  0.0947  0.0989
  928TIP3    H2 2791   4.923   0.296   4.317 -0.4249  2.2350  0.7182
  929TIP3   OH2 2792   0.527   2.367   0.555 -0.1927  0.4634  0.2735
  929TIP3    H1 2793   0.499   2.377   0.646  1.2553 -1.8985  1.0699
  929TIP3    H2 2794   0.457   2.316   0.514 -0.5242  0.9528  0.2155
  930TIP3   OH2 2795   3.791   5.043   1.758  0.0967 -0.1921 -0.1585
  930TIP3    H1 2796   3.745   5.026   1.841  0.1110 -0.4381 -0.1984
  930TIP3    H2 2797   3.881   5.018   1.776  0.3795  1.0169  0.1505
  931TIP3   OH2 2798   0.713   4.691   1.481  0.0367  0.6779  0.1965
  931TIP3    H1 2799   0.735   4.603   1.513  1.0930  0.4312 -1.1301
  931TIP3    H2 2800   0.795   4.740   1.488 -0.3560  1.3476  0.2082
  932TIP3   OH2 2801   3.480   2.915   5.034  0.1302  0.4576  0.5626
  932TIP3    H1 2802   3.513   2.900   5.122  0.1171 -0.1147  0.4682
  932TIP3    H2 2803   3.491   2.832   4.988  2.6415  1.4413 -0.8057
  933TIP3   OH2 2804   1.976   1.682   1.389  0.1941  0.4009  0.5741
  933TIP3    H1 2805   1.921   1.609   1.359  0.0091  0.5949  0.4338
  933TIP3    H2 2806   1.934   1.759   1.351 -0.8699  0.8178  2.4685
  934TIP3   OH2 2807   4.143   1.934   1.177  0.2036 -0.5268  0.2447
  934TIP3    H1 2808   4.207   1.862   1.174  0.8903  0.0921 -1.0803
  934TIP3    H2 2809   4.113   1.943   1.087 -0.9249 -0.0460  0.6491
  935TIP3   OH2 2810   5.577   2.892   4.261 -0.6378  0.6660 -0.0771
  935TIP3    H1 2811   5.664   2.891   4.221 -0.9512 -1.4031 -0.8469
  935TIP3    H2 2812   5.593   2.914   4.353  0.9744 -1.4086  0.2304
  936TIP3   OH2 2813   4.742   5.675   4.166  0.3739 -0.0585  0.5240
  936TIP3    H1 2814   4.733   5.601   4.227 -0.8447  0.6595  1.2467
  936TIP3    H2 2815   4.831   5.707   4.181  0.7565 -1.0788  0.5333
  937TIP3   OH2 2816   5.567   5.736   4.349  0.0431 -0.1308  0.0492
  937TIP3    H1 2817   5.548   5.645   4.373 -1.7986 -0.1357 -1.2870
  937TIP3    H2 2818   5.490   5.766   4.301  1.6065  1.3412 -1.7477
  938TIP3   OH2 2819   0.458   4.044   3.190  0.4682  0.0785  0.4762
  938TIP3    H1 2820   0.416   4.034   3.104 -1.2841 -1.2320  1.4394
  938TIP3    H2 2821   0.552   4.043   3.170  0.1136 -0.5923 -1.4038
  939TIP3   OH2 2822   4.994   4.421   0.338 -0.2469 -0.2301  0.3214
  939TIP3    H1 2823   4.971   4.489   0.275 -2.4314 -1.2262 -0.0673
  939TIP3    H2 2824   5.050   4.361   0.288 -1.1429 -0.4896 -0.4117
  940TIP3   OH2 2825   6.318   2.092   3.552 -0.5195 -0.2387  0.4379
  940TIP3    H1 2826   6.249   2.124   3.611  1.1102  1.1861  1.6596
  940TIP3    H2 2827   6.292   2.125   3.466 -1.3366  0.3344  0.8820
  941TIP3   OH2 2828   4.513   0.380   4.002 -0.2060  0.3425  0.4037
  941TIP3    H1 2829   4.480   0.387   3.912 -0.4384 -0.9047  0.3787
  941TIP3    H2 2830   4.603   0.410   3.997 -0.0955 -0.0906 -0.3279
  942TIP3   OH2 2831   5.033   2.333   2.541 -0.0774  0.5090 -0.3996
  942TIP3    H1 2832   5.017   2.329   2.636 -1.7462  1.9264 -0.5637
  942TIP3    H2 2833   4.949   2.360   2.504  1.1011  2.1900 -2.0599
  943TIP3   OH2 2834   3.582   4.311   1.316 -0.5422  0.2031 -0.1339
  943TIP3    H1 2835   3.578   4.266   1.401 -1.0980 -1.0224 -0.7950
  943TIP3    H2 2836   3.491   4.318   1.289 -0.3511  0.4232 -0.7232
  944TIP3   OH2 2837   3.751   5.026   3.652 -0.1876  0.0389  0.4981
  944TIP3    H1 2838   3.772   4.947   3.601 -1.0343  0.0693  0.0858
  944TIP3    H2 2839   3.802   5.095   3.610  0.1259 -0.1816  0.5095
  945TIP3   OH2 2840   0.082   2.656   4.328  0.3435  0.1662  0.3155
  945TIP3    H1 2841   0.064   2.750   4.330 -1.7358 -0.1325 -1.1268
  945TIP3    H2 2842  -0.004   2.615   4.334  0.9554 -1.5879 -1.7966
  946TIP3   OH2 2843   3.490   3.334   3.013  0.0914 -0.4997 -0.1797
  946TIP3    H1 2844   3.441   3.404   2.968 -0.9191  0.1011  1.7379
  946TIP3    H2 2845   3.468   3.255   2.964  0.8317  0.3937 -2.0799
  947TIP3   OH2 2846   2.374   4.107   0.841  0.6770 -0.0282  0.1956
  947TIP3    H1 2847   2.331   4.051   0.906  0.2300  1.1848  1.0080
  947TIP3    H2 2848   2.308   4.174   0.821  1.8118  1.2973  0.7114
  948TIP3   OH2 2849   4.855   1.225   1.571  0.0905  0.2884  0.7648
  948TIP3    H1 2850   4.792   1.262   1.509 -0.1296  1.0498  1.4260
  948TIP3    H2 2851   4.940   1.241   1.531 -0.1198 -1.0807 -0.3158
  949TIP3   OH2 2852   3.524   5.754   0.509 -0.1181  0.0892 -0.5674
  949TIP3    H1 2853   3.616   5.726   0.505 -0.2313 -0.1554 -1.7813
  949TIP3    H2 2854   3.474   5.675   0.489 -0.5513  0.4704 -1.0049
  950TIP3   OH2 2855   3.774   1.291   2.528 -0.0730  0.5409  0.0874
  950TIP3    H1 2856   3.850   1.245   2.492 -0.8287 -1.3184  0.7279
  950TIP3    H2 2857   3.772   1.264   2.620 -1.9228 -0.0646 -0.1033
  951TIP3   OH2 2858   0.355   4.239   5.126  0.5043  0.2467  0.3779
  951TIP3    H1 2859   0.394   4.190   5.054  0.7910 -0.2810  0.8921
  951TIP3    H2 2860   0.349   4.329   5.092  1.8676  0.2876  0.1695
  952TIP3   OH2 2861   4.728   4.773   2.036 -0.2319 -0.1576 -0.5093
  952TIP3    H1 2862   4.647   4.821   2.055 -0.8288 -0.3791 -2.3210
  952TIP3    H2 2863   4.742   4.785   1.942  1.8095 -0.2117 -0.2675
  953TIP3   OH2 2864   1.601   5.090   1.248  0.1398  0.0882 -0.2915
  953TIP3    H1 2865   1.626   5.080   1.156 -1.0179  0.7057 -0.6999
  953TIP3    H2 2866   1.614   5.183   1.266 -3.1734  0.8263 -1.0071
  954TIP3   OH2 2867   2.243   3.676   0.731  0.1971  0.7635 -0.0502
  954TIP3    H1 2868   2.274   3.586   0.732  1.4918  1.1666 -0.8486
  954TIP3    H2 2869   2.163   3.675   0.783  2.1556 -0.1103  3.2362
  955TIP3   OH2 2870   2.398   3.487   2.636 -0.4960 -0.0965  0.1343
  955TIP3    H1 2871   2.409   3.402   2.680  0.8807 -1.1918 -2.1487
  955TIP3    H2 2872   2.464   3.543   2.676  0.8165 -1.1021 -0.5340
  956TIP3   OH2 2873   4.493   0.831   3.342 -0.0571 -0.0077  0.6121
  956TIP3    H1 2874   4.482   0.824   3.436  0.7170 -2.6910  0.5738
  956TIP3    H2 2875   4.581   0.796   3.325 -1.3404 -2.6042 -1.3401
  957TIP3   OH2 2876   0.438   5.883   2.977 -0.2464  0.6264 -0.1900
  957TIP3    H1 2877   0.493   5.807   2.960 -0.4429  0.6829 -1.1079
  957TIP3    H2 2878   0.394   5.862   3.059  0.6682  0.3161  0.2397
  958TIP3   OH2 2879   4.177   2.242   3.532  0.0813  0.3289  0.1474
  958TIP3    H1 2880   4.090   2.225   3.569 -0.3884  1.3862 -0.4054
  958TIP3    H2 2881   4.231   2.169   3.562 -1.6851 -2.0130 -1.8973
  959TIP3   OH2 2882   4.591   3.301   3.540 -0.0121  0.2914 -0.4720
  959TIP3    H1 2883   4.681   3.289   3.509  1.3776  0.8538  2.9413
  959TIP3    H2 2884   4.581   3.395   3.550 -1.1117  0.2524 -1.0420
  960TIP3   OH2 2885   4.802   1.343   3.517  0.8555  0.3155  0.3597
  960TIP3    H1 2886   4.833   1.405   3.583  1.8278 -0.9600  1.1685
  960TIP3    H2 2887   4.707   1.352   3.518  0.9925  1.9186  0.3017
  961TIP3   OH2 2888   3.898   5.673   1.406 -0.0677 -0.4478  0.2075
  961TIP3    H1 2889   3.880   5.584   1.376 -0.1544 -0.8821  1.4553
  961TIP3    H2 2890   3.921   5.662   1.499 -1.2497  0.9473  0.7027
  962TIP3   OH2 2891   4.901   3.803   2.502 -0.2243  0.3462  0.0874
  962TIP3    H1 2892   4.986   3.802   2.546 -0.2268  1.0326  0.1148
  962TIP3    H2 2893   4.914   3.861   2.427 -0.0354 -1.3021 -1.2158
  963TIP3   OH2 2894   0.677   1.308   3.716  0.1783 -0.2056 -0.1814
  963TIP3    H1 2895   0.740   1.289   3.647 -0.2330 -1.5547 -0.2097
  963TIP3    H2 2896   0.633   1.388   3.688  0.6578 -0.2276 -1.0238
  964TIP3   OH2 2897   6.299   4.536   5.066 -0.0827 -0.4482  0.3734
  964TIP3    H1 2898   6.346   4.617   5.048  0.2051 -0.6853  0.0414
  964TIP3    H2 2899   6.232   4.560   5.130  0.5334 -0.1266  0.9062
  965TIP3   OH2 2900   5.863   0.823   3.271 -0.0812  0.3194 -0.5319
  965TIP3    H1 2901   5.956   0.825   3.246 -0.1281  1.3934 -0.6418
  965TIP3    H2 2902   5.843   0.912   3.299 -0.8083 -0.1637  0.5514
  966TIP3   OH2 2903   0.241   1.158   2.121 -0.4040 -1.0163  0.1634
  966TIP3    H1 2904   0.261   1.067   2.097  0.4206 -0.9847  0.7184
  966TIP3    H2 2905   0.287   1.172   2.204 -1.4211 -0.4286  0.6491
  967TIP3   OH2 2906   0.637   1.241   4.447  0.3589  0.2658 -0.0487
  967TIP3    H1 2907   0.703   1.310   4.443 -0.3629  0.9536 -0.3758
  967TIP3    H2 2908   0.577   1.260   4.375 -1.0706  0.5909  1.1572
  968TIP3   OH2 2909   4.814   0.869   3.000 -0.3576  0.4489 -0.5507
  968TIP3    H1 2910   4.860   0.951   2.985  0.4574 -0.1457 -1.3935
  968TIP3    H2 2911   4.817   0.824   2.916 -0.7156 -0.4842 -0.0789
  969TIP3   OH2 2912   1.630   3.078   3.061 -0.2488  0.0486  0.1856
  969TIP3    H1 2913   1.586   3.028   3.130  1.1325 -1.1174  0.2520
  969TIP3    H2 2914   1.677   3.147   3.107  0.3806 -0.5094  0.3839
  970TIP3   OH2 2915   1.666   1.547   2.271  0.0630 -0.3747  0.4824
  970TIP3    H1 2916   1.658   1.498   2.353  2.1074  1.1610  1.6838
  970TIP3    H2 2917   1.726   1.495   2.218  0.5303 -0.2376  0.8759
  971TIP3   OH2 2918   3.463   0.090   4.277 -0.3001 -0.0598  0.0840
  971TIP3    H1 2919   3.414   0.152   4.223 -1.0651  0.4184  1.2812
  971TIP3    H2 2920   3.554   0.102   4.251 -0.5261  1.0266 -0.2478
  972TIP3   OH2 2921   1.410   1.044   5.141 -0.1098  0.4606  0.3743
  972TIP3    H1 2922   1.365   0.971   5.099  0.4999 -0.0425  0.5805
  972TIP3    H2 2923   1.496   1.048   5.098  0.0381  0.7561  0.6876
  973TIP3   OH2 2924   1.439   4.655   3.477  0.1645  0.0203  0.1619
  973TIP3    H1 2925   1.531   4.672   3.460 -0.0812 -0.0229 -1.3203
  973TIP3    H2 2926   1.396   4.740   3.468 -0.0133 -0.0535  0.2938
  974TIP3   OH2 2927   1.964   4.427   1.018  0.2540  0.2957 -0.9906
  974TIP3    H1 2928   1.954   4.350   1.075 -0.1542  1.3893  0.4824
  974TIP3    H2 2929   2.037   4.405   0.960 -1.8230 -2.4625 -2.8191
  975TIP3   OH2 2930   0.211   2.383   3.678 -0.5791 -0.1780  0.0811
  975TIP3    H1 2931   0.262   2.338   3.745 -0.4001 -0.2701 -0.1172
  975TIP3    H2 2932   0.120   2.374   3.708 -0.4762  0.0226  0.4538
  976TIP3   OH2 2933   0.831   0.460   0.201 -1.0632 -0.2705  0.1181
  976TIP3    H1 2934   0.822   0.365   0.213 -1.2379 -0.3214 -0.3759
  976TIP3    H2 2935   0.751   0.497   0.237 -1.8301 -0.4628 -1.3182
  977TIP3   OH2 2936   2.317   1.822   3.804 -0.1243  0.0514 -0.3034
  977TIP3    H1 2937   2.259   1.762   3.758 -0.9933 -0.1472  1.0012
  977TIP3    H2 2938   2.316   1.902   3.751  0.2915 -0.7398 -1.5409
  978TIP3   OH2 2939   1.061   4.854   1.204 -0.0919  0.0636  0.0701
  978TIP3    H1 2940   1.141   4.882   1.248  0.0495  0.3358 -0.3636
  978TIP3    H2 2941   0.990   4.880   1.263  0.2008 -1.6127  1.2459
  979TIP3   OH2 2942   3.272   4.049   1.141 -0.2938 -0.2490  0.8234
  979TIP3    H1 2943   3.323   4.041   1.221  0.3737 -0.6453  0.3629
  979TIP3    H2 2944   3.297   4.135   1.106  0.8691 -0.8878  0.0509
  980TIP3   OH2 2945   1.471   1.978   2.210 -0.6356 -0.2133  0.7532
  980TIP3    H1 2946   1.452   2.024   2.128  0.4280 -0.3290  0.4245
  980TIP3    H2 2947   1.388   1.938   2.235 -0.5339 -1.8987 -1.3682
  981TIP3   OH2 2948   5.450   2.571   2.022  0.0436  0.1644 -0.1131
  981TIP3    H1 2949   5.359   2.588   2.046 -0.1862  2.2033 -2.1117
  981TIP3    H2 2950   5.451   2.481   1.991 -1.2344  0.0576  0.1006
  982TIP3   OH2 2951   5.539   3.180   4.036  0.2680  0.5285 -0.3377
  982TIP3    H1 2952   5.591   3.237   3.980  0.8969 -0.0991 -0.4033
  982TIP3    H2 2953   5.597   3.160   4.110  0.0282  0.0319 -0.2821
  983TIP3   OH2 2954   2.409   3.402   0.999  0.8135  0.3040 -0.2368
  983TIP3    H1 2955   2.428   3.417   0.906 -2.7483  3.3404 -0.7105
  983TIP3    H2 2956   2.485   3.439   1.045  1.7642  0.5496 -1.9316
  984TIP3   OH2 2957   3.646   3.538   2.491 -0.0978  0.0322  0.1006
  984TIP3    H1 2958   3.600   3.463   2.455 -0.7129  0.2296  0.4389
  984TIP3    H2 2959   3.597   3.560   2.571  0.3135  0.5355  0.2251
  985TIP3   OH2 2960   6.281   0.433   0.338  0.2591 -0.1918  0.0973
  985TIP3    H1 2961   6.210   0.497   0.342  2.1402  1.9836  2.9318
  985TIP3    H2 2962   6.356   0.482   0.306  1.2452 -1.5982  0.1502
  986TIP3   OH2 2963   4.210   3.488   3.837  0.0303  0.6232 -0.1655
  986TIP3    H1 2964   4.291   3.457   3.878 -0.8392 -0.8360  0.5327
  986TIP3    H2 2965   4.228   3.484   3.743  0.8783  0.6313 -0.0114
  987TIP3   OH2 2966   3.247   5.331   3.028 -0.3670 -0.2943  0.2313
  987TIP3    H1 2967   3.163   5.360   2.992 -0.1286  1.0293  0.6558
  987TIP3    H2 2968   3.312   5.363   2.965 -0.0526  0.7240  1.0391
  988TIP3   OH2 2969   3.759   1.525   3.770  0.3935 -0.1609 -0.5457
  988TIP3    H1 2970   3.710   1.442   3.769 -0.8814  0.4207  2.2070
  988TIP3    H2 2971   3.829   1.510   3.833  0.4627  0.6902 -0.4156
  989TIP3   OH2 2972   0.558   0.246   1.630  0.2053 -0.3778 -0.2269
  989TIP3    H1 2973   0.484   0.273   1.685  1.5139 -0.9119  1.9503
  989TIP3    H2 2974   0.625   0.313   1.645  1.2943 -1.5542  0.4443
  990TIP3   OH2 2975   0.792   5.228   2.466  0.0547 -0.6066 -0.5527
  990TIP3    H1 2976   0.865   5.191   2.417 -0.8106 -1.0625 -1.5207
  990TIP3    H2 2977   0.811   5.322   2.469  0.1816 -0.5878 -1.6706
  991TIP3   OH2 2978   4.767   2.790   5.154  0.0284  0.2312 -0.5226
  991TIP3    H1 2979   4.812   2.855   5.100 -0.2864  0.4213 -0.5641
  991TIP3    H2 2980   4.680   2.827   5.167  0.4800  0.8137  1.1676
  992TIP3   OH2 2981   2.570   3.620   1.889  0.1085  0.1482 -0.1561
  992TIP3    H1 2982   2.658   3.583   1.894 -1.0064 -3.3930 -2.4266
  992TIP3    H2 2983   2.513   3.549   1.920 -2.0565  2.0452  0.5351
  993TIP3   OH2 2984   2.290   2.141   3.004 -0.5305 -0.1226 -0.4760
  993TIP3    H1 2985   2.241   2.223   3.007 -3.1803 -1.6016  1.8621
  993TIP3    H2 2986   2.296   2.119   2.911 -3.1118  0.8813 -0.9433
  994TIP3   OH2 2987   3.708   2.953   4.193 -0.0384 -0.6450  0.4244
  994TIP3    H1 2988   3.693   2.984   4.283  0.2603 -0.3864  0.3880
  994TIP3    H2 2989   3.803   2.942   4.188 -0.0191 -0.3226  0.0332
  995TIP3   OH2 2990   5.446   0.074   2.732 -0.0062  0.1519  0.1479
  995TIP3    H1 2991   5.489   0.146   2.779  0.8669 -0.8745  0.9880
  995TIP3    H2 2992   5.494   0.067   2.649 -0.4850  0.9130 -0.2002
  996TIP3   OH2 2993   5.879   5.221   1.945 -0.6260  0.2959 -0.4756
  996TIP3    H1 2994   5.848   5.257   2.028 -1.3351 -1.9593  0.3063
  996TIP3    H2 2995   5.903   5.298   1.893 -1.0231  1.8086  1.4628
  997TIP3   OH2 2996   3.301   2.036   1.995 -0.0796 -0.0352 -0.5353
  997TIP3    H1 2997   3.330   1.959   1.946  0.1900  0.2147 -0.7715
  997TIP3    H2 2998   3.217   2.058   1.956 -0.8409 -1.0509  0.4723
  998TIP3   OH2 2999   0.431   3.806   1.980  0.0394 -0.1032  0.1270
  998TIP3    H1 3000   0.352   3.857   1.965 -0.1919 -0.1291  1.1377
  998TIP3    H2 3001   0.413   3.721   1.940 -1.0274 -0.5813  1.5162
  999TIP3   OH2 3002   4.649   0.197   2.542 -0.2912 -1.1720 -0.1904
  999TIP3    H1 3003   4.622   0.194   2.634  1.4757  2.8466  0.6694
  999TIP3    H2 3004   4.571   0.227   2.495 -0.0478  1.3998  0.8611
 1000TIP3   OH2 3005   5.366   3.676   3.520 -0.6724 -0.2013 -0.3088
 1000TIP3    H1 3006   5.392   3.708   3.606 -2.0913 -1.1703  0.5360
 1000TIP3    H2 3007   5.276   3.708   3.509 -0.3254  0.3747 -1.6938
 1001TIP3   OH2 3008   4.477   4.357   3.851  0.6687 -0.1320 -0.3009
 1001TIP3    H1 3009   4.483   4.262   3.847  1.2449 -0.0601 -2.7705
 1001TIP3    H2 3010   4.544   4.383   3.914  0.3126 -1.3591  0.6080
 1002TIP3   OH2 3011   3.487   3.589   4.554  0.0755  0.0073 -0.2313
 1002TIP3    H1 3012   3.424   3.625   4.492  1.4477  0.6593 -1.2908
 1002TIP3    H2 3013   3.555   3.656   4.561  1.4057 -1.2828 -0.2847
 1003TIP3   OH2 3014   0.973   2.913  -0.005 -0.2156 -0.0522 -0.1032
 1003TIP3    H1 3015   0.897   2.876  -0.050  0.6694 -0.3604 -1.4238
 1003TIP3    H2 3016   0.981   2.862   0.076  0.1309 -1.8509 -1.2017
 1004TIP3   OH2 3017   2.487   2.024   1.874 -0.5568  0.2246  0.3163
 1004TIP3    H1 3018   2.568   2.068   1.900 -1.3693  1.5696  0.6741
 1004TIP3    H2 3019   2.418   2.085   1.899 -1.5806  0.0436 -1.8189
 1005TIP3   OH2 3020   0.531   1.547   2.433  0.0068 -0.0298 -0.1134
 1005TIP3    H1 3021   0.518   1.640   2.448  0.4308 -0.0916  0.7187
 1005TIP3    H2 3022   0.601   1.542   2.368 -0.4651  0.2343 -0.6443
 1006TIP3   OH2 3023   6.136   1.500   2.373 -0.2265 -0.3105  0.0476
 1006TIP3    H1 3024   6.198   1.505   2.301 -1.8501 -1.8493 -1.5548
 1006TIP3    H2 3025   6.064   1.557   2.347  0.5327  1.6765  2.0102
 1007TIP3   OH2 3026   0.278   5.925   1.453  0.4446 -0.1747 -0.7042
 1007TIP3    H1 3027   0.198   5.893   1.411 -0.4189 -0.4305  1.0251
 1007TIP3    H2 3028   0.305   6.000   1.399 -0.1245 -0.9672 -2.1426
 1008TIP3   OH2 3029   0.652   0.031   3.936 -1.0269  0.5905  0.3598
 1008TIP3    H1 3030   0.745   0.033   3.958 -0.7628 -0.0405 -0.6309
 1008TIP3    H2 3031   0.635   0.115   3.895 -0.4446  0.0036 -1.1322
 1009TIP3   OH2 3032   3.946   1.199   0.268  0.0215  1.0909  0.0155
 1009TIP3    H1 3033   3.895   1.122   0.244  0.7325  0.3816  0.7575
 1009TIP3    H2 3034   3.954   1.249   0.186  0.1969  0.0133 -0.6421
 1010TIP3   OH2 3035   5.618   2.360   4.679  0.3441 -0.9933 -0.2015
 1010TIP3    H1 3036   5.625   2.451   4.706 -2.2293 -1.0471  0.8790
 1010TIP3    H2 3037   5.646   2.360   4.587 -0.1111  0.9682 -0.3747
 1011TIP3   OH2 3038   5.861   1.916   3.172  0.4839  0.2147 -0.1520
 1011TIP3    H1 3039   5.878   1.828   3.139  0.1040  0.0377  0.1183
 1011TIP3    H2 3040   5.948   1.955   3.183  0.6271  0.3257 -1.4692
 1012TIP3   OH2 3041   6.332   4.611   0.533  0.1004  0.0144 -0.2011
 1012TIP3    H1 3042   6.382   4.621   0.613  1.1926  1.1743 -0.9969
 1012TIP3    H2 3043   6.286   4.694   0.521  1.2343  0.4804 -1.6012
 1013TIP3   OH2 3044   0.632   2.637   3.722  0.2193 -0.6551  0.1455
 1013TIP3    H1 3045   0.549   2.625   3.675  1.1122 -0.5176 -1.5509
 1013TIP3    H2 3046   0.676   2.553   3.713  1.0049 -0.1830 -0.5041
 1014TIP3   OH2 3047   3.449   1.110   1.641  0.0478  0.2440  0.2257
 1014TIP3    H1 3048   3.383   1.130   1.707 -0.2949  0.0447 -0.0605
 1014TIP3    H2 3049   3.405   1.123   1.557  0.2590 -0.2605  0.0343
 1015TIP3   OH2 3050   2.164   0.715   2.907  0.2360 -0.3596  0.0479
 1015TIP3    H1 3051   2.113   0.749   2.834 -1.4901  0.4390  1.5390
 1015TIP3    H2 3052   2.124   0.631   2.927  0.2906 -0.2943  0.4442
 1016TIP3   OH2 3053   3.636  -0.006   3.777  0.7755 -0.4666 -0.3544
 1016TIP3    H1 3054   3.567  -0.026   3.841  1.0057  0.0394  0.0573
 1016TIP3    H2 3055   3.674   0.077   3.807  0.2479  0.2948 -1.6744
 1017TIP3   OH2 3056   1.691   5.711   2.811  0.0353 -0.1197 -0.2649
 1017TIP3    H1 3057   1.702   5.705   2.905  1.6944  1.1665 -0.3423
 1017TIP3    H2 3058   1.737   5.791   2.786  0.0095 -0.6697 -2.2287
 1018TIP3   OH2 3059   5.899   3.132   1.934 -0.1665  0.5272 -0.3537
 1018TIP3    H1 3060   5.867   3.074   2.003  0.1981  1.7096  0.8344
 1018TIP3    H2 3061   5.989   3.103   1.918 -0.4403 -0.1234 -0.7744
 1019TIP3   OH2 3062   2.982   3.214   3.671 -0.4125 -0.1174  0.1685
 1019TIP3    H1 3063   3.019   3.286   3.722  1.1343 -1.9775  1.8673
 1019TIP3    H2 3064   2.910   3.181   3.725  0.3175 -1.2073  0.5049
 1020TIP3   OH2 3065   5.260   4.400   2.486  0.1141  0.1194 -0.1525
 1020TIP3    H1 3066   5.183   4.425   2.536 -1.1156 -2.0701 -0.7955
 1020TIP3    H2 3067   5.274   4.472   2.424 -1.2224  0.6947  0.1890
 1021TIP3   OH2 3068   1.422   0.442   1.189 -0.0586  0.4113 -0.3409
 1021TIP3    H1 3069   1.438   0.355   1.153  0.2396 -0.5098  1.8634
 1021TIP3    H2 3070   1.510   0.478   1.204 -0.1805  1.0334 -1.0406
 1022TIP3   OH2 3071   5.567   5.570   2.941 -0.2432  0.4005 -0.9091
 1022TIP3    H1 3072   5.479   5.542   2.968 -0.3633  0.8669 -0.8073
 1022TIP3    H2 3073   5.554   5.616   2.859 -0.2717  1.5791 -0.2689
 1023TIP3   OH2 3074   2.304   5.412   4.781  0.1489 -0.2038  0.8889
 1023TIP3    H1 3075   2.257   5.495   4.768  1.2430  0.4896  1.1802
 1023TIP3    H2 3076   2.390   5.427   4.741  0.2471 -1.3314  0.6401
 1024TIP3   OH2 3077   4.418   3.178   2.150 -0.1370 -0.1317 -0.6474
 1024TIP3    H1 3078   4.466   3.249   2.192  0.5019 -0.7726 -0.2662
 1024TIP3    H2 3079   4.407   3.112   2.219 -2.9558  0.6156 -0.2684
 1025TIP3   OH2 3080   3.273   4.051   4.513  0.0997  0.2263 -0.1920
 1025TIP3    H1 3081   3.317   4.010   4.588 -0.4499  0.0085  0.0150
 1025TIP3    H2 3082   3.216   3.983   4.478 -0.7930  0.8015  0.1302
 1026TIP3   OH2 3083   4.642   5.861   2.673 -0.2096 -0.3585  0.6398
 1026TIP3    H1 3084   4.632   5.949   2.637  0.2616 -0.5809 -0.0578
 1026TIP3    H2 3085   4.667   5.807   2.598 -1.9670 -1.3964  0.7518
 1027TIP3   OH2 3086   0.390   5.619   3.183 -0.2997  0.1059 -0.0258
 1027TIP3    H1 3087   0.378   5.678   3.258  0.9741  1.2280 -0.6633
 1027TIP3    H2 3088   0.455   5.555   3.214 -0.9603 -0.4022  0.3407
 1028TIP3   OH2 3089   3.219   4.243   2.265 -0.3771 -0.0268 -0.5789
 1028TIP3    H1 3090   3.255   4.196   2.340 -1.2445 -0.5831 -0.4998
 1028TIP3    H2 3091   3.296   4.277   2.218  0.1714  0.5524  0.6938
 1029TIP3   OH2 3092   3.348   4.531   1.716  0.1975  0.2277  0.3581
 1029TIP3    H1 3093   3.390   4.615   1.696  0.9280 -0.2792 -0.3336
 1029TIP3    H2 3094   3.420   4.468   1.714 -0.5810 -0.6572 -0.7877
 1030TIP3   OH2 3095   0.930   0.834   3.844 -0.0551 -0.1388 -0.0264
 1030TIP3    H1 3096   0.940   0.740   3.833  1.4327  0.0484 -0.5753
 1030TIP3    H2 3097   0.841   0.853   3.816 -0.0217 -1.2437 -0.9342
 1031TIP3   OH2 3098   4.396   0.472   4.282 -0.4979 -0.6860  0.4165
 1031TIP3    H1 3099   4.462   0.512   4.225  0.8832 -1.3840  1.4546
 1031TIP3    H2 3100   4.446   0.445   4.360 -1.8959 -1.8564  0.9430
 1032TIP3   OH2 3101   1.654   5.662   0.344  0.3841  0.8120 -0.0558
 1032TIP3    H1 3102   1.705   5.742   0.349 -0.5575  1.3998  0.5802
 1032TIP3    H2 3103   1.675   5.616   0.426 -1.6160  2.0376  1.2265
 1033TIP3   OH2 3104   3.995   3.033   4.503  0.1667 -0.3143 -0.6875
 1033TIP3    H1 3105   4.012   2.969   4.434  1.1268 -1.0276  0.1785
 1033TIP3    H2 3106   4.081   3.073   4.519  0.2447 -1.0703  0.9499
 1034TIP3   OH2 3107   2.952   1.166   3.907 -0.4435 -0.3877 -0.2822
 1034TIP3    H1 3108   2.975   1.234   3.971  0.2967 -0.5886 -0.3176
 1034TIP3    H2 3109   2.929   1.214   3.828 -0.9941 -0.1473  0.0213
 1035TIP3   OH2 3110   3.216   4.672   2.138  0.1118 -0.0941 -0.1423
 1035TIP3    H1 3111   3.190   4.667   2.046 -0.3634  0.2294 -0.0301
 1035TIP3    H2 3112   3.176   4.595   2.178 -1.6772  0.9786  0.2589
 1036TIP3   OH2 3113   1.189   5.279   2.548  0.4445  0.5211  0.3666
 1036TIP3    H1 3114   1.137   5.277   2.468 -0.0656  0.3265  0.6963
 1036TIP3    H2 3115   1.274   5.312   2.521  0.7729 -0.9803 -0.5584
 1037TIP3   OH2 3116   3.151   0.343   1.737 -0.2066 -1.0805 -0.2556
 1037TIP3    H1 3117   3.236   0.333   1.780 -0.0644 -0.7411 -0.4553
 1037TIP3    H2 3118   3.172   0.369   1.648 -0.5382  1.3116  0.3035
 1038TIP3   OH2 3119   0.343   2.875   2.851  0.8571  0.3940 -0.3026
 1038TIP3    H1 3120   0.357   2.855   2.943  0.4788  0.7243 -0.1749
 1038TIP3    H2 3121   0.256   2.913   2.847  0.6274 -0.1778 -0.8837
 1039TIP3   OH2 3122   2.535   4.767   2.406  0.0509  0.2143  0.9402
 1039TIP3    H1 3123   2.557   4.707   2.334  0.7538  0.8553  0.6099
 1039TIP3    H2 3124   2.459   4.727   2.447 -1.5997  0.7783 -1.3284
 1040TIP3   OH2 3125   0.388   5.450   0.308 -0.3904  0.3136 -0.2636
 1040TIP3    H1 3126   0.369   5.531   0.357  0.5909  0.5634 -0.2748
 1040TIP3    H2 3127   0.436   5.480   0.230 -0.5018 -0.2299 -0.5428
 1041TIP3   OH2 3128   0.757   2.113   3.291  0.1089  0.3390 -0.1693
 1041TIP3    H1 3129   0.663   2.127   3.283  0.0681  0.0031 -0.2867
 1041TIP3    H2 3130   0.766   2.050   3.363  0.1726 -0.4639 -0.8626
 1042TIP3   OH2 3131   5.514   2.328   2.657 -0.3650 -0.5076  0.0004
 1042TIP3    H1 3132   5.591   2.319   2.600 -0.6041 -0.0289 -0.4089
 1042TIP3    H2 3133   5.548   2.312   2.745  0.7064  1.9241  0.1094
 1043TIP3   OH2 3134   3.589   2.037   2.758 -0.5181 -0.1473  0.3384
 1043TIP3    H1 3135   3.502   2.001   2.776  0.3158 -1.3481  2.2462
 1043TIP3    H2 3136   3.646   1.961   2.756  1.0777  0.8632  3.0048
 1044TIP3   OH2 3137   2.942   2.565   0.737 -0.4866 -0.3069 -0.0522
 1044TIP3    H1 3138   2.874   2.509   0.776 -0.8508  0.6251  0.6914
 1044TIP3    H2 3139   2.925   2.561   0.643 -0.3184 -1.6779 -0.0406
 1045TIP3   OH2 3140   1.758   2.985   4.391 -0.4820 -0.1503  0.1268
 1045TIP3    H1 3141   1.706   2.957   4.466 -1.3214  1.6930  0.2708
 1045TIP3    H2 3142   1.696   2.987   4.318 -0.1073 -0.0586 -0.1917
 1046TIP3   OH2 3143   5.278   3.368   0.367  0.3309  1.1379  0.1819
 1046TIP3    H1 3144   5.335   3.291   0.367 -0.1919  0.7417  1.2608
 1046TIP3    H2 3145   5.236   3.368   0.453 -2.5249  0.5161 -1.0960
 1047TIP3   OH2 3146   2.638   3.907   2.618 -0.2957 -0.2789 -0.3019
 1047TIP3    H1 3147   2.699   3.980   2.612  0.5127 -0.3795  3.8858
 1047TIP3    H2 3148   2.566   3.941   2.671 -2.0511 -1.3691 -1.8465
 1048TIP3   OH2 3149   4.362   0.699   3.135 -0.3218  0.4772 -0.1357
 1048TIP3    H1 3150   4.440   0.646   3.153  2.5543  3.6770 -1.9662
 1048TIP3    H2 3151   4.360   0.763   3.206 -3.4508 -1.4167  1.7546
 1049TIP3   OH2 3152   5.128   5.401   0.552 -0.1183 -0.4790 -0.1920
 1049TIP3    H1 3153   5.110   5.494   0.538 -1.0985 -0.6684 -0.2846
 1049TIP3    H2 3154   5.101   5.385   0.642  3.6577  0.1385  1.2349
 1050TIP3   OH2 3155   4.516   3.807   4.519 -0.0581  0.4155  0.0539
 1050TIP3    H1 3156   4.459   3.743   4.476  0.1139  1.6730 -2.2013
 1050TIP3    H2 3157   4.582   3.754   4.563 -0.5833 -0.9938 -0.7715
 1051TIP3   OH2 3158   1.715   0.120   1.912 -0.3275  0.8115 -0.2766
 1051TIP3    H1 3159   1.660   0.146   1.987 -1.0952 -0.7473 -0.2593
 1051TIP3    H2 3160   1.653   0.109   1.840  0.1131  0.1262 -0.5575
 1052TIP3   OH2 3161   3.990   2.498   2.746 -0.0263 -0.3916  0.4095
 1052TIP3    H1 3162   3.970   2.446   2.668 -0.3509  0.7838 -0.3192
 1052TIP3    H2 3163   4.062   2.555   2.719 -0.7818  0.7123  0.6231
 1053TIP3   OH2 3164   3.591   0.906   2.369 -0.4511 -0.1872 -0.1617
 1053TIP3    H1 3165   3.495   0.907   2.375 -0.4670 -0.8629 -0.2964
 1053TIP3    H2 3166   3.614   0.998   2.355 -1.2555 -0.2918 -2.7302
 1054TIP3   OH2 3167   2.039   1.105   2.933 -0.1739  0.2982 -0.0372
 1054TIP3    H1 3168   2.121   1.153   2.925 -0.3111  0.7497  1.0710
 1054TIP3    H2 3169   2.063   1.025   2.981  0.2675 -1.3596 -2.8061
 1055TIP3   OH2 3170   2.716   3.412   4.305  0.4939 -0.3761 -0.2300
 1055TIP3    H1 3171   2.716   3.507   4.316 -0.8451 -0.4511  0.6810
 1055TIP3    H2 3172   2.623   3.388   4.307  0.6856 -1.5254 -2.2915
 1056TIP3   OH2 3173   5.053   1.638   2.036  0.2392 -0.7366  0.1601
 1056TIP3    H1 3174   5.085   1.577   1.971 -0.0300 -0.0990 -0.5902
 1056TIP3    H2 3175   5.023   1.714   1.985 -3.2109 -1.5852  0.6748
 1057TIP3   OH2 3176   1.136   4.911   0.925  0.0135  0.1920 -0.1330
 1057TIP3    H1 3177   1.042   4.893   0.925  0.0855 -0.2160 -1.0211
 1057TIP3    H2 3178   1.162   4.901   1.017 -1.0187  1.4844  0.3319
 1058TIP3   OH2 3179   5.097   5.367   3.228  0.2952 -0.2597  0.0924
 1058TIP3    H1 3180   5.119   5.306   3.298 -2.3854 -0.5147  0.8385
 1058TIP3    H2 3181   5.061   5.312   3.159 -1.4758  0.3491  0.4788
 1059TIP3   OH2 3182   4.407   2.111   3.611 -0.2214 -0.1917  0.5934
 1059TIP3    H1 3183   4.476   2.145   3.554  0.2380 -0.9807  0.6673
 1059TIP3    H2 3184   4.407   2.016   3.595 -1.7035 -0.1505  0.1339
 1060TIP3   OH2 3185   2.704   5.124   3.064  0.2650 -0.3494  0.0846
 1060TIP3    H1 3186   2.615   5.092   3.049  0.6764 -1.7206  0.3795
 1060TIP3    H2 3187   2.742   5.132   2.976 -0.2196  0.4979 -0.0569
 1061TIP3   OH2 3188   1.336   1.547   3.163  0.0267 -0.5007 -0.1693
 1061TIP3    H1 3189   1.263   1.535   3.225  0.8832  0.9451  1.2009
 1061TIP3    H2 3190   1.408   1.578   3.218  0.7334  1.1495 -1.9411
 1062TIP3   OH2 3191   1.957   1.379   3.440  0.1223  0.5243 -0.4304
 1062TIP3    H1 3192   2.031   1.325   3.468  0.8023  1.6419 -0.0222
 1062TIP3    H2 3193   1.886   1.357   3.502  1.1740  1.9350  1.3718
 1063TIP3   OH2 3194   4.180   4.910   1.368 -0.5160  0.0899 -0.1340
 1063TIP3    H1 3195   4.242   4.928   1.297  0.7618 -2.3423  0.2819
 1063TIP3    H2 3196   4.137   4.829   1.343 -0.3823 -0.5611  1.6208
 1064TIP3   OH2 3197   6.036   4.700   2.994 -0.1017 -0.1573  0.2437
 1064TIP3    H1 3198   5.950   4.732   3.020 -1.2568 -0.6837 -2.6176
 1064TIP3    H2 3199   6.018   4.618   2.948  2.0661 -0.9005  0.6223
 1065TIP3   OH2 3200   1.820   1.028   1.525 -0.5527  0.2977 -0.7176
 1065TIP3    H1 3201   1.784   1.100   1.577  2.2959  0.9777  0.5359
 1065TIP3    H2 3202   1.877   1.071   1.461  0.9634 -0.8030 -0.1567
 1066TIP3   OH2 3203   1.406   4.827   0.285  0.0012  0.9161  0.1908
 1066TIP3    H1 3204   1.401   4.823   0.190 -0.9783 -1.6620  0.2655
 1066TIP3    H2 3205   1.340   4.892   0.310 -0.2004  1.1352 -0.8609
 1067TIP3   OH2 3206  -0.002   1.243   2.461  0.2103  0.0214 -0.2694
 1067TIP3    H1 3207  -0.035   1.267   2.548 -2.1332  0.4441 -1.2204
 1067TIP3    H2 3208   0.044   1.321   2.431 -1.5700  1.0110 -0.5882
 1068TIP3   OH2 3209   3.079   2.483   3.003 -0.1212 -0.0196  0.1338
 1068TIP3    H1 3210   3.129   2.408   2.971 -0.9769  0.2832 -2.0616
 1068TIP3    H2 3211   2.994   2.446   3.027 -0.2677  0.1159 -0.1737
 1069TIP3   OH2 3212   2.675   2.524   3.024 -0.4293 -0.1724 -0.5385
 1069TIP3    H1 3213   2.637   2.611   3.015  0.8263  0.7662  2.2725
 1069TIP3    H2 3214   2.658   2.482   2.940 -2.3186  2.2604 -1.4869
 1070TIP3   OH2 3215   2.282   4.729   2.522 -0.0587  0.6231 -0.2654
 1070TIP3    H1 3216   2.250   4.811   2.486 -1.3357  0.4107  0.3250
 1070TIP3    H2 3217   2.205   4.688   2.562  0.6102 -0.7089 -0.2578
 1071TIP3   OH2 3218   6.064   5.931   1.111  0.5310 -0.2349 -0.5459
 1071TIP3    H1 3219   6.072   6.026   1.121  0.1166 -0.1960 -0.5599
 1071TIP3    H2 3220   6.002   5.920   1.039  1.7048 -0.5181 -1.5622
 1072TIP3   OH2 3221   1.852   0.398   0.324  0.0169 -0.3111  0.3745
 1072TIP3    H1 3222   1.944   0.372   0.319 -0.1252 -0.6659 -0.5206
 1072TIP3    H2 3223   1.804   0.315   0.332 -0.2665 -0.1616  0.2441
 1073TIP3   OH2 3224   3.142   1.995   4.628  0.0868 -0.3021 -0.1407
 1073TIP3    H1 3225   3.129   1.934   4.555 -0.9179 -0.2246 -0.0359
 1073TIP3    H2 3226   3.056   2.003   4.668  0.2198  1.1259 -0.0987
 1074TIP3   OH2 3227   5.646   3.381   4.802 -0.6790  0.1960 -0.1159
 1074TIP3    H1 3228   5.726   3.337   4.774  0.1650  2.1450 -0.9475
 1074TIP3    H2 3229   5.622   3.436   4.727 -1.6329  1.1878  0.8862
 1075TIP3   OH2 3230   0.343   1.024   4.046 -0.0978 -0.6499 -0.1250
 1075TIP3    H1 3231   0.282   1.086   4.086  0.4356 -1.9839  3.0594
 1075TIP3    H2 3232   0.314   0.939   4.078  1.9663 -1.5496 -0.5336
 1076TIP3   OH2 3233   3.245   5.087   2.450 -0.2358  0.5795 -0.6584
 1076TIP3    H1 3234   3.222   5.005   2.406  0.9244  0.5412 -1.2199
 1076TIP3    H2 3235   3.339   5.095   2.440 -0.0864  1.1563  0.8585
 1077TIP3   OH2 3236   3.897   4.968   4.637 -0.7145 -0.5041  0.2017
 1077TIP3    H1 3237   3.885   4.930   4.550  0.2063  1.2798 -0.7642
 1077TIP3    H2 3238   3.878   5.061   4.625  1.6661  0.2100  1.3712
 1078TIP3   OH2 3239   0.491   3.753   3.889  0.4844  0.5178 -0.1105
 1078TIP3    H1 3240   0.576   3.791   3.911  0.5112  0.6197 -0.3872
 1078TIP3    H2 3241   0.428   3.804   3.941  0.7051 -0.4800  1.2011
 1079TIP3   OH2 3242   5.034   4.452   2.635  0.6581 -0.0114  0.4015
 1079TIP3    H1 3243   5.027   4.361   2.604  0.6052  0.4821 -1.0731
 1079TIP3    H2 3244   4.961   4.461   2.696 -0.5448 -0.3960 -0.9252
 1080TIP3   OH2 3245   2.597   1.446   0.776 -0.3609  0.2173 -0.3522
 1080TIP3    H1 3246   2.604   1.535   0.811  1.1965 -1.2122  3.6223
 1080TIP3    H2 3247   2.505   1.436   0.751 -1.5545  1.8594  2.7978
 1081TIP3   OH2 3248   1.165   2.600   4.648 -0.4489 -0.5151 -0.0387
 1081TIP3    H1 3249   1.100   2.669   4.633  1.3377  1.2356 -0.1808
 1081TIP3    H2 3250   1.247   2.637   4.614  1.2232 -1.4325  2.6964
 1082TIP3   OH2 3251   0.258   3.785   3.539 -0.5646  0.0313 -0.1967
 1082TIP3    H1 3252   0.333   3.844   3.546 -1.0610  0.7301 -0.5917
 1082TIP3    H2 3253   0.188   3.830   3.587 -0.7012 -0.6711  0.2693
 1083TIP3   OH2 3254   2.274   1.215   2.972  0.0592  0.9143  0.4494
 1083TIP3    H1 3255   2.335   1.155   3.015 -0.1012  0.3556 -0.0827
 1083TIP3    H2 3256   2.331   1.276   2.925  0.2834 -1.0359 -2.0112
 1084TIP3   OH2 3257   6.079   0.024   0.241  0.1117 -0.5077 -0.1005
 1084TIP3    H1 3258   5.999   0.076   0.229 -0.3269 -0.9206  0.9120
 1084TIP3    H2 3259   6.150   0.087   0.228 -0.3999  0.1969  0.4273
 1085TIP3   OH2 3260   0.213   5.465   2.705 -0.0273  0.5143 -0.2493
 1085TIP3    H1 3261   0.153   5.524   2.659  0.7491  1.8469  0.3715
 1085TIP3    H2 3262   0.157   5.396   2.740 -1.0622  1.2107 -0.4830
 1086TIP3   OH2 3263   0.888   0.239   4.275 -0.0825 -0.2107  0.2964
 1086TIP3    H1 3264   0.824   0.307   4.253 -0.9923 -0.8181  1.0227
 1086TIP3    H2 3265   0.836   0.160   4.286  0.8814 -0.8665  0.2404
 1087TIP3   OH2 3266   1.263   1.220   3.229 -0.3740  0.3678  0.3214
 1087TIP3    H1 3267   1.308   1.143   3.193 -1.8149  0.1079 -1.0095
 1087TIP3    H2 3268   1.281   1.290   3.167 -1.8987  0.2221 -0.3232
 1088TIP3   OH2 3269   0.208   3.351   1.612  0.3331 -0.4073 -0.0679
 1088TIP3    H1 3270   0.285   3.307   1.575  0.0794 -0.6806 -0.2746
 1088TIP3    H2 3271   0.191   3.305   1.693 -0.0893 -0.8645 -0.4116
 1089TIP3   OH2 3272   2.723   4.653   4.315 -0.6104  0.2317  0.3285
 1089TIP3    H1 3273   2.628   4.645   4.321 -0.6582  0.8917  0.5541
 1089TIP3    H2 3274   2.738   4.747   4.302 -0.0393  0.0071 -0.7539
 1090TIP3   OH2 3275   1.522   2.777   0.228  0.6599 -0.0421  0.3274
 1090TIP3    H1 3276   1.610   2.806   0.205  0.3905  0.4574 -0.1123
 1090TIP3    H2 3277   1.496   2.721   0.154 -0.1415  1.4229 -0.5637
 1091TIP3   OH2 3278   0.504   1.664   4.049  0.1046 -0.4234  0.0908
 1091TIP3    H1 3279   0.536   1.574   4.054 -3.7940 -1.9840  0.4113
 1091TIP3    H2 3280   0.535   1.705   4.130  4.0984 -0.4580 -1.1785
 1092TIP3   OH2 3281   5.622   1.684   2.379 -0.2758 -0.0295  0.4386
 1092TIP3    H1 3282   5.533   1.689   2.412  0.1268 -2.0757  2.0480
 1092TIP3    H2 3283   5.642   1.591   2.376  1.6600  0.3452 -0.3383
 1093TIP3   OH2 3284   4.980   4.625   3.266  0.5327 -0.0070  0.4685
 1093TIP3    H1 3285   5.019   4.542   3.291 -1.9881 -1.5358 -0.2850
 1093TIP3    H2 3286   4.908   4.638   3.328  1.2362  1.9767  0.9583
 1094TIP3   OH2 3287   2.739   5.915   4.745  0.5461 -0.5224 -0.1663
 1094TIP3    H1 3288   2.800   5.966   4.799 -0.1470  0.3117 -0.1415
 1094TIP3    H2 3289   2.786   5.835   4.723  1.9056  0.4089 -0.7295
 1095TIP3   OH2 3290   5.335   2.875   0.803 -0.2082  0.2942  0.4437
 1095TIP3    H1 3291   5.287   2.862   0.722 -0.3954 -2.0450  0.8477
 1095TIP3    H2 3292   5.427   2.879   0.776 -0.0577 -2.6570  0.1738
 1096TIP3   OH2 3293   0.064   2.800   0.275 -0.4422  0.1150  0.0087
 1096TIP3    H1 3294   0.023   2.714   0.281 -0.9567  0.2376 -1.4185
 1096TIP3    H2 3295  -0.004   2.860   0.307 -0.5213  0.0930 -0.1152
 1097TIP3   OH2 3296   5.085   0.087   4.536  0.4769  0.5540 -0.0145
 1097TIP3    H1 3297   5.103   0.111   4.627  2.2638 -0.0225 -0.1730
 1097TIP3    H2 3298   5.090  -0.009   4.535 -1.2566  0.4311 -0.4166
 1098TIP3   OH2 3299   3.714   2.088   1.245  0.2557 -0.6375 -0.2393
 1098TIP3    H1 3300   3.757   2.156   1.192  1.6015 -1.3740 -0.1253
 1098TIP3    H2 3301   3.651   2.136   1.299  1.9766  0.6939  0.6810
 1099TIP3   OH2 3302   5.062   1.017   1.708 -0.1527  0.3529  0.5724
 1099TIP3    H1 3303   5.094   1.010   1.618  0.7888 -0.3967  0.9483
 1099TIP3    H2 3304   4.970   0.993   1.703  0.2239 -1.0478  0.0032
 1100TIP3   OH2 3305   5.671   3.983   1.001 -0.4009  0.2881 -0.0113
 1100TIP3    H1 3306   5.635   4.049   0.941  1.4856  0.6817 -0.7791
 1100TIP3    H2 3307   5.762   4.010   1.015 -0.0988 -1.1796  1.0919
 1101TIP3   OH2 3308   2.622   5.788   3.035 -0.1249  0.1208 -0.3083
 1101TIP3    H1 3309   2.644   5.834   3.116 -0.2015 -1.0701  0.4184
 1101TIP3    H2 3310   2.706   5.753   3.004 -0.1294  0.3938 -0.6417
 1102TIP3   OH2 3311   5.032   1.601   1.475 -0.2642  0.1570  0.1565
 1102TIP3    H1 3312   5.035   1.506   1.468  0.6018  0.1765  0.1750
 1102TIP3    H2 3313   5.045   1.619   1.568 -0.9654  0.2831  0.2389
 1103TIP3   OH2 3314   4.877   5.417   1.404 -0.3529 -0.1148  0.1902
 1103TIP3    H1 3315   4.830   5.398   1.485  0.1066  1.9208  0.9970
 1103TIP3    H2 3316   4.968   5.428   1.431 -0.4867  2.5773 -0.1881
 1104TIP3   OH2 3317   4.369   1.093   4.165  0.4623 -0.0017  0.1433
 1104TIP3    H1 3318   4.363   1.099   4.070 -2.2923  1.3853  0.3051
 1104TIP3    H2 3319   4.293   1.041   4.191  0.1811  1.0721  1.6548
 1105TIP3   OH2 3320   4.497   2.688   0.643  0.1045  0.3675  0.2215
 1105TIP3    H1 3321   4.517   2.627   0.572 -1.0071  0.3810 -0.1123
 1105TIP3    H2 3322   4.512   2.775   0.605 -0.9797  0.3967 -0.1789
 1106TIP3   OH2 3323   0.224   1.733   1.277 -0.1305  0.5562 -0.5010
 1106TIP3    H1 3324   0.196   1.748   1.367 -0.2552 -1.0435 -0.2431
 1106TIP3    H2 3325   0.208   1.817   1.233  3.2159  2.5828  1.7200
 1107TIP3   OH2 3326   5.523   4.098   4.537 -0.0515 -0.3175 -0.7064
 1107TIP3    H1 3327   5.503   4.040   4.463 -2.7686 -0.6257  0.1770
 1107TIP3    H2 3328   5.446   4.153   4.547  0.8009  0.6629  1.0755
 1108TIP3   OH2 3329   4.885   5.842   1.483  0.1769 -0.0913  0.2619
 1108TIP3    H1 3330   4.829   5.910   1.521  0.7234 -0.5449  1.9955
 1108TIP3    H2 3331   4.890   5.775   1.552  2.0185 -0.5185 -0.2441
 1109TIP3   OH2 3332   6.280   5.559   0.816 -0.1100 -0.0183  0.4190
 1109TIP3    H1 3333   6.267   5.626   0.748 -1.5923 -1.4277 -0.7792
 1109TIP3    H2 3334   6.232   5.593   0.892 -1.9510 -0.2217 -0.5822
 1110TIP3   OH2 3335   5.778   1.250   0.615  0.4965  0.1367 -0.0736
 1110TIP3    H1 3336   5.703   1.248   0.556  0.9460 -1.8977 -0.6595
 1110TIP3    H2 3337   5.806   1.159   0.621  1.3395  0.4819  2.1946
 1111TIP3   OH2 3338   5.928   3.798   5.017  0.3346  0.0932  0.9293
 1111TIP3    H1 3339   5.854   3.771   4.961  0.3631 -2.8405  2.1039
 1111TIP3    H2 3340   5.918   3.893   5.026 -2.0172  0.0954 -0.7062
 1112TIP3   OH2 3341   1.461   5.224   0.183  0.4532 -0.7576 -0.4229
 1112TIP3    H1 3342   1.371   5.193   0.194  0.8448 -1.5574  0.5839
 1112TIP3    H2 3343   1.467   5.244   0.089 -1.6364  2.0852 -0.1006
 1113TIP3   OH2 3344   4.834   3.741   1.056  0.7830  0.2714  0.1925
 1113TIP3    H1 3345   4.762   3.749   1.119  1.3568 -0.1949  0.9232
 1113TIP3    H2 3346   4.847   3.830   1.023 -1.9181 -0.0009 -2.0181
 1114TIP3   OH2 3347   1.431   5.207   3.523 -0.5934  0.0445 -0.6477
 1114TIP3    H1 3348   1.462   5.157   3.448  1.2256 -1.4974  1.0284
 1114TIP3    H2 3349   1.475   5.292   3.515  2.6374 -1.3898  0.5581
 1115TIP3   OH2 3350   0.643   3.151   1.258  0.1179 -0.1810  0.4179
 1115TIP3    H1 3351   0.665   3.095   1.184 -0.3374  2.1393 -1.6187
 1115TIP3    H2 3352   0.725   3.195   1.281 -0.2339  1.1020 -0.5985
 1116TIP3   OH2 3353   2.633   2.757   2.022 -0.0483  0.2135 -0.1389
 1116TIP3    H1 3354   2.709   2.812   2.002  0.8438 -0.7463  0.4836
 1116TIP3    H2 3355   2.670   2.682   2.069 -1.5822  0.5734  1.8033
 1117TIP3   OH2 3356   5.429   0.891   1.412  0.1558 -0.2033 -0.1426
 1117TIP3    H1 3357   5.362   0.826   1.389  0.1088 -0.2282  0.0640
 1117TIP3    H2 3358   5.486   0.895   1.335 -1.4102  1.5260 -1.3063
 1118TIP3   OH2 3359   5.198   1.501   2.739 -0.1974 -0.0137  0.5593
 1118TIP3    H1 3360   5.282   1.538   2.765  0.0346 -0.3888  0.3415
 1118TIP3    H2 3361   5.197   1.414   2.779  0.2972 -0.7286 -0.9227
 1119TIP3   OH2 3362   3.581   4.486   0.528 -0.4021 -0.0219 -0.3886
 1119TIP3    H1 3363   3.592   4.455   0.618  1.7168  1.9212  0.1204
 1119TIP3    H2 3364   3.511   4.551   0.534 -0.1138  0.2639 -0.0866
 1120TIP3   OH2 3365   4.599   4.664   4.253 -0.5998  0.1761 -0.6444
 1120TIP3    H1 3366   4.605   4.757   4.278  0.5609 -0.4500  1.7451
 1120TIP3    H2 3367   4.583   4.618   4.335  0.5441 -1.8827 -1.4864
 1121TIP3   OH2 3368   6.148   4.020   3.102 -0.6247  0.2822 -0.4927
 1121TIP3    H1 3369   6.073   3.961   3.093 -1.4082  1.0239  0.7813
 1121TIP3    H2 3370   6.224   3.968   3.075 -1.5563 -0.5798 -1.5145
 1122TIP3   OH2 3371   1.018   1.910   0.852 -0.1137  0.2236 -0.0075
 1122TIP3    H1 3372   0.931   1.905   0.813 -0.5315 -1.5916  1.0168
 1122TIP3    H2 3373   1.006   1.879   0.942  1.6217 -0.3969  0.0614
 1123TIP3   OH2 3374   2.783   0.339   2.107 -0.0876 -0.0033 -0.4389
 1123TIP3    H1 3375   2.810   0.382   2.025 -0.9155 -0.0842 -0.7643
 1123TIP3    H2 3376   2.749   0.410   2.161  1.4649  0.2315  0.2989
 1124TIP3   OH2 3377   4.313   1.567   1.306  0.2127 -0.0400 -0.2463
 1124TIP3    H1 3378   4.313   1.657   1.340 -0.9640 -0.4667  0.9601
 1124TIP3    H2 3379   4.221   1.548   1.290  0.3504 -1.3607  0.4421
 1125TIP3   OH2 3380   0.043   3.160   2.169 -0.3906 -0.0172 -0.5204
 1125TIP3    H1 3381  -0.000   3.077   2.147 -1.3505 -0.5612  2.7948
 1125TIP3    H2 3382   0.008   3.222   2.106 -1.0139 -1.7706 -1.9990
 1126TIP3   OH2 3383   5.307   2.831   4.182  0.4475  0.0446 -0.2088
 1126TIP3    H1 3384   5.402   2.834   4.191  0.4057 -0.6179  0.5092
 1126TIP3    H2 3385   5.286   2.738   4.170 -0.2803 -0.1136  1.8473
 1127TIP3   OH2 3386   1.936   4.949   4.794  0.7108  0.4305  0.3251
 1127TIP3    H1 3387   1.916   4.858   4.769  0.7243  0.5839 -0.2436
 1127TIP3    H2 3388   2.017   4.969   4.748  2.4603 -0.2950  2.8425
 1128TIP3   OH2 3389   0.554   5.317   0.496  0.2362  0.6693  0.5017
 1128TIP3    H1 3390   0.521   5.341   0.582 -0.9714  1.4373 -0.1539
 1128TIP3    H2 3391   0.489   5.351   0.434 -0.2319 -1.9865 -0.6297
 1129TIP3   OH2 3392   4.948   3.675   4.716 -0.1947  0.0414  0.2464
 1129TIP3    H1 3393   5.026   3.668   4.660 -1.9526 -1.0370 -2.2742
 1129TIP3    H2 3394   4.926   3.768   4.714  1.8243  0.6729  2.3433
 1130TIP3   OH2 3395   1.731   0.344   4.212  0.3236 -0.2172  0.2590
 1130TIP3    H1 3396   1.758   0.421   4.263  0.0111  0.6711 -0.8812
 1130TIP3    H2 3397   1.646   0.369   4.175 -0.1537 -1.4175  0.5020
 1131TIP3   OH2 3398   5.373   0.220   1.575 -0.1897  0.0576 -0.2618
 1131TIP3    H1 3399   5.321   0.280   1.523 -0.2835  1.0387  0.9086
 1131TIP3    H2 3400   5.453   0.206   1.525  1.0675  3.3516  0.5872
 1132TIP3   OH2 3401   3.677   1.056   0.574 -0.0720  0.3027 -0.1360
 1132TIP3    H1 3402   3.588   1.027   0.596 -0.4520  0.5453 -1.3038
 1132TIP3    H2 3403   3.665   1.124   0.509  0.9301  1.3338  0.7128
 1133TIP3   OH2 3404   0.817   4.969   1.559 -0.4229  0.3595 -0.1663
 1133TIP3    H1 3405   0.770   5.029   1.500 -1.0550  1.1219  1.0713
 1133TIP3    H2 3406   0.834   5.021   1.637 -0.7689 -1.0042  0.8551
 1134TIP3   OH2 3407   2.229   1.413   5.068  0.5373 -1.0272  0.1158
 1134TIP3    H1 3408   2.269   1.327   5.077  1.7063 -0.7680 -2.0502
 1134TIP3    H2 3409   2.277   1.455   4.997 -2.4812 -0.0217 -1.4906
 1135TIP3   OH2 3410   2.255   1.231   0.242 -0.7812 -0.0965  0.6352
 1135TIP3    H1 3411   2.236   1.222   0.149 -0.9471  0.6811  0.5809
 1135TIP3    H2 3412   2.198   1.167   0.285  1.1818 -2.3550  0.0572
 1136TIP3   OH2 3413   0.905   1.944   1.615 -0.2044  0.2757 -0.4974
 1136TIP3    H1 3414   0.811   1.957   1.604 -0.2509 -0.3561 -0.9313
 1136TIP3    H2 3415   0.946   2.018   1.568 -0.4841  0.8258  0.1182
 1137TIP3   OH2 3416   4.903   2.661   3.481  0.3625  0.0720  0.2239
 1137TIP3    H1 3417   4.960   2.738   3.479 -1.0790  1.1764 -1.3118
 1137TIP3    H2 3418   4.818   2.696   3.507 -0.4093 -0.9242 -0.8995
 1138TIP3   OH2 3419   0.414   4.047   2.909 -0.1459  0.0555  0.1979
 1138TIP3    H1 3420   0.434   3.955   2.889 -1.2822 -0.8495  2.7823
 1138TIP3    H2 3421   0.320   4.055   2.892 -0.0983  0.7095  0.2028
 1139TIP3   OH2 3422   6.066   4.540   2.195  0.0684 -0.0167  0.0561
 1139TIP3    H1 3423   6.113   4.554   2.113  0.0964  0.3815  0.1388
 1139TIP3    H2 3424   6.096   4.611   2.252  0.6706 -0.7567  0.6877
 1140TIP3   OH2 3425   0.745   2.533   0.479 -0.3866  0.3240 -0.0169
 1140TIP3    H1 3426   0.804   2.576   0.542 -1.6873  1.1922  0.6533
 1140TIP3    H2 3427   0.714   2.455   0.524 -1.1485  0.8325  0.3754
 1141TIP3   OH2 3428   5.616   5.022   1.505  0.3643 -0.1101 -0.3051
 1141TIP3    H1 3429   5.569   5.047   1.425  1.4523  0.2819 -0.8448
 1141TIP3    H2 3430   5.653   5.104   1.538 -0.7411 -0.1244  1.0794
 1142TIP3   OH2 3431   4.545   3.315   0.132  0.0571 -0.2864 -0.1163
 1142TIP3    H1 3432   4.562   3.223   0.150  1.0330 -0.1322 -0.1486
 1142TIP3    H2 3433   4.631   3.351   0.110 -0.1538  0.8217  0.7767
 1143TIP3   OH2 3434   0.819   5.438   3.670 -0.8312  0.2043 -0.6803
 1143TIP3    H1 3435   0.864   5.456   3.588 -0.2575  0.0132 -0.4149
 1143TIP3    H2 3436   0.805   5.525   3.709 -0.3861  0.2459 -0.6079
 1144TIP3   OH2 3437   2.105   4.237   3.152 -0.1547 -0.0893 -0.2402
 1144TIP3    H1 3438   2.077   4.321   3.187  2.9059  1.7129 -1.6718
 1144TIP3    H2 3439   2.072   4.236   3.062 -0.9004 -0.8394  0.0318
 1145TIP3   OH2 3440   4.834   3.850   0.283 -0.3338  0.2377  0.2997
 1145TIP3    H1 3441   4.814   3.795   0.359 -0.5866 -0.0034  0.0587
 1145TIP3    H2 3442   4.749   3.888   0.258 -0.5621 -0.9904 -0.8863
 1146TIP3   OH2 3443   0.124   0.921   0.384  0.1576 -0.2867 -0.2409
 1146TIP3    H1 3444   0.034   0.927   0.353 -0.0964 -0.8822  0.3523
 1146TIP3    H2 3445   0.131   0.986   0.453  0.0846 -0.4601 -0.0685
 1147TIP3   OH2 3446   3.306   2.431   4.183  0.3741  0.3726  0.2708
 1147TIP3    H1 3447   3.254   2.497   4.229 -0.1620 -0.5155  0.9803
 1147TIP3    H2 3448   3.349   2.479   4.112 -1.8071  1.0727 -0.6641
 1148TIP3   OH2 3449   5.185   2.437   2.171  0.1865  0.3268  0.1287
 1148TIP3    H1 3450   5.240   2.425   2.248  0.9084  2.6760  0.0386
 1148TIP3    H2 3451   5.096   2.439   2.207  0.3988 -0.0450  0.7061
 1149TIP3   OH2 3452   1.920   1.246   0.022  0.0029 -0.8352  0.2960
 1149TIP3    H1 3453   1.841   1.195   0.003 -0.0158 -0.5573 -0.4332
 1149TIP3    H2 3454   1.889   1.319   0.076 -0.6245  0.3709 -1.5926
 1150TIP3   OH2 3455   6.336   5.788   1.823  0.4204  0.0017 -0.4889
 1150TIP3    H1 3456   6.325   5.740   1.741  0.7435 -0.1286 -0.4577
 1150TIP3    H2 3457   6.257   5.768   1.873  0.2373  0.0590 -0.7569
 1151TIP3   OH2 3458   0.725   1.875   2.097  0.1161 -0.2457  0.2837
 1151TIP3    H1 3459   0.689   1.885   2.009  0.1819 -0.0154  0.2810
 1151TIP3    H2 3460   0.738   1.965   2.127 -1.2157 -0.2946  1.0618
 1152TIP3   OH2 3461   1.910   5.794   1.647  0.3078  0.2752  0.6642
 1152TIP3    H1 3462   1.890   5.829   1.560 -0.5047  0.2384  0.8298
 1152TIP3    H2 3463   2.000   5.822   1.663  0.1161  1.1815  0.2425
 1153TIP3   OH2 3464   4.910   4.627   3.565  0.4838 -0.1223 -0.1457
 1153TIP3    H1 3465   4.833   4.644   3.619 -0.5708 -2.4074 -0.7860
 1153TIP3    H2 3466   4.976   4.594   3.626 -0.1000 -1.0204  0.0177
 1154TIP3   OH2 3467   5.030   3.004   1.295  0.0893 -0.1865 -0.6287
 1154TIP3    H1 3468   5.085   3.032   1.221 -0.8180  0.7649 -0.9612
 1154TIP3    H2 3469   5.045   3.070   1.362  1.4702 -1.4356  0.3584
 1155TIP3   OH2 3470   2.057   5.081   3.011  0.0039  0.1447 -0.6175
 1155TIP3    H1 3471   2.123   5.081   2.942 -0.1154  0.5516 -0.7381
 1155TIP3    H2 3472   2.104   5.108   3.089 -0.0193  0.4393 -0.7043
 1156TIP3   OH2 3473   6.348   5.538   3.158  0.1233 -0.1140 -0.6642
 1156TIP3    H1 3474   6.310   5.456   3.189 -1.7418  1.3632  1.2612
 1156TIP3    H2 3475   6.345   5.596   3.234  1.6815  1.6694 -1.8690
 1157TIP3   OH2 3476   5.669   5.903   0.106 -0.3850 -0.0799  0.2029
 1157TIP3    H1 3477   5.636   5.858   0.183 -1.1747  0.4006  0.1522
 1157TIP3    H2 3478   5.745   5.951   0.137  0.0094 -0.8273  0.4185
 1158TIP3   OH2 3479   2.700   4.880   1.834  0.3766 -0.3575 -0.3786
 1158TIP3    H1 3480   2.690   4.832   1.916 -1.9063 -0.7019 -0.8102
 1158TIP3    H2 3481   2.746   4.960   1.859 -1.7643  0.3559  1.6124
 1159TIP3   OH2 3482   1.630   3.810   1.898  0.8139 -0.2467 -0.0564
 1159TIP3    H1 3483   1.645   3.796   1.805  0.0483  1.6718 -0.5315
 1159TIP3    H2 3484   1.690   3.750   1.942  2.8342  0.3830 -1.7845
 1160TIP3   OH2 3485   1.354   1.035   3.792 -0.1653  0.0070 -0.0071
 1160TIP3    H1 3486   1.316   0.994   3.870  1.2812  0.8702  1.2244
 1160TIP3    H2 3487   1.286   1.028   3.725 -0.6941 -2.6234  0.6925
 1161TIP3   OH2 3488   4.343   0.747   1.551  0.4659 -0.3156  0.4540
 1161TIP3    H1 3489   4.386   0.803   1.616  0.0298  0.5487  0.0103
 1161TIP3    H2 3490   4.325   0.804   1.477  0.8522 -1.2651 -0.4048
 1162TIP3   OH2 3491   2.053   5.845   2.249  0.2394 -0.4483 -0.4040
 1162TIP3    H1 3492   2.138   5.885   2.265 -1.3380  2.4300  1.8614
 1162TIP3    H2 3493   2.015   5.834   2.336 -1.3298 -2.6963 -1.2804
 1163TIP3   OH2 3494   3.591   4.089   0.790 -0.0578 -0.2608  0.5795
 1163TIP3    H1 3495   3.680   4.060   0.811  0.7680  1.8750  0.2726
 1163TIP3    H2 3496   3.592   4.184   0.804 -1.8997  0.0157 -0.7274
 1164TIP3   OH2 3497   5.096   3.343   4.407 -0.1626 -0.4111 -0.2612
 1164TIP3    H1 3498   5.106   3.334   4.502  0.7581 -0.3748 -0.3489
 1164TIP3    H2 3499   5.063   3.432   4.394  0.8268 -0.0060 -0.0418
 1165TIP3   OH2 3500   5.592   5.572   4.928 -0.3035  0.3758  0.3791
 1165TIP3    H1 3501   5.684   5.549   4.922  0.0425  0.9475  2.5065
 1165TIP3    H2 3502   5.553   5.540   4.847  1.7947  0.3241 -0.6589
 1166TIP3   OH2 3503   4.169   4.098   2.678 -0.0951  0.3384 -0.3700
 1166TIP3    H1 3504   4.226   4.167   2.713 -1.3217  0.0419  2.4746
 1166TIP3    H2 3505   4.126   4.061   2.755 -0.9576 -2.3135 -2.0081
 1167TIP3   OH2 3506   2.797   1.104   2.854  0.6151  0.1722 -0.2271
 1167TIP3    H1 3507   2.891   1.092   2.842  0.2559 -3.5366 -0.6922
 1167TIP3    H2 3508   2.764   1.125   2.767  0.8793  0.0365 -0.3609
 1168TIP3   OH2 3509   0.203   1.241   3.784 -0.1121  0.3152  0.2509
 1168TIP3    H1 3510   0.137   1.171   3.783 -0.8698  1.0024  0.7225
 1168TIP3    H2 3511   0.280   1.202   3.744 -1.1044 -0.2364 -1.2101
 1169TIP3   OH2 3512   2.083   2.857   1.412  0.3303 -0.1802 -0.0189
 1169TIP3    H1 3513   2.016   2.896   1.355 -1.1495  0.5709  2.1076
 1169TIP3    H2 3514   2.033   2.815   1.482  2.0686  0.8860  1.9660
 1170TIP3   OH2 3515   2.037   5.793   3.731 -0.1630 -0.2283 -0.4085
 1170TIP3    H1 3516   1.951   5.761   3.704  0.0026  0.0658 -1.3285
 1170TIP3    H2 3517   2.083   5.715   3.762 -1.1600 -0.2026  1.2723
 1171TIP3   OH2 3518   4.843   2.824   1.640  0.1042  0.4558  0.0437
 1171TIP3    H1 3519   4.777   2.773   1.688  0.9821 -0.1919  0.5833
 1171TIP3    H2 3520   4.852   2.904   1.692  0.3228  0.1924  0.4204
 1172TIP3   OH2 3521   5.231   2.282   2.985  0.0780  0.9500  0.0691
 1172TIP3    H1 3522   5.310   2.236   3.014 -0.7256  0.4353  1.5834
 1172TIP3    H2 3523   5.255   2.320   2.901  1.5696 -0.1526 -0.0527
 1173TIP3   OH2 3524   4.228   0.777   2.386  0.0574  0.4089  0.1835
 1173TIP3    H1 3525   4.220   0.682   2.394 -2.7383  0.2372 -2.6604
 1173TIP3    H2 3526   4.156   0.812   2.440  0.0672  0.8127 -0.0609
 1174TIP3   OH2 3527   4.594   3.046   0.111 -0.0282 -0.1801  0.5098
 1174TIP3    H1 3528   4.572   2.955   0.131 -0.6213 -0.7264 -2.2110
 1174TIP3    H2 3529   4.673   3.040   0.058 -0.0730  0.8778  0.3099
 1175TIP3   OH2 3530   5.302   4.999   2.710  0.4677 -0.0772  0.2255
 1175TIP3    H1 3531   5.272   4.923   2.660 -0.9884  0.2416  0.5617
 1175TIP3    H2 3532   5.390   5.017   2.677 -0.4481  0.1597 -2.3272
 1176TIP3   OH2 3533   0.242   3.765   4.598  0.2886  0.4334 -0.2170
 1176TIP3    H1 3534   0.288   3.683   4.615  0.5283  0.8110  0.9965
 1176TIP3    H2 3535   0.311   3.832   4.595  0.0263  0.6955 -0.5148
 1177TIP3   OH2 3536   1.492   3.832   2.948 -0.3672 -0.6242 -0.0379
 1177TIP3    H1 3537   1.501   3.777   3.026  0.9754  0.3853  0.5531
 1177TIP3    H2 3538   1.496   3.921   2.981 -1.7052 -0.1477 -1.0708
 1178TIP3   OH2 3539   3.743   1.707   0.925 -0.4717  0.4599  0.5256
 1178TIP3    H1 3540   3.810   1.676   0.987 -0.2547 -0.2393 -0.0489
 1178TIP3    H2 3541   3.749   1.803   0.930 -0.3819  0.4194  1.4975
 1179TIP3   OH2 3542   3.690   0.726   2.910 -0.0732  0.4602  0.3638
 1179TIP3    H1 3543   3.701   0.730   2.815 -0.1902  0.0123  0.3314
 1179TIP3    H2 3544   3.671   0.634   2.928  0.2726  0.4839  0.8593
 1180TIP3   OH2 3545   0.210   0.457   4.245  0.0733  0.3154  0.6107
 1180TIP3    H1 3546   0.283   0.410   4.286 -0.3708  0.0815  1.1340
 1180TIP3    H2 3547   0.145   0.390   4.227  0.6365  0.2353 -1.3819
 1181TIP3   OH2 3548   3.113   3.279   2.308  0.1862  0.0283  0.4247
 1181TIP3    H1 3549   3.121   3.227   2.388 -1.1737  1.5042  1.5763
 1181TIP3    H2 3550   3.020   3.274   2.285  0.2428  1.0503 -0.0733
 1182TIP3   OH2 3551   1.523   5.574   4.102 -0.0160 -0.4453 -0.5035
 1182TIP3    H1 3552   1.469   5.503   4.069 -2.7205  0.0429  2.4175
 1182TIP3    H2 3553   1.572   5.535   4.175  2.0205 -0.3210 -1.7243
 1183TIP3   OH2 3554   4.882   2.103   0.180  0.5356  0.1817  0.0639
 1183TIP3    H1 3555   4.936   2.054   0.118 -0.5059 -1.5342  0.4448
 1183TIP3    H2 3556   4.910   2.072   0.266  1.5868  2.1413  0.5028
 1184TIP3   OH2 3557   4.133   2.632   1.287  0.3126 -0.0630  0.6801
 1184TIP3    H1 3558   4.135   2.603   1.196  0.9646  0.1674  0.6169
 1184TIP3    H2 3559   4.092   2.560   1.335 -1.7086  0.5262 -0.0446
 1185TIP3   OH2 3560   5.833   3.732   3.417  0.1959 -0.2746  0.5116
 1185TIP3    H1 3561   5.747   3.690   3.421  0.2176 -0.2363  1.4653
 1185TIP3    H2 3562   5.833   3.779   3.334 -0.4381 -0.8418  0.1824
 1186TIP3   OH2 3563   4.319   5.262   4.351 -0.2686 -0.7816  0.5654
 1186TIP3    H1 3564   4.275   5.315   4.286  0.6307  0.4444  0.9271
 1186TIP3    H2 3565   4.250   5.205   4.386 -1.3751  0.4954  0.5301
 1187TIP3   OH2 3566   4.546   3.163   2.734  0.5201  0.2790 -0.1024
 1187TIP3    H1 3567   4.491   3.085   2.724 -0.4393  1.0784 -1.5222
 1187TIP3    H2 3568   4.616   3.150   2.671  1.0394  0.0394  0.5119
 1188TIP3   OH2 3569   4.992   2.471   2.834 -0.1912 -0.5559  0.7766
 1188TIP3    H1 3570   4.952   2.389   2.865 -0.5314 -0.1895  1.3242
 1188TIP3    H2 3571   4.927   2.510   2.776 -0.5149 -0.0986  1.4433
 1189TIP3   OH2 3572   0.710   5.779   0.317 -0.2142 -0.5713 -0.1177
 1189TIP3    H1 3573   0.660   5.860   0.321 -0.7115 -0.7594 -1.8006
 1189TIP3    H2 3574   0.798   5.804   0.345  0.1500  1.0268 -2.3840
 1190TIP3   OH2 3575   1.602   5.216   2.942 -0.4621 -0.7120 -0.8929
 1190TIP3    H1 3576   1.667   5.153   2.912 -0.5346 -0.5819 -1.3272
 1190TIP3    H2 3577   1.589   5.275   2.868  2.5599  2.3159  0.7048
 1191TIP3   OH2 3578   2.845   5.669   0.864 -0.2506  0.1995  0.6100
 1191TIP3    H1 3579   2.807   5.666   0.952 -1.0508 -0.9593  0.2428
 1191TIP3    H2 3580   2.772   5.691   0.807 -0.2012 -1.1056  0.0051
 1192TIP3   OH2 3581   2.934   5.302   1.310 -0.1096  0.5117  0.0253
 1192TIP3    H1 3582   2.977   5.382   1.341  1.7107 -0.5410  0.3032
 1192TIP3    H2 3583   2.986   5.275   1.234 -1.4319  0.2173 -0.8119
 1193TIP3   OH2 3584   5.007   4.958   1.295  0.3996 -0.2532  0.4810
 1193TIP3    H1 3585   5.102   4.971   1.297  0.4594 -0.6918  1.5074
 1193TIP3    H2 3586   4.991   4.893   1.363 -0.5545 -0.7910 -0.2277
 1194TIP3   OH2 3587   4.155   5.658   1.677 -0.0858  0.2625  0.1417
 1194TIP3    H1 3588   4.114   5.587   1.627  0.4759  1.2759 -1.8658
 1194TIP3    H2 3589   4.249   5.640   1.672 -0.0147  0.3832  0.8925
 1195TIP3   OH2 3590   6.293   1.700   1.585 -0.3336  0.4304 -0.3141
 1195TIP3    H1 3591   6.227   1.691   1.517  0.7001  0.6242 -1.3742
 1195TIP3    H2 3592   6.339   1.781   1.563 -0.5827  1.0061  1.1635
 1196TIP3   OH2 3593   4.567   3.953   0.194 -0.4148 -0.0296  0.0425
 1196TIP3    H1 3594   4.475   3.945   0.221 -0.3767 -1.5411 -0.1780
 1196TIP3    H2 3595   4.583   3.874   0.141  1.2863 -0.3221  0.9321
 1197TIP3   OH2 3596   6.305   5.563   0.067  0.6447  0.0956  0.6486
 1197TIP3    H1 3597   6.305   5.490   0.006  3.3163  1.2289 -0.8970
 1197TIP3    H2 3598   6.231   5.618   0.041  0.4935 -0.4993 -0.1881
 1198TIP3   OH2 3599   1.197   2.443   4.243  0.1396  0.1252  1.1117
 1198TIP3    H1 3600   1.212   2.431   4.336 -2.2290  2.2445  1.9138
 1198TIP3    H2 3601   1.117   2.496   4.239 -0.1550 -0.3561 -2.1484
 1199TIP3   OH2 3602   2.608   4.818   3.906 -0.4580  0.2411  0.0238
 1199TIP3    H1 3603   2.588   4.737   3.954 -2.4526  0.7829  0.1822
 1199TIP3    H2 3604   2.680   4.794   3.848 -1.3719 -1.8338 -0.3577
 1200TIP3   OH2 3605   2.648   3.411   4.000 -0.8573  0.1955  0.1270
 1200TIP3    H1 3606   2.719   3.378   4.054 -2.9076 -1.1590  2.1768
 1200TIP3    H2 3607   2.636   3.502   4.027 -1.3004 -0.2203  1.3597
 1201TIP3   OH2 3608   3.285   1.119   4.680 -0.1498 -0.1766 -0.0821
 1201TIP3    H1 3609   3.354   1.072   4.727  0.4197  1.3832  0.7542
 1201TIP3    H2 3610   3.265   1.064   4.605  1.2115 -1.2258  0.2711
 1202TIP3   OH2 3611   2.393   0.436   2.953  0.1015  0.5336  0.5821
 1202TIP3    H1 3612   2.379   0.394   2.868 -0.4216 -0.8202  1.3113
 1202TIP3    H2 3613   2.421   0.365   3.011 -1.7356  0.9566  2.0976
 1203TIP3   OH2 3614   0.482   0.721   4.774  0.1729 -0.8012 -0.3699
 1203TIP3    H1 3615   0.431   0.802   4.776 -0.0551 -0.8271 -2.6844
 1203TIP3    H2 3616   0.573   0.751   4.770  0.1679 -0.6928  0.2866
 1204TIP3   OH2 3617   4.687   4.474   0.483  0.6190 -0.6867 -0.1257
 1204TIP3    H1 3618   4.676   4.491   0.390  1.8890  1.6825  0.0844
 1204TIP3    H2 3619   4.599   4.485   0.520  0.4739  0.5678 -0.7798
 1205TIP3   OH2 3620   2.086   3.167   3.271 -0.6838  0.1151  0.4023
 1205TIP3    H1 3621   2.161   3.218   3.240 -1.4743  1.1861  0.1853
 1205TIP3    H2 3622   2.095   3.167   3.367  0.7207 -1.5779  0.3260
 1206TIP3   OH2 3623   4.881   3.145   3.673  0.2238  0.5803  0.5516
 1206TIP3    H1 3624   4.924   3.155   3.588 -0.6795  0.0875  0.0197
 1206TIP3    H2 3625   4.823   3.070   3.661  0.3200  0.3183  1.7054
 1207TIP3   OH2 3626   5.717   2.284   4.433  0.9414 -0.6472  0.1590
 1207TIP3    H1 3627   5.637   2.257   4.387  1.7828 -1.2401 -1.0306
 1207TIP3    H2 3628   5.766   2.202   4.444  1.3779 -0.2923  0.8762
 1208TIP3   OH2 3629   3.772   5.505   1.005  0.4136 -0.1099 -0.0510
 1208TIP3    H1 3630   3.822   5.524   0.925 -0.9860 -0.8151 -1.1313
 1208TIP3    H2 3631   3.735   5.590   1.030  0.6377  0.0661 -0.3027
 1209TIP3   OH2 3632   1.350   5.774   2.354 -0.5269  0.5229 -0.1628
 1209TIP3    H1 3633   1.286   5.761   2.425  0.5882  2.1221  1.2221
 1209TIP3    H2 3634   1.371   5.867   2.358  0.3705  0.4387 -1.9514
 1210TIP3   OH2 3635   4.849   4.920   4.228 -0.0261 -0.3208  0.5240
 1210TIP3    H1 3636   4.915   4.853   4.245  0.1718  0.0979  1.4701
 1210TIP3    H2 3637   4.807   4.934   4.312 -2.8299 -2.1127 -0.4458
 1211TIP3   OH2 3638   5.214   4.417   4.716  0.0304  0.2491  0.3423
 1211TIP3    H1 3639   5.275   4.425   4.789  0.7542 -0.1697 -0.1956
 1211TIP3    H2 3640   5.222   4.501   4.669  1.6457 -0.4868 -0.7957
 1212TIP3   OH2 3641   0.077   5.630   2.534 -0.2478 -0.0220  0.0896
 1212TIP3    H1 3642   0.056   5.721   2.555  1.1292  0.6620 -1.2844
 1212TIP3    H2 3643   0.089   5.629   2.439  4.1173 -0.5700  0.3965
 1213TIP3   OH2 3644   1.115   1.060   4.337  0.1539 -0.3199 -0.2802
 1213TIP3    H1 3645   1.090   0.973   4.305  1.8277 -1.1792  0.5727
 1213TIP3    H2 3646   1.050   1.081   4.404 -0.9208 -0.3789 -1.2716
 1214TIP3   OH2 3647   3.487   0.595   0.442  0.5499  0.8128 -0.3850
 1214TIP3    H1 3648   3.432   0.563   0.371 -2.4377  0.4217  1.8880
 1214TIP3    H2 3649   3.491   0.521   0.504  2.7424  1.2478  0.1035
 1215TIP3   OH2 3650   4.227   3.984   4.726 -0.2261 -0.4096 -0.2313
 1215TIP3    H1 3651   4.165   3.947   4.664 -1.1747 -1.0181  1.0412
 1215TIP3    H2 3652   4.182   3.981   4.810  0.6480  1.2862  0.3482
 1216TIP3   OH2 3653   3.330   3.008   3.388 -0.0637 -0.8617 -0.8693
 1216TIP3    H1 3654   3.324   3.103   3.372  2.5978 -0.1915  1.3428
 1216TIP3    H2 3655   3.407   2.981   3.338  1.1928 -1.0984  1.0888
 1217TIP3   OH2 3656   2.076   0.001   3.988  0.1473 -0.0874 -0.4533
 1217TIP3    H1 3657   2.171   0.006   4.001  0.4403  0.3317 -2.4359
 1217TIP3    H2 3658   2.043   0.085   4.020  0.3603 -0.3932  0.6309
 1218TIP3   OH2 3659   5.823   1.184   2.176 -0.2986 -0.2938  0.4158
 1218TIP3    H1 3660   5.887   1.252   2.153 -1.0866  0.5405  0.6374
 1218TIP3    H2 3661   5.868   1.102   2.157  1.6855  0.1664  2.6451
 1219TIP3   OH2 3662   2.959   4.103   5.103 -0.4887 -0.4781  0.2839
 1219TIP3    H1 3663   3.032   4.143   5.151 -1.2962  0.5598  0.7136
 1219TIP3    H2 3664   2.981   4.116   5.011 -0.7522  1.1107  0.4027
 1220TIP3   OH2 3665   0.374   0.139   4.852  0.2316  0.0181 -0.9557
 1220TIP3    H1 3666   0.340   0.224   4.821 -0.1728 -0.3143 -1.4384
 1220TIP3    H2 3667   0.333   0.075   4.795 -0.5269 -0.6143  0.2577
 1221TIP3   OH2 3668   1.721   4.364   2.533 -0.1337 -0.5439  0.1830
 1221TIP3    H1 3669   1.743   4.349   2.441  1.3444 -0.3838  0.4962
 1221TIP3    H2 3670   1.642   4.311   2.547 -1.5625  0.9502 -1.6754
 1222TIP3   OH2 3671   3.388   5.195   0.988 -0.4431  0.4694  0.2570
 1222TIP3    H1 3672   3.371   5.107   0.954  3.0279  0.4745 -1.9626
 1222TIP3    H2 3673   3.331   5.252   0.936 -0.8289 -0.2468 -0.1207
 1223TIP3   OH2 3674   0.235   4.879   2.195  0.1202  0.0253  0.2939
 1223TIP3    H1 3675   0.221   4.794   2.237 -0.2713  0.1897  0.5061
 1223TIP3    H2 3676   0.269   4.857   2.108 -1.4433 -0.4058 -0.2359
 1224TIP3   OH2 3677   3.104   2.620   0.963 -0.1752  0.6493 -0.3618
 1224TIP3    H1 3678   3.056   2.594   0.885 -0.4560  0.2780 -0.0657
 1224TIP3    H2 3679   3.056   2.581   1.036  1.1460 -0.5986 -0.1195
 1225TIP3   OH2 3680   3.860   4.397   1.285 -0.0385  0.4753 -1.1855
 1225TIP3    H1 3681   3.772   4.383   1.321  0.8864 -1.5626  0.5069
 1225TIP3    H2 3682   3.845   4.432   1.197 -2.5037  1.1455 -0.5701
 1226TIP3   OH2 3683   4.593   5.630   0.057 -0.4962 -0.5969 -0.8139
 1226TIP3    H1 3684   4.532   5.698   0.031 -0.9359 -0.4179  0.6049
 1226TIP3    H2 3685   4.584   5.562  -0.010 -2.3891 -0.6534 -0.5419
 1227TIP3   OH2 3686   0.775   4.363   2.880  0.0515 -0.2631  0.3603
 1227TIP3    H1 3687   0.854   4.314   2.898  0.0742  0.5663  3.0600
 1227TIP3    H2 3688   0.774   4.375   2.785  2.7287 -0.9632  0.1723
 1228TIP3   OH2 3689   2.075   5.477   3.519 -0.0824  0.5877 -0.1104
 1228TIP3    H1 3690   2.119   5.397   3.548 -0.1272  0.2856 -0.8574
 1228TIP3    H2 3691   2.117   5.547   3.570  0.4683  0.1733  0.0128
 1229TIP3   OH2 3692   3.254   2.832   1.459 -0.4438  0.3802  0.1113
 1229TIP3    H1 3693   3.287   2.881   1.385 -0.4990  1.9651  1.0877
 1229TIP3    H2 3694   3.330   2.820   1.516 -0.9136  1.5754  1.0433
 1230TIP3   OH2 3695   1.156   3.194   0.130 -0.0477 -0.2604 -0.5854
 1230TIP3    H1 3696   1.070   3.200   0.172  0.5343  0.9826  0.4800
 1230TIP3    H2 3697   1.186   3.105   0.150  0.2543  0.3231  1.7726
 1231TIP3   OH2 3698   2.986   2.064   4.994  0.3425 -0.0081 -0.1713
 1231TIP3    H1 3699   3.030   2.144   5.025 -0.5287  1.0361 -1.5039
 1231TIP3    H2 3700   2.909   2.056   5.049  0.9468 -0.5187  0.6238
 1232TIP3   OH2 3701   0.998   3.193   0.353 -0.2229 -0.0679  0.6173
 1232TIP3    H1 3702   1.059   3.216   0.422  0.4000 -2.2816  0.8992
 1232TIP3    H2 3703   0.939   3.129   0.393  0.1282 -1.3681 -0.8228
 1233TIP3   OH2 3704   4.989   2.191   4.439 -0.7159  0.0284 -0.4231
 1233TIP3    H1 3705   4.927   2.152   4.501  1.7381 -0.7177  1.7155
 1233TIP3    H2 3706   4.999   2.124   4.370 -0.3177 -0.9900  0.5997
 1234TIP3   OH2 3707   3.909   1.350   5.145  0.4187 -0.3703 -0.3749
 1234TIP3    H1 3708   3.941   1.354   5.235  0.9494 -2.5944 -0.3916
 1234TIP3    H2 3709   3.820   1.316   5.153 -0.1226  0.9530 -0.6218
 1235TIP3   OH2 3710   2.378   2.215   3.885  0.2962  0.1853  0.4977
 1235TIP3    H1 3711   2.469   2.224   3.855  0.0948 -0.9526 -0.5093
 1235TIP3    H2 3712   2.386   2.181   3.974  0.8812 -1.4658 -0.1424
 1236TIP3   OH2 3713   2.621   0.841   4.887 -0.5823 -0.2244  0.2537
 1236TIP3    H1 3714   2.681   0.915   4.881  0.8917 -1.4801 -2.4522
 1236TIP3    H2 3715   2.659   0.783   4.953 -0.3654  0.2626  0.5591
 1237TIP3   OH2 3716   1.420   2.168   3.717  0.0201 -0.2490  0.1204
 1237TIP3    H1 3717   1.368   2.152   3.795  0.7918 -1.6870  0.3614
 1237TIP3    H2 3718   1.402   2.094   3.660 -0.1317  0.5235 -0.8723
 1238TIP3   OH2 3719   2.530   0.815   4.379 -0.2167 -0.0374  0.1801
 1238TIP3    H1 3720   2.470   0.741   4.384  1.4046 -1.4102  0.2271
 1238TIP3    H2 3721   2.557   0.831   4.470  0.0588  0.0845  0.0793
 1239TIP3   OH2 3722   0.149   2.811   2.408 -0.3675  0.0553 -0.0579
 1239TIP3    H1 3723   0.188   2.895   2.430  0.8004 -0.8671  1.6750
 1239TIP3    H2 3724   0.190   2.787   2.325  2.6275 -0.6733  1.4787
 1240TIP3   OH2 3725   0.300   3.645   0.036 -0.4507  0.0909 -0.2741
 1240TIP3    H1 3726   0.274   3.701  -0.037  0.4450  0.8976  0.0009
 1240TIP3    H2 3727   0.223   3.593   0.056 -1.3152  1.2303 -0.5478
 1241TIP3   OH2 3728   5.115   4.024   0.480  0.1212  0.6885  0.0274
 1241TIP3    H1 3729   5.180   4.095   0.483 -0.8187  1.5639  0.0974
 1241TIP3    H2 3730   5.040   4.061   0.434 -0.0549 -0.5606 -0.7341
 1242TIP3   OH2 3731   0.793   2.940   2.142 -0.2000  0.1901  0.6895
 1242TIP3    H1 3732   0.882   2.960   2.113  0.3937 -2.0140  0.8444
 1242TIP3    H2 3733   0.741   2.942   2.061  0.3698 -0.4101  0.3012
 1243TIP3   OH2 3734   2.262   5.036   1.235 -0.0740  0.0781 -0.0338
 1243TIP3    H1 3735   2.239   4.973   1.167  0.8986  1.3392 -1.5965
 1243TIP3    H2 3736   2.354   5.016   1.255 -0.2666 -0.0936  0.7362
 1244TIP3   OH2 3737   5.636   2.798   2.538  0.3195 -0.4210 -0.3679
 1244TIP3    H1 3738   5.712   2.746   2.566  0.2249  0.2361  1.2113
 1244TIP3    H2 3739   5.565   2.735   2.532  0.6277 -0.7811 -0.3281
 1245TIP3   OH2 3740   4.299   2.479   3.496  0.0662  0.5068  0.6071
 1245TIP3    H1 3741   4.264   2.391   3.514  0.2218  0.3473  0.1376
 1245TIP3    H2 3742   4.356   2.467   3.420  0.8136  0.8473  1.1085
 1246TIP3   OH2 3743   1.491   0.817   3.400 -0.0981  1.1285 -0.2235
 1246TIP3    H1 3744   1.514   0.910   3.404 -0.8519  1.3228 -0.3354
 1246TIP3    H2 3745   1.572   0.774   3.372  0.7682  1.5327  1.5440
 1247TIP3   OH2 3746   1.000   1.433   4.336  0.0809  0.1948  0.4338
 1247TIP3    H1 3747   1.035   1.376   4.267 -0.1744  2.0626 -1.3194
 1247TIP3    H2 3748   1.069   1.434   4.402  1.6009  0.5058 -1.0699
 1248TIP3   OH2 3749   6.114   0.566   3.463  0.0828 -0.2201  0.3924
 1248TIP3    H1 3750   6.190   0.549   3.519 -1.0065  0.6651  2.2390
 1248TIP3    H2 3751   6.074   0.480   3.450  0.6065 -0.4960  0.5689
 1249TIP3   OH2 3752   4.896   1.609   4.033 -0.3628  0.0274 -0.2177
 1249TIP3    H1 3753   4.912   1.596   3.939  0.4783 -0.4635 -0.0140
 1249TIP3    H2 3754   4.825   1.674   4.036  0.0117  0.5104 -1.1888
 1250TIP3   OH2 3755   0.494   4.110   4.899 -0.0647  0.3159 -0.3478
 1250TIP3    H1 3756   0.436   4.104   4.824 -0.3484 -0.6177 -0.0630
 1250TIP3    H2 3757   0.546   4.030   4.896 -0.3624  0.0685  0.6821
 1251TIP3   OH2 3758   2.728   1.415   1.511 -0.1873  0.0540  0.2585
 1251TIP3    H1 3759   2.642   1.423   1.553 -1.0417 -0.5604 -1.3042
 1251TIP3    H2 3760   2.712   1.361   1.434  1.4743  0.5459 -0.4699
 1252TIP3   OH2 3761   3.012   0.369   4.370  0.0988  0.1989 -0.0007
 1252TIP3    H1 3762   2.966   0.329   4.443 -0.6044  2.4482  0.8938
 1252TIP3    H2 3763   3.045   0.296   4.319  0.4532 -1.4591  2.4457
 1253TIP3   OH2 3764   1.077   4.950   1.948  0.3185 -0.4072 -0.2348
 1253TIP3    H1 3765   0.986   4.975   1.964 -0.0023  0.3216 -2.6611
 1253TIP3    H2 3766   1.121   5.033   1.925  0.8645 -1.0994 -1.8634
 1254TIP3   OH2 3767   2.140   3.664   3.139 -0.4306  0.0164 -0.1830
 1254TIP3    H1 3768   2.121   3.608   3.214  0.1871  1.0175  0.7544
 1254TIP3    H2 3769   2.209   3.722   3.169 -0.0548  0.3431 -1.5937
 1255TIP3   OH2 3770   1.815   4.424   0.502  0.9169  0.3029 -0.6349
 1255TIP3    H1 3771   1.868   4.466   0.569 -0.6978  1.7560 -0.1910
 1255TIP3    H2 3772   1.824   4.481   0.425  0.4571  0.2595 -0.7245
 1256TIP3   OH2 3773   2.963   1.162   4.693 -0.3677  0.6196 -0.5642
 1256TIP3    H1 3774   3.053   1.130   4.692 -0.4771  0.1853  0.9210
 1256TIP3    H2 3775   2.971   1.256   4.709 -0.1716  0.7194 -1.2028
 1257TIP3   OH2 3776   3.021   2.192   2.428  0.5540  0.8591 -0.5284
 1257TIP3    H1 3777   3.097   2.200   2.371  0.6109 -1.8510 -0.9353
 1257TIP3    H2 3778   3.037   2.113   2.479 -0.7738  1.7062  1.3305
 1258TIP3   OH2 3779   3.994   3.589   3.000  0.0878 -0.1139  0.3791
 1258TIP3    H1 3780   3.997   3.594   2.905 -0.1652 -1.4609  0.2756
 1258TIP3    H2 3781   4.085   3.601   3.028  0.1533  0.3396 -0.0239
 1259TIP3   OH2 3782   1.939   2.916   1.201  0.4403 -0.0077  0.1306
 1259TIP3    H1 3783   1.897   2.999   1.180 -1.0959 -0.4567  1.3145
 1259TIP3    H2 3784   1.939   2.868   1.118 -1.1116  0.1315  0.0254
 1260TIP3   OH2 3785   1.694   2.073   0.125 -0.1102 -0.3293  0.1450
 1260TIP3    H1 3786   1.775   2.025   0.143 -0.9292 -1.9456 -0.2928
 1260TIP3    H2 3787   1.629   2.034   0.184 -0.5403  1.1516  0.7131
 1261TIP3   OH2 3788   2.965   0.397   1.362  0.2294 -0.5420 -0.2837
 1261TIP3    H1 3789   2.874   0.379   1.384 -0.5515  0.5392 -2.3189
 1261TIP3    H2 3790   3.005   0.311   1.351 -1.0232 -1.0475 -1.0544
 1262TIP3   OH2 3791   1.671   0.069   0.150  0.0412 -1.0858  0.6261
 1262TIP3    H1 3792   1.714   0.088   0.234  1.7059 -1.3585 -0.1444
 1262TIP3    H2 3793   1.736   0.021   0.099 -1.2438 -1.6643 -0.5310
 1263TIP3   OH2 3794   5.929   1.099   4.482  0.1656 -0.3094  0.2402
 1263TIP3    H1 3795   5.900   1.046   4.407 -1.4434  0.8293  0.0116
 1263TIP3    H2 3796   5.849   1.121   4.528  0.4890  3.3167 -0.6231
 1264TIP3   OH2 3797   5.612   4.493   1.314  0.0769  0.2295  0.8241
 1264TIP3    H1 3798   5.555   4.527   1.245 -0.0990 -0.8699  0.4025
 1264TIP3    H2 3799   5.623   4.401   1.292 -0.8785 -0.4386  2.8616
 1265TIP3   OH2 3800   5.956   3.671   1.902  0.4874  0.1156  0.0900
 1265TIP3    H1 3801   5.903   3.621   1.963  0.1905 -0.2484 -0.4616
 1265TIP3    H2 3802   5.958   3.760   1.939 -0.1409  0.0268  0.3454
 1266TIP3   OH2 3803   0.573   5.423   3.256 -0.0837 -0.5326  0.1210
 1266TIP3    H1 3804   0.639   5.492   3.266  0.4102 -0.8096 -1.0706
 1266TIP3    H2 3805   0.605   5.369   3.184 -1.1762 -1.2003  0.1062
 1267TIP3   OH2 3806   0.611   1.489   0.597  0.4978 -0.3280  0.0531
 1267TIP3    H1 3807   0.689   1.451   0.557  0.8751 -0.5724  0.9959
 1267TIP3    H2 3808   0.611   1.455   0.687 -0.3997  0.0972  0.2253
 1268TIP3   OH2 3809   5.121   2.746   2.504  0.0235  0.3447  0.0262
 1268TIP3    H1 3810   5.044   2.765   2.557  0.7460  3.5493  0.1231
 1268TIP3    H2 3811   5.100   2.781   2.418  1.4939  1.6355  0.1651
 1269TIP3   OH2 3812   2.838   4.426   5.179  0.5291 -0.7386 -0.2150
 1269TIP3    H1 3813   2.923   4.426   5.134  0.2831  2.8059 -0.9989
 1269TIP3    H2 3814   2.775   4.447   5.110 -0.3904  0.7058  0.9872
 1270TIP3   OH2 3815   1.133   2.657   3.971 -0.1360  0.2779 -0.0657
 1270TIP3    H1 3816   1.049   2.634   4.009 -0.5341 -0.9754 -1.6159
 1270TIP3    H2 3817   1.113   2.727   3.909 -0.3353 -1.0817 -1.5897
 1271TIP3   OH2 3818   2.439   2.305   1.255 -0.5825 -0.0509  0.0685
 1271TIP3    H1 3819   2.520   2.257   1.273 -0.5878 -0.7164 -1.5505
 1271TIP3    H2 3820   2.441   2.378   1.317  1.5012  0.2566 -0.2831
 1272TIP3   OH2 3821   2.454   3.052   2.276 -0.2479  0.0141  0.2009
 1272TIP3    H1 3822   2.503   3.020   2.200 -0.9040 -0.7339  0.0861
 1272TIP3    H2 3823   2.394   3.118   2.240 -0.0069  0.2308  0.1938
 1273TIP3   OH2 3824   5.622   4.804   2.034  0.1414 -0.5601 -0.5942
 1273TIP3    H1 3825   5.655   4.746   1.965  0.4324  0.1695 -1.0761
 1273TIP3    H2 3826   5.680   4.787   2.108  0.7253 -0.3103 -0.9874
 1274TIP3   OH2 3827   3.858   5.938   4.103 -0.5358  0.2908 -0.0077
 1274TIP3    H1 3828   3.904   5.930   4.020  0.6184 -2.1154  0.7580
 1274TIP3    H2 3829   3.769   5.907   4.085 -0.2733 -0.2706 -0.3313
 1275TIP3   OH2 3830   0.568   2.453   4.358 -0.2841 -0.1383 -0.2336
 1275TIP3    H1 3831   0.581   2.476   4.266  0.0713  0.1872 -0.1052
 1275TIP3    H2 3832   0.500   2.514   4.388  1.6152  1.7727  0.4724
 1276TIP3   OH2 3833   0.180   3.536   3.087  0.2780  0.5277  0.3188
 1276TIP3    H1 3834   0.203   3.566   3.175  1.3071 -1.9541  0.9687
 1276TIP3    H2 3835   0.255   3.563   3.033  0.0219  1.3284  0.3477
 1277TIP3   OH2 3836   6.094   5.618   3.384 -0.4348 -0.1515  0.1113
 1277TIP3    H1 3837   6.056   5.615   3.296 -1.5174  0.9730  0.5224
 1277TIP3    H2 3838   6.059   5.539   3.427 -1.8571  0.5436  0.2851
 1278TIP3   OH2 3839   3.002   4.193   4.831  0.3715  0.7587 -0.4227
 1278TIP3    H1 3840   2.946   4.264   4.860 -0.5587  0.7189 -2.0398
 1278TIP3    H2 3841   3.088   4.234   4.818 -0.1191  1.5771 -1.2043
 1279TIP3   OH2 3842   1.894   1.571   4.846  0.2511 -0.1001 -0.2114
 1279TIP3    H1 3843   1.967   1.509   4.841 -0.7312 -1.3925  0.7792
 1279TIP3    H2 3844   1.830   1.538   4.783  0.5555  1.0975 -1.1692
 1280TIP3   OH2 3845   0.301   3.202   3.237 -0.3168  0.2522  0.6547
 1280TIP3    H1 3846   0.278   3.215   3.145  3.0576  0.4628 -0.3030
 1280TIP3    H2 3847   0.315   3.108   3.246  1.6436  0.4603  0.2386
 1281TIP3   OH2 3848   3.744   5.354   0.407 -0.3664 -0.4970  0.4063
 1281TIP3    H1 3849   3.756   5.446   0.431  2.5432 -0.2852 -1.4270
 1281TIP3    H2 3850   3.666   5.354   0.350 -0.5037  0.7820  0.5680
 1282TIP3   OH2 3851   3.603   5.435   1.725 -0.2444  0.8993 -0.1587
 1282TIP3    H1 3852   3.611   5.528   1.700  0.5964  0.8217 -0.1939
 1282TIP3    H2 3853   3.565   5.437   1.813 -2.4926  1.2042 -1.0476
 1283TIP3   OH2 3854   1.324   5.756   4.032 -0.0299 -0.0157 -0.2884
 1283TIP3    H1 3855   1.254   5.702   3.996  0.4796 -0.1555 -1.1098
 1283TIP3    H2 3856   1.399   5.697   4.038  0.4737  0.5214 -0.9937
 1284TIP3   OH2 3857   2.064   4.625   2.651 -0.6883  0.0982  0.2158
 1284TIP3    H1 3858   1.989   4.619   2.592  0.2476  0.4029 -1.0449
 1284TIP3    H2 3859   2.040   4.695   2.713 -0.4890  1.9451 -1.6707
 1285TIP3   OH2 3860   0.393   1.205   0.194 -0.1787  0.3632 -0.6991
 1285TIP3    H1 3861   0.420   1.205   0.286 -0.3823  0.6265 -0.6382
 1285TIP3    H2 3862   0.475   1.215   0.145  0.1430 -1.4435 -0.6248
 1286TIP3   OH2 3863   5.399   4.750   4.045 -0.2867  0.1187 -0.2525
 1286TIP3    H1 3864   5.494   4.757   4.050 -0.3242  0.5759 -0.1275
 1286TIP3    H2 3865   5.368   4.784   4.129 -0.5604 -0.1050 -0.2595
 1287TIP3   OH2 3866   1.003   5.010   2.973  0.2860  0.3712  0.1864
 1287TIP3    H1 3867   1.020   5.098   2.938 -0.1375  0.5085  0.3173
 1287TIP3    H2 3868   1.086   4.965   2.965  1.1999  1.5326  2.3335
 1288TIP3   OH2 3869   4.366   1.071   3.637  0.1704  0.1193 -0.1236
 1288TIP3    H1 3870   4.338   1.058   3.728 -0.3728  0.4767 -0.2365
 1288TIP3    H2 3871   4.455   1.035   3.634  0.6605  1.2000  0.8501
 1289TIP3   OH2 3872   1.798   5.553   5.050 -0.0218  0.3217 -0.7119
 1289TIP3    H1 3873   1.869   5.503   5.009  2.2957  1.8383  1.1599
 1289TIP3    H2 3874   1.810   5.540   5.144 -1.2514  1.8793 -0.2895
 1290TIP3   OH2 3875   3.163   0.922   1.538 -0.5842  0.5626  0.1447
 1290TIP3    H1 3876   3.200   0.891   1.620 -0.9348 -0.2132  0.0135
 1290TIP3    H2 3877   3.142   0.842   1.489 -0.6740  1.0099 -0.5667
 1291TIP3   OH2 3878   2.433   0.197   0.462  0.3802 -0.1799 -0.7090
 1291TIP3    H1 3879   2.356   0.254   0.474  1.6903  1.5413 -0.0510
 1291TIP3    H2 3880   2.408   0.139   0.390 -2.0124 -0.5574  0.3044
 1292TIP3   OH2 3881   4.475   3.337   4.548  0.0977 -0.5603  0.3266
 1292TIP3    H1 3882   4.529   3.388   4.609 -0.7427 -0.5696  1.1101
 1292TIP3    H2 3883   4.505   3.247   4.560 -0.5273 -0.6607  1.2671
 1293TIP3   OH2 3884   0.932   1.825   1.104  0.1151  0.0209  0.1759
 1293TIP3    H1 3885   0.981   1.878   1.166  0.7804  0.7461 -0.9418
 1293TIP3    H2 3886   0.900   1.751   1.156  4.2384 -1.7464  0.5921
 1294TIP3   OH2 3887   1.435   1.056   4.577  0.4433 -0.1193 -0.0150
 1294TIP3    H1 3888   1.376   0.989   4.610  2.3033 -1.9185 -0.1996
 1294TIP3    H2 3889   1.429   1.048   4.481 -0.1597  0.7759 -0.0680
 1295TIP3   OH2 3890   2.427   0.237   3.647  0.1855  0.1952  0.6443
 1295TIP3    H1 3891   2.444   0.174   3.717  1.3288  0.6634  0.8114
 1295TIP3    H2 3892   2.514   0.267   3.621 -0.2533  0.4128 -0.6305
 1296TIP3   OH2 3893   6.242   0.840   3.633 -0.2638 -0.4839 -0.6449
 1296TIP3    H1 3894   6.147   0.832   3.625 -0.3497 -0.8177  0.5937
 1296TIP3    H2 3895   6.275   0.751   3.618 -0.1660 -0.4255 -0.7787
 1297TIP3   OH2 3896   3.955   3.668   0.745 -0.2586  0.1670 -0.3133
 1297TIP3    H1 3897   4.007   3.748   0.756 -1.7606  1.1045  0.1409
 1297TIP3    H2 3898   4.010   3.613   0.689  1.6994  0.6721  0.9738
 1298TIP3   OH2 3899   0.124   4.572   2.146  0.1316  0.3839  0.0458
 1298TIP3    H1 3900   0.150   4.514   2.218 -1.8703 -0.4475  0.1497
 1298TIP3    H2 3901   0.156   4.528   2.067 -1.8925 -1.2713  0.0662
 1299TIP3   OH2 3902   6.312   1.315   0.954 -0.1118  0.2201 -0.6587
 1299TIP3    H1 3903   6.398   1.306   0.913 -0.1272  0.4858 -0.7509
 1299TIP3    H2 3904   6.257   1.354   0.885  0.1652  1.8271 -0.0114
 1300TIP3   OH2 3905   0.629   5.110   4.993  0.1114  0.0296 -0.2607
 1300TIP3    H1 3906   0.615   5.118   4.899  2.1049  0.4883 -0.5685
 1300TIP3    H2 3907   0.717   5.147   5.007 -0.0304 -0.2960  1.7326
 1301TIP3   OH2 3908   2.876   3.965   4.713 -0.0669  0.2167 -0.4499
 1301TIP3    H1 3909   2.898   4.055   4.734  0.0801  0.2507 -0.7477
 1301TIP3    H2 3910   2.960   3.924   4.690 -0.0666 -0.1093  0.0895
 1302TIP3   OH2 3911   4.914   4.459   4.971  0.0922 -0.3716  0.0773
 1302TIP3    H1 3912   4.892   4.437   4.881  1.5218  0.0143 -0.4032
 1302TIP3    H2 3913   4.838   4.431   5.023 -1.4631  0.8861 -1.4124
 1303TIP3   OH2 3914   4.044   3.186   1.680  0.1774  0.1039 -0.0010
 1303TIP3    H1 3915   4.084   3.099   1.683  3.6227  1.5059  3.1704
 1303TIP3    H2 3916   4.099   3.236   1.620 -1.9054  0.1909 -1.9736
 1304TIP3   OH2 3917   0.650   5.136   3.854 -0.2823  0.9520 -0.9121
 1304TIP3    H1 3918   0.711   5.206   3.876  0.1472 -0.0320  1.2858
 1304TIP3    H2 3919   0.704   5.057   3.852 -1.3936  0.0622  1.0627
 1305TIP3   OH2 3920   0.699   0.797   0.497  0.9146 -0.0645  0.3811
 1305TIP3    H1 3921   0.762   0.868   0.488  0.2080  0.3718 -1.7264
 1305TIP3    H2 3922   0.739   0.737   0.560  1.7223  1.9505  1.8644
 1306TIP3   OH2 3923   1.178   2.562   0.803 -0.5499  0.4003  0.5811
 1306TIP3    H1 3924   1.197   2.640   0.856 -1.3092  0.4604  0.7826
 1306TIP3    H2 3925   1.178   2.490   0.866  1.8726 -0.0597  0.1432
 1307TIP3   OH2 3926   6.216   3.835   0.686  0.0871  0.4140 -0.1296
 1307TIP3    H1 3927   6.297   3.834   0.738  0.1644  0.5260 -0.2479
 1307TIP3    H2 3928   6.238   3.885   0.608 -0.1717  0.6800 -0.0378
 1308TIP3   OH2 3929   4.361   5.169   5.029  0.3982  0.0877  0.3034
 1308TIP3    H1 3930   4.392   5.132   5.112 -3.4813  1.6409  2.6829
 1308TIP3    H2 3931   4.403   5.255   5.023  0.6834 -0.0287  0.6158
 1309TIP3   OH2 3932   3.194   0.719   1.906  0.4856 -0.3129  0.6951
 1309TIP3    H1 3933   3.155   0.716   1.993 -1.4812  0.6036 -0.1044
 1309TIP3    H2 3934   3.122   0.741   1.848  1.8923 -0.2075 -1.0941
 1310TIP3   OH2 3935   2.678   1.897   3.020 -0.0580  0.2218  0.5319
 1310TIP3    H1 3936   2.652   1.836   3.089 -0.2853  1.3655  1.4910
 1310TIP3    H2 3937   2.629   1.977   3.039  0.3697  0.7665 -0.5854
 1311TIP3   OH2 3938   3.458   4.751   0.168  0.2009  0.6474 -0.4957
 1311TIP3    H1 3939   3.377   4.763   0.219 -0.2457  2.1552 -1.5181
 1311TIP3    H2 3940   3.428   4.732   0.079  0.9859 -0.4753 -0.5409
 1312TIP3   OH2 3941   0.884   5.473   1.746  0.1312  0.0790  0.2430
 1312TIP3    H1 3942   0.856   5.557   1.784 -0.5490  1.5465 -3.1163
 1312TIP3    H2 3943   0.980   5.479   1.743  0.2232 -0.1547  1.7150
 1313TIP3   OH2 3944   6.284   5.267   3.222 -0.3087  0.0650 -0.6363
 1313TIP3    H1 3945   6.246   5.188   3.183 -2.1865 -0.1831  1.4939
 1313TIP3    H2 3946   6.286   5.249   3.316  1.5497  1.6429 -0.3102
 1314TIP3   OH2 3947   2.481   3.053   4.203  0.5272 -0.2676  0.4281
 1314TIP3    H1 3948   2.423   3.001   4.148 -1.4662  1.7743  0.4414
 1314TIP3    H2 3949   2.565   3.052   4.158 -0.8155  0.6804 -2.3385
 1315TIP3   OH2 3950   4.737   1.890   0.897  0.2825  1.0871 -0.3303
 1315TIP3    H1 3951   4.736   1.975   0.941  0.2934 -0.1627  2.2319
 1315TIP3    H2 3952   4.779   1.908   0.812  0.5218  3.5514  0.2216
 1316TIP3   OH2 3953   3.889   5.425   1.249  0.0047  0.0711 -0.1746
 1316TIP3    H1 3954   3.857   5.456   1.165  1.1420  0.0476 -0.6399
 1316TIP3    H2 3955   3.818   5.371   1.284 -1.2172  1.5518 -0.2550
 1317TIP3   OH2 3956   0.110   4.538   3.486  0.3490 -0.7066 -0.2866
 1317TIP3    H1 3957   0.042   4.491   3.536  1.0198 -0.7423  0.6178
 1317TIP3    H2 3958   0.176   4.471   3.468  1.4481 -0.0796  1.2552
 1318TIP3   OH2 3959   3.495   3.344   2.373  0.1814 -0.1852  0.2017
 1318TIP3    H1 3960   3.534   3.325   2.287 -0.5005  0.0613 -0.1683
 1318TIP3    H2 3961   3.515   3.267   2.425  2.2006  0.3996  0.4130
 1319TIP3   OH2 3962   0.200   2.545   0.046 -0.0980 -0.0555  0.0627
 1319TIP3    H1 3963   0.153   2.628   0.041 -0.6816 -0.4603 -3.3939
 1319TIP3    H2 3964   0.135   2.479   0.023  1.0075 -1.1609 -0.0055
 1320TIP3   OH2 3965   4.617   2.003   1.515 -0.2007 -0.0754  0.4103
 1320TIP3    H1 3966   4.670   1.945   1.569  0.5933 -0.1734 -0.4501
 1320TIP3    H2 3967   4.581   2.067   1.577  1.2086  0.2010  0.9812
 1321TIP3   OH2 3968   0.580   0.886   0.245  0.3890  0.7693  0.4420
 1321TIP3    H1 3969   0.493   0.846   0.252  0.1985  1.2585  0.9407
 1321TIP3    H2 3970   0.638   0.825   0.290  0.6737 -0.5689 -1.5775
 1322TIP3   OH2 3971   1.363   1.042   0.384  0.0950  0.1322  0.0488
 1322TIP3    H1 3972   1.296   0.985   0.421 -0.2743  1.2226  1.1204
 1322TIP3    H2 3973   1.445   1.013   0.423  0.0300 -0.1828 -0.0455
 1323TIP3   OH2 3974   5.699   3.653   0.979 -0.1834 -0.0019 -0.9619
 1323TIP3    H1 3975   5.657   3.734   1.007  0.4465 -0.0115  0.0721
 1323TIP3    H2 3976   5.767   3.682   0.917  0.0270  0.2622 -0.6131
 1324TIP3   OH2 3977   1.546   3.280   1.087 -0.4303  0.1588 -0.2277
 1324TIP3    H1 3978   1.544   3.318   1.000 -0.0485  0.8462  0.0574
 1324TIP3    H2 3979   1.507   3.347   1.144  0.1486  0.0826  0.2689
 1325TIP3   OH2 3980   6.340   4.559   0.929 -0.7957 -0.4605 -0.2424
 1325TIP3    H1 3981   6.409   4.607   0.884 -1.2513  0.9068  0.4721
 1325TIP3    H2 3982   6.259   4.606   0.908 -1.2042 -0.6666  0.7713
 1326TIP3   OH2 3983   5.272   5.974   0.349  0.1580 -0.0242  0.4819
 1326TIP3    H1 3984   5.256   5.892   0.303 -1.7231  0.4141  0.2985
 1326TIP3    H2 3985   5.356   5.960   0.395  0.4197 -1.6179 -0.4325
 1327TIP3   OH2 3986   2.389   3.881   4.380 -0.5144 -0.2136  0.5379
 1327TIP3    H1 3987   2.472   3.903   4.337 -1.6915 -1.8733 -2.9579
 1327TIP3    H2 3988   2.414   3.825   4.453  1.5853  2.2837  1.9102
 1328TIP3   OH2 3989   1.235   4.014   0.013 -0.4957  1.1228  0.1131
 1328TIP3    H1 3990   1.167   4.074   0.044 -0.4460  0.4919  1.5499
 1328TIP3    H2 3991   1.195   3.927   0.020  0.0406  0.8472 -0.1778
 1329TIP3   OH2 3992   3.074   5.378   5.062 -0.1120 -0.1180 -0.0975
 1329TIP3    H1 3993   3.125   5.441   5.113 -0.1107  1.6118 -2.0869
 1329TIP3    H2 3994   3.046   5.313   5.126  1.5556  0.8183  1.7136
 1330TIP3   OH2 3995   2.844   5.612   1.933  0.0911  0.3196  0.6318
 1330TIP3    H1 3996   2.936   5.605   1.907 -0.0480  1.1815 -0.1535
 1330TIP3    H2 3997   2.847   5.651   2.021  0.4656  1.6535  0.0600
 1331TIP3   OH2 3998   3.235   3.631   1.133 -0.2603 -0.0107 -0.2009
 1331TIP3    H1 3999   3.286   3.550   1.124 -0.4492 -0.1282 -0.2198
 1331TIP3    H2 4000   3.297   3.695   1.168 -0.8020 -0.9447  2.7773
 1332TIP3   OH2 4001   2.966   5.117   4.346 -0.0738 -0.1032 -0.4160
 1332TIP3    H1 4002   2.883   5.150   4.380  1.0264  2.9484 -0.3669
 1332TIP3    H2 4003   2.956   5.120   4.251 -0.1092  0.0373 -0.4078
 1333TIP3   OH2 4004   0.729   2.453   0.192 -0.1519  0.2391 -0.0373
 1333TIP3    H1 4005   0.723   2.482   0.283  1.3358  1.2827 -0.2267
 1333TIP3    H2 4006   0.823   2.447   0.175 -0.4115 -0.5832 -1.3169
 1334TIP3   OH2 4007   4.914   4.762   2.652 -0.5500  0.0118 -0.0208
 1334TIP3    H1 4008   4.916   4.858   2.657 -1.1565 -0.0011  0.6445
 1334TIP3    H2 4009   4.846   4.737   2.715  0.1582 -0.9028  0.3884
 1335TIP3   OH2 4010   0.711   4.775   3.598  0.0496 -0.7099  0.0774
 1335TIP3    H1 4011   0.663   4.783   3.680  0.3287 -0.1993  0.1966
 1335TIP3    H2 4012   0.694   4.686   3.569  0.4449 -1.1077  1.0078
 1336TIP3   OH2 4013   3.061   2.850   0.715  0.2727 -0.1353  0.4853
 1336TIP3    H1 4014   3.034   2.765   0.750  0.4518  0.6051  2.5120
 1336TIP3    H2 4015   2.992   2.910   0.741  0.8141  0.5967  0.2625
 1337TIP3   OH2 4016   5.182   4.912   4.158  0.2530 -0.0973  0.1644
 1337TIP3    H1 4017   5.148   4.839   4.208 -0.1629  0.7142  1.1080
 1337TIP3    H2 4018   5.151   4.896   4.068  1.9550 -2.1473 -0.1264
 1338TIP3   OH2 4019   3.469   5.405   2.900 -0.0603 -0.0620 -0.2462
 1338TIP3    H1 4020   3.472   5.428   2.807  1.4535  0.7571 -0.0262
 1338TIP3    H2 4021   3.560   5.414   2.930  0.0685 -3.1295  0.6461
 1339TIP3   OH2 4022   6.071   1.045   2.206 -0.1633 -0.0223 -0.5466
 1339TIP3    H1 4023   6.124   0.994   2.267  1.8804  1.1192 -1.2881
 1339TIP3    H2 4024   6.047   0.982   2.137 -0.2317 -0.6682  0.0543
 1340TIP3   OH2 4025   5.839   0.116   4.867  0.0923 -0.3235 -0.3389
 1340TIP3    H1 4026   5.857   0.096   4.775  1.8546 -0.9231  0.0920
 1340TIP3    H2 4027   5.868   0.206   4.878  1.0550 -0.6523 -0.1011
 1341TIP3   OH2 4028   5.398   4.398   4.055 -0.6632  0.3259  0.0919
 1341TIP3    H1 4029   5.459   4.472   4.066 -1.1867  0.7584  0.1153
 1341TIP3    H2 4030   5.452   4.329   4.017  0.3195  0.0489  1.8731
 1342TIP3   OH2 4031   5.428   1.847   3.484  0.4101 -0.3812  0.4121
 1342TIP3    H1 4032   5.522   1.865   3.490  0.0115  2.6735 -0.8063
 1342TIP3    H2 4033   5.395   1.863   3.572  0.8648 -0.4763  0.6063
 1343TIP3   OH2 4034   3.513   0.582   5.077 -0.2600 -0.0974  0.5214
 1343TIP3    H1 4035   3.541   0.502   5.119 -0.6143 -0.2385  0.4968
 1343TIP3    H2 4036   3.578   0.598   5.009 -0.6245 -0.8020 -0.0064
 1344TIP3   OH2 4037   6.012   5.090   2.461 -0.4031 -0.0439 -0.0001
 1344TIP3    H1 4038   6.033   5.143   2.384  0.0760  0.4862  0.4881
 1344TIP3    H2 4039   5.954   5.022   2.428  1.0134 -0.7467 -1.1443
 1345TIP3   OH2 4040   3.837   0.696   0.951  0.0269  0.2060 -0.5051
 1345TIP3    H1 4041   3.909   0.713   1.012  0.6753  0.7902 -1.4133
 1345TIP3    H2 4042   3.860   0.612   0.910 -1.1341 -0.9357  1.0484
 1346TIP3   OH2 4043   1.398   4.084   3.410  0.5636 -0.3047  0.2318
 1346TIP3    H1 4044   1.324   4.087   3.471 -0.9431  2.1337 -1.5542
 1346TIP3    H2 4045   1.472   4.119   3.460 -0.5784  1.4255  0.7979
 1347TIP3   OH2 4046   1.428   5.913   4.759  0.0211  0.0449  0.4682
 1347TIP3    H1 4047   1.361   5.858   4.716 -0.3522  0.7787  0.0960
 1347TIP3    H2 4048   1.479   5.851   4.811  1.1781 -1.0720 -1.8451
 1348TIP3   OH2 4049   2.566   2.131   4.393  0.1782  0.1913 -0.0370
 1348TIP3    H1 4050   2.661   2.128   4.387  0.1285 -1.4453 -0.2756
 1348TIP3    H2 4051   2.548   2.159   4.483  0.8962 -1.1158  0.5285
 1349TIP3   OH2 4052   3.067   2.876   4.736 -0.4783 -0.0782 -0.0293
 1349TIP3    H1 4053   2.987   2.849   4.690 -1.1176 -1.4746  1.7818
 1349TIP3    H2 4054   3.138   2.832   4.687 -0.9016  0.2550 -0.9731
 1350TIP3   OH2 4055   3.693   1.757   3.154  0.2359  0.0577  0.5804
 1350TIP3    H1 4056   3.774   1.706   3.152  0.8189  0.9804 -0.1574
 1350TIP3    H2 4057   3.639   1.718   3.084  0.5917  0.2992  0.1648
 1351TIP3   OH2 4058   1.542   5.000   2.716 -0.1788 -0.5323  0.4126
 1351TIP3    H1 4059   1.488   4.970   2.643 -0.3117  0.0785  0.2475
 1351TIP3    H2 4060   1.486   5.061   2.764  0.4977  0.4579 -0.0201
 1352TIP3   OH2 4061   1.686   1.568   5.144  0.1616 -0.0953  0.2998
 1352TIP3    H1 4062   1.750   1.497   5.136  0.5400  0.3434 -0.8047
 1352TIP3    H2 4063   1.603   1.527   5.120  0.5932  0.1140 -1.7761
 1353TIP3   OH2 4064   1.372   3.528   1.885  0.0225 -0.4661  0.2112
 1353TIP3    H1 4065   1.367   3.623   1.901  0.9837 -0.3209 -0.2815
 1353TIP3    H2 4066   1.396   3.491   1.969 -1.4213 -0.4013  0.6839
 1354TIP3   OH2 4067   1.514   2.423   1.456  0.1420  0.7126  0.2553
 1354TIP3    H1 4068   1.455   2.498   1.460 -2.2232 -1.0489  0.5146
 1354TIP3    H2 4069   1.549   2.424   1.367 -2.6337  0.1917 -0.9354
 1355TIP3   OH2 4070   1.937   0.104   4.362  0.0260 -0.1521 -0.0115
 1355TIP3    H1 4071   1.968   0.187   4.400 -0.7394  0.9750 -1.7212
 1355TIP3    H2 4072   1.864   0.078   4.418  0.5901  0.0348  0.8397
 1356TIP3   OH2 4073   1.297   2.914   1.212  0.0661 -0.4602 -0.0279
 1356TIP3    H1 4074   1.340   2.979   1.267  0.7134 -1.0937  0.2208
 1356TIP3    H2 4075   1.276   2.842   1.272 -2.5001  0.3223  0.1554
 1357TIP3   OH2 4076   0.403   2.917   5.162 -0.0213  0.4750 -0.6989
 1357TIP3    H1 4077   0.355   2.919   5.245  0.2127  3.0950 -0.5600
 1357TIP3    H2 4078   0.374   2.996   5.116  1.7713  0.4148 -1.9948
 1358TIP3   OH2 4079   5.791   3.911   3.222 -0.0799  0.5613 -0.0825
 1358TIP3    H1 4080   5.708   3.918   3.271 -0.6736 -0.2212 -0.9478
 1358TIP3    H2 4081   5.847   3.979   3.261 -0.8570  0.5984  1.0303
 1359TIP3   OH2 4082   2.398   3.688   4.565  0.1177 -0.4406 -0.3756
 1359TIP3    H1 4083   2.445   3.687   4.649  0.6872  0.1038 -0.6829
 1359TIP3    H2 4084   2.363   3.599   4.557 -1.4462 -0.0366  1.2776
 1360TIP3   OH2 4085   4.015   4.693   4.145 -0.3015 -0.1737 -0.4057
 1360TIP3    H1 4086   4.108   4.691   4.168 -0.2621 -1.4612 -0.5788
 1360TIP3    H2 4087   4.007   4.629   4.074 -1.4362 -0.5909  0.0803
 1361TIP3   OH2 4088   2.500   5.640   0.972 -0.1580  0.2340  0.2896
 1361TIP3    H1 4089   2.557   5.669   1.043 -0.4568 -1.5396  1.3206
 1361TIP3    H2 4090   2.546   5.565   0.933 -0.5143  0.4966 -0.6591
 1362TIP3   OH2 4091   1.889   1.911   0.238  0.1114  0.3269  0.0321
 1362TIP3    H1 4092   1.858   1.926   0.328  2.3726  1.2856  0.7125
 1362TIP3    H2 4093   1.902   1.816   0.233  0.6666  0.3392  0.9917
 1363TIP3   OH2 4094   3.396   5.507   0.429  0.3229  0.1034 -0.0991
 1363TIP3    H1 4095   3.331   5.447   0.467  1.2195 -0.4705  0.5751
 1363TIP3    H2 4096   3.432   5.459   0.354 -0.0316  0.4278 -0.4831
 1364TIP3   OH2 4097   1.889   4.361   3.716  0.1796  0.4559  0.2836
 1364TIP3    H1 4098   1.900   4.331   3.806  0.1652  0.6549  0.3533
 1364TIP3    H2 4099   1.924   4.290   3.663 -2.2459 -0.8581  0.3225
 1365TIP3   OH2 4100   4.728   1.997   1.249 -0.2351 -0.2811 -0.5999
 1365TIP3    H1 4101   4.772   1.913   1.261 -0.1087 -0.2639 -0.9250
 1365TIP3    H2 4102   4.669   2.005   1.324  0.4582 -0.2170 -0.0579
 1366TIP3   OH2 4103   5.827   2.592   0.227  0.5005 -0.0777  0.8072
 1366TIP3    H1 4104   5.911   2.614   0.188  0.4793  0.4349  1.0501
 1366TIP3    H2 4105   5.846   2.578   0.320  0.6481 -1.8152  0.5573
 1367TIP3   OH2 4106   3.079   0.316   2.493 -0.0314 -0.8231 -0.2686
 1367TIP3    H1 4107   3.035   0.257   2.432 -0.3979 -0.2830 -0.5413
 1367TIP3    H2 4108   3.168   0.282   2.500  0.0343 -0.8533 -1.1572
 1368TIP3   OH2 4109   5.155   0.836   3.380  0.4462  0.1090  0.2538
 1368TIP3    H1 4110   5.211   0.898   3.427  0.4429 -0.4566  1.0082
 1368TIP3    H2 4111   5.212   0.761   3.361  0.0400 -0.3202  0.7164
 1369TIP3   OH2 4112   0.199   2.157   3.868 -0.1366  0.5302 -0.0275
 1369TIP3    H1 4113   0.256   2.107   3.810  1.4725  1.4133  0.6981
 1369TIP3    H2 4114   0.116   2.109   3.868  0.4727 -0.6124 -1.4163
 1370TIP3   OH2 4115   0.184   4.035   5.175  0.0741  0.0371 -0.0707
 1370TIP3    H1 4116   0.239   4.103   5.137  0.0837 -0.9798 -1.9925
 1370TIP3    H2 4117   0.119   4.083   5.227 -0.1023  1.5307 -1.6020
 1371TIP3   OH2 4118   2.847   4.408   4.854  0.0501 -0.0921 -0.2606
 1371TIP3    H1 4119   2.864   4.453   4.771  0.0596 -1.3743 -0.9879
 1371TIP3    H2 4120   2.768   4.450   4.889 -0.8458 -0.5123 -1.6815
 1372TIP3   OH2 4121   0.297   0.442   3.422  0.0480  0.0800  0.6676
 1372TIP3    H1 4122   0.323   0.502   3.492  1.1135  1.1431 -0.5723
 1372TIP3    H2 4123   0.340   0.360   3.444  1.7980  0.8870  0.3955
 1373TIP3   OH2 4124   4.223   0.905   3.410  0.0603 -0.4186  0.0301
 1373TIP3    H1 4125   4.238   0.943   3.496  0.0848  1.0503 -0.6048
 1373TIP3    H2 4126   4.311   0.883   3.378  0.1653  0.3011 -0.1791
 1374TIP3   OH2 4127   2.434   2.874   3.807 -0.5346 -0.0759 -0.2847
 1374TIP3    H1 4128   2.480   2.804   3.853  0.6857  0.7304 -0.2213
 1374TIP3    H2 4129   2.374   2.910   3.873 -1.3899 -1.2354 -0.4114
 1375TIP3   OH2 4130   1.518   0.084   1.705 -0.4477  0.3776 -0.3544
 1375TIP3    H1 4131   1.462   0.021   1.659 -0.7852 -0.3768  1.0522
 1375TIP3    H2 4132   1.457   0.142   1.750 -0.1171  0.2543  0.2635
 1376TIP3   OH2 4133   0.854   3.730   2.344 -0.3093  0.4285  0.1277
 1376TIP3    H1 4134   0.814   3.801   2.394 -0.5248 -0.9019  1.9738
 1376TIP3    H2 4135   0.940   3.718   2.385 -0.0583 -0.0310 -0.5217
 1377TIP3   OH2 4136   4.004   4.417   2.739  0.1603  0.3709 -0.1808
 1377TIP3    H1 4137   4.074   4.362   2.774 -0.7719 -1.1520 -0.6267
 1377TIP3    H2 4138   4.050   4.493   2.702  1.4882 -0.1532  0.3143
 1378TIP3   OH2 4139   2.037   4.224   1.537 -0.2145  0.0576 -0.1686
 1378TIP3    H1 4140   1.942   4.230   1.525 -0.0729  1.8621 -0.6549
 1378TIP3    H2 4141   2.059   4.300   1.591  0.5964 -2.0263  2.7087
 1379TIP3   OH2 4142   3.636   1.721   1.861  0.4628  0.0447 -0.2398
 1379TIP3    H1 4143   3.701   1.663   1.900  0.7476 -0.2508 -1.1421
 1379TIP3    H2 4144   3.553   1.691   1.897  0.4664 -1.6795 -1.5524
 1380TIP3   OH2 4145   4.539   5.413   4.669  0.0707  0.5724 -0.2401
 1380TIP3    H1 4146   4.448   5.392   4.650 -0.2353  2.2607 -0.8424
 1380TIP3    H2 4147   4.588   5.338   4.636 -0.9570  0.5240 -1.7861
 1381TIP3   OH2 4148   0.995   2.768   1.847  0.3018  0.0164  0.6253
 1381TIP3    H1 4149   1.035   2.706   1.909  2.9789 -0.0671 -1.0523
 1381TIP3    H2 4150   0.976   2.716   1.770  1.1621  0.9465 -0.2416
 1382TIP3   OH2 4151   5.291   1.675   4.856 -0.1641  0.1236  0.1493
 1382TIP3    H1 4152   5.304   1.770   4.855  0.2017  0.0710  0.0471
 1382TIP3    H2 4153   5.217   1.660   4.797 -0.4418  0.3760  0.4267
 1383TIP3   OH2 4154   0.510   4.211   2.723  0.4801 -0.0182 -0.2270
 1383TIP3    H1 4155   0.601   4.230   2.745  0.2174  0.9446  0.0783
 1383TIP3    H2 4156   0.476   4.163   2.798  0.8991 -0.9603 -0.6168
 1384TIP3   OH2 4157   2.528   4.132   4.223  0.0575  0.1468  0.0243
 1384TIP3    H1 4158   2.566   4.178   4.149  1.3815  2.2440  1.8668
 1384TIP3    H2 4159   2.583   4.054   4.235  0.4869  0.3617 -0.5271
 1385TIP3   OH2 4160   5.142   3.563   2.364 -0.3189  0.0972  0.3532
 1385TIP3    H1 4161   5.054   3.576   2.329 -0.2708  0.4334  0.3537
 1385TIP3    H2 4162   5.155   3.636   2.424  0.1665  0.3557 -0.0551
 1386TIP3   OH2 4163   2.556   2.444   4.355  0.4098  0.5818  0.5783
 1386TIP3    H1 4164   2.509   2.381   4.410  0.9513  0.0618  0.4621
 1386TIP3    H2 4165   2.492   2.512   4.336  0.2323  0.8272  1.9232
 1387TIP3   OH2 4166   4.172   3.232   3.979 -0.1671  0.0550 -0.1737
 1387TIP3    H1 4167   4.247   3.222   3.920  0.4131  0.3371  0.5065
 1387TIP3    H2 4168   4.147   3.324   3.971 -1.1274 -0.2692 -1.1968
 1388TIP3   OH2 4169   4.489   5.618   3.431 -0.3127 -0.3331 -0.3714
 1388TIP3    H1 4170   4.507   5.710   3.451  0.2645 -0.3691 -0.7044
 1388TIP3    H2 4171   4.399   5.618   3.399  0.0110  0.2679 -1.3184
 1389TIP3   OH2 4172   5.500   1.159   0.527 -0.2243 -0.8846  0.3776
 1389TIP3    H1 4173   5.433   1.197   0.582  2.3341  2.0188  1.7546
 1389TIP3    H2 4174   5.546   1.096   0.583  1.2181  0.7375  1.1046
 1390TIP3   OH2 4175   0.539   3.429   3.575 -0.8017  0.0146  0.7488
 1390TIP3    H1 4176   0.527   3.427   3.480  0.8635  0.3512  0.5121
 1390TIP3    H2 4177   0.470   3.488   3.606 -2.5580 -1.5370 -0.0110
 1391TIP3   OH2 4178   2.671   2.555   0.565  0.1017 -0.1309 -0.3160
 1391TIP3    H1 4179   2.659   2.470   0.608  0.8254 -0.7790 -1.3487
 1391TIP3    H2 4180   2.593   2.605   0.589  0.7456 -0.2108  2.2606
 1392TIP3   OH2 4181   4.869   4.649   4.580 -0.0689  0.7417 -0.0352
 1392TIP3    H1 4182   4.829   4.731   4.609 -0.4207  0.4022  0.4434
 1392TIP3    H2 4183   4.960   4.654   4.609 -0.1444  0.8711  0.1790
 1393TIP3   OH2 4184   1.144   2.231   1.696  0.3659  0.8453 -0.6596
 1393TIP3    H1 4185   1.065   2.284   1.687  0.4108  1.1331  0.5818
 1393TIP3    H2 4186   1.120   2.164   1.760  0.7028  0.0881 -1.3039
 1394TIP3   OH2 4187   0.434   1.540   1.539  0.1602 -0.6115  0.0957
 1394TIP3    H1 4188   0.374   1.528   1.613  0.4824  0.2539  0.5036
 1394TIP3    H2 4189   0.409   1.624   1.502  0.1651 -0.9293 -0.6391
 1395TIP3   OH2 4190   4.706   0.295   4.551 -0.5603 -0.1326  0.3641
 1395TIP3    H1 4191   4.778   0.301   4.614 -2.0103 -1.0114  2.1885
 1395TIP3    H2 4192   4.647   0.366   4.575 -2.2088 -1.7869  1.5175
 1396TIP3   OH2 4193   6.184   1.115   0.665 -0.3743  0.2240 -0.1491
 1396TIP3    H1 4194   6.212   1.029   0.635  0.3946  0.3942  0.0651
 1396TIP3    H2 4195   6.198   1.114   0.759  0.6868  0.9505 -0.2772
 1397TIP3   OH2 4196   0.246   2.942   3.523  0.4509  0.5351 -0.6070
 1397TIP3    H1 4197   0.318   2.933   3.460  0.4030 -1.6814 -0.3971
 1397TIP3    H2 4198   0.200   3.022   3.495  0.8295 -0.0129 -2.9765
 1398TIP3   OH2 4199   3.057   2.895   3.844 -0.0089  0.1444  0.6292
 1398TIP3    H1 4200   3.092   2.933   3.763 -0.9806  0.3884  0.3081
 1398TIP3    H2 4201   3.077   2.801   3.837  0.7678  0.3091  0.5637
 1399TIP3   OH2 4202   0.182   5.063   1.138 -0.6851 -0.3814  0.3322
 1399TIP3    H1 4203   0.096   5.103   1.123 -1.5337 -2.2645 -0.1533
 1399TIP3    H2 4204   0.206   5.092   1.226 -0.6407  2.1242 -0.4120
 1400TIP3   OH2 4205   4.380   5.676   0.983  0.1390  0.3107 -0.0749
 1400TIP3    H1 4206   4.331   5.607   0.939  0.6099 -0.4648  0.5935
 1400TIP3    H2 4207   4.462   5.683   0.935  0.6381 -0.5114  0.6269
 1401TIP3   OH2 4208   5.917   3.022   4.975 -0.5649  0.4160 -0.0651
 1401TIP3    H1 4209   5.984   3.052   5.036 -0.5001  2.8966 -1.2155
 1401TIP3    H2 4210   5.955   2.943   4.935  0.0626 -0.3158  1.8549
 1402TIP3   OH2 4211   5.647   1.132   1.458  0.3753  0.0083 -0.7027
 1402TIP3    H1 4212   5.719   1.187   1.426 -0.8881  1.3085 -1.4212
 1402TIP3    H2 4213   5.615   1.087   1.380 -0.7594  0.8553 -0.7455
 1403TIP3   OH2 4214   2.368   0.041   2.441  0.3729  0.5264  0.5414
 1403TIP3    H1 4215   2.398  -0.049   2.433 -1.0751 -0.0441  1.1040
 1403TIP3    H2 4216   2.439   0.094   2.405 -0.1945 -1.0199 -3.3574
 1404TIP3   OH2 4217   0.339   2.223   3.360  0.0161 -0.3247  0.6060
 1404TIP3    H1 4218   0.367   2.167   3.432  0.0434 -1.6440 -0.3927
 1404TIP3    H2 4219   0.407   2.213   3.294 -0.8544 -0.5074 -0.2835
 1405TIP3   OH2 4220   1.911   3.215   4.121 -0.2387 -0.1225 -0.8040
 1405TIP3    H1 4221   1.851   3.260   4.062  1.5712  1.4304 -1.5604
 1405TIP3    H2 4222   1.907   3.123   4.095 -0.5345  0.3238 -2.4033
 1406TIP3   OH2 4223   2.267   2.190   1.920 -0.0029  0.2143 -0.2242
 1406TIP3    H1 4224   2.198   2.231   1.869 -2.0729 -2.3600  0.2589
 1406TIP3    H2 4225   2.251   2.219   2.010 -0.0600  0.1247 -0.2051
 1407TIP3   OH2 4226   4.637   1.723   4.920  0.9479 -0.3603 -0.2112
 1407TIP3    H1 4227   4.650   1.647   4.976  0.9438 -0.9209 -0.9517
 1407TIP3    H2 4228   4.707   1.718   4.856 -0.6565 -1.3677 -2.0057
 1408TIP3   OH2 4229   1.367   4.531   1.859  0.0561  0.3425  0.4656
 1408TIP3    H1 4230   1.421   4.497   1.788 -0.2442  0.5947  0.1135
 1408TIP3    H2 4231   1.292   4.471   1.863 -1.5911  2.0808 -1.5783
 1409TIP3   OH2 4232   1.737   0.476   1.468  0.1662 -0.7250 -0.1545
 1409TIP3    H1 4233   1.831   0.458   1.470  0.4655  0.2500 -2.3492
 1409TIP3    H2 4234   1.719   0.500   1.377 -2.6585 -3.0587 -0.3738
 1410TIP3   OH2 4235   5.603   3.601   3.417  0.3360  0.0328 -0.0583
 1410TIP3    H1 4236   5.584   3.602   3.324  1.8136  3.1053 -0.4411
 1410TIP3    H2 4237   5.524   3.633   3.459  0.3229  0.4783 -0.4305
 1411TIP3   OH2 4238   2.998   1.873   2.282 -0.7680  0.2968 -0.1119
 1411TIP3    H1 4239   3.030   1.873   2.372 -0.4450  0.2624 -0.2226
 1411TIP3    H2 4240   2.903   1.867   2.289 -0.6833 -1.0309  0.2028
 1412TIP3   OH2 4241   2.385   3.864   0.193 -0.1482  0.5588 -0.0379
 1412TIP3    H1 4242   2.319   3.799   0.216  0.0815  0.3520  0.0480
 1412TIP3    H2 4243   2.374   3.933   0.259  0.5707 -0.0804  0.7787
 1413TIP3   OH2 4244   0.088   3.174   5.068 -0.2124  0.0709  0.4751
 1413TIP3    H1 4245   0.130   3.213   5.144 -1.1163  1.5539  0.2623
 1413TIP3    H2 4246   0.155   3.118   5.029  0.3009 -0.6024  2.2565
 1414TIP3   OH2 4247   2.244   0.429   0.847  0.1068  0.3489 -0.4981
 1414TIP3    H1 4248   2.323   0.451   0.895  1.1064 -2.0456 -0.8954
 1414TIP3    H2 4249   2.245   0.487   0.770  1.2896  0.5703 -0.3274
 1415TIP3   OH2 4250   5.120   0.506   3.808  0.2495 -0.1358  0.0250
 1415TIP3    H1 4251   5.083   0.553   3.883 -0.8642 -0.2188 -0.4508
 1415TIP3    H2 4252   5.074   0.543   3.732  2.7397  1.3829 -0.8839
 1416TIP3   OH2 4253   5.381   5.970   1.397  0.0858  0.2701 -0.6184
 1416TIP3    H1 4254   5.306   5.934   1.442 -1.3074  1.7294 -1.6238
 1416TIP3    H2 4255   5.457   5.939   1.446 -1.0628 -2.3912 -0.3803
 1417TIP3   OH2 4256   3.919   5.486   0.241 -0.2987 -0.0650  0.1349
 1417TIP3    H1 4257   3.939   5.576   0.215  0.1324  0.2813  1.5580
 1417TIP3    H2 4258   3.910   5.490   0.336  0.7928 -1.7085  0.3542
 1418TIP3   OH2 4259   3.844   2.418   4.329  0.2129 -0.4965 -0.1475
 1418TIP3    H1 4260   3.881   2.504   4.349  0.2281 -0.7255  0.8535
 1418TIP3    H2 4261   3.887   2.358   4.391 -0.0209 -1.1720 -0.6257
 1419TIP3   OH2 4262   3.377   5.834   0.845 -0.4412  0.0895  0.2181
 1419TIP3    H1 4263   3.284   5.817   0.856 -0.1014 -1.0681  1.5638
 1419TIP3    H2 4264   3.398   5.900   0.910  0.0720 -1.2150  1.4255
 1420TIP3   OH2 4265   6.198   2.884   1.682 -0.6178  0.0061  0.3228
 1420TIP3    H1 4266   6.292   2.881   1.703 -0.2460  1.2681 -1.0414
 1420TIP3    H2 4267   6.184   2.805   1.630  0.2354  0.9494 -1.4260
 1421TIP3   OH2 4268   1.839   3.805   4.821 -0.1706 -0.6433  0.4837
 1421TIP3    H1 4269   1.919   3.783   4.868 -0.4043  1.5920  2.0643
 1421TIP3    H2 4270   1.867   3.865   4.752 -0.2855 -1.2169 -0.0748
 1422TIP3   OH2 4271   3.805   5.267   0.691  0.1046 -0.3992  0.6891
 1422TIP3    H1 4272   3.777   5.180   0.719 -0.1319 -1.0169 -1.3535
 1422TIP3    H2 4273   3.750   5.288   0.616  0.9821  1.0072  0.3826
 1423TIP3   OH2 4274   0.374   6.014   2.717 -0.1244 -0.1644  0.6581
 1423TIP3    H1 4275   0.398   5.959   2.791  0.0838 -1.3065 -0.2215
 1423TIP3    H2 4276   0.367   5.953   2.643 -0.4985  0.9084 -0.2259
 1424TIP3   OH2 4277   0.503   0.660   2.803  0.0617 -0.0419 -0.4805
 1424TIP3    H1 4278   0.441   0.588   2.818 -0.9588  0.8579 -0.2938
 1424TIP3    H2 4279   0.541   0.642   2.717  0.2465 -1.1055 -0.1881
 1425TIP3   OH2 4280   5.102   2.115   1.530  0.9136  0.0182  0.4357
 1425TIP3    H1 4281   5.019   2.068   1.529  1.2122 -0.5740  1.3309
 1425TIP3    H2 4282   5.136   2.107   1.441  1.1433 -1.8693  0.6450
 1426TIP3   OH2 4283   6.187   4.697   2.635 -0.0249  0.2098  0.2453
 1426TIP3    H1 4284   6.224   4.610   2.619  0.6605  0.0788  2.3041
 1426TIP3    H2 4285   6.104   4.680   2.678 -0.5002  0.5864 -0.4911
 1427TIP3   OH2 4286   1.593   5.954   1.489 -0.2640  0.5212 -0.2038
 1427TIP3    H1 4287   1.678   5.935   1.449  0.3202  1.1631  0.6807
 1427TIP3    H2 4288   1.614   6.006   1.567 -1.2463 -1.6006  1.5944
 1428TIP3   OH2 4289   3.626   3.609   2.040  0.9745  0.6509  0.1832
 1428TIP3    H1 4290   3.644   3.702   2.052  0.0906  1.2031 -2.0743
 1428TIP3    H2 4291   3.532   3.606   2.021  0.8156 -0.8272  1.0942
 1429TIP3   OH2 4292   2.770   5.825   0.134 -0.8217 -0.4778 -0.4597
 1429TIP3    H1 4293   2.704   5.880   0.093  0.7564  0.5462 -1.7429
 1429TIP3    H2 4294   2.847   5.882   0.145 -0.5999 -1.1396  2.5175
 1430TIP3   OH2 4295   5.092   5.650   2.937 -0.5839  0.1183  0.0424
 1430TIP3    H1 4296   5.017   5.705   2.912 -0.6655  0.1091  0.2599
 1430TIP3    H2 4297   5.082   5.571   2.885 -0.4279  0.3400 -0.3250
 1431TIP3   OH2 4298   5.204   2.469   4.761 -0.8556  0.2804 -0.2329
 1431TIP3    H1 4299   5.223   2.546   4.815 -0.2458 -0.0435  0.0225
 1431TIP3    H2 4300   5.117   2.440   4.790 -0.8588  0.5576  0.0390
 1432TIP3   OH2 4301   3.397   3.635   1.814  0.4124  0.0195 -0.6359
 1432TIP3    H1 4302   3.338   3.569   1.778 -0.5470  0.0363  0.8273
 1432TIP3    H2 4303   3.481   3.618   1.771 -0.1943 -1.1561 -1.4202
 1433TIP3   OH2 4304   5.929   1.620   5.205  0.6056  0.3763 -0.6033
 1433TIP3    H1 4305   5.996   1.624   5.136  1.8505  1.9938  0.6375
 1433TIP3    H2 4306   5.860   1.678   5.174  0.3178 -0.3318 -1.3191
 1434TIP3   OH2 4307   3.367   2.889   0.111 -0.0856 -0.4307  0.5268
 1434TIP3    H1 4308   3.284   2.863   0.151 -0.5317  0.9238  0.5187
 1434TIP3    H2 4309   3.357   2.865   0.019  0.6493 -2.8443  0.9990
 1435TIP3   OH2 4310   2.902   4.655   0.319  0.0055 -0.5412  0.0767
 1435TIP3    H1 4311   2.854   4.734   0.296  0.1416 -0.1793  0.9827
 1435TIP3    H2 4312   2.884   4.642   0.413 -0.0762 -1.6194 -0.0675
 1436TIP3   OH2 4313   1.934   3.009   5.032 -0.6725 -0.0467 -0.0139
 1436TIP3    H1 4314   1.852   2.960   5.044 -0.7570 -0.5383 -2.0918
 1436TIP3    H2 4315   1.906   3.096   5.005 -0.5294 -0.1551 -0.5282
 1437TIP3   OH2 4316   3.062   3.565   2.104 -0.5673  0.1841 -0.1323
 1437TIP3    H1 4317   3.133   3.553   2.166  1.7195  0.8062 -2.4689
 1437TIP3    H2 4318   3.045   3.660   2.104 -0.5925  0.1819 -0.4055
 1438TIP3   OH2 4319   2.257   1.159   4.423 -0.1731  0.6392  0.4418
 1438TIP3    H1 4320   2.260   1.083   4.364  1.4696  0.0423  1.2271
 1438TIP3    H2 4321   2.195   1.134   4.491 -0.4854  0.4635  0.0970
 1439TIP3   OH2 4322   2.136   1.104   4.679  0.2190 -0.0595 -0.6827
 1439TIP3    H1 4323   2.045   1.117   4.706  0.1002 -0.9742 -0.6079
 1439TIP3    H2 4324   2.142   1.011   4.661  0.6045  0.3095 -2.7004
 1440TIP3   OH2 4325   1.567   5.229   3.281 -0.6845  0.5126  0.0347
 1440TIP3    H1 4326   1.539   5.243   3.191 -1.4115 -0.0503  0.1666
 1440TIP3    H2 4327   1.656   5.192   3.273 -1.1702 -0.5951 -0.5038
 1441TIP3   OH2 4328   0.751   2.258   0.887  0.8947  0.2805 -0.0549
 1441TIP3    H1 4329   0.837   2.253   0.844  1.0268  0.6080  0.1627
 1441TIP3    H2 4330   0.758   2.200   0.962 -0.0555 -2.0242 -1.6410
 1442TIP3   OH2 4331   5.358   3.256   1.400  0.4445 -0.6476  0.1302
 1442TIP3    H1 4332   5.264   3.262   1.420 -0.1634 -2.0003 -1.9684
 1442TIP3    H2 4333   5.371   3.165   1.373  1.8232  0.0697 -1.8989
 1443TIP3   OH2 4334   0.748   5.336   4.431  0.0550  0.1039  0.5003
 1443TIP3    H1 4335   0.676   5.378   4.479  0.2274  0.3616  0.5390
 1443TIP3    H2 4336   0.736   5.366   4.341 -0.0009 -0.0105  0.4700
 1444TIP3   OH2 4337   3.171   2.067   0.539 -0.4103 -0.3815 -0.1112
 1444TIP3    H1 4338   3.251   2.025   0.568 -0.0342 -1.9769 -3.0282
 1444TIP3    H2 4339   3.107   1.996   0.534 -1.7126  0.6591  1.1024
 1445TIP3   OH2 4340   3.627   1.522   4.103 -0.5029  0.3340 -0.3282
 1445TIP3    H1 4341   3.588   1.557   4.023 -0.0035 -1.1700 -1.2782
 1445TIP3    H2 4342   3.574   1.558   4.174 -0.4145  2.4151 -1.2500
 1446TIP3   OH2 4343   4.835   3.230   0.755 -0.7460  0.2914 -0.2010
 1446TIP3    H1 4344   4.912   3.177   0.736 -1.8711 -0.4000 -3.6011
 1446TIP3    H2 4345   4.792   3.185   0.828  0.2108 -1.3912 -0.6314
 1447TIP3   OH2 4346   1.659   1.911   2.454 -0.0080  0.6604  0.2338
 1447TIP3    H1 4347   1.571   1.875   2.444 -0.6497  2.2088  0.0467
 1447TIP3    H2 4348   1.712   1.838   2.485 -1.9087  0.2955  2.9777
 1448TIP3   OH2 4349   1.388   0.209   4.717 -0.1392  0.1532  0.7433
 1448TIP3    H1 4350   1.468   0.206   4.770 -0.7583 -1.4468  1.6760
 1448TIP3    H2 4351   1.323   0.162   4.770 -0.7454 -1.7228 -1.5181
 1449TIP3   OH2 4352   0.844   4.093   2.016  0.1599 -0.3100  0.3119
 1449TIP3    H1 4353   0.860   4.093   2.110 -2.4126  2.6241  0.9193
 1449TIP3    H2 4354   0.789   4.017   2.001 -1.4941  0.5469  1.7150
 1450TIP3   OH2 4355   5.272   1.471   5.026 -0.1691 -0.6012  0.0001
 1450TIP3    H1 4356   5.260   1.498   5.117  0.8679 -1.5268  0.4335
 1450TIP3    H2 4357   5.280   1.553   4.977  1.3353 -0.0902  1.0415
 1451TIP3   OH2 4358   6.323   3.889   1.642  0.3140 -0.7136 -0.6138
 1451TIP3    H1 4359   6.363   3.881   1.556  0.3940 -0.0571 -0.6386
 1451TIP3    H2 4360   6.230   3.871   1.627 -0.0892  1.5588 -1.2489
 1452TIP3   OH2 4361   5.106   3.917   5.152 -0.0255  0.0676 -0.2903
 1452TIP3    H1 4362   5.062   3.984   5.205  1.5834  0.7615  0.2342
 1452TIP3    H2 4363   5.064   3.835   5.177  0.5792  0.3886  2.0254
 1453TIP3   OH2 4364   3.912   3.568   1.436 -0.1680  0.1841  0.4690
 1453TIP3    H1 4365   3.871   3.495   1.389  1.0573 -0.5060  0.4131
 1453TIP3    H2 4366   3.839   3.623   1.464 -1.0044  0.1183 -1.4241
 1454TIP3   OH2 4367   0.577   5.690   2.042  0.1229 -0.4167  0.0424
 1454TIP3    H1 4368   0.616   5.651   2.121 -0.0112  1.7926  1.2905
 1454TIP3    H2 4369   0.506   5.746   2.075 -0.2001  0.2712 -1.6849
 1455TIP3   OH2 4370   3.030   5.600   3.200 -0.2367  0.3351  0.6753
 1455TIP3    H1 4371   3.123   5.617   3.213 -0.2119 -0.5181  1.7906
 1455TIP3    H2 4372   2.987   5.645   3.272 -0.7327  1.0285 -0.0420
 1456TIP3   OH2 4373   0.938   4.416   5.205 -0.2373  0.5011 -0.5146
 1456TIP3    H1 4374   0.941   4.337   5.152 -1.2226  0.5766 -0.6961
 1456TIP3    H2 4375   0.916   4.486   5.143  0.5702  0.9161 -0.3487
 1457TIP3   OH2 4376   2.655   3.522   3.495 -0.2920 -0.0891 -0.1132
 1457TIP3    H1 4377   2.712   3.546   3.423 -1.6908 -0.9717 -1.5882
 1457TIP3    H2 4378   2.649   3.601   3.549  1.6675  0.2396 -0.3305
 1458TIP3   OH2 4379   1.306   2.917   5.188 -0.2927 -0.3122 -0.2177
 1458TIP3    H1 4380   1.233   2.969   5.221  0.4768 -0.7876  2.4763
 1458TIP3    H2 4381   1.322   2.952   5.100 -2.6022  0.9774 -0.2002
 1459TIP3   OH2 4382   4.196   3.169   4.635  0.3637  0.1080 -0.8365
 1459TIP3    H1 4383   4.133   3.194   4.703 -0.2958 -1.9962 -0.6295
 1459TIP3    H2 4384   4.281   3.171   4.680  0.0196 -0.5537 -0.1408
 1460TIP3   OH2 4385   4.565   3.761   3.113 -0.1099  0.0488 -0.3637
 1460TIP3    H1 4386   4.633   3.786   3.052 -1.2315  1.4153 -1.1077
 1460TIP3    H2 4387   4.483   3.784   3.069 -0.9747  0.3762  1.3380
 1461TIP3   OH2 4388   5.553   1.268   0.975 -0.1612 -0.0739 -0.3464
 1461TIP3    H1 4389   5.518   1.178   0.974  0.6775 -0.4081 -0.7841
 1461TIP3    H2 4390   5.502   1.313   1.042 -0.1999 -1.0458  0.2926
 1462TIP3   OH2 4391   5.192   5.975   4.010 -0.0694 -0.1690 -0.4281
 1462TIP3    H1 4392   5.260   6.043   4.004  0.0009  0.1867  2.5607
 1462TIP3    H2 4393   5.240   5.893   4.019  0.1228  0.1231  2.1013
 1463TIP3   OH2 4394   5.462   3.591   4.958 -0.1370  0.0474  0.2311
 1463TIP3    H1 4395   5.373   3.581   4.992 -0.3115  0.0032 -0.2187
 1463TIP3    H2 4396   5.488   3.502   4.933  0.0684  0.0462  0.4490
 1464TIP3   OH2 4397   1.129   0.912   2.740  0.3400  0.7123  0.1199
 1464TIP3    H1 4398   1.161   0.976   2.803  0.6269 -0.7371  1.4961
 1464TIP3    H2 4399   1.045   0.882   2.776  0.5799 -0.2443 -0.0810
 1465TIP3   OH2 4400   3.044   3.994   4.147  0.0072 -0.4331 -0.2954
 1465TIP3    H1 4401   2.995   3.940   4.208 -1.0152 -1.1295 -1.6738
 1465TIP3    H2 4402   3.133   3.958   4.148  0.6948  1.0985  2.5296
 1466TIP3   OH2 4403   5.828   0.370   5.095 -0.2191  0.2442 -0.0729
 1466TIP3    H1 4404   5.769   0.417   5.036  2.8444  0.9284 -2.8539
 1466TIP3    H2 4405   5.833   0.427   5.173 -1.2745  1.4092 -0.8196
 1467TIP3   OH2 4406   5.040   3.151   4.767 -0.1504 -0.0341 -0.5393
 1467TIP3    H1 4407   4.989   3.231   4.778  1.3417  0.7996  0.6808
 1467TIP3    H2 4408   5.051   3.117   4.856 -1.2451 -1.9571 -1.0729
 1468TIP3   OH2 4409   5.120   5.256   0.161 -0.2668 -0.0969 -0.4242
 1468TIP3    H1 4410   5.063   5.283   0.233 -0.2695 -0.0696 -0.4371
 1468TIP3    H2 4411   5.207   5.250   0.201 -0.3222 -0.3881 -0.3427
 1469TIP3   OH2 4412   2.921  -0.018   2.595 -0.4175 -0.9187 -0.0524
 1469TIP3    H1 4413   3.016  -0.008   2.589 -0.0655 -3.9016 -0.8627
 1469TIP3    H2 4414   2.887   0.039   2.527  1.0245 -1.9196 -1.6986
 1470TIP3   OH2 4415   5.048   1.788   0.699  0.4518  0.2328  0.1880
 1470TIP3    H1 4416   5.112   1.787   0.628 -1.8311 -2.6470 -2.0433
 1470TIP3    H2 4417   5.008   1.875   0.694  2.2565  1.0995 -0.0805
 1471TIP3   OH2 4418   2.122   0.294   0.488  0.2821  0.1000  0.7211
 1471TIP3    H1 4419   2.166   0.378   0.472 -2.8049  1.4891 -1.4597
 1471TIP3    H2 4420   2.060   0.313   0.559 -1.3928  0.1500 -0.6944
 1472TIP3   OH2 4421   1.569   1.125   2.702  0.5348 -0.5107 -0.1098
 1472TIP3    H1 4422   1.565   1.182   2.780  0.5943 -0.9980  0.2536
 1472TIP3    H2 4423   1.560   1.037   2.737 -0.6543 -0.6718 -0.7755
 1473TIP3   OH2 4424   0.420   4.727   3.338  0.4930 -0.1173 -0.2229
 1473TIP3    H1 4425   0.468   4.803   3.304 -0.3167  0.2689 -0.5223
 1473TIP3    H2 4426   0.404   4.673   3.260  0.9614 -0.5396 -0.0291
 1474TIP3   OH2 4427   0.080   3.117   0.121  0.4310  0.1788  0.3927
 1474TIP3    H1 4428   0.043   3.061   0.189  0.3705 -0.1315  0.1104
 1474TIP3    H2 4429   0.004   3.149   0.072  0.5115 -0.1924  0.0183
 1475TIP3   OH2 4430   0.794   0.341   3.964  0.3439 -0.4670  0.0894
 1475TIP3    H1 4431   0.820   0.284   3.892 -0.6307 -0.3363 -0.3921
 1475TIP3    H2 4432   0.778   0.282   4.037  1.9487 -0.5445  0.4043
 1476TIP3   OH2 4433   3.429   1.500   3.424  0.2342 -0.2739 -0.5644
 1476TIP3    H1 4434   3.388   1.448   3.493  2.4968  1.9684  2.7646
 1476TIP3    H2 4435   3.365   1.569   3.405  1.1361  1.6944  2.7162
 1477TIP3   OH2 4436   3.009   0.762   4.183  0.2903 -0.0098 -0.1785
 1477TIP3    H1 4437   2.926   0.752   4.229 -2.2207 -0.4518 -4.2405
 1477TIP3    H2 4438   3.025   0.856   4.181 -0.8250  0.1933 -0.3218
 1478TIP3   OH2 4439   2.821   4.549   0.577  0.6647  0.4806  0.0653
 1478TIP3    H1 4440   2.818   4.606   0.653  0.2779  0.7765 -0.1702
 1478TIP3    H2 4441   2.799   4.462   0.612  0.4323  0.6249  0.2771
 1479TIP3   OH2 4442   0.815   5.169   0.504  0.3327  0.3147  0.0771
 1479TIP3    H1 4443   0.757   5.239   0.534 -0.0032 -0.0888  0.3721
 1479TIP3    H2 4444   0.799   5.097   0.565  0.5103 -0.0959 -0.3601
 1480TIP3   OH2 4445   0.974   3.674   0.719 -0.8502  0.2966 -0.1333
 1480TIP3    H1 4446   1.011   3.613   0.783 -1.6752 -0.0288  0.0377
 1480TIP3    H2 4447   0.879   3.667   0.729 -0.9732  1.2254 -0.4763
 1481TIP3   OH2 4448   1.798   0.474   3.674 -0.0890 -0.2918 -0.2731
 1481TIP3    H1 4449   1.728   0.470   3.610 -0.1437 -0.5897 -0.1948
 1481TIP3    H2 4450   1.822   0.383   3.690  0.4148 -0.1891 -0.4072
 1482TIP3   OH2 4451   3.822   4.058   5.091 -0.0221  0.5317 -0.2250
 1482TIP3    H1 4452   3.749   4.045   5.030 -1.1295  0.7889  1.0137
 1482TIP3    H2 4453   3.785   4.040   5.177  1.9612 -1.7239  0.2863
 1483TIP3   OH2 4454   5.439   3.833   3.017  0.2366 -0.2374  0.3544
 1483TIP3    H1 4455   5.442   3.786   2.934  0.7757 -1.2134  0.9038
 1483TIP3    H2 4456   5.360   3.886   3.012  0.1960 -0.3879 -0.7248
 1484TIP3   OH2 4457   6.020   4.984   4.893 -0.6552 -0.4531  0.4069
 1484TIP3    H1 4458   6.113   5.006   4.883 -0.9044  0.8126  0.6479
 1484TIP3    H2 4459   5.992   4.961   4.805 -0.1507 -0.6603  0.2976
 1485TIP3   OH2 4460   1.121   0.197   0.917 -0.0166 -0.3729 -0.0653
 1485TIP3    H1 4461   1.120   0.218   1.011  0.9351  0.1533 -0.1593
 1485TIP3    H2 4462   1.137   0.281   0.874  0.2576 -0.7237 -0.6585
 1486TIP3   OH2 4463   4.624   4.497   4.040  0.2110 -0.1541  0.0242
 1486TIP3    H1 4464   4.695   4.439   4.067  0.3535  0.2807  0.6082
 1486TIP3    H2 4465   4.611   4.556   4.115  0.2263  0.7139 -0.6471
 1487TIP3   OH2 4466   3.460   2.812   4.347 -0.3965  0.2238  0.5971
 1487TIP3    H1 4467   3.518   2.746   4.309  0.0470 -0.2977  2.0971
 1487TIP3    H2 4468   3.372   2.781   4.325 -0.2446 -1.4527  2.0586
 1488TIP3   OH2 4469   3.274   5.386   1.968 -0.0040  0.1930 -0.4449
 1488TIP3    H1 4470   3.360   5.399   2.009  0.6045 -0.5605 -1.4153
 1488TIP3    H2 4471   3.255   5.294   1.982 -0.3770  0.2232 -0.7529
 1489TIP3   OH2 4472   2.876   0.604   0.880  0.0349  0.3254  0.2405
 1489TIP3    H1 4473   2.931   0.579   0.953  1.4451  1.1916 -0.4833
 1489TIP3    H2 4474   2.916   0.683   0.845 -3.5293  3.0842  1.7164
 1490TIP3   OH2 4475   1.645   3.760   4.562  0.1951  0.4406  0.5750
 1490TIP3    H1 4476   1.718   3.803   4.606  0.3941 -0.8231  1.5687
 1490TIP3    H2 4477   1.631   3.810   4.482  2.3613  0.5301  0.1991
 1491TIP3   OH2 4478   0.775   4.781   1.900 -0.4376 -0.2070  1.2507
 1491TIP3    H1 4479   0.787   4.872   1.926 -2.9568  0.6597 -0.2571
 1491TIP3    H2 4480   0.851   4.736   1.936  3.0536  3.1236 -1.1502
 1492TIP3   OH2 4481   3.057   1.109   5.007  0.0579  0.2871 -0.2682
 1492TIP3    H1 4482   3.053   1.194   4.963  2.2336  0.9759  0.6906
 1492TIP3    H2 4483   3.145   1.107   5.046 -0.1327 -2.1873  0.1881
 1493TIP3   OH2 4484   4.608   1.386   3.139 -0.3324 -0.0424  0.7150
 1493TIP3    H1 4485   4.662   1.315   3.176  0.8218 -0.7143 -1.9882
 1493TIP3    H2 4486   4.561   1.345   3.067 -0.6794  1.6671 -0.0745
 1494TIP3   OH2 4487   5.839   0.413   4.638  0.6550 -0.0611  0.0786
 1494TIP3    H1 4488   5.876   0.439   4.553  0.4851  0.8345  0.2666
 1494TIP3    H2 4489   5.868   0.323   4.650 -1.0660 -0.9548 -1.9006
 1495TIP3   OH2 4490   4.219   3.442   3.567 -0.8822  0.0992  0.0014
 1495TIP3    H1 4491   4.267   3.359   3.564 -2.0771 -0.6363  0.5538
 1495TIP3    H2 4492   4.128   3.418   3.546 -1.2739  1.2423  0.3281
 1496TIP3   OH2 4493   1.796   0.485   3.040  0.4977  0.6349  0.3024
 1496TIP3    H1 4494   1.718   0.455   2.994  1.6714 -0.4504 -1.1060
 1496TIP3    H2 4495   1.801   0.431   3.119 -0.2910  0.8875  0.5294
 1497TIP3   OH2 4496   3.737   2.714   3.906 -0.3536  0.3319  0.0015
 1497TIP3    H1 4497   3.766   2.629   3.875  0.3499  0.0780  1.2847
 1497TIP3    H2 4498   3.681   2.748   3.836 -0.9143 -1.3172 -0.3767
 1498TIP3   OH2 4499   4.368   3.118   3.183  0.2043 -0.4827  0.0972
 1498TIP3    H1 4500   4.460   3.120   3.208  0.6840  0.0688 -1.5182
 1498TIP3    H2 4501   4.363   3.178   3.108 -1.3446 -0.9737 -0.2321
 1499TIP3   OH2 4502   1.067   0.274   0.327 -0.0650  0.0028  0.0767
 1499TIP3    H1 4503   1.025   0.190   0.347 -2.0741  1.0129  0.3697
 1499TIP3    H2 4504   1.114   0.297   0.407 -1.0428  0.0014  0.6779
 1500TIP3   OH2 4505   0.227   5.465   3.780  0.5828  0.1642 -0.0992
 1500TIP3    H1 4506   0.271   5.476   3.864 -0.1620 -3.7028  0.9864
 1500TIP3    H2 4507   0.135   5.482   3.799  0.5098  0.0260 -0.3283
 1501TIP3   OH2 4508   0.869   4.897   2.170 -0.4002 -0.9057 -0.1227
 1501TIP3    H1 4509   0.821   4.913   2.252  1.7532 -1.0504  1.2605
 1501TIP3    H2 4510   0.955   4.868   2.199  1.7486  2.5093 -2.3488
 1502TIP3   OH2 4511   1.049   5.910   0.347  0.2586  0.1837  0.0425
 1502TIP3    H1 4512   1.128   5.875   0.388  0.9146 -0.3409 -1.5721
 1502TIP3    H2 4513   1.027   5.988   0.398  2.2811  0.7909  0.0552
 1503TIP3   OH2 4514   5.300   4.611   5.198 -0.0516  0.2464 -0.5570
 1503TIP3    H1 4515   5.313   4.533   5.143 -0.1262 -0.8324  0.9063
 1503TIP3    H2 4516   5.242   4.667   5.146  0.0957 -0.6174 -1.6886
 1504TIP3   OH2 4517   5.514   2.165   0.721  0.1294  0.0922 -0.5746
 1504TIP3    H1 4518   5.564   2.149   0.641  0.5147 -1.2553 -0.0923
 1504TIP3    H2 4519   5.552   2.105   0.785 -0.3858  0.9279  0.5372
 1505TIP3   OH2 4520   1.718   3.052   1.119  0.0393  0.1640 -0.0557
 1505TIP3    H1 4521   1.654   2.983   1.102 -0.7911  0.8674  0.1339
 1505TIP3    H2 4522   1.665   3.130   1.133  0.8797  0.5159  1.3498
 1506TIP3   OH2 4523   3.003   0.951   2.440 -0.2686  0.6336  0.0809
 1506TIP3    H1 4524   3.000   0.995   2.355 -1.7878  0.9904  0.2872
 1506TIP3    H2 4525   2.927   0.894   2.440 -0.6030  1.0390  1.4083
 1507TIP3   OH2 4526   2.196   0.475   2.656  0.7877  0.5967 -0.2167
 1507TIP3    H1 4527   2.134   0.480   2.728 -0.8237 -0.6113 -1.4549
 1507TIP3    H2 4528   2.245   0.395   2.671 -0.7513 -0.6108 -1.3137
 1508TIP3   OH2 4529   3.329   3.429   3.616  0.0812 -0.0527  0.0789
 1508TIP3    H1 4530   3.292   3.365   3.677 -1.0785 -0.1784 -0.7190
 1508TIP3    H2 4531   3.404   3.466   3.662 -0.3880 -0.6032  1.3243
 1509TIP3   OH2 4532   0.349   1.998   3.719  0.2921 -0.1074 -0.3833
 1509TIP3    H1 4533   0.388   1.934   3.778  1.6032 -0.0051 -1.0823
 1509TIP3    H2 4534   0.415   2.068   3.714 -0.6502  0.7925 -0.4571
 1510TIP3   OH2 4535   1.370   4.982   0.784  0.4038 -0.3007 -0.2168
 1510TIP3    H1 4536   1.283   4.962   0.820  0.2682 -0.0905 -0.4283
 1510TIP3    H2 4537   1.430   4.967   0.857  0.2210 -0.7259 -0.1508
 1511TIP3   OH2 4538   3.138   4.563   1.884  0.1592  0.3391 -0.4547
 1511TIP3    H1 4539   3.202   4.553   1.813  0.4708 -0.1975 -0.1048
 1511TIP3    H2 4540   3.081   4.635   1.855 -0.0145 -0.1880 -1.4578
 1512TIP3   OH2 4541   3.060   3.437   0.143 -0.0860 -0.2471 -0.1563
 1512TIP3    H1 4542   2.976   3.477   0.164 -0.2279  0.7391 -2.3171
 1512TIP3    H2 4543   3.117   3.511   0.120  1.6805 -0.8060  2.0149
 1513TIP3   OH2 4544   6.157   3.276   4.014  0.0073 -0.0012  0.3512
 1513TIP3    H1 4545   6.181   3.368   4.027 -0.8703  0.0139  2.1735
 1513TIP3    H2 4546   6.159   3.263   3.919 -1.2730  2.2993 -0.0514
 1514TIP3   OH2 4547   3.607   2.137   0.064 -0.3482  0.1105 -0.0911
 1514TIP3    H1 4548   3.696   2.129   0.100 -0.1263 -0.1206 -0.6876
 1514TIP3    H2 4549   3.555   2.077   0.116 -0.4016  1.0910  1.0392
 1515TIP3   OH2 4550   2.679   1.841   1.769  0.5039 -0.3703  0.6264
 1515TIP3    H1 4551   2.613   1.910   1.771  0.1240 -0.5809 -1.7402
 1515TIP3    H2 4552   2.763   1.887   1.766  0.2543  0.0623 -0.8676
 1516TIP3   OH2 4553   5.141   2.753   2.883 -0.5015 -0.0291  0.4648
 1516TIP3    H1 4554   5.233   2.778   2.890 -0.2746 -0.0167 -1.8199
 1516TIP3    H2 4555   5.133   2.678   2.942  0.9294  0.0319  0.7897
 1517TIP3   OH2 4556   3.071   1.837   1.933 -0.6184  0.2703  0.2778
 1517TIP3    H1 4557   3.132   1.877   1.871 -0.8886  1.4008  0.7259
 1517TIP3    H2 4558   3.041   1.758   1.888  0.5165  0.1464 -0.2998
 1518TIP3   OH2 4559   5.621   0.134   2.525  0.3328 -0.2009 -0.3421
 1518TIP3    H1 4560   5.698   0.190   2.527 -0.3410  0.7318  1.3633
 1518TIP3    H2 4561   5.604   0.119   2.432  2.3075 -0.0975 -0.7565
 1519TIP3   OH2 4562   5.408   3.125   3.419  0.0350  0.3315  0.2456
 1519TIP3    H1 4563   5.364   3.157   3.498 -0.8811  2.0869 -0.9167
 1519TIP3    H2 4564   5.337   3.087   3.367  0.8096 -1.8892  0.7217
 1520TIP3   OH2 4565   0.786   4.048   2.668 -0.2736  0.1091  0.0474
 1520TIP3    H1 4566   0.746   3.963   2.647  0.5505 -0.6140  1.2751
 1520TIP3    H2 4567   0.849   4.028   2.737 -0.6412  1.8589  0.9457
 1521TIP3   OH2 4568   5.887   1.043   2.923  0.5269 -0.4469  0.7088
 1521TIP3    H1 4569   5.941   1.065   2.847  0.1341  2.4777  1.1596
 1521TIP3    H2 4570   5.940   1.069   2.999  0.3608 -2.0292  1.3999
 1522TIP3   OH2 4571   5.751   0.328   1.843 -0.1132 -0.0779 -0.5889
 1522TIP3    H1 4572   5.687   0.258   1.852 -0.6512  0.2674 -1.6198
 1522TIP3    H2 4573   5.806   0.302   1.769  1.1898 -0.5409  0.4888
 1523TIP3   OH2 4574   6.090   0.890   1.892  0.4612  0.1022 -0.5344
 1523TIP3    H1 4575   6.019   0.861   1.949  1.8016  1.4588  2.0031
 1523TIP3    H2 4576   6.046   0.922   1.813 -1.6157 -0.5437  0.2987
 1524TIP3   OH2 4577   1.725   2.039   0.468  0.4449 -0.3506 -0.0312
 1524TIP3    H1 4578   1.634   2.070   0.464  0.2378 -0.7893  1.0432
 1524TIP3    H2 4579   1.774   2.114   0.501  0.4258 -0.2218 -0.2895
 1525TIP3   OH2 4580   2.662   5.788   0.389  0.4098  0.1726  0.1878
 1525TIP3    H1 4581   2.714   5.820   0.316  1.9720 -1.4955  0.4861
 1525TIP3    H2 4582   2.592   5.738   0.347 -0.8952  2.2180 -0.2085
 1526TIP3   OH2 4583   5.193   4.774   4.611  0.0355 -0.5333  0.2158
 1526TIP3    H1 4584   5.158   4.863   4.609 -2.4434 -1.4170 -1.8718
 1526TIP3    H2 4585   5.251   4.769   4.535  0.4664 -0.6062  0.5461
 1527TIP3   OH2 4586   2.664   0.416   3.809  0.1177  0.0221  0.0268
 1527TIP3    H1 4587   2.747   0.448   3.773 -0.2773  0.6273 -0.3619
 1527TIP3    H2 4588   2.682   0.325   3.832  1.0121  0.2611  0.3388
 1528TIP3   OH2 4589   2.477   1.495   1.044  0.4724  0.2535  0.6730
 1528TIP3    H1 4590   2.422   1.562   1.003  0.7485  0.3317  0.4225
 1528TIP3    H2 4591   2.543   1.475   0.977  0.5613 -0.0609  0.8557
 1529TIP3   OH2 4592   4.529   0.136   0.142  0.7584 -0.0740 -0.4949
 1529TIP3    H1 4593   4.460   0.099   0.197  1.5684 -0.0560  0.5665
 1529TIP3    H2 4594   4.599   0.159   0.204  1.0992  1.3286 -1.3667
 1530TIP3   OH2 4595   4.265   3.520   3.057 -0.4638  0.5830 -0.0488
 1530TIP3    H1 4596   4.327   3.552   2.991 -0.1384 -0.7375 -0.4067
 1530TIP3    H2 4597   4.316   3.460   3.111 -1.3381 -0.2429 -0.1168
 1531TIP3   OH2 4598   3.173   5.773   4.922 -0.1829  0.0289 -0.1664
 1531TIP3    H1 4599   3.224   5.755   5.001 -0.9542  1.4703  0.7165
 1531TIP3    H2 4600   3.134   5.859   4.939  0.3224  0.7674 -2.4893
 1532TIP3   OH2 4601   2.112   3.288   1.883  0.2576  0.2653 -0.3288
 1532TIP3    H1 4602   2.072   3.292   1.969  1.6898 -0.5135  0.4118
 1532TIP3    H2 4603   2.111   3.378   1.851 -1.0270  0.4287  0.1273
 1533TIP3   OH2 4604   0.934   4.369   2.435  0.1042 -0.2367  0.0312
 1533TIP3    H1 4605   0.885   4.364   2.353 -0.7369  2.5482  0.2519
 1533TIP3    H2 4606   1.020   4.332   2.414 -0.5083 -0.7530 -1.7181
 1534TIP3   OH2 4607   4.159   3.489   2.452  0.2056  0.0034 -0.5574
 1534TIP3    H1 4608   4.065   3.497   2.464  0.0107 -1.9442 -0.4953
 1534TIP3    H2 4609   4.196   3.504   2.539 -0.0415  0.6911 -0.5679
 1535TIP3   OH2 4610   0.873   0.457   2.683 -0.5200 -0.4162 -0.0396
 1535TIP3    H1 4611   0.833   0.374   2.709 -2.8745  0.8631  0.6727
 1535TIP3    H2 4612   0.878   0.453   2.587 -1.8045 -0.8740 -0.0965
 1536TIP3   OH2 4613   1.129   2.730   3.193 -0.6918 -0.6888  0.6353
 1536TIP3    H1 4614   1.190   2.706   3.263  2.2907 -1.0416 -1.8758
 1536TIP3    H2 4615   1.135   2.658   3.130 -0.9668  0.9477 -1.3708
 1537TIP3   OH2 4616   1.678   1.027   0.494 -0.2826 -0.1253  0.4237
 1537TIP3    H1 4617   1.730   1.065   0.566 -0.5016 -0.3612  0.7117
 1537TIP3    H2 4618   1.662   0.937   0.522 -2.2910  0.3894  1.1689
 1538TIP3   OH2 4619   4.234   5.442   0.888  0.1589 -0.4336 -0.2488
 1538TIP3    H1 4620   4.160   5.383   0.872 -1.4321  1.4003 -0.0227
 1538TIP3    H2 4621   4.290   5.431   0.811 -0.9036 -1.0590 -0.9596
 1539TIP3   OH2 4622   6.309   0.131   1.442  0.2164 -0.4497 -0.3271
 1539TIP3    H1 4623   6.302   0.206   1.501 -1.1386 -0.2335 -0.7163
 1539TIP3    H2 4624   6.341   0.168   1.360  0.4958 -0.4693 -0.2281
 1540TIP3   OH2 4625   3.205   5.012   1.246 -0.2600 -0.1320  0.1087
 1540TIP3    H1 4626   3.125   5.062   1.229 -0.0764 -0.0116 -0.4118
 1540TIP3    H2 4627   3.176   4.921   1.245 -0.8240 -0.0431  2.2321
 1541TIP3   OH2 4628   2.672   5.393   0.913  0.3969 -0.5547  0.5050
 1541TIP3    H1 4629   2.588   5.349   0.898  0.9497 -1.4976  0.1460
 1541TIP3    H2 4630   2.700   5.362   0.999  2.3561 -3.5475 -1.0768
 1542TIP3   OH2 4631   5.149   5.832   3.260  0.1570 -0.7267  0.2641
 1542TIP3    H1 4632   5.115   5.766   3.198  0.9478 -1.5502  0.6898
 1542TIP3    H2 4633   5.238   5.849   3.230 -0.5253  1.3845 -0.8072
 1543TIP3   OH2 4634   5.264   5.856   1.065  0.0985 -0.1548  0.1779
 1543TIP3    H1 4635   5.212   5.862   0.985  0.1063 -1.1637  0.0860
 1543TIP3    H2 4636   5.224   5.920   1.124  0.8501  1.4721 -1.0158
 1544TIP3   OH2 4637   4.391   5.595   1.990 -0.6331  0.5249  0.2530
 1544TIP3    H1 4638   4.307   5.639   1.981 -0.9187 -0.0851 -0.1311
 1544TIP3    H2 4639   4.456   5.665   1.991 -1.2729  1.2144  2.9827
 1545TIP3   OH2 4640   3.417   3.846   0.886 -0.0121 -0.3215  0.1367
 1545TIP3    H1 4641   3.464   3.906   0.828  2.2942 -0.6537  1.5493
 1545TIP3    H2 4642   3.347   3.899   0.924  0.2124  0.6619 -0.7755
 1546TIP3   OH2 4643   0.813   5.436   0.814 -0.1416  0.1462  0.1715
 1546TIP3    H1 4644   0.837   5.351   0.852  1.7875  0.3923 -0.3970
 1546TIP3    H2 4645   0.880   5.452   0.748 -0.1806  2.3525  0.6146
 1547TIP3   OH2 4646   3.765   1.006   3.766  0.0465 -0.4980  0.1652
 1547TIP3    H1 4647   3.801   0.966   3.687 -1.2084  2.3513 -2.0244
 1547TIP3    H2 4648   3.711   0.938   3.806 -0.5959 -1.5410 -2.3488
 1548TIP3   OH2 4649   2.873   1.204   0.476 -0.4310 -0.2473  0.4041
 1548TIP3    H1 4650   2.786   1.184   0.442  0.0510 -0.3770 -0.7860
 1548TIP3    H2 4651   2.933   1.174   0.408  0.4268  3.3103 -0.6171
 1549TIP3   OH2 4652   2.504   4.265   1.126 -0.2624 -0.2864  0.2537
 1549TIP3    H1 4653   2.481   4.192   1.069 -0.9061  1.4028 -1.8025
 1549TIP3    H2 4654   2.431   4.272   1.188 -0.0904 -1.4811  0.6023
 1550TIP3   OH2 4655   3.550   5.298   3.587 -0.8522 -0.4278  0.1864
 1550TIP3    H1 4656   3.495   5.274   3.512 -0.5860 -1.6472  0.3656
 1550TIP3    H2 4657   3.640   5.294   3.554 -0.8244  1.9892 -0.2259
 1551TIP3   OH2 4658   0.406   3.250   3.732 -0.2611  0.2046 -0.2355
 1551TIP3    H1 4659   0.335   3.229   3.673  0.4132  0.0328 -1.0035
 1551TIP3    H2 4660   0.466   3.304   3.680 -1.2378  2.9168  1.2251
 1552TIP3   OH2 4661   5.440   5.073   4.664 -0.1718  0.1520  0.1066
 1552TIP3    H1 4662   5.524   5.085   4.707  0.0491  0.1587 -0.3266
 1552TIP3    H2 4663   5.394   5.008   4.718  0.5308 -0.6565 -0.2414
 1553TIP3   OH2 4664   4.014   5.249   0.954  0.1128 -0.1979 -0.1240
 1553TIP3    H1 4665   4.027   5.183   1.023 -0.4993 -0.3195 -0.1171
 1553TIP3    H2 4666   3.925   5.281   0.969  0.0471 -0.0823 -0.7402
 1554TIP3   OH2 4667   3.919   0.883   2.626 -0.3870 -0.5004  0.4982
 1554TIP3    H1 4668   4.000   0.836   2.647 -0.2121  0.3099  1.8396
 1554TIP3    H2 4669   3.949   0.967   2.590 -0.6625 -0.8089 -0.4570
 1555TIP3   OH2 4670   0.399   1.666   3.798 -0.3847  0.1171 -0.2278
 1555TIP3    H1 4671   0.455   1.593   3.771 -0.5858  0.2367 -1.0104
 1555TIP3    H2 4672   0.433   1.693   3.883 -0.7821 -1.3874  0.4531
 1556TIP3   OH2 4673   0.833   3.354   0.646 -0.4203 -0.6677 -0.1255
 1556TIP3    H1 4674   0.809   3.372   0.555 -1.7136  0.1959  0.3613
 1556TIP3    H2 4675   0.815   3.261   0.657  0.5015 -0.9635 -0.9598
 1557TIP3   OH2 4676   5.163   4.206   0.234  0.2633 -0.0877  0.3157
 1557TIP3    H1 4677   5.141   4.113   0.233  1.2833 -0.4196  2.4969
 1557TIP3    H2 4678   5.250   4.210   0.194 -0.1382  0.0598 -0.5563
 1558TIP3   OH2 4679   4.538   4.551   4.488 -0.8253 -0.1257 -0.2030
 1558TIP3    H1 4680   4.565   4.463   4.465 -0.1758  0.0692 -0.2064
 1558TIP3    H2 4681   4.450   4.541   4.525 -1.2243 -0.6318 -1.2485
 1559TIP3   OH2 4682   5.500   5.001   4.126  0.0509 -0.3014  0.2234
 1559TIP3    H1 4683   5.585   5.042   4.137 -0.3830  0.7306 -0.1147
 1559TIP3    H2 4684   5.460   5.004   4.214  0.3533 -0.7706  0.3777
 1560TIP3   OH2 4685   4.027   1.549   1.324 -0.1632 -0.1783 -0.1244
 1560TIP3    H1 4686   3.972   1.514   1.254  1.6843 -3.1671 -0.2365
 1560TIP3    H2 4687   4.031   1.480   1.389  1.2876  1.0091  1.1381
 1561TIP3   OH2 4688   6.030   3.775   4.393  0.8559  0.2730  0.2337
 1561TIP3    H1 4689   6.020   3.773   4.297 -0.5189 -2.0757  0.3477
 1561TIP3    H2 4690   5.942   3.764   4.426  1.5933 -2.0494  1.6886
 1562TIP3   OH2 4691   6.066   0.439   1.142 -0.2413 -0.7167  0.1282
 1562TIP3    H1 4692   6.084   0.345   1.143  0.9258 -0.6362 -2.8372
 1562TIP3    H2 4693   6.149   0.479   1.170 -0.2238 -0.5695 -0.1293
 1563TIP3   OH2 4694   2.343   3.733   2.802 -0.2939  0.3970 -0.0272
 1563TIP3    H1 4695   2.354   3.813   2.854  2.1340  1.1378 -1.5363
 1563TIP3    H2 4696   2.432   3.708   2.777 -1.1733 -1.5412 -1.4610
 1564TIP3   OH2 4697   3.640   1.414   0.855  0.2032  0.1826 -0.3725
 1564TIP3    H1 4698   3.691   1.334   0.839  1.3958  1.3350 -2.9993
 1564TIP3    H2 4699   3.705   1.479   0.883 -0.7812  0.2690  1.9321
 1565TIP3   OH2 4700   0.417   0.502   0.111  0.2206 -0.2236  0.0295
 1565TIP3    H1 4701   0.446   0.411   0.107  3.0844  0.5093  1.3558
 1565TIP3    H2 4702   0.395   0.525   0.021  0.9540 -1.7887 -0.5762
 1566TIP3   OH2 4703   4.919   3.912   1.527 -0.0472  0.0053 -0.6213
 1566TIP3    H1 4704   4.972   3.984   1.491  0.2685  0.6065  0.9739
 1566TIP3    H2 4705   4.983   3.847   1.554 -0.3248 -0.8101 -1.8378
 1567TIP3   OH2 4706   4.650   1.390   0.244  0.3476 -0.4352  0.2470
 1567TIP3    H1 4707   4.624   1.410   0.154 -0.8618 -1.3096  0.3876
 1567TIP3    H2 4708   4.570   1.361   0.287  1.1513 -1.1964  1.2841
 1568TIP3   OH2 4709   0.486   1.898   2.273 -0.3225  0.2935 -0.4035
 1568TIP3    H1 4710   0.557   1.874   2.333 -0.1655  3.0640  0.6521
 1568TIP3    H2 4711   0.512   1.859   2.189  1.1597 -0.8421  0.5186
 1569TIP3   OH2 4712   4.914   0.969   2.254 -0.3132  0.2046  0.5469
 1569TIP3    H1 4713   4.936   0.875   2.259 -2.8083 -0.8593 -3.7839
 1569TIP3    H2 4714   4.999   1.012   2.241  0.6819 -1.7006  0.2399
 1570TIP3   OH2 4715   2.499   4.894   1.316  0.3422  0.1805 -0.5703
 1570TIP3    H1 4716   2.445   4.819   1.340  0.3513  0.6793  1.1959
 1570TIP3    H2 4717   2.557   4.862   1.248  0.4102 -1.4529  0.2047
 1571TIP3   OH2 4718   5.282   5.180   1.039  0.0676  0.2845  0.0985
 1571TIP3    H1 4719   5.232   5.230   1.104 -1.6138 -0.9289 -0.1692
 1571TIP3    H2 4720   5.233   5.097   1.030  3.1133 -1.7957  1.0907
 1572TIP3   OH2 4721   3.275   0.903   0.332 -0.2107 -0.4517 -0.2216
 1572TIP3    H1 4722   3.345   0.916   0.396 -0.4163  1.1356 -0.2925
 1572TIP3    H2 4723   3.321   0.883   0.250  0.0806 -1.4172  0.1629
 1573TIP3   OH2 4724   6.211   2.406   2.949 -0.3955 -0.0110 -0.1690
 1573TIP3    H1 4725   6.163   2.343   3.004 -1.6106  2.0321  1.2308
 1573TIP3    H2 4726   6.157   2.484   2.948  1.4031  1.3042 -1.2428
 1574TIP3   OH2 4727   3.066   1.029   4.147 -0.0825 -0.0319 -0.3958
 1574TIP3    H1 4728   3.109   1.109   4.116 -1.3757  1.1444  0.6811
 1574TIP3    H2 4729   2.976   1.038   4.118 -1.1639  0.7283  2.7697
 1575TIP3   OH2 4730   0.110   0.335   3.728 -0.3092 -0.2580  0.0203
 1575TIP3    H1 4731   0.138   0.246   3.750  1.1666 -0.2308 -1.5352
 1575TIP3    H2 4732   0.089   0.331   3.635  3.2734  1.7173 -1.0842
 1576TIP3   OH2 4733   2.398   3.525   3.384  0.0718  0.4394  0.0002
 1576TIP3    H1 4734   2.473   3.512   3.441 -0.2001 -0.4531  0.1807
 1576TIP3    H2 4735   2.420   3.601   3.330  1.1784  0.0733 -0.0787
 1577TIP3   OH2 4736   0.976   1.471   5.082  0.2848  0.1857  0.0737
 1577TIP3    H1 4737   0.901   1.457   5.024  1.5177 -0.6506 -1.4137
 1577TIP3    H2 4738   1.043   1.410   5.050  1.1752 -0.0357  2.1779
 1578TIP3   OH2 4739   1.071   4.780   2.303  0.1563 -0.8797 -0.2524
 1578TIP3    H1 4740   1.063   4.729   2.384  1.2221 -0.2024  0.3139
 1578TIP3    H2 4741   1.165   4.783   2.286 -0.1040 -1.7967 -2.0580
 1579TIP3   OH2 4742   3.893   1.789   4.849 -0.0262  0.3714 -0.0129
 1579TIP3    H1 4743   3.853   1.855   4.905 -1.6662 -0.1674 -0.5003
 1579TIP3    H2 4744   3.870   1.705   4.890 -1.2873 -0.0372 -1.4508
 1580TIP3   OH2 4745   2.408   3.955   2.197 -0.3722  0.6067  0.7639
 1580TIP3    H1 4746   2.413   3.866   2.161  0.6941  0.0774  2.1404
 1580TIP3    H2 4747   2.475   3.957   2.265  0.2582  2.7744  0.1567
 1581TIP3   OH2 4748   3.485   3.193   4.869 -0.0752 -0.4491  0.4612
 1581TIP3    H1 4749   3.573   3.163   4.846  0.9298  1.5536  1.4446
 1581TIP3    H2 4750   3.470   3.267   4.811 -0.1408  0.6527  1.8499
 1582TIP3   OH2 4751   2.768   1.619   3.990 -0.1736  0.1934 -0.7140
 1582TIP3    H1 4752   2.725   1.654   4.068  0.2179  1.8892 -1.2199
 1582TIP3    H2 4753   2.708   1.551   3.958  1.1096 -2.9551  2.8098
 1583TIP3   OH2 4754   0.681   0.342   2.202  0.1507  0.2747 -0.1577
 1583TIP3    H1 4755   0.769   0.331   2.167 -0.4900 -0.5332 -1.6102
 1583TIP3    H2 4756   0.647   0.421   2.159  0.5908  1.3788  1.4073
 1584TIP3   OH2 4757   4.220   2.688   2.960  0.3267 -0.2085  0.2422
 1584TIP3    H1 4758   4.168   2.702   3.039 -0.5336 -2.5751  0.1707
 1584TIP3    H2 4759   4.160   2.710   2.888  0.8983  1.3054  0.1939
 1585TIP3   OH2 4760   3.611   3.207   3.393 -0.3637 -0.3135 -0.2174
 1585TIP3    H1 4761   3.672   3.260   3.341 -0.9958  2.3999  1.5442
 1585TIP3    H2 4762   3.528   3.255   3.387 -2.0192 -3.0989 -1.3380
 1586TIP3   OH2 4763   1.421   1.858   1.373 -0.0325  0.3133 -0.0040
 1586TIP3    H1 4764   1.408   1.951   1.354 -0.4366  0.1420 -0.5990
 1586TIP3    H2 4765   1.431   1.854   1.468 -4.4282  0.4770  0.6804
 1587TIP3   OH2 4766   4.579   1.471   4.463  0.6479  0.3412  0.1574
 1587TIP3    H1 4767   4.566   1.379   4.440  1.7072  0.1532  0.2994
 1587TIP3    H2 4768   4.557   1.475   4.557  0.3379  0.2947  0.0897
 1588TIP3   OH2 4769   5.919   2.871   0.987  0.0398 -0.3692 -0.1912
 1588TIP3    H1 4770   5.857   2.811   1.028  0.2104 -0.1014  0.4636
 1588TIP3    H2 4771   5.960   2.818   0.918  0.1841 -1.0217  0.3725
 1589TIP3   OH2 4772   5.625   5.232   1.685  0.2205  0.2677  0.2680
 1589TIP3    H1 4773   5.572   5.255   1.761 -0.4656 -0.0445 -0.1065
 1589TIP3    H2 4774   5.680   5.309   1.669 -2.9814  2.3904 -1.8141
 1590TIP3   OH2 4775   5.142   2.523   3.109 -0.0634  0.5201  0.4590
 1590TIP3    H1 4776   5.047   2.539   3.114 -0.4439 -1.3600  0.2580
 1590TIP3    H2 4777   5.150   2.452   3.045  1.5819  1.2161 -0.1516
 1591TIP3   OH2 4778   4.690   1.208   5.112 -0.0207 -0.1307  0.1161
 1591TIP3    H1 4779   4.608   1.163   5.088 -0.5547  0.8887 -0.0322
 1591TIP3    H2 4780   4.679   1.229   5.205 -0.4041  0.9356 -0.1479
 1592TIP3   OH2 4781   2.275   4.633   5.143  0.0145  0.1829 -0.0683
 1592TIP3    H1 4782   2.300   4.720   5.172  1.5106 -0.6010  1.1739
 1592TIP3    H2 4783   2.224   4.647   5.063 -1.5359  2.2778  1.2037
 1593TIP3   OH2 4784   2.059   3.898   4.112 -0.1413 -1.0715 -0.3318
 1593TIP3    H1 4785   2.141   3.924   4.071 -1.4486  1.3055 -1.6920
 1593TIP3    H2 4786   2.040   3.812   4.075  0.5439 -0.5732 -1.9471
 1594TIP3   OH2 4787   1.902   4.786   1.927  0.0709 -0.5685  1.1631
 1594TIP3    H1 4788   1.925   4.805   1.836  0.1417  0.0587  1.3092
 1594TIP3    H2 4789   1.817   4.743   1.921  0.0283 -0.4410  0.8104
 1595TIP3   OH2 4790   6.279   2.749   0.706  0.1169  0.1889  0.3244
 1595TIP3    H1 4791   6.223   2.739   0.628 -0.1811  2.2091  0.2198
 1595TIP3    H2 4792   6.286   2.844   0.718  1.7441 -0.0583  1.6460
 1596TIP3   OH2 4793   4.519   1.191   1.688 -0.2132  0.0803 -0.3071
 1596TIP3    H1 4794   4.483   1.271   1.648  1.8880  0.6136 -1.2544
 1596TIP3    H2 4795   4.614   1.202   1.684  0.1352 -2.2260  0.0707
 1597TIP3   OH2 4796   0.530   0.525   2.070 -0.1311  0.1605  0.0106
 1597TIP3    H1 4797   0.436   0.510   2.078 -0.0933  0.7735  2.4819
 1597TIP3    H2 4798   0.545   0.609   2.113  1.6196 -0.2916  0.3723
 1598TIP3   OH2 4799   4.175   1.574   1.601 -0.6213 -0.3574 -0.1147
 1598TIP3    H1 4800   4.157   1.613   1.516 -0.6566 -0.4793 -0.1638
 1598TIP3    H2 4801   4.090   1.542   1.631 -0.3992 -1.4738 -0.6194
 1599TIP3   OH2 4802   5.336   2.828   1.470 -0.5111  0.4272 -0.1148
 1599TIP3    H1 4803   5.399   2.757   1.476 -1.1463 -0.1872 -0.4683
 1599TIP3    H2 4804   5.345   2.876   1.552  0.3802  0.3331 -0.1475
 1600TIP3   OH2 4805   5.811   0.147   2.830 -0.4615  0.0540  0.0037
 1600TIP3    H1 4806   5.718   0.169   2.835 -0.2790  0.6059  1.6016
 1600TIP3    H2 4807   5.851   0.224   2.789 -0.6353  0.0869 -0.1045
 1601TIP3   OH2 4808   4.295   3.443   0.371 -0.0401 -0.2029  0.3618
 1601TIP3    H1 4809   4.391   3.439   0.373 -0.0140  0.5387  1.5204
 1601TIP3    H2 4810   4.267   3.360   0.410  0.0114 -2.2034 -3.4034
 1602TIP3   OH2 4811   0.492   2.313   0.819 -1.0478  0.0071 -0.3620
 1602TIP3    H1 4812   0.581   2.282   0.833 -0.5018  0.7919 -1.8787
 1602TIP3    H2 4813   0.444   2.284   0.896  0.2573 -1.3921 -0.0289
 1603TIP3   OH2 4814   0.416   3.821   2.692  0.4164  0.0205 -0.1306
 1603TIP3    H1 4815   0.445   3.779   2.611  0.2915  1.0167 -0.7051
 1603TIP3    H2 4816   0.448   3.911   2.686 -1.2188  0.6525  0.0388
 1604TIP3   OH2 4817   4.135   5.933   0.653 -0.4134  0.5225 -0.1812
 1604TIP3    H1 4818   4.227   5.913   0.638 -0.4480 -1.3678  1.6461
 1604TIP3    H2 4819   4.122   6.019   0.614  1.9082  0.4822 -1.1861
 1605TIP3   OH2 4820   3.033   3.349   1.955 -0.0443 -0.3075  0.3251
 1605TIP3    H1 4821   3.060   3.430   1.998 -1.3625  1.9430 -2.6913
 1605TIP3    H2 4822   2.968   3.311   2.013 -0.1893  1.3948  1.3505
 1606TIP3   OH2 4823   1.683   0.839   3.952 -0.1888  0.1630 -0.9031
 1606TIP3    H1 4824   1.609   0.834   4.012 -1.4031  0.1565 -2.3222
 1606TIP3    H2 4825   1.724   0.753   3.955 -2.6163 -1.2021 -2.8940
 1607TIP3   OH2 4826   0.895   2.219   0.086 -0.1191 -0.5242 -0.4006
 1607TIP3    H1 4827   0.801   2.204   0.076 -0.2553  0.7691 -1.2989
 1607TIP3    H2 4828   0.912   2.204   0.179 -1.9521  2.7383  0.6295
 1608TIP3   OH2 4829   0.531   3.752   0.087 -0.1030  0.1492  0.2885
 1608TIP3    H1 4830   0.457   3.695   0.064  0.5733 -0.8058  0.4335
 1608TIP3    H2 4831   0.492   3.821   0.140 -0.9421 -0.1736  0.1110
 1609TIP3   OH2 4832   0.978   2.697   5.029 -0.4788 -0.3570 -0.5476
 1609TIP3    H1 4833   0.963   2.791   5.030 -0.0453 -0.2736 -1.3167
 1609TIP3    H2 4834   1.036   2.682   4.955  0.9928 -0.9966  0.6684
 1610TIP3   OH2 4835   6.081   1.127   1.100  0.3007  0.2836 -0.5678
 1610TIP3    H1 4836   6.029   1.152   1.177  1.9033 -0.3024  0.7680
 1610TIP3    H2 4837   6.129   1.207   1.077  1.6799 -0.1486  0.6294
 1611TIP3   OH2 4838   1.251   3.815   1.170 -0.0405 -0.1320 -0.4334
 1611TIP3    H1 4839   1.243   3.812   1.266  1.6805 -0.7599 -0.2774
 1611TIP3    H2 4840   1.229   3.726   1.142 -0.0232 -0.0952 -0.5616
 1612TIP3   OH2 4841   5.264   0.104   2.302 -0.1407  0.4186 -0.6698
 1612TIP3    H1 4842   5.228   0.032   2.355 -0.0502 -0.0447 -1.2328
 1612TIP3    H2 4843   5.296   0.167   2.367  0.3235 -0.3166 -0.1558
 1613TIP3   OH2 4844   0.234   5.424   3.047  0.3273  0.1161  0.2908
 1613TIP3    H1 4845   0.284   5.466   3.117  1.2211 -2.1969  1.1339
 1613TIP3    H2 4846   0.143   5.447   3.064  0.5959  0.0810  1.8616
 1614TIP3   OH2 4847   2.314   1.931   2.337  0.0434  0.4096  0.0770
 1614TIP3    H1 4848   2.366   1.978   2.272 -0.0626 -0.2076 -0.4627
 1614TIP3    H2 4849   2.223   1.950   2.314  0.0070  0.3848  0.1958
 1615TIP3   OH2 4850   0.094   0.103   2.047  0.1375 -0.2840  0.1240
 1615TIP3    H1 4851   0.069   0.100   1.955 -0.3623  0.7215  0.2103
 1615TIP3    H2 4852   0.063   0.020   2.083  1.1215 -1.0752 -0.7829
 1616TIP3   OH2 4853   0.699   3.585   0.757  0.0258  0.6190  0.0381
 1616TIP3    H1 4854   0.610   3.560   0.778  0.1969 -0.7766 -0.7989
 1616TIP3    H2 4855   0.733   3.513   0.704  0.3216  2.8585 -3.0973
 1617TIP3   OH2 4856   3.428   2.004   0.314 -0.1914 -0.2401  0.7042
 1617TIP3    H1 4857   3.397   2.095   0.320 -3.0620 -1.1840  1.8994
 1617TIP3    H2 4858   3.350   1.953   0.298  1.4788 -2.5101 -0.8752
 1618TIP3   OH2 4859   1.399   0.973   4.308  0.0265 -0.8628  0.2171
 1618TIP3    H1 4860   1.477   0.989   4.255  0.7103 -2.7550  0.5963
 1618TIP3    H2 4861   1.328   1.010   4.257  0.9311 -0.7533 -1.0107
 1619TIP3   OH2 4862   2.454   4.558   0.020 -0.1785 -0.4845 -0.7215
 1619TIP3    H1 4863   2.545   4.561  -0.010 -0.6487 -0.3436 -2.2281
 1619TIP3    H2 4864   2.444   4.471   0.059  1.0135  0.0809  0.9512
 1620TIP3   OH2 4865   4.857   0.670   0.484 -1.0311  0.0362  0.3625
 1620TIP3    H1 4866   4.834   0.763   0.482 -1.9577 -0.1335  1.8220
 1620TIP3    H2 4867   4.809   0.632   0.409 -0.4039  0.7619 -0.4224
 1621TIP3   OH2 4868   0.748   2.089   2.290 -0.1387  0.6804  0.0401
 1621TIP3    H1 4869   0.791   2.151   2.232  0.1767  0.4230 -0.0048
 1621TIP3    H2 4870   0.817   2.027   2.314 -0.8442 -0.7182 -1.3521
 1622TIP3   OH2 4871   2.096   5.334   2.751  0.5035  0.4548  0.2594
 1622TIP3    H1 4872   2.015   5.284   2.739  1.3366 -0.9563  0.2086
 1622TIP3    H2 4873   2.091   5.403   2.686  0.0252 -0.5539 -0.8178
 1623TIP3   OH2 4874   4.074   3.971   2.896  0.3020 -0.0714 -0.0439
 1623TIP3    H1 4875   4.115   3.893   2.859 -1.0394 -0.6248 -0.4595
 1623TIP3    H2 4876   3.988   3.975   2.854 -0.4802  0.4533  1.5036
 1624TIP3   OH2 4877   1.672   0.023   2.642  0.4775 -0.3616 -0.3604
 1624TIP3    H1 4878   1.696   0.056   2.555 -0.7293  1.5143 -0.0286
 1624TIP3    H2 4879   1.584   0.058   2.657  0.0447 -1.9374  0.9996
 1625TIP3   OH2 4880   4.906   3.113   0.197  0.9022  0.1395 -0.1572
 1625TIP3    H1 4881   4.993   3.140   0.170  1.6339 -1.1570  0.7805
 1625TIP3    H2 4882   4.889   3.032   0.149  0.4024  0.1526 -0.0161
 1626TIP3   OH2 4883   1.165   5.832   3.589  0.2663 -0.2751  0.0600
 1626TIP3    H1 4884   1.104   5.824   3.516 -0.6955  1.0804  0.6640
 1626TIP3    H2 4885   1.240   5.778   3.564 -0.6223 -0.9519 -1.2864
 1627TIP3   OH2 4886   0.582   3.827   2.975  0.0085  0.2019  0.3277
 1627TIP3    H1 4887   0.659   3.882   2.965 -1.2131  2.1193  1.0431
 1627TIP3    H2 4888   0.603   3.769   3.048  1.1272 -0.0024 -0.1345
 1628TIP3   OH2 4889   6.362   5.676   3.412 -0.7067  0.0156 -0.1575
 1628TIP3    H1 4890   6.271   5.646   3.414 -0.5060 -0.6712 -0.7261
 1628TIP3    H2 4891   6.406   5.622   3.477 -0.9553  1.3043  1.1428
 1629TIP3   OH2 4892   3.351   2.675   4.013  0.2478  0.0370  0.0012
 1629TIP3    H1 4893   3.385   2.654   3.926 -0.3393  0.5705 -0.3630
 1629TIP3    H2 4894   3.414   2.737   4.049  0.0035  0.5270 -0.4131
 1630TIP3   OH2 4895   2.019   4.578   4.253 -0.1424 -0.1391 -0.0735
 1630TIP3    H1 4896   2.053   4.546   4.169  0.0044 -1.6802  0.5318
 1630TIP3    H2 4897   1.936   4.531   4.263 -1.4829  1.9944 -0.5446
 1631TIP3   OH2 4898   2.812   4.169   2.869 -0.0056  0.6557  0.5416
 1631TIP3    H1 4899   2.806   4.078   2.897 -2.1256  0.7580  0.5617
 1631TIP3    H2 4900   2.771   4.171   2.783 -1.4021  1.8223  1.1854
 1632TIP3   OH2 4901   5.379   3.053   1.019  0.4235 -0.5558 -0.2095
 1632TIP3    H1 4902   5.351   2.978   0.967 -1.3374 -0.2419  0.2321
 1632TIP3    H2 4903   5.302   3.110   1.023  1.1846  0.4447  0.9360
 1633TIP3   OH2 4904   1.049   1.226   4.095 -0.2573 -0.0366 -0.0387
 1633TIP3    H1 4905   1.102   1.213   4.016 -1.3484 -1.3188 -0.5992
 1633TIP3    H2 4906   1.081   1.158   4.155 -1.6184 -1.2503 -0.6113
 1634TIP3   OH2 4907   2.129   3.244   0.119 -0.9306 -0.2590 -0.1257
 1634TIP3    H1 4908   2.078   3.318   0.087 -0.3873  0.8983  1.5558
 1634TIP3    H2 4909   2.074   3.202   0.185 -0.2427  0.2247  0.7774
 1635TIP3   OH2 4910   6.267   2.572   5.131  0.4472 -0.4231  0.2225
 1635TIP3    H1 4911   6.320   2.525   5.195  0.2466  0.9974  1.4725
 1635TIP3    H2 4912   6.326   2.587   5.057  1.2417 -0.4778  0.8309
 1636TIP3   OH2 4913   4.704   4.259   0.652  0.2235 -0.3623  0.2668
 1636TIP3    H1 4914   4.643   4.208   0.598 -0.3595  1.1659 -0.5843
 1636TIP3    H2 4915   4.746   4.318   0.590 -1.3461  2.3160  1.5848
 1637TIP3   OH2 4916   2.669   4.404   0.223 -0.3432 -0.0402  0.0856
 1637TIP3    H1 4917   2.634   4.456   0.295  0.5084  0.4721  0.1321
 1637TIP3    H2 4918   2.713   4.467   0.166  3.5492 -0.9462  1.7640
 1638TIP3   OH2 4919   1.728   1.769   4.950  0.0444 -0.5749  0.0709
 1638TIP3    H1 4920   1.779   1.715   4.890 -2.1489 -1.5049 -1.0986
 1638TIP3    H2 4921   1.698   1.709   5.018 -1.0069 -0.5019 -0.3006
 1639TIP3   OH2 4922   0.642   0.597   3.491  0.1183  0.0475  0.3106
 1639TIP3    H1 4923   0.631   0.516   3.442 -1.5309 -0.0472  0.7902
 1639TIP3    H2 4924   0.572   0.596   3.556  1.3979  0.8321  1.7676
 1640TIP3   OH2 4925   4.502   3.202   1.899 -0.2373 -0.1104 -0.2222
 1640TIP3    H1 4926   4.459   3.205   1.985 -0.2420  0.0105 -0.2286
 1640TIP3    H2 4927   4.526   3.110   1.887 -1.2591 -0.3401 -0.5931
 1641TIP3   OH2 4928   1.737   0.572   3.935 -0.4414 -0.8712  0.5544
 1641TIP3    H1 4929   1.786   0.508   3.987 -2.0999 -3.2477 -0.6052
 1641TIP3    H2 4930   1.755   0.547   3.844  0.0593  1.3287 -0.0013
 1642TIP3   OH2 4931   1.262   1.901   1.140 -0.1274  0.1625 -0.5829
 1642TIP3    H1 4932   1.317   1.827   1.165  0.2188  0.8146  0.6626
 1642TIP3    H2 4933   1.293   1.925   1.052 -0.0572 -0.9714 -0.8857
 1643TIP3   OH2 4934   1.841   1.666   4.278 -0.0941  0.8920 -0.0586
 1643TIP3    H1 4935   1.895   1.612   4.220  3.3857  2.7028  1.2158
 1643TIP3    H2 4936   1.794   1.603   4.333  0.0909 -0.7874 -1.7377
 1644TIP3   OH2 4937   1.434   3.468   2.763  0.2996  0.2956  0.3909
 1644TIP3    H1 4938   1.425   3.384   2.807  0.6256 -0.1575 -0.3761
 1644TIP3    H2 4939   1.396   3.532   2.823  0.7254 -0.3015  1.3099
 1645TIP3   OH2 4940   2.107   0.640   0.680  0.4495  0.1293 -0.2358
 1645TIP3    H1 4941   2.070   0.650   0.767  2.9194 -0.3231  0.9529
 1645TIP3    H2 4942   2.058   0.567   0.641 -0.9594  0.6006  0.5718
 1646TIP3   OH2 4943   6.143   4.789   1.588 -0.0563  0.1839 -0.0730
 1646TIP3    H1 4944   6.176   4.816   1.674  1.9159  1.1769 -1.0681
 1646TIP3    H2 4945   6.050   4.809   1.591 -0.2829 -0.8730  2.2086
 1647TIP3   OH2 4946   0.311   3.022   2.435 -0.0837  0.3914  0.1309
 1647TIP3    H1 4947   0.242   3.088   2.431  0.1433  0.6005 -0.5980
 1647TIP3    H2 4948   0.375   3.050   2.370  2.1076  1.7393  2.6722
 1648TIP3   OH2 4949   6.336   0.691   0.923 -0.4795  0.4607  0.1433
 1648TIP3    H1 4950   6.314   0.674   1.015 -0.3683 -1.0136 -0.0730
 1648TIP3    H2 4951   6.309   0.612   0.877  0.7125  0.6261 -0.8909
 1649TIP3   OH2 4952   6.224   3.160   2.399 -0.1027  0.1024 -0.1772
 1649TIP3    H1 4953   6.304   3.156   2.347 -0.4038 -0.5687 -0.6064
 1649TIP3    H2 4954   6.211   3.253   2.417 -0.2363  0.4144 -1.7019
 1650TIP3   OH2 4955   3.332   0.261   3.396  0.1183  0.8509 -0.1207
 1650TIP3    H1 4956   3.296   0.267   3.485 -1.5639  2.9325 -0.8575
 1650TIP3    H2 4957   3.271   0.204   3.349 -0.3810  1.6668 -0.5009
 1651TIP3   OH2 4958   1.768   5.625   4.616  0.1752 -0.2836  0.4798
 1651TIP3    H1 4959   1.756   5.658   4.528 -0.1017  0.1289  0.6735
 1651TIP3    H2 4960   1.682   5.592   4.642 -0.1212  0.9802  1.1640
 1652TIP3   OH2 4961   6.130   5.890   4.177  0.3498  0.0879  0.4586
 1652TIP3    H1 4962   6.152   5.941   4.255  2.2013  0.4434 -0.2457
 1652TIP3    H2 4963   6.200   5.909   4.115 -1.5375  0.5386 -1.6655
 1653TIP3   OH2 4964   3.424   1.433   1.012  0.4950 -0.3871 -0.1647
 1653TIP3    H1 4965   3.493   1.435   0.945  0.4250 -1.1479 -0.2723
 1653TIP3    H2 4966   3.355   1.380   0.972  0.8167 -1.6265  0.8503
 1654TIP3   OH2 4967   3.348   2.273   3.151 -0.1127 -0.0311  0.7339
 1654TIP3    H1 4968   3.325   2.229   3.068  1.3473  0.3587  0.0965
 1654TIP3    H2 4969   3.280   2.245   3.212 -2.4997  1.3693 -1.1112
 1655TIP3   OH2 4970   0.434   4.328   3.232 -0.1319  0.5998 -0.8620
 1655TIP3    H1 4971   0.516   4.358   3.273  0.0886 -1.4974  0.3380
 1655TIP3    H2 4972   0.458   4.247   3.188 -1.2401  0.8331 -1.9281
 1656TIP3   OH2 4973   1.211   1.645   0.152 -0.0431  0.1026 -0.2340
 1656TIP3    H1 4974   1.192   1.574   0.212  2.1514 -0.1557  0.2568
 1656TIP3    H2 4975   1.290   1.617   0.106  0.4287  1.8715 -0.5942
 1657TIP3   OH2 4976   4.612   0.363   1.309  0.1164 -0.2184  0.3296
 1657TIP3    H1 4977   4.657   0.425   1.252  0.9595 -1.0500  0.0640
 1657TIP3    H2 4978   4.680   0.328   1.366 -0.3565 -0.8513  0.5212
 1658TIP3   OH2 4979   2.825   5.241   4.913 -0.1952  0.3131  0.4747
 1658TIP3    H1 4980   2.807   5.261   5.005  0.5826 -1.5859  1.1075
 1658TIP3    H2 4981   2.896   5.176   4.917 -2.1867 -2.1933 -1.2845
 1659TIP3   OH2 4982   4.964   5.595   2.312 -0.6173 -0.2843 -0.5051
 1659TIP3    H1 4983   5.008   5.538   2.374 -1.8123 -0.4310  0.2284
 1659TIP3    H2 4984   5.028   5.665   2.295  0.2824 -1.0245 -0.2716
 1660TIP3   OH2 4985   2.163   0.881   3.422 -0.1098 -0.0043 -0.2781
 1660TIP3    H1 4986   2.103   0.836   3.363  2.6654 -2.4136 -1.5244
 1660TIP3    H2 4987   2.177   0.818   3.494 -0.8334  1.5068  1.2690
 1661TIP3   OH2 4988   5.505   3.974   0.656  0.4348  0.3235  0.0436
 1661TIP3    H1 4989   5.457   4.024   0.721  1.4831  1.5058 -0.0531
 1661TIP3    H2 4990   5.506   4.030   0.578  0.6947 -0.3151 -0.4226
 1662TIP3   OH2 4991   4.674   3.518   3.043 -0.4155 -0.3270  0.3214
 1662TIP3    H1 4992   4.679   3.574   2.965  0.3355  1.5993  1.6681
 1662TIP3    H2 4993   4.638   3.575   3.111  1.2607 -1.1705  2.0055
 1663TIP3   OH2 4994   0.556   1.520   3.564 -0.7928  0.1685  0.0956
 1663TIP3    H1 4995   0.529   1.444   3.512 -1.9852 -0.5018  1.5883
 1663TIP3    H2 4996   0.553   1.593   3.503  0.8684 -1.0249 -1.5170
 1664TIP3   OH2 4997   4.408   3.217   3.809  0.0610  0.3080  0.0325
 1664TIP3    H1 4998   4.497   3.237   3.837  1.0735 -0.8235 -2.1310
 1664TIP3    H2 4999   4.404   3.247   3.718 -2.4645  2.2004  0.6681
 1665TIP3   OH2 5000   1.847   5.093   3.243 -0.4180 -0.2411 -0.0562
 1665TIP3    H1 5001   1.930   5.135   3.221 -1.3324  0.9959 -1.2792
 1665TIP3    H2 5002   1.859   5.001   3.217  1.5010 -0.8328  2.3802
 1666TIP3   OH2 5003   0.234   5.868   3.183 -0.3889 -0.1594 -0.3280
 1666TIP3    H1 5004   0.142   5.894   3.192  0.1253  1.3733  0.9573
 1666TIP3    H2 5005   0.254   5.824   3.266  0.7269  1.8715  0.5391
 1667TIP3   OH2 5006   5.776   5.505   3.990 -0.2432  0.2240  0.3506
 1667TIP3    H1 5007   5.822   5.577   3.946 -1.5307  0.7156 -0.2525
 1667TIP3    H2 5008   5.771   5.437   3.923 -2.9633  1.2901 -0.6779
 1668TIP3   OH2 5009   5.150   0.039   3.254  0.2893 -0.1810 -0.0146
 1668TIP3    H1 5010   5.060   0.006   3.252 -0.3221  1.1213  2.2874
 1668TIP3    H2 5011   5.188  -0.002   3.332  1.6041 -0.4027 -0.7365
 1669TIP3   OH2 5012   2.830   2.958   0.810  0.6642  0.5502  0.2737
 1669TIP3    H1 5013   2.815   2.906   0.890 -2.1359 -0.1381 -0.5819
 1669TIP3    H2 5014   2.755   2.938   0.754  1.9705  1.8806 -2.1059
 1670TIP3   OH2 5015   3.271   3.107   4.304  0.0125  0.0928 -0.3742
 1670TIP3    H1 5016   3.330   3.165   4.352 -0.4327  0.1307  0.1265
 1670TIP3    H2 5017   3.201   3.086   4.366  0.0230 -0.7625 -0.6315
 1671TIP3   OH2 5018   2.161   4.938   0.154 -0.6874  0.3591 -0.4192
 1671TIP3    H1 5019   2.074   4.917   0.121 -0.0454 -1.8799 -0.8427
 1671TIP3    H2 5020   2.201   4.992   0.086 -1.0805 -0.2124 -1.1132
 1672TIP3   OH2 5021   5.785   1.741   1.518  0.2819  0.2199 -0.3787
 1672TIP3    H1 5022   5.833   1.821   1.538 -0.7927  0.7121  0.3490
 1672TIP3    H2 5023   5.757   1.751   1.427  1.9403 -0.2939 -0.9671
 1673TIP3   OH2 5024   3.592   1.236   2.310  1.0530  0.0239  0.2934
 1673TIP3    H1 5025   3.496   1.238   2.319  0.7849 -0.7074 -1.9455
 1673TIP3    H2 5026   3.624   1.284   2.387 -1.1523  1.6393  0.2981
 1674TIP3   OH2 5027   0.313   0.319   0.412  0.4639  0.4512  0.1417
 1674TIP3    H1 5028   0.230   0.271   0.404  0.3208  0.4612  1.3874
 1674TIP3    H2 5029   0.369   0.282   0.344 -0.3757  0.0516 -0.3500
 1675TIP3   OH2 5030   3.591   3.661   3.681  0.1782 -0.1359 -0.3616
 1675TIP3    H1 5031   3.620   3.599   3.614 -0.2267  0.9557 -1.5931
 1675TIP3    H2 5032   3.672   3.699   3.716  0.3605  0.0537 -0.9844
 1676TIP3   OH2 5033   5.292   4.487   1.784  0.4502  0.7014 -0.3573
 1676TIP3    H1 5034   5.212   4.538   1.778 -1.0340 -1.1675  1.7076
 1676TIP3    H2 5035   5.341   4.528   1.856 -0.1197  0.0488  0.4176
 1677TIP3   OH2 5036   2.850   3.273   0.824 -0.2555  0.1510  0.6610
 1677TIP3    H1 5037   2.877   3.188   0.858  0.8657  0.6840  1.1541
 1677TIP3    H2 5038   2.820   3.255   0.735  0.7309 -0.6509  0.4769
 1678TIP3   OH2 5039   6.073   1.023   3.150  0.0866 -0.1288 -0.3785
 1678TIP3    H1 5040   6.124   1.022   3.232  1.6204  1.1583 -1.2637
 1678TIP3    H2 5041   6.120   0.964   3.092 -0.6498 -0.5498 -0.5664
 1679TIP3   OH2 5042   1.551   1.588   1.975  0.8077  0.0859  0.3920
 1679TIP3    H1 5043   1.613   1.615   2.043  0.0154 -0.5048  1.3769
 1679TIP3    H2 5044   1.471   1.568   2.023  0.2436 -0.3738 -0.7234
 1680TIP3   OH2 5045   0.846   3.831   3.094  0.1364  0.1435  0.1461
 1680TIP3    H1 5046   0.911   3.838   3.164 -0.8793  1.4325  1.0081
 1680TIP3    H2 5047   0.822   3.739   3.093  2.0075 -0.3796 -0.2518
 1681TIP3   OH2 5048   3.576   0.471   2.940  0.0368 -0.0030  0.1353
 1681TIP3    H1 5049   3.518   0.457   2.865 -0.8492 -1.8936  1.0918
 1681TIP3    H2 5050   3.536   0.419   3.011  0.8146  1.7503  1.9442
 1682TIP3   OH2 5051   2.199   2.198   4.918 -0.0350 -0.5340  0.3711
 1682TIP3    H1 5052   2.227   2.276   4.870  0.0695 -1.1580 -0.6205
 1682TIP3    H2 5053   2.105   2.210   4.932 -0.3300 -0.8899 -1.1107
 1683TIP3   OH2 5054   4.854   4.179   1.184 -0.0676  0.2112  0.2189
 1683TIP3    H1 5055   4.763   4.192   1.212  0.5671  2.5247  1.4129
 1683TIP3    H2 5056   4.887   4.267   1.166  1.5469 -0.6890 -1.6102
 1684TIP3   OH2 5057   5.576   1.599   0.137 -0.3619 -0.5033 -0.2667
 1684TIP3    H1 5058   5.591   1.595   0.231 -1.3881 -0.1710 -0.0793
 1684TIP3    H2 5059   5.662   1.621   0.100 -0.2215  0.6419  0.6918
 1685TIP3   OH2 5060   1.249   5.811   0.579  0.1708  0.0490 -0.0103
 1685TIP3    H1 5061   1.333   5.842   0.544  0.5918  0.8132  1.5733
 1685TIP3    H2 5062   1.248   5.843   0.669 -0.2269 -2.9590  1.1598
 1686TIP3   OH2 5063   1.708   2.510  -0.028  0.0504  0.2012 -0.7881
 1686TIP3    H1 5064   1.649   2.585  -0.023 -0.1241  0.0997 -1.2625
 1686TIP3    H2 5065   1.697   2.465   0.056 -1.8762 -0.8054 -1.5183
 1687TIP3   OH2 5066   5.746   1.376   2.464  0.0829 -0.4537  0.7809
 1687TIP3    H1 5067   5.811   1.310   2.440 -1.0355 -1.4033  0.2694
 1687TIP3    H2 5068   5.769   1.400   2.554  0.9781 -0.9547  0.6976
 1688TIP3   OH2 5069   1.230   3.960   5.079  0.2947 -0.4312 -0.7116
 1688TIP3    H1 5070   1.284   3.883   5.098 -0.5526 -0.8740 -0.0053
 1688TIP3    H2 5071   1.209   3.996   5.165 -0.3019 -0.1059 -0.9877
 1689TIP3   OH2 5072   5.119   0.988   4.834  0.0441 -0.5162  0.5582
 1689TIP3    H1 5073   5.034   1.022   4.805  2.0653  2.9661 -2.0269
 1689TIP3    H2 5074   5.140   1.038   4.913  0.0247 -0.8215  0.7576
 1690TIP3   OH2 5075   2.991   3.949   2.632  0.3668 -0.3482 -0.2008
 1690TIP3    H1 5076   3.033   4.017   2.579 -2.5357  1.4590 -0.3833
 1690TIP3    H2 5077   3.020   3.966   2.721  0.4928  0.4949 -0.3958
 1691TIP3   OH2 5078   0.161   3.444   2.064  0.1339  0.1898 -0.1030
 1691TIP3    H1 5079   0.112   3.503   2.122 -0.6797 -0.2580 -0.3187
 1691TIP3    H2 5080   0.094   3.392   2.021  0.7348  0.4089 -1.3493
 1692TIP3   OH2 5081   0.672   2.512   0.909  0.1969  0.0666 -0.0691
 1692TIP3    H1 5082   0.744   2.555   0.862 -0.3719 -1.4184 -2.4429
 1692TIP3    H2 5083   0.668   2.424   0.872 -3.5968  0.4290 -0.9527
 1693TIP3   OH2 5084   0.713   5.668   3.772 -0.1600  0.0459  0.2380
 1693TIP3    H1 5085   0.633   5.617   3.756 -0.2031 -0.0684  0.7996
 1693TIP3    H2 5086   0.717   5.730   3.698  0.0341 -0.9330 -0.5981
 1694TIP3   OH2 5087   5.065   2.752   2.234  0.2873 -0.2976  0.6556
 1694TIP3    H1 5088   5.035   2.833   2.191  0.4558 -0.3693  0.4013
 1694TIP3    H2 5089   4.987   2.696   2.234  0.7006 -0.9518 -1.1138
 1695TIP3   OH2 5090   5.328   4.137   2.486  0.1161 -0.1683  0.1443
 1695TIP3    H1 5091   5.361   4.137   2.396  0.8526  0.6844  0.3975
 1695TIP3    H2 5092   5.299   4.227   2.501 -2.0933 -0.7903  0.0501
 1696TIP3   OH2 5093   2.370   3.199   1.787 -0.4767 -0.3618 -0.7379
 1696TIP3    H1 5094   2.277   3.214   1.803 -0.4242 -0.6452 -0.1457
 1696TIP3    H2 5095   2.382   3.218   1.694 -0.8665  0.9752 -0.5326
 1697TIP3   OH2 5096   2.942   2.118   1.054 -0.3492 -0.0354 -0.3075
 1697TIP3    H1 5097   3.013   2.066   1.093  0.7479 -0.9511 -3.2725
 1697TIP3    H2 5098   2.984   2.202   1.032  0.2884 -1.0054 -3.1785
 1698TIP3   OH2 5099   4.205   4.319   1.752  0.3642 -0.0648  0.4001
 1698TIP3    H1 5100   4.287   4.359   1.780  0.9894 -1.3323  0.4852
 1698TIP3    H2 5101   4.184   4.363   1.670  0.3951  1.2156  1.0501
 1699TIP3   OH2 5102   2.697   1.097   2.292  0.8345 -0.1438 -0.4711
 1699TIP3    H1 5103   2.728   1.067   2.206 -0.1697  1.7713 -1.5533
 1699TIP3    H2 5104   2.664   1.185   2.277  0.5422  0.2223  1.8905
 1700TIP3   OH2 5105   2.696   0.976   1.370 -0.6190  0.0012 -0.1598
 1700TIP3    H1 5106   2.703   0.885   1.398  3.4677 -0.8838 -3.1130
 1700TIP3    H2 5107   2.769   1.020   1.413  1.1717  0.2798 -3.1578
 1701TIP3   OH2 5108   5.516   4.743   2.491  0.0678  0.2972 -0.0069
 1701TIP3    H1 5109   5.589   4.800   2.465 -0.3001  0.3396 -1.0277
 1701TIP3    H2 5110   5.441   4.777   2.442 -0.2995 -0.6677 -0.1461
 1702TIP3   OH2 5111   2.645   0.055   0.640 -0.1692  0.0799  0.1600
 1702TIP3    H1 5112   2.596   0.097   0.569 -0.0922 -1.0727 -0.6163
 1702TIP3    H2 5113   2.585  -0.010   0.676  0.5966 -1.0608 -0.5285
 1703TIP3   OH2 5114   4.917   1.728   3.209  0.2777  0.5148  0.1405
 1703TIP3    H1 5115   4.878   1.768   3.132 -0.9128  0.5957  0.7555
 1703TIP3    H2 5116   5.005   1.702   3.181 -1.1033 -2.1994 -2.1885
 1704TIP3   OH2 5117   5.092   3.381   3.494 -0.0751 -0.0235  0.0500
 1704TIP3    H1 5118   5.133   3.467   3.504  1.1876 -0.6213  0.1979
 1704TIP3    H2 5119   5.050   3.365   3.579 -1.4400  0.9859 -0.4019
 1705TIP3   OH2 5120   1.927   1.593   0.155  0.0865 -0.1465 -0.3499
 1705TIP3    H1 5121   1.964   1.534   0.089 -0.4034 -0.0586 -0.7011
 1705TIP3    H2 5122   1.852   1.634   0.112 -0.3388 -0.2133  0.3128
 1706TIP3   OH2 5123   4.668   4.819   4.850  0.2019  0.1222  0.6051
 1706TIP3    H1 5124   4.624   4.828   4.766  0.8023 -1.2755  0.1005
 1706TIP3    H2 5125   4.650   4.729   4.877  0.2473  0.4640  1.8482
 1707TIP3   OH2 5126   2.117   5.197   1.413 -0.7158 -0.0616 -0.2193
 1707TIP3    H1 5127   2.201   5.160   1.387 -1.0117 -0.7693 -0.1866
 1707TIP3    H2 5128   2.134   5.240   1.496  0.1071  1.7086 -1.2307
 1708TIP3   OH2 5129   5.025   2.856   3.110 -0.3623  0.3200 -0.0809
 1708TIP3    H1 5130   5.040   2.869   3.016 -0.3463  1.8982  0.1133
 1708TIP3    H2 5131   5.112   2.848   3.148 -0.3514 -4.0402 -0.5849
 1709TIP3   OH2 5132   3.212   1.569   4.750  0.2256  0.8046 -0.2202
 1709TIP3    H1 5133   3.289   1.593   4.698 -0.3217 -0.2484 -1.5465
 1709TIP3    H2 5134   3.139   1.612   4.707 -0.2350 -0.0799 -0.3435
 1710TIP3   OH2 5135   4.920   1.321   1.824  0.2864 -0.5097  0.6896
 1710TIP3    H1 5136   5.007   1.360   1.820 -0.3217  0.8775 -0.0276
 1710TIP3    H2 5137   4.898   1.302   1.733  0.3823 -2.1647  0.9948
 1711TIP3   OH2 5138   1.123   5.962   2.405 -0.1258 -0.1270 -0.0129
 1711TIP3    H1 5139   1.073   5.887   2.374  0.3073 -0.0252 -0.9792
 1711TIP3    H2 5140   1.169   5.994   2.328  0.8839  0.2115  0.7131
 1712TIP3   OH2 5141   3.652   4.697   4.973  0.6053 -0.2313  0.5964
 1712TIP3    H1 5142   3.706   4.698   4.894 -0.1722 -0.1979  0.0515
 1712TIP3    H2 5143   3.597   4.619   4.963 -0.8077  0.7801  0.1882
 1713TIP3   OH2 5144   4.702   0.049   0.978 -0.0153  0.0083 -0.5528
 1713TIP3    H1 5145   4.704  -0.016   1.048  1.2121  0.2403 -0.3348
 1713TIP3    H2 5146   4.640   0.115   1.008  1.5522  0.8379  1.0459
 1714TIP3   OH2 5147   2.058   1.978   1.756 -0.1837  0.4064 -0.1276
 1714TIP3    H1 5148   1.970   2.008   1.778 -0.0622  0.7424 -0.1016
 1714TIP3    H2 5149   2.107   1.987   1.838  0.2497  1.5804 -0.4999
 1715TIP3   OH2 5150   2.581   3.073   3.701  0.3993  0.1075 -0.2169
 1715TIP3    H1 5151   2.656   3.028   3.661  0.5749 -1.2924  1.5586
 1715TIP3    H2 5152   2.526   3.002   3.734 -0.6286  1.1681  0.4273
 1716TIP3   OH2 5153   6.305   4.722   4.639 -0.0146  0.5837 -0.0022
 1716TIP3    H1 5154   6.217   4.735   4.674  0.2735 -1.2407  1.6386
 1716TIP3    H2 5155   6.357   4.791   4.678 -0.1837 -0.0349  1.3766
 1717TIP3   OH2 5156   0.136   0.619   2.443  0.0362  0.1055 -0.0798
 1717TIP3    H1 5157   0.099   0.603   2.531  2.7042 -2.3144  0.7616
 1717TIP3    H2 5158   0.079   0.569   2.385 -0.0821 -0.7322  0.7173
 1718TIP3   OH2 5159   2.183   3.135   2.653  0.1272 -0.4348 -0.4720
 1718TIP3    H1 5160   2.154   3.204   2.593 -0.0892 -0.4680 -0.4069
 1718TIP3    H2 5161   2.128   3.146   2.731  0.2186 -0.5651 -0.3892
 1719TIP3   OH2 5162   1.141   1.738   2.905  0.2306 -0.6506 -0.0943
 1719TIP3    H1 5163   1.108   1.659   2.946  2.0803 -1.5091 -0.1673
 1719TIP3    H2 5164   1.140   1.719   2.811 -0.6118 -0.0419 -0.2248
 1720TIP3   OH2 5165   0.503   2.304   2.709  0.1809  0.6625  0.0459
 1720TIP3    H1 5166   0.527   2.269   2.623  0.5670  0.8349  0.0777
 1720TIP3    H2 5167   0.416   2.341   2.696 -0.4351 -0.7149  0.1375
 1721TIP3   OH2 5168   4.452   1.243   4.382  0.2931  0.1174 -1.0476
 1721TIP3    H1 5169   4.413   1.175   4.328 -0.4659  0.1778 -0.5895
 1721TIP3    H2 5170   4.379   1.300   4.405  0.6944  0.3668 -0.3610
 1722TIP3   OH2 5171   3.265   0.365   4.084  0.2150 -0.2177 -0.3098
 1722TIP3    H1 5172   3.190   0.308   4.100  1.2078 -1.6593 -0.5612
 1722TIP3    H2 5173   3.255   0.436   4.147 -0.5164 -1.2179  0.7454
 1723TIP3   OH2 5174   3.900   2.347   2.527  0.0983 -0.3046 -0.6026
 1723TIP3    H1 5175   3.837   2.283   2.561 -1.6094  0.4676 -2.2023
 1723TIP3    H2 5176   3.847   2.417   2.492  1.9288  1.4488 -0.0474
 1724TIP3   OH2 5177   3.019   2.683   1.451 -0.7825  0.3054 -0.2165
 1724TIP3    H1 5178   3.106   2.718   1.473  0.0557 -1.7616 -0.0404
 1724TIP3    H2 5179   2.958   2.737   1.500  0.5665  0.3372  1.5032
 1725TIP3   OH2 5180   1.477   2.087   0.354  1.0579  0.3581  0.1747
 1725TIP3    H1 5181   1.429   2.073   0.273 -0.9278  0.9655  1.1788
 1725TIP3    H2 5182   1.452   2.175   0.382 -1.0556 -1.0051  3.1188
 1726TIP3   OH2 5183   6.167   5.427   1.495 -0.3125 -0.0088 -0.2084
 1726TIP3    H1 5184   6.214   5.375   1.431 -0.4343 -0.7855  0.3149
 1726TIP3    H2 5185   6.199   5.395   1.580 -1.6728 -0.4747  0.1577
 1727TIP3   OH2 5186   5.374   4.606   4.899  0.1110  0.3863  0.5569
 1727TIP3    H1 5187   5.337   4.673   4.957 -2.4869  0.1588 -0.6646
 1727TIP3    H2 5188   5.405   4.654   4.822  1.5422  0.4784  1.1656
 1728TIP3   OH2 5189   3.607   2.153   0.817  0.0069  0.1055 -0.4741
 1728TIP3    H1 5190   3.602   2.248   0.824  0.6323  0.1748 -0.9484
 1728TIP3    H2 5191   3.593   2.135   0.724  1.6955 -0.1363 -0.7036
 1729TIP3   OH2 5192   4.839   2.889   0.036 -0.0300  0.5390  0.0860
 1729TIP3    H1 5193   4.793   2.807   0.052  0.5350  0.0157 -0.9271
 1729TIP3    H2 5194   4.796   2.926  -0.041  0.1872  0.8518  0.1127
 1730TIP3   OH2 5195   3.465   2.100   3.822  0.1771 -0.5730 -0.1037
 1730TIP3    H1 5196   3.509   2.163   3.765 -0.8700  0.2759 -0.0209
 1730TIP3    H2 5197   3.507   2.111   3.907 -0.9177  1.0714  0.2747
 1731TIP3   OH2 5198   1.988   2.814   4.393  0.4207  0.2232 -0.4440
 1731TIP3    H1 5199   1.948   2.750   4.333  1.3302  0.6789 -1.5703
 1731TIP3    H2 5200   1.920   2.880   4.406 -0.5644 -0.9499  0.7875
 1732TIP3   OH2 5201   2.688   2.603   3.370  0.9493 -0.5206 -0.2282
 1732TIP3    H1 5202   2.727   2.688   3.347  0.9956 -0.6310 -0.5629
 1732TIP3    H2 5203   2.622   2.589   3.302  0.6576 -0.5604  0.0630
 1733TIP3   OH2 5204   2.221   4.536   3.880  0.0262  0.4178  0.2284
 1733TIP3    H1 5205   2.290   4.587   3.837  0.1521 -1.3021 -1.7513
 1733TIP3    H2 5206   2.142   4.589   3.868  0.5605  1.2664  0.3567
 1734TIP3   OH2 5207   0.477   0.358   4.386  0.4225  0.2987 -0.5581
 1734TIP3    H1 5208   0.541   0.406   4.333  1.9320 -0.5509  0.4364
 1734TIP3    H2 5209   0.475   0.405   4.469 -0.3062  0.3443 -0.5943
 1735TIP3   OH2 5210   1.999   5.622   2.108 -0.0572 -0.4720 -0.1118
 1735TIP3    H1 5211   1.998   5.705   2.155 -3.0695 -0.3489 -0.1952
 1735TIP3    H2 5212   2.037   5.643   2.023  1.1977  0.3083  0.6100
 1736TIP3   OH2 5213   4.393   1.888   2.006  0.0994 -0.1397  0.2908
 1736TIP3    H1 5214   4.440   1.869   2.087  0.6712 -1.0400 -0.2327
 1736TIP3    H2 5215   4.320   1.826   2.005  0.0978 -0.1366  0.1231
 1737TIP3   OH2 5216   5.531   5.860   3.503  0.3663 -0.2806 -0.1640
 1737TIP3    H1 5217   5.450   5.870   3.552  0.6721  0.3856  0.2182
 1737TIP3    H2 5218   5.600   5.881   3.566  0.8999 -1.7445 -0.2192
 1738TIP3   OH2 5219   1.833   2.895   0.876  0.0016 -0.8240  0.4330
 1738TIP3    H1 5220   1.828   2.875   0.783  1.5244 -1.2409  0.4264
 1738TIP3    H2 5221   1.757   2.951   0.892 -0.7354 -1.3985 -0.8786
 1739TIP3   OH2 5222   4.107   2.718   3.212 -0.2092 -0.0112  0.5837
 1739TIP3    H1 5223   4.198   2.728   3.239  0.3806 -3.2159  0.1478
 1739TIP3    H2 5224   4.069   2.660   3.278 -1.5712  0.2357  0.0409
 1740TIP3   OH2 5225   1.845   4.627   5.101  0.1179 -0.0179  0.3077
 1740TIP3    H1 5226   1.887   4.567   5.162  1.2978 -0.5579 -0.9929
 1740TIP3    H2 5227   1.873   4.598   5.015 -0.0413  1.8343 -0.4214
 1741TIP3   OH2 5228   2.893   4.749   5.001 -0.0896 -0.1579  0.2412
 1741TIP3    H1 5229   2.886   4.744   5.096 -0.5524 -2.1395  0.1409
 1741TIP3    H2 5230   2.956   4.680   4.978 -1.0125 -0.6322 -0.9668
 1742TIP3   OH2 5231   2.679   0.261   2.693  0.6781  0.3247  0.0232
 1742TIP3    H1 5232   2.693   0.242   2.600 -1.4054  1.2336 -0.5444
 1742TIP3    H2 5233   2.618   0.193   2.722  0.4031  0.7273  0.4022
 1743TIP3   OH2 5234   5.472   1.279   2.484 -0.2058 -0.2842 -0.0004
 1743TIP3    H1 5235   5.558   1.315   2.462  0.6523 -2.6818 -0.9931
 1743TIP3    H2 5236   5.410   1.346   2.455  1.2632  0.5906 -1.3094
 1744TIP3   OH2 5237   6.044   4.692   1.321  0.3936  0.2268 -0.0418
 1744TIP3    H1 5238   6.040   4.596   1.323  2.0235  0.1213  0.0810
 1744TIP3    H2 5239   6.030   4.718   1.412  0.2034  0.0866 -0.0297
 1745TIP3   OH2 5240   5.484   5.412   1.841 -0.2886  0.0074  0.4688
 1745TIP3    H1 5241   5.412   5.473   1.851  0.5919  1.3781 -1.0319
 1745TIP3    H2 5242   5.555   5.449   1.893  0.9295  1.5239 -2.0638
 1746TIP3   OH2 5243   0.547   4.620   4.266  0.0474 -0.0059  0.2344
 1746TIP3    H1 5244   0.551   4.526   4.252  0.8536 -0.0930  1.0280
 1746TIP3    H2 5245   0.530   4.630   4.359  2.4663  0.6343  0.6704
 1747TIP3   OH2 5246   1.656   5.322   2.186 -0.4901 -0.0336  0.1354
 1747TIP3    H1 5247   1.591   5.388   2.210 -0.6020  0.0967 -0.5110
 1747TIP3    H2 5248   1.687   5.349   2.100  1.1477  0.4480  0.8474
 1748TIP3   OH2 5249   5.668   0.914   4.758  0.5397 -0.1656 -0.0008
 1748TIP3    H1 5250   5.673   0.820   4.739  4.9386  0.0610 -0.9790
 1748TIP3    H2 5251   5.654   0.955   4.673  1.3020  0.1611  0.0277
 1749TIP3   OH2 5252   6.046   4.279   0.246  0.0426  0.1997 -0.4716
 1749TIP3    H1 5253   5.952   4.284   0.261 -0.0187  1.5868 -1.2232
 1749TIP3    H2 5254   6.085   4.310   0.328 -0.0839 -1.8246  0.4202
 1750TIP3   OH2 5255   4.565   0.160   4.831  0.1031 -0.3704  0.1385
 1750TIP3    H1 5256   4.512   0.134   4.756  1.3195 -2.4495 -0.0886
 1750TIP3    H2 5257   4.654   0.165   4.797  0.2809  2.0281  0.7426
 1751TIP3   OH2 5258   2.214   2.453   0.383 -0.1371  0.7316 -0.6448
 1751TIP3    H1 5259   2.284   2.399   0.346  0.8821  1.0025  0.8007
 1751TIP3    H2 5260   2.145   2.391   0.405  0.9335 -0.0072  0.8010
 1752TIP3   OH2 5261   0.397   4.702   0.597  0.1843 -0.2999 -0.2036
 1752TIP3    H1 5262   0.430   4.771   0.654 -2.0069  1.1170 -0.5186
 1752TIP3    H2 5263   0.391   4.744   0.511 -1.1439 -0.8587 -0.4064
 1753TIP3   OH2 5264   1.561   5.853   3.339 -0.0691  0.1877  0.1864
 1753TIP3    H1 5265   1.581   5.812   3.254 -1.5765  0.9254 -0.5627
 1753TIP3    H2 5266   1.615   5.932   3.340  0.9916 -0.5190  0.5486
 1754TIP3   OH2 5267   0.859   4.171   1.134 -0.4540 -0.1171 -0.3848
 1754TIP3    H1 5268   0.830   4.087   1.171 -0.3944  1.2748  3.2273
 1754TIP3    H2 5269   0.941   4.150   1.090 -0.6374 -2.0126  0.0790
 1755TIP3   OH2 5270   4.919   2.222   3.831 -0.4589  0.6169 -0.1176
 1755TIP3    H1 5271   4.951   2.133   3.818 -0.1159  0.3968  1.8653
 1755TIP3    H2 5272   4.889   2.250   3.745  2.7615 -0.0719 -1.6121
 1756TIP3   OH2 5273   0.970   4.530   1.418  0.0273 -0.4097 -0.5471
 1756TIP3    H1 5274   0.972   4.513   1.324 -1.3229  0.5471 -0.7897
 1756TIP3    H2 5275   0.961   4.444   1.458 -0.7603 -0.7339 -1.3809
 1757TIP3   OH2 5276   1.061   5.577   0.467  0.4176 -0.7415  0.3152
 1757TIP3    H1 5277   1.094   5.651   0.518  0.6446 -0.3016 -0.4548
 1757TIP3    H2 5278   0.966   5.580   0.478  0.5263 -1.2490  1.5096
 1758TIP3   OH2 5279   3.777   2.834   0.874 -0.1930 -0.3292  0.0601
 1758TIP3    H1 5280   3.861   2.840   0.828 -1.0349  1.4626 -1.3662
 1758TIP3    H2 5281   3.801   2.819   0.965  1.7721  1.7157 -0.0174
 1759TIP3   OH2 5282   5.353   0.265   3.338 -0.3278 -0.7886 -0.3940
 1759TIP3    H1 5283   5.262   0.281   3.364  0.1875 -0.0802  1.1128
 1759TIP3    H2 5284   5.390   0.352   3.326  0.2612 -1.0584 -0.5679
 1760TIP3   OH2 5285   4.239   5.921   2.517  0.0244 -0.0981  0.0992
 1760TIP3    H1 5286   4.280   5.938   2.602 -2.0900  0.5712  1.0418
 1760TIP3    H2 5287   4.177   5.850   2.535 -0.0718 -0.3123 -1.0339
 1761TIP3   OH2 5288   0.775   1.775   0.104 -0.3547  0.1483  0.4539
 1761TIP3    H1 5289   0.723   1.712   0.152  1.1274 -1.5578 -0.0640
 1761TIP3    H2 5290   0.846   1.723   0.066  1.1035  2.1828  0.2472
 1762TIP3   OH2 5291   6.245   2.935   4.829 -0.8317  0.0435 -0.1318
 1762TIP3    H1 5292   6.320   2.900   4.877 -0.2616  0.2898 -0.8314
 1762TIP3    H2 5293   6.252   3.029   4.839 -0.0026  0.1804 -1.6971
 1763TIP3   OH2 5294   1.455   0.234   1.019  0.0435 -0.0575 -0.5567
 1763TIP3    H1 5295   1.366   0.198   1.024 -0.2397  0.5755 -0.9523
 1763TIP3    H2 5296   1.508   0.173   1.071 -0.8290  0.2208  0.7215
 1764TIP3   OH2 5297   1.445   1.291   1.302  0.1164 -0.1617 -0.8549
 1764TIP3    H1 5298   1.506   1.241   1.249  0.6568 -0.5466  0.0971
 1764TIP3    H2 5299   1.380   1.227   1.331 -0.0961  0.0161 -0.9351
 1765TIP3   OH2 5300   5.150   4.975   1.851 -0.0570 -0.2775 -0.0477
 1765TIP3    H1 5301   5.195   5.046   1.896 -0.9541  0.7533 -0.7180
 1765TIP3    H2 5302   5.220   4.922   1.812  0.6678 -0.5016  1.5183
 1766TIP3   OH2 5303   3.483   1.349   1.402 -0.1741  0.3237  0.8310
 1766TIP3    H1 5304   3.514   1.330   1.313  1.1947  0.6304  1.2152
 1766TIP3    H2 5305   3.397   1.308   1.407  0.5447 -1.3788  0.0003
 1767TIP3   OH2 5306   1.354   4.398   4.674  0.0231  0.6978 -0.2820
 1767TIP3    H1 5307   1.426   4.343   4.704  0.2201  1.6750  1.1197
 1767TIP3    H2 5308   1.275   4.349   4.698  0.1814  1.3082  1.6527
 1768TIP3   OH2 5309   4.072   3.387   3.301  0.1109  0.0486 -0.4742
 1768TIP3    H1 5310   3.996   3.439   3.273  0.4279  1.3201  0.9093
 1768TIP3    H2 5311   4.034   3.314   3.349 -0.2687  1.0434  0.8015
 1769TIP3   OH2 5312   4.622   5.268   4.023  0.2571  0.2601  0.0800
 1769TIP3    H1 5313   4.618   5.296   4.115 -2.8197 -2.6347  1.0446
 1769TIP3    H2 5314   4.708   5.225   4.015  0.4916  0.3597  1.7024
 1770TIP3   OH2 5315   4.359   1.745   3.997  0.4580 -0.0873 -0.3079
 1770TIP3    H1 5316   4.323   1.682   4.060 -0.0381  1.2053  0.7460
 1770TIP3    H2 5317   4.301   1.739   3.921  0.5288 -1.0200 -0.2937
 1771TIP3   OH2 5318   5.670   1.639   1.768  0.1947 -0.6126  0.3136
 1771TIP3    H1 5319   5.704   1.666   1.682 -3.2464 -0.8056 -1.2988
 1771TIP3    H2 5320   5.610   1.709   1.793 -0.5023 -1.5981  1.4955
 1772TIP3   OH2 5321   2.798   5.802   2.501 -0.0110  0.1150 -0.4833
 1772TIP3    H1 5322   2.726   5.793   2.563  1.8032  1.3536  1.9780
 1772TIP3    H2 5323   2.819   5.713   2.474 -2.8430 -0.2463 -1.8784
 1773TIP3   OH2 5324   5.330   3.006   2.543  1.1169 -0.0820 -0.0846
 1773TIP3    H1 5325   5.239   2.991   2.518  0.5934  2.7486 -0.3106
 1773TIP3    H2 5326   5.352   2.934   2.602 -1.6735 -0.1912  0.9680
 1774TIP3   OH2 5327   4.803   0.179   4.174  0.4556  0.2236  0.7895
 1774TIP3    H1 5328   4.834   0.089   4.169  0.2266  0.1049  1.5017
 1774TIP3    H2 5329   4.711   0.175   4.148  1.3039  0.7965 -2.9528
 1775TIP3   OH2 5330   1.155   2.031   0.657  0.0988 -0.1289 -0.2614
 1775TIP3    H1 5331   1.128   1.968   0.591  2.7194 -0.9027 -0.6959
 1775TIP3    H2 5332   1.108   2.005   0.736  0.3277 -2.0110 -0.7064
 1776TIP3   OH2 5333   2.364   1.210   4.856 -0.0900  0.3093  0.4249
 1776TIP3    H1 5334   2.388   1.158   4.779  0.2392  0.9148  0.1102
 1776TIP3    H2 5335   2.448   1.236   4.893 -0.2174  2.0923 -0.4376
 1777TIP3   OH2 5336   0.838   0.158   3.785  0.0676  0.0174  0.3261
 1777TIP3    H1 5337   0.792   0.142   3.702  0.5794 -1.9904  0.3944
 1777TIP3    H2 5338   0.895   0.083   3.796 -0.0826  0.1768  2.5928
 1778TIP3   OH2 5339   0.944   4.669   2.834  0.9604  0.2851 -0.3654
 1778TIP3    H1 5340   0.953   4.745   2.892  2.4877 -0.8067  0.9234
 1778TIP3    H2 5341   0.857   4.635   2.854  0.8051  0.9031  0.0506
 1779TIP3   OH2 5342   5.630   3.536   4.593 -0.1825  0.3783  0.3715
 1779TIP3    H1 5343   5.557   3.494   4.548 -0.1989  1.4476 -0.6465
 1779TIP3    H2 5344   5.617   3.629   4.577  0.1653  0.7596  2.0963
 1780TIP3   OH2 5345   4.529   3.721   2.209  0.0817 -0.1401 -0.0178
 1780TIP3    H1 5346   4.551   3.812   2.227  0.2269 -0.6965  3.2514
 1780TIP3    H2 5347   4.437   3.712   2.234  0.3519 -1.0729  0.7340
 1781TIP3   OH2 5348   4.985   1.141   4.146 -0.4748  0.1282 -0.2618
 1781TIP3    H1 5349   4.975   1.198   4.069 -1.6324  3.2770  2.0482
 1781TIP3    H2 5350   4.960   1.195   4.220  1.7638 -2.3477  2.5637
 1782TIP3   OH2 5351   0.531   2.734   0.885 -0.1036 -0.0325 -0.3844
 1782TIP3    H1 5352   0.583   2.765   0.811  3.9245 -0.9994  1.7339
 1782TIP3    H2 5353   0.568   2.648   0.906 -1.7654 -0.2545  2.0896
 1783TIP3   OH2 5354   0.962   3.293   1.078  0.0925  0.1313  0.6143
 1783TIP3    H1 5355   0.988   3.201   1.075  0.4668  0.2049  1.3869
 1783TIP3    H2 5356   0.927   3.305   1.167  1.9053  1.2086  1.2333
 1784TIP3   OH2 5357   3.714   2.381   5.048  0.4814  0.0728  0.0106
 1784TIP3    H1 5358   3.786   2.418   5.099  0.4428 -0.2364  0.2852
 1784TIP3    H2 5359   3.721   2.425   4.963  0.8577  0.2082  0.1090
 1785TIP3   OH2 5360   3.308   2.540   4.796 -0.0131  0.3419  0.0841
 1785TIP3    H1 5361   3.344   2.452   4.806 -1.0219 -0.3644 -2.0841
 1785TIP3    H2 5362   3.218   2.533   4.828 -0.5378  0.2088 -1.3775
 1786TIP3   OH2 5363   0.891   0.449   2.372  0.0115  0.0627  0.5438
 1786TIP3    H1 5364   0.893   0.509   2.298 -0.6676 -0.4935  0.0613
 1786TIP3    H2 5365   0.811   0.397   2.358 -0.7687  0.7232  2.2759
 1787TIP3   OH2 5366   1.612   0.994   3.726  0.7397 -0.2914 -0.6545
 1787TIP3    H1 5367   1.521   0.998   3.757  0.5685  0.6949 -1.2200
 1787TIP3    H2 5368   1.652   0.924   3.778  0.2008  0.6109  1.0618
 1788TIP3   OH2 5369   1.317   0.217   2.922 -0.4317 -0.3342 -0.1886
 1788TIP3    H1 5370   1.233   0.240   2.885 -0.2084  0.7434 -0.0438
 1788TIP3    H2 5371   1.296   0.162   2.997 -1.0515  0.5966  0.3331
 1789TIP3   OH2 5372   4.854   3.222   3.023 -0.1782 -0.2434  0.4688
 1789TIP3    H1 5373   4.940   3.217   2.981 -0.5131  1.0833 -0.4484
 1789TIP3    H2 5374   4.800   3.159   2.976  0.2653 -1.0449  1.0139
 1790TIP3   OH2 5375   0.492   3.166   0.994 -0.0370 -0.3352 -0.2596
 1790TIP3    H1 5376   0.442   3.157   0.913 -1.1554 -1.8162  0.5576
 1790TIP3    H2 5377   0.514   3.077   1.020  0.0380  0.0811  1.2224
 1791TIP3   OH2 5378   2.932   0.537   4.773 -0.0742 -0.3719  0.6785
 1791TIP3    H1 5379   2.887   0.501   4.849 -0.2991 -0.1685  0.6413
 1791TIP3    H2 5380   2.867   0.537   4.703 -0.3500  0.9452  0.9139
 1792TIP3   OH2 5381   4.482   1.925   4.175 -0.8213 -0.0921  0.2336
 1792TIP3    H1 5382   4.525   1.982   4.111 -0.2161 -0.3938  0.3615
 1792TIP3    H2 5383   4.418   1.875   4.123 -1.1034  0.4432  0.0613
 1793TIP3   OH2 5384   0.435   0.529   3.652  0.1830 -0.3601  0.0563
 1793TIP3    H1 5385   0.385   0.579   3.717  1.4332  0.9304  0.0804
 1793TIP3    H2 5386   0.508   0.493   3.702  1.4162  1.0292 -0.6557
 1794TIP3   OH2 5387   4.457   1.740   0.643  0.3562 -0.0531 -0.1255
 1794TIP3    H1 5388   4.547   1.763   0.668  0.5721  0.7852 -1.5584
 1794TIP3    H2 5389   4.460   1.733   0.548 -0.8451 -1.2537 -0.1010
 1795TIP3   OH2 5390   1.810   2.143   1.764 -0.1854 -0.2250  0.2989
 1795TIP3    H1 5391   1.761   2.198   1.703  1.0042 -0.3640 -0.8034
 1795TIP3    H2 5392   1.742   2.102   1.818 -1.3311 -0.7877 -1.4932
 1796TIP3   OH2 5393   3.860   3.941   0.343  0.1682  0.2187 -0.1321
 1796TIP3    H1 5394   3.836   3.990   0.264  0.2860  2.9801  1.4291
 1796TIP3    H2 5395   3.928   3.880   0.313 -1.1307 -0.2093 -2.4881
 1797TIP3   OH2 5396   3.783   1.173   0.809  0.6465  0.0902 -0.1130
 1797TIP3    H1 5397   3.740   1.123   0.739  0.9191 -1.7230  0.9355
 1797TIP3    H2 5398   3.763   1.124   0.889 -0.2003  2.4527  1.2208
 1798TIP3   OH2 5399   1.804   0.723   3.150 -0.7383 -0.1633 -0.7035
 1798TIP3    H1 5400   1.778   0.639   3.113 -0.2992 -0.7900  0.3491
 1798TIP3    H2 5401   1.802   0.784   3.077  0.3897 -1.4009 -1.8119
 1799TIP3   OH2 5402   0.542   3.274   5.169  0.2831 -0.0683 -0.3069
 1799TIP3    H1 5403   0.488   3.254   5.245  0.8707  1.2588  0.5041
 1799TIP3    H2 5404   0.480   3.303   5.102 -0.0663  1.2237  0.5342
 1800TIP3   OH2 5405   2.079   2.899   2.868  0.1948 -0.3243 -0.2327
 1800TIP3    H1 5406   2.061   2.903   2.962  1.2103 -4.2941  0.3160
 1800TIP3    H2 5407   2.030   2.822   2.838  1.5922 -0.4094 -2.5105
 1801TIP3   OH2 5408   2.519   1.926   1.195  0.0364  0.2982  0.1999
 1801TIP3    H1 5409   2.439   1.947   1.146  1.9096  1.0003 -2.7717
 1801TIP3    H2 5410   2.566   2.009   1.202  1.8881 -0.6175 -0.8240
 1802TIP3   OH2 5411   1.728   4.405   3.510 -0.7521  0.3987  0.4636
 1802TIP3    H1 5412   1.784   4.423   3.585 -0.5173 -0.4460  0.5040
 1802TIP3    H2 5413   1.696   4.491   3.483  2.8442  1.3405 -1.4105
 1803TIP3   OH2 5414   5.788   5.719   2.851  0.5211  0.4279 -0.1079
 1803TIP3    H1 5415   5.753   5.652   2.910 -1.5039  1.7835  0.3423
 1803TIP3    H2 5416   5.878   5.691   2.833  0.1498 -1.7104  1.0579
 1804TIP3   OH2 5417   4.093   5.047   2.349 -0.2702 -0.7515 -0.1664
 1804TIP3    H1 5418   4.162   5.044   2.415  0.0633 -1.8999 -0.5467
 1804TIP3    H2 5419   4.088   5.139   2.323  1.3148 -0.6881 -0.3281
 1805TIP3   OH2 5420   4.759   5.515   3.426 -0.0028 -0.3398 -0.3873
 1805TIP3    H1 5421   4.663   5.523   3.425  0.0365  0.2652  0.0167
 1805TIP3    H2 5422   4.779   5.473   3.509 -0.0216 -2.2156 -1.2915
 1806TIP3   OH2 5423   0.071   2.739   1.204  0.1848  0.0119 -0.1857
 1806TIP3    H1 5424   0.145   2.786   1.242 -0.5958  1.2625 -0.1552
 1806TIP3    H2 5425  -0.005   2.769   1.255 -0.5906  0.1318 -1.3829
 1807TIP3   OH2 5426   0.402   5.026   3.260  0.2521  0.0123 -0.0984
 1807TIP3    H1 5427   0.443   5.059   3.340 -0.4755 -1.2767  0.8582
 1807TIP3    H2 5428   0.327   5.084   3.246  0.6144  0.4895 -0.0798
 1808TIP3   OH2 5429   1.595   3.426   0.454  0.1854  0.1450  0.0635
 1808TIP3    H1 5430   1.577   3.381   0.372 -0.1712  0.5960 -0.1125
 1808TIP3    H2 5431   1.591   3.519   0.432  2.0565  0.3012  0.1601
 1809TIP3   OH2 5432   2.535   3.740   0.663 -0.5924 -0.0918 -0.4425
 1809TIP3    H1 5433   2.445   3.760   0.635 -0.3615  0.8684 -0.5292
 1809TIP3    H2 5434   2.527   3.720   0.756 -0.6918  1.5773 -0.0646
 1810TIP3   OH2 5435   2.157   0.834   4.607  0.1791 -0.4067  0.2842
 1810TIP3    H1 5436   2.133   0.811   4.517 -0.5921  1.4613 -0.0191
 1810TIP3    H2 5437   2.250   0.855   4.603  0.0399  0.1355 -0.1901
 1811TIP3   OH2 5438   3.749   4.849   3.864 -0.1705 -0.2851 -0.1573
 1811TIP3    H1 5439   3.691   4.785   3.822 -1.4060  0.8257 -0.1787
 1811TIP3    H2 5440   3.833   4.837   3.819 -0.7725 -0.8794 -1.1769
 1812TIP3   OH2 5441   5.416   1.601   1.518 -0.2323  0.0529 -0.2941
 1812TIP3    H1 5442   5.462   1.519   1.535  0.7439  0.4864 -0.7581
 1812TIP3    H2 5443   5.364   1.583   1.439 -2.0956 -0.8987  1.0562
 1813TIP3   OH2 5444   5.073   0.989   1.041 -0.2154  0.3172 -0.2074
 1813TIP3    H1 5445   5.114   1.075   1.029  0.5637  0.0398  0.3364
 1813TIP3    H2 5446   4.995   1.007   1.094 -0.3618  0.7535 -0.5604
 1814TIP3   OH2 5447   4.117   1.857   4.651 -0.6069  0.5468 -1.1939
 1814TIP3    H1 5448   4.049   1.826   4.712 -0.8290  0.9205 -1.2475
 1814TIP3    H2 5449   4.190   1.882   4.708 -0.8427  0.9677 -1.0713
 1815TIP3   OH2 5450   3.300   1.413   2.800  0.0207  0.6116 -0.5926
 1815TIP3    H1 5451   3.269   1.468   2.872  1.3685 -0.3418  0.7966
 1815TIP3    H2 5452   3.252   1.444   2.723 -2.5645  0.7389  0.9456
 1816TIP3   OH2 5453   5.013   1.414   4.869  0.4442  0.0648 -0.5532
 1816TIP3    H1 5454   5.064   1.445   4.944 -1.3494 -1.4200  1.3977
 1816TIP3    H2 5455   4.961   1.341   4.903 -2.5164  1.0577 -2.5186
 1817TIP3   OH2 5456   4.878   5.086   2.553 -0.2399 -0.4905 -0.0503
 1817TIP3    H1 5457   4.901   5.070   2.645 -2.1642  1.0729  0.7624
 1817TIP3    H2 5458   4.963   5.094   2.509  0.8377  1.6747  2.1530
 1818TIP3   OH2 5459   3.685   5.023   0.775  0.3471 -0.0515 -0.1211
 1818TIP3    H1 5460   3.685   4.967   0.852 -2.0977 -1.2599 -0.9094
 1818TIP3    H2 5461   3.723   4.969   0.706 -0.3426 -0.0902 -0.4745
 1819TIP3   OH2 5462   2.410   4.001   4.709 -0.1407  0.5010  0.1484
 1819TIP3    H1 5463   2.390   4.075   4.651 -0.0769  1.3498  1.1728
 1819TIP3    H2 5464   2.494   3.967   4.677  0.5461  1.7817  0.5195
 1820TIP3   OH2 5465   2.751   0.795   1.133  0.0910 -0.1701 -0.1768
 1820TIP3    H1 5466   2.743   0.816   1.040  1.6239  1.1238 -0.0639
 1820TIP3    H2 5467   2.812   0.860   1.167 -0.3831 -0.6538  1.7392
 1821TIP3   OH2 5468   3.794   0.635   4.497  0.1445  0.2624 -0.0094
 1821TIP3    H1 5469   3.846   0.699   4.546  0.4133 -0.1801  0.3003
 1821TIP3    H2 5470   3.711   0.631   4.543  0.5013 -0.3673  0.6015
 1822TIP3   OH2 5471   0.148   0.139   2.700  0.1928 -0.1654  0.4620
 1822TIP3    H1 5472   0.207   0.176   2.634 -0.0406 -1.0312 -0.2486
 1822TIP3    H2 5473   0.061   0.170   2.674  0.4353  2.7116  2.5838
 1823TIP3   OH2 5474   0.389   5.439   4.827 -0.2565 -0.1994  0.0638
 1823TIP3    H1 5475   0.345   5.516   4.791 -0.3810  1.4530  3.3380
 1823TIP3    H2 5476   0.319   5.385   4.863 -0.0172 -0.6209 -0.0977
 1824TIP3   OH2 5477   1.148   5.624   3.312 -0.3695  0.0188 -0.1262
 1824TIP3    H1 5478   1.082   5.564   3.347  0.2836 -0.8213 -0.3039
 1824TIP3    H2 5479   1.104   5.709   3.310 -0.8772 -0.1875  1.3649
 1825TIP3   OH2 5480   5.766   5.190   0.689  0.4084 -0.4769  0.1819
 1825TIP3    H1 5481   5.717   5.137   0.752  1.0166 -0.1625  0.9229
 1825TIP3    H2 5482   5.814   5.253   0.742  1.7586 -0.8916 -0.5199
 1826TIP3   OH2 5483   3.782   5.091   4.318  0.2380 -0.2144  0.2166
 1826TIP3    H1 5484   3.712   5.062   4.377  0.4270 -1.0668  0.0400
 1826TIP3    H2 5485   3.760   5.052   4.234 -0.4818  1.6792 -0.5281
 1827TIP3   OH2 5486   0.411   5.121   2.620  0.0273  0.0284 -0.2722
 1827TIP3    H1 5487   0.363   5.041   2.639  1.0716 -0.4838  0.2519
 1827TIP3    H2 5488   0.425   5.162   2.706 -0.0105  0.4971 -0.4837
 1828TIP3   OH2 5489   2.818   5.041   0.992 -0.2519 -0.5570  0.5151
 1828TIP3    H1 5490   2.868   5.078   0.920 -1.5164  0.5717  0.1663
 1828TIP3    H2 5491   2.792   5.117   1.045 -2.7857 -0.8853 -0.1299
 1829TIP3   OH2 5492   2.603   0.084   4.345 -0.0360  0.4897 -0.7084
 1829TIP3    H1 5493   2.626  -0.008   4.331 -0.8105  0.4355 -1.7068
 1829TIP3    H2 5494   2.600   0.121   4.257  0.6759  1.5813 -0.2856
 1830TIP3   OH2 5495   3.274   1.601   5.028  0.2597  0.5631 -0.3416
 1830TIP3    H1 5496   3.263   1.597   4.933 -0.9438  0.6484 -0.2253
 1830TIP3    H2 5497   3.253   1.692   5.050  1.0602  0.6833 -0.0457
 1831TIP3   OH2 5498   1.416   4.181   0.926 -1.1868 -0.1641  0.3950
 1831TIP3    H1 5499   1.443   4.133   0.849 -0.8279 -0.4621  0.7043
 1831TIP3    H2 5500   1.416   4.116   0.997  0.4877  0.5037  1.0750
 1832TIP3   OH2 5501   3.023   0.911   3.804  0.6626  0.6461 -0.4347
 1832TIP3    H1 5502   2.966   0.978   3.842 -0.1015  0.2892 -0.9433
 1832TIP3    H2 5503   3.111   0.936   3.834  0.0989  0.3163  1.6854
 1833TIP3   OH2 5504   5.835   3.358   1.425  0.2101 -0.5840  0.3187
 1833TIP3    H1 5505   5.922   3.341   1.389 -0.6686 -0.9014 -1.7880
 1833TIP3    H2 5506   5.792   3.414   1.360 -0.3967  1.5849  2.4398
 1834TIP3   OH2 5507   3.246   5.679   2.622 -0.0985  0.4361 -0.5061
 1834TIP3    H1 5508   3.321   5.731   2.651 -0.1288  0.5543 -0.6366
 1834TIP3    H2 5509   3.207   5.646   2.703  0.8577 -0.7144 -0.4788
 1835TIP3   OH2 5510   2.414   4.903   3.030  0.3135 -0.2541 -0.3517
 1835TIP3    H1 5511   2.358   4.833   2.996 -0.2738  0.3270 -0.5926
 1835TIP3    H2 5512   2.500   4.884   2.993  0.2751 -1.1210 -0.0313
 1836TIP3   OH2 5513   3.301   2.677   2.889 -0.3562  0.1786 -0.1899
 1836TIP3    H1 5514   3.244   2.601   2.899  0.5282 -0.5107 -0.2503
 1836TIP3    H2 5515   3.387   2.646   2.918  0.4387  0.5758 -2.0079
 1837TIP3   OH2 5516   5.061   2.170   2.765  0.4797 -0.6081  0.0137
 1837TIP3    H1 5517   5.083   2.199   2.854  2.6534 -1.4058 -0.2019
 1837TIP3    H2 5518   5.118   2.095   2.750 -0.9132 -1.4101 -1.5401
 1838TIP3   OH2 5519   1.976   5.831   2.502 -0.5429  0.4614  0.1055
 1838TIP3    H1 5520   1.981   5.924   2.523 -0.1583  0.3290  0.6203
 1838TIP3    H2 5521   2.047   5.791   2.552 -1.9463 -0.4066  1.5068
 1839TIP3   OH2 5522   5.174   1.890   4.053  0.5948 -0.2973 -0.0895
 1839TIP3    H1 5523   5.229   1.937   4.116 -0.8534  0.4154  0.7053
 1839TIP3    H2 5524   5.170   1.801   4.086  1.7607 -0.5176 -0.5066
 1840TIP3   OH2 5525   1.756   3.491   1.803  0.1442  0.4572 -0.0193
 1840TIP3    H1 5526   1.764   3.489   1.708 -0.2836  1.9931 -0.1204
 1840TIP3    H2 5527   1.670   3.453   1.822 -0.0102  0.6674 -0.2935
 1841TIP3   OH2 5528   0.701   0.448   4.219 -0.1453  0.0538  0.3654
 1841TIP3    H1 5529   0.769   0.497   4.172  0.4486  0.2493  1.3895
 1841TIP3    H2 5530   0.625   0.451   4.162  0.3421  0.9011 -0.2587
 1842TIP3   OH2 5531   6.265   1.233   2.154 -0.2796 -0.0928  0.0207
 1842TIP3    H1 5532   6.261   1.143   2.121 -1.2589 -0.1774  0.3583
 1842TIP3    H2 5533   6.357   1.257   2.145  0.2626 -1.5938  1.1442
 1843TIP3   OH2 5534   6.288   5.392   3.520  0.2932 -0.2185 -0.6815
 1843TIP3    H1 5535   6.275   5.448   3.597  1.7423 -1.3185  0.4196
 1843TIP3    H2 5536   6.381   5.400   3.500  0.2364 -1.1404 -1.3597
 1844TIP3   OH2 5537   1.159   1.370   1.777 -0.4871 -0.0119  0.3606
 1844TIP3    H1 5538   1.251   1.395   1.772 -0.6590  0.4930 -0.4683
 1844TIP3    H2 5539   1.119   1.411   1.701 -1.6797  0.9583  1.4638
 1845TIP3   OH2 5540   3.909   4.305   1.536  0.6105 -0.3121  0.5822
 1845TIP3    H1 5541   3.924   4.372   1.602 -0.0943 -0.4051  0.8509
 1845TIP3    H2 5542   3.912   4.352   1.452  0.6788 -0.0506  0.7300
 1846TIP3   OH2 5543   1.894   1.218   4.210 -0.1848  0.0126 -0.2219
 1846TIP3    H1 5544   1.962   1.256   4.266 -0.1391  0.2159 -0.4161
 1846TIP3    H2 5545   1.943   1.173   4.141 -0.2119  2.2983 -1.8545
 1847TIP3   OH2 5546   0.230   4.287   2.996 -0.6228  0.3277 -0.3671
 1847TIP3    H1 5547   0.216   4.219   3.062 -0.3359 -1.2828 -1.8740
 1847TIP3    H2 5548   0.178   4.361   3.026 -0.3366 -0.2521  1.7520
 1848TIP3   OH2 5549   4.561   1.600   1.152 -0.2325  0.2692  0.0376
 1848TIP3    H1 5550   4.478   1.570   1.187  0.9067 -0.6755  2.1300
 1848TIP3    H2 5551   4.611   1.629   1.229  1.7184 -0.0986 -1.0065
 1849TIP3   OH2 5552   0.786   2.601   1.652 -0.3327 -0.1472  0.4347
 1849TIP3    H1 5553   0.731   2.672   1.684  0.1835  0.0490  0.8947
 1849TIP3    H2 5554   0.757   2.587   1.562 -1.8655 -0.7714  0.9890
 1850TIP3   OH2 5555   4.995   3.950   4.192 -0.3194  0.2207 -0.4075
 1850TIP3    H1 5556   5.018   4.033   4.234  0.2231 -0.3367  0.4536
 1850TIP3    H2 5557   5.056   3.942   4.119 -1.9808  1.7159 -2.0238
 1851TIP3   OH2 5558   6.320   4.724   2.991 -0.3783  0.4401  0.2261
 1851TIP3    H1 5559   6.370   4.712   2.910  0.1395 -1.5740  0.7828
 1851TIP3    H2 5560   6.228   4.722   2.963 -0.2215 -1.0102 -0.2612
 1852TIP3   OH2 5561   1.817   4.740   4.676  0.7010  0.5596  0.3371
 1852TIP3    H1 5562   1.816   4.721   4.582  1.4174  1.4264  0.1431
 1852TIP3    H2 5563   1.861   4.665   4.715 -0.1217 -0.0833  0.0567
 1853TIP3   OH2 5564   6.148   5.283   2.036 -0.1716  0.2125  0.1879
 1853TIP3    H1 5565   6.234   5.297   2.077  0.1021  1.0472 -0.6615
 1853TIP3    H2 5566   6.109   5.213   2.089  0.7860  0.2220  0.9499
 1854TIP3   OH2 5567   0.046   3.446   3.753  0.1973 -0.4353  0.4384
 1854TIP3    H1 5568   0.002   3.500   3.819  1.7843  1.5623 -0.0156
 1854TIP3    H2 5569   0.122   3.410   3.800  0.3357 -0.4696  0.1885
 1855TIP3   OH2 5570   4.723   1.911   2.315  0.3646  0.2448  0.5121
 1855TIP3    H1 5571   4.667   1.834   2.321  0.5174 -0.0379 -1.0665
 1855TIP3    H2 5572   4.808   1.882   2.350  0.6591 -0.5929 -0.8054
 1856TIP3   OH2 5573   5.489   0.236   1.860 -0.3604  0.1247  0.5954
 1856TIP3    H1 5574   5.413   0.220   1.918 -2.4165 -2.8761 -2.5196
 1856TIP3    H2 5575   5.451   0.270   1.780  2.0522  1.4469 -0.0749
 1857TIP3   OH2 5576   4.999   4.188   2.508  0.0357  0.4409 -0.0175
 1857TIP3    H1 5577   4.979   4.112   2.453  0.8205  0.6707 -0.6561
 1857TIP3    H2 5578   5.093   4.204   2.493  0.1450  0.8376  0.9938
 1858TIP3   OH2 5579   4.728   1.121   0.150  0.0414 -0.0565  0.0232
 1858TIP3    H1 5580   4.764   1.193   0.203  0.1585  1.1742 -1.6099
 1858TIP3    H2 5581   4.666   1.164   0.091  0.3563 -1.2474 -1.2304
 1859TIP3   OH2 5582   6.155   1.500   2.638 -0.2301  0.1485  0.2553
 1859TIP3    H1 5583   6.089   1.561   2.671 -1.4810 -1.3830  0.6817
 1859TIP3    H2 5584   6.164   1.522   2.545 -1.0102  0.6683  0.2950
 1860TIP3   OH2 5585   1.212   2.591   0.377 -0.1212 -0.4659  0.2412
 1860TIP3    H1 5586   1.207   2.681   0.408 -1.5887  0.5480 -2.6335
 1860TIP3    H2 5587   1.159   2.541   0.440 -0.0602  0.8070  1.3393
 1861TIP3   OH2 5588   5.548   4.211   1.259 -0.5550  0.3092  0.5195
 1861TIP3    H1 5589   5.587   4.161   1.329  1.6519  1.3696  0.1217
 1861TIP3    H2 5590   5.497   4.147   1.209  1.3967 -1.3488  0.5586
 1862TIP3   OH2 5591   3.986   2.928   3.403  0.0382 -0.7129 -0.5418
 1862TIP3    H1 5592   3.967   2.857   3.465  1.0493 -1.4700 -1.0707
 1862TIP3    H2 5593   4.081   2.929   3.397  0.0790  1.1509 -0.0450
 1863TIP3   OH2 5594   2.739   1.249   5.122 -0.2872 -0.0228 -0.2317
 1863TIP3    H1 5595   2.822   1.210   5.147 -1.1272 -1.2852  0.7532
 1863TIP3    H2 5596   2.742   1.338   5.157  0.0971 -0.5201  1.0276
 1864TIP3   OH2 5597   3.870   2.484   3.812 -0.3120  0.2792 -0.6885
 1864TIP3    H1 5598   3.898   2.416   3.751 -1.6064 -2.4866  1.5760
 1864TIP3    H2 5599   3.947   2.501   3.866  0.3135  1.4580 -1.8860
 1865TIP3   OH2 5600   5.007   1.291   0.862  0.6746 -0.2016  0.4301
 1865TIP3    H1 5601   5.010   1.387   0.855  1.0618 -0.2457  0.0003
 1865TIP3    H2 5602   4.936   1.266   0.803  0.6077 -0.1870  0.5037
 1866TIP3   OH2 5603   3.752   5.510   2.930 -0.2032  0.0393 -0.0943
 1866TIP3    H1 5604   3.822   5.566   2.963  0.2655 -0.7425  0.2873
 1866TIP3    H2 5605   3.787   5.472   2.849  0.2015 -1.0465  0.5579
 1867TIP3   OH2 5606   6.249   5.890   4.709  0.0519  0.2641 -0.2894
 1867TIP3    H1 5607   6.162   5.882   4.669  0.5829  1.4774 -1.7498
 1867TIP3    H2 5608   6.231   5.889   4.803 -1.4650 -0.2755 -0.5521
 1868TIP3   OH2 5609   3.003   0.145   1.295 -0.0273  0.3885  0.0682
 1868TIP3    H1 5610   2.973   0.114   1.210  0.1946  1.1317 -0.2910
 1868TIP3    H2 5611   3.012   0.066   1.348 -0.4746 -0.0482 -0.4983
 1869TIP3   OH2 5612   5.359   2.895   3.031 -0.7583 -0.0887 -0.0469
 1869TIP3    H1 5613   5.411   2.849   2.964 -0.9064  0.0124 -0.2296
 1869TIP3    H2 5614   5.361   2.986   3.004  0.3131  0.1718  0.8157
 1870TIP3   OH2 5615   5.816   4.260   1.120  0.0550 -0.5720 -0.1279
 1870TIP3    H1 5616   5.765   4.194   1.168  1.7759 -1.5320  0.4443
 1870TIP3    H2 5617   5.846   4.214   1.042  0.5936 -0.2155 -0.1305
 1871TIP3   OH2 5618   2.338   1.562   3.070 -0.4031 -0.2931 -0.8232
 1871TIP3    H1 5619   2.333   1.657   3.075 -2.1515 -0.2807 -1.8530
 1871TIP3    H2 5620   2.279   1.531   3.140 -0.5901 -0.5961 -1.1107
 1872TIP3   OH2 5621   1.151   2.873   2.137  0.4118  0.2202 -0.1011
 1872TIP3    H1 5622   1.157   2.919   2.221 -0.8765  1.6892 -0.7668
 1872TIP3    H2 5623   1.231   2.820   2.133  1.1210  1.0958  1.4735
 1873TIP3   OH2 5624   5.405   4.138   2.234  0.0100 -0.1876  0.2558
 1873TIP3    H1 5625   5.443   4.067   2.182  1.2278  0.2948  0.4659
 1873TIP3    H2 5626   5.342   4.180   2.175 -0.0519 -0.8666 -0.1712
 1874TIP3   OH2 5627   6.210   0.944   0.315  0.3164  0.0558 -0.0693
 1874TIP3    H1 5628   6.166   0.972   0.234 -0.3162 -2.7621 -0.8099
 1874TIP3    H2 5629   6.142   0.948   0.382  0.1602 -0.0017 -0.2236
 1875TIP3   OH2 5630   0.121   5.347   0.353 -0.4081  0.2196  0.0228
 1875TIP3    H1 5631   0.102   5.269   0.301 -1.1399 -0.7468  1.6472
 1875TIP3    H2 5632   0.208   5.375   0.324  0.5970 -2.1876  0.5134
 1876TIP3   OH2 5633   3.032   5.603   1.435  0.2393  0.1548 -0.0923
 1876TIP3    H1 5634   3.054   5.695   1.451  0.0719  0.1515  0.1595
 1876TIP3    H2 5635   2.944   5.607   1.396  0.0491  0.0761  0.3255
 1877TIP3   OH2 5636   5.893   3.965   1.153 -0.2604  0.3672  0.9309
 1877TIP3    H1 5637   5.907   3.873   1.176 -0.2018  0.1274 -0.0352
 1877TIP3    H2 5638   5.952   3.981   1.080 -0.5142  1.0833  0.8736
 1878TIP3   OH2 5639   5.982   3.128   2.580  0.0942  0.0969  1.2467
 1878TIP3    H1 5640   6.035   3.126   2.500 -0.7797  1.3528  0.6003
 1878TIP3    H2 5641   6.024   3.065   2.638  0.6724 -0.9596 -0.2533
 1879TIP3   OH2 5642   5.697   2.176   0.523  0.1889 -0.5620 -0.3794
 1879TIP3    H1 5643   5.700   2.253   0.580 -3.5005 -1.0451  0.7293
 1879TIP3    H2 5644   5.713   2.210   0.435 -0.1322  1.2798  0.2397
 1880TIP3   OH2 5645   5.552   2.543   3.994  0.1232  0.4103 -0.2629
 1880TIP3    H1 5646   5.494   2.526   4.068  0.8067 -0.2422  0.1239
 1880TIP3    H2 5647   5.492   2.550   3.919 -0.4382 -0.5930  0.0685
 1881TIP3   OH2 5648   5.266   5.815   4.813  0.4499 -0.0516 -0.3318
 1881TIP3    H1 5649   5.283   5.744   4.751  0.5937 -0.9006  0.6550
 1881TIP3    H2 5650   5.209   5.875   4.765  0.8560 -0.4966 -1.4070
 1882TIP3   OH2 5651   5.553   5.851   4.699 -0.4294  0.1762 -0.1943
 1882TIP3    H1 5652   5.478   5.910   4.692  0.1491  1.0569  0.7895
 1882TIP3    H2 5653   5.515   5.764   4.697 -1.3709  0.5820 -0.9254
 1883TIP3   OH2 5654   2.946   2.347   4.618  0.2544 -0.3282  0.1805
 1883TIP3    H1 5655   2.941   2.376   4.709  0.5408 -0.1771  0.1493
 1883TIP3    H2 5656   3.003   2.411   4.575  0.7760 -0.8529  0.0822
 1884TIP3   OH2 5657   0.880   3.293   1.392  0.2957  0.2526  0.4494
 1884TIP3    H1 5658   0.918   3.381   1.401 -1.0481  0.8196  0.8566
 1884TIP3    H2 5659   0.955   3.235   1.390  1.2054  1.3782  0.6400
 1885TIP3   OH2 5660   3.578   1.711   5.081 -0.1599 -0.7010 -0.2972
 1885TIP3    H1 5661   3.552   1.780   5.142  0.0912  1.0777 -2.0848
 1885TIP3    H2 5662   3.505   1.707   5.019 -0.1257 -2.0229 -0.2694
 1886TIP3   OH2 5663   2.294   4.315   1.313  0.3724 -0.0303 -0.2056
 1886TIP3    H1 5664   2.318   4.285   1.400 -2.3283 -0.0567  0.6182
 1886TIP3    H2 5665   2.245   4.396   1.328  1.4657  1.0150 -1.8810
 1887TIP3   OH2 5666   6.176   0.654   1.647  0.0994  0.1120 -0.4226
 1887TIP3    H1 5667   6.220   0.712   1.709 -0.2879 -0.9052  0.8470
 1887TIP3    H2 5668   6.083   0.660   1.670 -0.0659 -0.1538 -1.0050
 1888TIP3   OH2 5669   5.888   0.215   0.794  0.2216  0.1553  0.3417
 1888TIP3    H1 5670   5.941   0.293   0.808  0.0784 -0.1643  3.1482
 1888TIP3    H2 5671   5.805   0.249   0.758  0.1198  1.3376  1.6193
 1889TIP3   OH2 5672   1.401   2.374   0.340 -0.1519 -0.7533  0.1843
 1889TIP3    H1 5673   1.433   2.402   0.254  0.6829 -0.2336  0.6571
 1889TIP3    H2 5674   1.343   2.446   0.368 -0.8586 -1.1735 -0.1736
 1890TIP3   OH2 5675   1.184   0.926   3.951 -0.2336 -0.6934  0.1631
 1890TIP3    H1 5676   1.102   0.911   3.905  0.4978 -1.3522 -0.9540
 1890TIP3    H2 5677   1.208   0.841   3.988  0.9137 -0.9688 -1.1610
 1891TIP3   OH2 5678   0.001   5.160   4.177 -1.0659 -0.3380 -0.7084
 1891TIP3    H1 5679   0.040   5.091   4.124 -0.4253 -1.4173  1.0672
 1891TIP3    H2 5680  -0.038   5.220   4.114  0.5020 -1.0203 -2.4265
 1892TIP3   OH2 5681   2.616   1.616   3.014 -0.2187  0.2513  0.3774
 1892TIP3    H1 5682   2.537   1.603   3.066 -0.8948 -0.2376 -0.7268
 1892TIP3    H2 5683   2.659   1.531   3.013 -1.1975 -0.2722 -1.3790
 1893TIP3   OH2 5684   1.890   2.556   0.285 -0.1069  0.5702 -0.0736
 1893TIP3    H1 5685   1.984   2.544   0.296 -0.1887 -0.4427 -0.3727
 1893TIP3    H2 5686   1.856   2.468   0.272 -1.1047  0.9220  0.0497
 1894TIP3   OH2 5687   5.416   1.498   3.065  0.4363 -0.5397  0.2022
 1894TIP3    H1 5688   5.357   1.530   3.133  0.4436  0.1584 -0.1143
 1894TIP3    H2 5689   5.480   1.444   3.112  0.4737 -0.0227  0.7509
 1895TIP3   OH2 5690   4.408   4.195   4.772  0.0583 -0.2583  0.0355
 1895TIP3    H1 5691   4.337   4.132   4.786  0.5110 -0.6982  0.4153
 1895TIP3    H2 5692   4.474   4.145   4.723 -0.3107  0.4410 -1.2187
 1896TIP3   OH2 5693   4.200   4.892   3.937  0.0449  0.2468  0.3341
 1896TIP3    H1 5694   4.289   4.865   3.958 -0.9226 -0.2991  4.7686
 1896TIP3    H2 5695   4.147   4.814   3.954 -1.4329  0.7586 -1.5148
 1897TIP3   OH2 5696   1.951   5.410   4.505 -0.0055  0.1138 -0.4609
 1897TIP3    H1 5697   1.879   5.436   4.564  0.1353 -0.1429 -0.1730
 1897TIP3    H2 5698   1.908   5.394   4.421 -0.7927 -2.9580  0.4087
 1898TIP3   OH2 5699   5.274   4.245   0.593 -0.3301  0.1573 -0.0267
 1898TIP3    H1 5700   5.348   4.301   0.569 -0.7534  1.5177  1.6281
 1898TIP3    H2 5701   5.202   4.307   0.611 -1.1434 -0.9875  0.7749
 1899TIP3   OH2 5702   2.507   5.898   4.175 -0.6552 -0.7156 -0.2952
 1899TIP3    H1 5703   2.465   5.984   4.179  2.1259  0.8426 -1.2263
 1899TIP3    H2 5704   2.564   5.896   4.252  0.3343 -1.0914 -1.0182
 1900TIP3   OH2 5705   5.320   1.252   2.106  0.0313 -0.1939 -0.2644
 1900TIP3    H1 5706   5.411   1.263   2.135  0.4403 -0.6383 -1.3362
 1900TIP3    H2 5707   5.309   1.157   2.099 -1.1249 -0.2618  1.6532
 1901TIP3   OH2 5708   1.315   1.676   2.138 -0.1502 -0.0100  0.1514
 1901TIP3    H1 5709   1.262   1.617   2.191  0.3754 -1.5917 -0.9672
 1901TIP3    H2 5710   1.252   1.729   2.089 -0.7246 -1.4207 -0.6905
 1902TIP3   OH2 5711   3.574   5.853   2.557 -0.7363  0.2054  0.6022
 1902TIP3    H1 5712   3.524   5.827   2.634 -1.7610  0.6948  0.1186
 1902TIP3    H2 5713   3.552   5.945   2.544 -0.9259  0.0102 -0.5364
 1903TIP3   OH2 5714   5.725   2.792   4.836  0.2119 -0.0888 -0.0497
 1903TIP3    H1 5715   5.810   2.798   4.880  1.1712 -1.9531 -1.5205
 1903TIP3    H2 5716   5.741   2.821   4.747 -0.6903 -0.4854 -0.3557
 1904TIP3   OH2 5717   3.847   1.897   2.059  0.0311  0.2836  0.4370
 1904TIP3    H1 5718   3.808   1.815   2.090  0.3068  0.7699  2.1722
 1904TIP3    H2 5719   3.831   1.959   2.130  2.3654  0.9681  0.4400
 1905TIP3   OH2 5720   5.147   3.067   5.029 -0.6041  0.3973  0.2632
 1905TIP3    H1 5721   5.064   3.041   5.070 -1.3681  4.3937  1.6358
 1905TIP3    H2 5722   5.212   3.058   5.099 -0.0252 -1.5615 -0.4651
 1906TIP3   OH2 5723   0.940   5.337   0.305  0.6019 -0.0757 -0.2025
 1906TIP3    H1 5724   0.901   5.339   0.218  0.7972  1.3616 -0.2782
 1906TIP3    H2 5725   0.873   5.297   0.360 -0.5073  1.1976 -0.5753
 1907TIP3   OH2 5726   3.066   3.855   1.794 -0.1946 -0.1929  0.1035
 1907TIP3    H1 5727   2.997   3.791   1.778 -0.0673 -1.0175  2.4918
 1907TIP3    H2 5728   3.096   3.836   1.882  2.0775  1.1159 -0.3119
 1908TIP3   OH2 5729   4.512   5.272   1.896 -1.1841 -0.4248 -1.2378
 1908TIP3    H1 5730   4.465   5.312   1.969 -1.2107  1.1909 -2.0841
 1908TIP3    H2 5731   4.469   5.307   1.818  0.5193  0.0070 -2.0376
 1909TIP3   OH2 5732   3.694   4.700   1.679  0.3530 -0.1265  0.3301
 1909TIP3    H1 5733   3.682   4.703   1.774  0.7177  0.4689  0.3677
 1909TIP3    H2 5734   3.607   4.713   1.643  0.5320  2.4070  0.5941
 1910TIP3   OH2 5735   1.767   2.401   2.808 -0.5763  0.1856  0.3128
 1910TIP3    H1 5736   1.715   2.347   2.748  2.3424 -1.8542 -0.5996
 1910TIP3    H2 5737   1.760   2.357   2.893  0.0027 -0.3653  0.0814
 1911TIP3   OH2 5738   5.280   1.613   1.269 -0.3795  0.1241 -1.0838
 1911TIP3    H1 5739   5.276   1.706   1.288 -0.8484  0.2362 -1.7097
 1911TIP3    H2 5740   5.190   1.589   1.246 -0.1962 -0.4053 -1.2647
 1912TIP3   OH2 5741   3.594   5.273   3.961 -0.4858  0.4060  0.5353
 1912TIP3    H1 5742   3.527   5.264   4.029 -1.1828 -1.1168 -0.3243
 1912TIP3    H2 5743   3.547   5.304   3.884 -0.1775 -0.4333 -0.0027
 1913TIP3   OH2 5744   3.169   1.639   3.665 -0.3349  0.4117 -0.3485
 1913TIP3    H1 5745   3.116   1.601   3.595  0.5693  1.5703 -1.7345
 1913TIP3    H2 5746   3.238   1.687   3.619  1.2005 -0.0324  1.3752
 1914TIP3   OH2 5747   5.116   4.527   3.729  0.2732  0.1063  0.4004
 1914TIP3    H1 5748   5.097   4.434   3.739 -0.0591 -0.1429 -2.0773
 1914TIP3    H2 5749   5.196   4.541   3.780  1.0420 -1.8172 -0.2117
 1915TIP3   OH2 5750   1.086   5.974   0.081 -0.2288  0.8676  0.2860
 1915TIP3    H1 5751   1.061   5.950   0.170 -0.8393  0.0948 -0.0815
 1915TIP3    H2 5752   1.156   6.038   0.092  1.4477 -1.0326  1.3259
 1916TIP3   OH2 5753   4.161   4.644   1.831  0.0780  0.0943  0.0031
 1916TIP3    H1 5754   4.147   4.611   1.919  0.3638  2.5976  1.0812
 1916TIP3    H2 5755   4.253   4.624   1.812  0.2876  0.3865  0.6805
 1917TIP3   OH2 5756   1.779   0.106   0.417 -0.4348  0.0275  0.0641
 1917TIP3    H1 5757   1.854   0.056   0.449  0.4491  1.1959 -0.0935
 1917TIP3    H2 5758   1.731   0.131   0.496  1.3612  2.3194  0.5446
 1918TIP3   OH2 5759   2.810   5.256   1.549  0.1033 -0.0385 -0.3186
 1918TIP3    H1 5760   2.881   5.315   1.574  0.0668 -0.7226  1.5246
 1918TIP3    H2 5761   2.830   5.231   1.459  2.9934 -1.3037  0.5766
 1919TIP3   OH2 5762   3.726   1.294   2.073 -0.0343 -0.2691 -0.3671
 1919TIP3    H1 5763   3.740   1.201   2.091 -0.1505  0.1190  2.2450
 1919TIP3    H2 5764   3.671   1.323   2.146  0.4394  1.9618 -0.8425
 1920TIP3   OH2 5765   4.292   0.047   0.300  0.4073 -0.2291 -0.0236
 1920TIP3    H1 5766   4.219   0.104   0.278  1.2669  0.7684 -0.4001
 1920TIP3    H2 5767   4.283   0.031   0.394 -0.1207  0.1210 -0.0116
 1921TIP3   OH2 5768   5.439   3.759   3.773 -0.3584  0.5461  0.1784
 1921TIP3    H1 5769   5.460   3.702   3.847 -1.8938 -1.0647 -0.5509
 1921TIP3    H2 5770   5.376   3.822   3.808 -0.0747  0.6096  0.5680
 1922TIP3   OH2 5771   2.737   4.573   4.648 -0.4644  0.5576 -0.3912
 1922TIP3    H1 5772   2.681   4.640   4.688 -0.0284  1.4789 -1.2820
 1922TIP3    H2 5773   2.683   4.536   4.578 -0.7323 -0.0983  0.1478
 1923TIP3   OH2 5774   1.892   3.656   2.959  0.1410  0.3901 -0.2368
 1923TIP3    H1 5775   1.951   3.649   2.884 -0.1415  3.2617 -0.8257
 1923TIP3    H2 5776   1.951   3.662   3.035  0.4671 -0.8910 -0.3730
 1924TIP3   OH2 5777   4.723   2.773   1.939 -0.0962 -0.3884  0.3374
 1924TIP3    H1 5778   4.647   2.778   1.996  0.5400 -1.3074  1.2995
 1924TIP3    H2 5779   4.702   2.703   1.876 -1.0532  1.0389 -0.9910
 1925TIP3   OH2 5780   1.686   1.365   0.234 -0.8951  0.4905 -0.2033
 1925TIP3    H1 5781   1.732   1.334   0.312 -2.1568  0.1202  0.4373
 1925TIP3    H2 5782   1.675   1.460   0.249  4.3715  1.8651 -2.8950
 1926TIP3   OH2 5783   3.516   1.688   3.872 -0.7942  0.2855  0.5089
 1926TIP3    H1 5784   3.582   1.620   3.858  0.6998  1.6494  0.6420
 1926TIP3    H2 5785   3.506   1.730   3.787 -0.0986  1.2759  0.9014
 1927TIP3   OH2 5786   3.802   4.448   2.952 -0.2814 -0.3652 -0.3783
 1927TIP3    H1 5787   3.875   4.481   2.899 -1.9799  1.2971 -1.8764
 1927TIP3    H2 5788   3.734   4.515   2.942 -0.8875 -0.1113  3.7133
 1928TIP3   OH2 5789   5.535   2.982   4.883 -0.4441 -0.4300 -0.5337
 1928TIP3    H1 5790   5.603   2.916   4.869 -1.1426 -1.1181 -0.7584
 1928TIP3    H2 5791   5.579   3.053   4.929  0.8275 -0.1333 -2.1050
 1929TIP3   OH2 5792   0.467   0.713   2.297  0.3620 -0.3384  0.1244
 1929TIP3    H1 5793   0.459   0.805   2.272 -0.5406 -0.8970 -1.8287
 1929TIP3    H2 5794   0.378   0.678   2.288  0.8053 -1.5318  0.2061
 1930TIP3   OH2 5795   3.115   3.679   2.476  0.4930 -0.1209  0.5798
 1930TIP3    H1 5796   3.173   3.636   2.413 -0.9762 -0.6796 -0.4448
 1930TIP3    H2 5797   3.097   3.612   2.541  0.9739  0.0486  0.8913
 1931TIP3   OH2 5798   4.848   2.858   1.107 -0.4175 -0.4686  0.0810
 1931TIP3    H1 5799   4.877   2.827   1.021  1.2390 -1.6051  0.9885
 1931TIP3    H2 5800   4.929   2.882   1.153 -1.3070  0.6513  1.1430
 1932TIP3   OH2 5801   6.061   3.941   4.819  0.1017  0.7509  0.0456
 1932TIP3    H1 5802   6.150   3.941   4.853  0.4324  1.1062 -0.7988
 1932TIP3    H2 5803   6.017   3.871   4.867  0.8235  0.6002  0.4996
 1933TIP3   OH2 5804   0.948   4.122   0.142 -0.3701 -0.0710 -0.3841
 1933TIP3    H1 5805   0.964   4.062   0.215 -1.0537 -0.1131 -0.2607
 1933TIP3    H2 5806   0.884   4.077   0.087 -0.2943  0.2076 -0.7048
 1934TIP3   OH2 5807   1.872   5.160   0.385 -0.8211 -0.1947 -0.6077
 1934TIP3    H1 5808   1.800   5.116   0.429 -0.9222 -0.5701 -1.1388
 1934TIP3    H2 5809   1.833   5.195   0.305 -0.2104 -1.2472 -1.3914
 1935TIP3   OH2 5810   2.124   1.408   4.355  0.4035  0.1517  0.4305
 1935TIP3    H1 5811   2.187   1.336   4.360  1.7809  1.3698  2.3376
 1935TIP3    H2 5812   2.167   1.474   4.300 -0.5949 -0.2089 -0.8242
 1936TIP3   OH2 5813   2.601   5.263   4.763 -0.1322  0.3451  0.5320
 1936TIP3    H1 5814   2.587   5.358   4.763  0.3229  0.4158  1.0907
 1936TIP3    H2 5815   2.687   5.251   4.803  0.5721 -0.2020 -1.0587
 1937TIP3   OH2 5816   4.143   3.483   2.766  0.8939 -0.4334  0.3141
 1937TIP3    H1 5817   4.148   3.447   2.854  0.0803  0.3622  0.7034
 1937TIP3    H2 5818   4.079   3.429   2.721  1.6862 -1.1642  0.0330
 1938TIP3   OH2 5819   1.134   4.817   0.181  0.3720 -0.0318  0.3793
 1938TIP3    H1 5820   1.141   4.905   0.144  1.6000 -0.0975  0.4132
 1938TIP3    H2 5821   1.084   4.829   0.261  2.2480  1.0030  1.4610
 1939TIP3   OH2 5822   5.475   4.209   3.704 -0.6120  0.5564 -0.1481
 1939TIP3    H1 5823   5.570   4.217   3.695 -0.4328 -0.7652  0.2765
 1939TIP3    H2 5824   5.440   4.273   3.643  0.5643 -0.1704 -1.6626
 1940TIP3   OH2 5825   3.364   3.573   4.246 -0.5568 -0.0519  0.1840
 1940TIP3    H1 5826   3.330   3.553   4.333 -0.6929 -1.6103 -0.2023
 1940TIP3    H2 5827   3.436   3.512   4.234 -0.2239  0.4823 -0.6129
 1941TIP3   OH2 5828   4.546   4.971   1.660  0.0844  0.0440  0.1558
 1941TIP3    H1 5829   4.454   4.951   1.642  0.0772 -0.0743  0.3244
 1941TIP3    H2 5830   4.589   4.886   1.661  0.4052  0.1712 -1.0582
 1942TIP3   OH2 5831   3.354   2.541   2.343 -0.2060  0.1872 -0.2274
 1942TIP3    H1 5832   3.296   2.558   2.418 -0.8184 -1.7580 -0.2090
 1942TIP3    H2 5833   3.315   2.589   2.271 -1.7582 -0.9227 -0.1613
 1943TIP3   OH2 5834   0.871   4.096   2.316  0.1902 -0.8148 -0.3455
 1943TIP3    H1 5835   0.798   4.158   2.325 -0.4466 -1.3169 -1.7932
 1943TIP3    H2 5836   0.836   4.014   2.351  0.8787 -0.5167  1.1345
 1944TIP3   OH2 5837   1.843   0.671   0.354 -0.2168 -0.1676  0.3129
 1944TIP3    H1 5838   1.769   0.709   0.400 -0.2742 -0.8091  0.7639
 1944TIP3    H2 5839   1.807   0.595   0.308 -0.3563  0.9711 -1.5726
 1945TIP3   OH2 5840   5.994   2.213   2.587 -1.0325  0.5802 -0.2058
 1945TIP3    H1 5841   5.971   2.146   2.522 -0.7660  0.6156 -0.3397
 1945TIP3    H2 5842   6.043   2.166   2.654  0.5770  0.9055 -1.1012
 1946TIP3   OH2 5843   4.930   3.215   3.949  0.0488 -0.0298 -0.3021
 1946TIP3    H1 5844   4.936   3.193   3.856 -2.1593  1.4899 -0.8846
 1946TIP3    H2 5845   4.880   3.143   3.987  1.4236 -0.9332 -0.1226
 1947TIP3   OH2 5846   2.242   3.002   1.579  0.0869  0.3833 -0.0950
 1947TIP3    H1 5847   2.190   2.943   1.525  0.0386 -0.2682  0.6536
 1947TIP3    H2 5848   2.182   3.031   1.647  0.5035  0.1903  0.3554
 1948TIP3   OH2 5849   1.298   2.394   3.601  0.2940  0.0600 -0.1452
 1948TIP3    H1 5850   1.376   2.342   3.620  0.2967  0.0566 -0.1652
 1948TIP3    H2 5851   1.298   2.463   3.668  1.3308  1.1670 -1.2407
 1949TIP3   OH2 5852   1.663   5.065   0.549  0.4731 -0.4086  0.4746
 1949TIP3    H1 5853   1.697   5.040   0.635  1.3273 -2.1603 -0.3348
 1949TIP3    H2 5854   1.568   5.060   0.559  0.5585 -0.5240  1.3202
 1950TIP3   OH2 5855   2.093   2.865   3.430 -0.5085 -0.6555 -0.0574
 1950TIP3    H1 5856   2.188   2.856   3.422 -0.4546 -1.3364  1.1612
 1950TIP3    H2 5857   2.058   2.777   3.417 -0.8837 -0.6122  0.5957
 1951TIP3   OH2 5858   3.636   2.961   0.157 -0.2658 -0.1909  0.3089
 1951TIP3    H1 5859   3.541   2.958   0.167 -0.4744  2.0269 -0.2814
 1951TIP3    H2 5860   3.663   2.870   0.144 -2.5253 -0.7106 -1.2322
 1952TIP3   OH2 5861   1.953   0.215   4.118 -0.2399 -0.2014  0.7766
 1952TIP3    H1 5862   1.958   0.183   4.208  0.5381 -0.2873  0.7095
 1952TIP3    H2 5863   1.882   0.278   4.119  0.0078  0.0818  1.5447
 1953TIP3   OH2 5864   0.544   2.775   4.372 -0.1841  0.5138  0.1261
 1953TIP3    H1 5865   0.570   2.716   4.301 -0.1950  1.1138 -0.3797
 1953TIP3    H2 5866   0.468   2.733   4.411 -0.9118  0.7576 -0.9825
 1954TIP3   OH2 5867   1.688   5.003   1.509 -0.3724 -0.3777 -0.9127
 1954TIP3    H1 5868   1.673   5.025   1.417 -1.1365  1.2063 -0.4443
 1954TIP3    H2 5869   1.603   4.973   1.540 -0.6674  1.1149 -0.2120
 1955TIP3   OH2 5870   0.682   1.816   3.391  0.0768 -0.4766 -0.2791
 1955TIP3    H1 5871   0.651   1.881   3.454  0.2593  0.3743 -1.0420
 1955TIP3    H2 5872   0.603   1.782   3.350  0.0419  0.3123 -0.8823
 1956TIP3   OH2 5873   1.133   4.649   3.775 -0.7011 -0.2476 -0.0645
 1956TIP3    H1 5874   1.101   4.660   3.864  2.0713  1.6358  0.8514
 1956TIP3    H2 5875   1.086   4.716   3.724  0.8793  1.8200  1.0420
 1957TIP3   OH2 5876   3.376   5.156   3.426  0.2282 -0.1401  0.3793
 1957TIP3    H1 5877   3.297   5.207   3.440  0.1691 -0.2452  0.4298
 1957TIP3    H2 5878   3.373   5.133   3.333 -0.2329 -0.8574  0.5617
 1958TIP3   OH2 5879   1.652   5.364   1.323 -0.2414  0.1587 -0.6865
 1958TIP3    H1 5880   1.649   5.454   1.357 -1.5821 -0.8077  2.0510
 1958TIP3    H2 5881   1.741   5.354   1.290  0.8211  1.6695  1.4652
 1959TIP3   OH2 5882   2.061   1.543   2.435 -1.0407 -0.0124  0.1846
 1959TIP3    H1 5883   2.152   1.571   2.427 -0.6048 -1.2727  0.5632
 1959TIP3    H2 5884   2.041   1.554   2.528 -0.9659 -0.6441  0.2777
 1960TIP3   OH2 5885   3.839   0.281   2.117 -0.2641 -0.2865 -0.5630
 1960TIP3    H1 5886   3.880   0.270   2.032  2.3548  0.1972  0.5466
 1960TIP3    H2 5887   3.823   0.375   2.124 -0.8553 -0.3734 -0.6466
 1961TIP3   OH2 5888   0.992   4.803   3.599  0.0866  0.5933  0.4194
 1961TIP3    H1 5889   0.982   4.725   3.545  1.7782  0.7310 -0.1713
 1961TIP3    H2 5890   0.905   4.842   3.602  0.0307  1.0476 -2.9507
 1962TIP3   OH2 5891   3.246   3.238   3.791 -0.4051  0.3806  0.1402
 1962TIP3    H1 5892   3.204   3.160   3.753 -2.9408  0.8734  1.6493
 1962TIP3    H2 5893   3.266   3.212   3.881 -1.5536  1.5145  0.7474
 1963TIP3   OH2 5894   4.664   5.304   3.234 -0.4298 -0.2074 -0.5776
 1963TIP3    H1 5895   4.688   5.393   3.261  0.0729 -0.2435 -0.8953
 1963TIP3    H2 5896   4.599   5.277   3.299  1.9782 -0.9351  1.7572
 1964TIP3   OH2 5897   3.400   5.423   3.253  0.6678  0.3106  0.3405
 1964TIP3    H1 5898   3.371   5.513   3.264  0.9460  0.1940  2.6067
 1964TIP3    H2 5899   3.340   5.385   3.189 -0.5998  1.6096  0.7196
 1965TIP3   OH2 5900   0.607   1.544   0.201  0.6619 -0.1858 -0.1542
 1965TIP3    H1 5901   0.512   1.537   0.202  0.6905 -2.1640  2.9224
 1965TIP3    H2 5902   0.633   1.504   0.117 -1.1781 -0.8536 -0.4453
 1966TIP3   OH2 5903   3.444   1.307   0.667 -0.2471 -0.0917  0.2207
 1966TIP3    H1 5904   3.477   1.318   0.578  0.2912 -1.9316  0.1739
 1966TIP3    H2 5905   3.495   1.369   0.720  1.6294 -1.1962 -0.2449
 1967TIP3   OH2 5906   4.822   2.939   2.120  0.7131 -0.0513  0.0768
 1967TIP3    H1 5907   4.818   2.878   2.046  1.5298  0.3292 -0.2936
 1967TIP3    H2 5908   4.789   3.022   2.084 -1.5507 -0.5125  0.8894
 1968TIP3   OH2 5909   3.775   2.086   2.254  0.3552  0.1265  0.3148
 1968TIP3    H1 5910   3.761   2.072   2.348 -1.3320 -2.1702 -0.1905
 1968TIP3    H2 5911   3.688   2.078   2.215  1.1872 -0.2043 -1.5763
 1969TIP3   OH2 5912   2.172   2.693   4.551 -0.4992  0.0011 -0.5720
 1969TIP3    H1 5913   2.147   2.649   4.470 -2.6248  1.5628 -0.8618
 1969TIP3    H2 5914   2.119   2.773   4.551  0.4722  0.7027  1.7014
 1970TIP3   OH2 5915   0.393   5.862   2.173 -0.4381 -0.1166 -0.1006
 1970TIP3    H1 5916   0.302   5.889   2.159  0.1571  1.5680 -0.9665
 1970TIP3    H2 5917   0.445   5.938   2.149  1.2541 -1.2387 -0.1885
 1971TIP3   OH2 5918   4.614   5.023   1.932  0.4561 -0.5202 -0.1919
 1971TIP3    H1 5919   4.573   5.107   1.955 -1.4238 -0.8485 -2.0131
 1971TIP3    H2 5920   4.600   5.015   1.838  0.8555 -2.7532 -0.1109
 1972TIP3   OH2 5921   0.830   4.226   1.612  0.0745 -0.3139 -0.3664
 1972TIP3    H1 5922   0.886   4.227   1.535 -1.6838  0.8320 -1.7307
 1972TIP3    H2 5923   0.742   4.241   1.577 -0.8336 -0.1654  1.8359
 1973TIP3   OH2 5924   3.094   3.837   2.063 -0.0721  0.3612  0.6031
 1973TIP3    H1 5925   3.078   3.888   2.143  1.9598  0.6896  0.8578
 1973TIP3    H2 5926   3.188   3.845   2.048 -0.1787 -0.8999 -1.0281
 1974TIP3   OH2 5927   1.661   3.321   5.158 -0.0357 -0.0020  0.1130
 1974TIP3    H1 5928   1.700   3.283   5.080  2.8797  0.9061  1.0094
 1974TIP3    H2 5929   1.639   3.411   5.133  0.6284  0.1984  0.2328
 1975TIP3   OH2 5930   5.830   3.490   5.026  0.0649  0.1921 -0.1368
 1975TIP3    H1 5931   5.784   3.516   4.946 -1.2667  0.1489  0.5849
 1975TIP3    H2 5932   5.892   3.561   5.043  1.5706 -0.5596 -2.0887
 1976TIP3   OH2 5933   4.221   1.251   0.097 -0.0202  0.5346  0.2246
 1976TIP3    H1 5934   4.151   1.313   0.118 -1.8393 -1.1784 -0.5038
 1976TIP3    H2 5935   4.238   1.265   0.004  0.0630  0.4132  0.2215
 1977TIP3   OH2 5936   4.853   1.724   4.747 -0.5001  0.4390 -0.8317
 1977TIP3    H1 5937   4.807   1.779   4.684  0.5961  2.0544 -0.2891
 1977TIP3    H2 5938   4.946   1.734   4.726 -0.2397 -0.9450 -0.4847
 1978TIP3   OH2 5939   5.553   5.099   2.664  0.2811  0.2263  0.3367
 1978TIP3    H1 5940   5.620   5.037   2.695  0.7990  0.9746  0.7351
 1978TIP3    H2 5941   5.575   5.113   2.571  1.7536  1.7804  0.8669
 1979TIP3   OH2 5942   2.933   5.976   1.369  0.3073 -0.7595  0.2919
 1979TIP3    H1 5943   2.891   6.014   1.447  0.8382  0.6473 -0.0695
 1979TIP3    H2 5944   3.005   5.923   1.404 -0.2876 -1.2391  0.8098
 1980TIP3   OH2 5945   4.557   4.932   3.698 -0.3433 -0.1686  0.4680
 1980TIP3    H1 5946   4.510   4.957   3.778 -0.0458  1.5709  0.1341
 1980TIP3    H2 5947   4.637   4.985   3.700 -0.5891  0.3108 -1.2354
 1981TIP3   OH2 5948   0.583   5.722   1.605 -0.7760 -0.1352  0.0853
 1981TIP3    H1 5949   0.574   5.655   1.538 -2.2022 -1.3178  1.3717
 1981TIP3    H2 5950   0.499   5.722   1.650 -0.9799  2.8241 -0.0813
 1982TIP3   OH2 5951   5.265   1.715   4.429 -0.3402 -0.2048  0.0701
 1982TIP3    H1 5952   5.234   1.673   4.509 -0.3389  0.6756  0.5393
 1982TIP3    H2 5953   5.354   1.681   4.418 -0.2165 -0.0688  0.6273
 1983TIP3   OH2 5954   4.827   3.431   4.093 -0.2613 -0.2009  0.0060
 1983TIP3    H1 5955   4.752   3.412   4.148 -1.8524 -0.9609 -2.2687
 1983TIP3    H2 5956   4.837   3.354   4.037  1.9801  0.0490 -0.0390
 1984TIP3   OH2 5957   2.967   0.718   1.743  0.1138  0.5589 -0.0838
 1984TIP3    H1 5958   2.874   0.697   1.756 -0.5070  1.0860 -3.0275
 1984TIP3    H2 5959   2.997   0.657   1.676  1.7379  0.8123  0.3663
 1985TIP3   OH2 5960   1.791   4.124   0.360  0.0632 -0.0249  0.6817
 1985TIP3    H1 5961   1.717   4.176   0.392 -0.2599 -0.3413  0.4632
 1985TIP3    H2 5962   1.752   4.041   0.334 -0.0475  0.8819 -2.4333
 1986TIP3   OH2 5963   5.997   5.542   3.141  0.4041 -0.4484  0.1324
 1986TIP3    H1 5964   5.902   5.545   3.128  0.6423 -0.2325 -1.9254
 1986TIP3    H2 5965   6.021   5.453   3.115  0.6797 -0.7865  1.4998
 1987TIP3   OH2 5966   5.341   4.322   0.861  0.3252  0.0451 -0.4215
 1987TIP3    H1 5967   5.257   4.310   0.906  0.3187  1.4032 -0.0306
 1987TIP3    H2 5968   5.340   4.258   0.790 -0.9610 -0.0880 -0.3049
 1988TIP3   OH2 5969   2.664   1.687   0.879 -0.3678  0.2041 -0.4923
 1988TIP3    H1 5970   2.656   1.776   0.845 -1.4729  0.1570 -0.4001
 1988TIP3    H2 5971   2.745   1.688   0.931  0.2549  0.8185 -1.4510
 1989TIP3   OH2 5972   6.320   5.218   2.342 -0.0736  0.1038  0.2406
 1989TIP3    H1 5973   6.388   5.264   2.292 -0.1598  0.4422  0.4310
 1989TIP3    H2 5974   6.277   5.287   2.392  0.1804 -0.2694  0.9900
 1990TIP3   OH2 5975   6.022   0.122   1.770  0.5966  0.2997  0.2140
 1990TIP3    H1 5976   5.988   0.121   1.859 -0.9907 -2.3568 -0.2707
 1990TIP3    H2 5977   5.943   0.123   1.715  1.5362  2.6471 -1.2239
 1991TIP3   OH2 5978   6.084   2.560   3.248 -0.2369 -0.5347  0.1725
 1991TIP3    H1 5979   6.144   2.529   3.316  0.8333  0.1927 -0.4049
 1991TIP3    H2 5980   5.997   2.541   3.282  0.3270 -2.3124  0.7081
 1992TIP3   OH2 5981   5.948   1.713   0.660 -0.1549 -0.1675  0.1835
 1992TIP3    H1 5982   5.908   1.796   0.683 -0.1886 -0.1526  0.0701
 1992TIP3    H2 5983   5.887   1.647   0.694  0.7800 -0.1808  1.9747
 1993TIP3   OH2 5984   5.535   1.627   4.432 -0.0438  0.0836 -0.2028
 1993TIP3    H1 5985   5.569   1.585   4.511 -1.6756 -1.8364 -0.4398
 1993TIP3    H2 5986   5.554   1.720   4.445  1.3027 -0.3764  1.6142
 1994TIP3   OH2 5987   1.214   2.146   4.891  0.2992  0.0916  0.0566
 1994TIP3    H1 5988   1.242   2.077   4.951 -1.9155 -0.5042  0.5251
 1994TIP3    H2 5989   1.143   2.191   4.938  0.3467  1.3829 -1.0509
 1995TIP3   OH2 5990   4.605   5.875   3.991  0.2824 -0.0740 -0.2648
 1995TIP3    H1 5991   4.614   5.824   4.072 -0.4722 -0.1599 -0.2293
 1995TIP3    H2 5992   4.687   5.924   3.985 -0.0423  0.7088  1.0824
 1996TIP3   OH2 5993   0.900   5.014   3.872 -0.5912 -0.2793  0.2464
 1996TIP3    H1 5994   0.898   4.940   3.933 -0.5498  1.1819  2.1056
 1996TIP3    H2 5995   0.984   5.056   3.888 -0.0363 -0.5244 -1.7266
 1997TIP3   OH2 5996   1.809   2.031   5.075  0.4870  0.2874  0.0118
 1997TIP3    H1 5997   1.743   1.964   5.059 -0.2619  1.4050 -1.9235
 1997TIP3    H2 5998   1.759   2.106   5.108  0.5758  1.4353 -2.2765
 1998TIP3   OH2 5999   4.822   3.269   3.398  0.8884  0.1379 -0.2702
 1998TIP3    H1 6000   4.871   3.192   3.368  2.3485  0.1046  1.9398
 1998TIP3    H2 6001   4.869   3.343   3.360  1.2281  0.0210 -0.0848
 1999TIP3   OH2 6002   0.753   5.712   1.823 -0.3773 -0.0544 -0.0169
 1999TIP3    H1 6003   0.689   5.735   1.891 -0.5208  0.4428 -0.3177
 1999TIP3    H2 6004   0.702   5.709   1.742  0.2283  1.7338 -0.4886
 2000TIP3   OH2 6005   6.052   3.778   1.652 -0.2520  0.1859 -0.4350
 2000TIP3    H1 6006   6.018   3.867   1.638 -1.1191 -0.1882 -0.7342
 2000TIP3    H2 6007   5.991   3.738   1.713  0.4865 -0.0189  0.1926
 2001TIP3   OH2 6008   2.791   4.727   2.564  0.1990  0.6334  0.1284
 2001TIP3    H1 6009   2.830   4.803   2.606  1.5925 -0.1827  0.3927
 2001TIP3    H2 6010   2.717   4.761   2.515  1.5061  2.3667 -0.7579
 2002TIP3   OH2 6011   1.748   4.191   1.021 -0.1897 -0.2059  0.4152
 2002TIP3    H1 6012   1.682   4.257   1.041 -1.1569 -1.2617  0.8465
 2002TIP3    H2 6013   1.772   4.207   0.930 -1.9736 -0.5793 -0.1447
 2003TIP3   OH2 6014   5.445   2.482   3.137 -0.7529 -0.0203 -0.7160
 2003TIP3    H1 6015   5.352   2.484   3.111 -0.7354 -0.9693 -0.8922
 2003TIP3    H2 6016   5.443   2.453   3.228 -0.6388  0.2409 -0.6296
 2004TIP3   OH2 6017   3.743   5.235   5.042 -0.0323 -0.1491 -1.1402
 2004TIP3    H1 6018   3.755   5.205   5.132  1.5928  0.4915 -1.1092
 2004TIP3    H2 6019   3.815   5.196   4.994 -0.8985 -0.5023 -2.1979
 2005TIP3   OH2 6020   2.284   5.245   3.509 -0.4636 -0.3621 -0.0941
 2005TIP3    H1 6021   2.369   5.254   3.465 -0.7501  0.2316 -0.5273
 2005TIP3    H2 6022   2.302   5.183   3.580  0.1941 -0.7101 -0.5418
 2006TIP3   OH2 6023   3.961   4.753   3.709  0.1319 -0.4542 -1.0300
 2006TIP3    H1 6024   3.907   4.745   3.630  0.4732  0.6849 -1.3937
 2006TIP3    H2 6025   4.032   4.812   3.685  1.1563 -1.3577 -0.3328
 2007TIP3   OH2 6026   3.998   0.539   1.836 -0.3479  0.6838  0.2352
 2007TIP3    H1 6027   4.037   0.626   1.828  1.4648 -0.0287  0.6866
 2007TIP3    H2 6028   4.067   0.479   1.807 -1.4706 -0.6236  0.1371
 2008TIP3   OH2 6029   1.550   2.729   2.339  0.2997  1.0501 -0.0781
 2008TIP3    H1 6030   1.591   2.759   2.420 -1.9737  2.0382  0.7890
 2008TIP3    H2 6031   1.578   2.638   2.331  0.0947  0.7061  2.2091
 2009TIP3   OH2 6032   3.344   1.263   2.393  0.2348 -0.0865 -0.1007
 2009TIP3    H1 6033   3.251   1.261   2.373  0.7479 -2.0761 -2.8354
 2009TIP3    H2 6034   3.352   1.212   2.473 -1.1174  1.4638  1.1003
 2010TIP3   OH2 6035   1.102   0.901   3.639  0.1443 -0.1903  0.0950
 2010TIP3    H1 6036   1.073   0.992   3.632 -1.4678 -0.7523 -1.2546
 2010TIP3    H2 6037   1.048   0.864   3.709 -0.8262 -0.6545 -0.8727
 2011TIP3   OH2 6038   1.302   5.810   1.607  0.2475 -0.4066  0.5454
 2011TIP3    H1 6039   1.323   5.790   1.516  1.1034 -0.1981  0.6903
 2011TIP3    H2 6040   1.218   5.855   1.603  0.4965  0.0061 -0.1902
 2012TIP3   OH2 6041   3.028   4.524   2.551 -0.2923 -0.3699 -0.2711
 2012TIP3    H1 6042   3.105   4.572   2.582  0.1384 -0.7714 -0.7031
 2012TIP3    H2 6043   2.954   4.582   2.570  0.2692  0.7141 -1.2667
 2013TIP3   OH2 6044   5.357   3.372   0.085  0.1809 -0.0402 -0.2705
 2013TIP3    H1 6045   5.395   3.296   0.042  2.0207  0.6731 -0.0081
 2013TIP3    H2 6046   5.356   3.349   0.178  0.5989  0.1862 -0.2073
 2014TIP3   OH2 6047   4.505   1.595   1.872  0.1031 -0.7242  0.0630
 2014TIP3    H1 6048   4.430   1.647   1.842 -0.1347 -0.6297  0.7910
 2014TIP3    H2 6049   4.509   1.612   1.967  1.1382 -0.6117  0.0087
 2015TIP3   OH2 6050   2.862   1.272   3.669  0.1068  0.2309 -0.6400
 2015TIP3    H1 6051   2.875   1.191   3.620  0.9538 -0.0906  0.0812
 2015TIP3    H2 6052   2.774   1.301   3.646 -0.1328 -0.7948 -1.0552
 2016TIP3   OH2 6053   3.614   0.516   3.875 -0.3286 -0.6868 -0.5697
 2016TIP3    H1 6054   3.618   0.479   3.963  1.0097 -0.3696 -0.4763
 2016TIP3    H2 6055   3.613   0.439   3.817  0.5659 -0.9071 -0.3176
 2017TIP3   OH2 6056   5.818   0.251   1.594 -0.2938 -0.4032 -0.7108
 2017TIP3    H1 6057   5.752   0.206   1.541 -0.0256 -1.1796 -0.4049
 2017TIP3    H2 6058   5.886   0.275   1.532 -0.0502 -1.1785 -0.7471
 2018TIP3   OH2 6059   3.231   3.114   1.931  0.1446  0.1259 -0.0867
 2018TIP3    H1 6060   3.306   3.154   1.886 -0.6750 -0.1038 -1.7169
 2018TIP3    H2 6061   3.164   3.182   1.931 -0.1971 -0.2098 -0.0822
 2019TIP3   OH2 6062   3.057   1.870   0.929  0.7561 -0.3909 -0.0705
 2019TIP3    H1 6063   2.979   1.880   0.984  0.3293 -0.2305 -0.6884
 2019TIP3    H2 6064   3.067   1.955   0.886  1.8754 -0.0813  0.7573
 2020TIP3   OH2 6065   2.379   5.005   0.421 -0.2467  0.1468 -0.2989
 2020TIP3    H1 6066   2.466   5.042   0.405 -0.2271  0.6507  0.8294
 2020TIP3    H2 6067   2.375   4.928   0.365  1.2628 -0.3630  0.2419
 2021TIP3   OH2 6068   5.737   5.195   1.031 -0.2879  0.8184 -0.3172
 2021TIP3    H1 6069   5.659   5.151   0.995 -1.4572  0.5070  2.3488
 2021TIP3    H2 6070   5.702   5.274   1.072  0.2164 -0.6102  3.2715
 2022TIP3   OH2 6071   0.941   3.388   4.168  0.1301 -0.7427  0.1377
 2022TIP3    H1 6072   0.990   3.325   4.115 -1.1824 -1.8812  0.2192
 2022TIP3    H2 6073   1.001   3.409   4.240  1.1891 -0.6718 -0.7343
 2023TIP3   OH2 6074   5.666   4.762   0.460 -0.0641 -0.5857 -0.2972
 2023TIP3    H1 6075   5.577   4.793   0.442  0.9267  4.4797  1.9121
 2023TIP3    H2 6076   5.659   4.722   0.547 -0.1570 -0.0540 -0.0583
 2024TIP3   OH2 6077   5.233   1.004   3.123  0.3606  0.2951  0.3231
 2024TIP3    H1 6078   5.280   0.929   3.088  1.3991  0.2034  1.8069
 2024TIP3    H2 6079   5.146   0.971   3.144  0.1905  0.0051 -0.7901
 2025TIP3   OH2 6080   3.933   5.371   1.920 -0.0220 -0.4733 -0.3702
 2025TIP3    H1 6081   3.877   5.448   1.922  0.3688 -0.1955  1.3398
 2025TIP3    H2 6082   3.902   5.320   1.845 -0.6752  1.0379 -1.1693
 2026TIP3   OH2 6083   3.615   4.023   1.864 -0.1980  0.4872 -0.0850
 2026TIP3    H1 6084   3.602   4.018   1.959  0.2832  0.4059 -0.0204
 2026TIP3    H2 6085   3.526   4.024   1.828 -0.3932 -0.5670  0.3177
 2027TIP3   OH2 6086   1.264   2.359   4.500 -0.2840  0.0925 -0.1695
 2027TIP3    H1 6087   1.225   2.412   4.570 -0.8317 -1.0924  0.4571
 2027TIP3    H2 6088   1.227   2.272   4.512 -0.1268 -0.2269 -1.7503
 2028TIP3   OH2 6089   4.155   3.339   4.421 -0.5888  0.4506 -0.2537
 2028TIP3    H1 6090   4.066   3.352   4.451 -0.3130 -0.9961  1.3243
 2028TIP3    H2 6091   4.196   3.285   4.489  0.5957 -1.5285 -2.3847
 2029TIP3   OH2 6092   3.757   2.410   1.872 -0.0239  0.2357  0.1149
 2029TIP3    H1 6093   3.723   2.352   1.941 -0.7525  0.7409  0.1954
 2029TIP3    H2 6094   3.751   2.358   1.792 -0.4419  0.1043  0.2269
 2030TIP3   OH2 6095   6.195   2.048   2.447  0.2104 -0.1286  0.2480
 2030TIP3    H1 6096   6.221   1.957   2.464  0.3442  0.0027  0.7499
 2030TIP3    H2 6097   6.233   2.097   2.520  0.2775  0.3529 -0.1104
 2031TIP3   OH2 6098   4.820   5.015   3.749  0.6414 -0.3612 -0.1127
 2031TIP3    H1 6099   4.866   5.071   3.686  2.4785 -0.9375  0.6334
 2031TIP3    H2 6100   4.869   5.026   3.831 -1.2145 -0.2185  1.0511
 2032TIP3   OH2 6101   1.399   5.398   3.930 -0.0988 -0.0028  0.6254
 2032TIP3    H1 6102   1.318   5.447   3.915  0.4945  0.7606 -0.2088
 2032TIP3    H2 6103   1.385   5.314   3.885 -0.8640 -0.3426  1.4832
 2033TIP3   OH2 6104   1.628   2.288   0.540 -0.6477 -0.8263  0.1348
 2033TIP3    H1 6105   1.696   2.300   0.607  0.5103 -0.4471 -1.0724
 2033TIP3    H2 6106   1.575   2.368   0.545 -0.7144 -0.9018  0.7404
 2034TIP3   OH2 6107   5.252   4.468   2.888 -0.5124 -0.5474  0.1693
 2034TIP3    H1 6108   5.278   4.531   2.820  2.4424 -0.1128  1.5591
 2034TIP3    H2 6109   5.317   4.399   2.883 -1.2913 -1.4202  1.4107
 2035TIP3   OH2 6110   0.101   1.657   0.355  0.0249 -0.2056  0.2583
 2035TIP3    H1 6111   0.141   1.579   0.394  0.4313 -1.8330 -3.0429
 2035TIP3    H2 6112   0.012   1.628   0.331 -1.5579  1.8541  3.0160
 2036TIP3   OH2 6113   5.906   2.409   3.594 -0.4226 -0.4018 -0.4695
 2036TIP3    H1 6114   5.912   2.459   3.675  0.0424 -1.1945 -0.0007
 2036TIP3    H2 6115   5.996   2.405   3.562 -0.7263  0.6924 -1.5264
 2037TIP3   OH2 6116   2.693   4.846   0.284  0.4825 -0.1839  0.0843
 2037TIP3    H1 6117   2.624   4.802   0.235 -0.0631 -1.5046  1.9504
 2037TIP3    H2 6118   2.669   4.939   0.282  0.6574 -0.1354 -2.3452
 2038TIP3   OH2 6119   2.581   4.611   0.831 -0.2520 -0.0013  0.3493
 2038TIP3    H1 6120   2.589   4.579   0.921 -1.1793 -0.6632  0.2115
 2038TIP3    H2 6121   2.661   4.662   0.817 -0.3013  0.4978  1.6916
 2039TIP3   OH2 6122   4.712   0.893   1.483  0.4603  0.0935 -0.7714
 2039TIP3    H1 6123   4.752   0.978   1.467 -0.5731  0.3260 -2.3423
 2039TIP3    H2 6124   4.762   0.831   1.430 -0.4930  0.2001 -1.8289
 2040TIP3   OH2 6125   6.059   2.870   3.447 -0.4651 -0.2765 -0.0087
 2040TIP3    H1 6126   5.974   2.837   3.477 -0.0588  0.4254  2.0826
 2040TIP3    H2 6127   6.121   2.844   3.516  0.1953  3.0450  0.8083
 2041TIP3   OH2 6128   0.316   3.592   1.145  0.4417  0.4933 -0.0939
 2041TIP3    H1 6129   0.389   3.530   1.140 -0.1589 -0.5518  2.6591
 2041TIP3    H2 6130   0.243   3.546   1.103  0.1557 -0.5074  1.4157
 2042TIP3   OH2 6131   5.385   0.526   4.129 -0.3304 -0.4566 -0.1869
 2042TIP3    H1 6132   5.346   0.611   4.151 -0.6841 -0.8877  0.9261
 2042TIP3    H2 6133   5.337   0.464   4.183  0.7665 -1.2186 -0.0698
 2043TIP3   OH2 6134   3.948   5.821   0.486  0.4872  0.1078  0.3281
 2043TIP3    H1 6135   4.010   5.833   0.558  1.7269 -2.1941 -0.2605
 2043TIP3    H2 6136   3.963   5.897   0.429  1.5285  0.4871  1.0712
 2044TIP3   OH2 6137   5.822   0.845   2.729  0.3145  0.3372 -0.6810
 2044TIP3    H1 6138   5.748   0.857   2.669  1.0194  1.5930 -1.3361
 2044TIP3    H2 6139   5.814   0.919   2.790  0.2607 -0.2950  0.0955
 2045TIP3   OH2 6140   4.048   5.728   2.566 -0.4855  0.1504 -0.6019
 2045TIP3    H1 6141   3.973   5.787   2.557 -0.0178  0.6699 -1.2465
 2045TIP3    H2 6142   4.049   5.705   2.659 -2.3599 -1.1103 -0.8396
 2046TIP3   OH2 6143   1.265   4.342   2.818  0.6009 -0.3661  0.2153
 2046TIP3    H1 6144   1.246   4.251   2.793 -1.4709 -0.1232  0.7641
 2046TIP3    H2 6145   1.308   4.379   2.741 -0.7487 -1.1436 -0.9582
 2047TIP3   OH2 6146   4.217   1.041   3.854  0.2361  0.1041  0.5995
 2047TIP3    H1 6147   4.129   1.007   3.839  0.0167  1.0034 -0.3014
 2047TIP3    H2 6148   4.204   1.135   3.871  0.9478  0.0800  1.3208
 2048TIP3   OH2 6149   3.575   0.413   3.389 -0.5035  0.0478 -0.3958
 2048TIP3    H1 6150   3.558   0.432   3.297  1.1708 -1.1399 -0.9802
 2048TIP3    H2 6151   3.488   0.396   3.426 -1.1434 -0.1062 -1.8938
 2049TIP3   OH2 6152   3.364   2.652   0.860  1.1065  0.5810  0.8457
 2049TIP3    H1 6153   3.279   2.657   0.904  1.0445  1.0380  0.6830
 2049TIP3    H2 6154   3.406   2.736   0.879  0.8348  1.0299 -0.4327
 2050TIP3   OH2 6155   0.682   4.990   2.391  0.3686  0.1378 -0.0206
 2050TIP3    H1 6156   0.698   5.079   2.423 -0.5426  0.7136 -1.0535
 2050TIP3    H2 6157   0.587   4.987   2.378  0.3884 -1.0032  0.0265
 2051TIP3   OH2 6158   2.788   4.188   0.321 -0.0208  0.2773 -0.5922
 2051TIP3    H1 6159   2.730   4.174   0.396 -0.3638 -0.1345 -0.9299
 2051TIP3    H2 6160   2.749   4.261   0.273 -0.4876 -0.2527 -1.0329
 2052TIP3   OH2 6161   6.041   2.443   5.090 -0.6874  0.2933 -0.4406
 2052TIP3    H1 6162   6.119   2.498   5.091 -1.0868  0.9068 -1.5100
 2052TIP3    H2 6163   5.981   2.485   5.151 -1.0046  1.0987 -1.2808
 2053TIP3   OH2 6164   3.057   0.161   4.195  0.1827  0.2038  0.4117
 2053TIP3    H1 6165   3.047   0.120   4.109  1.2546 -0.5458  0.6275
 2053TIP3    H2 6166   2.995   0.114   4.251  0.7559 -0.5263  0.4489
 2054TIP3   OH2 6167   2.460   5.829   2.140 -0.3048  0.4930 -0.4391
 2054TIP3    H1 6168   2.555   5.841   2.148 -0.1675  1.9870 -3.1418
 2054TIP3    H2 6169   2.444   5.740   2.171  1.8554  0.4202  0.6758
 2055TIP3   OH2 6170   3.127   4.117   1.649  0.0685 -0.1566 -0.2781
 2055TIP3    H1 6171   3.101   4.031   1.683  1.8690 -1.0756 -1.0929
 2055TIP3    H2 6172   3.054   4.145   1.595  0.1559 -2.0297 -1.4439
 2056TIP3   OH2 6173   4.643   1.365   1.963 -0.5472  0.3449 -0.0688
 2056TIP3    H1 6174   4.602   1.438   1.917 -0.4757  1.4175  1.5001
 2056TIP3    H2 6175   4.721   1.345   1.911  0.6863  2.9099  0.6104
 2057TIP3   OH2 6176   2.027   3.505   0.058 -0.3169 -0.2012 -0.2409
 2057TIP3    H1 6177   1.961   3.556   0.105  0.1565 -0.2654  0.5095
 2057TIP3    H2 6178   2.040   3.552  -0.024 -0.4006  0.4901  0.1385
 2058TIP3   OH2 6179   3.425   2.320   3.650 -0.2795 -0.1989 -0.1796
 2058TIP3    H1 6180   3.454   2.331   3.741  1.3659 -1.7747 -0.4436
 2058TIP3    H2 6181   3.330   2.335   3.653 -0.9518 -3.6273  2.5191
 2059TIP3   OH2 6182   6.210   4.349   3.370  0.7579 -0.8556  0.1496
 2059TIP3    H1 6183   6.172   4.408   3.305  2.8782 -0.6481 -0.9925
 2059TIP3    H2 6184   6.144   4.344   3.440 -1.1378 -0.2474 -1.5069
 2060TIP3   OH2 6185   4.506   3.058   4.363  0.2231 -0.1082  0.6341
 2060TIP3    H1 6186   4.474   2.970   4.383 -0.2914 -0.3421 -1.0423
 2060TIP3    H2 6187   4.428   3.106   4.335  0.7892  0.3079 -0.2825
 2061TIP3   OH2 6188   5.260   5.681   5.183 -0.2557  0.1436 -0.0872
 2061TIP3    H1 6189   5.226   5.724   5.262 -0.9318  0.2633 -0.4371
 2061TIP3    H2 6190   5.234   5.739   5.111 -0.0165 -0.1801 -0.4395
 2062TIP3   OH2 6191   3.321   4.349   2.670 -0.3035 -0.3211 -0.4247
 2062TIP3    H1 6192   3.415   4.364   2.669 -0.3955  0.2906 -1.0293
 2062TIP3    H2 6193   3.297   4.352   2.762 -0.4526  4.5345 -0.3522
 2063TIP3   OH2 6194   1.777   3.902   2.997 -0.3250 -0.0421  0.2333
 2063TIP3    H1 6195   1.738   3.911   3.084 -0.9873 -0.8821  0.0325
 2063TIP3    H2 6196   1.796   3.809   2.989 -0.5407 -0.0178 -0.6342
 2064TIP3   OH2 6197   2.073   2.359   2.884  0.2821  0.0961  0.0130
 2064TIP3    H1 6198   2.030   2.278   2.859  1.8756 -0.4618 -1.0501
 2064TIP3    H2 6199   2.080   2.410   2.803  2.3711 -0.2302 -0.0812
 2065TIP3   OH2 6200   0.665   3.398   0.425 -0.1522  0.6218  0.4877
 2065TIP3    H1 6201   0.668   3.346   0.344 -1.0906  0.7669  0.3470
 2065TIP3    H2 6202   0.573   3.393   0.452  0.1873  0.4435  1.6331
 2066TIP3   OH2 6203   5.852   4.072   4.688 -0.1207  0.1106  0.4681
 2066TIP3    H1 6204   5.925   4.035   4.738 -1.0520 -0.5781  1.3673
 2066TIP3    H2 6205   5.793   4.108   4.755 -0.9941 -0.0855 -0.1828
 2067TIP3   OH2 6206   5.836   5.732   4.240  0.4038 -0.3706  0.0561
 2067TIP3    H1 6207   5.743   5.713   4.235  0.5217 -0.7589 -0.9320
 2067TIP3    H2 6208   5.869   5.675   4.309 -0.4564  1.3925  2.0419
 2068TIP3   OH2 6209   4.835   2.251   2.978 -0.2220 -0.1636  0.0285
 2068TIP3    H1 6210   4.828   2.203   3.061 -0.3695  1.3443  0.9220
 2068TIP3    H2 6211   4.803   2.189   2.912  1.0604 -1.8338  0.9066
 2069TIP3   OH2 6212   4.433   2.255   4.791 -0.3172  0.0536 -0.4996
 2069TIP3    H1 6213   4.407   2.187   4.728  0.8713 -0.1481 -0.7930
 2069TIP3    H2 6214   4.367   2.323   4.781 -2.3323 -1.6122  0.7542
 2070TIP3   OH2 6215   0.273   4.053   2.112 -0.1380  0.1012  0.1467
 2070TIP3    H1 6216   0.333   4.126   2.098 -0.9674  0.8636  0.4578
 2070TIP3    H2 6217   0.230   4.074   2.195 -3.0768  1.2252 -1.4851
 2071TIP3   OH2 6218   6.186   2.534   4.331 -0.1390  0.0526  0.5094
 2071TIP3    H1 6219   6.110   2.525   4.274 -0.1399  0.1965  0.4871
 2071TIP3    H2 6220   6.161   2.490   4.412 -1.1332  2.0116  1.3560
 2072TIP3   OH2 6221   2.331   0.478   0.499  0.0887  0.2281 -0.1857
 2072TIP3    H1 6222   2.394   0.439   0.560 -1.2424  0.6239  1.5418
 2072TIP3    H2 6223   2.345   0.573   0.508 -0.5304  0.3072 -0.0226
 2073TIP3   OH2 6224   5.711   3.504   1.209 -0.4369 -0.6359  0.0394
 2073TIP3    H1 6225   5.711   3.531   1.117 -0.4350 -0.3373  0.1247
 2073TIP3    H2 6226   5.619   3.491   1.231 -0.4533 -0.5023  0.0522
 2074TIP3   OH2 6227   4.617   3.141   4.091 -0.8897 -0.4124 -0.0904
 2074TIP3    H1 6228   4.542   3.100   4.048  0.0272 -1.7283 -0.4910
 2074TIP3    H2 6229   4.613   3.110   4.181 -0.8407 -0.4514 -0.1018
 2075TIP3   OH2 6230   0.464   2.814   4.100  0.0483 -0.4589 -0.2821
 2075TIP3    H1 6231   0.468   2.852   4.013  0.8374 -2.2684 -1.0978
 2075TIP3    H2 6232   0.399   2.867   4.147  0.5825  1.3652 -1.5235
 2076TIP3   OH2 6233   0.275   2.869   3.783  0.0715  0.4453  0.6766
 2076TIP3    H1 6234   0.287   2.780   3.750 -4.1815 -0.4871  1.0310
 2076TIP3    H2 6235   0.253   2.921   3.706 -3.3040 -0.2826  0.9871
 2077TIP3   OH2 6236   4.568   4.139   1.651 -0.4041  0.2787 -0.0674
 2077TIP3    H1 6237   4.494   4.133   1.711  0.9136 -1.0800  1.5359
 2077TIP3    H2 6238   4.644   4.150   1.708  0.6235  2.3850 -1.6712
 2078TIP3   OH2 6239   1.192   5.490   2.900  0.0309 -0.3655  0.3093
 2078TIP3    H1 6240   1.134   5.558   2.934  0.3983 -0.1818  0.5796
 2078TIP3    H2 6241   1.238   5.457   2.977  0.6436 -0.1681  0.0341
 2079TIP3   OH2 6242   0.930   4.268   3.676  0.0082  0.1986  0.9449
 2079TIP3    H1 6243   0.877   4.218   3.614  0.6170  0.5116  0.1440
 2079TIP3    H2 6244   1.006   4.211   3.693 -0.5365 -0.2219  2.0344
 2080TIP3   OH2 6245   6.124   5.367   4.049 -0.6045  0.1249 -0.0789
 2080TIP3    H1 6246   6.136   5.442   3.990  0.0784 -0.2130 -0.3835
 2080TIP3    H2 6247   6.096   5.296   3.991  0.2535 -0.2590 -0.0380
 2081TIP3   OH2 6248   3.399   5.038   1.493  0.1124 -0.3231 -1.0204
 2081TIP3    H1 6249   3.397   5.125   1.531  1.6809 -0.1459 -1.2671
 2081TIP3    H2 6250   3.316   5.030   1.446 -0.0930  1.0008 -0.9080
 2082TIP3   OH2 6251   0.836   2.479   5.153 -0.0779 -0.0911 -0.6704
 2082TIP3    H1 6252   0.772   2.518   5.213  0.2740 -0.9623  0.3061
 2082TIP3    H2 6253   0.883   2.554   5.116 -1.1727  0.5160 -0.8456
 2083TIP3   OH2 6254   0.310   1.852   2.974 -0.0732  1.0872  0.3891
 2083TIP3    H1 6255   0.387   1.821   2.926  0.1641  0.8758  0.9012
 2083TIP3    H2 6256   0.236   1.826   2.919  0.2258  1.4548 -0.1950
 2084TIP3   OH2 6257   5.679   3.547   2.794  0.4509  0.0984 -0.7307
 2084TIP3    H1 6258   5.667   3.456   2.823  0.5771 -0.1754 -1.5133
 2084TIP3    H2 6259   5.774   3.561   2.800  0.4829  0.0240 -1.0574
 2085TIP3   OH2 6260   6.104   3.080   1.471 -0.0131  0.3825 -1.0568
 2085TIP3    H1 6261   6.102   3.017   1.543  0.2514  1.5256  0.0036
 2085TIP3    H2 6262   6.084   3.029   1.393  0.6995 -1.0982 -0.3143
 2086TIP3   OH2 6263   3.328   3.758   3.782 -0.1216 -0.0871  0.2606
 2086TIP3    H1 6264   3.314   3.687   3.845 -0.0306  0.4618  0.9075
 2086TIP3    H2 6265   3.393   3.723   3.721 -0.3918 -0.7150  0.3233
 2087TIP3   OH2 6266   3.187   5.316   0.333 -0.5297  0.3005  0.4568
 2087TIP3    H1 6267   3.234   5.329   0.250 -2.8745  1.3393 -0.8050
 2087TIP3    H2 6268   3.113   5.260   0.310 -1.1282  0.4639  1.9033
 2088TIP3   OH2 6269   5.274   1.245   0.808 -0.3832 -0.1972  0.5720
 2088TIP3    H1 6270   5.179   1.252   0.801 -0.1457  2.4060 -1.8829
 2088TIP3    H2 6271   5.295   1.286   0.892 -1.3833 -0.4333  0.9519
 2089TIP3   OH2 6272   6.245   3.623   4.286 -0.3876  0.1039 -0.0343
 2089TIP3    H1 6273   6.168   3.606   4.342 -0.4020  0.5707  0.0921
 2089TIP3    H2 6274   6.243   3.718   4.271  0.6834  0.2625  0.7277
 2090TIP3   OH2 6275  -0.014   1.365   0.602 -0.0044  0.1325 -0.4745
 2090TIP3    H1 6276   0.054   1.312   0.560  1.4362  1.8632 -0.4490
 2090TIP3    H2 6277   0.029   1.448   0.621 -1.5363  0.5353  1.5559
 2091TIP3   OH2 6278   6.231   2.472   3.462 -0.5762 -0.0787 -0.4120
 2091TIP3    H1 6279   6.259   2.491   3.551 -0.6185  0.8575 -0.5880
 2091TIP3    H2 6280   6.301   2.417   3.426  0.6517  1.4946 -0.5581
 2092TIP3   OH2 6281   5.067   4.123   1.393  0.4267 -0.2701  0.5407
 2092TIP3    H1 6282   5.154   4.086   1.378  0.6571  0.1343  0.8418
 2092TIP3    H2 6283   5.029   4.131   1.306  1.2350  0.8546  0.2730
 2093TIP3   OH2 6284   1.932   0.441   0.597 -0.0893  0.0806 -0.2758
 2093TIP3    H1 6285   1.858   0.411   0.650  0.2552 -2.1521 -0.9394
 2093TIP3    H2 6286   1.894   0.456   0.511  0.0638 -0.2870 -0.4108
 2094TIP3   OH2 6287   4.335   4.269   1.191 -0.1029  0.0678  0.0223
 2094TIP3    H1 6288   4.332   4.356   1.153  0.2128 -0.4642 -1.2941
 2094TIP3    H2 6289   4.247   4.254   1.226 -0.1051  0.9678  0.4217
 2095TIP3   OH2 6290   5.127   0.176   5.213  0.4731 -0.1735 -0.1896
 2095TIP3    H1 6291   5.114   0.208   5.123 -1.4371 -0.8790 -0.2181
 2095TIP3    H2 6292   5.171   0.092   5.202  0.2466 -0.2587 -0.4629
 2096TIP3   OH2 6293   4.217   3.812   1.114  0.3356 -0.4414  0.1134
 2096TIP3    H1 6294   4.228   3.717   1.108  0.0305 -0.4483 -0.3307
 2096TIP3    H2 6295   4.302   3.848   1.089  0.4138 -0.5945  0.1595
 2097TIP3   OH2 6296   4.645   0.630   1.566 -0.1216  0.2863  0.6669
 2097TIP3    H1 6297   4.601   0.714   1.577 -1.7049 -0.2404 -1.0799
 2097TIP3    H2 6298   4.710   0.645   1.497  0.1095  0.2509  0.8751
 2098TIP3   OH2 6299   6.053   4.154   3.721  0.4689 -0.0554  0.0988
 2098TIP3    H1 6300   6.060   4.229   3.662 -0.5791 -0.0431 -0.0252
 2098TIP3    H2 6301   6.071   4.078   3.665  0.2388  0.0120 -0.0696
 2099TIP3   OH2 6302   3.730   0.524   1.412 -0.6077 -0.4806  0.0033
 2099TIP3    H1 6303   3.649   0.478   1.390  0.2427 -2.0008 -0.0879
 2099TIP3    H2 6304   3.774   0.467   1.475  0.9642 -0.3054 -0.8715
 2100TIP3   OH2 6305   2.072   5.382   1.714 -0.1462  0.5070 -0.2462
 2100TIP3    H1 6306   2.054   5.378   1.808 -0.1400  0.4723 -0.2468
 2100TIP3    H2 6307   2.165   5.365   1.707 -0.3928 -0.8505 -0.3724
 2101TIP3   OH2 6308   1.817   4.403   4.353 -0.2490  0.1990  0.1720
 2101TIP3    H1 6309   1.854   4.352   4.425  0.8219  0.7395  0.0289
 2101TIP3    H2 6310   1.773   4.338   4.298  0.3707 -0.4636  0.4315
 2102TIP3   OH2 6311   5.563   1.498   0.528 -0.3491 -0.3787  0.6001
 2102TIP3    H1 6312   5.526   1.577   0.489 -0.0521  0.5667  2.1561
 2102TIP3    H2 6313   5.518   1.488   0.611  0.8893 -0.7931  1.2543
 2103TIP3   OH2 6314   4.314   3.821   2.492  0.2469  0.2161 -0.0086
 2103TIP3    H1 6315   4.296   3.913   2.474  1.6259  0.3284 -1.0388
 2103TIP3    H2 6316   4.302   3.777   2.408  0.0879 -0.4638  0.3631
 2104TIP3   OH2 6317   2.329   3.796   5.186 -0.3028 -0.2692 -0.0881
 2104TIP3    H1 6318   2.366   3.834   5.106  0.6080 -1.6085 -0.3282
 2104TIP3    H2 6319   2.236   3.786   5.167 -0.1753 -0.1589 -0.8094
 2105TIP3   OH2 6320   3.894   4.356   2.344 -0.2995 -0.0578 -0.4245
 2105TIP3    H1 6321   3.869   4.300   2.271 -0.0867  1.5850 -1.8182
 2105TIP3    H2 6322   3.812   4.375   2.389 -0.6152 -0.0544 -0.9942
 2106TIP3   OH2 6323   0.086   0.604   4.498 -0.0239 -0.2687 -0.4093
 2106TIP3    H1 6324   0.124   0.523   4.465 -0.9753 -0.6201 -0.6741
 2106TIP3    H2 6325   0.066   0.586   4.589  0.3170 -0.1272 -0.3055
 2107TIP3   OH2 6326   5.681   3.506   3.908 -0.5819  0.2173  0.5773
 2107TIP3    H1 6327   5.694   3.502   3.813  2.8549  0.5086  0.9045
 2107TIP3    H2 6328   5.730   3.431   3.942 -0.5767  0.9256  2.2114
 2108TIP3   OH2 6329   4.129   2.832   0.993 -0.0008  0.3378  0.1535
 2108TIP3    H1 6330   4.092   2.783   1.067 -0.2319  1.3836  0.7604
 2108TIP3    H2 6331   4.174   2.766   0.941  0.4891 -0.3921  1.4323
 2109TIP3   OH2 6332   0.372   3.308   4.605  0.1021 -0.1869 -0.2908
 2109TIP3    H1 6333   0.283   3.286   4.633  0.9053 -0.0995  2.6917
 2109TIP3    H2 6334   0.404   3.230   4.561  0.3109 -2.4503  3.4570
 2110TIP3   OH2 6335   4.951   3.696   5.168 -0.4416 -0.2242 -0.3922
 2110TIP3    H1 6336   4.900   3.624   5.204 -0.6174 -0.6281 -1.4120
 2110TIP3    H2 6337   4.885   3.759   5.137 -0.2995  0.9140  1.4698
 2111TIP3   OH2 6338   6.284   2.119   4.004  0.3228  0.3372  0.0889
 2111TIP3    H1 6339   6.298   2.150   4.094 -1.9116 -1.8085  1.3008
 2111TIP3    H2 6340   6.302   2.025   4.008 -2.9758 -0.4669 -0.7956
 2112TIP3   OH2 6341   3.072   0.823   3.439 -0.2816 -0.0854 -0.0212
 2112TIP3    H1 6342   3.117   0.764   3.500 -0.1597 -0.7338 -0.7080
 2112TIP3    H2 6343   3.139   0.886   3.412  0.1674 -0.8807 -0.8290
 2113TIP3   OH2 6344   1.768   2.992   1.676  0.0380 -0.1734 -0.0202
 2113TIP3    H1 6345   1.725   3.070   1.642 -3.6759 -1.6089  0.8082
 2113TIP3    H2 6346   1.765   3.001   1.771  2.3924 -0.0479  0.1051
 2114TIP3   OH2 6347   0.834   2.844   0.929 -0.4227 -0.3928  0.5912
 2114TIP3    H1 6348   0.875   2.913   0.877  0.4913 -0.8359  0.7023
 2114TIP3    H2 6349   0.769   2.890   0.982  0.9926  0.6092  1.5547
 2115TIP3   OH2 6350   5.717   5.776   1.745  0.5109 -0.1576  0.1397
 2115TIP3    H1 6351   5.771   5.705   1.780  1.0866 -0.3568 -1.0983
 2115TIP3    H2 6352   5.718   5.843   1.813 -1.0338 -1.7769  1.8856
 2116TIP3   OH2 6353   3.440   5.987   0.333  0.7631  0.2170  0.2944
 2116TIP3    H1 6354   3.471   5.927   0.401  0.3548  0.5844  0.8127
 2116TIP3    H2 6355   3.359   5.947   0.301  0.7798  0.2131  0.2567
 2117TIP3   OH2 6356   5.944   3.414   0.613 -0.6197  0.4523 -0.0970
 2117TIP3    H1 6357   5.866   3.470   0.613 -3.1042 -2.4965 -3.5809
 2117TIP3    H2 6358   5.993   3.441   0.536 -0.3571 -0.2687 -0.1898
 2118TIP3   OH2 6359   3.386   5.480   4.394  0.2992 -0.1107  0.4416
 2118TIP3    H1 6360   3.345   5.397   4.418 -1.2640  0.3620 -0.4113
 2118TIP3    H2 6361   3.316   5.530   4.352  1.5233  1.1655 -0.1778
 2119TIP3   OH2 6362   2.842   5.345   0.373 -0.2142 -0.1683 -0.0492
 2119TIP3    H1 6363   2.898   5.319   0.446  0.9552  0.5359 -0.6767
 2119TIP3    H2 6364   2.883   5.306   0.296 -1.6755 -1.2764 -0.3189
 2120TIP3   OH2 6365   4.620   3.019   3.648 -0.7412 -0.1855 -0.0114
 2120TIP3    H1 6366   4.603   3.113   3.645 -0.4385 -0.1131  0.4794
 2120TIP3    H2 6367   4.565   2.983   3.578 -0.5639  0.3948 -0.4656
 2121TIP3   OH2 6368   4.842   4.348   3.743  0.0207 -0.1693  0.9358
 2121TIP3    H1 6369   4.935   4.326   3.743  0.0468 -0.0791 -0.3436
 2121TIP3    H2 6370   4.840   4.443   3.755 -0.0157 -0.4119  3.5359
 2122TIP3   OH2 6371   4.575   3.684   0.116  0.1274  0.4155  0.5494
 2122TIP3    H1 6372   4.639   3.640   0.060 -0.2952 -0.9339  1.0946
 2122TIP3    H2 6373   4.492   3.642   0.095  0.0002 -0.3568  2.3627
 2123TIP3   OH2 6374   2.752   0.065   0.320 -0.1602  0.1344 -0.3518
 2123TIP3    H1 6375   2.796   0.121   0.384  0.4502 -1.5565  0.7691
 2123TIP3    H2 6376   2.660   0.065   0.347  0.1887 -1.0553  0.9619
 2124TIP3   OH2 6377   5.193   3.804   1.637  0.0119 -0.0188 -0.4578
 2124TIP3    H1 6378   5.264   3.828   1.577  0.3637 -0.6767 -0.3135
 2124TIP3    H2 6379   5.148   3.731   1.595 -0.4485  0.2554 -0.4468
 2125TIP3   OH2 6380   1.875   3.496   0.434 -0.0519  0.3732  0.1427
 2125TIP3    H1 6381   1.970   3.509   0.430 -0.0772  0.3907 -0.4085
 2125TIP3    H2 6382   1.864   3.406   0.463  0.1453 -0.0031 -0.9118
 2126TIP3   OH2 6383   4.738   0.197   0.286 -0.3469 -0.5059 -0.0459
 2126TIP3    H1 6384   4.832   0.182   0.273 -0.5150 -0.8712 -0.8533
 2126TIP3    H2 6385   4.732   0.229   0.376  0.6922  0.6773 -0.3661
 2127TIP3   OH2 6386   2.895   4.202   0.844  0.3181 -0.0132  0.1178
 2127TIP3    H1 6387   2.810   4.164   0.869  1.6254 -3.1795  0.1694
 2127TIP3    H2 6388   2.886   4.219   0.750 -0.6774  0.6779  0.3152
 2128TIP3   OH2 6389   0.952   4.533   0.095 -0.4459 -0.5553  0.2330
 2128TIP3    H1 6390   0.903   4.591   0.153  1.6541  0.8184  0.7584
 2128TIP3    H2 6391   0.908   4.448   0.103 -1.7799  0.2195  1.8137
 2129TIP3   OH2 6392   0.832   3.354   3.329  0.1668  0.5389  0.2525
 2129TIP3    H1 6393   0.863   3.445   3.334  0.2180  0.5489 -0.2037
 2129TIP3    H2 6394   0.875   3.310   3.403  0.8919  0.6679 -0.0799
 2130TIP3   OH2 6395   1.613   0.130   3.523 -0.4492 -0.0793 -0.4833
 2130TIP3    H1 6396   1.611   0.049   3.472 -0.7544 -0.1891 -0.3053
 2130TIP3    H2 6397   1.533   0.176   3.497 -1.3325 -0.7631  0.8674
 2131TIP3   OH2 6398   3.756   2.605   0.042  0.0886  0.2533  0.2767
 2131TIP3    H1 6399   3.676   2.554   0.052  0.7836 -0.8662  0.3032
 2131TIP3    H2 6400   3.729   2.683  -0.007 -0.8280 -0.5749 -0.5806
 2132TIP3   OH2 6401   5.115   2.640   2.001  0.0293 -0.3870 -0.1137
 2132TIP3    H1 6402   5.148   2.567   2.053  1.3525  0.5342  0.3674
 2132TIP3    H2 6403   5.115   2.714   2.061  0.1470  0.3577 -1.0179
 2133TIP3   OH2 6404   2.212   2.743   1.726 -0.3781  0.3443  0.3732
 2133TIP3    H1 6405   2.172   2.810   1.669  1.0146  1.8049  1.0291
 2133TIP3    H2 6406   2.291   2.785   1.760 -0.2486 -1.1281  2.0175
 2134TIP3   OH2 6407   4.964   5.270   3.621  0.6131  0.1548  0.1811
 2134TIP3    H1 6408   5.047   5.254   3.577  1.6569 -0.3490  2.2123
 2134TIP3    H2 6409   4.984   5.333   3.691 -0.9064  0.7461  0.1362
 2135TIP3   OH2 6410   4.216   3.566   0.138  0.2537  0.9824 -0.4638
 2135TIP3    H1 6411   4.246   3.537   0.224 -1.7885  1.3177  0.4349
 2135TIP3    H2 6412   4.198   3.485   0.091 -0.5638  0.7555  0.1991
 2136TIP3   OH2 6413   5.654   1.240   1.855 -0.3703  0.1810 -0.6722
 2136TIP3    H1 6414   5.580   1.301   1.861 -0.0946  0.5965 -1.3746
 2136TIP3    H2 6415   5.731   1.297   1.846  0.3764 -0.1221  2.5402
 2137TIP3   OH2 6416   0.264   1.799   1.524 -0.4433 -0.2434 -0.3950
 2137TIP3    H1 6417   0.248   1.828   1.614  0.8576 -1.7752  0.3802
 2137TIP3    H2 6418   0.311   1.872   1.484  0.1211 -0.0534  0.5812
 2138TIP3   OH2 6419   3.877   5.666   0.778  0.2420 -0.2874  0.4174
 2138TIP3    H1 6420   3.823   5.711   0.844  1.7867 -0.9527  2.2402
 2138TIP3    H2 6421   3.925   5.736   0.734 -0.0939  0.1150  0.6820
 2139TIP3   OH2 6422   5.141   5.920   1.516  0.3934 -0.2346 -0.6143
 2139TIP3    H1 6423   5.052   5.894   1.494  0.5774 -1.1312 -0.3414
 2139TIP3    H2 6424   5.130   5.999   1.569 -0.2622 -0.5105 -0.3182
 2140TIP3   OH2 6425   3.040   2.796   2.362 -0.5397  0.1417 -0.4751
 2140TIP3    H1 6426   3.060   2.748   2.443 -0.1517  3.9119  1.8814
 2140TIP3    H2 6427   2.945   2.794   2.356 -0.5865  0.0196  0.2018
 2141TIP3   OH2 6428   0.980   2.129   4.494  0.1923 -0.5097  0.5835
 2141TIP3    H1 6429   0.928   2.200   4.456  0.6979 -0.9948 -1.0488
 2141TIP3    H2 6430   1.030   2.171   4.564  0.3630  0.7106 -0.2480
 2142TIP3   OH2 6431   4.797   0.697   1.340 -0.0454  0.0046  0.1681
 2142TIP3    H1 6432   4.740   0.675   1.267  0.5179  0.7435 -0.5140
 2142TIP3    H2 6433   4.884   0.668   1.312 -0.1528 -1.7011  1.4557
 2143TIP3   OH2 6434   3.311   4.515   0.571 -0.2784 -0.2541 -0.1811
 2143TIP3    H1 6435   3.277   4.594   0.614  0.2468  0.3695 -0.8900
 2143TIP3    H2 6436   3.250   4.446   0.597 -0.6472  0.3463  0.5946
 2144TIP3   OH2 6437   4.611   4.737   2.362 -0.3170 -0.6870 -0.0446
 2144TIP3    H1 6438   4.558   4.677   2.414  0.0755 -3.2539 -2.3361
 2144TIP3    H2 6439   4.547   4.792   2.317 -0.8600 -1.2378  0.0342
 2145TIP3   OH2 6440   4.719   3.076   1.187  0.3920 -0.0157  0.2427
 2145TIP3    H1 6441   4.749   2.986   1.176 -0.9369 -0.6663  1.6238
 2145TIP3    H2 6442   4.787   3.129   1.146  1.5216 -1.6022 -0.0245
 2146TIP3   OH2 6443   4.679   1.072   4.246  0.0023 -0.2386  0.3552
 2146TIP3    H1 6444   4.746   1.094   4.311 -0.0042  0.8568  0.0185
 2146TIP3    H2 6445   4.653   1.157   4.209 -1.3364 -0.6711  0.2436
 2147TIP3   OH2 6446   4.084   1.853   0.588  0.2742  0.4152 -0.2661
 2147TIP3    H1 6447   4.057   1.821   0.503  0.0967 -0.7233  0.2075
 2147TIP3    H2 6448   4.122   1.778   0.632 -2.8286 -0.0461  1.9964
 2148TIP3   OH2 6449   4.752   0.701   1.863  0.2195  0.2018  0.1122
 2148TIP3    H1 6450   4.657   0.707   1.862  0.2407  0.5808 -0.1869
 2148TIP3    H2 6451   4.773   0.658   1.945 -0.2257 -0.2018  0.0192
 2149TIP3   OH2 6452   4.899   0.448   1.814  0.7142 -0.0449 -0.0318
 2149TIP3    H1 6453   4.827   0.467   1.874 -0.6104  1.4669 -1.9896
 2149TIP3    H2 6454   4.973   0.498   1.849 -0.1479  1.1540  0.1361
 2150TIP3   OH2 6455   2.365   0.399   0.209 -0.5963  0.1663  0.1295
 2150TIP3    H1 6456   2.285   0.352   0.186  0.4353 -1.3255 -0.5803
 2150TIP3    H2 6457   2.335   0.477   0.256 -2.6613  1.4662 -2.9883
 2151TIP3   OH2 6458   3.854   4.102   0.102  0.0843 -0.4604  0.0353
 2151TIP3    H1 6459   3.933   4.140   0.062 -0.9648  1.0488 -0.6957
 2151TIP3    H2 6460   3.805   4.066   0.028 -0.2041 -0.8407  0.4124
 2152TIP3   OH2 6461   2.440   3.046   2.688 -0.6177  0.1357 -1.2531
 2152TIP3    H1 6462   2.439   2.951   2.683 -1.5411 -0.2594  2.6895
 2152TIP3    H2 6463   2.347   3.071   2.687 -0.3735  1.2990 -4.2339
 2153TIP3   OH2 6464   4.432   3.815   3.696 -0.3189  0.0533  0.2241
 2153TIP3    H1 6465   4.466   3.857   3.617  0.1122  2.0218  1.3854
 2153TIP3    H2 6466   4.510   3.778   3.738 -0.2632  0.6316  0.6388
 2154TIP3   OH2 6467   3.280   5.647   2.967  0.0443 -0.0520 -0.9025
 2154TIP3    H1 6468   3.244   5.717   3.023  1.6283  0.5611 -0.5887
 2154TIP3    H2 6469   3.209   5.583   2.961 -0.7635  0.6470  0.4488
 2155TIP3   OH2 6470   5.393   4.006   3.875  0.3654 -0.1973  0.2635
 2155TIP3    H1 6471   5.300   4.010   3.852  0.5327  0.4554 -0.3313
 2155TIP3    H2 6472   5.433   4.076   3.824  1.0274  0.1767  1.2605
 2156TIP3   OH2 6473   1.251   1.048   1.804  0.4168 -0.1009  0.0972
 2156TIP3    H1 6474   1.238   1.134   1.844  0.3303 -0.2246  0.3392
 2156TIP3    H2 6475   1.346   1.038   1.799  0.4645  0.9166 -1.9119
 2157TIP3   OH2 6476   0.551   0.098   2.126 -0.6617  0.0590  0.3508
 2157TIP3    H1 6477   0.477   0.124   2.071 -0.1318  0.4160 -0.2111
 2157TIP3    H2 6478   0.604   0.177   2.133 -0.9646  0.1525  1.7901
 2158TIP3   OH2 6479   1.481   1.229   2.961 -0.4448  0.2341 -0.2179
 2158TIP3    H1 6480   1.404   1.187   2.998  0.5309  0.7854  2.7120
 2158TIP3    H2 6481   1.551   1.212   3.024  0.7514  3.5526 -0.4290
 2159TIP3   OH2 6482   0.951   4.399   3.924  0.0850  0.4105  0.0354
 2159TIP3    H1 6483   0.967   4.395   3.830 -0.0019 -1.6868  0.0537
 2159TIP3    H2 6484   0.860   4.426   3.932 -0.4326 -1.0496 -0.5828
 2160TIP3   OH2 6485   6.029   2.382   4.767 -0.0706 -0.2390  0.2118
 2160TIP3    H1 6486   5.993   2.333   4.842  0.2935 -1.1945 -0.2180
 2160TIP3    H2 6487   5.971   2.457   4.757  0.5249  0.5499  2.1790
 2161TIP3   OH2 6488   1.762   0.779   1.620 -0.8290  0.2268 -0.2145
 2161TIP3    H1 6489   1.802   0.864   1.601 -0.9762  0.2894 -0.2445
 2161TIP3    H2 6490   1.777   0.727   1.542  0.1477 -0.1091  0.1787
 2162TIP3   OH2 6491   5.383   1.519   0.746  0.3899 -0.0518 -0.4504
 2162TIP3    H1 6492   5.315   1.544   0.685  0.1783  3.0212  0.8682
 2162TIP3    H2 6493   5.361   1.429   0.771 -2.1403  0.2218 -1.4125
 2163TIP3   OH2 6494   0.415   5.598   2.889  0.2599  0.4810 -0.5142
 2163TIP3    H1 6495   0.352   5.545   2.842  2.1878 -1.5792 -0.9389
 2163TIP3    H2 6496   0.394   5.584   2.982  1.0238 -1.4799 -0.5999
 2164TIP3   OH2 6497   3.619   4.496   2.381  0.3643  0.0835 -0.2440
 2164TIP3    H1 6498   3.530   4.530   2.383  0.6902  0.9933 -0.6296
 2164TIP3    H2 6499   3.630   4.452   2.465 -0.8962 -1.2312 -0.7327
 2165TIP3   OH2 6500   0.512   1.711   2.748 -0.4593 -0.1948 -0.2171
 2165TIP3    H1 6501   0.567   1.641   2.783 -0.0296 -1.3161 -2.9291
 2165TIP3    H2 6502   0.571   1.784   2.735 -0.2567 -0.3590 -0.2313
 2166TIP3   OH2 6503   0.397   5.392   2.489 -0.7796 -0.0859 -0.2256
 2166TIP3    H1 6504   0.343   5.458   2.534  0.7174  0.8427  0.3065
 2166TIP3    H2 6505   0.414   5.326   2.556  0.3232  0.6128  0.2157
 2167TIP3   OH2 6506   6.273   4.263   3.871  0.0696  0.2201 -0.0985
 2167TIP3    H1 6507   6.186   4.227   3.855 -0.7012  2.4470 -1.4396
 2167TIP3    H2 6508   6.273   4.285   3.964 -1.2582  1.1909 -0.2940
 2168TIP3   OH2 6509   1.923   2.559   1.165 -0.3639  0.2063 -0.3598
 2168TIP3    H1 6510   1.981   2.537   1.239 -2.1238  1.1454  1.3790
 2168TIP3    H2 6511   1.947   2.648   1.141  0.3664 -0.1800 -1.1224
 2169TIP3   OH2 6512   3.449   1.613   4.283  0.2495 -0.7721 -0.3993
 2169TIP3    H1 6513   3.418   1.699   4.311 -0.6940 -0.9622 -0.7997
 2169TIP3    H2 6514   3.455   1.562   4.364  1.6338 -0.0978 -0.0549
 2170TIP3   OH2 6515   0.671   3.674   1.306 -0.3203  0.7740  0.0245
 2170TIP3    H1 6516   0.660   3.616   1.230 -1.0280 -1.2113  1.5543
 2170TIP3    H2 6517   0.582   3.702   1.327 -0.7039 -1.7174  2.2806
 2171TIP3   OH2 6518   6.137   3.574   0.882 -0.5734  0.3115 -0.5574
 2171TIP3    H1 6519   6.190   3.633   0.935  0.6597 -1.9841  0.9354
 2171TIP3    H2 6520   6.102   3.510   0.944  0.1303 -1.9401 -2.3088
 2172TIP3   OH2 6521   0.695   4.695   2.361  0.1635 -0.0232  0.6675
 2172TIP3    H1 6522   0.719   4.673   2.451 -1.0869 -0.1490  0.9867
 2172TIP3    H2 6523   0.659   4.784   2.367  0.9274  0.3370  0.1272
 2173TIP3   OH2 6524   3.456   1.137   0.012 -0.0803 -0.0109  0.2772
 2173TIP3    H1 6525   3.381   1.089  -0.023 -0.7883  3.3998 -3.6426
 2173TIP3    H2 6526   3.417   1.213   0.055  1.1346 -0.8715  3.1547
 2174TIP3   OH2 6527   1.317   2.041   4.658  0.5442  0.4823  0.1734
 2174TIP3    H1 6528   1.261   2.050   4.735 -0.5474  0.0426 -0.5442
 2174TIP3    H2 6529   1.396   1.996   4.690  0.1742  0.4543  1.0594
 2175TIP3   OH2 6530   6.002   2.006   0.742 -0.2365 -0.5997 -0.1006
 2175TIP3    H1 6531   5.911   1.997   0.772 -0.5633  0.1250 -0.8419
 2175TIP3    H2 6532   6.018   2.100   0.742  0.8550 -0.7530  0.9471
 2176TIP3   OH2 6533   1.906   0.530   1.081  0.0497  0.0616  0.6812
 2176TIP3    H1 6534   1.920   0.582   1.002 -1.3775 -1.1296 -0.4048
 2176TIP3    H2 6535   1.993   0.525   1.122  1.1523 -0.5267 -1.5794
 2177TIP3   OH2 6536   6.159   3.269   3.736 -0.0942  0.9846 -0.7333
 2177TIP3    H1 6537   6.108   3.204   3.688 -0.3898 -0.1990  1.0872
 2177TIP3    H2 6538   6.240   3.277   3.686  0.3647 -1.5230 -0.5421
 2178TIP3   OH2 6539   2.934   0.737   0.277  0.7092  0.3677  0.1325
 2178TIP3    H1 6540   2.940   0.656   0.227 -0.8446 -0.0058  0.4851
 2178TIP3    H2 6541   3.009   0.734   0.336  1.6976  0.0812 -1.0976
 2179TIP3   OH2 6542   3.267   5.645   4.632 -0.0558  0.3401 -0.0943
 2179TIP3    H1 6543   3.308   5.618   4.550  0.9955  0.5865  0.3361
 2179TIP3    H2 6544   3.286   5.574   4.693  0.4002  0.8102  0.3167
 2180TIP3   OH2 6545   0.051   5.781   1.338  0.5016 -0.1784 -0.9120
 2180TIP3    H1 6546   0.035   5.837   1.262  0.2946  0.1448 -0.6310
 2180TIP3    H2 6547   0.108   5.711   1.305 -0.9443 -0.9964 -1.7704
 2181TIP3   OH2 6548   1.040   5.559   2.644 -0.6638 -0.0567  0.6810
 2181TIP3    H1 6549   1.111   5.504   2.676  0.4845  1.4487  0.8039
 2181TIP3    H2 6550   1.062   5.647   2.673 -0.2307  1.2210 -3.0066
 2182TIP3   OH2 6551   4.870   4.145   0.391 -0.0810  0.7475  0.8525
 2182TIP3    H1 6552   4.779   4.168   0.411 -0.3744 -0.1415  0.5899
 2182TIP3    H2 6553   4.902   4.219   0.339  0.1032  2.1759  2.8833
 2183TIP3   OH2 6554   5.924   0.749   1.202  0.4113  0.1635 -0.3667
 2183TIP3    H1 6555   5.893   0.762   1.292 -0.6377 -0.2421 -0.6585
 2183TIP3    H2 6556   5.937   0.655   1.194 -1.8528 -0.1297 -1.3504
 2184TIP3   OH2 6557   3.781   1.555   0.428 -0.0242 -0.3692 -0.4613
 2184TIP3    H1 6558   3.737   1.589   0.507 -1.8259  0.3697 -1.7013
 2184TIP3    H2 6559   3.766   1.623   0.362  0.9344 -1.2340 -1.5991
 2185TIP3   OH2 6560   2.603   1.682   4.193 -0.3187 -0.6268  0.5634
 2185TIP3    H1 6561   2.606   1.623   4.269  0.2319 -1.3503 -0.0126
 2185TIP3    H2 6562   2.657   1.757   4.218 -0.1063 -0.8825  0.8675
 2186TIP3   OH2 6563   1.602   0.757   0.522 -0.1822 -0.0533 -0.2662
 2186TIP3    H1 6564   1.646   0.723   0.600  1.0647  0.2231 -0.8399
 2186TIP3    H2 6565   1.515   0.784   0.554  1.3257  2.9865  1.7489
 2187TIP3   OH2 6566   3.764   5.251   3.435 -0.4959  0.0558 -0.2735
 2187TIP3    H1 6567   3.762   5.311   3.361  1.1325  0.5379  0.0293
 2187TIP3    H2 6568   3.856   5.224   3.441 -0.1846  1.3748  2.6055
 2188TIP3   OH2 6569   5.918   5.003   1.793 -0.0009 -0.4028 -0.1738
 2188TIP3    H1 6570   5.836   4.956   1.782 -1.0719  1.6136 -1.3104
 2188TIP3    H2 6571   5.894   5.083   1.841  1.1793  0.4764 -0.9866
 2189TIP3   OH2 6572   0.756   1.038   4.800  0.1850 -0.1585  0.1416
 2189TIP3    H1 6573   0.674   1.060   4.843  0.1576  0.0039  0.0094
 2189TIP3    H2 6574   0.751   0.944   4.784  0.4038 -0.3130  0.9203
 2190TIP3   OH2 6575   1.268   2.217   2.272 -0.2407  0.3880  0.4601
 2190TIP3    H1 6576   1.233   2.303   2.247  2.1792  1.4802  0.5058
 2190TIP3    H2 6577   1.358   2.218   2.238 -0.0427 -1.9991  0.7960
 2191TIP3   OH2 6578   4.885   5.541   5.024 -0.4400 -0.0535  0.1500
 2191TIP3    H1 6579   4.880   5.521   5.118 -0.4734 -1.7195 -0.1679
 2191TIP3    H2 6580   4.962   5.493   4.994 -2.4989 -2.7154 -1.3378
 2192TIP3   OH2 6581   4.344   0.506   1.368  0.5063 -0.3533  0.4361
 2192TIP3    H1 6582   4.351   0.570   1.439 -0.1495 -0.2096  0.3717
 2192TIP3    H2 6583   4.435   0.487   1.345  0.7264 -0.7215  1.5881
 2193TIP3   OH2 6584   2.275   4.387   0.428 -0.6072 -0.1819  0.6723
 2193TIP3    H1 6585   2.335   4.458   0.406  0.4834 -1.1860  0.3425
 2193TIP3    H2 6586   2.283   4.376   0.522  0.7066 -1.1457  0.4728
 2194TIP3   OH2 6587   1.036   4.244   0.677 -0.4160 -0.3012 -0.2604
 2194TIP3    H1 6588   1.058   4.151   0.671  0.7602  0.0294 -3.8815
 2194TIP3    H2 6589   0.945   4.249   0.646  0.3335 -0.1379 -2.6803
 2195TIP3   OH2 6590   3.469   4.994   3.636 -0.5388  0.8540  0.0410
 2195TIP3    H1 6591   3.444   5.058   3.570 -0.2651  0.2703 -0.6427
 2195TIP3    H2 6592   3.564   4.995   3.638 -0.4216 -0.9114 -1.4297
 2196TIP3   OH2 6593   6.236   3.886   1.239 -0.0137 -0.4544  0.1477
 2196TIP3    H1 6594   6.212   3.812   1.296  0.8971 -1.3618 -0.6095
 2196TIP3    H2 6595   6.288   3.944   1.295 -1.7206  0.2463  1.0817
 2197TIP3   OH2 6596   1.634   5.344   1.672  0.2656  0.2979 -0.0084
 2197TIP3    H1 6597   1.703   5.277   1.672  1.5705  1.6030 -0.4351
 2197TIP3    H2 6598   1.675   5.421   1.710 -1.0340  1.0674 -0.1103
 2198TIP3   OH2 6599   5.606   4.524   3.763  0.3746  0.0829  0.2338
 2198TIP3    H1 6600   5.632   4.492   3.677 -1.2838 -0.0336 -0.2436
 2198TIP3    H2 6601   5.673   4.490   3.822  0.3099 -1.7555 -0.6899
 2199TIP3   OH2 6602   3.285   1.032   3.853  0.3103 -0.2444  0.6875
 2199TIP3    H1 6603   3.353   1.056   3.789 -1.1190  0.8278 -0.5120
 2199TIP3    H2 6604   3.267   1.114   3.900 -1.1572 -0.1333 -0.0216
 2200TIP3   OH2 6605   4.464   1.848   1.002  0.0303 -0.0827 -0.1132
 2200TIP3    H1 6606   4.517   1.787   1.052 -0.4572 -0.2180  0.2444
 2200TIP3    H2 6607   4.523   1.881   0.934  1.5434  2.0762  2.0512
 2201TIP3   OH2 6608   3.669   0.550   4.161 -0.1134  0.1605 -0.1126
 2201TIP3    H1 6609   3.677   0.636   4.202  1.5710  1.0579 -2.1478
 2201TIP3    H2 6610   3.662   0.489   4.234  2.3440  1.6829  1.5484
 2202TIP3   OH2 6611   4.942   5.632   3.160 -0.6304  0.1590 -0.5657
 2202TIP3    H1 6612   4.977   5.601   3.077  0.1361 -1.2110  0.2318
 2202TIP3    H2 6613   4.964   5.563   3.223  0.4345  1.9313  1.1493
 2203TIP3   OH2 6614   5.523   1.229   0.054 -0.6016 -0.3470 -0.1946
 2203TIP3    H1 6615   5.529   1.286   0.130 -0.4486 -0.3398 -0.2104
 2203TIP3    H2 6616   5.607   1.183   0.052  0.2846  1.2116 -1.5788
 2204TIP3   OH2 6617   5.793   0.266   1.218  0.4464  0.2847  0.1262
 2204TIP3    H1 6618   5.873   0.217   1.238 -0.4094 -1.9307 -1.5337
 2204TIP3    H2 6619   5.763   0.231   1.135 -1.3768  2.2660 -0.1369
 2205TIP3   OH2 6620   5.021   5.348   4.822  0.0456  0.0826 -0.3187
 2205TIP3    H1 6621   5.095   5.323   4.876 -0.2109  0.5943  0.2872
 2205TIP3    H2 6622   5.058   5.407   4.755  0.5248 -1.3015 -1.3128
 2206TIP3   OH2 6623   2.763   5.633   3.377  0.2866 -0.4046 -0.4388
 2206TIP3    H1 6624   2.730   5.716   3.343 -1.8374  0.1961  2.6556
 2206TIP3    H2 6625   2.693   5.571   3.360  0.8845 -1.0323 -0.6511
 2207TIP3   OH2 6626   4.848   1.682   2.203  0.4996 -0.1176  0.0105
 2207TIP3    H1 6627   4.918   1.671   2.139  1.1396  1.0489  0.4700
 2207TIP3    H2 6628   4.786   1.742   2.161 -0.4376 -1.4243 -0.5356
 2208TIP3   OH2 6629   5.462   4.746   3.330 -0.4002 -0.2393  0.2362
 2208TIP3    H1 6630   5.434   4.724   3.418  1.6777 -1.6799  0.6003
 2208TIP3    H2 6631   5.430   4.674   3.275  0.6877 -0.8029  0.3121
 2209TIP3   OH2 6632   3.783   1.435   3.295 -0.5495 -0.1497 -0.4528
 2209TIP3    H1 6633   3.876   1.418   3.277 -0.6007 -1.7071  0.5575
 2209TIP3    H2 6634   3.784   1.491   3.373 -0.4589 -0.8492  0.0554
 2210TIP3   OH2 6635   4.442   4.150   2.995  0.6811 -0.0584  0.0324
 2210TIP3    H1 6636   4.417   4.174   3.085 -0.3607 -1.0498  0.0317
 2210TIP3    H2 6637   4.395   4.068   2.979 -0.5602  0.9835 -2.0419
 2211TIP3   OH2 6638   1.442   3.704   1.614 -0.5276  0.5094  0.6320
 2211TIP3    H1 6639   1.529   3.743   1.607  0.2962 -1.3492 -0.1721
 2211TIP3    H2 6640   1.423   3.705   1.708  1.2170 -0.7290  1.0469
 2212TIP3   OH2 6641   2.217   5.692   4.721  0.3809 -0.1791 -0.5405
 2212TIP3    H1 6642   2.140   5.723   4.769  0.8196 -1.2441  0.8867
 2212TIP3    H2 6643   2.264   5.772   4.698 -0.6632  0.4322 -0.6290
 2213TIP3   OH2 6644   3.683   4.596   4.005 -0.1848  0.1672 -0.0276
 2213TIP3    H1 6645   3.681   4.526   3.939  0.1871  0.5237 -0.4277
 2213TIP3    H2 6646   3.772   4.632   3.999 -0.6503  1.2892 -0.4812
 2214TIP3   OH2 6647   4.014   3.948   1.269  0.6652  1.1425  1.1313
 2214TIP3    H1 6648   3.941   3.896   1.233  0.5156 -1.1284  4.2743
 2214TIP3    H2 6649   4.087   3.930   1.209  0.4199 -2.3096  1.6260
 2215TIP3   OH2 6650   0.767   1.864   4.067  0.3547 -0.1701  0.3342
 2215TIP3    H1 6651   0.840   1.921   4.089 -0.1053  0.0073  1.4699
 2215TIP3    H2 6652   0.723   1.848   4.151 -1.6997  0.8320 -0.4699
 2216TIP3   OH2 6653   1.692   1.887   2.802 -0.0016  0.6643  0.1480
 2216TIP3    H1 6654   1.618   1.845   2.846  0.1619 -0.0439 -0.2487
 2216TIP3    H2 6655   1.696   1.845   2.716  0.1665  1.4898 -0.2571
 2217TIP3   OH2 6656   5.856   4.912   2.986 -0.3645 -0.0551  0.0332
 2217TIP3    H1 6657   5.948   4.907   2.960 -0.0435  1.6483  0.7408
 2217TIP3    H2 6658   5.809   4.934   2.905  0.3601  2.9349  0.3155
 2218TIP3   OH2 6659   4.941   2.442   4.836  0.4329 -0.4867 -0.3014
 2218TIP3    H1 6660   4.873   2.377   4.818 -0.4210  0.1993  0.3682
 2218TIP3    H2 6661   4.927   2.511   4.771 -0.1529  0.1176  0.4431
 2219TIP3   OH2 6662   1.563   4.977   3.909 -0.2333  0.0777  0.1718
 2219TIP3    H1 6663   1.518   4.911   3.857 -2.0860 -0.4621  2.2871
 2219TIP3    H2 6664   1.638   4.931   3.947 -1.2716 -0.7806  1.2901
 2220TIP3   OH2 6665   5.962   1.837   0.085 -0.5806  0.1506 -0.0386
 2220TIP3    H1 6666   5.966   1.770   0.153  0.4384  1.3253  1.1358
 2220TIP3    H2 6667   5.982   1.791   0.004  0.0760 -0.9758  0.7364
 2221TIP3   OH2 6668   0.852   2.136   4.915  0.0760  0.2089 -1.0126
 2221TIP3    H1 6669   0.904   2.211   4.947  1.0983 -0.4852 -0.9963
 2221TIP3    H2 6670   0.770   2.175   4.886  0.5052  1.3187 -0.8082
 2222TIP3   OH2 6671   3.394   0.043   3.972 -0.1217 -0.3054  0.7957
 2222TIP3    H1 6672   3.408  -0.043   4.012  0.6335  0.0720  1.3738
 2222TIP3    H2 6673   3.304   0.040   3.939  0.3764 -1.8503 -0.5435
 2223TIP3   OH2 6674   3.112   2.653   1.843 -0.1175 -0.7031 -0.4270
 2223TIP3    H1 6675   3.155   2.622   1.764  0.4955  0.1136 -0.4240
 2223TIP3    H2 6676   3.144   2.742   1.855  0.1776 -0.9707  1.0072
 2224TIP3   OH2 6677   5.168   1.653   3.149 -0.0379  0.2980  0.0754
 2224TIP3    H1 6678   5.221   1.731   3.130 -0.2555  0.8591  1.6785
 2224TIP3    H2 6679   5.208   1.616   3.228 -0.3512 -0.8539 -0.2889
 2225TIP3   OH2 6680   0.702   4.031   0.055  0.1017 -0.0112  0.0232
 2225TIP3    H1 6681   0.622   4.036   0.108 -0.0535  0.5196 -0.2496
 2225TIP3    H2 6682   0.696   3.949   0.007 -1.1150  0.8068 -1.3007
 2226TIP3   OH2 6683   2.290   3.936   0.606  0.0854  0.0139  0.1403
 2226TIP3    H1 6684   2.329   3.970   0.687 -2.5129 -0.3318  1.6433
 2226TIP3    H2 6685   2.231   3.867   0.636 -1.2714  0.1595 -2.0257
 2227TIP3   OH2 6686   5.241   0.877   3.690  0.0586  0.3827 -0.0611
 2227TIP3    H1 6687   5.239   0.960   3.642  0.8345  0.2199 -0.3826
 2227TIP3    H2 6688   5.312   0.828   3.650 -0.2363 -0.3467  0.2906
 2228TIP3   OH2 6689   5.744   1.944   2.169  0.6692 -0.0348 -0.1834
 2228TIP3    H1 6690   5.669   1.929   2.226  0.3964 -0.5515 -0.6610
 2228TIP3    H2 6691   5.818   1.905   2.215  1.4168  3.5979  2.0111
 2229TIP3   OH2 6692   3.492   5.971   4.556 -0.3402 -0.4686  0.1028
 2229TIP3    H1 6693   3.408   6.010   4.531 -0.5295 -0.5843  0.5543
 2229TIP3    H2 6694   3.473   5.924   4.637 -0.0428 -1.2403 -0.2653
 2230TIP3   OH2 6695   2.846   2.429   2.392  0.3026  0.2394  0.2412
 2230TIP3    H1 6696   2.759   2.392   2.407  0.4921 -0.3829 -0.1863
 2230TIP3    H2 6697   2.904   2.376   2.446  0.6700 -0.5360 -0.8847
 2231TIP3   OH2 6698   4.385   2.062   1.743 -0.6261  0.2356 -0.2137
 2231TIP3    H1 6699   4.356   1.994   1.803 -0.0432  0.8448  0.7761
 2231TIP3    H2 6700   4.304   2.103   1.712 -0.9365 -0.1698  0.0568
 2232TIP3   OH2 6701   1.110   1.768   4.108  0.0041  0.3280 -0.1350
 2232TIP3    H1 6702   1.053   1.691   4.105  0.2810  0.1542 -1.5953
 2232TIP3    H2 6703   1.070   1.825   4.174 -1.0970 -0.3708 -0.1771
 2233TIP3   OH2 6704   0.007   5.229   2.866 -0.5966 -0.4388 -0.0408
 2233TIP3    H1 6705   0.036   5.176   2.941 -1.4175  0.6714  1.1049
 2233TIP3    H2 6706  -0.030   5.165   2.805  0.1330 -1.3750  0.4713
 2234TIP3   OH2 6707   1.767   0.884   0.957 -0.0210  0.6847 -0.4236
 2234TIP3    H1 6708   1.825   0.881   1.033  0.0590 -0.0716 -0.5028
 2234TIP3    H2 6709   1.681   0.860   0.991  0.1319 -0.2629 -0.6606
 2235TIP3   OH2 6710   1.816   0.140   0.731 -0.2065 -0.6630 -0.2060
 2235TIP3    H1 6711   1.770   0.078   0.787  0.8941 -0.7444  0.6432
 2235TIP3    H2 6712   1.863   0.197   0.792 -1.2208  1.0757 -0.9537
 2236TIP3   OH2 6713   5.010   0.121   0.569 -0.1043  0.3685  0.7965
 2236TIP3    H1 6714   4.932   0.167   0.538 -1.3806 -1.6132  0.9404
 2236TIP3    H2 6715   4.983   0.077   0.649  0.6368 -1.7276 -0.0382
 2237TIP3   OH2 6716   5.817   3.863   2.320  0.3850  0.5202  0.2103
 2237TIP3    H1 6717   5.887   3.869   2.385  1.8700 -1.5442 -1.0440
 2237TIP3    H2 6718   5.810   3.951   2.284  1.8584  0.9581  0.8988
 2238TIP3   OH2 6719   3.031   3.733   1.303  0.2442  0.1659  0.1879
 2238TIP3    H1 6720   3.089   3.693   1.240 -0.0252  0.4329 -0.2356
 2238TIP3    H2 6721   3.051   3.690   1.386 -0.3098 -1.1084 -0.3253
 2239TIP3   OH2 6722   5.705   2.318   0.235 -0.6345 -0.0517 -0.2309
 2239TIP3    H1 6723   5.751   2.275   0.164  2.0277 -0.6751  1.7294
 2239TIP3    H2 6724   5.742   2.407   0.238  0.7461 -0.6214  1.4918
 2240TIP3   OH2 6725   2.316   5.558   2.133  0.2135  0.7742 -0.2202
 2240TIP3    H1 6726   2.272   5.473   2.140 -1.1123  1.5938  2.2830
 2240TIP3    H2 6727   2.262   5.608   2.071 -0.2587  0.5211 -0.0144
 2241TIP3   OH2 6728   4.152   2.934   1.982  0.2689 -0.0046 -0.2844
 2241TIP3    H1 6729   4.120   3.006   2.037  0.7089 -1.2246  1.6348
 2241TIP3    H2 6730   4.238   2.964   1.952  0.0575  0.6354 -0.2776
 2242TIP3   OH2 6731   4.226   2.760   2.400 -0.3633 -0.1927 -0.2611
 2242TIP3    H1 6732   4.272   2.841   2.375 -0.9488  0.5466  0.9790
 2242TIP3    H2 6733   4.136   2.773   2.368 -0.3850 -0.4938 -0.3267
 2243TIP3   OH2 6734   5.537   2.495   0.478 -0.3486  0.2209  0.1594
 2243TIP3    H1 6735   5.577   2.496   0.565  0.1489  2.3149 -0.0282
 2243TIP3    H2 6736   5.453   2.451   0.491  0.5847 -1.3609  1.2378
 2244TIP3   OH2 6737   4.629   0.821   2.374  0.5557 -0.1628  0.9788
 2244TIP3    H1 6738   4.677   0.891   2.417  0.0106  0.4203  0.6506
 2244TIP3    H2 6739   4.544   0.819   2.418 -0.3628  1.0595 -0.6267
 2245TIP3   OH2 6740   1.686   5.673   3.105  0.4877 -0.0964 -0.2979
 2245TIP3    H1 6741   1.732   5.589   3.102  1.2509  0.3225 -0.5917
 2245TIP3    H2 6742   1.606   5.659   3.055  0.1870 -0.9006  0.4010
 2246TIP3   OH2 6743   4.241   5.724   3.668 -0.2499  0.4986  0.2595
 2246TIP3    H1 6744   4.210   5.647   3.717  1.2160 -1.4823 -1.7145
 2246TIP3    H2 6745   4.328   5.742   3.705 -0.5501  1.1379  0.6506
 2247TIP3   OH2 6746   6.250   0.231   2.687  0.1814 -0.0089  0.8810
 2247TIP3    H1 6747   6.190   0.161   2.714  0.1896 -0.6270 -0.5969
 2247TIP3    H2 6748   6.218   0.309   2.732 -2.7621  0.0421 -1.0499
 2248TIP3   OH2 6749   3.233   3.087   1.030  0.9924  0.1560  0.0043
 2248TIP3    H1 6750   3.149   3.110   1.071  1.6906 -1.9579  3.0013
 2248TIP3    H2 6751   3.209   3.025   0.961 -0.1415  2.8398 -2.1807
 2249TIP3   OH2 6752   2.166   2.673   0.529 -0.0971 -0.0419 -0.2760
 2249TIP3    H1 6753   2.139   2.744   0.471 -0.8260 -0.5477 -0.5707
 2249TIP3    H2 6754   2.203   2.607   0.471  0.1145 -0.1160 -0.0580
 2250TIP3   OH2 6755   3.875   3.334   2.719  0.2756 -0.2665 -0.6078
 2250TIP3    H1 6756   3.851   3.256   2.669  1.8307 -0.7913 -0.5774
 2250TIP3    H2 6757   3.861   3.406   2.658 -2.1891 -0.4000 -0.3110
 2251TIP3   OH2 6758   5.198   3.286   1.740  0.2060  0.0439  0.4310
 2251TIP3    H1 6759   5.235   3.237   1.813  1.3023 -2.1043 -1.4525
 2251TIP3    H2 6760   5.250   3.366   1.736  1.9043 -0.9993  0.4539
 2252TIP3   OH2 6761   4.710   0.900   0.600 -0.0450  0.0513  0.3012
 2252TIP3    H1 6762   4.667   0.913   0.684  0.9037 -0.1026  0.8222
 2252TIP3    H2 6763   4.673   0.968   0.543 -1.5479 -0.5738  0.4873
 2253TIP3   OH2 6764   3.834   1.524   4.494  0.2912 -0.0218  0.3649
 2253TIP3    H1 6765   3.871   1.531   4.583 -1.3347  1.3705  0.9854
 2253TIP3    H2 6766   3.861   1.605   4.451 -0.7560  0.3130  0.3297
 2254TIP3   OH2 6767   4.809   2.423   3.393 -0.1842 -0.2845  0.1083
 2254TIP3    H1 6768   4.788   2.430   3.299  1.5071 -1.3114 -0.3823
 2254TIP3    H2 6769   4.846   2.508   3.415 -1.2132  0.1987  0.0332
 2255TIP3   OH2 6770   3.571   3.048   2.212  0.2026 -0.4358 -0.3454
 2255TIP3    H1 6771   3.481   3.079   2.207  0.2697 -0.1857 -0.0596
 2255TIP3    H2 6772   3.593   3.022   2.123 -0.5931 -1.7716 -0.1812
 2256TIP3   OH2 6773   2.286   1.683   4.427 -0.1775 -1.3928  0.1621
 2256TIP3    H1 6774   2.195   1.686   4.457  0.1294 -2.3012  1.2790
 2256TIP3    H2 6775   2.318   1.772   4.440 -1.1414 -0.8490 -1.0671
 2257TIP3   OH2 6776   0.977   2.749   1.440  0.8131  0.7628  0.2122
 2257TIP3    H1 6777   1.034   2.772   1.513  0.4980  0.8014  0.4470
 2257TIP3    H2 6778   1.024   2.679   1.395  0.7166  0.2847  0.8312
 2258TIP3   OH2 6779   2.675   5.741   0.662  0.5072 -0.1868  0.1411
 2258TIP3    H1 6780   2.611   5.671   0.671  1.5761 -1.0134  1.7544
 2258TIP3    H2 6781   2.657   5.780   0.576 -2.1296 -0.3742  0.5381
 2259TIP3   OH2 6782   3.341   3.815   2.023  0.0424 -0.3756  0.1917
 2259TIP3    H1 6783   3.378   3.787   1.939  1.6774  0.3570  0.6237
 2259TIP3    H2 6784   3.351   3.910   2.023 -2.1066 -0.0899  0.2633
 2260TIP3   OH2 6785   3.901   0.026   2.816 -0.6656  0.5690  0.1060
 2260TIP3    H1 6786   3.880   0.099   2.757  1.2417 -1.1007 -2.9110
 2260TIP3    H2 6787   3.997   0.028   2.822 -0.6220 -1.2494  0.5394
 2261TIP3   OH2 6788   3.612   3.351   2.125  0.1538 -0.4253 -0.2680
 2261TIP3    H1 6789   3.707   3.344   2.120  0.2575  0.0648  0.8892
 2261TIP3    H2 6790   3.594   3.444   2.111  0.0496 -0.0548  1.9551
 2262TIP3   OH2 6791   1.462   0.323   0.483 -0.3433  1.0448  0.0286
 2262TIP3    H1 6792   1.446   0.336   0.576 -0.5583 -0.8158  0.2785
 2262TIP3    H2 6793   1.376   0.308   0.445 -0.2349  1.5828 -0.4519
 2263TIP3   OH2 6794   3.063   1.541   2.094 -0.5109  0.5515 -0.4727
 2263TIP3    H1 6795   3.037   1.559   2.004  0.2869  0.5984 -0.7031
 2263TIP3    H2 6796   3.122   1.613   2.117  2.7361 -1.6002 -1.4026
 2264TIP3   OH2 6797   2.131   0.103   0.280  0.4222 -0.1631 -0.1610
 2264TIP3    H1 6798   2.122   0.158   0.202  1.2583  1.2091  0.6538
 2264TIP3    H2 6799   2.091   0.155   0.350  2.3875  0.0222  0.8812
 2265TIP3   OH2 6800   1.074   1.712   3.581  0.3458 -0.2778  0.1849
 2265TIP3    H1 6801   1.109   1.632   3.620 -0.4182 -0.2707  0.9067
 2265TIP3    H2 6802   1.085   1.779   3.649 -3.3282 -0.8073  1.4916
 2266TIP3   OH2 6803   5.816   4.096   2.167 -0.1168 -0.0435 -0.4038
 2266TIP3    H1 6804   5.876   4.154   2.119  0.7803  0.9800  1.8295
 2266TIP3    H2 6805   5.732   4.141   2.163  0.1715  0.5186 -0.1849
 2267TIP3   OH2 6806   5.297   4.830   1.669 -0.7799 -0.0690 -0.4486
 2267TIP3    H1 6807   5.325   4.912   1.628  0.3127  0.6374  1.5938
 2267TIP3    H2 6808   5.369   4.769   1.652 -1.0367 -0.2519 -0.9018
 2268TIP3   OH2 6809   2.619   2.737   2.493 -0.3627 -0.1336 -0.0040
 2268TIP3    H1 6810   2.649   2.754   2.404 -0.1246  0.9718  0.2636
 2268TIP3    H2 6811   2.524   2.725   2.485  0.0155 -3.6788 -0.8608
 2269TIP3   OH2 6812   1.248   4.042   0.401  0.6702  0.1202 -0.0354
 2269TIP3    H1 6813   1.209   4.128   0.416  1.7789  1.2853 -3.0407
 2269TIP3    H2 6814   1.173   3.987   0.374 -0.2402 -0.3092  3.0234
 2270TIP3   OH2 6815   4.039   4.685   1.320  0.2657  0.4929  0.3088
 2270TIP3    H1 6816   3.947   4.709   1.326  0.6604  2.3063 -0.3316
 2270TIP3    H2 6817   4.045   4.633   1.240 -0.6192 -2.0338  1.7696
 2271TIP3   OH2 6818   2.652   4.753   2.094 -0.2608 -0.4424  0.0117
 2271TIP3    H1 6819   2.603   4.686   2.142 -1.3506 -0.4866 -1.1126
 2271TIP3    H2 6820   2.742   4.742   2.124 -0.2634 -2.9400 -0.7035
 2272TIP3   OH2 6821   4.168   5.639   3.119 -0.4536 -0.8507 -0.4102
 2272TIP3    H1 6822   4.126   5.556   3.140 -0.1312 -0.9885 -0.3027
 2272TIP3    H2 6823   4.222   5.658   3.195 -1.8425  0.3310  0.3199
 2273TIP3   OH2 6824   5.400   5.177   3.248  0.1943  0.3032  0.4899
 2273TIP3    H1 6825   5.402   5.088   3.212  0.8806  0.1771  0.8319
 2273TIP3    H2 6826   5.372   5.231   3.174 -2.7858 -0.4589  0.9038
 2274TIP3   OH2 6827   1.318   3.816   2.603  0.0965  0.8222  0.4133
 2274TIP3    H1 6828   1.369   3.780   2.530 -1.4856 -0.0702 -0.3346
 2274TIP3    H2 6829   1.383   3.850   2.664  1.5541 -0.0904 -0.5564
 2275TIP3   OH2 6830   6.084   4.516   4.826  0.2352 -0.1834  0.0252
 2275TIP3    H1 6831   6.069   4.424   4.849 -0.2018 -0.6597 -1.9536
 2275TIP3    H2 6832   6.169   4.536   4.864  0.1217 -1.2520  0.9025
 2276TIP3   OH2 6833   4.346   0.433   4.973 -0.2971 -0.0671 -0.1400
 2276TIP3    H1 6834   4.411   0.381   5.019 -1.0331 -0.7452  0.1567
 2276TIP3    H2 6835   4.280   0.453   5.040 -1.4257 -1.1401 -0.8946
 2277TIP3   OH2 6836   1.200   0.563   0.404 -0.1243 -0.0256  0.6597
 2277TIP3    H1 6837   1.275   0.529   0.356  0.8840  0.2935  1.9453
 2277TIP3    H2 6838   1.232   0.643   0.446 -1.3309  0.4029  0.8128
 2278TIP3   OH2 6839   3.487   2.930   4.605 -0.2067  0.1927 -0.0027
 2278TIP3    H1 6840   3.495   3.023   4.585 -0.7529  0.1716 -0.3463
 2278TIP3    H2 6841   3.497   2.887   4.519  1.7161 -0.1857  0.3498
 2279TIP3   OH2 6842   5.401   2.577   4.238  0.3440 -0.6585  0.1300
 2279TIP3    H1 6843   5.494   2.560   4.257 -0.0356 -1.6770  1.1508
 2279TIP3    H2 6844   5.358   2.571   4.323 -0.5948  0.3974 -0.2476
 2280TIP3   OH2 6845   0.719   4.521   0.258  0.2814 -0.0861 -0.9211
 2280TIP3    H1 6846   0.658   4.494   0.327  2.0448  0.6923  1.0298
 2280TIP3    H2 6847   0.676   4.597   0.218 -0.2385  0.2284  0.1674
 2281TIP3   OH2 6848   4.606   1.190   1.131  0.0325  0.4370  0.0701
 2281TIP3    H1 6849   4.620   1.099   1.155  0.3225  0.6292  0.6576
 2281TIP3    H2 6850   4.515   1.208   1.156 -0.4065 -0.0085 -1.1201
 2282TIP3   OH2 6851   6.293   2.216   4.257  0.1789  0.7965 -0.2021
 2282TIP3    H1 6852   6.340   2.212   4.340 -0.2010  0.4861  0.0016
 2282TIP3    H2 6853   6.204   2.187   4.278  0.4909 -0.8810 -1.0106
 2283TIP3   OH2 6854   1.180   4.624   1.564  0.2124  0.0977  0.3568
 2283TIP3    H1 6855   1.109   4.582   1.515 -0.1419 -2.0305  2.5590
 2283TIP3    H2 6856   1.137   4.691   1.616  0.3364  1.0564 -0.7204
 2284TIP3   OH2 6857   5.516   0.473   3.292  0.6297 -0.4299  0.0260
 2284TIP3    H1 6858   5.602   0.489   3.329  0.8194  2.7477 -1.4002
 2284TIP3    H2 6859   5.528   0.485   3.197 -1.3317  0.0577 -0.2144
 2285TIP3   OH2 6860   4.473   4.824   4.007  0.5138 -0.0423 -0.2502
 2285TIP3    H1 6861   4.550   4.766   4.002 -1.1622 -2.4459 -0.2027
 2285TIP3    H2 6862   4.491   4.881   4.081  1.1781 -2.3645  1.5290
 2286TIP3   OH2 6863   5.485   0.850   4.000 -0.3196 -0.4310 -0.3686
 2286TIP3    H1 6864   5.520   0.851   4.089 -0.9801 -0.2530 -0.1061
 2286TIP3    H2 6865   5.390   0.847   4.011 -0.3920 -1.0439 -1.0691
 2287TIP3   OH2 6866   3.378   5.265   2.258 -0.1804 -0.1481  0.3929
 2287TIP3    H1 6867   3.365   5.235   2.168 -0.3449 -0.0752  0.3913
 2287TIP3    H2 6868   3.434   5.198   2.298  1.1684  0.5760 -0.1975
 2288TIP3   OH2 6869   1.041   3.971   1.041  0.0693 -0.1549  0.2934
 2288TIP3    H1 6870   1.130   3.978   1.007 -0.2109 -1.5612 -0.7733
 2288TIP3    H2 6871   1.042   3.893   1.097 -0.6404 -0.5432 -0.2231
 2289TIP3   OH2 6872   0.213   1.262   0.829 -0.0089  0.4085 -0.5036
 2289TIP3    H1 6873   0.275   1.234   0.896 -0.2492  2.1469  0.4971
 2289TIP3    H2 6874   0.250   1.230   0.746 -0.5161 -3.2488  0.4820
 2290TIP3   OH2 6875   0.906   1.196   4.586  0.2809 -0.3696 -0.5998
 2290TIP3    H1 6876   0.915   1.114   4.538 -1.8617  0.7570 -3.2499
 2290TIP3    H2 6877   0.814   1.199   4.611 -0.0955  1.7960 -1.9209
 2291TIP3   OH2 6878   0.399   3.808   0.527  0.2057  0.1551  0.6697
 2291TIP3    H1 6879   0.484   3.852   0.537  0.2268  0.7476 -1.5596
 2291TIP3    H2 6880   0.422   3.716   0.512  0.4349  0.2288  0.5544
 2292TIP3   OH2 6881   6.277   3.730   5.051 -0.2808  0.7880 -0.3591
 2292TIP3    H1 6882   6.216   3.775   5.109 -0.6678  1.0304 -0.9383
 2292TIP3    H2 6883   6.363   3.744   5.090 -0.5875  0.4612  0.4571
 2293TIP3   OH2 6884   6.125   5.940   2.895  0.0356  0.4645  0.5493
 2293TIP3    H1 6885   6.125   5.952   2.990 -0.7493 -0.1106  0.6310
 2293TIP3    H2 6886   6.064   6.007   2.863  2.5937  2.7944  0.1149
 2294TIP3   OH2 6887   5.390   5.339   4.756 -0.9672 -0.5964  0.1446
 2294TIP3    H1 6888   5.376   5.262   4.701 -1.7361  0.5118 -1.2786
 2294TIP3    H2 6889   5.343   5.319   4.837 -0.0937 -2.1280  0.3118
 2295TIP3   OH2 6890   5.973   2.513   4.176 -0.5498  0.1435 -0.1339
 2295TIP3    H1 6891   5.926   2.589   4.143 -1.4805  0.7569  2.3590
 2295TIP3    H2 6892   5.930   2.438   4.134  0.2058  0.8944 -2.4093
 2296TIP3   OH2 6893   5.944   2.543   3.850 -0.0505  0.5753  0.0828
 2296TIP3    H1 6894   5.880   2.583   3.909 -0.2342 -2.0597  1.7919
 2296TIP3    H2 6895   6.025   2.543   3.900  0.4081  0.5688 -0.6559
 2297TIP3   OH2 6896   3.403   4.912   4.642 -0.1063  0.5029  0.4646
 2297TIP3    H1 6897   3.380   5.005   4.649 -0.0048  0.7370 -1.6253
 2297TIP3    H2 6898   3.492   4.907   4.677 -0.4430  1.0114  1.4317
 2298TIP3   OH2 6899   3.440   1.593   2.170  0.4615 -0.1810  0.1918
 2298TIP3    H1 6900   3.440   1.553   2.257 -0.6043 -1.3079 -0.2925
 2298TIP3    H2 6901   3.352   1.630   2.160  1.0533  1.2629  0.1557
 2299TIP3   OH2 6902   0.416   2.651   3.264  0.2125  0.1496 -0.0752
 2299TIP3    H1 6903   0.331   2.647   3.307  0.4193 -1.4736  0.2526
 2299TIP3    H2 6904   0.419   2.572   3.209  2.3773 -1.0871  1.6751
 2300TIP3   OH2 6905   4.507   1.770   3.062  0.5472 -0.2037 -0.6167
 2300TIP3    H1 6906   4.473   1.779   2.973  1.6322 -0.0072 -1.0240
 2300TIP3    H2 6907   4.569   1.842   3.072  0.9601 -0.6355  0.0394
 2301TIP3   OH2 6908   1.729   4.078   4.045  0.3320  0.7282 -0.6215
 2301TIP3    H1 6909   1.808   4.107   4.089  1.7308 -2.0541 -1.0744
 2301TIP3    H2 6910   1.750   4.083   3.952  0.9266 -2.1302 -0.7252
 2302TIP3   OH2 6911   5.460   2.893   3.901  0.8941  0.2480  0.1025
 2302TIP3    H1 6912   5.482   2.949   3.976  0.1697 -0.2830  0.7372
 2302TIP3    H2 6913   5.465   2.951   3.825  0.7348  1.0321  0.6778
 2303TIP3   OH2 6914   0.381   2.483   0.264 -0.3957  0.1125  0.0222
 2303TIP3    H1 6915   0.322   2.525   0.200 -1.4393 -0.7596  0.3837
 2303TIP3    H2 6916   0.400   2.397   0.225  3.6156  1.6107 -1.8725
 2304TIP3   OH2 6917   1.947   5.724   4.086  0.2822  0.4965 -0.9926
 2304TIP3    H1 6918   1.875   5.746   4.026 -0.8770  1.5492  0.7067
 2304TIP3    H2 6919   1.998   5.658   4.039 -1.0574  0.6543 -2.7716
 2305TIP3   OH2 6920   3.060   2.954   3.197 -0.1696 -0.1506  0.0761
 2305TIP3    H1 6921   3.021   3.040   3.216  0.8865  0.0875  1.3426
 2305TIP3    H2 6922   3.154   2.971   3.193  0.0388 -1.2247  0.1709
 2306TIP3   OH2 6923   5.957   4.837   2.066 -0.1641 -0.2309  0.3212
 2306TIP3    H1 6924   5.912   4.783   2.002 -1.5426  0.1883  0.8929
 2306TIP3    H2 6925   5.939   4.795   2.150 -0.2726  0.4557  0.6487
 2307TIP3   OH2 6926   2.460   2.836   1.842 -0.3760  0.0377  0.7066
 2307TIP3    H1 6927   2.520   2.799   1.777  0.8300  2.8872  0.0174
 2307TIP3    H2 6928   2.504   2.823   1.925  0.7696  1.1655  0.3123
 2308TIP3   OH2 6929   1.134   2.066   3.013  0.0810  0.4871 -0.8010
 2308TIP3    H1 6930   1.086   1.987   2.989 -0.2169  0.7131 -0.9604
 2308TIP3    H2 6931   1.066   2.128   3.039  0.3538  0.4882 -0.0752
 2309TIP3   OH2 6932   4.056   5.428   2.780 -0.0144 -0.6452  0.2802
 2309TIP3    H1 6933   4.122   5.396   2.719  1.9380  0.6755  1.5755
 2309TIP3    H2 6934   3.974   5.421   2.732  1.1062 -1.8885 -1.5902
 2310TIP3   OH2 6935   1.073   3.699   2.498  0.4018 -0.1066 -0.1818
 2310TIP3    H1 6936   1.152   3.747   2.472 -1.1270  3.3163  0.8978
 2310TIP3    H2 6937   1.085   3.682   2.591  0.1015 -0.1193 -0.1464
 2311TIP3   OH2 6938   0.943   1.957   4.237 -0.2321 -0.3958 -0.3374
 2311TIP3    H1 6939   0.905   1.960   4.325 -1.2203 -1.2209 -0.7130
 2311TIP3    H2 6940   1.018   2.017   4.241 -2.0113  1.9258  0.2269
 2312TIP3   OH2 6941   2.950   5.503   2.190  0.0193 -0.0960  0.5126
 2312TIP3    H1 6942   3.031   5.504   2.241  0.9307  2.0841 -0.8615
 2312TIP3    H2 6943   2.926   5.595   2.180 -2.7504 -0.6584  0.9737
 2313TIP3   OH2 6944   4.691   1.772   1.623 -0.0520 -0.2901  0.1266
 2313TIP3    H1 6945   4.660   1.699   1.570 -0.4798 -0.0913  0.1044
 2313TIP3    H2 6946   4.647   1.762   1.707 -0.8687  0.4931 -0.1955
 2314TIP3   OH2 6947   0.845   3.981   3.513  0.2168 -0.2654  0.5479
 2314TIP3    H1 6948   0.868   3.986   3.606  2.4930 -1.5537  0.1445
 2314TIP3    H2 6949   0.823   3.889   3.499 -0.1486 -0.0711 -0.1759
 2315TIP3   OH2 6950   0.107   0.370   1.933  0.0028 -0.3411  0.1737
 2315TIP3    H1 6951   0.135   0.353   2.023  1.1591 -1.9047 -0.4287
 2315TIP3    H2 6952   0.016   0.342   1.930 -0.4145  0.8135  1.1128
 2316TIP3   OH2 6953   4.450   2.671   2.788  0.2343 -0.4451  0.2325
 2316TIP3    H1 6954   4.412   2.678   2.875  1.2088 -2.9884  0.9523
 2316TIP3    H2 6955   4.384   2.624   2.737  0.1262  0.0644 -0.1040
 2317TIP3   OH2 6956   5.622   1.057   0.800  0.1279  1.0737  0.3137
 2317TIP3    H1 6957   5.683   1.005   0.747  0.1038  1.0703  0.2886
 2317TIP3    H2 6958   5.673   1.133   0.828  0.2818  0.8288  0.6942
 2318TIP3   OH2 6959   4.214   2.033   2.481 -0.0459 -0.0332  0.0836
 2318TIP3    H1 6960   4.176   2.002   2.563  2.7155 -2.1638  0.7028
 2318TIP3    H2 6961   4.250   2.120   2.502 -0.2022 -0.1471  0.8433
 2319TIP3   OH2 6962   1.007   3.185   3.962 -0.1131 -0.7344 -0.2980
 2319TIP3    H1 6963   0.964   3.101   3.977  1.5232 -1.3947  0.9626
 2319TIP3    H2 6964   1.035   3.181   3.870 -2.2990 -0.4425 -1.0296
 2320TIP3   OH2 6965   3.296   0.796   4.949 -0.4173 -0.0559  0.2874
 2320TIP3    H1 6966   3.254   0.727   5.000  1.1415  1.1755  3.4906
 2320TIP3    H2 6967   3.370   0.825   5.003  1.9013  0.8894 -3.0670
 2321TIP3   OH2 6968   6.158   0.376   2.089  0.1208  0.0705  0.7966
 2321TIP3    H1 6969   6.165   0.293   2.137  2.6511 -0.3560 -0.1842
 2321TIP3    H2 6970   6.162   0.351   1.997  2.6307  1.3270  0.4853
 2322TIP3   OH2 6971   2.078   5.544   1.466  0.1527  0.0233 -0.0089
 2322TIP3    H1 6972   2.048   5.506   1.549 -0.5754 -0.0808 -0.3123
 2322TIP3    H2 6973   2.003   5.535   1.407  0.0535  1.6942 -0.1683
 2323TIP3   OH2 6974   0.747   4.812   4.439  0.1930  0.4480  0.0955
 2323TIP3    H1 6975   0.705   4.787   4.357 -0.5762  0.0991  0.5928
 2323TIP3    H2 6976   0.793   4.893   4.417 -1.0670  1.0724 -0.3655
 2324TIP3   OH2 6977   2.523   5.087   3.803  0.3236  0.5273  0.3103
 2324TIP3    H1 6978   2.553   4.998   3.823 -0.2219  0.5212  1.1636
 2324TIP3    H2 6979   2.430   5.077   3.780  0.3972  0.8151 -0.1415
 2325TIP3   OH2 6980   1.507   2.302   5.001  0.2975  0.6648 -0.4813
 2325TIP3    H1 6981   1.548   2.370   4.948  1.8546  0.0228 -0.1720
 2325TIP3    H2 6982   1.413   2.312   4.986  0.6476  0.9419 -2.8313
 2326TIP3   OH2 6983   5.759   2.644   2.893 -0.0444 -0.0091  0.6796
 2326TIP3    H1 6984   5.821   2.670   2.961 -0.1005 -0.5708  0.9467
 2326TIP3    H2 6985   5.751   2.549   2.902  0.4226 -0.1719 -0.5165
 2327TIP3   OH2 6986   3.904   3.946   2.350 -0.4939 -0.1984  0.0170
 2327TIP3    H1 6987   3.908   3.852   2.332  1.0254 -0.2134  0.3015
 2327TIP3    H2 6988   3.933   3.988   2.269  0.3810 -0.0514  0.3911
 2328TIP3   OH2 6989   5.490   3.828   1.139  0.2190  0.3921 -0.2784
 2328TIP3    H1 6990   5.569   3.879   1.119  1.1552 -1.6491 -2.2805
 2328TIP3    H2 6991   5.418   3.879   1.103  0.9513  0.9877 -0.9257
 2329TIP3   OH2 6992   5.424   2.238   4.303  0.1007  0.2769 -0.3220
 2329TIP3    H1 6993   5.372   2.285   4.369 -0.7976 -0.0113 -0.8021
 2329TIP3    H2 6994   5.359   2.202   4.243  0.8755  0.0136 -1.0233
 2330TIP3   OH2 6995   1.840   5.286   2.383 -0.0913  0.0933  0.3799
 2330TIP3    H1 6996   1.763   5.305   2.330 -0.3814 -0.2653  0.6606
 2330TIP3    H2 6997   1.893   5.366   2.380  0.4874 -0.3092 -1.4173
 2331TIP3   OH2 6998   2.044   3.998   1.896 -0.1831 -0.0567  0.7016
 2331TIP3    H1 6999   2.114   4.063   1.892  0.8130 -1.1508 -0.2921
 2331TIP3    H2 7000   1.966   4.046   1.865  0.1496  1.0933  1.5622
 2332TIP3   OH2 7001   6.042   1.230   3.912  0.5545  0.3765 -0.2833
 2332TIP3    H1 7002   6.095   1.210   3.989  0.8899 -1.3320 -0.9172
 2332TIP3    H2 7003   6.009   1.145   3.882 -1.6695  1.2643 -0.5557
 2333TIP3   OH2 7004   1.112   2.556   1.982  0.2774  0.2972 -0.1635
 2333TIP3    H1 7005   1.092   2.464   1.967  2.1558 -0.3506  1.0142
 2333TIP3    H2 7006   1.153   2.558   2.068  0.1687  2.2710 -0.1124
 2334TIP3   OH2 7007   1.508   4.784   1.312  0.4351  0.1042  0.0169
 2334TIP3    H1 7008   1.526   4.692   1.296 -0.7542  0.1438 -1.8577
 2334TIP3    H2 7009   1.514   4.825   1.225  1.3837  1.8919  0.8687
 2335TIP3   OH2 7010   0.600   1.887   4.565 -0.6560  0.1819  0.2717
 2335TIP3    H1 7011   0.596   1.792   4.579 -1.2354  0.0607 -0.6048
 2335TIP3    H2 7012   0.603   1.924   4.653  1.3136 -0.6866  0.6221
 2336TIP3   OH2 7013   4.295   0.178   3.942  0.1820 -0.0351  0.6202
 2336TIP3    H1 7014   4.253   0.250   3.990 -0.4793 -1.0566  1.6235
 2336TIP3    H2 7015   4.377   0.164   3.989  1.7468  1.9171 -1.3008
 2337TIP3   OH2 7016   6.105   4.771   2.369  0.3305 -0.3237 -1.0311
 2337TIP3    H1 7017   6.118   4.749   2.461 -2.5316  1.9097  0.0811
 2337TIP3    H2 7018   6.136   4.861   2.361 -0.9484  0.0742 -1.7990
 2338TIP3   OH2 7019   0.337   2.391   4.038 -0.4333  0.0844  0.2105
 2338TIP3    H1 7020   0.273   2.463   4.033 -0.4860  0.1115  1.1733
 2338TIP3    H2 7021   0.284   2.312   4.030 -0.6055  0.1057  1.0475
 2339TIP3   OH2 7022   0.506   0.562   1.796  0.2386 -0.0249  0.4648
 2339TIP3    H1 7023   0.521   0.536   1.887  0.0464 -0.9983  0.2351
 2339TIP3    H2 7024   0.532   0.654   1.792  1.1455 -0.2336  1.2816
 2340TIP3   OH2 7025   2.606   1.701   1.515 -0.5007 -0.2556  0.3643
 2340TIP3    H1 7026   2.638   1.722   1.604 -0.2758  1.2883 -0.0437
 2340TIP3    H2 7027   2.528   1.755   1.505  0.8496  1.5347 -1.2354
 2341TIP3   OH2 7028   3.150   2.021   1.203 -0.2419  0.0381 -0.0713
 2341TIP3    H1 7029   3.152   1.944   1.261 -0.3211  0.1024  0.0169
 2341TIP3    H2 7030   3.229   2.012   1.149  0.7870  0.8781  1.2252
 2342TIP3   OH2 7031   3.384   5.399   3.810  0.8411  0.3683 -0.1523
 2342TIP3    H1 7032   3.298   5.358   3.794  0.9441 -1.0618  2.4141
 2342TIP3    H2 7033   3.439   5.366   3.740 -0.1489 -0.5975 -0.5185
 2343TIP3   OH2 7034   5.612   5.014   0.838  0.1061  0.6553  0.4031
 2343TIP3    H1 7035   5.541   4.985   0.780 -0.9277  0.8074  1.5456
 2343TIP3    H2 7036   5.665   4.936   0.852 -0.5937  0.1982  0.5670
 2344TIP3   OH2 7037   0.942   0.735   2.836 -0.3425  0.0019  0.0694
 2344TIP3    H1 7038   0.918   0.659   2.783 -1.6310  0.7795 -0.5029
 2344TIP3    H2 7039   0.873   0.741   2.902  0.7700 -0.4272  1.3160
 2345TIP3   OH2 7040   0.580   1.984   0.642 -0.5196 -0.3763  0.1685
 2345TIP3    H1 7041   0.535   1.973   0.558 -1.2092 -0.0950  0.4970
 2345TIP3    H2 7042   0.534   1.925   0.702  0.4471 -1.1463  0.1873
 2346TIP3   OH2 7043   5.504   2.959   3.626  0.2724  0.1921  0.6230
 2346TIP3    H1 7044   5.497   3.033   3.567  1.2901  1.4468  1.9915
 2346TIP3    H2 7045   5.455   2.888   3.583  0.1806  1.3220 -1.2127
 2347TIP3   OH2 7046   6.012   3.281   0.843 -0.0194 -0.1296 -0.3802
 2347TIP3    H1 7047   5.987   3.345   0.775  0.1161  1.2293  0.8130
 2347TIP3    H2 7048   5.944   3.214   0.837 -0.7947  0.6698 -0.9483
 2348TIP3   OH2 7049   4.116   1.303   3.902  0.2093  0.1311 -0.1323
 2348TIP3    H1 7050   4.039   1.356   3.878 -0.1204 -0.0503  0.4804
 2348TIP3    H2 7051   4.092   1.265   3.986  0.4574 -0.9817 -0.5595
 2349TIP3   OH2 7052   2.698   1.278   3.332 -0.6067  0.7261  0.2484
 2349TIP3    H1 7053   2.701   1.354   3.391 -1.7980  1.7289 -0.9341
 2349TIP3    H2 7054   2.618   1.290   3.281 -0.2393 -0.7604 -0.7327
 2350TIP3   OH2 7055   0.490   3.645   2.483 -0.1875  0.9410  0.5299
 2350TIP3    H1 7056   0.517   3.577   2.545  0.5266  0.9815  0.2704
 2350TIP3    H2 7057   0.485   3.600   2.399  3.5111  1.7866 -0.3324
 2351TIP3   OH2 7058   2.378   5.872   0.656 -0.2685  0.4236  0.2346
 2351TIP3    H1 7059   2.429   5.919   0.591  0.8868 -0.9709  0.1072
 2351TIP3    H2 7060   2.400   5.780   0.644 -0.2262  0.0877  2.4124
 2352TIP3   OH2 7061   2.454   0.535   0.970  0.1444  0.2506  0.4861
 2352TIP3    H1 7062   2.524   0.504   1.027  0.9897 -0.7998 -1.0452
 2352TIP3    H2 7063   2.439   0.625   0.997  0.7328 -0.1120  2.1221
 2353TIP3   OH2 7064   4.436   4.827   0.871 -0.0370 -0.2580  0.7708
 2353TIP3    H1 7065   4.438   4.785   0.785 -0.6067 -1.0649  1.1405
 2353TIP3    H2 7066   4.478   4.764   0.929  1.9977  1.0362  0.7924
 2354TIP3   OH2 7067   2.362   2.378   2.290  0.0798 -0.1606  0.0656
 2354TIP3    H1 7068   2.451   2.375   2.255 -0.1863 -0.7588 -0.5832
 2354TIP3    H2 7069   2.313   2.432   2.228 -0.6457 -2.1038 -1.1344
 2355TIP3   OH2 7070   4.407   4.480   0.628  0.1699 -0.0920  0.3355
 2355TIP3    H1 7071   4.343   4.501   0.696 -0.4557  0.4315 -0.4020
 2355TIP3    H2 7072   4.385   4.390   0.603  0.2215 -0.1879  0.6295
 2356TIP3   OH2 7073   5.334   3.189   0.652 -0.2496  0.1766  0.0827
 2356TIP3    H1 7074   5.341   3.102   0.613 -0.3140  0.3261 -0.2681
 2356TIP3    H2 7075   5.422   3.207   0.685 -0.1498  0.1197 -0.1495
 2357TIP3   OH2 7076   2.901   3.643   1.704  0.3756 -0.0518 -0.1267
 2357TIP3    H1 7077   2.895   3.589   1.625  0.2857  0.2007 -0.2925
 2357TIP3    H2 7078   2.871   3.585   1.775 -0.3397 -0.0196 -0.3944
 2358TIP3   OH2 7079   4.261   5.543   4.908  0.5445  0.7722  0.2071
 2358TIP3    H1 7080   4.239   5.598   4.832 -1.0710 -1.0202 -0.7255
 2358TIP3    H2 7081   4.177   5.503   4.933  1.3483  0.1014  1.9479
 2359TIP3   OH2 7082   4.228   0.113   4.931  0.1226 -0.1414 -0.1597
 2359TIP3    H1 7083   4.301   0.079   4.982 -1.1826 -0.9738  1.2177
 2359TIP3    H2 7084   4.234   0.068   4.847  1.0953 -0.3037 -0.0067
 2360TIP3   OH2 7085   5.676   5.996   4.438  0.4811 -0.3273  0.4548
 2360TIP3    H1 7086   5.657   5.910   4.399 -1.4919 -0.1317  0.8666
 2360TIP3    H2 7087   5.633   5.993   4.523  0.8524  0.8749  0.6926
 2361TIP3   OH2 7088   2.698   5.323   3.770 -0.1429 -0.0864  0.7610
 2361TIP3    H1 7089   2.769   5.317   3.706 -0.8891  0.8230 -0.1954
 2361TIP3    H2 7090   2.671   5.233   3.785  0.8394 -0.3983  0.7147
 2362TIP3   OH2 7091   0.517   5.466   4.341 -0.4090  0.6291  0.1646
 2362TIP3    H1 7092   0.489   5.376   4.325  0.7495  0.2393  0.1846
 2362TIP3    H2 7093   0.445   5.520   4.311 -0.7683 -0.2859 -0.6647
 2363TIP3   OH2 7094   5.129   1.570   4.639  0.1686  0.2623  0.5274
 2363TIP3    H1 7095   5.180   1.490   4.654  1.4369  0.4197 -2.2661
 2363TIP3    H2 7096   5.055   1.542   4.585 -0.1755  0.7700  0.7272
 2364TIP3   OH2 7097   5.477   2.168   3.061  0.4621  0.8040 -0.5891
 2364TIP3    H1 7098   5.562   2.185   3.020  0.9993  2.8351  1.1701
 2364TIP3    H2 7099   5.497   2.119   3.140 -0.2792 -0.6618 -1.2742
 2365TIP3   OH2 7100   1.964   1.563   2.715  0.0977  0.4668 -0.3846
 2365TIP3    H1 7101   2.058   1.548   2.722  0.3117  1.1986 -1.5008
 2365TIP3    H2 7102   1.925   1.494   2.769  1.3209  1.6020  2.1073
 2366TIP3   OH2 7103   5.634   4.912   1.759 -0.0498  0.2162 -0.3166
 2366TIP3    H1 7104   5.614   4.972   1.688 -2.3016  0.8313  0.7316
 2366TIP3    H2 7105   5.610   4.960   1.839  0.4719 -1.1611  0.7206
 2367TIP3   OH2 7106   6.326   4.956   2.271 -0.3105  0.2953  0.2218
 2367TIP3    H1 7107   6.409   4.961   2.224 -0.3950  0.3852  0.0800
 2367TIP3    H2 7108   6.305   5.047   2.293 -2.1202  0.7400 -2.8323
 2368TIP3   OH2 7109   2.525   0.867   0.434  0.4367  0.1350 -0.2943
 2368TIP3    H1 7110   2.438   0.882   0.471  0.3893 -1.0845  0.1279
 2368TIP3    H2 7111   2.540   0.943   0.377  0.1573  1.6525  1.5399
 2369TIP3   OH2 7112   1.526   0.848   1.083 -0.2463 -0.1126  0.1734
 2369TIP3    H1 7113   1.465   0.921   1.089  2.3177  2.1352  1.1039
 2369TIP3    H2 7114   1.569   0.845   1.169  3.0038  0.4880 -1.2623
 2370TIP3   OH2 7115   3.852   4.504   1.765 -0.0361  0.0255  0.0781
 2370TIP3    H1 7116   3.813   4.574   1.713  0.5283 -0.7411 -1.4179
 2370TIP3    H2 7117   3.906   4.550   1.829  1.0185  0.9882 -1.4329
 2371TIP3   OH2 7118   5.258   1.286   2.917 -0.1117  0.1177  0.1923
 2371TIP3    H1 7119   5.304   1.202   2.926 -0.8540 -0.4075 -0.7112
 2371TIP3    H2 7120   5.218   1.300   3.003  0.3731 -0.2426  0.4828
 2372TIP3   OH2 7121   0.082   2.194   4.708 -0.4259 -0.0795 -0.1470
 2372TIP3    H1 7122   0.075   2.230   4.619  2.3196  1.9000  0.3077
 2372TIP3    H2 7123   0.129   2.111   4.697  0.7236  0.6062 -0.4841
 2373TIP3   OH2 7124   4.519   2.836   0.303  0.2999  0.3310  0.2827
 2373TIP3    H1 7125   4.517   2.908   0.366  0.3060 -1.2442  2.1906
 2373TIP3    H2 7126   4.426   2.816   0.287  0.3025  0.2554  0.3627
 2374TIP3   OH2 7127   2.335   0.632   3.154 -0.0398  0.2039 -0.3235
 2374TIP3    H1 7128   2.349   0.580   3.075  1.1027  0.2263 -0.1542
 2374TIP3    H2 7129   2.280   0.705   3.125 -0.9947 -0.6586 -0.7276
 2375TIP3   OH2 7130   5.843   0.793   2.009 -0.0290 -0.3561 -0.1110
 2375TIP3    H1 7131   5.782   0.855   1.968  0.7506  0.5026 -0.0118
 2375TIP3    H2 7132   5.855   0.724   1.944  0.6784  0.6515 -1.0761
 2376TIP3   OH2 7133   3.223   4.217   1.880  0.5981  0.2420  0.1030
 2376TIP3    H1 7134   3.197   4.309   1.889  0.3786  0.1251  0.7218
 2376TIP3    H2 7135   3.187   4.190   1.795  1.1067  0.8666 -0.3232
 2377TIP3   OH2 7136   2.597   4.216   0.523 -0.2925  0.0305  0.1206
 2377TIP3    H1 7137   2.579   4.140   0.578 -0.5503  0.3450  0.4745
 2377TIP3    H2 7138   2.548   4.287   0.564 -3.0112 -0.3250 -2.2240
 2378TIP3   OH2 7139   4.842   1.362   4.614 -0.0065 -0.5342 -0.0314
 2378TIP3    H1 7140   4.894   1.389   4.689  0.9005  0.2305 -0.9172
 2378TIP3    H2 7141   4.830   1.441   4.562 -1.3197 -0.8802 -0.2927
 2379TIP3   OH2 7142   0.268   0.532   3.883  0.4020 -0.1180  0.3601
 2379TIP3    H1 7143   0.215   0.581   3.946  1.1745 -0.1952  1.0760
 2379TIP3    H2 7144   0.212   0.459   3.857  0.9249 -1.4895  2.8199
 2380TIP3   OH2 7145   0.139   3.079   1.008 -0.1256 -0.1704 -0.0948
 2380TIP3    H1 7146   0.082   3.157   1.006 -1.5162 -0.9055  3.3646
 2380TIP3    H2 7147   0.078   3.005   1.014  1.2042 -1.5076 -1.9137
 2381TIP3   OH2 7148   4.950   4.167   0.795 -0.2688  0.2813 -0.1846
 2381TIP3    H1 7149   4.917   4.123   0.717 -0.6381  0.7030 -0.2671
 2381TIP3    H2 7150   4.899   4.248   0.801 -0.5319  0.0599  0.7245
 2382TIP3   OH2 7151   1.615   1.001   2.128 -0.4371  0.4418  0.0217
 2382TIP3    H1 7152   1.549   0.988   2.196 -0.9176  0.0665 -0.5131
 2382TIP3    H2 7153   1.633   0.913   2.094 -0.6778  0.6988 -0.7826
 2383TIP3   OH2 7154   4.951   4.877   3.056 -0.0792  0.8494  0.4765
 2383TIP3    H1 7155   5.008   4.814   3.013 -0.8535  1.1985 -1.1412
 2383TIP3    H2 7156   4.915   4.830   3.131 -0.8953 -0.8034 -0.8771
 2384TIP3   OH2 7157   0.660   2.973   1.896 -0.5468 -0.2942  0.3654
 2384TIP3    H1 7158   0.614   3.057   1.897 -1.3704 -0.7080 -0.6284
 2384TIP3    H2 7159   0.665   2.949   1.804  0.6273 -0.8383  0.5562
 2385TIP3   OH2 7160   4.259   3.151   0.427  0.5968 -0.8252 -0.0426
 2385TIP3    H1 7161   4.217   3.113   0.505 -1.7664  0.3567 -0.6462
 2385TIP3    H2 7162   4.194   3.143   0.358  1.3653  1.0780 -1.0781
 2386TIP3   OH2 7163   0.880   4.767   0.857  0.4417  0.5779 -0.2127
 2386TIP3    H1 7164   0.962   4.722   0.838  0.0604 -0.0347 -0.4529
 2386TIP3    H2 7165   0.812   4.705   0.828 -0.0938  1.2161 -0.3340
 2387TIP3   OH2 7166   2.987   3.257   1.713 -0.2500 -0.2093 -0.4914
 2387TIP3    H1 7167   2.899   3.220   1.719  0.1691 -1.3370 -1.0388
 2387TIP3    H2 7168   3.003   3.295   1.799 -0.6526 -1.4268  0.1483
 2388TIP3   OH2 7169   4.832   5.519   0.108 -0.4857 -0.2550 -0.2364
 2388TIP3    H1 7170   4.807   5.427   0.117  0.9917 -0.6478  0.1422
 2388TIP3    H2 7171   4.754   5.568   0.135 -0.6034 -1.4085  1.7415
 2389TIP3   OH2 7172   3.573   4.255   2.792 -0.2619  0.2862  0.1515
 2389TIP3    H1 7173   3.640   4.304   2.744  1.2560 -0.0625  1.8182
 2389TIP3    H2 7174   3.619   4.216   2.865 -2.1922 -0.5026  1.0250
 2390TIP3   OH2 7175   5.283   0.166   2.027  0.5060 -0.6661 -0.1244
 2390TIP3    H1 7176   5.270   0.142   2.119 -2.7986 -0.6269 -0.4522
 2390TIP3    H2 7177   5.263   0.260   2.024 -0.2915 -0.8501 -0.9940
 2391TIP3   OH2 7178   3.943   2.900   4.757 -0.2805 -1.2050 -0.0480
 2391TIP3    H1 7179   3.951   2.930   4.667 -1.5713  3.6079  1.1517
 2391TIP3    H2 7180   4.031   2.905   4.793 -0.3158  0.5748 -0.1450
 2392TIP3   OH2 7181   1.955   0.292   1.567  0.2996 -0.0738 -0.1747
 2392TIP3    H1 7182   1.989   0.205   1.586 -0.3399 -0.0176  1.3994
 2392TIP3    H2 7183   1.861   0.278   1.552  0.1519  0.3608  0.3182
 2393TIP3   OH2 7184   3.537   3.944   4.377 -0.8390  0.5146 -0.3503
 2393TIP3    H1 7185   3.462   3.884   4.373 -1.0644  0.8650 -1.8937
 2393TIP3    H2 7186   3.498   4.031   4.371 -0.4200  0.7874  0.6870
 2394TIP3   OH2 7187   1.752   4.338   2.811 -0.0056 -0.0368 -0.0888
 2394TIP3    H1 7188   1.844   4.311   2.810 -0.2549 -0.9521  0.5619
 2394TIP3    H2 7189   1.738   4.378   2.725  0.7475 -0.8017 -0.5846
 2395TIP3   OH2 7190   2.525   4.548   0.429  0.2685  0.0048 -0.1078
 2395TIP3    H1 7191   2.522   4.629   0.480  2.3423 -1.0617  1.8902
 2395TIP3    H2 7192   2.594   4.496   0.470  0.2431 -2.0640 -2.4306
 2396TIP3   OH2 7193   5.327   4.392   3.539  0.1068  0.5839  0.0993
 2396TIP3    H1 7194   5.292   4.478   3.564 -1.5895  0.3445 -1.3257
 2396TIP3    H2 7195   5.408   4.413   3.493  1.0331  1.2430  1.9105
 2397TIP3   OH2 7196   0.818   3.031   3.233 -0.0155 -0.7182  0.1582
 2397TIP3    H1 7197   0.777   2.994   3.311  1.1908  0.1756  1.2555
 2397TIP3    H2 7198   0.910   3.004   3.240  0.1402 -0.4844 -0.8790
 2398TIP3   OH2 7199   0.622   0.331   1.045  0.3115  0.4880  0.0122
 2398TIP3    H1 7200   0.619   0.289   1.131  1.8434 -0.1632 -0.2127
 2398TIP3    H2 7201   0.544   0.300   0.999  0.1765 -0.2145  0.7023
 2399TIP3   OH2 7202   3.932   0.918   2.943 -0.4225  0.0027 -0.1627
 2399TIP3    H1 7203   3.840   0.943   2.943 -0.0878  1.3346  0.3504
 2399TIP3    H2 7204   3.969   0.960   3.021  0.5071 -0.9741 -0.0443
 2400TIP3   OH2 7205   4.905   1.463   0.183 -0.3288  0.1081 -0.3232
 2400TIP3    H1 7206   4.819   1.430   0.155  0.8613 -1.6856 -2.2489
 2400TIP3    H2 7207   4.951   1.385   0.214  0.1785  1.2723  2.0919
 2401TIP3   OH2 7208   4.835   5.845   0.363 -0.0730 -0.2636  0.1107
 2401TIP3    H1 7209   4.766   5.866   0.299 -2.1164 -2.9167  1.2040
 2401TIP3    H2 7210   4.808   5.761   0.399  2.8851 -0.5610  1.9508
 2402TIP3   OH2 7211   2.416   5.108   4.633  0.3451 -0.3965 -0.0047
 2402TIP3    H1 7212   2.419   5.134   4.540 -0.0931  2.2215  0.6274
 2402TIP3    H2 7213   2.472   5.172   4.677 -1.6813  0.2209  1.8502
 2403TIP3   OH2 7214   4.636   2.510   2.162 -0.6094 -0.1876 -0.6536
 2403TIP3    H1 7215   4.593   2.440   2.212 -0.9596 -0.4471 -1.3190
 2403TIP3    H2 7216   4.670   2.467   2.084  0.6464  0.0588 -0.2764
 2404TIP3   OH2 7217   2.576   3.805   2.375  0.1458  0.1508 -0.3088
 2404TIP3    H1 7218   2.495   3.757   2.390 -0.6124  1.2781 -0.7431
 2404TIP3    H2 7219   2.598   3.843   2.460 -0.8478  1.4457 -0.5977
 2405TIP3   OH2 7220   6.042   1.124   2.699  0.1618 -0.7702 -0.1891
 2405TIP3    H1 7221   6.008   1.145   2.612 -1.0416  0.7083  0.5903
 2405TIP3    H2 7222   6.116   1.183   2.710 -0.1706 -0.4007  0.0861
 2406TIP3   OH2 7223   3.914   5.815   1.705  0.0164  0.1815 -0.0114
 2406TIP3    H1 7224   3.943   5.906   1.706 -0.5274  0.4124 -1.6571
 2406TIP3    H2 7225   3.994   5.764   1.708  0.5426  0.7815 -2.0963
 2407TIP3   OH2 7226   6.113   4.257   2.927 -0.6324 -0.2872  0.1694
 2407TIP3    H1 7227   6.202   4.265   2.892 -0.3708 -0.0298  0.8776
 2407TIP3    H2 7228   6.119   4.187   2.992 -1.5283 -2.0803 -1.5585
 2408TIP3   OH2 7229   5.164   2.330   0.109  0.1331  0.4476  0.4021
 2408TIP3    H1 7230   5.247   2.290   0.137 -1.3021 -2.7918  0.5373
 2408TIP3    H2 7231   5.109   2.327   0.187 -0.7060  0.7341 -0.1657
 2409TIP3   OH2 7232   1.723   3.697   1.004  0.4680  0.2511 -0.1332
 2409TIP3    H1 7233   1.802   3.715   1.055 -0.0566  0.2107  0.7129
 2409TIP3    H2 7234   1.694   3.611   1.034  1.5133 -0.9300 -2.2800
 2410TIP3   OH2 7235   2.150   5.639   1.853  0.0203  0.1148  0.3422
 2410TIP3    H1 7236   2.231   5.591   1.836  0.2948  0.5765  0.3146
 2410TIP3    H2 7237   2.148   5.706   1.784 -0.5368 -0.0865  0.1638
 2411TIP3   OH2 7238   5.960   2.108   3.429 -0.0069 -0.2496  0.1716
 2411TIP3    H1 7239   6.029   2.089   3.365  0.0127 -0.1828  0.1733
 2411TIP3    H2 7240   5.888   2.051   3.402  0.4277 -1.1380  0.8149
 2412TIP3   OH2 7241   1.707   0.071   4.520  0.4132 -0.1370  0.3843
 2412TIP3    H1 7242   1.729   0.161   4.541 -0.2034  0.5541 -1.6738
 2412TIP3    H2 7243   1.612   0.067   4.527  0.5469 -1.1091  2.0785
 2413TIP3   OH2 7244   2.216   4.121   2.312 -0.2899 -0.3733 -0.0564
 2413TIP3    H1 7245   2.295   4.081   2.276 -0.2699 -0.9820  0.6322
 2413TIP3    H2 7246   2.226   4.215   2.295  0.4943 -0.4652 -0.1296
 2414TIP3   OH2 7247   4.521   0.176   4.172 -0.5288 -0.0393  0.1822
 2414TIP3    H1 7248   4.511   0.259   4.125 -1.2015 -0.9326 -1.3485
 2414TIP3    H2 7249   4.496   0.196   4.262 -0.7530  1.3950 -0.1690
 2415TIP3   OH2 7250   4.800   3.189   1.489  0.4693  0.2811 -0.2702
 2415TIP3    H1 7251   4.808   3.119   1.424 -1.6898  0.8281 -1.2024
 2415TIP3    H2 7252   4.796   3.269   1.437  0.5467  0.8939  0.6576
 2416TIP3   OH2 7253   2.491   3.116   1.185  0.1259  0.1083  0.3041
 2416TIP3    H1 7254   2.459   3.167   1.110  2.3473 -1.8995 -2.2238
 2416TIP3    H2 7255   2.432   3.040   1.189  0.5342 -0.2353 -0.0385
 2417TIP3   OH2 7256   4.475   4.705   0.286 -0.3997 -0.1534 -0.0023
 2417TIP3    H1 7257   4.394   4.752   0.269 -0.1686  0.0894 -0.4546
 2417TIP3    H2 7258   4.466   4.623   0.237 -1.1616 -0.9908  1.4631
 2418TIP3   OH2 7259   1.999   5.995   2.021 -0.7724 -0.4102  0.1836
 2418TIP3    H1 7260   2.089   6.008   1.991 -0.9614 -1.5059 -0.9141
 2418TIP3    H2 7261   2.006   5.933   2.094 -0.2277  2.8303  3.1847
 2419TIP3   OH2 7262   0.563   4.894   2.648  0.3471 -0.4026 -0.1813
 2419TIP3    H1 7263   0.489   4.873   2.591 -0.9822  0.9196  0.9579
 2419TIP3    H2 7264   0.612   4.962   2.600  0.0531 -0.3271 -0.3764
 2420TIP3   OH2 7265   1.627   4.895   1.966  0.8077 -0.0243  0.2184
 2420TIP3    H1 7266   1.563   4.940   1.910 -0.2240 -2.8257 -1.0737
 2420TIP3    H2 7267   1.711   4.934   1.942  0.0332  0.8937 -1.1563
 2421TIP3   OH2 7268   2.296   1.898   3.391 -0.2314  0.3878  0.3311
 2421TIP3    H1 7269   2.293   1.913   3.486 -1.1502 -0.7819  0.5156
 2421TIP3    H2 7270   2.321   1.982   3.354  0.7531  0.7142  1.6542
 2422TIP3   OH2 7271   0.032   4.133   3.424  0.0863 -0.0279 -0.0609
 2422TIP3    H1 7272  -0.039   4.196   3.412  0.2820 -0.0468 -1.4381
 2422TIP3    H2 7273   0.110   4.186   3.438  0.1066  0.0235 -0.3701
 2423TIP3   OH2 7274   0.786   4.470   3.159  0.2813 -0.0713  0.1741
 2423TIP3    H1 7275   0.818   4.505   3.075  3.0116 -0.3203  1.0151
 2423TIP3    H2 7276   0.771   4.377   3.142  0.1789  0.0131 -0.2114
 2424TIP3   OH2 7277   3.790   0.344   4.636 -0.5546 -0.1217 -0.0071
 2424TIP3    H1 7278   3.774   0.315   4.547 -0.1296 -0.3608 -0.0069
 2424TIP3    H2 7279   3.702   0.355   4.674 -0.7262 -0.8568 -0.1818
 2425TIP3   OH2 7280   4.478   4.518   3.063 -0.1567  0.6332 -0.3053
 2425TIP3    H1 7281   4.386   4.522   3.037  0.1840  0.4134 -1.6052
 2425TIP3    H2 7282   4.479   4.455   3.136 -1.3284  2.2695  1.2201
 2426TIP3   OH2 7283   2.153   4.765   3.424  0.5992 -0.1166 -0.1990
 2426TIP3    H1 7284   2.130   4.832   3.360  0.3868 -0.2840 -0.2993
 2426TIP3    H2 7285   2.241   4.789   3.453  0.6599  0.0133 -0.4825
 2427TIP3   OH2 7286   2.618   1.560   2.146  0.4603  0.4151 -0.2655
 2427TIP3    H1 7287   2.674   1.500   2.195  1.6201  0.3718 -1.5742
 2427TIP3    H2 7288   2.665   1.643   2.147 -1.0730  1.3399  1.4248
 2428TIP3   OH2 7289   5.804   2.084   1.152 -0.4387 -0.1723 -0.5105
 2428TIP3    H1 7290   5.884   2.114   1.194 -0.8828 -0.4405  0.5517
 2428TIP3    H2 7291   5.767   2.019   1.212 -0.1330 -1.9746 -2.1709
 2429TIP3   OH2 7292   1.294   2.663   3.694 -0.9587  0.6447 -0.1284
 2429TIP3    H1 7293   1.365   2.646   3.756 -1.4637  0.8666  0.5178
 2429TIP3    H2 7294   1.239   2.727   3.737 -0.2475  2.3474 -1.6356
 2430TIP3   OH2 7295   5.156   4.370   3.327  0.1503 -0.2868  0.6287
 2430TIP3    H1 7296   5.233   4.391   3.379  0.3170 -0.5433  0.4850
 2430TIP3    H2 7297   5.087   4.354   3.391  0.2472 -0.1825  0.7600
 2431TIP3   OH2 7298   3.158   2.377   3.607  0.2102 -0.5861  0.2293
 2431TIP3    H1 7299   3.091   2.335   3.661 -1.7523  1.3429 -0.5785
 2431TIP3    H2 7300   3.114   2.397   3.525  0.9205  3.0561  0.5557
 2432TIP3   OH2 7301   3.001   4.889   1.534 -0.2245 -0.4244  0.3357
 2432TIP3    H1 7302   3.049   4.972   1.527  0.7477 -1.1220 -2.0895
 2432TIP3    H2 7303   2.910   4.916   1.544  0.2658  0.9151  1.7013
 2433TIP3   OH2 7304   5.517   0.209   5.038  0.0165 -0.2212 -0.1923
 2433TIP3    H1 7305   5.472   0.235   5.119  0.2832  0.9510 -0.4075
 2433TIP3    H2 7306   5.587   0.150   5.068 -0.4836 -0.5531  0.3303
 2434TIP3   OH2 7307   1.576   3.194   1.972 -0.1146 -0.3638  0.0522
 2434TIP3    H1 7308   1.634   3.119   1.960 -0.7613 -0.7597 -0.6512
 2434TIP3    H2 7309   1.488   3.158   1.968 -0.4272  0.3600  0.2217
 2435TIP3   OH2 7310   6.240   3.832   0.162  0.4659  0.3516  0.7617
 2435TIP3    H1 7311   6.230   3.860   0.254 -0.4768  1.3887  0.3695
 2435TIP3    H2 7312   6.207   3.906   0.111 -0.6030 -0.8720 -0.3891
 2436TIP3   OH2 7313   2.500   2.562   0.106 -0.1358  0.0241  0.0312
 2436TIP3    H1 7314   2.440   2.614   0.051  1.4244  1.4597 -0.4090
 2436TIP3    H2 7315   2.445   2.531   0.178 -1.9705 -0.8735 -1.6415
 2437TIP3   OH2 7316   5.231   1.218   3.309 -0.3445 -0.1571  0.6379
 2437TIP3    H1 7317   5.232   1.152   3.240 -1.4143 -1.6501  1.9800
 2437TIP3    H2 7318   5.169   1.284   3.278  0.1838 -0.1108 -0.3886
 2438TIP3   OH2 7319   3.277   0.581   1.124  0.3712 -0.3808  0.0264
 2438TIP3    H1 7320   3.365   0.544   1.123  1.6848  2.3696  2.0809
 2438TIP3    H2 7321   3.253   0.585   1.216 -0.9519  0.9694 -0.3277
 2439TIP3   OH2 7322   6.165   5.302   5.019  1.1313  0.6523  0.1595
 2439TIP3    H1 7323   6.119   5.243   5.079 -2.4553  0.5082 -2.4591
 2439TIP3    H2 7324   6.215   5.244   4.961  0.3950  0.4176 -0.2453
 2440TIP3   OH2 7325   1.284   2.861   4.596 -0.0979  0.2643  0.0131
 2440TIP3    H1 7326   1.370   2.822   4.579  0.3070  0.8068  0.7913
 2440TIP3    H2 7327   1.290   2.949   4.559  0.2534  0.8919  1.5042
 2441TIP3   OH2 7328   0.903   5.824   4.178 -0.1589  0.1927  0.0102
 2441TIP3    H1 7329   0.966   5.847   4.110 -0.9788  0.2216 -0.7594
 2441TIP3    H2 7330   0.953   5.828   4.260  0.8177  0.2505 -0.5751
 2442TIP3   OH2 7331   1.532   5.913   0.523 -0.4451 -0.3888 -0.0108
 2442TIP3    H1 7332   1.548   5.993   0.573  0.2992 -0.9285  0.6199
 2442TIP3    H2 7333   1.555   5.842   0.582 -0.8495 -1.0720 -0.6581
 2443TIP3   OH2 7334   0.989   1.242   0.090 -0.3588  0.1126  0.5353
 2443TIP3    H1 7335   0.926   1.234   0.162  0.5818  0.6238  1.4542
 2443TIP3    H2 7336   1.057   1.300   0.125 -0.9862  2.2722 -1.5514
 2444TIP3   OH2 7337   6.244   1.800   2.515 -0.4085 -0.0233  0.5077
 2444TIP3    H1 7338   6.172   1.796   2.578  1.6094  0.7145  3.0459
 2444TIP3    H2 7339   6.322   1.778   2.566  1.1142 -1.8206 -2.3440
 2445TIP3   OH2 7340   5.205   1.086   2.534  0.0185 -0.3556 -0.0712
 2445TIP3    H1 7341   5.282   1.100   2.480 -1.0695 -3.2799 -2.6866
 2445TIP3    H2 7342   5.240   1.065   2.621  1.9813  1.0834 -0.4549
 2446TIP3   OH2 7343   1.382   4.365   0.293 -0.3999  0.0299  0.1946
 2446TIP3    H1 7344   1.351   4.432   0.231  1.4132  0.1083 -0.6820
 2446TIP3    H2 7345   1.303   4.315   0.314 -1.1337  0.0385 -2.1592
 2447TIP3   OH2 7346   2.052   0.279   3.073  0.9012 -0.3325  0.4326
 2447TIP3    H1 7347   2.086   0.329   3.147  3.0431  0.4175 -1.0001
 2447TIP3    H2 7348   2.075   0.329   2.996 -1.9373 -0.7140 -0.8145
 2448TIP3   OH2 7349   1.277   4.114   2.666 -0.3328  0.1041  0.2734
 2448TIP3    H1 7350   1.221   4.105   2.588  1.4475 -0.3337 -1.0078
 2448TIP3    H2 7351   1.265   4.031   2.712  0.8692 -0.8999 -1.1390
 2449TIP3   OH2 7352   5.935   4.887   0.051 -0.2365  0.2041  0.2904
 2449TIP3    H1 7353   5.916   4.811   0.106 -0.0843 -0.7477 -0.8997
 2449TIP3    H2 7354   5.949   4.849  -0.036 -0.8853  1.6870 -0.4880
 2450TIP3   OH2 7355   0.869   2.303   2.170  0.1435  0.1932  0.3453
 2450TIP3    H1 7356   0.827   2.385   2.144 -1.4239 -0.9230 -0.8407
 2450TIP3    H2 7357   0.921   2.326   2.247  0.9173  2.5713 -0.8054
 2451TIP3   OH2 7358   2.540   2.197   4.659  0.4497 -0.6878 -0.0381
 2451TIP3    H1 7359   2.581   2.142   4.725  0.1634 -0.1284  0.6121
 2451TIP3    H2 7360   2.529   2.282   4.702  0.1355 -0.3584 -0.7584
 2452TIP3   OH2 7361   2.041   3.367   4.556 -0.4240  0.2337  0.5226
 2452TIP3    H1 7362   1.970   3.318   4.512  1.1107  1.2563 -3.5878
 2452TIP3    H2 7363   2.003   3.453   4.573 -1.1658 -0.2979  1.7260
 2453TIP3   OH2 7364   0.825   2.934   4.915  0.1894  0.0121 -0.1696
 2453TIP3    H1 7365   0.733   2.907   4.913  0.7950 -2.1478 -2.1035
 2453TIP3    H2 7366   0.822   3.025   4.946 -2.5535 -0.0535  0.0117
 2454TIP3   OH2 7367   1.730   3.765   2.246  0.5517 -0.2660 -0.0459
 2454TIP3    H1 7368   1.728   3.858   2.268 -0.3696 -0.0100 -1.1020
 2454TIP3    H2 7369   1.808   3.755   2.192  1.4773 -0.4237  1.2764
 2455TIP3   OH2 7370   4.137   2.668   4.116 -0.1011  0.3380 -0.3345
 2455TIP3    H1 7371   4.198   2.630   4.179  1.2312 -0.6708 -2.1377
 2455TIP3    H2 7372   4.191   2.727   4.063 -0.1655 -1.8687 -3.0839
 2456TIP3   OH2 7373   0.485   0.232   3.804  0.2232 -0.1151  0.0406
 2456TIP3    H1 7374   0.406   0.178   3.807  0.0441  0.0808 -0.7880
 2456TIP3    H2 7375   0.538   0.193   3.734  0.7742 -0.1207  0.4491
 2457TIP3   OH2 7376   1.876   0.197   3.481 -0.5687  0.3914  0.5016
 2457TIP3    H1 7377   1.782   0.182   3.493 -0.3036 -0.9444  1.0558
 2457TIP3    H2 7378   1.913   0.110   3.468  1.0225  0.4669  3.5238
 2458TIP3   OH2 7379   1.437   3.746   4.165 -0.4364  0.3485 -0.0791
 2458TIP3    H1 7380   1.389   3.827   4.147 -0.9578 -0.3519 -2.2281
 2458TIP3    H2 7381   1.370   3.678   4.166  0.2951 -0.5000 -2.0135
 2459TIP3   OH2 7382   2.761   4.152   2.603  0.4343  0.7729 -0.1821
 2459TIP3    H1 7383   2.708   4.183   2.530  1.3430  1.4256 -0.5816
 2459TIP3    H2 7384   2.845   4.129   2.564  1.0548  1.4702  0.6852
 2460TIP3   OH2 7385   4.138   4.563   4.431 -0.0547  0.1129  0.0469
 2460TIP3    H1 7386   4.189   4.553   4.350  0.4613  3.1126 -0.1105
 2460TIP3    H2 7387   4.052   4.529   4.410 -0.1392  1.4544 -2.0511
 2461TIP3   OH2 7388   0.376   4.881   0.381 -0.3044  0.3165 -0.3536
 2461TIP3    H1 7389   0.414   4.953   0.330 -0.1090  0.8132  0.4673
 2461TIP3    H2 7390   0.284   4.905   0.392 -0.4998 -0.1163 -1.0249
 2462TIP3   OH2 7391   3.970   2.232   2.130  0.4562 -0.2682 -0.3859
 2462TIP3    H1 7392   4.049   2.188   2.163  0.9080  0.2207 -0.8004
 2462TIP3    H2 7393   3.897   2.184   2.171  0.9872  0.5380  1.6289
 2463TIP3   OH2 7394   5.910   0.434   2.214  0.2394 -0.0620  0.2555
 2463TIP3    H1 7395   5.979   0.408   2.154 -2.1016 -3.1673 -1.4084
 2463TIP3    H2 7396   5.846   0.479   2.159  0.2321  1.5305  1.4840
 2464TIP3   OH2 7397   1.213   3.899   2.843 -0.0427 -0.0905 -0.2545
 2464TIP3    H1 7398   1.213   3.852   2.760  0.1475 -1.0046  0.2486
 2464TIP3    H2 7399   1.288   3.863   2.891 -1.3918 -1.1168  1.1570
 2465TIP3   OH2 7400   4.607   3.727   4.064  0.8956  0.1071  0.1903
 2465TIP3    H1 7401   4.615   3.736   3.969  1.4991  0.3990  0.2662
 2465TIP3    H2 7402   4.516   3.752   4.082  1.1147  1.2327 -0.1794
 2466TIP3   OH2 7403   1.563   2.066   3.345 -0.0925 -0.6996 -0.1944
 2466TIP3    H1 7404   1.473   2.098   3.344  0.1118 -0.0948  0.4959
 2466TIP3    H2 7405   1.558   1.980   3.303 -1.0229 -0.7714  0.0522
 2467TIP3   OH2 7406   6.139   0.331   4.103 -0.5207  0.0789  0.3450
 2467TIP3    H1 7407   6.195   0.305   4.030 -0.2214  0.5303  0.4044
 2467TIP3    H2 7408   6.087   0.404   4.069  0.3613  0.9903  0.8704
 2468TIP3   OH2 7409   0.866   1.282   2.462  0.2075 -0.6473  0.1627
 2468TIP3    H1 7410   0.848   1.369   2.429 -0.8890 -0.5104  1.0491
 2468TIP3    H2 7411   0.876   1.228   2.384 -0.7335 -0.0318 -0.4054
 2469TIP3   OH2 7412   4.105   1.560   1.975  0.0481 -0.0001 -0.2862
 2469TIP3    H1 7413   4.108   1.486   2.035 -1.8392  0.4149  0.3996
 2469TIP3    H2 7414   4.132   1.635   2.028  1.5142 -0.0917 -0.8577
 2470TIP3   OH2 7415   3.604   0.506   2.208  0.4576  0.1350  0.1257
 2470TIP3    H1 7416   3.686   0.505   2.158 -0.8626 -0.0648 -2.2078
 2470TIP3    H2 7417   3.624   0.461   2.290  2.1343 -1.9436 -1.3328
 2471TIP3   OH2 7418   2.070   2.195   1.348  0.0167  0.3601 -0.1931
 2471TIP3    H1 7419   2.132   2.142   1.398  0.4008 -1.1130 -2.1183
 2471TIP3    H2 7420   1.984   2.163   1.374  0.0842  1.3257  1.3175
 2472TIP3   OH2 7421   2.610   3.792   3.104 -0.4093  0.3789  0.3595
 2472TIP3    H1 7422   2.523   3.813   3.138 -0.6206  1.3356 -0.6919
 2472TIP3    H2 7423   2.598   3.708   3.059 -1.5297  1.7575 -2.1616
 2473TIP3   OH2 7424   4.813   0.331   0.963  0.1423  0.5868 -0.1441
 2473TIP3    H1 7425   4.748   0.313   0.895  0.6244  0.9862 -0.7247
 2473TIP3    H2 7426   4.804   0.259   1.026 -0.0927  0.0386 -0.7996
 2474TIP3   OH2 7427   3.671   0.070   0.105 -0.5082  0.1270  0.2471
 2474TIP3    H1 7428   3.707   0.002   0.048 -0.1481 -0.0179  0.6441
 2474TIP3    H2 7429   3.610   0.023   0.163  0.4047 -0.0181  1.1170
 2475TIP3   OH2 7430   5.234   0.162   1.270 -0.3068 -0.6262  0.4198
 2475TIP3    H1 7431   5.307   0.127   1.219 -0.9791  1.2822 -2.0392
 2475TIP3    H2 7432   5.196   0.086   1.314  0.8802 -2.2388 -1.2040
 2476TIP3   OH2 7433   3.730   0.093   4.232 -0.3754 -0.8101  0.0951
 2476TIP3    H1 7434   3.717   0.005   4.196  1.0549 -0.5131 -1.2571
 2476TIP3    H2 7435   3.822   0.096   4.256 -0.0975  0.6889 -0.9967
 2477TIP3   OH2 7436   2.526   2.124   0.807 -0.3689  0.5722  0.4782
 2477TIP3    H1 7437   2.598   2.065   0.780  1.1115  2.6357 -0.3455
 2477TIP3    H2 7438   2.545   2.143   0.898 -0.1822  0.6697  0.4208
 2478TIP3   OH2 7439   3.316   5.888   1.103 -0.3820 -0.7150 -1.0312
 2478TIP3    H1 7440   3.309   5.813   1.162  0.5028  0.8133  1.1490
 2478TIP3    H2 7441   3.230   5.895   1.062 -0.7657 -2.3385 -0.5494
 2479TIP3   OH2 7442   2.963   2.433   1.118  0.3784 -0.0432 -0.2001
 2479TIP3    H1 7443   2.869   2.448   1.114  0.5296  0.7719 -1.6485
 2479TIP3    H2 7444   2.985   2.397   1.032  1.3208 -0.6860  0.2902
 2480TIP3   OH2 7445   2.784   5.536   2.434  0.0678  0.4110 -0.3177
 2480TIP3    H1 7446   2.703   5.529   2.383 -0.3191 -1.0972  0.4518
 2480TIP3    H2 7447   2.852   5.502   2.376 -0.2875 -0.8048 -0.0498
 2481TIP3   OH2 7448   0.158   0.860   4.414 -0.6374  0.0336 -0.4099
 2481TIP3    H1 7449   0.217   0.859   4.338 -2.1676  1.4116 -1.7113
 2481TIP3    H2 7450   0.130   0.769   4.423  0.7965 -0.4455 -0.4418
 2482TIP3   OH2 7451   1.580   0.547   0.312 -0.2287 -0.3854 -0.2481
 2482TIP3    H1 7452   1.512   0.481   0.309 -1.3329  0.7246 -0.9991
 2482TIP3    H2 7453   1.595   0.563   0.405 -0.4123 -1.2046 -0.0714
 2483TIP3   OH2 7454   3.360   0.451   0.238  0.4073 -0.0946  0.1682
 2483TIP3    H1 7455   3.407   0.516   0.186 -2.7843  0.3730 -2.4122
 2483TIP3    H2 7456   3.384   0.367   0.199 -1.1673  0.1792 -1.4776
 2484TIP3   OH2 7457   5.103   1.632   1.725  0.4030 -0.3607  0.7102
 2484TIP3    H1 7458   5.183   1.683   1.713  1.3721 -1.8547  0.5371
 2484TIP3    H2 7459   5.123   1.571   1.796 -1.1608  0.3178  1.7934
 2485TIP3   OH2 7460   0.507   0.193   2.709 -0.4829 -0.3787  0.0400
 2485TIP3    H1 7461   0.602   0.196   2.722 -0.1783  0.6461 -2.0449
 2485TIP3    H2 7462   0.494   0.226   2.620 -2.5456 -3.4377 -0.9426
 2486TIP3   OH2 7463   6.178   5.089   4.575  0.4707 -0.3531  0.1040
 2486TIP3    H1 7464   6.223   5.076   4.659 -1.3116 -1.7301  0.9320
 2486TIP3    H2 7465   6.247   5.085   4.509  1.5069 -3.4691  1.1971
 2487TIP3   OH2 7466   4.173   4.110   2.407  0.5932 -0.1509  0.0370
 2487TIP3    H1 7467   4.085   4.074   2.400  0.3661 -0.1322  2.1158
 2487TIP3    H2 7468   4.191   4.112   2.502  2.9696 -0.5310 -0.3278
 2488TIP3   OH2 7469   3.628   0.105   4.542  0.4002  0.4329 -0.0875
 2488TIP3    H1 7470   3.637   0.035   4.477 -2.2691  0.1482 -0.2513
 2488TIP3    H2 7471   3.619   0.059   4.625  2.9052  0.7757  0.4473
 2489TIP3   OH2 7472   3.881   4.781   0.332 -0.0564 -1.0529  0.1870
 2489TIP3    H1 7473   3.964   4.826   0.349  0.3273 -0.5539 -2.5344
 2489TIP3    H2 7474   3.905   4.689   0.321  0.0538 -0.9994 -0.0222
 2490TIP3   OH2 7475   4.046   0.139   4.094  0.5260 -0.2385 -0.2751
 2490TIP3    H1 7476   4.079   0.229   4.094  0.4614 -0.1780  1.4655
 2490TIP3    H2 7477   4.115   0.088   4.050  0.7245  0.5888 -0.9567
 2491TIP3   OH2 7478   6.241   3.845   1.968 -0.1135  0.4530  0.0833
 2491TIP3    H1 7479   6.231   3.801   1.883 -0.7198  2.7956 -1.1268
 2491TIP3    H2 7480   6.316   3.802   2.009 -0.7853 -1.8102 -0.9033
 2492TIP3   OH2 7481   5.858   0.698   1.734 -0.3108 -0.2784  0.1845
 2492TIP3    H1 7482   5.832   0.786   1.705 -1.6146  0.4934  3.2314
 2492TIP3    H2 7483   5.781   0.644   1.718  0.2762 -0.7510 -1.1270
 2493TIP3   OH2 7484   5.610   2.365   2.947 -0.3545 -0.1202 -0.2881
 2493TIP3    H1 7485   5.692   2.330   2.984 -1.0003 -1.9427 -0.4903
 2493TIP3    H2 7486   5.559   2.391   3.024 -0.9022 -2.1067  0.0969
 2494TIP3   OH2 7487   4.894   0.397   2.488  0.0801  0.0507  0.1441
 2494TIP3    H1 7488   4.830   0.441   2.544 -1.4377 -0.1640 -1.3435
 2494TIP3    H2 7489   4.888   0.304   2.512  0.0350  0.0690  0.2032
 2495TIP3   OH2 7490   3.799   2.080   1.852  0.2079  0.3942 -0.6357
 2495TIP3    H1 7491   3.713   2.058   1.816  0.7092  1.1216 -2.3881
 2495TIP3    H2 7492   3.813   2.017   1.923 -1.3896 -0.2885 -0.9021
 2496TIP3   OH2 7493   3.199   2.851   2.664 -0.2131 -0.1458  0.2958
 2496TIP3    H1 7494   3.149   2.773   2.637  0.8419 -0.2314 -1.5615
 2496TIP3    H2 7495   3.267   2.816   2.721  0.0740 -0.5537 -0.2876
 2497TIP3   OH2 7496   4.693   1.462   0.732  0.1754 -0.5374 -0.4041
 2497TIP3    H1 7497   4.723   1.499   0.815  2.6194 -1.6039 -0.7421
 2497TIP3    H2 7498   4.685   1.538   0.674 -1.0492  0.1558  0.6143
 2498TIP3   OH2 7499   5.271   5.873   2.958  0.1420 -0.2857  0.0270
 2498TIP3    H1 7500   5.363   5.847   2.967  0.6098  0.2887 -2.3691
 2498TIP3    H2 7501   5.223   5.790   2.956  0.4658 -0.5785  2.0399
 2499TIP3   OH2 7502   1.178   5.535   4.027  0.2819  0.0794 -0.0891
 2499TIP3    H1 7503   1.084   5.550   4.012  0.3314 -1.1462 -1.9127
 2499TIP3    H2 7504   1.181   5.455   4.080  0.3069 -0.3225 -0.6923
 2500TIP3   OH2 7505   5.836   2.538   3.353 -0.9016 -0.2715  0.3534
 2500TIP3    H1 7506   5.771   2.608   3.347 -0.2164  0.4164  0.7145
 2500TIP3    H2 7507   5.830   2.509   3.444 -2.4211 -1.9382 -0.2122
 2501TIP3   OH2 7508   3.933   3.303   0.157 -0.1377  0.6105 -0.0316
 2501TIP3    H1 7509   4.014   3.275   0.114 -0.7957 -1.6175  0.0232
 2501TIP3    H2 7510   3.961   3.355   0.231  1.3183 -0.7953  0.4582
 2502TIP3   OH2 7511   5.098   1.731   3.610  0.3813  0.6522  0.5857
 2502TIP3    H1 7512   5.108   1.662   3.545 -0.0814  0.8395  0.3076
 2502TIP3    H2 7513   5.148   1.701   3.685  0.0199 -0.0803  0.5414
 2503TIP3   OH2 7514   5.392   2.247   4.791  0.2554  0.5997  0.0824
 2503TIP3    H1 7515   5.320   2.307   4.775  0.1396  0.5170  0.2963
 2503TIP3    H2 7516   5.469   2.292   4.756  0.4157  1.5280  1.5702
 2504TIP3   OH2 7517   3.540   5.984   1.982  0.2740 -0.7561 -0.0078
 2504TIP3    H1 7518   3.476   6.054   1.967 -0.0855 -0.6586  1.7696
 2504TIP3    H2 7519   3.491   5.916   2.029  1.3348 -0.8768  0.9714
 2505TIP3   OH2 7520   5.904   1.211   3.362 -0.7729 -0.0300  0.4439
 2505TIP3    H1 7521   5.947   1.238   3.444  0.1025  0.0017 -0.0117
 2505TIP3    H2 7522   5.879   1.294   3.321 -0.7922 -0.0298  0.4559
 2506TIP3   OH2 7523   1.565   3.480   0.894  0.4150  1.2550  0.1116
 2506TIP3    H1 7524   1.482   3.524   0.878  0.2420  1.1915  0.7823
 2506TIP3    H2 7525   1.628   3.524   0.837 -0.3266  0.4569 -1.3689
 2507TIP3   OH2 7526   0.818   1.015   1.570 -0.2674  0.3752 -0.1664
 2507TIP3    H1 7527   0.736   0.983   1.607  0.6660 -0.9043  0.9011
 2507TIP3    H2 7528   0.871   1.039   1.646  1.3183 -1.3245 -0.6561
 2508TIP3   OH2 7529   3.112   1.788   1.321 -0.3945 -0.2754  0.7264
 2508TIP3    H1 7530   3.019   1.775   1.298 -0.0983 -1.7067  0.1789
 2508TIP3    H2 7531   3.124   1.738   1.402 -0.1428  0.0654  0.9014
 2509TIP3   OH2 7532   5.641   2.885   0.454  0.1166  0.4696  0.1381
 2509TIP3    H1 7533   5.666   2.966   0.411 -0.2920  0.4137 -0.2160
 2509TIP3    H2 7534   5.640   2.820   0.384  2.9812 -0.4594  0.7994
 2510TIP3   OH2 7535   5.800   4.192   1.807  0.5613 -0.1395  0.4175
 2510TIP3    H1 7536   5.748   4.259   1.763 -0.6009 -1.9930 -1.1640
 2510TIP3    H2 7537   5.741   4.153   1.871  0.9507 -0.2383  0.7220
 2511TIP3   OH2 7538   2.695   5.913   1.585  0.2949  0.7833 -0.4734
 2511TIP3    H1 7539   2.668   5.840   1.641  0.7546  0.8991 -0.0973
 2511TIP3    H2 7540   2.690   5.990   1.642 -0.0276  1.0199 -0.8221
 2512TIP3   OH2 7541   3.897   2.329   3.015 -0.6025  0.2446  0.4155
 2512TIP3    H1 7542   3.912   2.412   2.970 -0.4147  0.7207  1.3168
 2512TIP3    H2 7543   3.944   2.338   3.098  1.5048 -1.7399 -0.4782
 2513TIP3   OH2 7544   0.092   3.286   1.287 -0.1310  0.7201  0.2092
 2513TIP3    H1 7545   0.090   3.357   1.224  2.1596  1.3440  0.7393
 2513TIP3    H2 7546   0.186   3.271   1.304 -0.5973 -1.2553  1.4003
 2514TIP3   OH2 7547   1.530   0.115   2.144 -0.5713 -0.0048 -0.4944
 2514TIP3    H1 7548   1.468   0.099   2.216  0.6162  0.1105  0.5990
 2514TIP3    H2 7549   1.547   0.209   2.148  2.0648 -0.4498  1.3447
 2515TIP3   OH2 7550   4.574   5.800   3.013  0.5655 -0.2691 -0.0021
 2515TIP3    H1 7551   4.601   5.884   2.977 -0.9346  0.4344  0.4362
 2515TIP3    H2 7552   4.519   5.822   3.088 -0.7283 -1.6044 -0.5011
 2516TIP3   OH2 7553   3.986   5.075   1.223 -1.1575 -0.1250 -0.3826
 2516TIP3    H1 7554   3.921   5.142   1.245 -1.6796 -0.5996 -0.4621
 2516TIP3    H2 7555   4.032   5.058   1.306 -3.8770 -2.7273  0.7551
 2517TIP3   OH2 7556   6.047   2.176   1.857 -0.0205 -0.2720  0.8646
 2517TIP3    H1 7557   5.986   2.172   1.930  0.7339  1.4390  1.6402
 2517TIP3    H2 7558   6.069   2.085   1.839 -0.7245 -0.7662  2.3405
 2518TIP3   OH2 7559   3.814   5.435   2.676  0.6818 -0.2602 -0.2468
 2518TIP3    H1 7560   3.777   5.354   2.640 -0.0979  0.5269 -1.2799
 2518TIP3    H2 7561   3.774   5.505   2.623  2.1608  0.7367 -0.0946
 2519TIP3   OH2 7562   4.691   4.325   4.415  0.4800 -0.1871 -0.3040
 2519TIP3    H1 7563   4.757   4.359   4.355  0.6992  1.6375  0.8652
 2519TIP3    H2 7564   4.742   4.282   4.484  0.4015  0.0813 -0.0733
 2520TIP3   OH2 7565   5.351   2.643   4.518 -0.2857  0.2895  0.2313
 2520TIP3    H1 7566   5.329   2.649   4.611  2.5230  3.6922  0.8853
 2520TIP3    H2 7567   5.280   2.689   4.473 -0.7708  0.1783  0.8613
 2521TIP3   OH2 7568   3.350   3.264   5.090  0.2685 -0.0797 -0.5497
 2521TIP3    H1 7569   3.384   3.342   5.045 -0.3354 -0.0331 -0.9368
 2521TIP3    H2 7570   3.297   3.300   5.161 -0.5292 -0.1179 -1.1122
 2522TIP3   OH2 7571   1.394   5.654   0.190 -0.2790 -0.3643 -0.3910
 2522TIP3    H1 7572   1.367   5.745   0.183 -0.4245 -0.3478  0.3334
 2522TIP3    H2 7573   1.461   5.653   0.259 -0.7163 -0.8908  0.0389
 2523TIP3   OH2 7574   1.786   2.615   0.519  0.2534  0.0664  0.4744
 2523TIP3    H1 7575   1.825   2.596   0.434  1.5079  1.7315  0.6316
 2523TIP3    H2 7576   1.832   2.558   0.580  0.9478  0.4656  0.3384
 2524TIP3   OH2 7577   3.494   2.487   3.001 -0.1406  0.5796  0.4560
 2524TIP3    H1 7578   3.544   2.447   2.929  0.3191 -0.0296  1.0985
 2524TIP3    H2 7579   3.462   2.413   3.052 -1.9071  0.9427 -0.0461
 2525TIP3   OH2 7580   0.021   3.302   3.241 -0.1603 -0.5217  0.7565
 2525TIP3    H1 7581   0.019   3.360   3.317  0.1809 -0.1407  0.4797
 2525TIP3    H2 7582   0.080   3.345   3.180 -2.8592  0.8481 -1.0815
 2526TIP3   OH2 7583   5.611   0.402   4.876 -0.0296 -0.1659  0.0039
 2526TIP3    H1 7584   5.588   0.391   4.783 -1.3839  2.9326 -0.1275
 2526TIP3    H2 7585   5.571   0.326   4.919 -0.3203 -1.0915 -1.7858
 2527TIP3   OH2 7586   5.968   5.250   2.778 -0.2344  0.0531 -0.0761
 2527TIP3    H1 7587   5.874   5.265   2.791 -0.1002  2.0757 -0.9710
 2527TIP3    H2 7588   5.978   5.238   2.684  0.3680 -0.4343  0.0448
 2528TIP3   OH2 7589   0.884   2.643   3.535  0.4398  0.2087  0.6585
 2528TIP3    H1 7590   0.887   2.611   3.625  1.2477  0.2169  0.6464
 2528TIP3    H2 7591   0.911   2.734   3.541 -1.2557  0.7375  0.6127
 2529TIP3   OH2 7592   2.230   5.848   2.675  0.5137 -0.4743  0.1090
 2529TIP3    H1 7593   2.320   5.829   2.703  0.5614 -0.3875  0.0129
 2529TIP3    H2 7594   2.234   5.938   2.641  0.1242  0.0298  1.3287
 2530TIP3   OH2 7595   4.880   0.532   3.208 -0.2410  0.2154 -0.0244
 2530TIP3    H1 7596   4.853   0.480   3.284  1.1448 -0.0591  0.3044
 2530TIP3    H2 7597   4.850   0.621   3.227 -1.3630 -0.1722  0.0681
 2531TIP3   OH2 7598   4.891   2.487   1.897  0.2757 -0.0605  0.0306
 2531TIP3    H1 7599   4.909   2.508   1.805 -1.5920  0.5235 -0.2405
 2531TIP3    H2 7600   4.951   2.543   1.947 -0.0975  1.1119 -0.8101
 2532TIP3   OH2 7601   0.063   0.173   0.471  0.0606 -0.1003 -0.1189
 2532TIP3    H1 7602  -0.007   0.208   0.526  0.7251 -0.1562  0.7801
 2532TIP3    H2 7603   0.109   0.110   0.527  1.5458  0.7755 -0.2907
 2533TIP3   OH2 7604   0.422   3.308   1.213  0.8622 -0.2106 -1.5461
 2533TIP3    H1 7605   0.485   3.236   1.210  0.2274 -1.2681  3.2740
 2533TIP3    H2 7606   0.354   3.283   1.151  2.0402 -2.2818 -2.0876
 2534TIP3   OH2 7607   2.180   2.998   5.127 -0.0114  0.3560 -0.0424
 2534TIP3    H1 7608   2.088   2.998   5.103  0.3716 -0.0321 -1.6004
 2534TIP3    H2 7609   2.212   3.083   5.097  0.4032  0.0057 -0.6010
 2535TIP3   OH2 7610   3.925   3.861   2.650  0.0388 -0.2992  0.4782
 2535TIP3    H1 7611   3.846   3.896   2.692  0.6819  0.8277  0.7942
 2535TIP3    H2 7612   3.921   3.896   2.561  0.8699  0.9428  0.9005
 2536TIP3   OH2 7613   2.343   4.752   1.976  0.2550  0.3760 -0.1228
 2536TIP3    H1 7614   2.341   4.835   2.024 -2.4912  0.2389  0.2081
 2536TIP3    H2 7615   2.421   4.707   2.007  0.7203  1.9937  1.1824
 2537TIP3   OH2 7616   4.778   5.813   3.314 -0.0578  0.3774  0.5412
 2537TIP3    H1 7617   4.823   5.763   3.246 -0.8536  3.1258 -2.2139
 2537TIP3    H2 7618   4.685   5.803   3.294 -0.2458  3.8069 -0.9835
 2538TIP3   OH2 7619   3.456   0.675   0.803 -0.0265 -0.5684  0.3639
 2538TIP3    H1 7620   3.540   0.647   0.841 -0.1787 -1.0661  0.3459
 2538TIP3    H2 7621   3.448   0.767   0.828  0.6937 -0.4164  0.0627
 2539TIP3   OH2 7622   3.873   1.692   2.382 -0.0105  0.5530  0.9233
 2539TIP3    H1 7623   3.851   1.711   2.473  2.0816 -3.7179  2.5577
 2539TIP3    H2 7624   3.968   1.690   2.380 -0.0224 -0.8216 -1.0213
 2540TIP3   OH2 7625   5.948   5.478   2.023  0.5599 -1.1515  0.4637
 2540TIP3    H1 7626   5.943   5.526   1.941  0.7767  0.0931  1.1615
 2540TIP3    H2 7627   6.031   5.431   2.018  0.4737 -1.2527 -0.1130
 2541TIP3   OH2 7628   3.198   5.967   0.486 -0.0909  0.0916  0.8672
 2541TIP3    H1 7629   3.137   6.010   0.546 -0.1728 -0.4936  1.2081
 2541TIP3    H2 7630   3.150   5.891   0.453  1.0164 -1.3777  2.4598
 2542TIP3   OH2 7631   0.247   1.513   0.574  0.0107 -0.2325 -0.3593
 2542TIP3    H1 7632   0.283   1.582   0.630 -0.4485  1.1617 -1.6959
 2542TIP3    H2 7633   0.322   1.457   0.554  0.8695  1.0153 -0.8115
 2543TIP3   OH2 7634   1.464   4.068   0.224 -0.0657  0.6131 -0.0725
 2543TIP3    H1 7635   1.413   4.107   0.295 -0.6309  0.7664 -0.5548
 2543TIP3    H2 7636   1.414   4.087   0.145  0.8307  0.9245 -0.5880
 2544TIP3   OH2 7637   4.488   2.443   4.169  0.2939 -0.6131 -0.5755
 2544TIP3    H1 7638   4.484   2.489   4.252  0.2797 -0.9672 -0.3776
 2544TIP3    H2 7639   4.423   2.373   4.177 -0.1523 -0.2777 -1.1140
 2545TIP3   OH2 7640   0.678   0.677   1.507  0.1667  0.1553 -0.4189
 2545TIP3    H1 7641   0.679   0.733   1.584  0.3385  0.8472 -0.9133
 2545TIP3    H2 7642   0.761   0.630   1.510  0.2068  0.2385 -0.2257
 2546TIP3   OH2 7643   4.303   3.658   0.609 -0.4549  0.2694 -0.1192
 2546TIP3    H1 7644   4.354   3.739   0.613 -0.4626  0.3128 -0.7165
 2546TIP3    H2 7645   4.337   3.612   0.532  0.2746 -0.8086  0.8053
 2547TIP3   OH2 7646   1.366   1.499   1.137  0.0464  0.4482 -0.0069
 2547TIP3    H1 7647   1.402   1.422   1.181  0.9705 -0.6353 -2.4163
 2547TIP3    H2 7648   1.273   1.497   1.155  0.2793 -0.4116  1.1535
 2548TIP3   OH2 7649   1.945   3.285   2.095 -0.4848 -0.2983 -0.2362
 2548TIP3    H1 7650   1.981   3.321   2.176 -1.2663 -1.4387  0.6454
 2548TIP3    H2 7651   1.860   3.329   2.085 -1.4928 -1.8832  0.9033
 2549TIP3   OH2 7652   1.730   3.950   1.172  0.4864 -0.5507  0.3383
 2549TIP3    H1 7653   1.734   4.031   1.121  1.5253 -0.6198  0.2733
 2549TIP3    H2 7654   1.803   3.958   1.234 -0.3482 -0.7645  1.3723
 2550TIP3   OH2 7655   4.657   2.975   2.941 -0.2704 -0.2906  0.3279
 2550TIP3    H1 7656   4.716   2.980   3.016 -0.8541  1.1802  0.7410
 2550TIP3    H2 7657   4.574   2.945   2.978  0.2653 -2.7261 -0.3131
 2551TIP3   OH2 7658   1.118   0.076   4.545 -0.1983  0.3257 -0.8212
 2551TIP3    H1 7659   1.136   0.163   4.509 -1.9816  0.2417 -2.0452
 2551TIP3    H2 7660   1.029   0.081   4.577 -0.0164 -0.8119 -0.0723
 2552TIP3   OH2 7661   2.842   2.071   2.639  0.0966 -0.6437 -0.2030
 2552TIP3    H1 7662   2.797   1.990   2.663 -0.4375 -0.4862 -0.6542
 2552TIP3    H2 7663   2.930   2.043   2.615 -0.4315 -1.2746 -1.5511
 2553TIP3   OH2 7664   0.696   2.940   1.627  0.0294  0.0301  0.3740
 2553TIP3    H1 7665   0.695   2.900   1.540 -2.6718  0.4210  0.1356
 2553TIP3    H2 7666   0.787   2.966   1.641  1.0959 -2.5179 -1.1437
 2554TIP3   OH2 7667   2.380   1.943   4.488  0.2969 -0.3863 -0.7259
 2554TIP3    H1 7668   2.342   1.987   4.565  1.8916 -2.9715  1.7112
 2554TIP3    H2 7669   2.432   2.011   4.445  2.0917  0.4233  2.4424
 2555TIP3   OH2 7670   2.246   4.928   0.651  0.1637  0.0684 -0.1675
 2555TIP3    H1 7671   2.308   4.952   0.582  1.1795  0.6926  0.9210
 2555TIP3    H2 7672   2.261   4.835   0.665 -0.1849 -0.1071 -0.9061
 2556TIP3   OH2 7673   4.349   3.746   4.207  0.1759 -0.4015 -0.2129
 2556TIP3    H1 7674   4.394   3.678   4.257  0.8235  0.3834  0.3025
 2556TIP3    H2 7675   4.256   3.728   4.219  0.3166 -1.8960 -1.0709
 2557TIP3   OH2 7676   3.062   2.638   2.595  0.0560  0.0679  0.0486
 2557TIP3    H1 7677   2.978   2.640   2.641  0.2209 -0.8324  0.4024
 2557TIP3    H2 7678   3.082   2.545   2.585  0.3718  0.2410 -1.2152
 2558TIP3   OH2 7679   0.708   3.214   0.225  0.0653  0.0706  0.4686
 2558TIP3    H1 7680   0.764   3.195   0.150  0.7634  2.7184  0.2262
 2558TIP3    H2 7681   0.620   3.191   0.196  0.5175 -0.3553 -0.6076
 2559TIP3   OH2 7682   3.257   5.687   4.232 -0.2026 -0.3649  0.6332
 2559TIP3    H1 7683   3.298   5.636   4.162 -0.5508  0.8188 -0.4697
 2559TIP3    H2 7684   3.264   5.778   4.202 -0.3806  0.1631  2.1332
 2560TIP3   OH2 7685   0.341   3.592   1.727  0.8403 -0.7862  0.3456
 2560TIP3    H1 7686   0.405   3.616   1.660 -0.6624  2.3878 -0.1578
 2560TIP3    H2 7687   0.280   3.535   1.682  0.4194  0.4819 -0.7649
 2561TIP3   OH2 7688   1.197   3.332   1.704 -0.2923  0.0002 -0.4738
 2561TIP3    H1 7689   1.179   3.423   1.729 -0.8164 -0.0631 -0.6029
 2561TIP3    H2 7690   1.112   3.289   1.708  0.2067 -0.9271  1.3817
 2562TIP3   OH2 7691   5.968   5.363   3.424 -0.2775 -0.1949 -0.6030
 2562TIP3    H1 7692   6.008   5.294   3.476 -0.0145 -0.7155 -1.4845
 2562TIP3    H2 7693   5.940   5.320   3.343  0.1389  0.7775 -1.2808
 2563TIP3   OH2 7694   0.557   1.275   0.836 -0.4057  0.1120  0.1774
 2563TIP3    H1 7695   0.619   1.331   0.883 -1.6611  0.9031  0.9497
 2563TIP3    H2 7696   0.575   1.187   0.869  0.3651  0.3077  0.3059
 2564TIP3   OH2 7697   3.435   3.358   0.440 -0.3524 -0.0332  0.1430
 2564TIP3    H1 7698   3.418   3.348   0.346 -2.2393 -1.6017  0.5982
 2564TIP3    H2 7699   3.349   3.356   0.481  0.5249 -2.2088  2.1202
 2565TIP3   OH2 7700   3.347   4.916   2.657  0.1462 -0.2156  0.0730
 2565TIP3    H1 7701   3.323   4.980   2.589 -1.5187  2.7039  3.0658
 2565TIP3    H2 7702   3.437   4.938   2.679  0.0085  0.2500  0.1954
 2566TIP3   OH2 7703   5.827   0.052   1.011  0.5353  0.0817  0.6923
 2566TIP3    H1 7704   5.844   0.095   0.927  0.2434 -1.6227 -0.2862
 2566TIP3    H2 7705   5.908   0.006   1.032  0.4553  0.1282  1.1188
 2567TIP3   OH2 7706   4.953   1.316   5.145  0.4109 -0.2198 -0.3304
 2567TIP3    H1 7707   4.912   1.292   5.228  1.2935 -0.6918 -0.0143
 2567TIP3    H2 7708   4.907   1.264   5.079 -0.7409  0.6436 -0.2460
 2568TIP3   OH2 7709   0.283   2.458   4.656 -0.1706 -0.0975 -0.3044
 2568TIP3    H1 7710   0.199   2.426   4.623 -0.3024 -1.2979  1.0775
 2568TIP3    H2 7711   0.340   2.381   4.656  0.5659  0.4348 -0.1123
 2569TIP3   OH2 7712   0.730   0.958   0.802  0.6432  0.1216  0.4166
 2569TIP3    H1 7713   0.703   0.868   0.783 -2.7527  0.8968  0.8460
 2569TIP3    H2 7714   0.730   0.963   0.898 -0.6760  0.8911  0.4021
 2570TIP3   OH2 7715   1.117   0.329   1.663 -0.1035  0.2000  0.0934
 2570TIP3    H1 7716   1.192   0.285   1.703  2.1954  2.2560 -1.6309
 2570TIP3    H2 7717   1.153   0.411   1.628 -3.0405  1.0057 -1.3857
 2571TIP3   OH2 7718   1.071   5.061   0.440  0.3907  0.4422  0.0970
 2571TIP3    H1 7719   1.064   4.967   0.457  1.4857  0.1375 -1.0074
 2571TIP3    H2 7720   1.007   5.101   0.499  0.2822 -0.9491  0.9620
 2572TIP3   OH2 7721   0.139   1.894   3.224 -0.1332 -0.7137 -0.2341
 2572TIP3    H1 7722   0.188   1.919   3.302 -0.3451  0.1387 -0.3571
 2572TIP3    H2 7723   0.204   1.896   3.153 -0.3199  0.4107 -0.3963
 2573TIP3   OH2 7724   1.723   3.895   0.821  0.2083  0.0110 -0.1596
 2573TIP3    H1 7725   1.697   3.836   0.892  0.1586  0.9946  0.6568
 2573TIP3    H2 7726   1.819   3.890   0.820  0.2099  0.0061 -0.0134
 2574TIP3   OH2 7727   0.332   5.740   0.298 -0.6822 -0.3049 -0.0364
 2574TIP3    H1 7728   0.332   5.835   0.286 -0.2924 -0.3979 -0.8123
 2574TIP3    H2 7729   0.298   5.705   0.215 -1.3467 -0.8268  0.4436
 2575TIP3   OH2 7730   2.745   5.091   3.999  0.4289 -0.3483 -0.1542
 2575TIP3    H1 7731   2.702   5.101   4.084  1.2984 -0.4124  0.3130
 2575TIP3    H2 7732   2.750   4.996   3.986  0.6539 -0.3470 -0.0822
 2576TIP3   OH2 7733   0.720   5.511   4.192  0.1323 -0.4441  0.2967
 2576TIP3    H1 7734   0.629   5.500   4.219  0.4864 -1.6062  1.1103
 2576TIP3    H2 7735   0.737   5.436   4.135  0.7805 -0.6278  0.7202
 2577TIP3   OH2 7736   2.347   3.809   3.298 -0.3817  0.1200 -0.4768
 2577TIP3    H1 7737   2.296   3.804   3.378 -0.3856  2.1161 -0.3084
 2577TIP3    H2 7738   2.371   3.902   3.290  0.2089 -0.1472 -2.4060
 2578TIP3   OH2 7739   0.209   3.767   5.157 -0.4855  0.2431 -0.4573
 2578TIP3    H1 7740   0.193   3.861   5.159  1.1314  0.5300  0.7016
 2578TIP3    H2 7741   0.285   3.757   5.101  0.4209 -0.1705  0.8081
 2579TIP3   OH2 7742   1.123   4.274   0.403 -0.0508  0.1262 -0.2905
 2579TIP3    H1 7743   1.117   4.326   0.484 -1.2831  1.3133 -1.1052
 2579TIP3    H2 7744   1.035   4.276   0.367  0.0314 -2.0016 -0.7217
 2580TIP3   OH2 7745   2.062   5.031   0.879 -0.3848 -0.2511 -0.2168
 2580TIP3    H1 7746   2.113   4.969   0.931 -0.8227 -0.3833  0.0591
 2580TIP3    H2 7747   2.108   5.036   0.795 -0.3114 -0.8957 -0.2170
 2581TIP3   OH2 7748  -0.003   4.477   2.701 -0.1885  0.0935 -0.1149
 2581TIP3    H1 7749   0.050   4.549   2.735 -1.4870  1.3816 -0.6930
 2581TIP3    H2 7750   0.001   4.409   2.768  0.2659  1.1074  0.9166
 2582TIP3   OH2 7751   4.755   2.368   4.224  0.6689 -0.2034 -0.7165
 2582TIP3    H1 7752   4.683   2.388   4.164  2.0944  4.1938 -1.3316
 2582TIP3    H2 7753   4.834   2.378   4.172  1.8496 -0.2873  0.9716
 2583TIP3   OH2 7754   0.603   1.363   2.160 -0.0619 -0.0754  0.1325
 2583TIP3    H1 7755   0.644   1.447   2.179 -0.9731  0.4021  0.0527
 2583TIP3    H2 7756   0.509   1.381   2.162 -0.2906 -1.2270  0.7301
 2584TIP3   OH2 7757   3.924   2.763   2.534  0.1332  0.0550  0.3173
 2584TIP3    H1 7758   3.882   2.681   2.559  2.4783 -1.3715 -0.1084
 2584TIP3    H2 7759   3.895   2.779   2.445 -0.8592  0.0499  0.6360
 2585TIP3   OH2 7760   4.686   4.738   0.706  0.3025 -0.3675  0.2824
 2585TIP3    H1 7761   4.746   4.759   0.635  0.9191 -1.7361  0.3807
 2585TIP3    H2 7762   4.691   4.814   0.764 -3.1364  2.6990 -2.8678
 2586TIP3   OH2 7763   5.178   3.410   4.150  0.0314 -0.2044 -0.2590
 2586TIP3    H1 7764   5.151   3.383   4.238  2.4649  0.0814  0.6738
 2586TIP3    H2 7765   5.128   3.354   4.091 -0.2992 -1.7236  1.3786
 2587TIP3   OH2 7766   0.918   1.861   4.553 -0.3860 -0.2747 -0.2294
 2587TIP3    H1 7767   0.908   1.955   4.535  0.8439 -0.2918 -1.2310
 2587TIP3    H2 7768   0.928   1.855   4.648  1.6891  0.9007 -0.2966
 2588TIP3   OH2 7769   6.318   4.104   1.415 -0.6165 -0.0716 -0.1078
 2588TIP3    H1 7770   6.389   4.142   1.363  0.5318 -0.5024  1.1044
 2588TIP3    H2 7771   6.343   4.120   1.506 -0.9080 -2.2442  0.4152
 2589TIP3   OH2 7772   2.513   0.679   2.905  0.3998 -0.3601 -0.4906
 2589TIP3    H1 7773   2.447   0.612   2.922 -0.9093  0.7456 -1.0599
 2589TIP3    H2 7774   2.565   0.683   2.985 -0.9136 -0.4905  0.3974
 2590TIP3   OH2 7775   3.066   5.154   2.246 -0.0411 -0.1168  0.2433
 2590TIP3    H1 7776   2.974   5.158   2.272  0.0793 -1.0307  0.8979
 2590TIP3    H2 7777   3.113   5.144   2.329  0.5601 -0.7620 -0.1681
 2591TIP3   OH2 7778   3.973   3.520   5.043 -0.1525 -0.4650 -0.1833
 2591TIP3    H1 7779   3.905   3.459   5.013  0.0078 -0.3700 -0.7557
 2591TIP3    H2 7780   3.952   3.537   5.135 -1.9615  0.9863 -0.8175
 2592TIP3   OH2 7781   3.679   1.721   2.170  0.1587 -0.0524 -0.2844
 2592TIP3    H1 7782   3.602   1.664   2.179  0.4378 -0.3464  0.3336
 2592TIP3    H2 7783   3.739   1.690   2.238  0.6874  0.3924 -0.5443
 2593TIP3   OH2 7784   5.959   3.810   4.123 -0.3476  0.2868 -0.1722
 2593TIP3    H1 7785   5.870   3.815   4.088 -0.8905 -2.7816  0.4883
 2593TIP3    H2 7786   6.015   3.837   4.050 -1.6629 -1.5124 -1.9524
 2594TIP3   OH2 7787   4.991   3.836   2.893  0.4377  0.0181  0.7889
 2594TIP3    H1 7788   5.059   3.867   2.954  0.2231 -0.4580  1.2693
 2594TIP3    H2 7789   4.909   3.860   2.935  0.2622  2.2449 -0.6171
 2595TIP3   OH2 7790   0.938   3.968   2.883  0.1895  0.3728  0.3460
 2595TIP3    H1 7791   0.896   3.897   2.932  0.0990  1.7435  2.3682
 2595TIP3    H2 7792   1.030   3.943   2.879 -0.0993 -0.6483 -0.4737
 2596TIP3   OH2 7793   2.517   1.014   1.018  0.5692  0.3165 -0.0427
 2596TIP3    H1 7794   2.523   1.070   0.941  1.3891 -1.6985 -1.5615
 2596TIP3    H2 7795   2.524   1.073   1.093  2.1922  2.1242 -1.5341
 2597TIP3   OH2 7796   3.102   5.437   2.818 -0.1086 -0.0472  0.5832
 2597TIP3    H1 7797   3.143   5.376   2.756  0.4875  0.4001  0.5244
 2597TIP3    H2 7798   3.018   5.459   2.778 -0.7052 -1.4729  1.0075
 2598TIP3   OH2 7799   3.021   1.680   0.298  0.1466 -0.3517  0.0129
 2598TIP3    H1 7800   3.112   1.699   0.275 -0.3819  0.4538 -1.5112
 2598TIP3    H2 7801   3.006   1.729   0.379  0.8452  0.1292 -0.1451
 2599TIP3   OH2 7802   0.187   0.302   2.234 -0.2508 -0.7232  0.2141
 2599TIP3    H1 7803   0.149   0.224   2.194 -1.1127 -0.7420  1.0600
 2599TIP3    H2 7804   0.114   0.363   2.243  0.4669  0.3286 -0.7395
 2600TIP3   OH2 7805   3.509   4.210   4.348 -0.4795 -0.5555  0.4918
 2600TIP3    H1 7806   3.452   4.224   4.423  0.4279 -0.1631  1.1227
 2600TIP3    H2 7807   3.541   4.298   4.325 -0.1920 -0.7608  0.0906
 2601TIP3   OH2 7808   3.338   2.014   4.815  0.0339  0.4378 -0.8541
 2601TIP3    H1 7809   3.355   2.105   4.841  1.7459 -0.5928  2.0447
 2601TIP3    H2 7810   3.255   2.018   4.768 -0.7764  3.3043  0.5766
 2602TIP3   OH2 7811   3.974   3.770   3.685  0.2970  0.2379 -0.1242
 2602TIP3    H1 7812   3.905   3.797   3.745  1.9638  0.9848  1.5847
 2602TIP3    H2 7813   3.965   3.675   3.677 -0.0885  0.1505  1.1851
 2603TIP3   OH2 7814   4.798   4.355   1.490  0.4501 -0.2311  0.0599
 2603TIP3    H1 7815   4.771   4.276   1.536  0.3526 -1.1477 -1.5237
 2603TIP3    H2 7816   4.890   4.366   1.512 -0.3666  1.4360  3.3718
 2604TIP3   OH2 7817   4.914   4.046   2.729 -0.3372  0.2157 -0.4282
 2604TIP3    H1 7818   4.947   3.966   2.771 -0.7857  0.1920 -0.1153
 2604TIP3    H2 7819   4.988   4.078   2.678  0.0467 -0.0567 -0.0523
 2605TIP3   OH2 7820   2.592   5.537   2.227 -0.2255  0.1177 -0.1487
 2605TIP3    H1 7821   2.655   5.468   2.208  0.3764  0.0334  1.9226
 2605TIP3    H2 7822   2.518   5.517   2.170  0.7985 -0.9740 -1.1540
 2606TIP3   OH2 7823   4.171   4.215   4.382 -0.4502  0.5351  0.0348
 2606TIP3    H1 7824   4.147   4.176   4.298  2.1176 -1.8000  0.2321
 2606TIP3    H2 7825   4.229   4.151   4.423 -0.2769  2.3113  2.8915
 2607TIP3   OH2 7826   1.638   4.225   4.244  0.1113  0.1748 -0.1104
 2607TIP3    H1 7827   1.656   4.186   4.159  2.1610  0.3397  0.1907
 2607TIP3    H2 7828   1.557   4.274   4.232  0.3275  0.1397 -1.9449
 2608TIP3   OH2 7829   1.792   2.784   0.155 -0.3991  0.1764  0.2851
 2608TIP3    H1 7830   1.842   2.805   0.076 -0.9173  0.1926 -0.0421
 2608TIP3    H2 7831   1.826   2.699   0.183  1.4770  1.2280  1.4265
 2609TIP3   OH2 7832   0.585   0.503   1.327  0.0364  0.2968 -0.2770
 2609TIP3    H1 7833   0.599   0.564   1.399  0.2076  0.9374 -0.8447
 2609TIP3    H2 7834   0.561   0.558   1.253  2.1574 -0.1169 -1.3380
 2610TIP3   OH2 7835   3.288   3.583   3.133 -0.2906  0.2967 -0.2238
 2610TIP3    H1 7836   3.351   3.582   3.205 -0.1952  1.1239 -0.2846
 2610TIP3    H2 7837   3.223   3.518   3.157  0.8206 -0.9155 -0.3788
 2611TIP3   OH2 7838   0.361   0.486   3.110  0.5086  0.1017 -0.1394
 2611TIP3    H1 7839   0.288   0.482   3.048  0.2074 -1.3855  0.2756
 2611TIP3    H2 7840   0.325   0.531   3.186 -0.3494 -1.5743  0.4965
 2612TIP3   OH2 7841   1.868   3.653   4.330  0.2544  0.1222  0.3080
 2612TIP3    H1 7842   1.895   3.744   4.346 -0.1407  0.4098 -0.5829
 2612TIP3    H2 7843   1.868   3.613   4.417  1.7687  0.5914  0.5488
 2613TIP3   OH2 7844   1.864   0.343   2.369 -0.3520 -0.1352  0.7569
 2613TIP3    H1 7845   1.884   0.250   2.360 -0.5185  0.0445 -2.5897
 2613TIP3    H2 7846   1.924   0.387   2.308  0.2656  2.0953  2.7946
 2614TIP3   OH2 7847   6.049   1.842   1.155 -0.2541 -0.2129  0.3137
 2614TIP3    H1 7848   6.051   1.923   1.206  2.3383 -0.8871  1.4311
 2614TIP3    H2 7849   6.108   1.858   1.082 -1.9303 -0.1811 -1.1014
 2615TIP3   OH2 7850   3.609   3.232   1.229 -0.0781 -0.1461  0.6851
 2615TIP3    H1 7851   3.575   3.203   1.313 -2.5086  2.7835  0.8772
 2615TIP3    H2 7852   3.670   3.303   1.250  0.6336 -0.5344  0.0064
 2616TIP3   OH2 7853   4.469   5.911   4.653 -0.6582 -0.3962  0.0091
 2616TIP3    H1 7854   4.473   5.930   4.559  1.0658  0.1491  0.1598
 2616TIP3    H2 7855   4.407   5.975   4.688  0.5491  1.0697 -0.4180
 2617TIP3   OH2 7856   4.852   2.161   1.683 -0.0976 -0.5376 -0.3520
 2617TIP3    H1 7857   4.843   2.075   1.643  0.0670 -0.7126 -0.0126
 2617TIP3    H2 7858   4.787   2.163   1.753  0.4666 -0.7079  0.1898
 2618TIP3   OH2 7859   5.893   0.799   2.282  0.0194  0.4594  0.0695
 2618TIP3    H1 7860   5.840   0.730   2.321 -0.7962  1.3647  0.5865
 2618TIP3    H2 7861   5.876   0.792   2.188 -0.7719  0.5292  0.1993
 2619TIP3   OH2 7862   0.861  -0.015   0.575  0.2488 -0.6573 -0.1689
 2619TIP3    H1 7863   0.913   0.000   0.496  0.8051  0.1583  0.3332
 2619TIP3    H2 7864   0.788   0.047   0.567  0.8453  0.1511  0.4086
 2620TIP3   OH2 7865   1.981   5.044   4.500  0.7007  0.6485  0.2003
 2620TIP3    H1 7866   1.997   4.981   4.430 -0.5718  2.1659 -1.5487
 2620TIP3    H2 7867   1.947   4.992   4.573  0.6383 -0.8047 -0.8426
 2621TIP3   OH2 7868   4.880   4.189   4.552  0.3367 -0.3929  0.2594
 2621TIP3    H1 7869   4.965   4.179   4.509  0.2692 -0.2490  0.0890
 2621TIP3    H2 7870   4.877   4.119   4.617  1.1272  0.3685  1.1534
 2622TIP3   OH2 7871   4.755   0.749   4.848  0.1563  0.5782  0.3542
 2622TIP3    H1 7872   4.689   0.679   4.854  0.2125  0.5080  0.1788
 2622TIP3    H2 7873   4.714   0.815   4.792  0.6047  0.1003 -0.5761
 2623TIP3   OH2 7874   2.363   2.197   3.413 -0.2111  0.4412  0.0385
 2623TIP3    H1 7875   2.452   2.231   3.407 -0.5819  1.2340 -1.3341
 2623TIP3    H2 7876   2.307   2.272   3.394 -1.0536 -0.8778 -3.4765
 2624TIP3   OH2 7877   1.278   0.719   2.581  0.0649 -0.1730 -0.2377
 2624TIP3    H1 7878   1.213   0.779   2.616  0.0957 -0.6309  0.6392
 2624TIP3    H2 7879   1.342   0.775   2.538 -1.1546  0.2605 -1.5795
 2625TIP3   OH2 7880   5.034   0.609   1.169  0.5993  0.0018 -0.0727
 2625TIP3    H1 7881   5.068   0.650   1.090  2.1136  0.2289  0.6517
 2625TIP3    H2 7882   5.071   0.521   1.170 -0.6893 -0.5728 -0.3902
 2626TIP3   OH2 7883   1.129   1.779   3.185 -0.1614  0.0341 -0.0934
 2626TIP3    H1 7884   1.138   1.781   3.089  1.6081  1.4346  0.0385
 2626TIP3    H2 7885   1.144   1.870   3.212 -0.2863 -0.3983  1.5408
 2627TIP3   OH2 7886   1.310   2.111   1.957 -0.1455  0.4743 -0.1202
 2627TIP3    H1 7887   1.266   2.194   1.973  0.3681  1.4260 -3.0134
 2627TIP3    H2 7888   1.241   2.053   1.926 -0.3100  0.1320  0.8522
 2628TIP3   OH2 7889   2.890   5.874   3.571 -0.1511 -0.2668 -0.1484
 2628TIP3    H1 7890   2.973   5.904   3.533  0.1834 -0.7369  0.2058
 2628TIP3    H2 7891   2.825   5.895   3.504 -0.0018  1.6429  0.2385
 2629TIP3   OH2 7892   1.097   1.174   3.672  0.1529 -0.1074  0.5574
 2629TIP3    H1 7893   1.045   1.193   3.594  0.2375 -0.3235  0.4475
 2629TIP3    H2 7894   1.066   1.237   3.737  0.6142  0.5744  0.1265
 2630TIP3   OH2 7895   5.065   4.689   5.027 -0.0819 -0.5083 -0.1413
 2630TIP3    H1 7896   5.027   4.691   5.115 -1.7857  1.3226 -0.8492
 2630TIP3    H2 7897   5.021   4.615   4.984  0.9902 -1.6122  0.5869
 2631TIP3   OH2 7898   5.078   3.950   0.198  0.3567 -0.3929  0.2769
 2631TIP3    H1 7899   4.983   3.945   0.213 -0.0605  2.8791 -0.6178
 2631TIP3    H2 7900   5.089   3.922   0.108 -0.0485  0.9930 -0.2245
 2632TIP3   OH2 7901   5.284   4.035   1.046 -0.4600 -0.6049 -0.0221
 2632TIP3    H1 7902   5.219   4.105   1.058 -0.2375 -0.4913  0.5270
 2632TIP3    H2 7903   5.273   4.008   0.955 -1.2005 -0.5033  0.0315
 2633TIP3   OH2 7904   6.155   4.360   2.545  0.1475 -0.3587  0.7635
 2633TIP3    H1 7905   6.190   4.336   2.459  0.5627 -2.8406  1.5597
 2633TIP3    H2 7906   6.233   4.381   2.597  0.1798 -1.9244  1.3869
 2634TIP3   OH2 7907   5.155   0.643   2.996 -0.0522  0.0983  0.0256
 2634TIP3    H1 7908   5.062   0.619   2.988 -0.0580 -0.0113  0.3968
 2634TIP3    H2 7909   5.202   0.570   2.955 -0.0932 -0.2841  0.6428
 2635TIP3   OH2 7910   5.128   3.098   2.235 -0.7511 -0.4041 -0.3079
 2635TIP3    H1 7911   5.141   3.073   2.327  0.3066 -0.0950 -0.3618
 2635TIP3    H2 7912   5.043   3.142   2.234  0.2195  1.6241  0.9606
 2636TIP3   OH2 7913   4.829   2.132   4.649 -0.1264  0.0351  0.2530
 2636TIP3    H1 7914   4.891   2.073   4.692  1.0765  1.6607  0.8333
 2636TIP3    H2 7915   4.779   2.171   4.721  0.6354  1.3953  0.0614
 2637TIP3   OH2 7916   4.546   4.997   4.198  0.2718 -0.5170 -0.0237
 2637TIP3    H1 7917   4.493   5.005   4.277 -1.1557  0.1505 -0.9947
 2637TIP3    H2 7918   4.598   5.077   4.196 -2.3957  1.3580 -1.5682
 2638TIP3   OH2 7919   0.189   1.953   3.484  0.3020  0.2897 -0.2543
 2638TIP3    H1 7920   0.121   2.018   3.504  1.4476  1.3175  0.5187
 2638TIP3    H2 7921   0.252   1.962   3.556  2.5649  1.2173 -2.1800
 2639TIP3   OH2 7922   1.259   3.517   4.215  0.2427  0.1983 -0.3784
 2639TIP3    H1 7923   1.210   3.513   4.297 -1.0826 -0.4303 -1.1730
 2639TIP3    H2 7924   1.270   3.426   4.188 -1.5029  0.4386 -2.1194
 2640TIP3   OH2 7925   3.270   1.800   0.183 -0.0969 -0.1134  0.3396
 2640TIP3    H1 7926   3.290   1.876   0.128  3.1606  0.4041  1.9948
 2640TIP3    H2 7927   3.256   1.729   0.121  1.5581  0.8337 -1.2030
 2641TIP3   OH2 7928   5.081   1.240   0.217  0.0716  0.2145 -0.2624
 2641TIP3    H1 7929   5.153   1.242   0.279  1.3881 -1.3213 -1.6775
 2641TIP3    H2 7930   5.107   1.301   0.148 -0.6520  0.7168 -0.1061
 2642TIP3   OH2 7931   3.163   4.859   3.059  0.4242  0.1500  0.1659
 2642TIP3    H1 7932   3.109   4.891   2.987  1.1246  1.1986  0.0811
 2642TIP3    H2 7933   3.125   4.898   3.137  0.3234 -0.1008  0.2425
 2643TIP3   OH2 7934   1.300   0.164   1.825 -0.2661 -0.2120  0.4534
 2643TIP3    H1 7935   1.293   0.198   1.915 -1.1515  0.3516  0.1812
 2643TIP3    H2 7936   1.244   0.087   1.823 -1.0599  0.3568  0.1262
 2644TIP3   OH2 7937   3.824   0.362   3.512 -0.3479  0.0248 -0.3353
 2644TIP3    H1 7938   3.803   0.356   3.606  0.0493  0.9179 -0.1757
 2644TIP3    H2 7939   3.739   0.372   3.469 -0.4621  0.8085  0.0480
 2645TIP3   OH2 7940   4.457   5.090   3.916 -0.0257  0.4452  0.0805
 2645TIP3    H1 7941   4.414   5.096   4.001  1.8915 -1.2525  1.2587
 2645TIP3    H2 7942   4.532   5.149   3.922 -0.3660  1.0038 -0.8122
 2646TIP3   OH2 7943   0.195   2.341   1.685 -0.5604 -0.0831  0.0993
 2646TIP3    H1 7944   0.113   2.389   1.692  0.0389  0.8942  0.6557
 2646TIP3    H2 7945   0.176   2.254   1.722 -0.9599  0.6194  1.5950
 2647TIP3   OH2 7946   3.544   0.029   2.732  0.2859  0.2623 -0.4072
 2647TIP3    H1 7947   3.594   0.109   2.716 -0.2422  0.5237 -0.7761
 2647TIP3    H2 7948   3.595  -0.039   2.688 -1.2769  1.0025 -3.6666
 2648TIP3   OH2 7949   5.602   1.312   3.144  0.3496  0.3009 -0.2802
 2648TIP3    H1 7950   5.581   1.298   3.237  0.7660 -0.4924 -0.2958
 2648TIP3    H2 7951   5.625   1.225   3.112 -0.0120  0.5370 -1.1922
 2649TIP3   OH2 7952   0.649   3.322   1.542  0.1080  0.4926  0.3027
 2649TIP3    H1 7953   0.711   3.318   1.470  1.7983  0.7944  1.6642
 2649TIP3    H2 7954   0.704   3.323   1.621 -1.6316  0.8097  1.5751
 2650TIP3   OH2 7955   1.967   1.096   3.331  0.7064 -0.1217 -0.3618
 2650TIP3    H1 7956   2.050   1.051   3.346  0.7053  0.3689  1.2837
 2650TIP3    H2 7957   1.991   1.175   3.282  1.3435  0.4244  0.7916
 2651TIP3   OH2 7958   6.252   0.266   3.512 -0.5268  0.5509  0.4377
 2651TIP3    H1 7959   6.172   0.295   3.554 -0.9821  0.6801 -0.4864
 2651TIP3    H2 7960   6.278   0.340   3.456 -0.3023  0.1454 -0.0037
 2652TIP3   OH2 7961   3.353   3.899   1.693  0.4993 -0.3936  0.4244
 2652TIP3    H1 7962   3.269   3.879   1.735 -0.1431  0.3778 -0.4636
 2652TIP3    H2 7963   3.376   3.819   1.646  0.0450 -0.4611  0.3176
 2653TIP3   OH2 7964   5.555   5.210   1.309 -0.3522  0.0659 -0.4706
 2653TIP3    H1 7965   5.492   5.184   1.241 -1.5773 -1.7750  1.2605
 2653TIP3    H2 7966   5.502   5.258   1.373  0.0624 -0.9856  0.7107
 2654TIP3   OH2 7967   4.861   1.722   1.300  0.1658 -0.0411 -0.1468
 2654TIP3    H1 7968   4.930   1.694   1.361 -0.4338 -0.0419  0.5487
 2654TIP3    H2 7969   4.786   1.666   1.322 -0.1322  0.1241 -0.7347
 2655TIP3   OH2 7970   1.207   5.120   0.187  0.8496 -0.1941 -0.0572
 2655TIP3    H1 7971   1.147   5.137   0.259  0.1624 -4.0675  0.5073
 2655TIP3    H2 7972   1.173   5.172   0.114 -2.3778 -1.0849  0.6610
 2656TIP3   OH2 7973   3.967   3.490   3.704 -0.4624 -0.6571 -0.3039
 2656TIP3    H1 7974   4.036   3.468   3.766  0.3402 -2.1801 -1.6544
 2656TIP3    H2 7975   3.911   3.412   3.701 -0.4805 -0.6242 -1.4667
 2657TIP3   OH2 7976   1.154   1.537   2.699 -0.4470  0.5767 -0.7069
 2657TIP3    H1 7977   1.187   1.516   2.786 -1.3926 -0.6269 -0.6212
 2657TIP3    H2 7978   1.217   1.601   2.665 -0.0770  1.0964  0.8491
 2658TIP3   OH2 7979   4.116   5.982   3.699 -0.1464 -0.4733  0.1253
 2658TIP3    H1 7980   4.123   6.017   3.610 -1.3376 -4.0316 -1.5870
 2658TIP3    H2 7981   4.162   5.898   3.695 -2.3690 -1.9160  2.0844
 2659TIP3   OH2 7982   1.799   3.741   3.680 -0.3296  0.5265  0.2974
 2659TIP3    H1 7983   1.874   3.699   3.636 -0.7827 -1.3225  1.1747
 2659TIP3    H2 7984   1.738   3.760   3.608 -1.4777 -3.3287 -0.0212
 2660TIP3   OH2 7985   5.214   3.761   0.937  0.1170 -0.1429  0.3422
 2660TIP3    H1 7986   5.145   3.772   0.871  1.8451 -1.5680 -1.8373
 2660TIP3    H2 7987   5.295   3.759   0.887  1.5576 -1.0706  2.5594
 2661TIP3   OH2 7988   1.054   5.530   4.909 -0.8222  0.0480 -0.9546
 2661TIP3    H1 7989   1.012   5.465   4.853 -1.4695  0.4314 -0.9303
 2661TIP3    H2 7990   1.059   5.609   4.855  0.0840 -0.0534 -1.0327
 2662TIP3   OH2 7991   3.273   3.796   4.401 -0.0476 -0.4842  0.9479
 2662TIP3    H1 7992   3.303   3.746   4.325 -0.8589  0.5012 -0.0606
 2662TIP3    H2 7993   3.204   3.741   4.439 -0.2580 -0.5907  0.4271
 2663TIP3   OH2 7994   5.975   0.495   0.480 -0.5496  0.3690  0.0522
 2663TIP3    H1 7995   6.049   0.554   0.489  0.8133 -1.0020 -1.4824
 2663TIP3    H2 7996   5.991   0.425   0.543 -0.3528 -0.0877 -0.4928
 2664TIP3   OH2 7997   2.560   4.599   1.391 -0.0704  0.1276 -0.0241
 2664TIP3    H1 7998   2.471   4.620   1.417 -0.2441 -1.3722  0.7555
 2664TIP3    H2 7999   2.582   4.521   1.443  1.1633 -0.3911 -1.2500
 2665TIP3   OH2 8000   2.840   4.403   4.419  0.2614 -0.4285  0.2626
 2665TIP3    H1 8001   2.906   4.436   4.480  1.0908  0.7829 -1.2120
 2665TIP3    H2 8002   2.818   4.479   4.365  0.2967 -1.6732 -1.5876
 2666TIP3   OH2 8003   2.759   2.495   0.129  0.2395  0.5021 -0.5923
 2666TIP3    H1 8004   2.795   2.561   0.189  0.0847  1.6718 -1.7416
 2666TIP3    H2 8005   2.667   2.517   0.121  0.5165  1.2424 -2.2929
 2667TIP3   OH2 8006   1.432   4.783   3.722 -0.2324  0.0584  0.3347
 2667TIP3    H1 8007   1.345   4.744   3.723  0.7563 -2.3840 -1.0003
 2667TIP3    H2 8008   1.431   4.842   3.646 -0.6180 -0.2528  0.0922
 2668TIP3   OH2 8009   1.987   1.004   2.253 -0.6588 -0.7215  0.0392
 2668TIP3    H1 8010   1.928   1.042   2.318 -0.2027 -0.0071  0.0567
 2668TIP3    H2 8011   2.003   1.076   2.191  0.8533 -0.6104  0.5016
 2669TIP3   OH2 8012   2.752   0.180   2.415 -0.0862  0.0067 -0.6796
 2669TIP3    H1 8013   2.671   0.224   2.390 -0.7296  0.2606  1.6526
 2669TIP3    H2 8014   2.816   0.211   2.350 -1.5280  0.8340 -1.7813
 2670TIP3   OH2 8015   2.294   0.760   1.462  0.1308 -0.2132  0.3477
 2670TIP3    H1 8016   2.279   0.665   1.463 -0.7170 -0.0812  0.9904
 2670TIP3    H2 8017   2.361   0.773   1.395 -0.9217 -1.0905 -0.9058
 2671TIP3   OH2 8018   3.560   2.379   1.531 -0.5793  0.2912 -0.8604
 2671TIP3    H1 8019   3.526   2.375   1.620  0.8760  0.3661 -0.2737
 2671TIP3    H2 8020   3.648   2.342   1.537 -0.1840  0.9563 -2.1267
 2672TIP3   OH2 8021   4.625   0.608   1.122  0.1864  0.2696 -0.5391
 2672TIP3    H1 8022   4.541   0.613   1.077  0.0321 -1.2023 -0.4629
 2672TIP3    H2 8023   4.689   0.640   1.059 -0.2103 -0.3339 -1.2560
 2673TIP3   OH2 8024   4.814   3.704   0.509 -0.5947  0.2477  0.0490
 2673TIP3    H1 8025   4.719   3.689   0.517 -0.6965  1.0021  0.3133
 2673TIP3    H2 8026   4.853   3.617   0.521 -1.3470 -0.4716 -2.1107
 2674TIP3   OH2 8027   2.384   3.661   2.191 -0.3020 -0.1405  0.0038
 2674TIP3    H1 8028   2.347   3.673   2.279 -0.2887 -3.0069  0.5018
 2674TIP3    H2 8029   2.468   3.616   2.206 -0.3901 -0.8619 -1.4540
 2675TIP3   OH2 8030   3.852   1.855   3.575 -0.3717 -0.3934 -0.7293
 2675TIP3    H1 8031   3.807   1.939   3.566  0.9676  0.7962  2.2974
 2675TIP3    H2 8032   3.784   1.790   3.558 -2.3503  1.3169  0.1433
 2676TIP3   OH2 8033   4.692   4.047   2.581  0.2041 -0.2588  0.6718
 2676TIP3    H1 8034   4.636   4.115   2.617  1.5349  2.3735 -1.7926
 2676TIP3    H2 8035   4.768   4.045   2.639  1.3079  2.3148 -0.5374
 2677TIP3   OH2 8036   0.920   5.782   2.104 -0.3136  0.5303  0.0232
 2677TIP3    H1 8037   0.921   5.839   2.027 -1.2006 -0.7833 -1.0132
 2677TIP3    H2 8038   1.012   5.759   2.118 -0.1554  0.6992 -0.7198
 2678TIP3   OH2 8039   5.949   5.126   3.899  0.4653  0.3038  0.6417
 2678TIP3    H1 8040   5.928   5.033   3.896 -0.9470  0.5810 -2.8132
 2678TIP3    H2 8041   5.865   5.170   3.883  1.7212  1.9234 -2.1413
 2679TIP3   OH2 8042   2.715   3.934   1.110 -0.1359  0.4840  0.2778
 2679TIP3    H1 8043   2.679   3.968   1.028  0.5452  0.9525  0.1664
 2679TIP3    H2 8044   2.808   3.956   1.106 -0.0634  0.3319  1.0895
 2680TIP3   OH2 8045   4.621   0.333   0.737 -0.1584  0.0343  0.0883
 2680TIP3    H1 8046   4.574   0.300   0.661 -0.5564 -0.7615  0.6630
 2680TIP3    H2 8047   4.635   0.426   0.718 -1.7440  0.2393 -0.2111
 2681TIP3   OH2 8048   1.282   1.441   2.922  0.1025 -0.1114  0.1907
 2681TIP3    H1 8049   1.277   1.475   3.011 -0.6100 -1.2850  0.6185
 2681TIP3    H2 8050   1.370   1.404   2.916  0.1518 -0.0314  0.4076
 2682TIP3   OH2 8051   5.595   3.941   4.097  0.3577 -0.6487 -0.3218
 2682TIP3    H1 8052   5.644   3.866   4.061 -0.5247 -2.6108  2.2383
 2682TIP3    H2 8053   5.521   3.951   4.038  1.0365 -1.0912 -1.2898
 2683TIP3   OH2 8054   0.069   3.579   4.855  0.3109  0.2078  0.2111
 2683TIP3    H1 8055   0.161   3.593   4.879  0.7262  1.0251 -1.6900
 2683TIP3    H2 8056   0.021   3.642   4.909  0.9238  0.2687  0.7037
 2684TIP3   OH2 8057   6.056   4.285   4.940  0.2588  0.1112 -0.1144
 2684TIP3    H1 8058   5.988   4.299   5.005 -0.0263 -0.9693 -0.1517
 2684TIP3    H2 8059   6.075   4.191   4.944  1.0503  0.2200 -0.7894
 2685TIP3   OH2 8060   4.598   2.224   0.271  0.4923  0.3266 -0.1373
 2685TIP3    H1 8061   4.597   2.133   0.302 -0.7452  0.2234 -0.3901
 2685TIP3    H2 8062   4.584   2.217   0.177 -0.0467  0.7814 -0.0996
 2686TIP3   OH2 8063   2.372   1.198   1.180 -0.5170 -0.1585 -0.1278
 2686TIP3    H1 8064   2.352   1.193   1.086 -0.3127  0.4110 -0.2051
 2686TIP3    H2 8065   2.290   1.225   1.221 -0.2528  0.9672 -0.3064
 2687TIP3   OH2 8066   0.683   2.041   0.184  0.3907  0.1579 -0.3200
 2687TIP3    H1 8067   0.724   2.059   0.269 -1.1831 -2.0496  1.0007
 2687TIP3    H2 8068   0.747   1.987   0.138  0.7340  0.2742  0.0146
 2688TIP3   OH2 8069   0.792   1.106   2.660  0.0182 -0.2916 -0.2903
 2688TIP3    H1 8070   0.785   1.173   2.592  1.7984 -0.0487 -0.2708
 2688TIP3    H2 8071   0.780   1.023   2.614 -1.2948 -0.0230 -0.4624
 2689TIP3   OH2 8072   3.188   0.899   0.677 -0.1802  0.0018 -0.5444
 2689TIP3    H1 8073   3.161   0.987   0.701 -0.2117 -0.5362  1.6117
 2689TIP3    H2 8074   3.217   0.859   0.759 -2.6685 -2.8978 -0.8847
 2690TIP3   OH2 8075   3.977   4.549   3.918  0.2855  0.6151  0.6993
 2690TIP3    H1 8076   3.947   4.592   3.838 -0.3908 -0.9735  0.0595
 2690TIP3    H2 8077   4.072   4.538   3.906  0.0113 -0.6954 -0.4497
 2691TIP3   OH2 8078   3.667   1.690   0.663  0.6868 -0.1059 -0.2915
 2691TIP3    H1 8079   3.618   1.772   0.669  1.2370  0.3283 -1.4109
 2691TIP3    H2 8080   3.686   1.666   0.754  1.7433  1.7588  0.0375
 2692TIP3   OH2 8081   0.427   2.944   3.298  0.2895  0.0335  0.0963
 2692TIP3    H1 8082   0.415   2.853   3.271 -0.5072 -0.3439  1.6091
 2692TIP3    H2 8083   0.522   2.955   3.305  0.3872 -0.6898 -0.0503
 2693TIP3   OH2 8084   3.717   2.787   0.595 -0.3361  0.3460 -0.1842
 2693TIP3    H1 8085   3.770   2.712   0.566  2.1433  1.9230 -0.0690
 2693TIP3    H2 8086   3.734   2.794   0.689 -2.9407 -0.6589  0.4429
 2694TIP3   OH2 8087   3.228   2.675   4.320 -0.3704  0.4289  0.4235
 2694TIP3    H1 8088   3.164   2.716   4.262  0.9611  0.5200 -1.0794
 2694TIP3    H2 8089   3.177   2.634   4.389 -1.9720  1.2063 -0.2646
 2695TIP3   OH2 8090   4.550   0.851   4.318  0.1116 -0.0739  0.4401
 2695TIP3    H1 8091   4.584   0.773   4.274 -1.8339 -0.1391 -1.1070
 2695TIP3    H2 8092   4.598   0.924   4.280 -0.2324 -0.2915 -0.4352
 2696TIP3   OH2 8093   0.343   1.476   2.991  0.2088  0.5163  0.0909
 2696TIP3    H1 8094   0.253   1.500   3.013  0.0034  1.5507 -1.7081
 2696TIP3    H2 8095   0.337   1.433   2.906  1.4304  0.8011 -0.1611
 2697TIP3   OH2 8096   2.681   2.891   4.056 -0.2470 -0.1713 -0.2658
 2697TIP3    H1 8097   2.711   2.909   3.967 -0.0061  1.3802  0.1127
 2697TIP3    H2 8098   2.751   2.837   4.094  0.5191  0.6812 -0.4404
 2698TIP3   OH2 8099   1.634   5.810  -0.006 -0.1199 -0.2977  0.0328
 2698TIP3    H1 8100   1.621   5.730   0.045  1.0719  0.8010  2.2119
 2698TIP3    H2 8101   1.724   5.805  -0.037  0.3317  0.6231  1.1020
 2699TIP3   OH2 8102   1.519   4.077   5.173 -0.4545  0.1800  0.2506
 2699TIP3    H1 8103   1.575   4.005   5.145  0.4244  1.4519 -1.5053
 2699TIP3    H2 8104   1.569   4.156   5.151 -0.2419  1.4405  4.4013
 2700TIP3   OH2 8105   5.836   0.673   2.940 -0.2785 -0.2365 -0.2688
 2700TIP3    H1 8106   5.825   0.737   2.870 -0.6523  0.5227  0.4588
 2700TIP3    H2 8107   5.928   0.648   2.936  0.1099  1.0720  0.0184
 2701TIP3   OH2 8108   4.192   1.590   0.575  0.2205 -0.1510 -0.4688
 2701TIP3    H1 8109   4.148   1.506   0.566  1.5643 -0.9638  0.1915
 2701TIP3    H2 8110   4.238   1.584   0.659 -0.3917  1.6032  0.0413
 2702TIP3   OH2 8111   2.690   2.899   4.726  0.4971 -0.3726 -0.2189
 2702TIP3    H1 8112   2.628   2.872   4.658 -0.3823  1.0827 -0.0505
 2702TIP3    H2 8113   2.635   2.918   4.802  1.1992  0.4412  0.1050
 2703TIP3   OH2 8114   3.575   2.258   2.030 -0.1705  0.0651  0.6061
 2703TIP3    H1 8115   3.571   2.166   2.056 -0.0637 -0.5378 -1.3540
 2703TIP3    H2 8116   3.551   2.306   2.109 -2.4107 -1.7307  1.1329
 2704TIP3   OH2 8117   3.340   4.060   1.399 -0.1910  0.2084 -0.9558
 2704TIP3    H1 8118   3.291   4.100   1.471 -0.3705  0.7369 -1.3646
 2704TIP3    H2 8119   3.432   4.082   1.417 -0.1421 -0.4442 -0.4006
 2705TIP3   OH2 8120   3.693   4.939   1.979 -0.3170  0.0778  0.0306
 2705TIP3    H1 8121   3.788   4.930   1.988 -0.3580 -0.2415  0.1684
 2705TIP3    H2 8122   3.661   4.849   1.974 -0.6620  0.1647  0.5351
 2706TIP3   OH2 8123   4.610   3.770   3.399  0.2761  0.2346  0.1657
 2706TIP3    H1 8124   4.626   3.863   3.417  0.3070  0.1647  0.5067
 2706TIP3    H2 8125   4.573   3.769   3.311  0.8087  0.5192 -0.0644
 2707TIP3   OH2 8126   2.855   0.348   0.117 -0.1113  0.0242  0.1542
 2707TIP3    H1 8127   2.782   0.327   0.175 -0.0953 -0.1274  0.1199
 2707TIP3    H2 8128   2.922   0.384   0.175 -1.1584  2.6083 -0.1482
 2708TIP3   OH2 8129   5.672   0.512   1.621  0.0119  0.3486 -0.1155
 2708TIP3    H1 8130   5.642   0.506   1.530 -0.5709  1.3406  0.0011
 2708TIP3    H2 8131   5.720   0.430   1.635 -1.2536 -0.5635 -0.8282
 2709TIP3   OH2 8132   5.700   1.846   3.530 -0.2569  0.3389  0.0504
 2709TIP3    H1 8133   5.746   1.846   3.614  0.6729  0.8081 -0.4377
 2709TIP3    H2 8134   5.768   1.825   3.465 -0.6608  1.2865 -0.7155
 2710TIP3   OH2 8135   1.972   5.660   2.952 -0.0969 -0.3359  0.7663
 2710TIP3    H1 8136   2.031   5.678   3.025  0.9125 -0.6796  0.0569
 2710TIP3    H2 8137   1.924   5.582   2.979 -0.6325  0.2551  1.5771
 2711TIP3   OH2 8138   4.138   2.079   4.480  0.2443  1.0256  0.8206
 2711TIP3    H1 8139   4.231   2.071   4.457  0.1699  1.4752  0.3641
 2711TIP3    H2 8140   4.119   1.998   4.528  0.4971  0.2476 -0.3474
 2712TIP3   OH2 8141   1.653   2.641   2.849 -0.7254  0.0791  0.3515
 2712TIP3    H1 8142   1.698   2.558   2.837 -1.3772  0.0895 -3.3361
 2712TIP3    H2 8143   1.572   2.618   2.895 -0.5802 -1.2281 -0.0198
 2713TIP3   OH2 8144   3.800  -0.018   5.057  0.4653 -0.5666 -0.2199
 2713TIP3    H1 8145   3.721  -0.044   5.105 -0.1504  0.2534 -0.7563
 2713TIP3    H2 8146   3.777   0.065   5.016  1.1282 -1.0059 -1.5401
 2714TIP3   OH2 8147   5.413   3.545   1.945 -1.1056  0.0421 -0.0245
 2714TIP3    H1 8148   5.432   3.617   2.005 -0.1540 -0.0908 -0.1578
 2714TIP3    H2 8149   5.410   3.585   1.858  1.4791 -0.3468 -0.3691
 2715TIP3   OH2 8150   4.848   4.086   1.749 -0.4342 -0.2061  0.4884
 2715TIP3    H1 8151   4.908   4.068   1.822 -0.1201 -0.6170  0.1333
 2715TIP3    H2 8152   4.840   4.003   1.703  0.1487  0.2754 -0.5166
 2716TIP3   OH2 8153   5.728   1.741   2.871  0.6628 -0.2553  0.2177
 2716TIP3    H1 8154   5.795   1.765   2.807  0.6635 -0.2537  0.2191
 2716TIP3    H2 8155   5.763   1.663   2.914 -0.3630 -1.6251 -1.3474
 2717TIP3   OH2 8156   2.439   2.791   1.494 -0.7697 -0.0084  0.1969
 2717TIP3    H1 8157   2.422   2.829   1.408  0.7943 -0.8145 -0.5132
 2717TIP3    H2 8158   2.370   2.826   1.550 -1.3775  1.1365 -1.2050
 2718TIP3   OH2 8159   3.307   4.440   0.890 -0.1810 -0.0312  0.2912
 2718TIP3    H1 8160   3.267   4.520   0.924 -0.7177 -0.9174  1.8482
 2718TIP3    H2 8161   3.245   4.407   0.826 -0.4805  0.2334  0.4438
 2719TIP3   OH2 8162   3.890   2.980   0.446 -0.9115 -0.2298 -0.2725
 2719TIP3    H1 8163   3.865   2.928   0.370 -1.3808  0.1516 -0.3844
 2719TIP3    H2 8164   3.847   2.936   0.520  0.3256 -1.1604 -0.0826
 2720TIP3   OH2 8165   3.675   1.853   4.333 -0.5184  0.0248 -0.2594
 2720TIP3    H1 8166   3.600   1.797   4.350 -0.2084 -0.1583  0.5629
 2720TIP3    H2 8167   3.714   1.867   4.419  1.4965 -1.4359 -0.8557
 2721TIP3   OH2 8168   1.884   0.837   4.933 -0.3437  0.0690 -0.3040
 2721TIP3    H1 8169   1.845   0.752   4.954  0.4756 -0.6600 -1.5796
 2721TIP3    H2 8170   1.975   0.816   4.909 -0.3157  1.2177 -1.2913
 2722TIP3   OH2 8171   0.611   2.921   1.091  0.4218  0.2819 -0.4920
 2722TIP3    H1 8172   0.623   2.855   1.160  2.0927 -0.3017 -1.2926
 2722TIP3    H2 8173   0.567   2.874   1.020 -0.7908  0.7433 -0.0756
 2723TIP3   OH2 8174   2.832   3.049   1.431  0.2843 -0.4455  0.1809
 2723TIP3    H1 8175   2.788   3.122   1.387 -1.6134 -1.7325 -0.1936
 2723TIP3    H2 8176   2.923   3.076   1.438 -0.4897  2.2817  0.7602
 2724TIP3   OH2 8177   5.732   1.401   1.212 -0.4043  0.4061 -0.3487
 2724TIP3    H1 8178   5.687   1.484   1.226 -0.3724  0.1778  1.2880
 2724TIP3    H2 8179   5.661   1.337   1.203 -0.4275  0.4779 -0.6604
 2725TIP3   OH2 8180   4.752   2.886   3.226 -0.3924  0.0230  0.5813
 2725TIP3    H1 8181   4.793   2.807   3.191 -1.0377 -0.6698  1.3531
 2725TIP3    H2 8182   4.825   2.946   3.243 -0.0481  0.5299 -2.1711
 2726TIP3   OH2 8183   1.930   3.879   1.385 -0.9354 -0.1679  0.1528
 2726TIP3    H1 8184   1.924   3.787   1.358  0.1426 -0.3805  0.5968
 2726TIP3    H2 8185   2.012   3.884   1.433 -1.2139  0.9382  0.5248
 2727TIP3   OH2 8186   6.292   5.369   0.618 -0.2855 -0.1254 -0.2158
 2727TIP3    H1 8187   6.330   5.283   0.636 -1.4396 -1.0068 -1.7178
 2727TIP3    H2 8188   6.280   5.409   0.704  0.9954 -1.1306  0.4648
 2728TIP3   OH2 8189   0.693   3.198   2.167 -0.0555  0.1034  0.7518
 2728TIP3    H1 8190   0.768   3.256   2.182  1.4268 -1.3314 -0.6882
 2728TIP3    H2 8191   0.731   3.110   2.166 -1.5453 -0.5861 -1.1738
 2729TIP3   OH2 8192   5.749   3.760   3.942  0.3136 -0.9421  0.1932
 2729TIP3    H1 8193   5.720   3.669   3.937 -1.7967 -0.2294 -1.4938
 2729TIP3    H2 8194   5.830   3.762   3.890 -0.9630 -1.3973 -1.9019
 2730TIP3   OH2 8195   4.900   3.987   0.983  0.2689 -0.1819  0.0930
 2730TIP3    H1 8196   4.912   4.040   1.061 -0.1005 -0.1395  0.1229
 2730TIP3    H2 8197   4.928   4.043   0.911 -0.1958  0.0881  0.1169
 2731TIP3   OH2 8198   0.374   3.258   4.276 -0.5769 -0.0486 -0.4445
 2731TIP3    H1 8199   0.420   3.228   4.197  0.3789 -0.1468  0.1368
 2731TIP3    H2 8200   0.286   3.281   4.245 -0.1491  0.1223 -1.5848
 2732TIP3   OH2 8201   1.442   2.534   2.959  0.3993 -0.4815 -0.1293
 2732TIP3    H1 8202   1.370   2.590   2.932 -1.8576 -2.8842  0.5561
 2732TIP3    H2 8203   1.448   2.546   3.054  1.9042  0.7380 -0.3357
 2733TIP3   OH2 8204   2.253   5.756   1.380  0.2400 -0.1059  0.4645
 2733TIP3    H1 8205   2.206   5.678   1.411  0.0164 -0.5769 -1.0035
 2733TIP3    H2 8206   2.188   5.805   1.330  1.0091 -0.2132 -0.6770
 2734TIP3   OH2 8207   4.890   4.987   4.914 -0.2263 -0.0884 -0.4739
 2734TIP3    H1 8208   4.832   4.911   4.921 -0.6393  0.3524  3.9526
 2734TIP3    H2 8209   4.864   5.031   4.833 -1.8448 -3.1370 -1.7586
 2735TIP3   OH2 8210   6.337   5.918   1.122 -0.4423 -0.1350  0.2818
 2735TIP3    H1 8211   6.354   5.932   1.029  0.7935 -1.1536  0.3273
 2735TIP3    H2 8212   6.245   5.892   1.126 -1.0679  1.7478 -0.4163
 2736TIP3   OH2 8213   1.426   5.153   4.826 -0.0018 -0.0432  0.0177
 2736TIP3    H1 8214   1.436   5.248   4.830 -0.0234  0.0260 -1.2489
 2736TIP3    H2 8215   1.514   5.118   4.841 -0.2758  0.0774  2.3185
 2737TIP3   OH2 8216   1.492   0.385   4.095 -0.4983  0.3750  0.7422
 2737TIP3    H1 8217   1.423   0.372   4.160 -1.7045  0.0166 -0.5834
 2737TIP3    H2 8218   1.449   0.430   4.022  0.1009 -1.8110 -1.0530
 2738TIP3   OH2 8219   0.561   2.957   0.119  0.0506  0.2371  0.1718
 2738TIP3    H1 8220   0.506   2.910   0.056  1.9538 -0.7237 -0.8859
 2738TIP3    H2 8221   0.516   3.039   0.134 -1.4078 -0.2937 -1.0333
 2739TIP3   OH2 8222   0.647   5.831   4.708 -0.2504 -0.3537  0.1846
 2739TIP3    H1 8223   0.590   5.760   4.679  0.2560 -0.5477 -0.3656
 2739TIP3    H2 8224   0.612   5.909   4.665  0.7046 -0.6937 -1.3071
 2740TIP3   OH2 8225   0.756   1.289   1.919 -0.1255 -0.1166  0.2905
 2740TIP3    H1 8226   0.683   1.254   1.868  0.9278 -0.2762 -1.1588
 2740TIP3    H2 8227   0.715   1.327   1.996 -1.6489 -1.0440 -0.0292
 2741TIP3   OH2 8228   0.471   2.664   0.430  0.3771  0.3276 -0.0431
 2741TIP3    H1 8229   0.525   2.595   0.469  0.1048  0.0620 -0.1315
 2741TIP3    H2 8230   0.416   2.619   0.366 -0.8411  0.3743  0.9242
 2742TIP3   OH2 8231   2.650   4.039   1.394  0.1887  0.5371  0.0014
 2742TIP3    H1 8232   2.648   4.007   1.303 -0.6887  0.2276  0.1149
 2742TIP3    H2 8233   2.710   3.979   1.439  0.4023  0.5161 -0.3084
 2743TIP3   OH2 8234   1.854   5.110   1.715 -0.0298 -0.5370 -0.0878
 2743TIP3    H1 8235   1.948   5.094   1.708  0.0667 -0.3160  0.6831
 2743TIP3    H2 8236   1.821   5.093   1.627  1.0392  1.5309 -0.9558
 2744TIP3   OH2 8237   0.708   1.732   0.493 -0.2374  0.3049 -0.3311
 2744TIP3    H1 8238   0.644   1.794   0.457  0.6700  0.8976 -0.9579
 2744TIP3    H2 8239   0.655   1.658   0.524 -1.4487  1.8349  1.4336
 2745TIP3   OH2 8240   1.692   0.198   1.532 -0.3569  0.4318  0.6150
 2745TIP3    H1 8241   1.623   0.263   1.526 -0.9634 -0.2582 -0.0483
 2745TIP3    H2 8242   1.656   0.130   1.588 -0.6507 -0.4418 -0.5992
 2746TIP3   OH2 8243   4.411   2.890   2.995 -0.1249 -0.2062  0.0561
 2746TIP3    H1 8244   4.374   2.948   3.063 -1.0114  0.5105 -1.0025
 2746TIP3    H2 8245   4.336   2.839   2.964 -0.1258  0.7559 -1.6269
 2747TIP3   OH2 8246   3.292   1.706   0.908 -0.1678 -0.0044  0.3394
 2747TIP3    H1 8247   3.206   1.708   0.951 -0.8617 -0.8887 -0.9520
 2747TIP3    H2 8248   3.345   1.650   0.964  0.1151  1.8756  2.0563
 2748TIP3   OH2 8249   1.718   3.590   0.673 -0.2326 -0.0050 -0.5571
 2748TIP3    H1 8250   1.698   3.683   0.662  0.5088  0.2002 -0.2574
 2748TIP3    H2 8251   1.743   3.560   0.586 -0.3701  0.1010 -0.6334
 2749TIP3   OH2 8252   2.924   3.753   0.921 -0.2078 -0.6561  0.2492
 2749TIP3    H1 8253   2.830   3.736   0.929  0.0701 -2.0738  0.7051
 2749TIP3    H2 8254   2.966   3.684   0.972  1.2131 -2.1600 -2.7127
 2750TIP3   OH2 8255   5.396   3.631   1.701 -0.3644 -0.7269 -0.0230
 2750TIP3    H1 8256   5.309   3.670   1.709 -1.4064 -2.4171 -2.1655
 2750TIP3    H2 8257   5.437   3.677   1.628 -0.2665 -1.2903 -0.3307
 2751TIP3   OH2 8258   5.221   1.984   3.620 -0.4423 -0.1189  0.5954
 2751TIP3    H1 8259   5.237   2.020   3.533 -0.9280 -0.9556  0.1437
 2751TIP3    H2 8260   5.176   1.901   3.603  1.5216 -1.4493  1.5493
 2752TIP3   OH2 8261   4.857   0.255   3.379 -0.2123 -0.1548 -0.0667
 2752TIP3    H1 8262   4.883   0.172   3.340 -0.7968  0.6346 -2.2700
 2752TIP3    H2 8263   4.814   0.231   3.461  3.3481 -1.7512  1.5573
 2753TIP3   OH2 8264   1.316   3.567   2.993 -0.2911 -0.3512  0.0827
 2753TIP3    H1 8265   1.244   3.505   2.998  0.6110 -1.3285  1.7746
 2753TIP3    H2 8266   1.376   3.540   3.062 -0.1446  2.7983  1.3694
 2754TIP3   OH2 8267   1.386   1.307   0.397 -0.0273  0.2492 -0.3510
 2754TIP3    H1 8268   1.451   1.309   0.326 -0.0451  1.6653 -0.3614
 2754TIP3    H2 8269   1.362   1.215   0.405  0.8805 -0.0985 -1.3614
 2755TIP3   OH2 8270   0.144   0.477   1.452  0.2597 -0.9307  0.1786
 2755TIP3    H1 8271   0.213   0.449   1.510  1.7174  0.1493 -0.9530
 2755TIP3    H2 8272   0.134   0.571   1.469 -0.2807 -0.8879 -0.3072
 2756TIP3   OH2 8273   5.362   2.684   2.632 -0.1788  0.2706  0.6420
 2756TIP3    H1 8274   5.288   2.721   2.583 -0.2979 -0.1965  0.4678
 2756TIP3    H2 8275   5.386   2.605   2.584  2.3477  1.8973 -1.0751
 2757TIP3   OH2 8276   2.205   2.990   2.047 -0.3236  0.2789  0.0676
 2757TIP3    H1 8277   2.217   2.943   2.130  0.7762 -0.7910 -0.6549
 2757TIP3    H2 8278   2.263   2.945   1.986  0.7817  2.5742 -0.6993
 2758TIP3   OH2 8279   3.439   1.633   4.601 -0.1244  0.3051  0.2596
 2758TIP3    H1 8280   3.494   1.693   4.651  3.0969 -1.8425 -0.3995
 2758TIP3    H2 8281   3.405   1.687   4.529 -0.6727  2.2135  1.8696
 2759TIP3   OH2 8282   2.675   2.398   1.565  0.3950  0.4469 -0.2004
 2759TIP3    H1 8283   2.701   2.475   1.513 -0.7677  0.7320 -0.3797
 2759TIP3    H2 8284   2.588   2.420   1.598  0.2919 -0.5666  0.2228
 2760TIP3   OH2 8285   3.955   1.659   3.128  0.4092 -0.1382  0.1063
 2760TIP3    H1 8286   4.009   1.586   3.098  0.3023 -0.3267  0.3701
 2760TIP3    H2 8287   3.992   1.682   3.214  1.7111  1.4043 -0.8184
 2761TIP3   OH2 8288   3.777   5.650   3.296 -1.0162  0.7734 -0.2873
 2761TIP3    H1 8289   3.762   5.555   3.293 -0.8669  0.7659 -1.1210
 2761TIP3    H2 8290   3.829   5.663   3.375 -0.4600  0.0740 -0.5257
 2762TIP3   OH2 8291   5.868   2.426   2.343 -0.5167  0.2898  0.1945
 2762TIP3    H1 8292   5.788   2.386   2.310  0.1900  0.3110 -1.7235
 2762TIP3    H2 8293   5.874   2.509   2.295  1.3295 -0.3573 -0.8130
 2763TIP3   OH2 8294   1.573   4.632   2.681  0.7029 -0.1952  0.0013
 2763TIP3    H1 8295   1.662   4.624   2.648  0.9345 -0.4955  0.6854
 2763TIP3    H2 8296   1.583   4.671   2.768  0.2039 -0.7179  0.2951
 2764TIP3   OH2 8297   0.765   3.351   3.708  0.2975  0.9923 -0.4244
 2764TIP3    H1 8298   0.700   3.410   3.668 -0.5393  0.4412  0.0900
 2764TIP3    H2 8299   0.770   3.380   3.799  0.9613  1.1817 -0.5158
 2765TIP3   OH2 8300   5.655   5.676   3.357  0.1782 -0.2580  0.5780
 2765TIP3    H1 8301   5.739   5.718   3.342  0.4729 -0.1492  2.3176
 2765TIP3    H2 8302   5.604   5.740   3.407 -0.4035 -0.8716  0.7953
 2766TIP3   OH2 8303   1.521   0.040   0.560  0.8077 -0.0067 -0.0595
 2766TIP3    H1 8304   1.547   0.110   0.501  0.2110  0.2659 -0.0074
 2766TIP3    H2 8305   1.498   0.084   0.642 -1.4631 -0.0094 -0.6113
 2767TIP3   OH2 8306   6.155   1.530   4.464 -0.4478  0.1162  0.3133
 2767TIP3    H1 8307   6.248   1.523   4.487 -0.5718 -1.1175  0.5289
 2767TIP3    H2 8308   6.111   1.548   4.546 -0.3856  0.9125  0.1767
 2768TIP3   OH2 8309   1.848   1.428   0.773 -0.3485 -0.5744 -0.0952
 2768TIP3    H1 8310   1.909   1.355   0.761  0.6848  0.4612 -1.3988
 2768TIP3    H2 8311   1.866   1.487   0.700 -2.7663 -0.1107 -0.4087
 2769TIP3   OH2 8312   3.312   3.393   1.382  0.1835 -0.5990  0.0405
 2769TIP3    H1 8313   3.217   3.400   1.379  0.1643  0.6949  1.8856
 2769TIP3    H2 8314   3.339   3.393   1.290 -1.5774 -1.2685 -0.5279
 2770TIP3   OH2 8315   0.170   3.108   4.708 -0.5929  0.1942  0.7053
 2770TIP3    H1 8316   0.131   3.046   4.646  0.8505  0.2006 -0.2652
 2770TIP3    H2 8317   0.096   3.156   4.744 -1.5648 -0.6123 -0.1584
 2771TIP3   OH2 8318   2.867   1.000   3.562 -0.4678 -0.2482 -0.1386
 2771TIP3    H1 8319   2.801   0.933   3.580  0.1767 -0.8047  0.2342
 2771TIP3    H2 8320   2.950   0.958   3.588 -0.0656  0.7281  0.1898
 2772TIP3   OH2 8321   5.975   0.019   3.581 -0.0291  0.0085 -0.0293
 2772TIP3    H1 8322   6.063   0.029   3.618 -0.3514  2.5134  0.2477
 2772TIP3    H2 8323   5.990  -0.024   3.497  1.6771  1.7501 -0.6986
 2773TIP3   OH2 8324   3.574   3.616   1.392  0.2861  0.2041  0.1197
 2773TIP3    H1 8325   3.536   3.539   1.434  1.6648 -0.1991  0.7127
 2773TIP3    H2 8326   3.503   3.654   1.342 -0.6658 -0.9446  0.5484
 2774TIP3   OH2 8327   1.845   3.396   1.253  0.0370  0.3273 -0.6719
 2774TIP3    H1 8328   1.761   3.390   1.208 -0.3281 -1.3408  0.1382
 2774TIP3    H2 8329   1.850   3.315   1.304  1.5460  1.0017  0.3182
 2775TIP3   OH2 8330   3.104   1.512   3.040 -0.1205 -0.0855  0.0125
 2775TIP3    H1 8331   3.024   1.463   3.059 -0.2767  0.6716  1.3706
 2775TIP3    H2 8332   3.101   1.588   3.098 -0.2546  2.0128 -2.5436
 2776TIP3   OH2 8333   2.381  -0.002   1.856 -0.1454  0.6325  0.2104
 2776TIP3    H1 8334   2.330   0.079   1.864  1.1152  1.5788 -0.9441
 2776TIP3    H2 8335   2.365  -0.048   1.938 -3.2195  0.6343 -0.2532
 2777TIP3   OH2 8336   6.205   3.539   4.026 -0.3229  0.2822  0.3797
 2777TIP3    H1 8337   6.184   3.616   3.972 -1.3646 -0.0238  0.3254
 2777TIP3    H2 8338   6.218   3.574   4.114  1.0339  0.7404  0.0309
 2778TIP3   OH2 8339   4.952   2.743   0.495 -0.2518 -0.8720  0.2715
 2778TIP3    H1 8340   4.879   2.736   0.557 -0.0567  2.6473  1.0674
 2778TIP3    H2 8341   4.942   2.829   0.455  1.4683 -1.7555 -2.3197
 2779TIP3   OH2 8342   4.610   3.998   2.288 -0.6378  0.0221  0.0189
 2779TIP3    H1 8343   4.662   4.058   2.233 -1.2114  0.7843  0.2835
 2779TIP3    H2 8344   4.662   3.988   2.368  0.0535 -0.8449 -0.5244
 2780TIP3   OH2 8345   2.169   0.904   3.079 -0.4758  0.6867  0.2005
 2780TIP3    H1 8346   2.181   0.845   3.004  1.1126  0.7557  0.3788
 2780TIP3    H2 8347   2.253   0.947   3.090 -1.6228  3.1741 -0.0391
 2781TIP3   OH2 8348   4.092   2.396   1.492 -0.3847 -0.2597  0.2343
 2781TIP3    H1 8349   4.114   2.424   1.581  0.1688 -0.5433  0.1902
 2781TIP3    H2 8350   4.159   2.331   1.470 -1.5516 -1.5406  0.2821
 2782TIP3   OH2 8351   4.705   2.375   4.526 -0.4768  0.2168  0.3841
 2782TIP3    H1 8352   4.695   2.361   4.432  1.5945 -0.8142  0.2563
 2782TIP3    H2 8353   4.749   2.296   4.558 -3.3428 -0.6174  2.7172
 2783TIP3   OH2 8354   1.922   0.895   1.196  0.3695 -0.6227 -0.0588
 2783TIP3    H1 8355   1.960   0.825   1.248  1.0030 -0.0536  0.2627
 2783TIP3    H2 8356   1.936   0.974   1.249 -0.7858 -0.3225 -0.1740
 2784TIP3   OH2 8357   5.172   1.861   2.502 -0.0622  0.0944 -0.3875
 2784TIP3    H1 8358   5.204   1.830   2.418 -0.3996  0.4793 -0.6656
 2784TIP3    H2 8359   5.215   1.806   2.567 -0.8535 -1.1284 -0.8725
 2785TIP3   OH2 8360   4.510   5.451   2.221 -0.0334  0.0099 -0.4099
 2785TIP3    H1 8361   4.454   5.479   2.148  2.1550 -1.5783 -2.8511
 2785TIP3    H2 8362   4.497   5.356   2.226  0.7255 -0.0584  0.5068
 2786TIP3   OH2 8363   4.115   2.526   1.014 -0.4813 -0.2320 -0.3017
 2786TIP3    H1 8364   4.097   2.434   0.996  1.0690 -0.3874 -1.3011
 2786TIP3    H2 8365   4.046   2.574   0.969 -1.3937 -0.8991  0.3598
 2787TIP3   OH2 8366   2.050   5.731   3.345 -0.2581  0.6580  0.1200
 2787TIP3    H1 8367   1.985   5.686   3.399 -0.2004  0.1456 -0.2337
 2787TIP3    H2 8368   2.047   5.822   3.376 -0.7387  0.5248  0.4908
 2788TIP3   OH2 8369   2.315   1.681   0.912 -0.1028 -0.4388  0.1554
 2788TIP3    H1 8370   2.228   1.715   0.933 -1.0715 -0.6946 -2.9335
 2788TIP3    H2 8371   2.372   1.758   0.916 -0.4603 -0.2111  1.9036
 2789TIP3   OH2 8372   6.211   4.947   0.152 -1.1197 -0.0815 -0.4810
 2789TIP3    H1 8373   6.199   4.924   0.244  1.0801  2.0947  0.4486
 2789TIP3    H2 8374   6.122   4.946   0.115 -2.0409 -1.0514  1.6058
 2790TIP3   OH2 8375   4.423   2.540   4.647 -0.2885 -0.1029  0.5659
 2790TIP3    H1 8376   4.462   2.618   4.687 -0.1660  0.2299 -0.1807
 2790TIP3    H2 8377   4.498   2.489   4.616 -0.3888 -0.2626  0.5872
 2791TIP3   OH2 8378   0.901   3.091   1.702  0.3999 -0.1891  0.4103
 2791TIP3    H1 8379   0.938   3.065   1.787  0.1426  0.1846  0.6372
 2791TIP3    H2 8380   0.868   3.179   1.716  0.3583 -0.1233 -0.0839
 2792TIP3   OH2 8381   0.514   1.334   1.141 -0.2957  0.4739  0.0778
 2792TIP3    H1 8382   0.599   1.302   1.171 -0.6914 -3.0162 -2.0424
 2792TIP3    H2 8383   0.533   1.418   1.099  2.2737 -0.5768 -1.0433
 2793TIP3   OH2 8384   0.511   4.041   1.379  0.2445 -0.4170 -0.3540
 2793TIP3    H1 8385   0.458   3.964   1.358 -0.1519 -0.0096 -0.8721
 2793TIP3    H2 8386   0.600   4.007   1.389  0.0694 -0.9443 -0.5565
 2794TIP3   OH2 8387   0.880   1.888   3.007 -0.2072  0.2476 -0.1859
 2794TIP3    H1 8388   0.861   1.795   3.010 -3.1095  0.7412 -0.5380
 2794TIP3    H2 8389   0.860   1.920   3.095  1.1126  0.5207  0.0369
 2795TIP3   OH2 8390   0.239   1.681   3.535  0.1407 -0.2430 -0.0213
 2795TIP3    H1 8391   0.208   1.769   3.513  0.2596 -0.3771 -0.7763
 2795TIP3    H2 8392   0.287   1.691   3.617  1.7171  0.7307 -1.0173
 2796TIP3   OH2 8393   1.752   5.266   0.163 -0.1588 -0.2814 -0.3313
 2796TIP3    H1 8394   1.668   5.219   0.160 -0.0179 -0.4891 -2.0316
 2796TIP3    H2 8395   1.740   5.341   0.106  0.3767  0.4759  0.5301
 2797TIP3   OH2 8396   3.812   4.857   0.605  0.5832  0.4309  0.6980
 2797TIP3    H1 8397   3.830   4.837   0.513  0.4843 -2.6729  1.2370
 2797TIP3    H2 8398   3.898   4.859   0.647  0.5383  0.2219  0.8016
 2798TIP3   OH2 8399   0.113   2.113   1.828 -0.4834  0.2266  0.4049
 2798TIP3    H1 8400   0.166   2.038   1.799 -0.9651 -0.4701  1.2932
 2798TIP3    H2 8401   0.120   2.113   1.923 -0.4542  1.3510  0.4156
 2799TIP3   OH2 8402   5.759   4.289   4.530  0.2328 -0.5351  0.7582
 2799TIP3    H1 8403   5.679   4.252   4.493 -0.4706 -0.3231  2.0251
 2799TIP3    H2 8404   5.804   4.215   4.571  0.7982 -0.6896 -0.1124
 2800TIP3   OH2 8405   5.751   1.922   0.430  0.3142 -0.1734  0.8142
 2800TIP3    H1 8406   5.816   1.970   0.380  0.4874 -0.3432  0.8755
 2800TIP3    H2 8407   5.689   1.989   0.460  0.5179  0.0006  0.8448
 2801TIP3   OH2 8408   1.854   0.702   4.670  0.4137 -1.1423  0.3764
 2801TIP3    H1 8409   1.840   0.775   4.731 -1.5052 -1.8566  0.8719
 2801TIP3    H2 8410   1.765   0.677   4.642  1.0742 -2.7881 -0.3783
 2802TIP3   OH2 8411   4.287   2.569   4.351 -0.6367  0.3152  0.1155
 2802TIP3    H1 8412   4.295   2.520   4.432  1.9683  2.4536  1.2946
 2802TIP3    H2 8413   4.362   2.629   4.351 -0.1654  0.0392 -4.1474
 2803TIP3   OH2 8414   4.791   5.288   1.932 -0.3781 -0.0441 -0.0787
 2803TIP3    H1 8415   4.804   5.341   2.010  0.4577  0.9514 -0.8595
 2803TIP3    H2 8416   4.696   5.284   1.920 -0.4521  1.8955 -0.3937
 2804TIP3   OH2 8417   5.406   5.906   1.783  0.3501 -0.5532  0.1355
 2804TIP3    H1 8418   5.446   5.834   1.832 -1.7018 -1.9527 -0.1267
 2804TIP3    H2 8419   5.407   5.875   1.692  0.3994  0.2282 -0.1342
 2805TIP3   OH2 8420   3.483   5.745   3.198 -0.0166  0.4597 -0.4629
 2805TIP3    H1 8421   3.473   5.802   3.122  0.5135  2.1641  0.6886
 2805TIP3    H2 8422   3.565   5.697   3.182  0.0525  0.7588 -1.0008
 2806TIP3   OH2 8423   3.598   2.190   0.542  0.8946 -0.5583  0.1537
 2806TIP3    H1 8424   3.649   2.272   0.542  0.4827 -0.2963  0.3655
 2806TIP3    H2 8425   3.517   2.213   0.496  0.7002 -0.7968  0.3769
 2807TIP3   OH2 8426   1.022   3.435   0.858  0.6571  0.2756  0.3614
 2807TIP3    H1 8427   0.958   3.424   0.788 -0.8339 -1.0167  1.8513
 2807TIP3    H2 8428   1.001   3.368   0.922  3.3085  0.0240  1.1190
 2808TIP3   OH2 8429   0.399   4.769   4.063  0.9084 -0.0330  0.3806
 2808TIP3    H1 8430   0.338   4.696   4.050  1.8665 -1.0475  1.4001
 2808TIP3    H2 8431   0.467   4.734   4.121  1.2895  1.7378  1.0652
 2809TIP3   OH2 8432   1.770   5.872   1.861  0.3828  0.2714  0.4837
 2809TIP3    H1 8433   1.813   5.957   1.851  0.5086  0.4198  2.0010
 2809TIP3    H2 8434   1.827   5.810   1.817  0.4372  0.9310 -0.3910
 2810TIP3   OH2 8435   3.328   0.719   0.090  0.5514 -0.2409 -0.1894
 2810TIP3    H1 8436   3.417   0.684   0.080  0.3361 -0.8738  0.0759
 2810TIP3    H2 8437   3.273   0.660   0.039  0.0719 -0.8051  0.9476
 2811TIP3   OH2 8438   4.689   3.746   5.077 -0.4815 -0.2506  0.3271
 2811TIP3    H1 8439   4.626   3.772   5.009  0.1462 -0.0316 -0.1730
 2811TIP3    H2 8440   4.676   3.651   5.086 -1.8661 -0.0051  1.2369
 2812TIP3   OH2 8441   1.192   4.301   4.047  0.7400  0.5924 -0.2915
 2812TIP3    H1 8442   1.128   4.360   4.007  0.4255  2.1138  2.2187
 2812TIP3    H2 8443   1.144   4.220   4.064 -0.7999  1.8953  2.0463
 2813TIP3   OH2 8444   2.882   5.507   4.917  0.1027 -0.0307  0.3379
 2813TIP3    H1 8445   2.964   5.493   4.964  0.5216 -0.3039 -0.4472
 2813TIP3    H2 8446   2.849   5.420   4.898 -1.0646  0.0614  1.7777
 2814TIP3   OH2 8447   4.034   1.132   3.519  0.3900 -0.0914 -0.1780
 2814TIP3    H1 8448   4.108   1.166   3.571  0.1135 -1.3352  1.1145
 2814TIP3    H2 8449   4.032   1.039   3.541  0.3443 -0.7197 -2.6065
 2815TIP3   OH2 8450   4.944   3.499   3.039  0.6460 -0.7734 -0.1365
 2815TIP3    H1 8451   4.973   3.412   3.014  0.6335 -1.0819  0.8858
 2815TIP3    H2 8452   4.848   3.494   3.040  0.6560 -0.8621  0.3231
 2816TIP3   OH2 8453   1.142   4.253   0.939  0.4895 -0.2341  0.0334
 2816TIP3    H1 8454   1.112   4.248   0.848  0.2182  2.1949 -0.0722
 2816TIP3    H2 8455   1.237   4.243   0.933  0.3692 -1.3424 -0.3496
 2817TIP3   OH2 8456   2.689   1.584   1.869 -0.0421  0.1439  0.1997
 2817TIP3    H1 8457   2.675   1.664   1.819  0.8246 -0.4867 -1.0865
 2817TIP3    H2 8458   2.628   1.592   1.943 -1.3468  1.1179 -0.9154
 2818TIP3   OH2 8459   0.105   5.062   4.451 -0.1292 -0.2479  0.0793
 2818TIP3    H1 8460   0.129   5.023   4.367 -0.1809 -0.1218  0.0068
 2818TIP3    H2 8461   0.157   5.012   4.516 -2.0252 -2.1421  0.2606
 2819TIP3   OH2 8462   2.567   0.016   4.622 -0.0224  0.6841 -0.8448
 2819TIP3    H1 8463   2.495  -0.047   4.613 -1.4029  2.3592 -2.2035
 2819TIP3    H2 8464   2.589   0.040   4.533 -0.9807  3.6211 -0.3928
 2820TIP3   OH2 8465   0.528   4.344   0.984  0.5938  0.1856  0.7926
 2820TIP3    H1 8466   0.585   4.292   1.043  1.2794  1.2111  1.0572
 2820TIP3    H2 8467   0.474   4.396   1.043 -0.4728 -0.5938  0.5335
 2821TIP3   OH2 8468   4.596   2.007   2.974  0.1834  0.2320  0.7018
 2821TIP3    H1 8469   4.537   2.044   3.040 -0.2276  0.5002  0.1877
 2821TIP3    H2 8470   4.572   2.051   2.893  1.3580  0.6288  0.5565
 2822TIP3   OH2 8471   5.662   1.745   4.002  0.1168 -0.7599  0.7919
 2822TIP3    H1 8472   5.663   1.767   4.095  0.1203  1.2347  0.3779
 2822TIP3    H2 8473   5.747   1.776   3.969  0.5322 -2.3389  0.2885
 2823TIP3   OH2 8474   3.659   1.167   5.182  0.4159  0.2219 -0.3690
 2823TIP3    H1 8475   3.667   1.083   5.138  1.8021  1.5518 -2.8832
 2823TIP3    H2 8476   3.582   1.208   5.141 -0.4066  0.1436  1.0142
 2824TIP3   OH2 8477   5.490   5.610   1.536  0.4410  0.4391  0.1667
 2824TIP3    H1 8478   5.579   5.578   1.550  0.5726  0.8499  0.2970
 2824TIP3    H2 8479   5.485   5.623   1.441  0.9735  1.6667  0.2838
 2825TIP3   OH2 8480   4.806   2.091   2.717 -0.1223 -0.5420  0.2260
 2825TIP3    H1 8481   4.899   2.112   2.711 -0.4647  1.2450  0.5915
 2825TIP3    H2 8482   4.803   1.995   2.724  1.5105 -0.9642 -2.8915
 2826TIP3   OH2 8483   4.825   4.220   2.930  0.2183  0.1903  0.6097
 2826TIP3    H1 8484   4.867   4.161   2.867 -0.2539 -0.8240  1.2256
 2826TIP3    H2 8485   4.894   4.282   2.954  1.4923 -1.5515  1.7345
 2827TIP3   OH2 8486   3.581   3.826   4.093  0.6102 -0.2358  0.2113
 2827TIP3    H1 8487   3.558   3.838   4.185 -0.0746 -1.0020  0.1542
 2827TIP3    H2 8488   3.569   3.912   4.054 -0.3681 -0.1953  0.5803
 2828TIP3   OH2 8489   4.463   2.085   5.103 -0.0491  0.3561 -0.1450
 2828TIP3    H1 8490   4.550   2.112   5.132  0.2315  0.5857 -1.1370
 2828TIP3    H2 8491   4.462   2.107   5.010 -1.3399  0.7929 -0.0433
 2829TIP3   OH2 8492   1.666   2.219   2.999 -0.1552 -0.4023 -0.4498
 2829TIP3    H1 8493   1.733   2.161   3.035 -0.0566  0.8030  1.4682
 2829TIP3    H2 8494   1.586   2.198   3.049 -0.4137  0.2492 -0.5799
 2830TIP3   OH2 8495   0.423   0.120   1.377 -0.5320 -0.5024  0.6827
 2830TIP3    H1 8496   0.406   0.146   1.467 -0.8043 -0.8119  0.7218
 2830TIP3    H2 8497   0.511   0.155   1.358 -1.5312  1.9139  0.1730
 2831TIP3   OH2 8498   5.180   0.701   2.494 -0.0155 -0.1744 -0.1758
 2831TIP3    H1 8499   5.172   0.618   2.540  1.1972 -0.0914  0.2274
 2831TIP3    H2 8500   5.238   0.753   2.549 -1.5727  1.3521  0.1281
 2832TIP3   OH2 8501   5.658   4.703   4.096 -0.2350 -0.2902 -0.1101
 2832TIP3    H1 8502   5.658   4.707   4.192  0.7140  0.0679 -0.1162
 2832TIP3    H2 8503   5.682   4.612   4.076 -0.2395 -0.3144 -0.0059
 2833TIP3   OH2 8504   5.927   0.071   2.005 -0.4011  0.1545 -0.0915
 2833TIP3    H1 8505   5.843   0.026   2.001 -0.2584 -0.1219 -0.0778
 2833TIP3    H2 8506   5.978   0.019   2.068 -0.6439  1.0465  0.8615
 2834TIP3   OH2 8507   0.226   5.232   2.310  0.5011  0.4554  0.1475
 2834TIP3    H1 8508   0.320   5.241   2.323  0.4453  0.4673  0.5741
 2834TIP3    H2 8509   0.190   5.224   2.399  0.0267  1.1788  0.0347
 2835TIP3   OH2 8510   1.963   3.606   1.371 -0.7466  0.6335 -0.6068
 2835TIP3    H1 8511   1.922   3.529   1.331 -0.3962  0.1376 -0.0179
 2835TIP3    H2 8512   2.048   3.576   1.401 -1.7379  0.4425  2.3031
 2836TIP3   OH2 8513   5.534   2.923   2.111 -0.1574 -0.1594  0.6765
 2836TIP3    H1 8514   5.511   3.013   2.133  1.4491  0.1706  1.1786
 2836TIP3    H2 8515   5.471   2.869   2.158 -2.8807  0.6576 -1.7349
 2837TIP3   OH2 8516   0.161   5.225   1.398  0.1505 -0.4338  0.2725
 2837TIP3    H1 8517   0.144   5.189   1.485  1.1509 -0.6992  0.3695
 2837TIP3    H2 8518   0.133   5.317   1.404 -1.2153 -0.8401  0.4046
 2838TIP3   OH2 8519   1.241   2.108   3.393  0.2598 -0.3673  0.3109
 2838TIP3    H1 8520   1.248   2.033   3.452 -0.8797 -0.6562  0.1004
 2838TIP3    H2 8521   1.158   2.149   3.417  0.0366 -0.1802 -0.7399
 2839TIP3   OH2 8522   2.127   4.504   1.444 -0.5328  0.2554  0.2140
 2839TIP3    H1 8523   2.114   4.501   1.538 -0.8732 -2.3164  0.1648
 2839TIP3    H2 8524   2.038   4.498   1.408 -0.3558  0.4121 -0.2573
 2840TIP3   OH2 8525   6.337   4.113   0.745  0.4311 -0.0142  0.0316
 2840TIP3    H1 8526   6.296   4.178   0.802 -0.0333 -1.0336  0.8964
 2840TIP3    H2 8527   6.279   4.107   0.669  0.2134  0.2187  0.1807
 2841TIP3   OH2 8528   2.072   0.715   2.028  0.0490 -0.3458  0.2690
 2841TIP3    H1 8529   2.129   0.653   1.983 -0.7925 -2.1105  1.4731
 2841TIP3    H2 8530   2.073   0.686   2.120 -2.2819 -0.1353  0.4434
 2842TIP3   OH2 8531   2.588   1.458   4.695  0.0220  0.1074  0.5016
 2842TIP3    H1 8532   2.636   1.526   4.742 -2.4519  1.1912  1.6308
 2842TIP3    H2 8533   2.587   1.383   4.755 -0.4423  0.3980  0.8625
 2843TIP3   OH2 8534   0.187   2.976   4.009 -0.3320  0.0578  0.4950
 2843TIP3    H1 8535   0.227   3.061   3.993 -0.2389 -0.1010 -0.1345
 2843TIP3    H2 8536   0.221   2.920   3.939  1.5892 -1.1701  2.2994
 2844TIP3   OH2 8537   0.453   4.126   2.488  0.2793 -0.1354  0.3279
 2844TIP3    H1 8538   0.361   4.126   2.462  1.0675  0.8351 -2.8942
 2844TIP3    H2 8539   0.456   4.183   2.565 -1.4094  2.6592 -1.5135
 2845TIP3   OH2 8540   4.162   4.403   2.370  0.3412 -0.1946  0.3020
 2845TIP3    H1 8541   4.161   4.325   2.426 -0.1451 -0.3759  0.0447
 2845TIP3    H2 8542   4.081   4.398   2.320 -0.5998  1.3857  1.5397
 2846TIP3   OH2 8543   0.771   2.518   4.596  0.1822 -0.8970  0.0392
 2846TIP3    H1 8544   0.713   2.553   4.529 -0.3185 -2.8934 -0.6316
 2846TIP3    H2 8545   0.859   2.533   4.561  0.0681  0.8845  0.4241
 2847TIP3   OH2 8546   5.335   3.628   0.256 -0.1606 -1.1334  0.5221
 2847TIP3    H1 8547   5.317   3.677   0.336  0.0873  0.4076 -0.3074
 2847TIP3    H2 8548   5.320   3.537   0.279  0.3944 -0.7856  2.4510
 2848TIP3   OH2 8549   2.944   2.180   3.978 -0.5059  0.1447 -0.1356
 2848TIP3    H1 8550   3.025   2.148   4.018 -0.9457 -1.8164 -0.6727
 2848TIP3    H2 8551   2.882   2.189   4.051 -0.8214 -1.8268 -0.1028
 2849TIP3   OH2 8552   4.297   5.540   2.886 -0.3887 -0.2267 -0.5201
 2849TIP3    H1 8553   4.222   5.512   2.833 -0.5822 -3.7282  1.2971
 2849TIP3    H2 8554   4.260   5.604   2.947 -1.6702 -0.9846 -0.4599
 2850TIP3   OH2 8555   5.772   5.362   2.480  0.3319 -0.2830  0.2604
 2850TIP3    H1 8556   5.762   5.280   2.432  1.5709 -1.7375  2.3311
 2850TIP3    H2 8557   5.732   5.344   2.566  1.2061  1.0448  0.9774
 2851TIP3   OH2 8558   0.855   5.453   1.371 -0.4704  0.5189  0.2578
 2851TIP3    H1 8559   0.906   5.390   1.423 -1.7189 -0.4206  0.3776
 2851TIP3    H2 8560   0.906   5.464   1.291 -0.2901 -0.7451  0.1809
 2852TIP3   OH2 8561   4.276   1.724   3.726 -0.2162  0.2756 -0.5919
 2852TIP3    H1 8562   4.198   1.778   3.738  0.3635  0.8409  0.7169
 2852TIP3    H2 8563   4.339   1.782   3.683 -0.3324 -0.0423 -1.2145
 2853TIP3   OH2 8564   6.148   1.624   3.279 -0.0140 -0.2554  0.2893
 2853TIP3    H1 8565   6.167   1.653   3.190 -1.7316 -1.0518 -0.3964
 2853TIP3    H2 8566   6.188   1.690   3.336  1.9762 -0.2608 -1.0236
 2854TIP3   OH2 8567   3.856   0.170   0.279  0.4373  0.3489 -0.3404
 2854TIP3    H1 8568   3.814   0.244   0.323 -1.5714 -0.6467 -0.5173
 2854TIP3    H2 8569   3.793   0.141   0.214  1.5791 -0.9682 -0.9138
 2855TIP3   OH2 8570   4.068   4.549   2.076 -0.1212 -0.0465 -0.1560
 2855TIP3    H1 8571   4.130   4.542   2.149  0.6134  0.3338 -0.7339
 2855TIP3    H2 8572   3.988   4.583   2.117  0.9038  2.1794  0.1801
 2856TIP3   OH2 8573   1.174   5.365   3.612  0.1789 -0.6886  0.0857
 2856TIP3    H1 8574   1.270   5.368   3.607  0.1424  2.8446 -0.7546
 2856TIP3    H2 8575   1.151   5.427   3.680 -1.5487 -0.5732 -0.5540
 2857TIP3   OH2 8576   2.455   4.861   3.505  0.9993  0.0629 -0.2696
 2857TIP3    H1 8577   2.469   4.951   3.474  0.0849 -0.1472 -1.3647
 2857TIP3    H2 8578   2.520   4.809   3.458  0.3612 -0.0858 -1.0250
 2858TIP3   OH2 8579   5.154   5.882   0.808 -0.6863  0.5845 -0.9570
 2858TIP3    H1 8580   5.087   5.824   0.845 -1.6391  2.9107  1.2360
 2858TIP3    H2 8581   5.135   5.884   0.714 -2.1174 -0.6963 -0.7320
 2859TIP3   OH2 8582   1.686   0.621   1.228  0.0262  0.6431 -0.5478
 2859TIP3    H1 8583   1.772   0.622   1.186  0.8631  0.2998  1.0880
 2859TIP3    H2 8584   1.681   0.705   1.273 -1.4861  1.6558 -2.4179
 2860TIP3   OH2 8585   3.741   3.409   0.364 -0.1851  0.0246  0.3201
 2860TIP3    H1 8586   3.825   3.454   0.355 -0.9165  1.1955 -0.9914
 2860TIP3    H2 8587   3.741   3.344   0.294 -0.6187  0.4351 -0.0622
 2861TIP3   OH2 8588   4.043   3.635   3.997 -0.0746 -0.2418  0.5361
 2861TIP3    H1 8589   4.034   3.725   3.968  1.7742  0.0971  0.8911
 2861TIP3    H2 8590   4.108   3.597   3.938  0.0645 -0.9840  1.1429
 2862TIP3   OH2 8591   4.126   4.638   2.655 -0.8924 -0.3063  0.2398
 2862TIP3    H1 8592   4.136   4.675   2.743  0.8991 -0.5752  0.1755
 2862TIP3    H2 8593   4.200   4.672   2.606 -1.7128 -0.4023 -1.1068
 2863TIP3   OH2 8594   5.212   0.791   4.590 -0.1701 -0.3138 -0.2380
 2863TIP3    H1 8595   5.261   0.732   4.533 -0.7274 -0.6809 -0.3439
 2863TIP3    H2 8596   5.124   0.792   4.553 -0.5149 -0.4909  0.5690
 2864TIP3   OH2 8597   1.594   2.053   4.040 -0.0404 -0.3751 -0.5932
 2864TIP3    H1 8598   1.674   2.073   3.992 -0.0140 -1.2664 -0.9489
 2864TIP3    H2 8599   1.609   1.966   4.076 -0.7726 -0.4660 -0.4977
 2865TIP3   OH2 8600   0.748   0.765   4.790  0.0250  0.2188 -0.4486
 2865TIP3    H1 8601   0.785   0.693   4.740  1.1510  1.8352 -2.0751
 2865TIP3    H2 8602   0.757   0.738   4.882 -0.2390 -1.9591 -1.0295
 2866TIP3   OH2 8603   1.829   4.671   0.967  0.0894 -0.4845 -0.1821
 2866TIP3    H1 8604   1.873   4.586   0.972  0.2675 -0.4876 -1.4408
 2866TIP3    H2 8605   1.888   4.731   1.013  1.0799 -0.6333 -1.2136
 2867TIP3   OH2 8606   4.415   2.331   0.753 -0.1019  0.3895 -0.0782
 2867TIP3    H1 8607   4.349   2.318   0.685 -1.9557  0.8787  1.5216
 2867TIP3    H2 8608   4.498   2.325   0.707 -1.2342 -0.2757 -2.2030
 2868TIP3   OH2 8609   1.508   4.999   4.463 -0.7769  0.0510  0.7361
 2868TIP3    H1 8610   1.537   5.047   4.386 -1.7121 -2.2744 -1.1559
 2868TIP3    H2 8611   1.413   5.012   4.466 -0.8730 -0.6303  0.9427
 2869TIP3   OH2 8612   3.632   5.734   0.904  0.4611  0.7751  1.0508
 2869TIP3    H1 8613   3.565   5.801   0.913 -1.1397 -0.7870  1.5340
 2869TIP3    H2 8614   3.593   5.668   0.846  1.1624 -0.6364  2.0975
 2870TIP3   OH2 8615   6.178   3.059   3.041 -0.0348  0.3621  0.0151
 2870TIP3    H1 8616   6.251   3.103   2.997  0.9701 -0.6169  0.6507
 2870TIP3    H2 8617   6.153   3.120   3.111  0.5774  0.4491  0.1674
 2871TIP3   OH2 8618   3.019   0.469   1.090  0.1017  0.5184 -0.2789
 2871TIP3    H1 8619   2.999   0.456   1.183  0.0071  0.8246 -0.2545
 2871TIP3    H2 8620   3.114   0.479   1.088  0.1525  0.0719 -0.2712
 2872TIP3   OH2 8621   5.183   4.080   3.273 -0.0301 -0.2121 -0.4402
 2872TIP3    H1 8622   5.218   4.053   3.358  0.1449 -0.8382 -0.7062
 2872TIP3    H2 8623   5.184   4.176   3.276 -1.4246 -0.1969  0.8374
 2873TIP3   OH2 8624   2.435   2.759   4.680  0.0783  0.0287  0.5610
 2873TIP3    H1 8625   2.459   2.692   4.744 -0.0516  0.4257  1.0344
 2873TIP3    H2 8626   2.367   2.718   4.627  2.2799 -1.4094 -1.3178
 2874TIP3   OH2 8627   3.042   5.068   0.789  0.2546  0.1737  0.0942
 2874TIP3    H1 8628   3.074   4.987   0.751  1.4619  0.4328  0.5099
 2874TIP3    H2 8629   3.121   5.119   0.807 -0.5010  1.6717 -0.6642
 2875TIP3   OH2 8630   3.866   5.834   1.180  0.2052  0.4626  0.5515
 2875TIP3    H1 8631   3.947   5.827   1.130 -0.5990  0.6595 -0.8048
 2875TIP3    H2 8632   3.869   5.760   1.241  0.8897 -0.1546 -0.2144
 2876TIP3   OH2 8633   3.419   0.418   4.518 -0.1208  0.3248  0.4297
 2876TIP3    H1 8634   3.489   0.483   4.523  0.7891 -0.5626 -0.4449
 2876TIP3    H2 8635   3.339   0.467   4.541  0.4623  1.8573 -0.6429
 2877TIP3   OH2 8636   6.100   5.912   3.407  0.7650 -0.1726  0.1804
 2877TIP3    H1 8637   6.171   5.921   3.343 -0.0970  0.5337 -0.7135
 2877TIP3    H2 8638   6.101   5.819   3.431  0.5732 -0.6560 -1.5246
 2878TIP3   OH2 8639   3.668   3.014   3.704 -0.2656  0.1313 -0.1181
 2878TIP3    H1 8640   3.642   2.963   3.627  0.6586 -0.7158  0.1094
 2878TIP3    H2 8641   3.596   3.002   3.766  0.3218 -1.6385  0.2626
 2879TIP3   OH2 8642   5.754   0.406   0.365 -0.2632  0.5509  0.2401
 2879TIP3    H1 8643   5.700   0.482   0.344 -0.2487  0.4722 -0.0850
 2879TIP3    H2 8644   5.823   0.441   0.421 -0.2091  0.7952  0.0248
 2880TIP3   OH2 8645   5.885   2.351   1.227  0.4481  0.6457 -0.4245
 2880TIP3    H1 8646   5.848   2.400   1.153  0.6708  0.1826 -0.8494
 2880TIP3    H2 8647   5.977   2.377   1.228 -0.0346  2.5636  1.2477
 2881TIP3   OH2 8648   4.619   4.477   0.216 -0.1045  0.4400 -0.4222
 2881TIP3    H1 8649   4.606   4.398   0.162 -0.0965 -1.3864  2.0689
 2881TIP3    H2 8650   4.703   4.512   0.186  0.4394 -1.1363 -0.8913
 2882TIP3   OH2 8651   2.143   0.970   0.988 -0.2434  0.0806 -0.3769
 2882TIP3    H1 8652   2.187   1.022   0.921 -0.9712  0.6411 -0.4343
 2882TIP3    H2 8653   2.083   1.031   1.030  0.4793 -0.1562  1.0661
 2883TIP3   OH2 8654   0.562   3.046   2.752  0.7015  0.2968 -0.9814
 2883TIP3    H1 8655   0.606   3.030   2.668  0.1309 -1.5767 -0.9625
 2883TIP3    H2 8656   0.484   2.991   2.749 -0.7807  2.2671 -0.3055
 2884TIP3   OH2 8657   5.834   4.235   3.065  0.1268  0.7530 -0.1206
 2884TIP3    H1 8658   5.761   4.181   3.036 -0.4079  2.9563 -3.3123
 2884TIP3    H2 8659   5.904   4.217   3.002  0.7346  2.0855  0.1358
 2885TIP3   OH2 8660   5.041   0.315   1.602 -0.2795  0.1182  0.1896
 2885TIP3    H1 8661   4.994   0.302   1.519  0.4621  1.7672 -0.5293
 2885TIP3    H2 8662   4.984   0.373   1.652 -0.1398  0.1457  0.3156
 2886TIP3   OH2 8663   2.321   2.765   0.734  0.8839 -0.1753  0.5825
 2886TIP3    H1 8664   2.351   2.689   0.784  1.3913  0.1196  0.7304
 2886TIP3    H2 8665   2.251   2.731   0.679  0.8237 -0.6613  0.9567
 2887TIP3   OH2 8666   4.530   2.288   1.755  0.1728  0.4537  0.0669
 2887TIP3    H1 8667   4.497   2.324   1.673  1.6074  1.1199 -0.2514
 2887TIP3    H2 8668   4.485   2.203   1.764 -0.4815  0.6673 -1.0639
 2888TIP3   OH2 8669   2.211   1.832   0.371  0.4160 -0.7930 -0.2993
 2888TIP3    H1 8670   2.178   1.884   0.445  0.7831 -0.8485 -0.0949
 2888TIP3    H2 8671   2.197   1.889   0.295  0.6246 -0.4746 -0.1045
 2889TIP3   OH2 8672   4.745   5.844   3.731  0.5425  0.3573  0.1719
 2889TIP3    H1 8673   4.788   5.759   3.722  2.5807  1.0383  2.3640
 2889TIP3    H2 8674   4.668   5.827   3.786  1.3367 -0.0010  1.2031
 2890TIP3   OH2 8675   0.200   0.698   0.539 -0.4472  0.3081  0.0300
 2890TIP3    H1 8676   0.279   0.735   0.578 -0.9589  1.0953  0.3309
 2890TIP3    H2 8677   0.170   0.764   0.476 -1.4267  0.4797  0.6516
 2891TIP3   OH2 8678   2.527   2.052   2.203  0.1680  0.1261 -0.1028
 2891TIP3    H1 8679   2.607   2.065   2.254 -0.4788 -1.5550  1.4128
 2891TIP3    H2 8680   2.512   2.137   2.160  2.9768  0.3756 -0.8023
 2892TIP3   OH2 8681   4.125   4.375   0.545  0.0387  0.4648  0.1891
 2892TIP3    H1 8682   4.195   4.339   0.490 -0.4999  0.9973 -0.8803
 2892TIP3    H2 8683   4.115   4.312   0.616 -0.0130 -0.8564 -0.9479
 2893TIP3   OH2 8684   5.223   3.119   1.970  0.7653 -0.0564 -0.2756
 2893TIP3    H1 8685   5.193   3.074   2.049  1.3515  1.2869  0.7427
 2893TIP3    H2 8686   5.257   3.203   2.001 -0.0920  1.0254 -2.0860
 2894TIP3   OH2 8687   1.648   3.913   3.226 -0.0398  0.2136 -0.0055
 2894TIP3    H1 8688   1.650   3.856   3.302 -2.0380 -0.0168 -0.0703
 2894TIP3    H2 8689   1.646   4.002   3.262 -0.8099  0.1113  0.2171
 2895TIP3   OH2 8690   1.870   4.873   0.116 -0.1832  0.2201  0.2470
 2895TIP3    H1 8691   1.805   4.824   0.065 -0.4982  2.5688 -1.8078
 2895TIP3    H2 8692   1.839   4.868   0.206 -1.6773 -1.0066 -0.2903
 2896TIP3   OH2 8693   2.335   2.110   1.089  0.1690 -0.2944  0.9971
 2896TIP3    H1 8694   2.245   2.115   1.054  0.5480 -0.6209 -0.0693
 2896TIP3    H2 8695   2.357   2.201   1.110  0.2320  0.0450 -0.4533
 2897TIP3   OH2 8696   4.435   2.544   3.742  0.1073  0.0139  0.0331
 2897TIP3    H1 8697   4.409   2.466   3.791 -0.7455 -0.4198 -1.0726
 2897TIP3    H2 8698   4.404   2.528   3.653 -1.0105  2.0395 -0.0095
 2898TIP3   OH2 8699   4.564   3.362   2.383  0.3266  0.3682 -0.0215
 2898TIP3    H1 8700   4.561   3.455   2.403 -1.8651  0.8984 -2.2181
 2898TIP3    H2 8701   4.648   3.348   2.340  0.2942  1.5710 -0.5053
 2899TIP3   OH2 8702   2.323   0.619   4.438  0.1235  0.2978  0.1175
 2899TIP3    H1 8703   2.231   0.596   4.450 -0.0080  1.4777  1.6154
 2899TIP3    H2 8704   2.368   0.535   4.432 -0.9282 -0.2992  0.2637
 2900TIP3   OH2 8705   4.916   4.706   2.233  0.1722 -0.0909  0.1264
 2900TIP3    H1 8706   4.884   4.681   2.319  1.0270 -0.1514  0.4322
 2900TIP3    H2 8707   4.841   4.747   2.190 -1.2049 -2.8078 -0.2668
 2901TIP3   OH2 8708   2.478   3.541   0.451  0.0102 -0.7360  0.1766
 2901TIP3    H1 8709   2.451   3.483   0.380  0.1538  0.1414 -0.6092
 2901TIP3    H2 8710   2.536   3.605   0.409 -1.6104  1.1072  0.6339
 2902TIP3   OH2 8711   1.618   1.797   1.801  0.1707 -0.6744 -0.0217
 2902TIP3    H1 8712   1.610   1.717   1.853  0.0652 -0.5711  0.1209
 2902TIP3    H2 8713   1.701   1.786   1.754  0.4261 -0.6294  0.4070
 2903TIP3   OH2 8714   5.560   0.575   3.028 -0.0709 -0.1736  0.4475
 2903TIP3    H1 8715   5.490   0.517   2.997 -0.0712 -0.4479  0.9496
 2903TIP3    H2 8716   5.631   0.561   2.966 -0.0037 -0.8641  0.6667
 2904TIP3   OH2 8717   1.303   1.914   0.198 -0.8186 -0.1206  0.1623
 2904TIP3    H1 8718   1.283   1.946   0.111  0.6843 -1.7446 -0.8490
 2904TIP3    H2 8719   1.282   1.821   0.196 -1.5480 -0.0307  1.8136
 2905TIP3   OH2 8720   1.202   5.725   2.133  0.0398 -0.1960  0.5834
 2905TIP3    H1 8721   1.252   5.742   2.212  0.3597 -1.4914  0.6803
 2905TIP3    H2 8722   1.256   5.665   2.082  0.6962  2.0300 -1.5162
 2906TIP3   OH2 8723   2.809   1.050   4.870  0.0401  0.6358 -0.3177
 2906TIP3    H1 8724   2.862   1.049   4.950 -0.4737  1.7784  0.0588
 2906TIP3    H2 8725   2.867   1.088   4.804 -0.5549  2.8869  0.3382
 2907TIP3   OH2 8726   0.146   4.652   0.329  0.1073 -0.1571 -0.7420
 2907TIP3    H1 8727   0.103   4.689   0.252 -0.1082 -2.4322 -1.8181
 2907TIP3    H2 8728   0.078   4.654   0.397 -0.4239 -0.0915 -1.2645
 2908TIP3   OH2 8729   1.499   1.549   1.407  0.2403 -0.5630  0.1068
 2908TIP3    H1 8730   1.427   1.605   1.380 -0.2295 -0.4301  1.5337
 2908TIP3    H2 8731   1.474   1.461   1.380 -0.4675 -0.5160  0.5983
 2909TIP3   OH2 8732   2.326   1.050   1.976 -0.5001  0.1015 -0.1043
 2909TIP3    H1 8733   2.390   0.991   2.015 -0.4302 -0.2802 -0.7649
 2909TIP3    H2 8734   2.370   1.084   1.897 -1.3473 -0.7188 -0.9601
 2910TIP3   OH2 8735   1.244   4.126   1.267  0.6330 -0.2932  0.1806
 2910TIP3    H1 8736   1.213   4.214   1.244 -0.9928 -0.7190  0.6225
 2910TIP3    H2 8737   1.292   4.097   1.189 -0.9221  0.0516 -0.9574
 2911TIP3   OH2 8738   0.459   0.018   2.378  0.2143 -0.1368 -0.1472
 2911TIP3    H1 8739   0.543   0.005   2.421  0.1372 -0.4297 -0.0811
 2911TIP3    H2 8740   0.480   0.056   2.293  0.3584  0.6276  0.2255
 2912TIP3   OH2 8741   0.891   4.648   5.066  0.2707  0.8511 -0.1846
 2912TIP3    H1 8742   0.853   4.729   5.100 -2.3586 -1.1518  2.1170
 2912TIP3    H2 8743   0.986   4.661   5.072 -0.0875  3.2215  1.4431
 2913TIP3   OH2 8744   0.070   5.709   3.730  0.1240 -0.4098  0.2893
 2913TIP3    H1 8745   0.047   5.786   3.678  2.8426  0.0087 -0.4557
 2913TIP3    H2 8746  -0.010   5.657   3.732 -1.3934  1.7412 -0.3859
 2914TIP3   OH2 8747   0.512   4.489   2.593 -0.9799 -0.2968  0.5745
 2914TIP3    H1 8748   0.489   4.481   2.500 -0.8499  1.9302  0.3139
 2914TIP3    H2 8749   0.570   4.415   2.610  0.8020  0.4837 -1.7051
 2915TIP3   OH2 8750   4.834   2.225   1.996 -0.0469  0.2431  0.2917
 2915TIP3    H1 8751   4.921   2.195   2.023 -0.2753  0.4970  1.3763
 2915TIP3    H2 8752   4.849   2.313   1.961  0.2152  0.0331 -0.1330
 2916TIP3   OH2 8753   6.285   2.801   3.260  0.0175  0.1632 -0.0691
 2916TIP3    H1 8754   6.231   2.834   3.189  0.3441  0.3045 -0.2550
 2916TIP3    H2 8755   6.225   2.792   3.334 -0.4338 -0.4583 -0.4962
 2917TIP3   OH2 8756   2.854   2.840   1.606  0.2050  1.0354 -0.6172
 2917TIP3    H1 8757   2.931   2.863   1.657  1.2181 -1.9381 -0.5693
 2917TIP3    H2 8758   2.833   2.919   1.557  1.9668  2.5922  0.9779
 2918TIP3   OH2 8759   5.365   4.770   0.785 -0.2791 -0.9392 -0.8032
 2918TIP3    H1 8760   5.277   4.734   0.773 -0.2444 -1.5511  0.6592
 2918TIP3    H2 8761   5.366   4.802   0.875  0.2491  1.2136 -1.5058
 2919TIP3   OH2 8762   2.147   1.447   1.085 -0.2158  0.2189 -0.4716
 2919TIP3    H1 8763   2.082   1.510   1.117 -0.3135 -0.5557  0.9172
 2919TIP3    H2 8764   2.230   1.478   1.120 -0.6864 -2.3545  3.5281
 2920TIP3   OH2 8765   4.011   0.482   5.060  0.0527  0.0596 -0.1613
 2920TIP3    H1 8766   3.918   0.499   5.046 -0.1670 -0.1288  0.9864
 2920TIP3    H2 8767   4.051   0.490   4.973 -0.9748  0.4927 -0.5967
 2921TIP3   OH2 8768   1.378   3.035   0.263  0.2199 -0.5321 -0.5721
 2921TIP3    H1 8769   1.385   2.941   0.247  1.2808 -0.7348  0.8127
 2921TIP3    H2 8770   1.458   3.071   0.224 -0.6962 -0.0209 -2.0554
 2922TIP3   OH2 8771   4.936   0.573   4.550 -0.8292 -0.3951 -0.0868
 2922TIP3    H1 8772   4.873   0.533   4.609 -0.8638 -0.2634 -0.0343
 2922TIP3    H2 8773   4.988   0.499   4.516  0.0918 -0.3572  1.1542
 2923TIP3   OH2 8774   4.811   3.925   3.758  0.1113 -0.5385  0.2600
 2923TIP3    H1 8775   4.799   3.850   3.816  0.9818 -0.3014  0.7572
 2923TIP3    H2 8776   4.901   3.918   3.728  0.4103  0.6495  0.8133
 2924TIP3   OH2 8777   3.139   5.892   2.796  0.9124 -0.7679  0.1883
 2924TIP3    H1 8778   3.165   5.865   2.884  3.4798 -1.7261 -0.7819
 2924TIP3    H2 8779   3.198   5.964   2.775 -0.9334  0.7571 -0.1122
 2925TIP3   OH2 8780   0.996   4.461   4.774  0.4684 -0.4064 -0.5078
 2925TIP3    H1 8781   1.077   4.464   4.825  0.0405  0.1375  0.1573
 2925TIP3    H2 8782   1.014   4.517   4.697  0.3948  0.5570  0.1543
 2926TIP3   OH2 8783   5.781   5.828   5.081  0.0312 -0.1188 -0.2199
 2926TIP3    H1 8784   5.832   5.854   5.004  0.8491 -1.7608 -0.2959
 2926TIP3    H2 8785   5.690   5.830   5.052  0.2140  0.7424 -0.7632
 2927TIP3   OH2 8786   4.278   4.762   4.568 -0.2064  0.0526 -0.5913
 2927TIP3    H1 8787   4.238   4.689   4.520  1.1695 -0.9377 -0.2854
 2927TIP3    H2 8788   4.215   4.783   4.636 -1.6710  0.7085 -2.0644
 2928TIP3   OH2 8789   2.712   0.193   1.158 -0.2257 -0.3070 -0.5724
 2928TIP3    H1 8790   2.700   0.288   1.148 -0.3584 -0.3505 -0.8452
 2928TIP3    H2 8791   2.637   0.165   1.210 -1.1286 -0.5145 -1.9150
 2929TIP3   OH2 8792   1.187   0.473   2.422  0.4813  0.6145  0.0182
 2929TIP3    H1 8793   1.093   0.488   2.415  0.6490  1.6653 -0.0078
 2929TIP3    H2 8794   1.218   0.539   2.484  1.0091 -0.5294  1.0229
 2930TIP3   OH2 8795   4.185   0.806   4.041  0.1125  0.1217 -0.1321
 2930TIP3    H1 8796   4.191   0.716   4.009  1.7721 -0.0586  0.6280
 2930TIP3    H2 8797   4.128   0.849   3.978  0.8322 -0.9811 -1.5995
 2931TIP3   OH2 8798   4.264   3.031   1.148  0.1032  0.1000 -0.4704
 2931TIP3    H1 8799   4.240   3.049   1.057 -1.8448 -0.5593 -0.1190
 2931TIP3    H2 8800   4.182   3.007   1.191  0.9449  0.6272  1.5364
 2932TIP3   OH2 8801   4.445   0.762   3.614 -0.1198  0.0307 -0.4638
 2932TIP3    H1 8802   4.432   0.668   3.602  1.8177 -0.3383  0.0292
 2932TIP3    H2 8803   4.462   0.773   3.708  0.9086  0.6875 -0.7101
 2933TIP3   OH2 8804   0.919   0.304   2.100  0.1735  0.0490 -0.3076
 2933TIP3    H1 8805   0.952   0.376   2.047  1.4426 -0.7746 -0.6834
 2933TIP3    H2 8806   0.927   0.227   2.043 -0.5201 -0.4978  0.3194
 2934TIP3   OH2 8807   3.704   4.656   0.782 -0.4375  0.5503 -0.0660
 2934TIP3    H1 8808   3.703   4.709   0.702  1.3608  0.6713 -0.0315
 2934TIP3    H2 8809   3.795   4.656   0.810 -0.8678 -0.3591  1.4263
 2935TIP3   OH2 8810   0.280   3.687   3.286  0.3873  0.0284  0.0386
 2935TIP3    H1 8811   0.371   3.711   3.269  0.2096 -0.2874 -1.5141
 2935TIP3    H2 8812   0.269   3.699   3.380  2.2257 -0.6123  0.3623
 2936TIP3   OH2 8813   3.744   4.670   4.678 -0.1803  0.0658  0.0189
 2936TIP3    H1 8814   3.712   4.639   4.593  0.6284 -0.7799 -0.0001
 2936TIP3    H2 8815   3.829   4.627   4.688 -0.4665 -0.2220  1.4635
 2937TIP3   OH2 8816   6.215   5.033   1.142 -0.1997  0.1005  0.0612
 2937TIP3    H1 8817   6.255   4.946   1.145 -0.4177  0.0126  0.6270
 2937TIP3    H2 8818   6.130   5.019   1.101  0.3391  0.2863 -1.1388
 2938TIP3   OH2 8819   0.308   2.222   4.951  0.1840  0.0464 -0.8723
 2938TIP3    H1 8820   0.357   2.176   5.019  0.5976  0.9397 -0.5507
 2938TIP3    H2 8821   0.298   2.157   4.881  0.9388 -0.4603 -0.5269
 2939TIP3   OH2 8822   3.564   2.386   2.269  0.1095  0.0757 -0.0976
 2939TIP3    H1 8823   3.529   2.334   2.342  0.5770  0.9873  0.7952
 2939TIP3    H2 8824   3.508   2.463   2.265  1.7251  1.3794  1.1132
 2940TIP3   OH2 8825   4.945   5.205   3.075 -0.2786  0.3754  0.3455
 2940TIP3    H1 8826   4.876   5.243   3.019  1.1563 -0.7994 -2.4273
 2940TIP3    H2 8827   4.919   5.113   3.086 -0.7797  0.6967  2.1026
 2941TIP3   OH2 8828   0.754   1.634   4.466  0.3619 -0.1450  0.4789
 2941TIP3    H1 8829   0.699   1.665   4.395  1.4273  0.3981 -0.1319
 2941TIP3    H2 8830   0.819   1.703   4.479 -0.2154  0.0973  2.4665
 2942TIP3   OH2 8831   2.742   5.546   0.152 -0.0298 -0.8480  0.2956
 2942TIP3    H1 8832   2.687   5.539   0.075  1.9755 -2.3260 -1.1160
 2942TIP3    H2 8833   2.756   5.640   0.164 -1.1450 -0.5627 -0.5348
 2943TIP3   OH2 8834   5.526   4.859   3.615 -0.7384  0.1469  0.0561
 2943TIP3    H1 8835   5.605   4.827   3.570 -0.1141 -0.9081  1.8040
 2943TIP3    H2 8836   5.499   4.786   3.670 -1.5550  1.3209  1.2608
 2944TIP3   OH2 8837   1.624   0.389   5.008  0.1522  0.2101  0.1533
 2944TIP3    H1 8838   1.612   0.365   5.100 -1.7598  0.1714 -0.0538
 2944TIP3    H2 8839   1.603   0.310   4.959 -1.9079  1.0111 -0.3762
 2945TIP3   OH2 8840   1.350   0.993   3.092 -0.1702  0.1367  0.2788
 2945TIP3    H1 8841   1.283   1.014   3.027 -0.1359 -2.4040 -0.6952
 2945TIP3    H2 8842   1.312   0.922   3.144  1.5263 -1.0595 -0.0040
 2946TIP3   OH2 8843   1.145   5.650   1.805 -0.2688  0.0241  0.4793
 2946TIP3    H1 8844   1.176   5.719   1.865  2.2505 -1.0600  0.5701
 2946TIP3    H2 8845   1.177   5.678   1.719  0.1681 -0.6741  0.4112
 2947TIP3   OH2 8846   1.346   2.100   1.276 -0.8922 -0.5553  0.0216
 2947TIP3    H1 8847   1.297   2.034   1.226 -1.0244  1.2943 -2.5159
 2947TIP3    H2 8848   1.386   2.155   1.208  3.2146 -0.7948  1.9351
 2948TIP3   OH2 8849   1.649   4.316   3.064  0.1224 -0.0170 -0.5577
 2948TIP3    H1 8850   1.612   4.403   3.048 -0.0250 -0.0480 -0.3923
 2948TIP3    H2 8851   1.696   4.294   2.984 -1.2128 -0.4943 -1.2246
 2949TIP3   OH2 8852   3.554   5.380   1.124 -0.1831 -0.5640 -0.1023
 2949TIP3    H1 8853   3.628   5.411   1.072  0.9713 -1.1272  1.1521
 2949TIP3    H2 8854   3.495   5.339   1.061 -0.8745  2.4270 -1.5706
 2950TIP3   OH2 8855   5.233   4.891   0.359  0.5022 -0.3207 -0.6624
 2950TIP3    H1 8856   5.238   4.837   0.280 -0.6360  1.6153 -2.1294
 2950TIP3    H2 8857   5.315   4.941   0.359 -0.0529  0.6241 -1.3795
 2951TIP3   OH2 8858   5.368   1.949   4.842  0.2540  0.6046 -0.2965
 2951TIP3    H1 8859   5.425   1.942   4.919 -0.9138 -0.2226  0.5435
 2951TIP3    H2 8860   5.375   2.040   4.815 -0.4847  1.3507  1.7753
 2952TIP3   OH2 8861   6.002   5.587   4.423  0.0514 -0.1880 -0.2721
 2952TIP3    H1 8862   6.071   5.553   4.367  0.1434 -0.6520  0.1205
 2952TIP3    H2 8863   5.984   5.517   4.486 -0.7075 -0.0397 -0.3092
 2953TIP3   OH2 8864   3.756   3.369   4.963 -0.3393 -0.3654 -0.3371
 2953TIP3    H1 8865   3.723   3.326   5.041  1.1367 -0.1168  0.4676
 2953TIP3    H2 8866   3.678   3.384   4.908 -1.0459 -2.9524 -0.1544
 2954TIP3   OH2 8867   3.561   4.386   0.782  0.6243 -0.0202  0.3712
 2954TIP3    H1 8868   3.603   4.448   0.842  0.2790  1.2184 -0.6271
 2954TIP3    H2 8869   3.471   4.378   0.815  0.4141  0.7152  0.0178
 2955TIP3   OH2 8870   1.594   1.859   3.622 -0.6616 -0.4129  0.7653
 2955TIP3    H1 8871   1.580   1.795   3.693 -2.2685 -1.4693 -0.4359
 2955TIP3    H2 8872   1.661   1.818   3.567  0.3595  0.2657  1.4715
 2956TIP3   OH2 8873   3.029   2.790   3.431 -0.6649  0.5956 -0.4555
 2956TIP3    H1 8874   3.107   2.754   3.388 -0.2019  0.1143  0.7399
 2956TIP3    H2 8875   3.018   2.876   3.391  1.0516  1.0728  0.0017
 2957TIP3   OH2 8876   3.109   4.599   3.371 -0.1620  0.3551  0.3597
 2957TIP3    H1 8877   3.100   4.694   3.378 -3.4854  0.2287 -0.8648
 2957TIP3    H2 8878   3.101   4.567   3.461 -2.8724  1.0687  0.4422
 2958TIP3   OH2 8879   5.842   5.442   4.806 -0.3801  0.8997  0.3718
 2958TIP3    H1 8880   5.878   5.435   4.718 -1.5469  1.6039 -0.1932
 2958TIP3    H2 8881   5.842   5.352   4.839 -2.3153  0.1745 -1.3739
 2959TIP3   OH2 8882   0.187   1.544   1.707 -0.1906 -0.1195 -0.2788
 2959TIP3    H1 8883   0.168   1.554   1.801  2.2822  1.4941  0.1647
 2959TIP3    H2 8884   0.116   1.591   1.663 -0.8035  0.0555  0.8659
 2960TIP3   OH2 8885   4.319   0.266   2.913 -0.1163 -0.0767  0.1505
 2960TIP3    H1 8886   4.296   0.175   2.893  0.1253 -0.2846  0.8140
 2960TIP3    H2 8887   4.328   0.268   3.008  1.4652  0.2611  0.0143
 2961TIP3   OH2 8888   3.687   5.465   4.764  0.7030 -0.2476  0.4812
 2961TIP3    H1 8889   3.644   5.547   4.787  0.3146 -0.6589  1.2872
 2961TIP3    H2 8890   3.737   5.441   4.842  1.7791 -0.1870 -0.1670
 2962TIP3   OH2 8891   1.496   4.186   3.789  0.0071 -0.4267  0.2059
 2962TIP3    H1 8892   1.420   4.227   3.748  0.7965  0.2775 -0.6237
 2962TIP3    H2 8893   1.506   4.231   3.872 -0.0216  0.0330 -0.0362
 2963TIP3   OH2 8894   3.560   0.304   5.167  0.1134 -0.7598 -0.7292
 2963TIP3    H1 8895   3.621   0.285   5.096  0.6277 -3.5421  0.3072
 2963TIP3    H2 8896   3.481   0.254   5.145  0.7450 -2.7482  1.1637
 2964TIP3   OH2 8897   0.516   2.717   2.267  0.5207  0.2662  0.1615
 2964TIP3    H1 8898   0.522   2.667   2.348  2.0801 -0.1516 -0.1922
 2964TIP3    H2 8899   0.549   2.804   2.290  2.3876 -0.2645 -0.3233
 2965TIP3   OH2 8900   1.200   3.173   5.052  0.0831  0.1696  0.3394
 2965TIP3    H1 8901   1.272   3.227   5.083 -0.4115  0.7541  0.4900
 2965TIP3    H2 8902   1.240   3.112   4.991  1.0545 -0.8640  1.9191
 2966TIP3   OH2 8903   6.262   3.006   0.744 -0.3637 -0.1453 -0.1211
 2966TIP3    H1 8904   6.234   3.087   0.701 -1.2271 -0.0122  0.6694
 2966TIP3    H2 8905   6.312   3.036   0.820  1.6094 -0.3795 -1.2666
 2967TIP3   OH2 8906   4.408   1.424   0.702  0.3218 -0.2586  0.6380
 2967TIP3    H1 8907   4.381   1.335   0.725 -1.8039  0.1376 -0.1406
 2967TIP3    H2 8908   4.503   1.423   0.714  0.0741 -1.8130  3.3673
 2968TIP3   OH2 8909   6.354   3.030   4.496  0.1092  0.1817  0.0709
 2968TIP3    H1 8910   6.365   2.977   4.417 -0.9861  0.5598 -0.3570
 2968TIP3    H2 8911   6.301   3.104   4.467 -1.6593 -0.4743  1.4970
 2969TIP3   OH2 8912   4.145   0.949   4.271 -0.0963  0.1172 -0.2352
 2969TIP3    H1 8913   4.144   0.899   4.189  0.7857 -1.7543  0.8164
 2969TIP3    H2 8914   4.052   0.965   4.290 -0.3433 -0.1327 -1.1822
 2970TIP3   OH2 8915   4.535   1.191   2.652  0.4184 -0.7110  0.4942
 2970TIP3    H1 8916   4.449   1.232   2.646  1.3733  1.2460 -1.4659
 2970TIP3    H2 8917   4.593   1.262   2.679  1.4953 -1.9163  1.4530
 2971TIP3   OH2 8918   5.442   5.490   5.147 -1.1476  0.1865  0.0605
 2971TIP3    H1 8919   5.380   5.562   5.157 -1.7244  0.0488 -2.0142
 2971TIP3    H2 8920   5.496   5.516   5.072 -0.5947 -0.9952  0.0279
 2972TIP3   OH2 8921   4.330   0.087   2.533 -0.0105  0.1550 -0.2616
 2972TIP3    H1 8922   4.343   0.052   2.445  0.9190 -1.2072  0.3866
 2972TIP3    H2 8923   4.288   0.172   2.519  2.0373  0.9406 -2.1168
 2973TIP3   OH2 8924   5.386   5.356   1.562  0.3750 -0.1143  0.6603
 2973TIP3    H1 8925   5.382   5.339   1.656 -1.1070  2.5568  1.2007
 2973TIP3    H2 8926   5.453   5.423   1.552 -1.8578  2.2558  0.4347
 2974TIP3   OH2 8927   2.742   4.552   1.718  0.7106  0.3600 -0.0315
 2974TIP3    H1 8928   2.689   4.483   1.758  0.4381  0.2899 -0.5078
 2974TIP3    H2 8929   2.810   4.505   1.670  0.6993  0.4325 -0.1179
 2975TIP3   OH2 8930   2.309   5.955   5.064  0.2113  0.5197 -0.2249
 2975TIP3    H1 8931   2.393   5.918   5.092  0.2763 -0.5094 -1.6759
 2975TIP3    H2 8932   2.243   5.897   5.104  0.2534  0.1462 -0.6912
 2976TIP3   OH2 8933   5.600   0.664   4.650  0.2065  0.5157 -0.3505
 2976TIP3    H1 8934   5.645   0.585   4.681 -1.4038  0.5745  2.5079
 2976TIP3    H2 8935   5.513   0.634   4.625 -0.5901  1.3436  1.2228
 2977TIP3   OH2 8936   5.741   5.952   1.094 -0.0801  0.0081  0.2130
 2977TIP3    H1 8937   5.656   5.984   1.125 -1.4786 -0.3493 -2.9099
 2977TIP3    H2 8938   5.724   5.863   1.065  1.2682  0.0582 -0.8011
 2978TIP3   OH2 8939   2.938   4.142   1.430 -0.8889 -0.3453 -0.8586
 2978TIP3    H1 8940   2.952   4.130   1.336 -0.9106 -2.3679 -0.6419
 2978TIP3    H2 8941   2.843   4.136   1.441 -1.0058  1.1519 -0.8289
 2979TIP3   OH2 8942   1.572   4.809   4.981 -1.5656  0.2499  0.0197
 2979TIP3    H1 8943   1.569   4.732   4.924  0.5001  0.5826 -0.6013
 2979TIP3    H2 8944   1.586   4.883   4.922 -1.1488  0.8033  0.7966
 2980TIP3   OH2 8945   2.033   2.423   0.889  0.0263  0.2322 -0.3025
 2980TIP3    H1 8946   2.033   2.349   0.950 -2.2736 -0.9669 -1.6184
 2980TIP3    H2 8947   2.045   2.500   0.944  3.0371 -1.0513  1.0843
 2981TIP3   OH2 8948   5.617   5.887   1.506 -0.6594 -0.3214 -0.1262
 2981TIP3    H1 8949   5.688   5.888   1.442 -0.2502  0.4563  0.3238
 2981TIP3    H2 8950   5.643   5.821   1.570  0.3758  0.9116  0.7906
 2982TIP3   OH2 8951   0.755   4.045   0.820 -0.5448  0.7628 -0.1170
 2982TIP3    H1 8952   0.745   4.118   0.759 -0.3730 -0.5563 -1.8075
 2982TIP3    H2 8953   0.848   4.023   0.815 -0.5137  0.6770  0.6985
 2983TIP3   OH2 8954   3.051   1.029   3.110 -0.3493  0.1442 -0.0719
 2983TIP3    H1 8955   3.127   1.076   3.143  0.1723 -0.4781 -0.3768
 2983TIP3    H2 8956   2.987   1.036   3.181  0.4733 -0.4885  0.7613
 2984TIP3   OH2 8957   3.171   0.514   3.214  0.2521  0.4209  0.1393
 2984TIP3    H1 8958   3.184   0.585   3.151  1.0352 -1.1018 -1.5143
 2984TIP3    H2 8959   3.098   0.463   3.178  0.1024  0.0361  0.9694
 2985TIP3   OH2 8960   6.250   4.702   4.356  0.2760 -0.4052  0.5207
 2985TIP3    H1 8961   6.240   4.726   4.449 -0.0538 -0.7205  0.5667
 2985TIP3    H2 8962   6.221   4.611   4.352  1.5298 -0.8125  0.3420
 2986TIP3   OH2 8963   5.625   4.951   0.028 -0.5308  0.3136  0.0065
 2986TIP3    H1 8964   5.611   5.040  -0.002 -0.8286  0.4400  0.5060
 2986TIP3    H2 8965   5.719   4.936   0.017  0.0581  1.6610  2.4243
 2987TIP3   OH2 8966   4.060   0.785   1.113  0.0882 -0.2101 -0.1298
 2987TIP3    H1 8967   4.115   0.843   1.165 -2.2089  0.6222  1.5117
 2987TIP3    H2 8968   4.106   0.701   1.113  2.2557  0.9142 -0.4652
 2988TIP3   OH2 8969   0.788   2.811   2.576 -0.0384  0.0746  0.5000
 2988TIP3    H1 8970   0.748   2.788   2.660  0.3204 -0.7596  0.4569
 2988TIP3    H2 8971   0.871   2.763   2.575 -1.0272 -1.7937 -1.2613
 2989TIP3   OH2 8972   2.797   3.014   2.677 -0.4107  0.7904  0.3589
 2989TIP3    H1 8973   2.732   3.050   2.617 -0.1399  1.1779  0.2952
 2989TIP3    H2 8974   2.754   2.936   2.714 -1.1832  1.4468  0.8634
 2990TIP3   OH2 8975   5.098   4.442   0.607 -0.0885  0.3689  0.1694
 2990TIP3    H1 8976   5.023   4.441   0.548 -0.2511  0.2559  0.3762
 2990TIP3    H2 8977   5.089   4.524   0.656 -0.8603 -0.2945  1.1861
 2991TIP3   OH2 8978   4.002   1.522   3.582 -0.0234 -0.1145  0.4834
 2991TIP3    H1 8979   3.970   1.582   3.650  0.7626  0.2186  0.5662
 2991TIP3    H2 8980   3.944   1.446   3.588  0.6709 -0.5648  2.2612
 2992TIP3   OH2 8981   4.420   2.967   2.341  0.3538 -0.2984  0.2458
 2992TIP3    H1 8982   4.380   2.997   2.423  1.1265  1.3293  0.0568
 2992TIP3    H2 8983   4.510   2.945   2.365 -0.0770 -2.2560  0.3035
 2993TIP3   OH2 8984   4.009   3.067   0.919 -0.0157 -0.6292  0.4324
 2993TIP3    H1 8985   3.924   3.060   0.962  0.0508  0.3649  0.7512
 2993TIP3    H2 8986   4.053   2.984   0.938 -1.1903 -1.4926 -0.3837
 2994TIP3   OH2 8987   2.345   3.672   2.444 -0.1265 -0.1963  0.2659
 2994TIP3    H1 8988   2.374   3.603   2.504  0.7872  0.0210  0.0927
 2994TIP3    H2 8989   2.281   3.722   2.494 -1.6648 -1.8108  0.0337
 2995TIP3   OH2 8990   1.259   5.439   0.227  0.4833 -0.7563  0.0868
 2995TIP3    H1 8991   1.307   5.522   0.225 -2.2907  0.9638 -1.1101
 2995TIP3    H2 8992   1.266   5.406   0.137 -0.3130 -0.6257 -0.0284
 2996TIP3   OH2 8993   5.515   3.942   1.727  0.0538  0.0679 -0.0496
 2996TIP3    H1 8994   5.603   3.979   1.717 -0.2955  0.4462 -2.5254
 2996TIP3    H2 8995   5.459   3.999   1.674 -1.5636 -0.6034  0.8598
 2997TIP3   OH2 8996   0.931   5.767   1.282 -0.0107  0.5588 -0.3660
 2997TIP3    H1 8997   1.012   5.719   1.299 -1.5065 -2.2251 -0.4983
 2997TIP3    H2 8998   0.946   5.812   1.198  1.2281 -0.2999 -0.6172
 2998TIP3   OH2 8999   4.903   3.584   2.191 -0.2417 -0.3469  0.0950
 2998TIP3    H1 9000   4.957   3.624   2.123 -0.2616  1.4750  1.0771
 2998TIP3    H2 9001   4.833   3.648   2.207 -0.7584 -1.1414  1.1909
 2999TIP3   OH2 9002   1.441   2.755   3.204  0.2181 -0.2266  0.3851
 2999TIP3    H1 9003   1.405   2.704   3.277  1.3945 -1.6030  0.0610
 2999TIP3    H2 9004   1.526   2.785   3.236 -0.6937  2.1340  0.7887
 3000TIP3   OH2 9005   5.807   3.639   2.130 -0.0505  0.1578 -0.5711
 3000TIP3    H1 9006   5.798   3.558   2.180  0.0753  0.1518 -0.5560
 3000TIP3    H2 9007   5.836   3.704   2.194  3.3609 -0.5852 -1.1718
 3001TIP3   OH2 9008   4.792   1.876   3.982 -0.2259 -0.4728 -0.0587
 3001TIP3    H1 9009   4.826   1.935   3.915 -1.2971  1.1082  0.7448
 3001TIP3    H2 9010   4.727   1.822   3.935  0.2156 -0.5154 -0.6347
 3002TIP3   OH2 9011   3.085   5.268   2.584 -0.5584  0.3318  0.8518
 3002TIP3    H1 9012   3.010   5.234   2.537 -2.2926 -0.3785  3.8917
 3002TIP3    H2 9013   3.157   5.210   2.560 -0.9386  0.8169 -1.8354
 3003TIP3   OH2 9014   3.058   1.585   1.030  0.0656 -0.1839 -0.2788
 3003TIP3    H1 9015   2.997   1.520   0.995 -0.1137  0.5380 -1.3482
 3003TIP3    H2 9016   3.024   1.669   0.999  2.3592  0.1658 -2.1254
 3004TIP3   OH2 9017   1.329   0.080   0.775  0.7118 -0.1346  0.9905
 3004TIP3    H1 9018   1.256   0.137   0.800  0.7988 -0.9313  3.3371
 3004TIP3    H2 9019   1.294  -0.009   0.784  1.0769 -0.5295 -1.0061
 3005TIP3   OH2 9020   5.530   5.869   0.397  0.2952  0.0110 -0.2935
 3005TIP3    H1 9021   5.577   5.923   0.460 -1.8036  0.2240  1.1963
 3005TIP3    H2 9022   5.550   5.779   0.423  0.3899  0.0909 -0.0881
 3006TIP3   OH2 9023   3.875   4.151   4.029 -0.1531  0.3280 -0.2550
 3006TIP3    H1 9024   3.928   4.224   4.062 -1.4938  0.8329  0.8438
 3006TIP3    H2 9025   3.791   4.161   4.072 -0.0584 -2.5053  0.7292
 3007TIP3   OH2 9026   4.835   3.960   3.071  0.1562  0.4764  0.1968
 3007TIP3    H1 9027   4.803   3.958   3.162  0.0383  0.6935  0.1592
 3007TIP3    H2 9028   4.805   4.044   3.037 -1.0554 -0.2053 -0.5033
 3008TIP3   OH2 9029   5.853   4.351   5.110  0.2331  0.1047 -0.2302
 3008TIP3    H1 9030   5.763   4.329   5.136  0.7280  1.6342  3.4870
 3008TIP3    H2 9031   5.844   4.436   5.067 -0.1005  0.4807  0.5522
 3009TIP3   OH2 9032   0.262   2.564   1.451 -0.2154  0.4204 -0.2861
 3009TIP3    H1 9033   0.338   2.553   1.394  1.6360 -0.6788  2.1999
 3009TIP3    H2 9034   0.275   2.650   1.492 -0.8199  0.6293 -0.5200
 3010TIP3   OH2 9035   1.878   1.104   4.821 -0.2584 -0.2546  0.3339
 3010TIP3    H1 9036   1.878   1.023   4.872 -0.5985 -1.0930 -0.9618
 3010TIP3    H2 9037   1.816   1.089   4.750  0.3370  0.8105 -0.4564
 3011TIP3   OH2 9038   5.243   3.692   4.217 -0.1700 -0.3442  0.3743
 3011TIP3    H1 9039   5.228   3.741   4.137  1.6257  0.9868  0.7801
 3011TIP3    H2 9040   5.192   3.611   4.207 -0.5945  0.1506 -1.7352
 3012TIP3   OH2 9041   5.840   5.246   3.173  0.3008 -0.9536 -0.5340
 3012TIP3    H1 9042   5.922   5.257   3.124  0.2884  0.3211 -0.3064
 3012TIP3    H2 9043   5.796   5.330   3.165  0.9171 -0.1537  2.7454
 3013TIP3   OH2 9044   6.032   4.360   4.341  0.0198  0.1514 -0.4932
 3013TIP3    H1 9045   6.071   4.385   4.425  0.7850  0.8555 -1.0439
 3013TIP3    H2 9046   5.986   4.278   4.359 -0.1902  0.5175  0.7134
 3014TIP3   OH2 9047   5.549   4.663   1.658  0.0388 -0.3089  0.4216
 3014TIP3    H1 9048   5.581   4.746   1.695 -1.1528  0.5658 -0.4157
 3014TIP3    H2 9049   5.627   4.619   1.625  1.0596 -0.7724  3.1900
 3015TIP3   OH2 9050   2.088   4.411   4.928  0.4122  0.3842  0.4781
 3015TIP3    H1 9051   2.130   4.375   5.005  0.2333 -1.2352 -0.1302
 3015TIP3    H2 9052   2.159   4.450   4.877  0.8105 -0.1723  0.5990
 3016TIP3   OH2 9053   4.804   4.492   2.762 -0.1087 -0.3458 -0.2961
 3016TIP3    H1 9054   4.751   4.551   2.815  1.2600  0.4103  0.2749
 3016TIP3    H2 9055   4.751   4.412   2.755 -1.0339  0.1472  0.7897
 3017TIP3   OH2 9056   1.886   5.335   4.249 -0.4990  0.2661  0.0959
 3017TIP3    H1 9057   1.965   5.289   4.279  0.1657  1.5306  0.3616
 3017TIP3    H2 9058   1.862   5.291   4.168 -0.6585 -1.3753  0.9862
 3018TIP3   OH2 9059   6.099   0.556   2.793 -0.3383 -0.2585 -0.3058
 3018TIP3    H1 9060   6.131   0.517   2.874 -0.9234 -0.1527 -0.0164
 3018TIP3    H2 9061   6.167   0.619   2.768 -0.1443 -0.3112  0.0836
 3019TIP3   OH2 9062   5.121   4.219   1.740  0.3565  0.0108 -0.6343
 3019TIP3    H1 9063   5.135   4.314   1.741  0.7206 -0.0398 -0.9386
 3019TIP3    H2 9064   5.026   4.209   1.736  0.0723  0.3678  2.4300
 3020TIP3   OH2 9065   5.134   1.373   3.755  0.1651 -0.2672  0.4870
 3020TIP3    H1 9066   5.077   1.325   3.814 -0.4168  1.6438  1.5643
 3020TIP3    H2 9067   5.222   1.350   3.783  0.0475 -3.0983 -1.0682
 3021TIP3   OH2 9068   0.789   1.966   3.807 -0.1329  0.2282 -0.2357
 3021TIP3    H1 9069   0.877   1.999   3.826  0.1766 -0.0352 -1.1717
 3021TIP3    H2 9070   0.762   1.921   3.888  0.9826 -0.5193 -0.2563
 3022TIP3   OH2 9071   0.621   2.354   1.152  0.4162  0.4453  0.0180
 3022TIP3    H1 9072   0.713   2.328   1.165  0.8377  0.2884 -2.6856
 3022TIP3    H2 9073   0.624   2.420   1.082 -1.3166  2.6837  1.9070
 3023TIP3   OH2 9074   5.745   0.238   3.118  0.4704  0.2280  0.3044
 3023TIP3    H1 9075   5.668   0.190   3.088  2.2714 -1.3648 -2.2739
 3023TIP3    H2 9076   5.724   0.264   3.207 -2.2251 -1.9323  0.4431
 3024TIP3   OH2 9077   4.875   0.661   0.126  0.2644 -0.2312 -0.5427
 3024TIP3    H1 9078   4.858   0.749   0.160  1.0641 -0.4213  0.3925
 3024TIP3    H2 9079   4.962   0.639   0.158  0.0478 -1.4021 -0.6897
 3025TIP3   OH2 9080   4.455   2.620   2.409 -0.0760  0.0310 -0.2569
 3025TIP3    H1 9081   4.360   2.624   2.398 -0.2758  0.2667  1.4245
 3025TIP3    H2 9082   4.475   2.685   2.476  1.2583 -0.1337 -0.4618
 3026TIP3   OH2 9083   0.687   3.448   0.052  0.5517  0.2900  0.5831
 3026TIP3    H1 9084   0.754   3.444   0.120  0.5237 -0.1408  0.5879
 3026TIP3    H2 9085   0.604   3.442   0.099  0.5294  0.1006  0.5206
 3027TIP3   OH2 9086   1.530   1.118   0.156 -0.4942  0.0256 -0.1615
 3027TIP3    H1 9087   1.514   1.080   0.242 -0.8166 -0.1686 -0.3036
 3027TIP3    H2 9088   1.590   1.191   0.172  0.2528 -0.6315  0.0970
 3028TIP3   OH2 9089   0.637   2.768   3.111 -0.1627  0.1174  0.3675
 3028TIP3    H1 9090   0.718   2.766   3.161 -0.8083  0.5990  1.4802
 3028TIP3    H2 9091   0.587   2.693   3.145 -1.4221  1.5793  1.9484
 3029TIP3   OH2 9092   2.478   0.941   1.665 -0.0902  0.1255  0.2677
 3029TIP3    H1 9093   2.566   0.904   1.671  1.1192  2.4395 -1.8357
 3029TIP3    H2 9094   2.484   1.026   1.709 -1.3003  0.2984  0.1376
 3030TIP3   OH2 9095   1.100   1.984   2.278 -0.0441 -0.4770  0.1731
 3030TIP3    H1 9096   1.142   1.901   2.303 -0.5266 -0.1438  2.2270
 3030TIP3    H2 9097   1.172   2.047   2.272  0.1093 -0.6320  0.4058
 3031TIP3   OH2 9098   4.336   4.799   2.546  0.3283  0.2424  0.0420
 3031TIP3    H1 9099   4.403   4.742   2.584 -0.8306 -0.8230  0.5535
 3031TIP3    H2 9100   4.335   4.777   2.453 -0.8845 -1.4430  0.4127
 3032TIP3   OH2 9101   4.731   1.855   4.527 -0.4887  0.1691 -0.3004
 3032TIP3    H1 9102   4.735   1.939   4.481  0.1588 -0.3383 -1.2238
 3032TIP3    H2 9103   4.644   1.820   4.507 -0.3073  0.0723 -0.9485
 3033TIP3   OH2 9104   3.901   3.585   2.548  0.3582 -0.1188  0.2311
 3033TIP3    H1 9105   3.906   3.648   2.619 -0.0742  0.0587  0.1085
 3033TIP3    H2 9106   3.810   3.590   2.518 -0.3202 -2.3295  1.6273
 3034TIP3   OH2 9107   3.401   0.786   1.712  0.5635 -0.4582  0.1805
 3034TIP3    H1 9108   3.456   0.836   1.772  1.1840 -1.8528  0.8184
 3034TIP3    H2 9109   3.349   0.728   1.769 -0.3128 -0.3902 -0.5146
 3035TIP3   OH2 9110   2.877   3.717   2.729 -0.5928 -0.5521 -0.1366
 3035TIP3    H1 9111   2.942   3.650   2.709  0.5685  1.0437 -2.0325
 3035TIP3    H2 9112   2.899   3.790   2.671 -1.1541  1.9029  2.5013
 3036TIP3   OH2 9113   1.497   0.709   2.403 -0.3353 -0.0712 -0.1130
 3036TIP3    H1 9114   1.458   0.779   2.351 -0.7422 -0.3135 -0.1312
 3036TIP3    H2 9115   1.586   0.701   2.368 -0.1435  0.7195  0.1680
 3037TIP3   OH2 9116   3.158   5.845   1.434 -0.2909 -0.1923 -0.0513
 3037TIP3    H1 9117   3.239   5.817   1.391  0.3449  1.1731  0.1992
 3037TIP3    H2 9118   3.185   5.870   1.523 -1.3547 -1.6726  0.7402
 3038TIP3   OH2 9119   0.689   5.083   3.136 -0.0140 -0.4274 -0.0708
 3038TIP3    H1 9120   0.709   4.995   3.105 -1.6875 -0.6800 -0.5388
 3038TIP3    H2 9121   0.629   5.069   3.210 -0.2773  0.3104 -0.1349
 3039TIP3   OH2 9122   1.982   0.667   3.370  0.1842  0.3319  0.2514
 3039TIP3    H1 9123   1.918   0.638   3.305 -0.9760  0.3799  1.3295
 3039TIP3    H2 9124   1.943   0.643   3.454  1.6504  0.2657  0.9441
 3040TIP3   OH2 9125   5.195   2.328   1.035 -0.2677  0.4332 -0.2829
 3040TIP3    H1 9126   5.240   2.244   1.032  1.0619  1.1134 -0.2030
 3040TIP3    H2 9127   5.199   2.354   1.128  1.1425  1.4943 -0.6014
 3041TIP3   OH2 9128   0.559   3.687   3.291  0.7463  0.0925  0.3062
 3041TIP3    H1 9129   0.624   3.709   3.358  0.9516 -0.3185  0.2397
 3041TIP3    H2 9130   0.562   3.592   3.284  0.7920  0.1387 -0.3579
 3042TIP3   OH2 9131   5.566   4.495   3.428  0.2028  0.2281  0.0137
 3042TIP3    H1 9132   5.541   4.501   3.336  1.7822  1.1878 -0.3925
 3042TIP3    H2 9133   5.614   4.576   3.445  2.3973 -1.1550  0.8738
 3043TIP3   OH2 9134   4.673   1.230   3.854 -0.2352 -0.0534  0.3429
 3043TIP3    H1 9135   4.656   1.194   3.767  2.5465 -1.0020  0.0737
 3043TIP3    H2 9136   4.629   1.315   3.854 -0.6809 -0.2299 -1.8410
 3044TIP3   OH2 9137   1.150   0.151   4.092 -0.4739  0.2703 -0.3551
 3044TIP3    H1 9138   1.215   0.196   4.146 -0.4449 -1.2727  0.9836
 3044TIP3    H2 9139   1.068   0.159   4.141 -0.4945 -0.9554 -0.1408
 3045TIP3   OH2 9140   3.791   1.835   4.579  0.3936 -0.1011 -0.2740
 3045TIP3    H1 9141   3.764   1.769   4.642 -0.4232  0.5394  0.0775
 3045TIP3    H2 9142   3.810   1.913   4.633  0.0476  0.3423 -0.7816
 3046TIP3   OH2 9143   3.809   3.949   4.434  0.6297 -0.0591 -0.3124
 3046TIP3    H1 9144   3.714   3.944   4.423  0.6151  0.5256 -0.4887
 3046TIP3    H2 9145   3.834   3.861   4.461 -0.0574 -0.0281  0.4905
 3047TIP3   OH2 9146   4.612   4.691   2.881 -0.2859 -0.1052  0.5597
 3047TIP3    H1 9147   4.570   4.639   2.950  3.7441 -1.0698  2.6061
 3047TIP3    H2 9148   4.644   4.769   2.927  1.7506 -0.3465 -0.3688
 3048TIP3   OH2 9149   0.836   3.028   0.709  0.0962 -0.2699 -0.0221
 3048TIP3    H1 9150   0.753   3.069   0.732  0.4465  0.2980  0.2677
 3048TIP3    H2 9151   0.836   3.026   0.613 -1.3273 -2.5673 -0.0504
 3049TIP3   OH2 9152   5.566   1.909   3.240 -0.0515 -0.1249  0.1924
 3049TIP3    H1 9153   5.581   1.823   3.279  1.4590 -0.7128 -1.5647
 3049TIP3    H2 9154   5.653   1.949   3.238 -0.3225  0.4429 -1.2551
 3050TIP3   OH2 9155   4.232   3.623   3.360 -0.0717 -0.0115 -0.5929
 3050TIP3    H1 9156   4.242   3.588   3.272  0.6690  0.9904 -0.9303
 3050TIP3    H2 9157   4.197   3.550   3.411  1.7244 -1.3523 -1.1677
 3051TIP3   OH2 9158   5.141   4.548   4.004  0.3632  0.1032  0.1358
 3051TIP3    H1 9159   5.107   4.460   4.023  0.9887 -0.2325 -0.2551
 3051TIP3    H2 9160   5.204   4.564   4.074  1.5280 -0.4915 -0.7536
 3052TIP3   OH2 9161   3.802   3.810   3.284 -0.3306  0.0114  0.7363
 3052TIP3    H1 9162   3.880   3.850   3.322  0.0157  0.3659 -0.2983
 3052TIP3    H2 9163   3.828   3.720   3.264 -0.6515 -0.3133  1.7073
 3053TIP3   OH2 9164   5.813   3.080   0.850 -0.6062 -0.1760  0.0868
 3053TIP3    H1 9165   5.850   3.000   0.887  2.0259  0.5896 -0.6920
 3053TIP3    H2 9166   5.762   3.119   0.922  1.0726 -0.7330  1.6540
 3054TIP3   OH2 9167   1.013   2.272   3.337  0.6292  0.2834 -0.2086
 3054TIP3    H1 9168   0.936   2.224   3.306  0.7554 -0.3996  0.5035
 3054TIP3    H2 9169   1.050   2.311   3.258 -1.3065  1.9417 -0.3736
 3055TIP3   OH2 9170   0.052   2.233   0.173  0.3131  0.4593 -0.2496
 3055TIP3    H1 9171   0.019   2.148   0.144 -0.8906  0.8681 -0.1221
 3055TIP3    H2 9172   0.005   2.297   0.119 -0.4055  1.1291  1.1117
 3056TIP3   OH2 9173   0.696   0.870   2.037  0.5289 -0.4951  0.3415
 3056TIP3    H1 9174   0.669   0.936   2.100  1.4046 -2.7002  3.2197
 3056TIP3    H2 9175   0.650   0.894   1.956 -0.4385  2.6199  1.6570
 3057TIP3   OH2 9176   0.553   1.200   1.740 -0.6718  0.0923  0.1181
 3057TIP3    H1 9177   0.565   1.246   1.657 -1.3481  0.3470  0.1519
 3057TIP3    H2 9178   0.519   1.114   1.714  0.0771 -0.1959  0.0823
 3058TIP3   OH2 9179   3.307   4.335   0.360  0.0711 -0.6866 -0.6806
 3058TIP3    H1 9180   3.398   4.312   0.339  0.3949 -0.9918  0.9136
 3058TIP3    H2 9181   3.314   4.415   0.413 -0.5114 -1.1480  0.1176
 3059TIP3   OH2 9182   0.674   1.224   3.983  0.0634 -0.4033 -0.3219
 3059TIP3    H1 9183   0.720   1.299   4.021 -1.4574 -0.5229  1.9641
 3059TIP3    H2 9184   0.675   1.241   3.888 -0.2637  2.5390  0.1027
 3060TIP3   OH2 9185   6.222   2.991   0.325 -0.6036  0.4471  0.2548
 3060TIP3    H1 9186   6.213   3.009   0.419  0.1979 -0.1931  0.4665
 3060TIP3    H2 9187   6.167   3.057   0.283 -0.2399  1.3395  1.1296
 3061TIP3   OH2 9188   5.683   5.317   2.731 -0.4077 -0.5688  0.3523
 3061TIP3    H1 9189   5.625   5.381   2.774 -2.4054 -1.5744 -0.6954
 3061TIP3    H2 9190   5.630   5.237   2.726  1.0944 -1.5365 -0.6934
 3062TIP3   OH2 9191   2.184   1.589   0.532 -0.0818  0.4732  0.2417
 3062TIP3    H1 9192   2.206   1.647   0.458 -1.9327 -1.3370 -1.8556
 3062TIP3    H2 9193   2.091   1.603   0.547  0.1589  0.4710  2.0382
 3063TIP3   OH2 9194   2.833   3.527   2.419  0.5525 -0.0044  0.8374
 3063TIP3    H1 9195   2.882   3.568   2.490  2.2290  0.8666 -0.7370
 3063TIP3    H2 9196   2.840   3.589   2.347 -0.9990 -0.9154 -0.1619
 3064TIP3   OH2 9197   4.004   2.672   0.724  0.0313 -0.2178  0.1037
 3064TIP3    H1 9198   4.088   2.642   0.757  0.5386  0.8627 -0.1737
 3064TIP3    H2 9199   4.014   2.672   0.629 -0.1751  0.2252  0.0793
 3065TIP3   OH2 9200   0.663   5.083   0.252  0.0435 -0.4967 -0.0265
 3065TIP3    H1 9201   0.679   5.173   0.226  1.7756 -0.3515  1.3494
 3065TIP3    H2 9202   0.639   5.088   0.345 -1.3474 -1.3585 -0.2949
 3066TIP3   OH2 9203   3.794   4.456   3.232 -0.3666 -0.2005 -0.0801
 3066TIP3    H1 9204   3.882   4.466   3.269 -0.0166  1.0624 -1.1586
 3066TIP3    H2 9205   3.804   4.485   3.141 -2.1124  0.9408  0.0566
 3067TIP3   OH2 9206   4.206   1.182   1.579 -0.4852  0.4655  0.0043
 3067TIP3    H1 9207   4.131   1.125   1.563 -0.8532  0.9937 -0.1885
 3067TIP3    H2 9208   4.168   1.260   1.620 -0.1902  1.1398 -0.9538
 3068TIP3   OH2 9209   5.178   0.861   1.907  0.4970  0.3396  0.7660
 3068TIP3    H1 9210   5.120   0.785   1.918  0.0747  0.3861 -0.8948
 3068TIP3    H2 9211   5.145   0.906   1.829  0.7436  2.2503  1.7059
 3069TIP3   OH2 9212   5.950   1.010   1.684  0.4108 -0.2439 -0.1862
 3069TIP3    H1 9213   5.955   1.097   1.644 -1.9188 -0.0274 -0.1486
 3069TIP3    H2 9214   5.859   1.002   1.714  0.6907 -2.4916  0.2831
 3070TIP3   OH2 9215   1.836   5.417   1.970  0.2574  0.0662 -0.2156
 3070TIP3    H1 9216   1.814   5.467   1.892  3.8794  1.3985 -0.6029
 3070TIP3    H2 9217   1.877   5.481   2.029  1.2568 -1.6261  1.0364
 3071TIP3   OH2 9218   4.202   2.060   2.195 -0.3296 -0.2638 -0.3074
 3071TIP3    H1 9219   4.207   2.058   2.290  0.3829  1.0752 -0.3031
 3071TIP3    H2 9220   4.291   2.081   2.167 -0.8720  0.9591 -1.1997
 3072TIP3   OH2 9221   5.300   4.255   4.502  0.3802  0.2204  0.0311
 3072TIP3    H1 9222   5.256   4.173   4.482  0.3164  0.4373 -0.7407
 3072TIP3    H2 9223   5.249   4.294   4.573 -0.1078  0.0166 -0.2071
 3073TIP3   OH2 9224   0.274   3.420   2.709  0.0442 -0.9544 -0.2748
 3073TIP3    H1 9225   0.339   3.475   2.752 -0.3627 -1.5858  1.2486
 3073TIP3    H2 9226   0.192   3.469   2.716  0.3604 -0.0090 -2.4872
 3074TIP3   OH2 9227   5.540   1.880   1.915 -0.4031  0.2626  0.2647
 3074TIP3    H1 9228   5.624   1.913   1.947 -0.8804  0.5282  1.2882
 3074TIP3    H2 9229   5.503   1.832   1.990 -0.6562 -0.8356 -0.5334
 3075TIP3   OH2 9230   2.642   2.036   3.507  0.5323  0.1629 -0.8215
 3075TIP3    H1 9231   2.641   2.116   3.455 -0.5182  0.4995 -0.3081
 3075TIP3    H2 9232   2.560   1.991   3.484 -0.1562  0.5158  0.8110
 3076TIP3   OH2 9233   4.926   2.355   1.483  0.3790 -0.6832 -0.3309
 3076TIP3    H1 9234   4.926   2.435   1.536  2.1546 -0.3839 -0.7138
 3076TIP3    H2 9235   4.952   2.286   1.543  1.8320 -0.4339 -0.6106
 3077TIP3   OH2 9236   4.959   2.646   3.804 -0.5377 -0.5858  0.2018
 3077TIP3    H1 9237   4.867   2.636   3.780 -0.7694  0.3855  0.6034
 3077TIP3    H2 9238   4.971   2.741   3.815  1.1082 -0.4466 -2.1332
 3078TIP3   OH2 9239   3.314   4.217   2.950 -0.5341  0.0608  0.8311
 3078TIP3    H1 9240   3.399   4.231   2.910 -0.0310 -2.0655  1.0300
 3078TIP3    H2 9241   3.327   4.237   3.043  0.1284 -1.4482  1.0936
 3079TIP3   OH2 9242   2.113   5.999   2.874 -0.1002 -1.0435  0.0530
 3079TIP3    H1 9243   2.140   5.933   2.810  0.4666 -0.7317 -0.0318
 3079TIP3    H2 9244   2.066   5.949   2.941  0.2720 -1.5283 -0.0412
 3080TIP3   OH2 9245   2.095   5.781   1.118 -0.6819 -0.2241 -0.2025
 3080TIP3    H1 9246   2.162   5.759   1.053  0.9374  0.5237  1.1221
 3080TIP3    H2 9247   2.047   5.853   1.078  2.0421  2.1202  0.3796
 3081TIP3   OH2 9248   0.150   0.459   0.606  0.3588  0.2799 -0.2360
 3081TIP3    H1 9249   0.222   0.419   0.557  0.4210 -2.5548  1.9328
 3081TIP3    H2 9250   0.153   0.552   0.582  1.0857 -0.6338 -4.5822
 3082TIP3   OH2 9251   4.170   1.052   0.295 -0.3177  0.1512  0.4128
 3082TIP3    H1 9252   4.089   1.100   0.313 -2.1861 -2.5552 -0.0783
 3082TIP3    H2 9253   4.213   1.102   0.225 -1.2423  1.9572  1.0731
 3083TIP3   OH2 9254   3.627   0.096   2.106 -0.5246 -0.8322  0.3085
 3083TIP3    H1 9255   3.709   0.144   2.111  0.0780 -1.9371  1.5592
 3083TIP3    H2 9256   3.601   0.081   2.197 -0.8116 -2.6284 -0.0219
 3084TIP3   OH2 9257   2.188   5.830   3.132 -0.2200 -0.5657  0.8013
 3084TIP3    H1 9258   2.260   5.884   3.164 -0.6914  1.2312 -1.0132
 3084TIP3    H2 9259   2.143   5.801   3.212 -0.0335  1.8584  1.8704
 3085TIP3   OH2 9260   6.159   4.900   1.863  0.2164 -1.1222 -0.2300
 3085TIP3    H1 9261   6.068   4.930   1.859  0.1392 -1.1019  1.3738
 3085TIP3    H2 9262   6.163   4.843   1.940  1.3572 -1.8642 -0.8038
 3086TIP3   OH2 9263   6.277   2.321   1.861 -0.4720 -0.5019  0.4585
 3086TIP3    H1 9264   6.340   2.254   1.836  0.0881 -0.5940  1.9750
 3086TIP3    H2 9265   6.192   2.276   1.858  0.0010 -1.7287  2.6278
 3087TIP3   OH2 9266   3.842   0.336   3.788 -0.0306 -0.2598 -1.0317
 3087TIP3    H1 9267   3.839   0.250   3.829 -0.4016 -0.2529 -1.0337
 3087TIP3    H2 9268   3.871   0.395   3.859  0.5255 -0.4289 -1.1162
 3088TIP3   OH2 9269   5.972   5.035   1.001 -0.3357 -0.1572 -0.4638
 3088TIP3    H1 9270   5.891   5.087   0.999 -0.7035 -0.7467 -1.7415
 3088TIP3    H2 9271   5.964   4.981   1.080 -1.8724 -1.2559 -1.3302
 3089TIP3   OH2 9272   1.663   1.083   4.238 -0.2295  0.1194 -0.3648
 3089TIP3    H1 9273   1.680   0.996   4.273 -0.9078 -1.1225 -2.8601
 3089TIP3    H2 9274   1.747   1.110   4.201 -0.7487 -1.0279 -2.5650
 3090TIP3   OH2 9275   2.976   2.285   0.416 -0.0960 -0.3688 -0.0440
 3090TIP3    H1 9276   3.035   2.212   0.434 -0.2917 -0.2060  1.3753
 3090TIP3    H2 9277   2.914   2.250   0.351  0.4189 -1.1309 -0.1424
 3091TIP3   OH2 9278   2.232   4.666   4.650  0.3010 -0.6668  0.0678
 3091TIP3    H1 9279   2.203   4.618   4.572  1.3379 -0.4221 -0.4848
 3091TIP3    H2 9280   2.281   4.602   4.701  1.5559 -0.2615 -0.5965
 3092TIP3   OH2 9281   0.057   0.761   1.750  0.4764 -0.5869 -1.2106
 3092TIP3    H1 9282   0.139   0.806   1.770  0.3570 -0.8435 -0.1043
 3092TIP3    H2 9283   0.080   0.668   1.750  0.3093 -0.6306 -1.5235
 3093TIP3   OH2 9284   3.286   0.104   2.674  0.4233  0.2658  0.6228
 3093TIP3    H1 9285   3.381   0.099   2.682  0.4542 -0.5161 -0.0674
 3093TIP3    H2 9286   3.269   0.087   2.581 -0.6313 -4.5778  1.4084
 3094TIP3   OH2 9287   5.838   4.514   2.375 -0.8099  0.3181  0.1901
 3094TIP3    H1 9288   5.913   4.534   2.319  0.0645  2.3884  1.9672
 3094TIP3    H2 9289   5.771   4.483   2.314  0.8736  0.1238 -1.6761
 3095TIP3   OH2 9290   2.102   3.388   2.572  0.1433  0.1677 -0.2193
 3095TIP3    H1 9291   2.161   3.460   2.594  0.4053  0.3303 -1.4223
 3095TIP3    H2 9292   2.014   3.421   2.591  0.3608  0.2243  0.7611
 3096TIP3   OH2 9293   2.840   4.098   1.784  0.1042 -0.9817 -0.2590
 3096TIP3    H1 9294   2.886   4.166   1.832  0.2603 -0.4429 -1.1494
 3096TIP3    H2 9295   2.783   4.057   1.849  1.4078 -1.2953  0.7409
 3097TIP3   OH2 9296   5.489   5.644   1.002  0.1433  0.1693  0.5767
 3097TIP3    H1 9297   5.451   5.715   0.950  0.9513  0.3190  0.1790
 3097TIP3    H2 9298   5.445   5.565   0.969 -1.2115  0.5205  1.4423
 3098TIP3   OH2 9299   0.691   2.453   2.832  0.6323  0.9073 -0.1703
 3098TIP3    H1 9300   0.699   2.417   2.920 -2.0312  2.3593  0.7792
 3098TIP3    H2 9301   0.614   2.410   2.795  1.5300  0.5409 -1.7203
 3099TIP3   OH2 9302   0.257   0.143   1.589  0.7223  0.4874 -0.2421
 3099TIP3    H1 9303   0.205   0.123   1.667  0.9462  0.9814  0.0420
 3099TIP3    H2 9304   0.222   0.085   1.521  1.0040 -0.4811  0.4098
 3100TIP3   OH2 9305   0.759   3.019   0.440 -0.7697 -0.0062 -0.0941
 3100TIP3    H1 9306   0.742   3.095   0.383  1.1427 -0.2407 -1.0703
 3100TIP3    H2 9307   0.779   2.948   0.379 -0.8439 -0.8428  0.8447
 3101TIP3   OH2 9308   3.341   3.496   3.918  0.0232 -0.4475 -0.4038
 3101TIP3    H1 9309   3.407   3.436   3.952 -1.1982 -1.5480  0.0927
 3101TIP3    H2 9310   3.276   3.439   3.876 -0.6354  0.6063 -0.8601
 3102TIP3   OH2 9311   3.634   0.799   3.904  0.7898  0.0718  0.0029
 3102TIP3    H1 9312   3.604   0.809   3.994 -0.1050  1.7624 -0.4348
 3102TIP3    H2 9313   3.657   0.707   3.896 -1.7240 -0.7522  1.1981
 3103TIP3   OH2 9314   2.254   0.108   4.199  0.2200 -0.5515 -0.4394
 3103TIP3    H1 9315   2.230   0.027   4.243  0.3033  0.2394  1.1376
 3103TIP3    H2 9316   2.349   0.103   4.189  0.2391 -0.5908 -0.2329
 3104TIP3   OH2 9317   5.904   1.405   1.000  0.1829 -0.5296 -0.0906
 3104TIP3    H1 9318   5.869   1.394   1.088  0.4709 -1.9585 -0.1224
 3104TIP3    H2 9319   5.831   1.440   0.949 -0.5368 -1.3529  0.3441
 3105TIP3   OH2 9320   5.939   2.022   3.671  0.2357 -0.0888 -0.3168
 3105TIP3    H1 9321   5.884   2.096   3.696  1.3578  0.5588  0.3138
 3105TIP3    H2 9322   5.938   2.022   3.576  0.9270  1.3060 -0.3457
 3106TIP3   OH2 9323   0.211   5.696   4.780  0.1219  0.1564  0.8131
 3106TIP3    H1 9324   0.121   5.666   4.791  0.5683 -1.4484  0.2716
 3106TIP3    H2 9325   0.203   5.784   4.744 -1.2990 -1.2753 -2.7891
 3107TIP3   OH2 9326   0.647   3.947   2.417  0.1234 -0.2117  0.3846
 3107TIP3    H1 9327   0.598   4.011   2.467 -1.0170 -0.9114  0.1981
 3107TIP3    H2 9328   0.595   3.867   2.422  0.7044 -0.6900 -0.7097
 3108TIP3   OH2 9329   0.267   2.048   4.373 -0.0178  0.4891 -0.0697
 3108TIP3    H1 9330   0.332   2.119   4.375 -0.7137  1.1364  1.1471
 3108TIP3    H2 9331   0.293   1.994   4.299  0.7074  1.8575 -0.8596
 3109TIP3   OH2 9332   5.858   0.790   0.819 -0.1130 -0.4263 -0.0157
 3109TIP3    H1 9333   5.953   0.803   0.822  0.1494 -2.3032  0.7646
 3109TIP3    H2 9334   5.846   0.696   0.823 -2.0285 -0.2344 -0.3507
 3110TIP3   OH2 9335   6.219   4.395   4.099  0.0217 -0.1522 -0.1266
 3110TIP3    H1 9336   6.189   4.467   4.043  0.0834 -0.5941 -0.7439
 3110TIP3    H2 9337   6.139   4.361   4.139 -0.1425 -0.4102 -0.6577
 3111TIP3   OH2 9338   5.098   5.692   0.507  0.1180  0.5412  0.3714
 3111TIP3    H1 9339   5.101   5.692   0.412  0.1312  0.5714  0.3715
 3111TIP3    H2 9340   5.084   5.784   0.530  1.4366  0.7472  0.4300
 3112TIP3   OH2 9341   4.724   5.409   1.660 -0.7401 -0.1292  0.2766
 3112TIP3    H1 9342   4.672   5.488   1.675 -2.1102 -0.8004 -0.7238
 3112TIP3    H2 9343   4.722   5.363   1.743  0.0606  0.8635  0.8673
 3113TIP3   OH2 9344   1.201   5.193   1.804  0.2640  0.3162  0.3166
 3113TIP3    H1 9345   1.288   5.159   1.783 -0.0166 -0.3441  0.1945
 3113TIP3    H2 9346   1.217   5.276   1.848  0.9368  0.6759 -0.5670
 3114TIP3   OH2 9347   5.426   0.125   3.730  0.2943  0.9863 -0.0270
 3114TIP3    H1 9348   5.336   0.150   3.710  0.6197  1.2999 -1.1807
 3114TIP3    H2 9349   5.474   0.209   3.734  0.2027  1.0108  2.5833
 3115TIP3   OH2 9350   4.355   0.125   3.389 -0.0198 -0.2906  0.5192
 3115TIP3    H1 9351   4.385   0.082   3.468 -0.5893 -2.1948 -0.2509
 3115TIP3    H2 9352   4.270   0.084   3.370  0.8328 -1.0837 -1.9305
 3116TIP3   OH2 9353   5.154   4.195   2.807  0.1375  0.2557 -0.0927
 3116TIP3    H1 9354   5.246   4.200   2.781  0.2630 -0.8424  0.0921
 3116TIP3    H2 9355   5.140   4.273   2.861  1.4746 -0.4787  1.3823
 3117TIP3   OH2 9356   6.007   1.617   4.683  0.0033 -0.0047  0.5913
 3117TIP3    H1 9357   5.943   1.592   4.749  0.1270 -1.0277  0.3530
 3117TIP3    H2 9358   6.075   1.663   4.731 -0.9203  1.1368  0.8410
 3118TIP3   OH2 9359   1.977   1.206   1.032  0.2764 -0.0984  0.2914
 3118TIP3    H1 9360   2.037   1.275   1.060 -0.5347  0.3037  1.0690
 3118TIP3    H2 9361   1.955   1.229   0.941  0.6840  0.1752  0.2577
 3119TIP3   OH2 9362   1.890   0.180   4.964  0.4911 -0.8220 -0.2185
 3119TIP3    H1 9363   1.891   0.262   4.916 -0.1190 -0.2417  0.7335
 3119TIP3    H2 9364   1.981   0.150   4.962  0.6847 -0.2187 -0.7070
 3120TIP3   OH2 9365   3.376   1.542   2.446 -0.8995  0.2191 -0.5909
 3120TIP3    H1 9366   3.342   1.455   2.425 -1.6289 -0.0694  1.5233
 3120TIP3    H2 9367   3.313   1.578   2.508 -0.0404  1.8422 -0.6060
 3121TIP3   OH2 9368   3.787   2.129   4.313 -0.2181 -0.6855  0.3871
 3121TIP3    H1 9369   3.737   2.181   4.375 -0.2907 -1.5388  1.0652
 3121TIP3    H2 9370   3.744   2.043   4.313 -0.8186 -0.4363 -1.5746
 3122TIP3   OH2 9371   0.350   1.269   2.355 -0.0946  0.0807 -0.3180
 3122TIP3    H1 9372   0.402   1.290   2.432  0.9621 -0.2654 -0.9178
 3122TIP3    H2 9373   0.281   1.335   2.354  0.4811  0.7102  0.3546
 3123TIP3   OH2 9374   2.726   1.891   4.296  0.1097 -0.0419  0.7072
 3123TIP3    H1 9375   2.704   1.968   4.242  0.3873  0.0230  0.6846
 3123TIP3    H2 9376   2.822   1.891   4.299  0.1816 -1.3050 -0.6325
 3124TIP3   OH2 9377   5.967   1.590   0.222 -0.2938  0.2529 -0.2852
 3124TIP3    H1 9378   5.899   1.589   0.290  0.5170 -0.3045  0.5385
 3124TIP3    H2 9379   5.983   1.497   0.203  0.7885  0.3469  0.1100
 3125TIP3   OH2 9380   2.147   4.398   2.519  0.0383 -0.1496 -0.1095
 3125TIP3    H1 9381   2.154   4.483   2.562 -0.0775  0.5874 -1.5198
 3125TIP3    H2 9382   2.169   4.335   2.588  1.7094  1.0946  0.5516
 3126TIP3   OH2 9383   5.351   2.071   3.343 -0.1662  0.4812 -0.0626
 3126TIP3    H1 9384   5.278   2.041   3.290 -0.5546 -0.2426  0.8407
 3126TIP3    H2 9385   5.400   1.991   3.363  0.2295  0.8043  0.2771
 3127TIP3   OH2 9386   2.824   0.391   4.992 -0.5708 -0.4935  0.1779
 3127TIP3    H1 9387   2.815   0.304   4.954  1.3419  0.1768 -2.0800
 3127TIP3    H2 9388   2.888   0.381   5.062  0.3158 -0.7687 -0.6596
 3128TIP3   OH2 9389   3.992   1.247   1.216  0.0490  0.1420 -0.0727
 3128TIP3    H1 9390   3.976   1.154   1.201  1.6704  0.0275 -1.3151
 3128TIP3    H2 9391   3.960   1.262   1.305 -1.7352 -1.2109 -0.4114
 3129TIP3   OH2 9392   1.340   0.083   2.332 -0.7014 -0.1805  0.2080
 3129TIP3    H1 9393   1.339   0.001   2.383 -0.9580 -0.4524 -0.2331
 3129TIP3    H2 9394   1.307   0.149   2.394 -0.3201 -0.3720  0.6240
 3130TIP3   OH2 9395   5.107   4.699   4.328  0.0325 -0.1112 -0.3510
 3130TIP3    H1 9396   5.045   4.700   4.401 -0.0548  1.4225 -0.4191
 3130TIP3    H2 9397   5.120   4.606   4.309  0.0038 -0.5543  1.5729
 3131TIP3   OH2 9398   2.010   3.917   1.118 -0.0715 -0.2811  0.4804
 3131TIP3    H1 9399   1.997   4.011   1.121  1.5509 -0.0476  1.3102
 3131TIP3    H2 9400   2.006   3.889   1.210 -0.6349 -1.0420  0.2361
 3132TIP3   OH2 9401   2.059   1.694   2.037 -0.1726 -0.0955 -0.2374
 3132TIP3    H1 9402   2.147   1.707   2.074 -0.7710  3.0122  0.4520
 3132TIP3    H2 9403   2.016   1.633   2.097  0.5906  0.7327  1.2106
 3133TIP3   OH2 9404   1.272   4.915   2.823  0.4487  0.3009 -0.3094
 3133TIP3    H1 9405   1.312   4.901   2.737 -1.3779 -3.8834 -0.7369
 3133TIP3    H2 9406   1.272   4.828   2.863 -2.6899  1.2544  2.1101
 3134TIP3   OH2 9407   3.722   2.694   5.038  0.0884  0.6807  0.0764
 3134TIP3    H1 9408   3.714   2.712   4.945 -0.7351 -0.7483 -0.1539
 3134TIP3    H2 9409   3.637   2.660   5.064 -0.4135  2.9621  1.8380
 3135TIP3   OH2 9410   3.068   1.391   3.511  0.3470 -0.1648 -0.2012
 3135TIP3    H1 9411   2.995   1.363   3.567 -0.2218  0.4283 -0.6389
 3135TIP3    H2 9412   3.026   1.433   3.436  1.1419  0.2646 -0.4137
 3136TIP3   OH2 9413   4.933   2.008   3.346  0.2950  0.5733 -0.4723
 3136TIP3    H1 9414   4.999   2.054   3.293  1.9133 -0.1691  0.8275
 3136TIP3    H2 9415   4.936   1.918   3.315  0.9402  0.2299  0.5385
 3137TIP3   OH2 9416   3.303   0.563   3.469  0.3139 -0.2237 -0.2332
 3137TIP3    H1 9417   3.241   0.558   3.397 -0.1691 -0.0379  0.1711
 3137TIP3    H2 9418   3.316   0.656   3.484  0.4603 -0.2620 -0.1162
 3138TIP3   OH2 9419   0.769   4.865   5.167  0.4582 -0.0028  0.2561
 3138TIP3    H1 9420   0.743   4.925   5.096  0.7227 -0.6866 -0.4292
 3138TIP3    H2 9421   0.686   4.834   5.203  0.2859  1.5956  1.3647
 3139TIP3   OH2 9422   2.874   3.274   2.719  0.8370  0.4212  0.1691
 3139TIP3    H1 9423   2.860   3.293   2.812 -0.1013  2.3975 -0.3332
 3139TIP3    H2 9424   2.839   3.185   2.708 -1.6741  1.1896  1.1770
 3140TIP3   OH2 9425   5.319   0.999   0.186 -0.5439  0.4615 -0.6348
 3140TIP3    H1 9426   5.340   1.093   0.190 -0.1655  0.3434  0.3825
 3140TIP3    H2 9427   5.224   0.996   0.182 -0.9126  0.8752  3.4556
 3141TIP3   OH2 9428   1.125   5.725   3.038  0.3735 -0.6858  0.4888
 3141TIP3    H1 9429   1.124   5.664   3.112  0.6760  0.6390  1.6321
 3141TIP3    H2 9430   1.178   5.799   3.069  1.1897 -0.4456 -1.3548
 3142TIP3   OH2 9431   1.092   0.301   2.783  0.3813  0.2398 -0.1245
 3142TIP3    H1 9432   1.111   0.394   2.769  0.6683  0.1878 -0.0937
 3142TIP3    H2 9433   1.002   0.290   2.753 -0.3574  0.9524  1.6693
 3143TIP3   OH2 9434   5.169   4.758   2.572 -0.0731 -0.6768 -0.7184
 3143TIP3    H1 9435   5.089   4.723   2.612  0.5605 -1.5235 -0.1798
 3143TIP3    H2 9436   5.240   4.714   2.617  0.6885 -0.7986 -1.9850
 3144TIP3   OH2 9437   6.137   3.947   3.522  0.6872  0.6524 -0.1470
 3144TIP3    H1 9438   6.125   3.854   3.504  2.6311 -0.1270  2.0314
 3144TIP3    H2 9439   6.103   3.992   3.445  0.7274 -1.9068 -1.7494
 3145TIP3   OH2 9440   0.298   4.630   2.468  0.0580 -0.3651  0.1106
 3145TIP3    H1 9441   0.226   4.692   2.477  0.5171  0.7438 -2.8166
 3145TIP3    H2 9442   0.352   4.645   2.546  0.6618  3.7123 -0.8398
 3146TIP3   OH2 9443   4.180   5.406   0.017  0.3003 -0.0918  0.4583
 3146TIP3    H1 9444   4.267   5.381   0.048 -0.2781 -2.5795  0.2300
 3146TIP3    H2 9445   4.122   5.339   0.051 -1.5333  1.4042  0.4217
 3147TIP3   OH2 9446   4.637   0.478   4.925  0.3130  0.6636 -0.6752
 3147TIP3    H1 9447   4.561   0.534   4.913 -1.6244 -1.9282 -1.4160
 3147TIP3    H2 9448   4.605   0.404   4.977  1.6522 -1.5949 -2.8150
 3148TIP3   OH2 9449   4.733   3.642   2.797  0.3987 -0.4906  0.0590
 3148TIP3    H1 9450   4.821   3.651   2.761  0.7699 -1.9068  0.5382
 3148TIP3    H2 9451   4.676   3.680   2.730  1.1815 -1.8527 -1.4478
 3149TIP3   OH2 9452   4.545   0.975   2.999 -0.4486 -0.3295 -0.7150
 3149TIP3    H1 9453   4.570   1.007   3.086 -1.6166  0.3232 -0.5932
 3149TIP3    H2 9454   4.613   0.912   2.976 -0.2850 -0.7422  0.7991
 3150TIP3   OH2 9455   6.020   3.138   3.513 -0.3132  0.3671  0.7753
 3150TIP3    H1 9456   6.044   3.046   3.498  0.2893  0.5670  0.4541
 3150TIP3    H2 9457   5.950   3.134   3.579 -0.5024 -0.3354  0.5445
 3151TIP3   OH2 9458   0.742   4.285   0.713  0.1978  0.2111  0.0549
 3151TIP3    H1 9459   0.648   4.305   0.708 -0.1502 -0.9104  1.5283
 3151TIP3    H2 9460   0.772   4.333   0.791  1.1256  1.4752 -1.0328
 3152TIP3   OH2 9461   2.485   1.386   3.214 -0.5285 -0.0722 -0.0384
 3152TIP3    H1 9462   2.431   1.436   3.152 -0.2876  1.2015  0.7374
 3152TIP3    H2 9463   2.432   1.381   3.293 -0.7754 -1.5681 -0.2772
 3153TIP3   OH2 9464   3.384   0.168   1.566  0.2922 -0.4799 -0.0330
 3153TIP3    H1 9465   3.334   0.086   1.571  1.8009 -1.5654 -1.7551
 3153TIP3    H2 9466   3.437   0.169   1.646  0.6882 -1.4933 -0.2736
 3154TIP3   OH2 9467   5.705   3.002   3.052  0.2538 -0.0739  0.1355
 3154TIP3    H1 9468   5.702   2.989   2.957  3.6199 -0.9072  0.0064
 3154TIP3    H2 9469   5.730   3.093   3.063 -2.6311  0.7854  0.4138
 3155TIP3   OH2 9470   4.647   2.096   4.351 -0.0340 -0.4460 -0.1391
 3155TIP3    H1 9471   4.596   2.027   4.309  1.3784 -1.5385 -0.1343
 3155TIP3    H2 9472   4.683   2.147   4.279 -1.6787  0.8117 -0.1415
 3156TIP3   OH2 9473   6.112   2.029   3.065 -0.0972 -0.0200 -0.1030
 3156TIP3    H1 9474   6.126   1.984   2.981  0.3195  1.6297 -0.9454
 3156TIP3    H2 9475   6.073   2.113   3.042  0.6343  0.7495  1.3009
 3157TIP3   OH2 9476   1.007   5.050   4.631  0.1791 -0.1175 -0.3784
 3157TIP3    H1 9477   1.029   4.957   4.631  0.7581  0.0084  0.2278
 3157TIP3    H2 9478   1.086   5.093   4.601  0.7297  0.3222  1.5359
 3158TIP3   OH2 9479   4.517   5.444   2.492  0.0423  0.1898 -0.1798
 3158TIP3    H1 9480   4.562   5.525   2.514  1.1459  0.0604 -1.7560
 3158TIP3    H2 9481   4.507   5.447   2.397  0.9104 -1.8743 -0.4004
 3159TIP3   OH2 9482   3.462   2.264   1.794 -0.6992  0.5268  0.1517
 3159TIP3    H1 9483   3.516   2.268   1.872  0.0669  2.4674 -0.4275
 3159TIP3    H2 9484   3.472   2.174   1.763  3.1792  1.0357 -0.5496
 3160TIP3   OH2 9485   4.453   1.824   2.303 -0.4198 -0.4467  0.2515
 3160TIP3    H1 9486   4.379   1.841   2.361 -1.1158  1.4919 -1.1004
 3160TIP3    H2 9487   4.497   1.909   2.295  1.6818 -1.4324  0.5995
 3161TIP3   OH2 9488   0.694   0.249   1.313 -0.0041 -0.2289  0.1489
 3161TIP3    H1 9489   0.746   0.234   1.392 -0.7369 -1.1419  0.4656
 3161TIP3    H2 9490   0.646   0.330   1.331 -0.9748 -0.9961  1.0775
 3162TIP3   OH2 9491   1.359   3.930   4.484  0.7220 -0.2991 -0.2498
 3162TIP3    H1 9492   1.400   3.911   4.569 -1.3604  0.3788  1.0037
 3162TIP3    H2 9493   1.428   3.917   4.420  2.7967  0.5933  1.6725
 3163TIP3   OH2 9494   2.204   3.284   3.777 -0.1506 -0.0507  0.5653
 3163TIP3    H1 9495   2.298   3.284   3.761  0.1489 -1.5167  2.1322
 3163TIP3    H2 9496   2.167   3.235   3.703  0.3094  0.3926  0.0295
 3164TIP3   OH2 9497   1.066   3.094   1.465 -0.3933 -0.2306 -0.2883
 3164TIP3    H1 9498   1.152   3.060   1.491  0.2604  0.7837 -1.0390
 3164TIP3    H2 9499   1.013   3.088   1.544  0.0772 -1.7571 -0.0655
 3165TIP3   OH2 9500   0.200   0.659   4.994  0.0873 -0.0138 -0.8410
 3165TIP3    H1 9501   0.172   0.569   5.010  2.1434 -0.3845  1.3014
 3165TIP3    H2 9502   0.295   0.652   4.985  0.1955  1.8568 -1.4189
 3166TIP3   OH2 9503   1.169   0.587   2.849  0.0494 -0.2032 -0.3260
 3166TIP3    H1 9504   1.257   0.611   2.820 -0.1007  0.2074 -0.4542
 3166TIP3    H2 9505   1.121   0.669   2.848 -0.7707 -0.6642 -1.7812
 3167TIP3   OH2 9506   0.365   1.490   2.141 -0.2808 -0.2899  0.5331
 3167TIP3    H1 9507   0.270   1.487   2.130 -0.2466 -0.1185  0.1579
 3167TIP3    H2 9508   0.380   1.561   2.202 -0.3643  0.0542  0.1605
 3168TIP3   OH2 9509   3.393   0.045   0.831  0.1817 -1.0368  0.1457
 3168TIP3    H1 9510   3.323   0.109   0.842  2.2759  1.8796 -1.9078
 3168TIP3    H2 9511   3.376  -0.021   0.898 -2.9886  0.8571  1.4384
 3169TIP3   OH2 9512   0.592   4.303   1.471 -0.3729 -0.6849 -0.0537
 3169TIP3    H1 9513   0.610   4.297   1.377  0.8571 -2.2842  0.2432
 3169TIP3    H2 9514   0.519   4.243   1.485  0.8601 -2.1611  0.3077
 3170TIP3   OH2 9515   5.039   0.724   3.607 -0.3473  0.4752  0.5200
 3170TIP3    H1 9516   5.027   0.758   3.519 -0.8323  1.9473  1.1190
 3170TIP3    H2 9517   5.106   0.781   3.646  1.1529 -1.2472  0.5605
 3171TIP3   OH2 9518   3.998   5.262   3.006  0.6935  0.1963  0.7352
 3171TIP3    H1 9519   4.011   5.330   2.940 -1.4147 -0.5459 -0.5378
 3171TIP3    H2 9520   4.012   5.307   3.090 -0.6912  2.2720 -0.0554
 3172TIP3   OH2 9521   0.419   3.827   1.234  0.2946 -0.6149  0.3457
 3172TIP3    H1 9522   0.447   3.858   1.148  1.5585 -2.2083  0.1360
 3172TIP3    H2 9523   0.352   3.761   1.214 -0.3813 -0.0439  0.6695
 3173TIP3   OH2 9524   4.573   5.831   4.348  0.2377 -0.2935  0.6359
 3173TIP3    H1 9525   4.527   5.760   4.392  1.6591 -0.8805  1.2628
 3173TIP3    H2 9526   4.658   5.793   4.324  0.4224  0.7426 -0.4229
 3174TIP3   OH2 9527   0.277   2.292   2.090 -0.2421  0.4282 -0.3644
 3174TIP3    H1 9528   0.203   2.237   2.119 -1.0798  2.1002  0.8337
 3174TIP3    H2 9529   0.354   2.251   2.129 -0.7191 -0.4282 -0.2881
 3175TIP3   OH2 9530   6.264   1.160   0.142  0.7357 -0.2074 -0.3205
 3175TIP3    H1 9531   6.343   1.124   0.101  0.0282 -2.1172 -0.1145
 3175TIP3    H2 9532   6.280   1.153   0.236  0.6311  0.1406 -0.2743
 3176TIP3   OH2 9533   4.809   0.303   0.519 -0.1259  0.7656 -0.5559
 3176TIP3    H1 9534   4.804   0.304   0.614 -1.1818  0.9133 -0.6056
 3176TIP3    H2 9535   4.771   0.386   0.492  0.9409  1.0939 -1.0815
 3177TIP3   OH2 9536   5.509   2.040   2.320  0.1627  0.3339  0.1596
 3177TIP3    H1 9537   5.511   2.000   2.407 -1.2976 -1.0812 -0.4035
 3177TIP3    H2 9538   5.418   2.068   2.309  0.5002  1.1684 -0.6423
 3178TIP3   OH2 9539   1.942   2.040   2.547 -0.5701 -0.1109 -0.5224
 3178TIP3    H1 9540   1.899   2.092   2.479  1.0278  0.7418 -0.9217
 3178TIP3    H2 9541   1.970   1.961   2.502  1.2445  0.8180 -1.1428
 3179TIP3   OH2 9542   3.531   5.472   1.395  0.0525 -0.2063 -0.3929
 3179TIP3    H1 9543   3.567   5.398   1.444 -1.0954 -0.2513  0.4041
 3179TIP3    H2 9544   3.531   5.442   1.304  0.2106 -0.9299 -0.1655
 3180TIP3   OH2 9545   1.928   2.143   2.834 -0.5266  0.6948 -0.2835
 3180TIP3    H1 9546   1.917   2.126   2.740  1.6607  0.6473 -0.5780
 3180TIP3    H2 9547   1.877   2.075   2.877  1.7282 -1.9359 -1.4653
 3181TIP3   OH2 9548   5.835   0.996   0.622  0.7788  0.4243  0.0547
 3181TIP3    H1 9549   5.857   0.958   0.538 -0.7648  0.5242 -0.4272
 3181TIP3    H2 9550   5.848   0.925   0.685  1.1053  0.0883 -0.3907
 3182TIP3   OH2 9551   4.130   1.616   2.626  0.0243  0.2700  0.4776
 3182TIP3    H1 9552   4.204   1.597   2.683  1.5525 -0.0882 -1.5104
 3182TIP3    H2 9553   4.169   1.660   2.550 -2.0233  1.4408  0.0364
 3183TIP3   OH2 9554   2.836   2.996   5.046  0.1636  0.0785 -0.1907
 3183TIP3    H1 9555   2.766   2.932   5.033  0.6946 -0.6052  0.2298
 3183TIP3    H2 9556   2.854   2.994   5.140 -0.1426  1.2200 -0.0937
 3184TIP3   OH2 9557   3.400   2.547   3.318 -0.3414 -0.0613 -0.6742
 3184TIP3    H1 9558   3.392   2.468   3.264 -1.4258  1.1984 -2.5005
 3184TIP3    H2 9559   3.330   2.605   3.286  0.7666  1.8637  0.1829
 3185TIP3   OH2 9560   3.607   4.140   4.112 -0.2459 -0.1519  0.5256
 3185TIP3    H1 9561   3.553   4.134   4.190  1.1403 -2.3174  1.4021
 3185TIP3    H2 9562   3.546   4.161   4.041 -1.6285  1.0970  2.0237
 3186TIP3   OH2 9563   3.299   4.249   4.734  0.5873 -0.4693 -0.2198
 3186TIP3    H1 9564   3.381   4.292   4.712 -0.0492  0.0453 -1.7548
 3186TIP3    H2 9565   3.297   4.172   4.677 -0.1630 -0.2615 -0.4920
 3187TIP3   OH2 9566   1.897   1.346   2.908 -0.4662  0.0491  0.2567
 3187TIP3    H1 9567   1.919   1.253   2.904  2.1475  0.6315 -1.4038
 3187TIP3    H2 9568   1.916   1.371   2.998  0.8721 -0.6185  0.1822
 3188TIP3   OH2 9569   3.013   3.667   4.551 -0.3187 -0.3104 -0.0423
 3188TIP3    H1 9570   3.007   3.576   4.522 -3.1141 -0.8106  1.7472
 3188TIP3    H2 9571   3.072   3.664   4.627 -1.7803 -0.9919  1.1002
 3189TIP3   OH2 9572   3.252   5.656   3.317  0.0307  0.3276 -0.4263
 3189TIP3    H1 9573   3.268   5.671   3.410 -0.4997 -0.3734 -0.2149
 3189TIP3    H2 9574   3.326   5.697   3.273  0.4577  0.3754  0.3231
 3190TIP3   OH2 9575   0.267   2.647   4.858 -0.4351 -0.2742  0.2427
 3190TIP3    H1 9576   0.263   2.559   4.821 -1.6580 -0.2453  0.2508
 3190TIP3    H2 9577   0.316   2.699   4.794 -1.4165 -0.5197 -0.7397
 3191TIP3   OH2 9578   0.137   2.528   2.147  0.1797 -0.1098  0.1149
 3191TIP3    H1 9579   0.178   2.455   2.101  0.5029 -0.2761  0.6567
 3191TIP3    H2 9580   0.061   2.551   2.094  1.3323  0.6336 -1.2736
 3192TIP3   OH2 9581   1.164   2.507   2.276  0.3800 -0.4251 -0.1448
 3192TIP3    H1 9582   1.128   2.578   2.329 -0.1627 -0.2645 -0.7210
 3192TIP3    H2 9583   1.237   2.546   2.228  0.1945 -0.2995 -0.3257
 3193TIP3   OH2 9584   3.892   3.302   1.907  0.2397 -0.1224 -0.5683
 3193TIP3    H1 9585   3.958   3.263   1.850 -0.9699  0.8125 -2.7550
 3193TIP3    H2 9586   3.883   3.392   1.875 -1.6775 -0.0576  0.0086
 3194TIP3   OH2 9587   6.109   2.428   2.469  0.2067  0.1941 -0.3056
 3194TIP3    H1 9588   6.071   2.375   2.538  0.0267  0.5363 -0.1361
 3194TIP3    H2 9589   6.046   2.424   2.397  0.7997 -0.8634 -0.7817
 3195TIP3   OH2 9590   5.106   0.727   4.917  0.5630  0.4986  0.1596
 3195TIP3    H1 9591   5.104   0.638   4.954  1.4879  1.3487  2.3939
 3195TIP3    H2 9592   5.042   0.775   4.969  2.5113  1.9470  1.3480
 3196TIP3   OH2 9593   1.253   1.898   5.023  0.3250 -0.2420 -0.4621
 3196TIP3    H1 9594   1.235   1.811   5.059  1.0729  0.3027  1.3273
 3196TIP3    H2 9595   1.334   1.925   5.066  0.6405  0.9422 -1.7546
 3197TIP3   OH2 9596   5.261   0.013   0.876 -0.0778 -0.1769  0.5898
 3197TIP3    H1 9597   5.263   0.108   0.885  0.0275  0.0876 -1.6542
 3197TIP3    H2 9598   5.170  -0.008   0.855 -0.0187 -0.5151  0.6636
 3198TIP3   OH2 9599   5.757   1.478   2.992 -0.2807 -0.0019  0.5874
 3198TIP3    H1 9600   5.840   1.431   3.003 -0.4491 -0.6727 -0.8455
 3198TIP3    H2 9601   5.693   1.426   3.042 -0.0200  0.0361  0.9677
 3199TIP3   OH2 9602   5.889   0.558   4.902  0.6201  0.6349  0.3042
 3199TIP3    H1 9603   5.910   0.489   4.965  0.7097  0.9180  0.5850
 3199TIP3    H2 9604   5.858   0.511   4.825  0.5307  0.2860  0.5507
 3200TIP3   OH2 9605   0.174   4.795   3.437 -0.5428 -0.1083 -0.2002
 3200TIP3    H1 9606   0.252   4.771   3.386 -1.1964 -1.9372 -0.4109
 3200TIP3    H2 9607   0.134   4.711   3.460 -1.7205  0.7690  1.0658
 3201TIP3   OH2 9608   6.259   4.753   2.084 -0.4218 -0.0163  0.1196
 3201TIP3    H1 9609   6.337   4.697   2.090 -0.0526  0.5647  0.9700
 3201TIP3    H2 9610   6.269   4.815   2.157 -0.6399  1.3881 -1.0110
 3202TIP3   OH2 9611   0.323   2.675   2.644  0.2015 -0.3296 -0.0140
 3202TIP3    H1 9612   0.353   2.703   2.731  0.7191 -1.3999  0.1593
 3202TIP3    H2 9613   0.348   2.747   2.586 -0.9001  0.7948  0.8312
 3203TIP3   OH2 9614   5.487   0.096   3.153 -0.4143  0.4267 -0.9706
 3203TIP3    H1 9615   5.454   0.131   3.236 -0.7003 -1.8062 -0.0489
 3203TIP3    H2 9616   5.410   0.096   3.096 -0.8533 -0.2869 -0.4049
 3204TIP3   OH2 9617   0.997   3.599   3.425 -0.8363  0.0659  0.0879
 3204TIP3    H1 9618   1.070   3.605   3.364 -1.3254 -0.1047 -0.5292
 3204TIP3    H2 9619   1.034   3.621   3.510  0.0898 -0.7375 -0.0925
 3205TIP3   OH2 9620   5.082   4.371   1.495  0.0736 -0.3510 -0.3631
 3205TIP3    H1 9621   5.177   4.377   1.510  0.3014 -1.7845 -1.0290
 3205TIP3    H2 9622   5.069   4.283   1.459 -1.5987 -0.4369  0.3333
 3206TIP3   OH2 9623   3.990   0.889   3.864 -0.2636  0.5147 -0.1285
 3206TIP3    H1 9624   3.925   0.959   3.854 -1.1531 -0.0866  1.1470
 3206TIP3    H2 9625   3.946   0.812   3.828 -0.6916 -0.1070  1.6185
 3207TIP3   OH2 9626   4.649   5.689   1.652 -0.0521  0.3024 -0.5143
 3207TIP3    H1 9627   4.643   5.783   1.667 -1.2080 -0.0467  1.6323
 3207TIP3    H2 9628   4.742   5.668   1.662 -0.0641  0.9367  1.0792
 3208TIP3   OH2 9629   5.391   3.721   0.716  0.2874  0.1087 -0.0412
 3208TIP3    H1 9630   5.469   3.768   0.688  0.3945 -1.4318 -2.5718
 3208TIP3    H2 9631   5.423   3.638   0.750 -0.1685  0.0418  0.2406
 3209TIP3   OH2 9632   4.467   5.188   3.427  0.2454 -0.1530 -0.7211
 3209TIP3    H1 9633   4.509   5.103   3.415 -0.3748 -0.9967  2.2895
 3209TIP3    H2 9634   4.377   5.167   3.452  0.2032  1.3574  0.5476
 3210TIP3   OH2 9635   3.669   5.405   3.209  0.5946 -0.1121 -0.1498
 3210TIP3    H1 9636   3.679   5.456   3.128  0.7034 -1.0693 -0.7544
 3210TIP3    H2 9637   3.575   5.400   3.223  0.5835  0.2800 -0.0652
 3211TIP3   OH2 9638   5.337   1.514   0.221 -0.5839 -0.3720  0.3910
 3211TIP3    H1 9639   5.272   1.506   0.152 -0.6484  0.1554  0.3875
 3211TIP3    H2 9640   5.420   1.522   0.175 -0.6794  0.5007  0.3547
 3212TIP3   OH2 9641   4.640   4.901   3.059  0.1988 -0.2444 -0.0434
 3212TIP3    H1 9642   4.702   4.957   3.013 -1.0102  0.5983 -0.7046
 3212TIP3    H2 9643   4.560   4.953   3.064 -1.4347 -2.3548 -1.9115
 3213TIP3   OH2 9644   2.087   2.156   3.924  0.0646  0.4102 -0.8279
 3213TIP3    H1 9645   2.174   2.154   3.963  0.4342  0.5165 -1.6509
 3213TIP3    H2 9646   2.098   2.197   3.839 -0.5778 -0.6907 -1.4691
 3214TIP3   OH2 9647   0.619   1.758   4.921 -0.0898 -0.4460  0.0982
 3214TIP3    H1 9648   0.527   1.735   4.938  0.1199  0.1458  2.2500
 3214TIP3    H2 9649   0.647   1.694   4.855 -2.6060  0.6551 -2.2446
 3215TIP3   OH2 9650   0.078   1.859   4.028 -0.2881 -0.2211 -0.5520
 3215TIP3    H1 9651   0.017   1.817   4.089  1.0004 -0.1834  0.8283
 3215TIP3    H2 9652   0.092   1.795   3.959 -0.0984 -1.1772  0.3504
 3216TIP3   OH2 9653   3.141   4.098   0.429  0.0643  1.0450 -0.2736
 3216TIP3    H1 9654   3.188   4.159   0.372 -0.3099  1.9452  0.3630
 3216TIP3    H2 9655   3.205   4.069   0.493  0.5010 -0.0089 -1.1433
 3217TIP3   OH2 9656   3.178   2.037   1.701 -0.4341  0.3998 -0.2722
 3217TIP3    H1 9657   3.157   2.089   1.624 -0.0352 -0.7776 -1.2073
 3217TIP3    H2 9658   3.216   1.957   1.666 -1.8043 -0.9008  1.0894
 3218TIP3   OH2 9659   1.195   1.852   3.819  0.4707  0.0340 -0.1521
 3218TIP3    H1 9660   1.206   1.947   3.813  1.3340 -0.0686 -0.3212
 3218TIP3    H2 9661   1.178   1.836   3.912  1.1261  0.2798  0.0155
 3219TIP3   OH2 9662   0.351   1.800   0.221  0.3527 -0.5298 -0.1692
 3219TIP3    H1 9663   0.271   1.796   0.273  1.1709 -0.2721  1.1313
 3219TIP3    H2 9664   0.375   1.709   0.207 -0.5709 -0.6331 -1.2389
 3220TIP3   OH2 9665   3.683   0.089   0.759  0.1004 -0.0881  0.0373
 3220TIP3    H1 9666   3.723   0.167   0.798  0.0627  1.0893 -2.0979
 3220TIP3    H2 9667   3.592   0.091   0.790  0.0753  0.7867 -0.0493
 3221TIP3   OH2 9668   1.542   3.451   4.268 -0.1633 -0.1344 -0.2795
 3221TIP3    H1 9669   1.460   3.491   4.239  0.4632  1.6220  0.2436
 3221TIP3    H2 9670   1.605   3.474   4.200 -0.2524 -2.3191 -1.1880
 3222TIP3   OH2 9671   2.869   5.777   3.829 -0.5899 -0.2824 -0.1237
 3222TIP3    H1 9672   2.794   5.718   3.818 -0.8697  0.2749 -1.2480
 3222TIP3    H2 9673   2.873   5.827   3.748  0.8889 -0.1631 -0.0057
 3223TIP3   OH2 9674   3.357   0.362   3.658  0.5989  0.0622 -0.1103
 3223TIP3    H1 9675   3.338   0.447   3.617  0.0509 -0.7879 -1.6869
 3223TIP3    H2 9676   3.284   0.347   3.718  0.3598  0.4039 -0.3127
 3224TIP3   OH2 9677   2.449   0.152   3.334  0.2292  0.1329 -0.1580
 3224TIP3    H1 9678   2.373   0.203   3.362 -0.0325 -0.2729 -0.1177
 3224TIP3    H2 9679   2.426   0.124   3.245 -0.4459 -1.4554  0.4759
 3225TIP3   OH2 9680   4.596   5.528   4.395  0.2100  0.3948 -0.2075
 3225TIP3    H1 9681   4.655   5.473   4.343  0.0143 -0.2005  0.2073
 3225TIP3    H2 9682   4.625   5.517   4.485  1.1196  2.1082 -0.2342
 3226TIP3   OH2 9683   0.656   0.805   3.833  0.2284  0.2051  0.1231
 3226TIP3    H1 9684   0.616   0.868   3.893  0.8895 -0.8847  1.7816
 3226TIP3    H2 9685   0.614   0.722   3.853  0.8103 -0.2754 -0.5965
 3227TIP3   OH2 9686   2.507   3.715   4.814 -0.0074 -0.2207  0.0815
 3227TIP3    H1 9687   2.459   3.798   4.821  0.0634  0.0539 -2.0641
 3227TIP3    H2 9688   2.599   3.740   4.824  0.0074 -0.0357 -0.4760
 3228TIP3   OH2 9689   5.745   4.887   3.918  0.3205 -0.1214  0.3073
 3228TIP3    H1 9690   5.724   4.810   3.971  1.1787  0.1817  1.1096
 3228TIP3    H2 9691   5.662   4.913   3.879 -0.5910  0.3132  2.4120
 3229TIP3   OH2 9692   0.435   2.509   5.068 -0.6681  0.0004 -0.6228
 3229TIP3    H1 9693   0.371   2.568   5.028  0.6055  1.5204 -0.5199
 3229TIP3    H2 9694   0.512   2.514   5.011  0.5896  0.9238  1.0760
 3230TIP3   OH2 9695   2.182   0.206   3.372  0.1437  0.6165 -0.0277
 3230TIP3    H1 9696   2.187   0.299   3.350 -0.0252  0.3892 -1.0363
 3230TIP3    H2 9697   2.114   0.201   3.439 -0.5284  1.1008 -0.6590
 3231TIP3   OH2 9698   2.994   5.627   3.507  0.2618  0.4056  0.0242
 3231TIP3    H1 9699   2.921   5.602   3.451  1.0374 -1.6965 -0.1271
 3231TIP3    H2 9700   2.964   5.707   3.552 -2.7220 -1.1747  1.0738
 3232TIP3   OH2 9701   4.172   0.359   1.733 -0.0337 -0.1376  0.3992
 3232TIP3    H1 9702   4.179   0.343   1.639  0.9631 -1.3767  0.6643
 3232TIP3    H2 9703   4.262   0.359   1.764 -0.3677  0.0187  1.4067
 3233TIP3   OH2 9704   0.140   3.846   0.800 -0.5760 -0.3056 -0.0392
 3233TIP3    H1 9705   0.228   3.862   0.834 -0.6243 -2.7440  1.4804
 3233TIP3    H2 9706   0.119   3.925   0.750  2.7510  0.0308 -1.1276
 3234TIP3   OH2 9707   2.751   0.048   3.082 -0.1498 -0.4543 -0.1830
 3234TIP3    H1 9708   2.698  -0.023   3.047  0.4701 -0.4187 -1.2450
 3234TIP3    H2 9709   2.784   0.094   3.005  0.8118 -0.0256  0.4529
 3235TIP3   OH2 9710   5.615   3.309   3.221 -0.4012  0.0282 -0.6285
 3235TIP3    H1 9711   5.549   3.336   3.157 -1.5749 -0.8099  0.1822
 3235TIP3    H2 9712   5.566   3.302   3.303  1.0472  0.9708  0.3529
 3236TIP3   OH2 9713   3.804   3.785   1.117 -0.0849 -0.2661  0.5446
 3236TIP3    H1 9714   3.718   3.758   1.086 -0.5988 -0.8129  2.3127
 3236TIP3    H2 9715   3.864   3.718   1.085 -0.1888  0.3783 -1.1151
 3237TIP3   OH2 9716   1.932   2.714   1.919  0.5867  0.0243 -0.2737
 3237TIP3    H1 9717   1.870   2.650   1.955 -0.7305  0.0388 -2.3342
 3237TIP3    H2 9718   1.948   2.775   1.991  0.6623 -1.7243  1.2655
 3238TIP3   OH2 9719   1.433   2.261   1.067 -0.4594  0.4189  0.6245
 3238TIP3    H1 9720   1.481   2.260   0.984 -2.3310 -0.1174 -0.5086
 3238TIP3    H2 9721   1.442   2.351   1.099 -0.2341  0.8021 -0.4660
 3239TIP3   OH2 9722   0.642   5.788   4.217  0.7898 -0.0584  0.4771
 3239TIP3    H1 9723   0.685   5.703   4.213  2.2439  0.6678 -0.0222
 3239TIP3    H2 9724   0.712   5.851   4.205 -0.2283  1.2329  1.0366
 3240TIP3   OH2 9725   3.568   1.371   2.924 -0.2575  0.3306 -0.0565
 3240TIP3    H1 9726   3.492   1.343   2.873  0.7250 -2.3116 -0.2203
 3240TIP3    H2 9727   3.538   1.369   3.015 -1.2268  2.4004 -0.2753
 3241TIP3   OH2 9728   3.563   0.670   3.572  0.2779  0.2409 -0.8177
 3241TIP3    H1 9729   3.561   0.580   3.540 -1.2114 -0.1850  0.3767
 3241TIP3    H2 9730   3.503   0.717   3.514 -1.1064 -0.1670  0.2353
 3242TIP3   OH2 9731   2.039   2.745   0.992 -0.5807 -0.0799 -0.0996
 3242TIP3    H1 9732   1.984   2.791   0.929 -2.2849  0.0330  1.3942
 3242TIP3    H2 9733   2.117   2.800   1.000 -1.7279  1.5975  0.1913
 3243TIP3   OH2 9734   1.478   3.105   5.015 -0.3571 -0.0148 -0.1064
 3243TIP3    H1 9735   1.475   3.057   4.932  1.2413  1.1610 -0.9016
 3243TIP3    H2 9736   1.547   3.061   5.065 -0.5269 -0.0047  0.1375
 3244TIP3   OH2 9737   2.258   3.966   2.538 -0.1487  0.0557  0.4270
 3244TIP3    H1 9738   2.215   3.988   2.455 -0.7091  0.6594  0.8729
 3244TIP3    H2 9739   2.193   3.913   2.585 -0.2244  0.5675  0.9051
 3245TIP3   OH2 9740   0.450   4.582   2.105  0.1838  0.4861  0.1240
 3245TIP3    H1 9741   0.472   4.614   2.192 -2.1595 -0.5483  1.1738
 3245TIP3    H2 9742   0.437   4.661   2.053 -0.8606  1.2092  1.4092
 3246TIP3   OH2 9743   3.312   4.940   0.928  0.5199  0.6531 -0.3756
 3246TIP3    H1 9744   3.372   4.870   0.901  0.9632  0.7303  0.3945
 3246TIP3    H2 9745   3.239   4.894   0.969  0.8861  0.6420  0.2756
 3247TIP3   OH2 9746   5.014   5.683   0.234 -0.2016  0.8158 -0.6064
 3247TIP3    H1 9747   4.957   5.755   0.260 -0.6421  0.4912 -0.6604
 3247TIP3    H2 9748   4.954   5.614   0.205  0.1655  0.0829  0.3162
 3248TIP3   OH2 9749   3.480   2.597   3.805 -0.4828 -0.2714 -0.4495
 3248TIP3    H1 9750   3.522   2.512   3.812  0.8567  0.3524 -0.5654
 3248TIP3    H2 9751   3.521   2.638   3.729  1.1487  1.6361  1.3136
 3249TIP3   OH2 9752   3.890   1.061   2.044  0.3155 -0.7096  0.1465
 3249TIP3    H1 9753   3.978   1.095   2.061 -0.0682 -0.0803  0.9646
 3249TIP3    H2 9754   3.869   1.090   1.955  0.5666 -0.0166  0.3046
 3250TIP3   OH2 9755   5.314   0.418   2.903 -0.5341  0.0076 -0.5011
 3250TIP3    H1 9756   5.277   0.335   2.933 -1.5562  0.1324 -1.3439
 3250TIP3    H2 9757   5.283   0.426   2.813 -0.7119  1.4475 -0.3331
 3251TIP3   OH2 9758   6.159   4.391   4.564  0.0788  0.1809 -0.3712
 3251TIP3    H1 9759   6.112   4.437   4.634 -1.0245 -0.7282 -0.4918
 3251TIP3    H2 9760   6.249   4.384   4.597 -0.1687  0.7386  0.4689
 3252TIP3   OH2 9761   1.186   5.201   2.139  0.5421  0.1524  0.1405
 3252TIP3    H1 9762   1.217   5.250   2.063 -0.1420 -0.0540 -0.2723
 3252TIP3    H2 9763   1.154   5.269   2.199  1.1721  0.3219  0.2987
 3253TIP3   OH2 9764   4.680   3.119   4.686  0.1111 -0.0570  0.5340
 3253TIP3    H1 9765   4.665   3.175   4.762 -2.1844  1.6088 -1.0260
 3253TIP3    H2 9766   4.721   3.177   4.622 -1.9432 -0.1698 -0.9652
 3254TIP3   OH2 9767   4.278   0.989   1.374 -0.0392  0.7049  0.1215
 3254TIP3    H1 9768   4.212   1.002   1.441  0.5054  2.0284  0.4428
 3254TIP3    H2 9769   4.305   1.078   1.350  2.2386  0.2084  0.6384
 3255TIP3   OH2 9770   2.990   3.122   1.168 -0.2269  0.3746 -0.5668
 3255TIP3    H1 9771   2.898   3.151   1.173 -0.6062 -0.5833 -1.7534
 3255TIP3    H2 9772   2.987   3.030   1.192  0.5216  0.4594 -0.1199
 3256TIP3   OH2 9773   3.088   3.880   3.834 -0.3414  0.2362 -0.3896
 3256TIP3    H1 9774   3.105   3.969   3.866  0.1149 -0.1183  0.3883
 3256TIP3    H2 9775   3.173   3.847   3.808 -0.0698 -0.8570  1.7000
 3257TIP3   OH2 9776   6.129   0.182   1.177  0.4106 -0.8165 -0.3802
 3257TIP3    H1 9777   6.099   0.123   1.246 -0.2283  0.1675  0.2057
 3257TIP3    H2 9778   6.222   0.194   1.194 -0.2146  1.5411  2.0202
 3258TIP3   OH2 9779   5.558   3.761   2.080 -0.0776 -0.0194 -0.5383
 3258TIP3    H1 9780   5.632   3.700   2.085 -0.0019  0.0100 -1.2327
 3258TIP3    H2 9781   5.532   3.774   2.171 -0.9323 -2.1158 -0.4241
 3259TIP3   OH2 9782   0.344   5.751   3.417  0.1240 -0.0389 -0.2168
 3259TIP3    H1 9783   0.381   5.698   3.487 -0.4622 -0.7916 -0.4547
 3259TIP3    H2 9784   0.297   5.821   3.462  0.3480 -0.1059  0.1234
 3260TIP3   OH2 9785   2.657   4.468   2.609  0.1381  0.4642  0.0611
 3260TIP3    H1 9786   2.710   4.548   2.606  1.3713 -0.2667  1.0938
 3260TIP3    H2 9787   2.687   4.416   2.535  3.6144 -1.4949  2.5418
 3261TIP3   OH2 9788   2.837   3.086   4.287 -0.2052 -0.3669  0.1365
 3261TIP3    H1 9789   2.905   3.094   4.354  0.7023  0.4920 -0.8520
 3261TIP3    H2 9790   2.874   3.129   4.210 -1.5436 -0.6258 -0.6824
 3262TIP3   OH2 9791   4.057   5.431   1.539  0.1194  0.3185 -0.3911
 3262TIP3    H1 9792   4.088   5.376   1.467  0.2684 -0.1783  0.0355
 3262TIP3    H2 9793   3.984   5.382   1.577  0.1490  0.4895 -0.1071
 3263TIP3   OH2 9794   1.834   5.929   4.569 -0.1689 -0.4704  0.0038
 3263TIP3    H1 9795   1.836   5.871   4.493  1.1890 -1.2920  0.6295
 3263TIP3    H2 9796   1.764   5.894   4.624 -2.6211  1.3795 -1.7483
 3264TIP3   OH2 9797   1.816   5.033   2.890  0.0902  0.9850  0.0366
 3264TIP3    H1 9798   1.898   5.038   2.939  0.8013  1.1625 -1.1430
 3264TIP3    H2 9799   1.843   5.027   2.799 -1.2124  0.7607 -0.3516
 3265TIP3   OH2 9800   2.261   2.887   2.312  0.0388 -0.8217 -0.5681
 3265TIP3    H1 9801   2.294   2.800   2.336  1.1561 -0.9974 -2.5565
 3265TIP3    H2 9802   2.338   2.943   2.311 -0.8532  0.6845  2.2348
 3266TIP3   OH2 9803   2.209   0.837   0.232  0.2141  0.1883 -0.0885
 3266TIP3    H1 9804   2.296   0.876   0.231  0.5876 -0.5987 -1.1626
 3266TIP3    H2 9805   2.149   0.911   0.239  0.9671  0.6849  1.5098
 3267TIP3   OH2 9806   0.121   3.838   3.111 -0.0986 -0.0398  0.1833
 3267TIP3    H1 9807   0.171   3.768   3.153 -0.3093 -0.0921  0.3542
 3267TIP3    H2 9808   0.059   3.793   3.054 -1.1000 -0.0723  1.2406
 3268TIP3   OH2 9809   1.454   4.890   1.583  0.5171 -0.0933 -0.0595
 3268TIP3    H1 9810   1.462   4.806   1.539  1.1340 -0.5102  0.7980
 3268TIP3    H2 9811   1.421   4.869   1.671 -0.6625  0.7075 -0.2818
 3269TIP3   OH2 9812   4.083   4.924   0.454  0.4620 -0.2391 -0.3984
 3269TIP3    H1 9813   4.141   4.936   0.530  0.3238 -2.5538  0.1732
 3269TIP3    H2 9814   4.022   4.997   0.458 -0.2861 -0.9148  2.4555
 3270TIP3   OH2 9815   3.532   0.348   0.567 -0.5535 -0.6343 -0.0077
 3270TIP3    H1 9816   3.509   0.258   0.545  0.7901 -1.0210  0.0435
 3270TIP3    H2 9817   3.498   0.361   0.655  0.4219 -1.5776  0.5395
 3271TIP3   OH2 9818   4.167   1.941   1.540 -0.1810  0.1855  0.2657
 3271TIP3    H1 9819   4.146   1.942   1.634 -2.6446 -1.6867 -0.1825
 3271TIP3    H2 9820   4.084   1.956   1.496  0.3165 -2.0193 -1.6335
 3272TIP3   OH2 9821   4.540   5.868   3.524 -0.5033  0.2546  0.5114
 3272TIP3    H1 9822   4.599   5.833   3.592 -0.1065  1.0878  0.6024
 3272TIP3    H2 9823   4.575   5.955   3.504 -1.3201  0.4905  0.0828
 3273TIP3   OH2 9824   6.041   0.436   0.846  0.1473  0.1028  0.1627
 3273TIP3    H1 9825   6.133   0.460   0.843 -0.1472  1.3430  0.4481
 3273TIP3    H2 9826   6.017   0.444   0.938 -0.0685 -0.9793  0.2167
 3274TIP3   OH2 9827   4.388   4.569   1.488  0.7315 -0.5285 -0.4359
 3274TIP3    H1 9828   4.294   4.556   1.503  0.5805 -0.0205 -0.8902
 3274TIP3    H2 9829   4.419   4.485   1.456  0.6731 -1.0524  0.8142
 3275TIP3   OH2 9830   3.013   2.256   1.983 -0.3881  0.7257  0.0546
 3275TIP3    H1 9831   3.002   2.279   1.891 -1.0930  0.5275  0.0801
 3275TIP3    H2 9832   3.086   2.310   2.013 -2.3964  3.5275  0.3047
 3276TIP3   OH2 9833   2.625   2.517   3.948 -0.2999 -0.2668 -0.1022
 3276TIP3    H1 9834   2.673   2.454   4.001 -0.2512  1.3021  1.8480
 3276TIP3    H2 9835   2.692   2.560   3.896 -0.0101 -0.2525  0.2782
 3277TIP3   OH2 9836   2.821   3.256   2.117 -0.3115 -0.3738  0.2615
 3277TIP3    H1 9837   2.816   3.239   2.211  0.9924  0.2858  0.4769
 3277TIP3    H2 9838   2.736   3.228   2.083 -0.1660 -2.2946  1.3539
 3278TIP3   OH2 9839   5.163   5.650   4.446  0.2804  0.1443  0.0937
 3278TIP3    H1 9840   5.069   5.656   4.460  0.0232 -0.1582 -1.3784
 3278TIP3    H2 9841   5.189   5.737   4.416  0.7708  0.6897  1.9516
 3279TIP3   OH2 9842   5.228   1.187   0.452 -0.1672  0.0628  0.2534
 3279TIP3    H1 9843   5.156   1.141   0.496 -1.0504  1.1001 -0.0695
 3279TIP3    H2 9844   5.293   1.118   0.435 -1.1808 -0.9519  0.3268
 3280TIP3   OH2 9845   3.764   4.176   2.971  0.4378  0.5369  0.1122
 3280TIP3    H1 9846   3.796   4.164   3.060  1.9109  1.4485 -0.2462
 3280TIP3    H2 9847   3.793   4.264   2.947  0.5311  0.1249 -1.4365
 3281TIP3   OH2 9848   1.558   4.774   0.970 -0.5571  0.4111  0.9487
 3281TIP3    H1 9849   1.601   4.859   0.967 -0.0572  0.1790  1.3087
 3281TIP3    H2 9850   1.630   4.711   0.970 -0.8224  0.0437  2.7548
 3282TIP3   OH2 9851   1.287   3.302   1.243 -0.4594 -0.2952  0.2218
 3282TIP3    H1 9852   1.275   3.309   1.338 -0.2038 -0.9295  0.3035
 3282TIP3    H2 9853   1.372   3.260   1.232 -0.2641  0.2137 -0.3003
 3283TIP3   OH2 9854   3.100   5.606   1.854 -0.3801 -0.3194 -0.0140
 3283TIP3    H1 9855   3.150   5.670   1.803 -0.0320 -0.7064 -0.1569
 3283TIP3    H2 9856   3.167   5.557   1.902 -0.6016 -1.0540 -0.4545
 3284TIP3   OH2 9857   4.259   5.930   3.021  0.6978  0.2718 -0.2313
 3284TIP3    H1 9858   4.322   5.881   2.968  2.5390  0.1357  1.8792
 3284TIP3    H2 9859   4.208   5.862   3.066  1.7780  0.2607  1.0425
 3285TIP3   OH2 9860   1.283   3.033   1.938 -0.3358  0.0847 -0.1774
 3285TIP3    H1 9861   1.270   3.116   1.983 -0.9510  0.3685 -0.8568
 3285TIP3    H2 9862   1.242   2.968   1.995 -1.6463  0.5145 -0.5950
 3286TIP3   OH2 9863   0.858   0.238   3.108  0.0027  0.4227  0.0922
 3286TIP3    H1 9864   0.859   0.155   3.059  0.4279  0.3332  0.2461
 3286TIP3    H2 9865   0.777   0.281   3.080 -0.8875 -0.6140  0.9583
 3287TIP3   OH2 9866   1.736   4.343   5.022 -0.1720 -0.3987 -0.1149
 3287TIP3    H1 9867   1.793   4.337   4.946  0.1357 -2.4491  0.2202
 3287TIP3    H2 9868   1.648   4.344   4.986  0.0039  1.0913 -0.5653
 3288TIP3   OH2 9869   5.312   5.913   3.671 -0.3273  1.2771  0.8743
 3288TIP3    H1 9870   5.221   5.881   3.671  0.3114 -0.7073  0.5450
 3288TIP3    H2 9871   5.347   5.885   3.755  0.9419 -1.1772 -0.3624
 3289TIP3   OH2 9872   0.530   2.370   1.607  0.2340 -0.0446  0.1554
 3289TIP3    H1 9873   0.613   2.337   1.643  1.3073 -0.8427 -2.7800
 3289TIP3    H2 9874   0.553   2.404   1.521 -2.3357  0.7581 -0.2899
 3290TIP3   OH2 9875   2.266   4.861   1.010 -0.0340  0.1458  0.4559
 3290TIP3    H1 9876   2.239   4.809   0.934 -1.0539 -0.0581  0.9364
 3290TIP3    H2 9877   2.357   4.884   0.992 -0.3338  0.3455 -0.9594
 3291TIP3   OH2 9878   5.773   1.990   4.576 -0.4046 -0.7817 -0.0971
 3291TIP3    H1 9879   5.787   1.895   4.566 -1.2076 -0.8519 -0.6909
 3291TIP3    H2 9880   5.686   2.005   4.537 -0.9597 -0.0334  1.3669
 3292TIP3   OH2 9881   1.928   5.158   1.987  0.7225 -0.0438 -0.4496
 3292TIP3    H1 9882   1.893   5.131   1.902 -0.5108  0.3853 -0.1017
 3292TIP3    H2 9883   1.901   5.249   1.996  0.6197 -0.1541  0.5020
 3293TIP3   OH2 9884   0.755   3.445   3.964  0.1064  0.0546 -0.5219
 3293TIP3    H1 9885   0.679   3.470   4.016 -0.0392 -1.0499 -0.1840
 3293TIP3    H2 9886   0.826   3.437   4.028 -0.6009 -3.6964 -0.0039
 3294TIP3   OH2 9887   2.061   1.987   4.273  0.2242 -0.3733 -0.2573
 3294TIP3    H1 9888   2.063   1.941   4.189  1.9659 -0.0864 -0.4213
 3294TIP3    H2 9889   2.078   1.918   4.338 -0.0567 -0.4210 -0.2330
 3295TIP3   OH2 9890   3.198   4.869   4.376  0.3998  0.0250  0.0732
 3295TIP3    H1 9891   3.129   4.897   4.436  1.1345 -0.3951  1.1451
 3295TIP3    H2 9892   3.186   4.924   4.299  0.3611  1.6491  1.1798
 3296TIP3   OH2 9893   3.728   0.992   3.311 -0.5240 -0.3162  0.2581
 3296TIP3    H1 9894   3.700   1.060   3.372  0.7834 -0.3960  0.9737
 3296TIP3    H2 9895   3.797   1.033   3.259 -1.8824 -0.1073 -1.5092
 3297TIP3   OH2 9896   3.339   3.067   1.645  0.0992 -0.0587 -0.1584
 3297TIP3    H1 9897   3.314   2.983   1.683 -1.8918  0.2512 -0.6471
 3297TIP3    H2 9898   3.426   3.051   1.607  1.0456 -1.0561  2.2359
 3298TIP3   OH2 9899   4.528   3.746   0.438  0.6623 -0.0475 -0.4386
 3298TIP3    H1 9900   4.529   3.667   0.383 -1.1856 -1.3136  1.2002
 3298TIP3    H2 9901   4.503   3.817   0.379  2.5166 -0.5848 -1.9911
 3299TIP3   OH2 9902   2.602   2.358   2.137 -0.6439 -0.3291 -0.1281
 3299TIP3    H1 9903   2.660   2.336   2.209 -0.5632  0.4941  0.0638
 3299TIP3    H2 9904   2.646   2.323   2.059 -0.8823 -1.4924  0.2422
 3300TIP3   OH2 9905   2.654   0.088   2.077 -0.1514  0.0423 -0.2531
 3300TIP3    H1 9906   2.698   0.170   2.099  1.3599 -0.9161  0.4494
 3300TIP3    H2 9907   2.701   0.055   2.001 -2.8629  1.3944 -2.7110
 3301TIP3   OH2 9908   1.191   4.304   1.894  0.0634  0.1444  0.0196
 3301TIP3    H1 9909   1.097   4.312   1.879  0.2327  0.2738 -1.0569
 3301TIP3    H2 9910   1.198   4.242   1.967 -0.7910 -2.1412 -1.7012
 3302TIP3   OH2 9911   1.564   0.277   0.011  0.1003  0.2254  0.0191
 3302TIP3    H1 9912   1.493   0.301   0.071  1.4596  2.0868  1.0157
 3302TIP3    H2 9913   1.606   0.202   0.052 -0.7682 -0.3568 -0.1406
 3303TIP3   OH2 9914   2.595   3.647   2.732 -0.0694 -0.0040  0.1099
 3303TIP3    H1 9915   2.613   3.737   2.706  0.3519  0.5303  2.0710
 3303TIP3    H2 9916   2.679   3.614   2.764 -0.4123 -0.8065  0.1984
 3304TIP3   OH2 9917   3.207   3.289   4.669  0.6640  0.2831 -0.0193
 3304TIP3    H1 9918   3.156   3.331   4.738 -0.1622  0.3923 -0.6811
 3304TIP3    H2 9919   3.256   3.220   4.714 -0.3524 -0.0756  0.5855
 3305TIP3   OH2 9920   2.793   3.912   3.542  0.6425  0.1249  0.1083
 3305TIP3    H1 9921   2.770   3.852   3.614 -0.0033  1.1437  0.7801
 3305TIP3    H2 9922   2.760   3.997   3.571  0.2697  0.5385 -1.4680
 3306TIP3   OH2 9923   2.608   5.419   1.961 -0.7790  0.1522  0.1191
 3306TIP3    H1 9924   2.614   5.341   1.906  1.2752 -0.0845  0.6170
 3306TIP3    H2 9925   2.678   5.476   1.930 -1.0074  0.9702  1.0538
 3307TIP3   OH2 9926   1.755   0.760   2.318 -0.1460  0.0676  0.4857
 3307TIP3    H1 9927   1.756   0.854   2.336  1.2121  0.3343 -0.8425
 3307TIP3    H2 9928   1.817   0.723   2.380  1.5769  0.4715 -0.9339
 3308TIP3   OH2 9929   2.315   1.447   0.754  0.2144  0.6366  0.1206
 3308TIP3    H1 9930   2.266   1.487   0.683 -0.3184  1.2492  0.8216
 3308TIP3    H2 9931   2.319   1.514   0.822  0.3462 -0.0719  0.8343
 3309TIP3   OH2 9932   2.889   0.244   0.960 -0.0653  0.1393  0.0459
 3309TIP3    H1 9933   2.820   0.222   1.023 -0.9516  1.1642 -0.5345
 3309TIP3    H2 9934   2.940   0.312   1.005  0.7908 -0.8464  0.6045
 3310TIP3   OH2 9935   5.162   5.437   1.435  0.0224 -0.2812 -0.5460
 3310TIP3    H1 9936   5.235   5.388   1.472 -0.6608 -1.0040 -0.1293
 3310TIP3    H2 9937   5.170   5.525   1.474  0.8001 -0.2782 -0.6986
 3311TIP3   OH2 9938   2.508   3.343   1.974  0.3266  0.4481  0.3391
 3311TIP3    H1 9939   2.454   3.282   1.923  1.4321  0.9110 -1.4978
 3311TIP3    H2 9940   2.462   3.353   2.057 -1.1114 -1.0441 -0.2276
 3312TIP3   OH2 9941   5.013   2.552   0.771  0.3478 -0.5386 -0.1489
 3312TIP3    H1 9942   5.015   2.507   0.686 -1.9380 -0.9979  0.0003
 3312TIP3    H2 9943   4.925   2.538   0.804  0.4736  1.6211  1.2669
 3313TIP3   OH2 9944   4.292   5.405   3.526  0.0630 -0.2214  0.7572
 3313TIP3    H1 9945   4.341   5.477   3.564  1.5172  0.2655 -1.8151
 3313TIP3    H2 9946   4.345   5.375   3.452 -3.2997  0.1583 -2.0978
 3314TIP3   OH2 9947   5.405   2.221   1.484  0.8434  0.4610  0.0213
 3314TIP3    H1 9948   5.466   2.206   1.557  2.0601 -0.8068 -1.2026
 3314TIP3    H2 9949   5.460   2.256   1.414  0.2077 -0.7701 -1.1403
 3315TIP3   OH2 9950   5.284   2.363   3.791 -0.1494  0.0821 -0.6358
 3315TIP3    H1 9951   5.277   2.435   3.855 -1.0182 -0.2395 -0.3543
 3315TIP3    H2 9952   5.210   2.378   3.731 -0.8780 -1.0603 -0.0570
 3316TIP3   OH2 9953   4.388   2.654   1.439  0.4284  0.3149  0.1264
 3316TIP3    H1 9954   4.398   2.744   1.407  1.2317 -0.5230 -2.1591
 3316TIP3    H2 9955   4.331   2.612   1.375 -1.0614 -0.4963  1.9107
 3317TIP3   OH2 9956   0.923   5.666   3.948 -0.5508  0.2991 -0.2454
 3317TIP3    H1 9957   0.922   5.681   4.042 -0.4604  1.4410 -0.4101
 3317TIP3    H2 9958   0.832   5.673   3.921 -0.4980  0.6694 -0.3361
 3318TIP3   OH2 9959   3.144   3.086   2.512 -0.2098  0.0087 -0.2854
 3318TIP3    H1 9960   3.185   3.005   2.543  1.0193  0.2545 -1.2113
 3318TIP3    H2 9961   3.054   3.081   2.545 -0.4660 -2.1813 -1.1081
 3319TIP3   OH2 9962   0.205   5.543   1.458 -0.6782  0.6151  0.5972
 3319TIP3    H1 9963   0.299   5.551   1.447 -0.9646  0.3109 -3.0826
 3319TIP3    H2 9964   0.185   5.600   1.533  2.2569  1.4992  0.8238
 3320TIP3   OH2 9965   3.297   0.149   4.520  0.0069  0.5493  0.2726
 3320TIP3    H1 9966   3.343   0.231   4.540  1.5235 -0.0786 -0.5046
 3320TIP3    H2 9967   3.353   0.105   4.457 -1.3796 -0.5659 -0.2341
 3321TIP3   OH2 9968   1.356   1.563   0.528 -0.2183 -0.0195  0.2976
 3321TIP3    H1 9969   1.370   1.474   0.496 -2.2667  0.0680 -1.0696
 3321TIP3    H2 9970   1.424   1.615   0.485  1.2988 -0.9225  1.4725
 3322TIP3   OH2 9971   6.269   4.763   1.152  0.4642  0.7326 -0.3467
 3322TIP3    H1 9972   6.325   4.687   1.139  0.0037  0.2638  0.3379
 3322TIP3    H2 9973   6.195   4.730   1.203  0.9058  1.9069  1.1460
 3323TIP3   OH2 9974   0.221   4.166   0.645  0.6813 -0.1407  0.8553
 3323TIP3    H1 9975   0.226   4.262   0.648  0.6138  0.0405 -2.1283
 3323TIP3    H2 9976   0.133   4.146   0.677 -0.4362  1.0912 -1.2329
 3324TIP3   OH2 9977   6.212   1.848   4.616 -0.2647 -0.1820  0.5181
 3324TIP3    H1 9978   6.176   1.929   4.654  2.1846  1.0069  0.5314
 3324TIP3    H2 9979   6.225   1.790   4.691 -0.4917  0.0737  0.7562
 3325TIP3   OH2 9980   3.098   3.508   3.499 -0.1627  0.0900 -0.2085
 3325TIP3    H1 9981   3.040   3.558   3.556 -1.5606 -2.2504  0.5274
 3325TIP3    H2 9982   3.172   3.483   3.555 -1.5573 -2.2499  0.7266
 3326TIP3   OH2 9983   2.789   4.427   2.972 -0.1172  0.2527  0.1543
 3326TIP3    H1 9984   2.866   4.406   3.025  1.2772  1.1848 -1.4346
 3326TIP3    H2 9985   2.781   4.354   2.911  0.4736  0.9023 -0.7156
 3327TIP3   OH2 9986   1.071   5.796   0.993  0.6214 -0.0128  0.3147
 3327TIP3    H1 9987   1.065   5.711   0.949  1.6450  1.3450 -2.7969
 3327TIP3    H2 9988   1.165   5.816   0.992  0.5106  0.7108  2.0027
 3328TIP3   OH2 9989   0.781   4.564   0.589  0.1211  1.0002  0.0370
 3328TIP3    H1 9990   0.759   4.477   0.556  1.1209  0.9625 -0.5518
 3328TIP3    H2 9991   0.696   4.602   0.612 -0.2636 -0.4875  1.2633
 3329TIP3   OH2 9992   5.876   5.871   3.969  0.3834 -0.0026  0.0450
 3329TIP3    H1 9993   5.899   5.801   3.908  0.9740 -0.0575  0.3353
 3329TIP3    H2 9994   5.879   5.951   3.915 -0.0686 -0.1648 -0.2299
 3330TIP3   OH2 9995   1.426   1.419   5.104  0.4394  0.0172 -0.2320
 3330TIP3    H1 9996   1.394   1.329   5.109 -1.2354  0.6375  1.3263
 3330TIP3    H2 9997   1.416   1.443   5.012  2.2561 -1.8005 -0.9682
 3331TIP3   OH2 9998   5.912   2.835   3.063  0.6437 -0.5616  0.3332
 3331TIP3    H1 9999   5.932   2.825   3.156 -1.0418 -0.2077  0.7646
 3331TIP3    H210000   5.825   2.875   3.061  1.4780  1.3498 -1.3941
 3332TIP3   OH210001   2.852   5.926   4.092  0.0834  0.4744  0.1032
 3332TIP3    H110002   2.833   5.884   4.009 -0.7561  0.6853  0.1812
 3332TIP3    H210003   2.847   5.856   4.157 -1.9172  0.7602  0.3159
 3333TIP3   OH210004   3.591   4.508   1.072  0.7217 -0.3634  0.6680
 3333TIP3    H110005   3.585   4.596   1.110 -0.8601 -0.1988  0.1108
 3333TIP3    H210006   3.683   4.483   1.084  1.0855  1.1509  1.2963
 3334TIP3   OH210007   1.674   1.198   1.707  0.0445  0.6250  0.3341
 3334TIP3    H110008   1.636   1.283   1.686 -0.7238  1.0385  2.9506
 3334TIP3    H210009   1.735   1.216   1.779  0.0934 -0.9781  0.7388
 3335TIP3   OH210010   1.372   5.948   0.323 -0.4942  0.3239  0.2705
 3335TIP3    H110011   1.453   5.924   0.368 -1.5870 -0.7659  1.7674
 3335TIP3    H210012   1.330   6.011   0.382 -0.2981  1.6653 -0.9719
 3336TIP3   OH210013   0.741   0.695   4.362 -0.2744 -0.7277 -0.1972
 3336TIP3    H110014   0.752   0.719   4.270 -0.2352 -0.3860 -0.1046
 3336TIP3    H210015   0.682   0.619   4.360  1.0010 -1.7602 -0.6195
 3337TIP3   OH210016   5.412   2.357   3.379 -0.4814  0.6028 -0.4498
 3337TIP3    H110017   5.364   2.283   3.342  1.7346 -1.0368 -0.2602
 3337TIP3    H210018   5.475   2.317   3.439 -0.6908  2.8352  1.4072
 3338TIP3   OH210019   4.130   4.236   1.357 -0.4434  0.5832  0.2654
 3338TIP3    H110020   4.129   4.307   1.421 -1.7294  0.9313 -0.1004
 3338TIP3    H210021   4.054   4.182   1.380 -0.0036 -0.1699 -0.0160
 3339TIP3   OH210022   4.507   1.557   2.811 -0.3756  0.1694 -0.1742
 3339TIP3    H110023   4.493   1.649   2.792 -0.0510  0.3857  0.5986
 3339TIP3    H210024   4.578   1.556   2.874 -1.1070 -0.5420  0.6629
 3340TIP3   OH210025   1.487   3.504   1.241 -0.0408 -0.7547  0.1156
 3340TIP3    H110026   1.449   3.481   1.326 -1.0692 -0.8989 -0.3608
 3340TIP3    H210027   1.534   3.586   1.257  0.3138 -1.1114  0.9553
 3341TIP3   OH210028   1.822   1.926   4.489  0.2805 -0.2360  0.4139
 3341TIP3    H110029   1.753   1.992   4.483  0.0165 -0.2018  2.9425
 3341TIP3    H210030   1.885   1.963   4.551  2.0927 -0.7278 -1.0381
 3342TIP3   OH210031   2.415   1.071   3.409  0.4157  0.1168 -0.4304
 3342TIP3    H110032   2.337   1.020   3.429  0.3571  0.0293 -0.8723
 3342TIP3    H210033   2.485   1.028   3.458  0.0255  0.7502  0.7066
 3343TIP3   OH210034   5.683   3.085   1.488 -0.0594 -0.0490  0.3049
 3343TIP3    H110035   5.709   3.000   1.524  1.1830 -1.1297 -2.7780
 3343TIP3    H210036   5.628   3.063   1.413  0.0705  1.8993 -0.4183
 3344TIP3   OH210037   0.762   3.734   3.494  0.3194  0.5006  0.1247
 3344TIP3    H110038   0.832   3.684   3.453 -0.7498 -0.8054 -0.1794
 3344TIP3    H210039   0.714   3.670   3.547 -0.2952  1.4841  0.8002
 3345TIP3   OH210040   3.780   2.519   1.296 -0.5112  0.0234  0.3712
 3345TIP3    H110041   3.779   2.513   1.391  0.1081  1.8170  0.5177
 3345TIP3    H210042   3.817   2.435   1.267 -1.6086 -0.9412  1.6269
 3346TIP3   OH210043   2.035   4.883   3.843 -0.1853  0.2018  0.2647
 3346TIP3    H110044   1.992   4.798   3.833 -0.5025  0.4662 -0.6691
 3346TIP3    H210045   1.984   4.943   3.789  0.6343  0.7776  0.1051
 3347TIP3   OH210046   1.978   0.295   0.886  0.4197 -0.2410 -0.4501
 3347TIP3    H110047   1.962   0.327   0.975  1.8914  0.0912 -0.2754
 3347TIP3    H210048   2.058   0.341   0.858  1.1527 -1.8855 -1.1574
 3348TIP3   OH210049   5.803   0.199   3.419 -0.0683  0.0652  0.6218
 3348TIP3    H110050   5.811   0.105   3.403 -2.1334 -0.3204  1.5554
 3348TIP3    H210051   5.885   0.224   3.461  0.2309 -1.4464  0.9661
 3349TIP3   OH210052   2.473   1.368   2.550  0.3811 -0.5132 -0.2561
 3349TIP3    H110053   2.399   1.377   2.490  0.1211 -0.4005  0.0822
 3349TIP3    H210054   2.483   1.274   2.562  0.0156 -0.5184  0.0370
 3350TIP3   OH210055   0.844   5.355   3.966  0.2440 -0.7443  0.2705
 3350TIP3    H110056   0.938   5.336   3.971  0.1395 -1.4081 -0.2327
 3350TIP3    H210057   0.833   5.397   3.880  0.1986  0.0823  0.6629
 3351TIP3   OH210058   3.796   1.567   4.971  0.0710 -0.2625  0.0869
 3351TIP3    H110059   3.814   1.526   5.055 -3.1388 -1.6429  0.2373
 3351TIP3    H210060   3.717   1.619   4.986 -0.7295 -0.7387 -2.0931
 3352TIP3   OH210061   2.261   5.890   3.563 -0.0353 -0.4845 -0.2424
 3352TIP3    H110062   2.183   5.867   3.614 -0.6944 -0.8618 -1.3871
 3352TIP3    H210063   2.327   5.826   3.589  0.9332  1.5715  2.9468
 3353TIP3   OH210064   4.335   3.099   1.662  0.4044  0.0867  0.3013
 3353TIP3    H110065   4.323   3.189   1.693  0.6480  0.9413 -1.9200
 3353TIP3    H210066   4.328   3.046   1.741 -2.8521  1.7332  1.3181
 3354TIP3   OH210067   5.481   5.464   4.413 -0.2429 -0.2240 -0.5652
 3354TIP3    H110068   5.486   5.431   4.323 -0.8086  2.0441 -1.4762
 3354TIP3    H210069   5.546   5.412   4.460  1.1416 -0.4804 -2.6022
 3355TIP3   OH210070   2.867   2.127   4.481 -0.0073  0.4558 -0.0086
 3355TIP3    H110071   2.853   2.050   4.536  1.4301  0.2313  0.0661
 3355TIP3    H210072   2.891   2.196   4.542  2.6083 -0.0424 -0.3669
 3356TIP3   OH210073   1.985   1.150   1.352 -0.5729 -0.2804 -0.8605
 3356TIP3    H110074   2.016   1.218   1.412  1.4055 -0.7801 -1.2485
 3356TIP3    H210075   1.987   1.191   1.266 -0.0853 -0.5960 -1.0025
 3357TIP3   OH210076   3.102   1.491   2.589  0.8455  1.0637 -0.2300
 3357TIP3    H110077   3.037   1.560   2.586 -0.3884 -0.0862 -1.3434
 3357TIP3    H210078   3.051   1.410   2.587  2.2799  0.1213 -0.0070
 3358TIP3   OH210079   1.231   3.562   0.492  0.5114  0.1606  0.1256
 3358TIP3    H110080   1.259   3.652   0.509  2.1468 -0.1839 -0.5336
 3358TIP3    H210081   1.287   3.508   0.549  1.4551 -0.5755 -1.4186
 3359TIP3   OH210082   2.255   5.009   2.441  0.1014  0.1243  0.0927
 3359TIP3    H110083   2.282   5.101   2.434 -1.1373  0.3885 -3.1910
 3359TIP3    H210084   2.160   5.012   2.427  0.4016 -1.7834 -3.4428
 3360TIP3   OH210085   4.603   0.209   3.118  0.3199  0.8480  0.5305
 3360TIP3    H110086   4.665   0.204   3.045  0.6769  1.2701  0.7950
 3360TIP3    H210087   4.578   0.119   3.135  0.5473  0.7110  0.1491
 3361TIP3   OH210088   5.620   1.585   5.127 -0.0275  0.3705 -0.0967
 3361TIP3    H110089   5.571   1.604   5.207 -0.3986  1.0220 -0.4718
 3361TIP3    H210090   5.599   1.494   5.107  1.5587 -0.4521  1.5763
 3362TIP3   OH210091   3.762   0.375   0.426 -0.8667  0.9132 -0.0568
 3362TIP3    H110092   3.817   0.431   0.479  0.2606 -1.1442  1.0849
 3362TIP3    H210093   3.682   0.363   0.477  0.0145 -0.6600  1.0421
 3363TIP3   OH210094   3.330   0.440   0.763  0.3177  0.0311 -0.3073
 3363TIP3    H110095   3.248   0.449   0.713 -0.0975  0.1485  0.3863
 3363TIP3    H210096   3.358   0.529   0.780 -1.1836  0.0983  2.3001
 3364TIP3   OH210097   0.070   2.109   2.095 -0.2431 -0.1499  0.0003
 3364TIP3    H110098   0.092   2.028   2.141 -4.4157 -2.6216 -1.7329
 3364TIP3    H210099  -0.013   2.137   2.134  0.2729  2.4682 -0.5544
 3365TIP3   OH210100   4.883   3.277   2.216 -0.4935  0.2895 -0.0600
 3365TIP3    H110101   4.891   3.370   2.196  2.1298 -0.3494 -2.5689
 3365TIP3    H210102   4.860   3.235   2.133 -2.0934 -1.3480  1.0954
 3366TIP3   OH210103   5.067   4.860   3.481  0.3232 -0.5965 -0.2649
 3366TIP3    H110104   5.009   4.788   3.504  0.8481 -0.9023  0.1097
 3366TIP3    H210105   5.010   4.923   3.436 -0.3731 -0.7184  0.4310
 3367TIP3   OH210106   5.990   0.330   3.605  0.2589  0.1665 -0.3141
 3367TIP3    H110107   5.966   0.305   3.694 -0.5991  0.0334 -0.5724
 3367TIP3    H210108   5.945   0.413   3.591  0.3856  0.1817 -0.6286
 3368TIP3   OH210109   3.894   3.926   1.842  0.0126 -0.4968  0.0737
 3368TIP3    H110110   3.811   3.968   1.820 -0.1514 -0.0824  1.4244
 3368TIP3    H210111   3.875   3.873   1.919  0.8015 -1.0889 -0.1269
 3369TIP3   OH210112   5.056   1.325   1.123  0.1230 -0.0772 -0.0622
 3369TIP3    H110113   4.967   1.321   1.159 -0.1606 -0.2027 -0.7583
 3369TIP3    H210114   5.045   1.305   1.030  0.6414  1.8010 -0.5669
 3370TIP3   OH210115   2.173   2.001   1.489  0.1986  0.2635  0.0805
 3370TIP3    H110116   2.113   1.972   1.558 -1.3354  2.4915 -0.2052
 3370TIP3    H210117   2.258   1.963   1.513 -0.4801  0.1930  2.6564
 3371TIP3   OH210118   4.355   4.869   5.140  0.3009 -0.1408  0.0230
 3371TIP3    H110119   4.388   4.896   5.055 -1.9362  1.2531 -0.4713
 3371TIP3    H210120   4.433   4.838   5.187  1.8398  0.5642 -1.9312
 3372TIP3   OH210121   5.341   1.081   4.031 -0.0867  0.7203  0.2977
 3372TIP3    H110122   5.412   1.027   3.996 -0.1127 -0.5272  2.0411
 3372TIP3    H210123   5.261   1.041   3.996 -0.0673  0.0283  1.0061
 3373TIP3   OH210124   2.381   3.243   2.969  0.0609  0.1711 -0.5101
 3373TIP3    H110125   2.377   3.271   3.060  0.9782 -0.4052 -0.2892
 3373TIP3    H210126   2.289   3.243   2.940 -0.1755  0.9481  0.2209
 3374TIP3   OH210127   4.374   0.331   3.648  0.8063 -0.5224 -0.4661
 3374TIP3    H110128   4.344   0.245   3.676 -0.9923  0.0957 -0.3186
 3374TIP3    H210129   4.293   0.381   3.635  1.6606  0.2963 -3.2964
 3375TIP3   OH210130   1.030   4.481   3.522  0.5696 -0.1819  0.5891
 3375TIP3    H110131   1.001   4.403   3.569  1.0355 -0.7946 -0.1225
 3375TIP3    H210132   1.125   4.477   3.525  0.6044 -0.3390 -0.5814
 3376TIP3   OH210133   4.666   3.612   4.675  0.0003  0.2544 -0.1792
 3376TIP3    H110134   4.651   3.624   4.768 -0.9535  0.2037 -0.3180
 3376TIP3    H210135   4.762   3.611   4.666  0.1596 -1.8605  1.0767
 3377TIP3   OH210136   5.401   3.752   1.425  0.4606  0.0886  0.1007
 3377TIP3    H110137   5.492   3.775   1.408  0.5642  0.1883  0.7726
 3377TIP3    H210138   5.378   3.692   1.354  0.2436  2.0600 -1.5928
 3378TIP3   OH210139   3.378   0.925   1.968  0.1801  0.0400  0.3516
 3378TIP3    H110140   3.443   0.877   2.020  0.8992 -0.0209 -0.5838
 3378TIP3    H210141   3.316   0.857   1.939 -0.0628  0.0313  0.8789
 3379TIP3   OH210142   1.371   5.236   2.751  0.3598  0.1338  0.2281
 3379TIP3    H110143   1.292   5.250   2.699  1.4524  0.0068 -1.5633
 3379TIP3    H210144   1.436   5.295   2.712  1.1774  0.1954  1.6176
 3380TIP3   OH210145   0.830   5.509   2.478 -0.0826 -0.2386  0.9863
 3380TIP3    H110146   0.764   5.566   2.518 -0.2839 -0.7456  1.3753
 3380TIP3    H210147   0.903   5.511   2.539  1.1864  2.0526 -0.4377
 3381TIP3   OH210148   5.950   0.714   4.224 -0.5253  0.8945 -0.6195
 3381TIP3    H110149   5.992   0.739   4.141  1.5124  1.3578  0.4927
 3381TIP3    H210150   5.875   0.773   4.231  0.5940  2.4299 -1.0769
 3382TIP3   OH210151   1.370   2.850   2.932 -0.6742  0.0743  0.3316
 3382TIP3    H110152   1.402   2.819   3.017  0.2295 -0.0218 -0.0355
 3382TIP3    H210153   1.354   2.943   2.945  0.0535  0.1932  0.4521
 3383TIP3   OH210154   5.377   5.249   0.239  0.8855  0.2432  0.3750
 3383TIP3    H110155   5.450   5.196   0.270  1.5086  1.4268  0.9814
 3383TIP3    H210156   5.395   5.337   0.271 -0.1709  0.8241 -0.5310
 3384TIP3   OH210157   2.277   1.709   2.496 -0.4079 -0.0732  0.2261
 3384TIP3    H110158   2.358   1.708   2.547 -0.7978  0.9552  0.9044
 3384TIP3    H210159   2.284   1.788   2.442 -0.9318 -0.0103  0.2447
 3385TIP3   OH210160   2.470   2.138   0.027  0.1254 -0.3635  0.2339
 3385TIP3    H110161   2.519   2.172  -0.047  0.7861 -1.8500 -0.0455
 3385TIP3    H210162   2.529   2.076   0.069 -0.4961 -0.0744  1.6014
 3386TIP3   OH210163   1.245   5.210   5.048 -0.1208 -0.1810 -0.5210
 3386TIP3    H110164   1.295   5.171   4.976 -2.4077 -0.6565 -1.9787
 3386TIP3    H210165   1.156   5.174   5.038 -1.1825  1.8089  0.9319
 3387TIP3   OH210166   6.268   5.480   4.283 -0.3323 -0.1364  0.2483
 3387TIP3    H110167   6.212   5.438   4.217 -1.1988  0.9421  0.2800
 3387TIP3    H210168   6.312   5.550   4.236 -0.7614  0.4798  0.7528
 3388TIP3   OH210169   1.627   0.135   4.878 -0.0464 -0.4634  0.5600
 3388TIP3    H110170   1.605   0.046   4.854 -1.2915 -0.3350  1.1329
 3388TIP3    H210171   1.719   0.131   4.907  0.3701 -1.2508 -0.8150
 3389TIP3   OH210172   4.016   2.331   4.526  0.4109 -0.1885 -0.0478
 3389TIP3    H110173   4.052   2.356   4.611 -0.8924 -0.1625  0.5344
 3389TIP3    H210174   4.036   2.238   4.516  1.9059  0.1590 -0.4343
 3390TIP3   OH210175   2.665   1.939   0.044  0.0609  0.5445 -0.3859
 3390TIP3    H110176   2.748   1.893   0.034  1.0661  2.1089  0.4406
 3390TIP3    H210177   2.599   1.877   0.010  1.5957 -0.4765 -1.6243
 3391TIP3   OH210178   5.914   1.986   4.151  0.4330  0.1619  0.0779
 3391TIP3    H110179   5.848   1.928   4.190  1.1202  0.4020  1.6858
 3391TIP3    H210180   5.921   1.958   4.060 -0.9930 -0.6709  0.2041
 3392TIP3   OH210181   4.203   0.425   2.087  0.6838  0.2317  0.3935
 3392TIP3    H110182   4.154   0.505   2.069  1.4303  1.1169  2.1268
 3392TIP3    H210183   4.279   0.430   2.028  0.3765  0.4459  0.0096
 3393TIP3   OH210184   1.727   3.442   2.974  0.2069 -0.3074 -0.5353
 3393TIP3    H110185   1.775   3.522   2.955  0.7866 -0.6400 -0.5136
 3393TIP3    H210186   1.663   3.467   3.041  0.2324  0.1795 -0.6885
 3394TIP3   OH210187   3.652   1.944   1.009  0.4199  0.0875  0.4549
 3394TIP3    H110188   3.635   2.024   0.959 -3.8437 -0.6859  0.2406
 3394TIP3    H210189   3.703   1.972   1.084  0.6843  2.6299 -0.5856
 3395TIP3   OH210190   0.297   2.134   2.950 -0.0893 -0.9195 -0.3077
 3395TIP3    H110191   0.338   2.151   2.866 -0.2194 -0.6617 -0.3214
 3395TIP3    H210192   0.276   2.041   2.949  0.5418 -1.0672 -0.2762
 3396TIP3   OH210193   3.361   0.823   3.403  0.2047 -0.3241 -0.7922
 3396TIP3    H110194   3.358   0.918   3.398  2.7345  0.1048  2.2088
 3396TIP3    H210195   3.390   0.795   3.316  0.9443  1.8065 -1.2967
 3397TIP3   OH210196   5.743   4.233   3.643 -0.1801  0.2140  0.8413
 3397TIP3    H110197   5.751   4.138   3.655 -0.5340  0.1940  0.9361
 3397TIP3    H210198   5.828   4.260   3.610 -0.0872 -0.1434  0.7820
 3398TIP3   OH210199   1.461   1.721   2.398 -0.2742 -0.1100  0.2753
 3398TIP3    H110200   1.508   1.663   2.337 -2.0656 -0.6664 -0.6505
 3398TIP3    H210201   1.383   1.747   2.350 -1.4482 -0.0730  2.1267
 3399TIP3   OH210202   5.244   3.471   0.915  0.2404 -0.1305  1.0376
 3399TIP3    H110203   5.241   3.533   0.988  0.4401 -0.9697  1.7753
 3399TIP3    H210204   5.335   3.472   0.887  0.6060 -1.2197  2.0773
 3400TIP3   OH210205   4.418   5.606   1.276 -0.6761  0.2462 -0.2632
 3400TIP3    H110206   4.325   5.582   1.273 -0.4668 -0.5693 -0.4210
 3400TIP3    H210207   4.433   5.654   1.194 -0.7050 -0.5908 -0.7655
 3401TIP3   OH210208   2.250   4.253   4.617 -0.8872 -0.7296  0.3963
 3401TIP3    H110209   2.211   4.209   4.541  0.6138  0.3569 -1.0747
 3401TIP3    H210210   2.276   4.339   4.584 -1.3197  0.2637  2.5092
 3402TIP3   OH210211   0.961   3.614   0.439  0.1538 -0.0483 -0.4242
 3402TIP3    H110212   1.050   3.578   0.442 -0.5543 -1.9602 -0.5967
 3402TIP3    H210213   0.942   3.639   0.529  0.5457 -0.5170 -0.2032
 3403TIP3   OH210214   3.988   1.867   4.123  0.4434  0.5655 -0.0375
 3403TIP3    H110215   3.993   1.783   4.077 -0.0898  1.2934 -1.4861
 3403TIP3    H210216   3.916   1.913   4.081 -0.4195  1.0993  1.8991
 3404TIP3   OH210217   4.766   5.276   0.184 -0.2442 -0.3224  0.2900
 3404TIP3    H110218   4.813   5.273   0.267  1.3490 -2.2911 -0.5806
 3404TIP3    H210219   4.702   5.205   0.189 -0.2774 -0.3253 -0.0844
 3405TIP3   OH210220   6.275   4.987   5.144  0.1035 -0.5674 -0.3128
 3405TIP3    H110221   6.260   4.993   5.049 -2.1309  1.1402  0.0591
 3405TIP3    H210222   6.346   5.048   5.161 -2.3170  2.5995 -0.4856
 3406TIP3   OH210223   6.309   0.179   0.194 -0.5454 -0.3208  0.2980
 3406TIP3    H110224   6.318   0.237   0.270  0.2962 -1.2114  0.9069
 3406TIP3    H210225   6.380   0.205   0.135 -0.9751  0.1274 -0.0311
 3407TIP3   OH210226   0.188   5.575   4.365 -0.4885 -0.2091 -0.6870
 3407TIP3    H110227   0.209   5.493   4.319  2.3004 -0.0306  0.0973
 3407TIP3    H210228   0.145   5.547   4.446  0.9108 -0.9703 -0.1791
 3408TIP3   OH210229   2.647   2.965   0.394 -0.1023 -1.0270  0.0387
 3408TIP3    H110230   2.682   3.039   0.444 -1.1778 -1.0801  0.8955
 3408TIP3    H210231   2.623   3.003   0.310  0.9711 -0.7722 -0.1702
 3409TIP3   OH210232   5.783   2.228   3.816 -0.6724  0.3478 -0.4968
 3409TIP3    H110233   5.693   2.256   3.833 -0.1423  1.2079  0.9780
 3409TIP3    H210234   5.818   2.293   3.756 -1.1681 -0.2805 -1.5044
 3410TIP3   OH210235   4.910   3.438   0.507  0.1103  0.1381 -0.7796
 3410TIP3    H110236   4.984   3.431   0.568 -0.5346  0.0407  0.0071
 3410TIP3    H210237   4.893   3.349   0.479  0.0143  0.1053 -0.6195
 3411TIP3   OH210238   2.640   3.210   4.987  0.1954  0.5767  0.0265
 3411TIP3    H110239   2.619   3.154   4.912 -2.1097  0.8017  0.4085
 3411TIP3    H210240   2.613   3.298   4.959  1.0892  1.0025  0.4668
 3412TIP3   OH210241   1.037   0.231   1.372  0.2084 -0.5394  0.2770
 3412TIP3    H110242   1.053   0.136   1.371  2.6635 -0.1862 -1.1407
 3412TIP3    H210243   1.048   0.255   1.464 -1.1102 -1.6876  0.7713
 3413TIP3   OH210244   3.345   4.947   2.183 -0.2773  0.1146 -0.4049
 3413TIP3    H110245   3.294   4.882   2.230 -0.5117  1.3077  1.0429
 3413TIP3    H210246   3.436   4.930   2.207 -0.4989  1.6122  1.7292
 3414TIP3   OH210247   2.908   2.251   1.710  0.1231  0.3137  0.0406
 3414TIP3    H110248   2.966   2.310   1.662  0.1197  0.2873  0.0043
 3414TIP3    H210249   2.821   2.269   1.675 -0.3386  2.3736  2.0247
 3415TIP3   OH210250   1.947   1.509   3.712  0.6002 -0.5770 -0.5595
 3415TIP3    H110251   1.883   1.548   3.770  0.5431 -0.9767 -0.3467
 3415TIP3    H210252   1.917   1.418   3.701  0.7012 -0.5505 -1.0780
 3416TIP3   OH210253   0.395   4.893   1.074  0.0454  0.2589 -0.2404
 3416TIP3    H110254   0.326   4.942   1.118 -0.9804 -0.3265 -1.1414
 3416TIP3    H210255   0.464   4.885   1.140 -1.5239 -0.7933  1.3977
 3417TIP3   OH210256   3.244   5.664   1.216 -0.1595  0.3439 -0.3948
 3417TIP3    H110257   3.276   5.585   1.171 -0.9144 -1.2330  1.6831
 3417TIP3    H210258   3.162   5.637   1.256 -1.1414  2.6311 -0.7443
 3418TIP3   OH210259   1.337   1.632   4.028  0.3533 -0.6470  0.2209
 3418TIP3    H110260   1.397   1.697   4.062 -0.6804  1.7480 -2.1392
 3418TIP3    H210261   1.250   1.662   4.056 -0.1271 -1.1460 -0.6771
 3419TIP3   OH210262   1.426   5.588   3.307  0.1425 -0.3834  0.5395
 3419TIP3    H110263   1.331   5.598   3.300  0.1540 -0.1454  0.7057
 3419TIP3    H210264   1.447   5.515   3.249  0.1339  0.9640 -1.2627
 3420TIP3   OH210265   2.986   5.225   4.078  0.5972  0.1332  0.2990
 3420TIP3    H110266   2.905   5.199   4.033  0.5155  1.6951 -0.5121
 3420TIP3    H210267   2.979   5.320   4.087  1.2023  0.0171  2.5178
 3421TIP3   OH210268   4.725   5.314   2.970 -0.2524 -0.1353  0.1659
 3421TIP3    H110269   4.714   5.300   3.064 -0.4265 -0.2334  0.1323
 3421TIP3    H210270   4.674   5.393   2.951  0.3560  0.2891  0.2759
 3422TIP3   OH210271   2.656   3.690   3.951  0.5287 -0.1650  0.2865
 3422TIP3    H110272   2.595   3.682   4.024 -0.4618  0.9953 -0.3855
 3422TIP3    H210273   2.716   3.760   3.977 -0.1644  0.6347 -0.2213
 3423TIP3   OH210274   3.374   0.828   4.023 -0.1594 -0.2917 -0.3417
 3423TIP3    H110275   3.335   0.897   3.971  1.3512  0.4120 -0.6091
 3423TIP3    H210276   3.398   0.760   3.959 -1.0041 -0.7632 -0.1682
 3424TIP3   OH210277   4.590   0.392   3.449 -0.2211  0.2416 -0.7956
 3424TIP3    H110278   4.516   0.368   3.504  1.1372 -1.0670  0.5558
 3424TIP3    H210279   4.620   0.309   3.412  0.4578  0.7778 -1.4876
 3425TIP3   OH210280   4.526   0.490   3.186  0.0524  0.3413 -0.1707
 3425TIP3    H110281   4.542   0.484   3.281  1.7411  0.1255 -0.4338
 3425TIP3    H210282   4.565   0.410   3.151 -1.2693  0.0364 -0.9831
 3426TIP3   OH210283   1.336   2.200   3.159  0.7876  0.2772  0.1106
 3426TIP3    H110284   1.295   2.176   3.077  1.9220  1.4250 -0.8271
 3426TIP3    H210285   1.296   2.141   3.224 -1.1177  0.2798 -0.9919
 3427TIP3   OH210286   2.033   2.677   5.096  0.8595 -0.1510  0.0657
 3427TIP3    H110287   2.044   2.597   5.147  1.6479 -1.4714 -2.0488
 3427TIP3    H210288   2.122   2.711   5.087  0.5699  0.7912  0.6351
 3428TIP3   OH210289   4.300   2.783   3.410 -0.9713 -0.2469 -0.0390
 3428TIP3    H110290   4.386   2.820   3.391 -0.6088 -1.1315 -0.1320
 3428TIP3    H210291   4.317   2.712   3.471 -1.5076 -1.1983 -0.9690
 3429TIP3   OH210292   2.152   2.688   3.831  0.3986 -0.1161 -0.0150
 3429TIP3    H110293   2.114   2.710   3.916 -0.5478  0.1950 -0.4968
 3429TIP3    H210294   2.211   2.615   3.848 -1.3017 -1.4206  0.6115
 3430TIP3   OH210295   1.439   4.094   0.679 -0.2006  0.7194 -0.2203
 3430TIP3    H110296   1.480   4.010   0.661  0.3470  1.0303 -0.4620
 3430TIP3    H210297   1.481   4.155   0.618 -0.1785  1.2768  0.3380
 3431TIP3   OH210298   5.215   3.609   5.058  0.1897  0.1419  0.2081
 3431TIP3    H110299   5.167   3.527   5.050  0.4941  0.1133 -1.8060
 3431TIP3    H210300   5.147   3.677   5.061 -0.0524 -0.1206  1.6384
 3432TIP3   OH210301   6.186   3.914   3.910  0.0063  0.1184 -0.2757
 3432TIP3    H110302   6.210   3.996   3.952 -0.8792  1.8213 -2.8468
 3432TIP3    H210303   6.267   3.863   3.910  0.2594  0.3679  2.5188
 3433TIP3   OH210304   3.496   5.498   2.329  0.2131  0.3517  0.0164
 3433TIP3    H110305   3.466   5.407   2.333 -2.0426  1.0749  2.7048
 3433TIP3    H210306   3.424   5.546   2.288  0.9439  1.1072 -0.4162
 3434TIP3   OH210307   0.850  -0.007   4.687  0.4179 -0.1841 -0.1476
 3434TIP3    H110308   0.803   0.067   4.725  2.0095  1.2537 -0.8259
 3434TIP3    H210309   0.805  -0.024   4.605 -0.5281 -0.5971  0.4465
 3435TIP3   OH210310   0.876   1.270   1.487 -0.0052 -0.1055  0.2749
 3435TIP3    H110311   0.805   1.324   1.520 -1.1942  0.9104 -3.4137
 3435TIP3    H210312   0.856   1.182   1.518 -0.5807  0.7973  2.6234
 3436TIP3   OH210313   0.010   0.571  -0.022 -0.6464 -0.1847 -0.1454
 3436TIP3    H110314  -0.059   0.519   0.020  0.3595 -2.0245 -0.6416
 3436TIP3    H210315   0.076   0.582   0.046 -1.2418  1.2963  0.2309
 3437TIP3   OH210316   2.074   0.892   3.822 -0.0966  0.2308 -0.3450
 3437TIP3    H110317   2.160   0.858   3.794  0.4781  1.9661 -0.7896
 3437TIP3    H210318   2.011   0.834   3.779  0.7509 -2.6842  1.9558
 3438TIP3   OH210319   3.628   3.715   4.999 -0.4485 -0.4305  0.7617
 3438TIP3    H110320   3.653   3.801   5.034 -0.3890 -0.9461  2.0242
 3438TIP3    H210321   3.680   3.706   4.919  0.0191  0.4442  0.9511
 3439TIP3   OH210322   3.868   2.047   0.069  0.0365  0.1957 -0.3012
 3439TIP3    H110323   3.828   1.965   0.041  0.6979 -1.1826  2.4547
 3439TIP3    H210324   3.963   2.030   0.067  0.1750  0.8154  0.4630
 3440TIP3   OH210325   4.688   5.991   0.724  0.6294 -0.3390 -0.1103
 3440TIP3    H110326   4.658   5.912   0.768  0.2459  0.8931  1.9784
 3440TIP3    H210327   4.768   6.016   0.771 -0.5762  1.8146  0.9404
 3441TIP3   OH210328   1.800   2.477   2.000  0.3638  0.4163  0.1995
 3441TIP3    H110329   1.785   2.458   1.908 -0.9388 -0.8185  0.6262
 3441TIP3    H210330   1.798   2.391   2.043 -0.8503  1.1108  1.6006
 3442TIP3   OH210331   5.571   3.337   1.985  0.9638 -0.2863  0.5994
 3442TIP3    H110332   5.528   3.291   2.056 -1.6856 -0.8451 -1.2360
 3442TIP3    H210333   5.507   3.402   1.955  1.9614 -0.0851 -1.2846
 3443TIP3   OH210334   4.103   3.622   4.309  0.2722 -0.4841 -0.5332
 3443TIP3    H110335   4.023   3.617   4.257 -1.6737 -3.1764  2.3006
 3443TIP3    H210336   4.140   3.533   4.305  1.6835  0.0225  0.2952
 3444TIP3   OH210337   1.082   5.439   2.248  0.4412 -0.0258  0.5366
 3444TIP3    H110338   1.117   5.528   2.244  1.8675 -0.4489  2.4497
 3444TIP3    H210339   0.987   5.451   2.241  0.6099  1.6394  0.6390
 3445TIP3   OH210340   3.896   5.633   3.805  0.0219 -0.1361  0.6247
 3445TIP3    H110341   3.890   5.714   3.855  1.0857  0.4794 -0.1928
 3445TIP3    H210342   3.874   5.564   3.868 -2.4503  0.8477  0.9501
 3446TIP3   OH210343   3.305   2.209   4.579  0.0215  0.0721 -0.3628
 3446TIP3    H110344   3.276   2.120   4.602 -1.6561  0.9688  1.2305
 3446TIP3    H210345   3.224   2.260   4.577  0.6714  1.1777 -3.4424
 3447TIP3   OH210346   3.094   3.836   0.737 -0.0122  0.7912  0.0343
 3447TIP3    H110347   3.144   3.755   0.746  0.7462  1.2052 -0.4028
 3447TIP3    H210348   3.024   3.828   0.802  0.1933 -0.1076  0.1570
 3448TIP3   OH210349   5.209   0.654   0.808  0.4014 -0.2369 -0.2760
 3448TIP3    H110350   5.133   0.595   0.820 -0.6656  0.9083 -1.1256
 3448TIP3    H210351   5.193   0.696   0.724  1.4358  0.8617  0.0521
 3449TIP3   OH210352   1.597   3.983   4.916  0.2775  0.0874  0.4922
 3449TIP3    H110353   1.584   3.918   4.847  2.8458 -1.0528  0.9820
 3449TIP3    H210354   1.510   4.023   4.928 -1.1578 -2.4926 -0.5424
 3450TIP3   OH210355   0.833   3.672   4.472 -0.3182  0.9190  0.5760
 3450TIP3    H110356   0.791   3.715   4.398 -0.3408 -0.5765 -0.3355
 3450TIP3    H210357   0.772   3.603   4.498  0.1314  0.7951  1.3489
 3451TIP3   OH210358   3.199   4.813   2.376 -0.2002 -0.0031 -0.7561
 3451TIP3    H110359   3.203   4.749   2.448  0.4766 -0.8777 -1.5524
 3451TIP3    H210360   3.163   4.763   2.302 -1.0208  0.9244 -0.9994
 3452TIP3   OH210361   1.968   1.808   2.360  0.4443  0.0416  0.1997
 3452TIP3    H110362   1.987   1.718   2.387  2.1922  0.7037  1.3521
 3452TIP3    H210363   2.005   1.814   2.272  1.0336 -0.1543  0.4289
 3453TIP3   OH210364   0.776   4.634   1.131  0.2816 -0.0398 -1.0309
 3453TIP3    H110365   0.867   4.606   1.116  0.4851  0.0339  0.0366
 3453TIP3    H210366   0.740   4.643   1.043  1.3749  0.1552 -1.4764
 3454TIP3   OH210367   0.872   2.607   0.736  0.2293  0.4804  0.4075
 3454TIP3    H110368   0.961   2.591   0.705 -0.3898 -0.3912 -1.0395
 3454TIP3    H210369   0.878   2.688   0.786  1.5464  1.3313 -1.0422
 3455TIP3   OH210370   4.843   4.572   4.328 -0.3668  0.0237  0.4923
 3455TIP3    H110371   4.824   4.603   4.416 -0.5566  2.8532 -0.4171
 3455TIP3    H210372   4.766   4.596   4.277  0.0627 -0.8340 -0.6063
 3456TIP3   OH210373   4.515   0.330   1.032 -0.0805  0.2931  0.2591
 3456TIP3    H110374   4.515   0.422   1.005  1.2975  0.5229  0.9657
 3456TIP3    H210375   4.523   0.332   1.127  3.2416 -0.5217  0.1170
 3457TIP3   OH210376   4.891   1.152   4.929  0.2801  0.3256  0.1769
 3457TIP3    H110377   4.830   1.145   4.856 -0.2749 -2.4147  0.7925
 3457TIP3    H210378   4.836   1.139   5.007  0.9104  2.8624  1.1228
 3458TIP3   OH210379   4.591   2.322   2.825 -0.4011 -0.3953 -0.2385
 3458TIP3    H110380   4.646   2.355   2.897  1.7385 -2.4054 -0.8226
 3458TIP3    H210381   4.501   2.333   2.857  0.4328 -2.2366  3.2886
 3459TIP3   OH210382   4.619   0.888   4.609 -0.0892  0.4374 -0.1915
 3459TIP3    H110383   4.552   0.956   4.621  0.0667  0.5699 -0.0756
 3459TIP3    H210384   4.590   0.840   4.531  0.3289  1.2583 -0.8610
 3460TIP3   OH210385   5.879   1.509   4.911  0.0491  0.6680  0.3996
 3460TIP3    H110386   5.965   1.493   4.949  0.2621 -1.5601 -0.8343
 3460TIP3    H210387   5.828   1.430   4.934 -0.4853  0.2452 -1.9556
 3461TIP3   OH210388   4.891   1.205   4.398 -0.3464  0.2893  0.5220
 3461TIP3    H110389   4.968   1.153   4.421  0.0670  1.0222  0.8090
 3461TIP3    H210390   4.867   1.250   4.478 -1.1510 -0.0104  0.4653
 3462TIP3   OH210391   3.331   5.329   1.676 -0.0446  0.7680 -0.3011
 3462TIP3    H110392   3.303   5.323   1.768 -0.3456 -1.4128 -0.4736
 3462TIP3    H210393   3.411   5.381   1.679  1.8041 -1.9309  1.7216
 3463TIP3   OH210394   2.518   5.753   4.835 -0.1115  0.1279  0.4734
 3463TIP3    H110395   2.600   5.801   4.823  0.6535 -0.7190  2.0787
 3463TIP3    H210396   2.453   5.805   4.787  1.5206  0.2182 -1.8242
 3464TIP3   OH210397   4.639   4.511   1.289 -0.1390  0.2407  0.4094
 3464TIP3    H110398   4.584   4.463   1.350 -1.4661 -0.5090 -1.2703
 3464TIP3    H210399   4.727   4.477   1.305 -1.0465 -3.2930 -0.9877
 3465TIP3   OH210400   5.903   0.885   1.452 -0.0825  0.4824 -0.0914
 3465TIP3    H110401   5.854   0.953   1.406 -0.9855  2.1240  2.9866
 3465TIP3    H210402   5.936   0.929   1.531  3.8718 -1.3354 -0.4971
 3466TIP3   OH210403   3.862   0.354   3.220  0.1018  0.0719 -0.0150
 3466TIP3    H110404   3.820   0.436   3.192 -0.0635 -0.5898 -1.8431
 3466TIP3    H210405   3.855   0.355   3.316 -1.4381  1.3673 -0.1005
 3467TIP3   OH210406   1.898   1.925   2.984  0.2092  0.4505  0.2588
 3467TIP3    H110407   1.835   1.897   2.919  1.4363  0.8286 -1.1463
 3467TIP3    H210408   1.983   1.911   2.943  0.9935  1.9696  1.2476
 3468TIP3   OH210409   3.473   5.756   1.467 -0.2981 -0.0660  0.0425
 3468TIP3    H110410   3.529   5.814   1.415 -0.4758  0.7057  0.6984
 3468TIP3    H210411   3.501   5.667   1.442 -0.0102  0.2937 -0.9567
 3469TIP3   OH210412   1.133   3.942   4.762 -0.2603 -0.4237  0.3240
 3469TIP3    H110413   1.057   3.904   4.717 -0.7339  0.2627  0.5317
 3469TIP3    H210414   1.106   3.949   4.853  0.6260 -1.6137  0.7005
 3470TIP3   OH210415   0.903   0.177   1.659 -0.0016  0.3955 -0.1270
 3470TIP3    H110416   0.822   0.225   1.677 -0.7468 -0.2930 -1.4855
 3470TIP3    H210417   0.972   0.244   1.661 -1.1463  1.8435 -3.2171
 3471TIP3   OH210418   1.222   1.408   4.500  0.1413  0.5162  0.1060
 3471TIP3    H110419   1.257   1.365   4.578  0.9631 -1.5240 -1.2905
 3471TIP3    H210420   1.268   1.366   4.427 -0.1808  2.7372 -1.4753
 3472TIP3   OH210421   2.543   0.375   1.937 -0.1351 -0.7190  0.1825
 3472TIP3    H110422   2.609   0.321   1.980 -1.2947 -1.3088  1.2988
 3472TIP3    H210423   2.592   0.430   1.876  1.6034  0.1230  2.2221
 3473TIP3   OH210424   4.586   3.642   1.168  0.5132  0.3864  0.1478
 3473TIP3    H110425   4.506   3.637   1.220  0.0837  1.0896 -0.4141
 3473TIP3    H210426   4.557   3.621   1.079  0.6575  2.0532 -0.3188
 3474TIP3   OH210427   3.924   1.126   1.795  0.2716  0.0351  0.0428
 3474TIP3    H110428   3.830   1.135   1.779  0.1490  0.1527  0.7863
 3474TIP3    H210429   3.962   1.209   1.765  0.0617  0.2182  0.2815
 3475TIP3   OH210430   2.295   5.186   1.659  0.4524 -0.2308 -0.0674
 3475TIP3    H110431   2.383   5.171   1.695 -0.2413 -0.2868  1.6955
 3475TIP3    H210432   2.255   5.099   1.658  0.4552 -0.2298 -1.0308
 3476TIP3   OH210433   2.392   2.975   2.981 -0.1258  0.2628  0.1770
 3476TIP3    H110434   2.391   3.060   2.938  0.0121  0.2147  0.0801
 3476TIP3    H210435   2.396   2.912   2.910  0.8703  0.2015  0.2773
 3477TIP3   OH210436   0.169   1.469   4.385 -0.1596  0.0721  0.1006
 3477TIP3    H110437   0.146   1.379   4.409  1.6763  0.1440  2.4132
 3477TIP3    H210438   0.101   1.522   4.426 -0.8702 -0.1696 -0.7143
 3478TIP3   OH210439   6.166   4.879   0.434  0.3897  0.2117 -0.0750
 3478TIP3    H110440   6.114   4.798   0.439  0.6274 -0.0173 -0.9937
 3478TIP3    H210441   6.119   4.942   0.488  0.2580 -0.5735  0.7465
 3479TIP3   OH210442   5.627   2.652   4.547  0.2015 -0.2410 -0.2301
 3479TIP3    H110443   5.536   2.681   4.545  0.2694  0.2908  1.9137
 3479TIP3    H210444   5.645   2.623   4.458 -1.9062  0.1094 -0.8220
 3480TIP3   OH210445   3.462   2.830   3.215 -0.2310  0.3976  0.3411
 3480TIP3    H110446   3.418   2.882   3.148  0.2806 -1.8014 -1.8678
 3480TIP3    H210447   3.397   2.764   3.239 -0.1629  0.7552  1.5410
 3481TIP3   OH210448   6.322   1.484   4.740 -0.0942  0.0267  0.4180
 3481TIP3    H110449   6.241   1.441   4.766 -0.1595 -0.3448 -0.3805
 3481TIP3    H210450   6.325   1.564   4.793 -0.9220 -0.0123  0.5306
 3482TIP3   OH210451   5.543   2.291   1.270 -0.1832 -0.4261 -0.2594
 3482TIP3    H110452   5.527   2.338   1.189  0.2942  0.7083  0.2818
 3482TIP3    H210453   5.596   2.216   1.245  0.5118  0.2662 -0.9167
 3483TIP3   OH210454   1.962   3.528   1.047  0.1286 -0.4403  0.1236
 3483TIP3    H110455   2.054   3.555   1.035 -0.2665  0.4626 -1.0768
 3483TIP3    H210456   1.960   3.488   1.134  1.4065  0.6982  0.7162
 3484TIP3   OH210457   5.800   5.373   1.286 -0.3293  0.1901 -0.2846
 3484TIP3    H110458   5.864   5.302   1.291 -1.3311 -0.6963  0.5115
 3484TIP3    H210459   5.717   5.329   1.267 -1.4322  0.8318  2.5380
 3485TIP3   OH210460   2.169   5.396   0.111  0.0492  0.0105 -0.0683
 3485TIP3    H110461   2.262   5.403   0.132 -0.6670 -0.0664  4.0180
 3485TIP3    H210462   2.155   5.303   0.095  0.2643 -0.4867  2.3232
 3486TIP3   OH210463   1.283   3.445   0.232 -0.1557  0.2567 -0.2521
 3486TIP3    H110464   1.292   3.352   0.215  1.4015  0.3663 -0.2142
 3486TIP3    H210465   1.261   3.451   0.325  2.1861 -0.0426  0.3844
 3487TIP3   OH210466   4.905   3.564   4.334 -0.1049 -0.1389  0.5140
 3487TIP3    H110467   4.866   3.506   4.269  1.5579 -0.0385 -0.6429
 3487TIP3    H210468   4.836   3.627   4.354 -0.8203 -0.4673 -0.7791
 3488TIP3   OH210469   5.309   0.213   4.076 -0.0931  0.1209 -0.1148
 3488TIP3    H110470   5.249   0.196   4.003 -1.0510  3.7147 -0.3782
 3488TIP3    H210471   5.269   0.169   4.151 -1.1364 -0.5169 -1.0089
 3489TIP3   OH210472   5.087   0.460   4.079  0.2630 -0.4914 -0.2183
 3489TIP3    H110473   5.115   0.436   4.168  1.4609  2.8617  0.4600
 3489TIP3    H210474   5.150   0.416   4.022  1.2723 -0.4099  0.7951
 3490TIP3   OH210475   1.385   5.147   3.790  0.8685  0.9181  0.0591
 3490TIP3    H110476   1.404   5.162   3.697 -2.0830  0.4366 -0.7234
 3490TIP3    H210477   1.445   5.077   3.816  0.5474 -0.2302 -2.0350
 3491TIP3   OH210478   2.546   1.316   2.189  0.4863 -0.1776 -0.1526
 3491TIP3    H110479   2.460   1.316   2.229 -0.1727 -0.4977 -1.5177
 3491TIP3    H210480   2.554   1.402   2.147  1.0929  0.0881  0.4815
 3492TIP3   OH210481   2.303   1.942   0.787  0.4489  0.1633  0.2367
 3492TIP3    H110482   2.230   1.948   0.849  1.0641 -0.2283  1.0161
 3492TIP3    H210483   2.348   2.026   0.793  0.4516  0.1617  0.2402
 3493TIP3   OH210484   4.341   2.390   3.030 -0.0638  0.2941  0.7488
 3493TIP3    H110485   4.281   2.464   3.037  0.2713  0.6110  0.2534
 3493TIP3    H210486   4.285   2.315   3.011 -0.4181  0.3870  1.3795
 3494TIP3   OH210487   3.968   1.733   4.372  0.2862  0.3478  0.3671
 3494TIP3    H110488   3.938   1.779   4.294  1.9084  2.6597  0.9918
 3494TIP3    H210489   3.956   1.796   4.443 -1.4978 -1.7981  2.1482
 3495TIP3   OH210490   4.038   1.247   2.773  0.0885  0.3470  0.5987
 3495TIP3    H110491   4.045   1.215   2.863 -2.9611  0.1851  0.8796
 3495TIP3    H210492   3.948   1.277   2.765  0.1381 -0.0342 -2.5482
 3496TIP3   OH210493   6.089   1.671   1.394 -0.8562 -0.1737 -0.1059
 3496TIP3    H110494   6.082   1.709   1.306 -0.8493  1.4756  0.5653
 3496TIP3    H210495   6.021   1.716   1.445  0.8576  0.8864  1.3682
 3497TIP3   OH210496   1.343   2.092   4.396 -0.2033  0.3493  0.1480
 3497TIP3    H110497   1.437   2.109   4.398 -0.4633  1.9821 -0.4182
 3497TIP3    H210498   1.322   2.064   4.485  0.7715  0.2161  0.3447
 3498TIP3   OH210499   0.694   4.441   3.973  0.2469 -0.2756  0.3819
 3498TIP3    H110500   0.629   4.429   3.903 -0.3477 -2.5261  1.2109
 3498TIP3    H210501   0.659   4.390   4.046  2.8958 -1.5014  0.9151
 3499TIP3   OH210502   5.138   3.333   3.225 -0.4402 -0.1217  0.1536
 3499TIP3    H110503   5.135   3.333   3.321 -0.0043  0.3329  0.1714
 3499TIP3    H210504   5.058   3.378   3.199  0.0816  0.9434  0.3406
 3500TIP3   OH210505   3.030   2.836   1.205  0.2093 -0.6552  0.2908
 3500TIP3    H110506   3.089   2.810   1.134 -1.6095 -2.3803 -0.6803
 3500TIP3    H210507   3.053   2.778   1.278  0.1522 -0.8754  0.1352
 3501TIP3   OH210508   6.277   2.459   3.747  0.5053 -0.3366  0.1477
 3501TIP3    H110509   6.243   2.483   3.833  0.3152  0.5884 -0.1709
 3501TIP3    H210510   6.250   2.368   3.735  1.0559 -0.6656  1.3091
 3502TIP3   OH210511   0.450   4.026   3.460  0.4468 -0.1398 -0.5295
 3502TIP3    H110512   0.469   4.007   3.368 -0.1225  0.8684 -0.8801
 3502TIP3    H210513   0.385   4.096   3.456  1.3448  0.8033  0.6475
 3503TIP3   OH210514   1.656   1.969   1.215 -0.1500 -0.1900 -0.0566
 3503TIP3    H110515   1.630   1.919   1.138  2.2902 -2.9541  0.7197
 3503TIP3    H210516   1.598   1.938   1.285 -0.7665  0.5144 -0.2475
 3504TIP3   OH210517   5.960   4.305   2.051  0.0801 -0.9549  0.0249
 3504TIP3    H110518   6.044   4.272   2.020  1.6081 -0.1249  2.9240
 3504TIP3    H210519   5.982   4.383   2.102 -2.7599  0.9116 -1.3538
 3505TIP3   OH210520   5.644   0.823   2.533 -0.5431 -0.1971  0.0499
 3505TIP3    H110521   5.685   0.746   2.494 -0.1566 -0.5232  1.0619
 3505TIP3    H210522   5.631   0.884   2.460  1.2060 -0.3105 -0.4025
 3506TIP3   OH210523   2.054   2.401   4.164 -0.5323 -0.3421  0.6063
 3506TIP3    H110524   2.065   2.306   4.160  0.0499 -0.2524 -0.0659
 3506TIP3    H210525   2.002   2.422   4.086 -2.2490 -0.3074  1.7137
 3507TIP3   OH210526   5.060   3.085   0.714 -0.1063  0.0314 -0.3588
 3507TIP3    H110527   5.132   3.147   0.700  0.5279 -0.5889  0.0598
 3507TIP3    H210528   5.038   3.053   0.627 -0.5853  0.9965 -0.6016
 3508TIP3   OH210529   2.370   0.838   5.065  0.7233  0.3121 -0.1216
 3508TIP3    H110530   2.449   0.859   5.015  0.1657  2.3367 -0.2341
 3508TIP3    H210531   2.384   0.748   5.096  3.0263  0.5900 -0.2027
 3509TIP3   OH210532   5.174   2.846   4.437  0.3296  0.2257 -0.3855
 3509TIP3    H110533   5.140   2.875   4.353 -1.0053  0.7029  0.3000
 3509TIP3    H210534   5.107   2.869   4.500  1.4980  0.2824  0.8901
 3510TIP3   OH210535   4.748   3.459   0.904 -0.0148  0.1081  0.1650
 3510TIP3    H110536   4.825   3.499   0.946  0.1820  0.2708 -0.3459
 3510TIP3    H210537   4.783   3.380   0.862  0.1078  0.7895 -1.0532
 3511TIP3   OH210538   5.769   2.933   3.704  0.2319 -0.2085  0.1825
 3511TIP3    H110539   5.795   3.023   3.721  0.7240 -0.2535 -0.3188
 3511TIP3    H210540   5.699   2.941   3.639 -1.1149 -0.0837  1.5713
 3512TIP3   OH210541   3.501   4.047   0.233 -0.0651  0.1530 -0.1331
 3512TIP3    H110542   3.421   3.994   0.230  0.8788 -1.3219 -0.0981
 3512TIP3    H210543   3.503   4.091   0.149 -0.6392 -0.2145 -0.3491
 3513TIP3   OH210544   1.992   0.725   0.918  0.2371  0.5398  0.3485
 3513TIP3    H110545   2.067   0.776   0.949  0.2479  0.4928  0.4010
 3513TIP3    H210546   1.922   0.789   0.905 -0.6051  0.2750  2.9830
 3514TIP3   OH210547   5.845   5.420   4.247 -0.1953  0.0115  0.3458
 3514TIP3    H110548   5.937   5.422   4.221 -0.2032 -2.2737 -0.0846
 3514TIP3    H210549   5.800   5.471   4.179  0.6576  0.5808  0.1932
 3515TIP3   OH210550   4.576   2.280   2.029  0.1789  0.5551 -0.4495
 3515TIP3    H110551   4.559   2.310   1.939  0.7402 -0.1125 -0.7885
 3515TIP3    H210552   4.671   2.278   2.036  0.1516 -0.5130 -0.2340
 3516TIP3   OH210553   2.709   0.857   0.883  0.1704  0.5066  0.2696
 3516TIP3    H110554   2.669   0.941   0.863 -0.8161 -0.0475 -0.1680
 3516TIP3    H210555   2.718   0.813   0.799 -1.0089 -0.5438  0.6574
 3517TIP3   OH210556   6.077   2.062   4.394 -0.0480 -0.5748  0.1456
 3517TIP3    H110557   6.088   1.983   4.447 -0.9410 -1.4806 -0.9648
 3517TIP3    H210558   6.046   2.030   4.309  0.3795  0.9078 -0.6106
 3518TIP3   OH210559   5.356   0.993   0.856  0.4325  0.2201  0.2098
 3518TIP3    H110560   5.387   0.943   0.781 -0.3536 -1.0046  0.6772
 3518TIP3    H210561   5.332   1.078   0.819  1.9054  0.3271 -0.5733
 3519TIP3   OH210562   5.099   2.774   0.070  0.3614 -0.3800  0.7065
 3519TIP3    H110563   5.103   2.687   0.032 -0.7459  0.2037 -0.8897
 3519TIP3    H210564   5.005   2.794   0.073  0.6151  0.9020  0.6435
 3520TIP3   OH210565   1.536   4.931   3.267  0.2565 -0.3614  0.8222
 3520TIP3    H110566   1.456   4.889   3.235  1.0358 -1.6986  0.5476
 3520TIP3    H210567   1.519   5.025   3.260 -2.1478 -0.5325  2.8602
 3521TIP3   OH210568   4.233   0.453   3.331 -0.4660 -0.4663 -0.2656
 3521TIP3    H110569   4.328   0.456   3.319 -0.1467 -1.1270  1.6900
 3521TIP3    H210570   4.206   0.372   3.288  0.0748 -0.9880  0.3597
 3522TIP3   OH210571   1.000   0.528   0.594 -0.1852 -0.2506 -0.2616
 3522TIP3    H110572   1.054   0.595   0.637 -0.3205 -0.6301  0.5182
 3522TIP3    H210573   1.017   0.540   0.500  1.3998 -0.4719 -0.0353
 3523TIP3   OH210574   5.455   2.991   4.509 -0.2447 -0.2419 -0.0748
 3523TIP3    H110575   5.364   2.968   4.487 -0.1517 -0.7964  0.1075
 3523TIP3    H210576   5.465   3.080   4.476 -1.5628  0.7132  1.9393
 3524TIP3   OH210577   2.685   0.665   2.711 -0.0874 -0.3564 -0.1177
 3524TIP3    H110578   2.598   0.697   2.735  0.3324  0.6108  0.1778
 3524TIP3    H210579   2.739   0.682   2.788  0.3630 -0.9759 -0.2871
 3525TIP3   OH210580   3.117   0.923   2.675  0.0762 -0.1801  0.1441
 3525TIP3    H110581   3.113   1.002   2.728 -0.1575  0.3574 -0.6459
 3525TIP3    H210582   3.076   0.948   2.592 -3.7729 -2.2545  1.1852
 3526TIP3   OH210583   1.447   1.908   1.634  0.3303  0.2851  0.2653
 3526TIP3    H110584   1.515   1.889   1.699  1.2574  0.9461 -0.4981
 3526TIP3    H210585   1.441   2.003   1.633 -0.6860  0.2282  0.3940
 3527TIP3   OH210586   6.145   1.205   4.175 -0.1236  0.0227 -0.5474
 3527TIP3    H110587   6.147   1.119   4.216  0.4997  0.0082 -0.5957
 3527TIP3    H210588   6.065   1.247   4.208 -0.3842 -0.5414 -0.4646
 3528TIP3   OH210589   2.786   3.885   1.554 -0.4486 -0.3307  0.5550
 3528TIP3    H110590   2.821   3.801   1.582 -0.4754 -0.7043 -0.4862
 3528TIP3    H210591   2.814   3.947   1.622  0.4905 -0.9826  0.7814
 3529TIP3   OH210592   5.143   1.632   4.174 -0.7991  0.0339 -0.2276
 3529TIP3    H110593   5.128   1.648   4.268 -1.2369  0.1272 -0.3108
 3529TIP3    H210594   5.055   1.622   4.137 -0.5680 -2.2811 -0.2528
 3530TIP3   OH210595   0.182   3.395   0.180  0.2198 -0.2779  0.7028
 3530TIP3    H110596   0.132   3.317   0.204 -0.6483 -0.4041 -1.3177
 3530TIP3    H210597   0.121   3.468   0.194  0.0687 -0.2521 -0.0734
 3531TIP3   OH210598   0.051   4.024   4.953 -0.2042  0.0868 -0.4133
 3531TIP3    H110599   0.117   4.008   5.020 -2.4119 -2.2633  1.3995
 3531TIP3    H210600   0.021   4.113   4.969  0.7398  0.2829  0.3721
 3532TIP3   OH210601   1.636   3.596   4.047  0.6399  0.0380 -0.2413
 3532TIP3    H110602   1.616   3.626   3.958 -2.1011  0.4834  0.4453
 3532TIP3    H210603   1.624   3.673   4.102  0.8253 -0.5860  0.6989
 3533TIP3   OH210604   4.481   2.126   2.242  0.1193 -0.0464 -0.2345
 3533TIP3    H110605   4.468   2.206   2.293  3.4302 -0.0966  0.9199
 3533TIP3    H210606   4.507   2.156   2.155 -0.6555  0.0845 -0.4267
 3534TIP3   OH210607   4.582   0.540   2.353 -0.3838  0.2563 -0.4648
 3534TIP3    H110608   4.592   0.523   2.447 -0.8704 -0.0888 -0.4723
 3534TIP3    H210609   4.607   0.632   2.343  0.4132  0.0922 -0.1183
 3535TIP3   OH210610   0.891   0.479   3.525  0.0376  0.3695  0.1557
 3535TIP3    H110611   0.885   0.389   3.495  0.5890 -0.3102  1.9809
 3535TIP3    H210612   0.808   0.519   3.498 -0.2340 -0.6779 -0.6291
 3536TIP3   OH210613   3.250   4.664   2.636 -0.5801  0.5738 -0.4092
 3536TIP3    H110614   3.246   4.629   2.725  0.8958 -0.3896 -0.6670
 3536TIP3    H210615   3.274   4.756   2.648  0.4157  0.2617  0.2049
 3537TIP3   OH210616   1.974   2.122   4.659 -0.0240 -0.6851  0.3790
 3537TIP3    H110617   1.960   2.171   4.740 -0.7151  2.2654 -1.3950
 3537TIP3    H210618   2.060   2.082   4.670 -0.0439 -0.2604  2.4861
 3538TIP3   OH210619   1.017   3.401   4.967 -0.1885  0.4090  0.3950
 3538TIP3    H110620   0.928   3.369   4.956 -0.2887  1.1487 -1.1730
 3538TIP3    H210621   1.067   3.323   4.991 -1.1817 -0.0775  0.9458
 3539TIP3   OH210622   3.750   0.963   5.033  0.0095  0.0436  0.3591
 3539TIP3    H110623   3.790   0.913   5.105 -0.3907 -0.3797  0.2928
 3539TIP3    H210624   3.813   1.032   5.014  0.3222 -0.1087  0.8224
 3540TIP3   OH210625   1.695   2.427   4.231 -0.6784  0.1467  0.2857
 3540TIP3    H110626   1.759   2.357   4.248 -0.6708 -0.0873 -0.6673
 3540TIP3    H210627   1.636   2.390   4.166 -2.0727  0.2004  1.4665
 3541TIP3   OH210628   5.733   4.807   4.811 -0.2131 -1.0752  0.2567
 3541TIP3    H110629   5.675   4.755   4.756  1.2803 -0.7397 -1.7546
 3541TIP3    H210630   5.735   4.893   4.769 -0.0795 -0.3820  1.6348
 3542TIP3   OH210631   6.007   1.276   1.610  0.1962  0.6501  0.2390
 3542TIP3    H110632   6.082   1.288   1.552 -0.5173 -0.3314 -0.9533
 3542TIP3    H210633   5.961   1.360   1.609  2.6418  2.1800  3.1214
 3543TIP3   OH210634   1.226   0.580   1.576  0.1583  0.4332  0.1639
 3543TIP3    H110635   1.230   0.675   1.580  2.1484  0.4556 -0.9964
 3543TIP3    H210636   1.317   0.552   1.592  0.3197 -1.0677 -2.8241
 3544TIP3   OH210637   2.431   4.287   0.148  0.0378 -0.0924 -0.4859
 3544TIP3    H110638   2.370   4.252   0.213  0.6371 -2.2530 -1.0291
 3544TIP3    H210639   2.509   4.311   0.199  0.1132 -0.7914 -0.2642
 3545TIP3   OH210640   5.140   5.226   2.661 -0.1869 -0.2997 -0.5457
 3545TIP3    H110641   5.150   5.188   2.574 -1.2282  0.6709 -1.1334
 3545TIP3    H210642   5.180   5.163   2.720  0.3885 -1.0659 -1.7116
 3546TIP3   OH210643   5.234   1.960   2.818  0.3033  0.3938  0.2342
 3546TIP3    H110644   5.192   1.876   2.837  1.7680 -0.2651  0.6819
 3546TIP3    H210645   5.323   1.951   2.852  1.1246  1.3869 -1.5210
 3547TIP3   OH210646   4.577   4.130   0.433  0.3884 -0.0844  0.2515
 3547TIP3    H110647   4.503   4.189   0.417  1.5012  0.9923 -1.1631
 3547TIP3    H210648   4.594   4.089   0.348  2.0763  0.4869  0.2847
 3548TIP3   OH210649   6.038   5.736   0.290 -0.0269 -0.0665  0.5046
 3548TIP3    H110650   5.964   5.739   0.351  0.1001 -0.1660  0.6642
 3548TIP3    H210651   6.006   5.684   0.216 -0.2853  0.3149  0.3457
 3549TIP3   OH210652   1.356   0.893   1.384  0.0163  0.1011  0.5792
 3549TIP3    H110653   1.288   0.955   1.410 -0.5497  0.4824 -1.6030
 3549TIP3    H210654   1.308   0.818   1.348  0.7214 -0.3214  0.4950
 3550TIP3   OH210655   5.422   0.998   1.107 -0.2844 -0.4129  0.2155
 3550TIP3    H110656   5.489   0.930   1.098  1.5314  1.4277 -1.1443
 3550TIP3    H210657   5.373   0.994   1.025  0.4841  0.5154 -0.3126
 3551TIP3   OH210658   0.492   2.001   4.793  0.0369  0.4925  0.5986
 3551TIP3    H110659   0.522   1.940   4.861  2.1340 -1.1714 -1.6216
 3551TIP3    H210660   0.540   2.082   4.810  1.5162 -0.3138  0.4271
 3552TIP3   OH210661   2.323   2.070   2.746  0.1257  0.2542 -0.2849
 3552TIP3    H110662   2.410   2.039   2.719  1.0016  0.7691  1.7811
 3552TIP3    H210663   2.299   2.134   2.679  2.9681  2.7995  0.8979
 3553TIP3   OH210664   1.651   3.576   3.388  0.0317 -0.1693 -0.0301
 3553TIP3    H110665   1.631   3.665   3.415 -0.2713 -0.1297 -0.3772
 3553TIP3    H210666   1.741   3.579   3.356 -0.4439  0.3293 -1.4056
 3554TIP3   OH210667   2.184   5.237   4.452 -0.3685 -0.5541  0.4233
 3554TIP3    H110668   2.129   5.177   4.504 -1.1716  0.0053  0.2362
 3554TIP3    H210669   2.172   5.322   4.494  1.6543 -0.6964  1.3818
 3555TIP3   OH210670   2.511   5.504   5.050  0.2534 -0.4557  0.0985
 3555TIP3    H110671   2.438   5.500   5.112 -1.4270  0.1347 -1.7442
 3555TIP3    H210672   2.477   5.463   4.971  1.9067 -0.0739 -0.8459
 3556TIP3   OH210673   2.386   4.728   3.730 -0.2997 -0.1015 -0.3598
 3556TIP3    H110674   2.352   4.799   3.783 -1.1251 -0.4818 -0.3757
 3556TIP3    H210675   2.420   4.771   3.651 -2.3013  0.1586 -1.1414
 3557TIP3   OH210676   4.722   1.766   0.600 -0.3690 -0.1703 -0.2291
 3557TIP3    H110677   4.742   1.729   0.514  0.6325  0.6867 -0.3863
 3557TIP3    H210678   4.804   1.756   0.650 -0.6858  0.0862  0.3510
 3558TIP3   OH210679   2.442   0.784   2.128  0.1357  0.7610  0.5907
 3558TIP3    H110680   2.537   0.774   2.117  0.3916  0.5442  2.5714
 3558TIP3    H210681   2.405   0.705   2.087  1.1324 -1.1761  3.1493
 3559TIP3   OH210682   0.082   2.594   1.738  0.4379 -0.0603  0.6173
 3559TIP3    H110683   0.009   2.590   1.676  0.7303 -0.7047  0.3085
 3559TIP3    H210684   0.042   2.574   1.823  0.3046 -0.7575  0.3992
 3560TIP3   OH210685   1.563   1.327   4.852 -0.0226  0.3664 -0.2382
 3560TIP3    H110686   1.589   1.407   4.805 -1.5465  2.1101  1.6772
 3560TIP3    H210687   1.640   1.304   4.904  0.3431  0.7837 -0.5868
 3561TIP3   OH210688   4.578   4.272   0.906 -0.1288 -0.8593  0.0843
 3561TIP3    H110689   4.608   4.206   0.969  1.0957 -0.8012 -0.4259
 3561TIP3    H210690   4.600   4.236   0.820 -1.1244 -0.6042 -0.2978
 3562TIP3   OH210691   3.328   2.327   2.727  0.5086  0.6177  0.1042
 3562TIP3    H110692   3.397   2.392   2.741  1.5194 -0.5012  0.5386
 3562TIP3    H210693   3.375   2.250   2.695 -0.2886 -0.7480  2.0492
 3563TIP3   OH210694   3.474   1.027   3.665  0.0480 -0.7559  0.1330
 3563TIP3    H110695   3.468   1.005   3.572  0.4422 -1.1616  0.2004
 3563TIP3    H210696   3.533   0.961   3.701 -0.7945 -1.1455  0.8399
 3564TIP3   OH210697   5.018   1.078   3.644 -0.1094  0.1766 -0.3855
 3564TIP3    H110698   5.062   1.163   3.648 -0.6443  0.4172  1.0568
 3564TIP3    H210699   5.001   1.056   3.736 -1.3633 -0.7573 -0.8119
 3565TIP3   OH210700   3.529   1.986   2.171  1.0153  0.3772 -0.0724
 3565TIP3    H110701   3.447   1.982   2.220  1.2056  1.3903  0.3558
 3565TIP3    H210702   3.531   1.904   2.120  0.0859  0.0203  0.4426
 3566TIP3   OH210703   2.114   1.809   4.014  0.0779  0.1801  0.9214
 3566TIP3    H110704   2.176   1.811   3.941 -0.2837  0.0799  0.6116
 3566TIP3    H210705   2.028   1.810   3.973 -0.1681 -2.1830  1.2528
 3567TIP3   OH210706   6.164   0.734   3.259  0.2150 -0.0093 -0.6624
 3567TIP3    H110707   6.219   0.687   3.197  1.0455  1.0352 -0.7303
 3567TIP3    H210708   6.155   0.674   3.333  2.3687  0.2097 -0.1649
 3568TIP3   OH210709   2.830   3.878   2.969  0.5925  0.1918 -0.2499
 3568TIP3    H110710   2.736   3.879   2.986  0.7982  0.3828  0.9890
 3568TIP3    H210711   2.840   3.821   2.892 -0.4545 -0.5559  0.1440
 3569TIP3   OH210712   3.268   2.127   2.937 -0.1269  0.2419 -0.1842
 3569TIP3    H110713   3.275   2.036   2.908 -1.1073 -0.2249  0.9748
 3569TIP3    H210714   3.297   2.178   2.862  0.4455 -1.0283 -0.8526
 3570TIP3   OH210715   4.935   2.749   1.382 -0.2034  0.8426  0.2486
 3570TIP3    H110716   4.982   2.826   1.350 -0.7519  1.2341  0.3502
 3570TIP3    H210717   4.922   2.766   1.475 -0.2492  0.5856  0.2900
 3571TIP3   OH210718   3.424   3.328   1.906 -0.1390  0.4783  0.5435
 3571TIP3    H110719   3.494   3.296   1.850 -0.2616  1.4765 -0.2258
 3571TIP3    H210720   3.461   3.331   1.994  0.0780 -1.0528  0.5169
 3572TIP3   OH210721   0.244   0.181   4.472 -0.2126  0.2409  0.4700
 3572TIP3    H110722   0.330   0.207   4.440 -0.0161  0.1335  0.9140
 3572TIP3    H210723   0.228   0.237   4.548 -1.0770  1.1360 -0.3413
 3573TIP3   OH210724   4.655   1.081   3.627 -0.4447  0.0182 -0.3176
 3573TIP3    H110725   4.663   0.986   3.619 -0.4605  0.0695 -0.9952
 3573TIP3    H210726   4.710   1.116   3.556 -0.4084  0.5165 -0.0506
 3574TIP3   OH210727   1.365   3.439   3.548  0.1818 -0.0354 -0.1709
 3574TIP3    H110728   1.291   3.458   3.605 -1.4546 -1.2779 -1.7596
 3574TIP3    H210729   1.380   3.520   3.500 -1.3567 -0.2646 -1.0994
 3575TIP3   OH210730   5.491   3.206   2.216 -0.1663  0.3516 -0.2587
 3575TIP3    H110731   5.454   3.279   2.265  0.3655  0.2562  0.2942
 3575TIP3    H210732   5.528   3.148   2.283  0.3177  0.0795 -0.7540
 3576TIP3   OH210733   4.061   2.613   4.894  0.5205 -0.3117 -0.7451
 3576TIP3    H110734   4.083   2.697   4.854 -0.4583  0.3893  0.1481
 3576TIP3    H210735   4.052   2.632   4.987  1.2418 -1.6099 -0.3793
 3577TIP3   OH210736   4.111   0.246   0.235  0.0825  0.1131 -0.0682
 3577TIP3    H110737   4.097   0.338   0.260  1.7057  0.0993  0.9945
 3577TIP3    H210738   4.023   0.208   0.234 -0.8273  2.0480 -2.1699
 3578TIP3   OH210739   4.308   3.372   1.693 -0.2838  0.7296  0.7426
 3578TIP3    H110740   4.381   3.409   1.644 -0.2969 -0.3930 -0.1581
 3578TIP3    H210741   4.232   3.423   1.665 -0.6007 -0.9400 -1.7766
 3579TIP3   OH210742   0.576   3.828   4.853  0.2279 -0.7194  0.3940
 3579TIP3    H110743   0.632   3.752   4.867  0.0164 -0.7237  1.2626
 3579TIP3    H210744   0.528   3.838   4.935  0.7022  0.7216  0.5194
 3580TIP3   OH210745   2.332   1.604   4.881  0.1083 -0.1556  0.3477
 3580TIP3    H110746   2.344   1.541   4.810  0.5928 -0.4418  0.6765
 3580TIP3    H210747   2.303   1.684   4.837  4.2313  0.9710 -0.7429
 3581TIP3   OH210748   4.907   0.449   4.976  0.6214 -0.0619  0.1635
 3581TIP3    H110749   4.821   0.470   4.940  1.4587  0.3280 -1.7196
 3581TIP3    H210750   4.894   0.451   5.071 -1.2414  0.8221 -0.0628
 3582TIP3   OH210751   3.875   0.992   1.219  0.0264  0.4178 -0.0362
 3582TIP3    H110752   3.825   0.935   1.278  0.7446 -0.2668 -0.0678
 3582TIP3    H210753   3.936   0.933   1.175 -1.2809  0.6819 -2.3820
 3583TIP3   OH210754   1.039   0.613   3.341  0.8919 -0.2429 -0.5572
 3583TIP3    H110755   1.042   0.564   3.259 -1.4076  0.4481 -1.1311
 3583TIP3    H210756   0.999   0.552   3.403  0.6300 -0.0489 -0.5336
 3584TIP3   OH210757   6.163   2.261   0.652 -0.1136 -0.4214  0.4664
 3584TIP3    H110758   6.194   2.271   0.562 -0.5832 -0.7970  0.2580
 3584TIP3    H210759   6.229   2.206   0.694  0.5929  0.5109  0.6174
 3585TIP3   OH210760   5.383   0.564   3.828 -0.1958  0.4591 -0.1199
 3585TIP3    H110761   5.398   0.543   3.920 -1.0505  2.1937  0.4545
 3585TIP3    H210762   5.288   0.554   3.817 -0.0068 -0.5731 -1.0720
 3586TIP3   OH210763  -0.003   5.377   4.510 -0.2622  0.3384 -0.2644
 3586TIP3    H110764   0.059   5.315   4.471  0.1035 -0.3128  1.2813
 3586TIP3    H210765  -0.043   5.421   4.435  0.5970 -0.6690 -1.3565
 3587TIP3   OH210766   1.566   5.128   2.367  0.5063  0.5612 -0.3347
 3587TIP3    H110767   1.486   5.085   2.337 -0.6889  2.2380  0.2884
 3587TIP3    H210768   1.588   5.188   2.296  0.5209  0.9714  0.0149
 3588TIP3   OH210769   3.390   5.519   4.867 -0.1260 -0.3122 -0.1092
 3588TIP3    H110770   3.419   5.450   4.926  0.0767 -0.0975  0.0429
 3588TIP3    H210771   3.441   5.596   4.892  0.7827 -0.5015 -1.2960
 3589TIP3   OH210772   4.061   0.569   4.794 -0.1042 -0.6563  0.1055
 3589TIP3    H110773   3.989   0.518   4.755  0.7029 -0.6380 -1.4711
 3589TIP3    H210774   4.047   0.658   4.761 -1.2649  0.1515  2.5124
 3590TIP3   OH210775   4.378   3.590   4.436  0.4462 -0.0526  0.8217
 3590TIP3    H110776   4.408   3.505   4.469  0.2563 -0.4027  0.1160
 3590TIP3    H210777   4.285   3.576   4.416  0.4528  0.2785  0.5603
 3591TIP3   OH210778   5.781   0.580   3.228  0.1263 -0.2350  0.0221
 3591TIP3    H110779   5.730   0.571   3.148 -0.5673 -0.6608  0.5030
 3591TIP3    H210780   5.809   0.672   3.229  1.3353 -0.5502 -1.4019
 3592TIP3   OH210781   2.324   5.277   1.054 -0.0457 -0.0900  0.4138
 3592TIP3    H110782   2.362   5.266   0.967 -0.7888 -1.1751  0.2049
 3592TIP3    H210783   2.315   5.188   1.087 -0.9565  0.2396  1.0842
 3593TIP3   OH210784   3.024   5.508   0.656  0.1098  0.3087 -0.2407
 3593TIP3    H110785   2.938   5.549   0.644  0.1086  1.4981  2.8055
 3593TIP3    H210786   3.084   5.582   0.669  1.1780 -0.5528 -0.1553
 3594TIP3   OH210787   4.215   1.675   4.459  0.3620  0.2211  0.8622
 3594TIP3    H110788   4.142   1.691   4.400  0.2846 -0.8424  0.6411
 3594TIP3    H210789   4.192   1.720   4.540 -1.6481 -1.9247  1.5852
 3595TIP3   OH210790   5.076   1.574   2.335 -0.3670  0.1976  0.9069
 3595TIP3    H110791   5.053   1.517   2.408  1.9450  1.0714  2.4465
 3595TIP3    H210792   4.992   1.607   2.303 -1.6138 -2.3472  1.3242
 3596TIP3   OH210793   1.796   5.233   3.528  0.0304  0.1750  0.0365
 3596TIP3    H110794   1.791   5.146   3.489  1.4365 -0.0953  0.3913
 3596TIP3    H210795   1.819   5.291   3.456 -1.6786  0.3994 -0.3537
 3597TIP3   OH210796   0.308   4.257   3.466  0.3078 -0.3470 -0.0823
 3597TIP3    H110797   0.359   4.317   3.411  0.0199 -0.0024  0.0227
 3597TIP3    H210798   0.327   4.285   3.556 -0.7596  0.3617 -0.0686
 3598TIP3   OH210799   3.936   5.470   4.252 -0.1848  0.5965  0.8540
 3598TIP3    H110800   3.856   5.447   4.299 -0.2166 -2.6718 -0.5188
 3598TIP3    H210801   3.908   5.479   4.161  1.0429 -1.3848  0.2193
 3599TIP3   OH210802   1.904   2.356   2.354  0.3819 -0.7659  0.3816
 3599TIP3    H110803   1.956   2.329   2.279 -1.3533 -1.9214 -0.4881
 3599TIP3    H210804   1.828   2.297   2.352 -1.8116  1.8770  0.5590
 3600TIP3   OH210805   1.002   3.201   2.747  0.4048 -0.0423  0.5452
 3600TIP3    H110806   0.981   3.110   2.771  1.0179 -0.1705  0.6008
 3600TIP3    H210807   0.983   3.206   2.654  1.1482 -0.4639  0.3627
 3601TIP3   OH210808   4.429   1.299   0.395  0.3945 -0.1569 -0.5624
 3601TIP3    H110809   4.372   1.295   0.319  2.9110  1.5860 -2.7290
 3601TIP3    H210810   4.396   1.373   0.446 -0.0344  0.0210 -1.0883
 3602TIP3   OH210811   1.272   0.296   4.280  0.2942 -0.0053  0.2708
 3602TIP3    H110812   1.193   0.334   4.318 -0.2220 -0.7224 -0.0592
 3602TIP3    H210813   1.328   0.277   4.355  0.0535  0.2864  0.5266
 3603TIP3   OH210814   0.197   2.168   1.442  0.4982  0.3164 -0.4181
 3603TIP3    H110815   0.178   2.260   1.460 -0.3568 -0.1137  0.9893
 3603TIP3    H210816   0.270   2.171   1.379  0.4397  1.9409 -0.4586
 3604TIP3   OH210817   5.275   3.615  -0.027  0.0390 -0.7298 -0.1539
 3604TIP3    H110818   5.314   3.528  -0.035 -1.9592 -1.7206  0.2785
 3604TIP3    H210819   5.260   3.626   0.067 -0.3790 -0.2168 -0.2784
 3605TIP3   OH210820   0.113   2.324   2.822 -0.0898 -0.0088  0.1758
 3605TIP3    H110821   0.148   2.291   2.904 -0.2288  0.9114  0.6184
 3605TIP3    H210822   0.025   2.355   2.845 -1.3311 -2.3611 -0.9119
 3606TIP3   OH210823   2.785   2.703   2.714 -0.0698 -0.1944  0.3521
 3606TIP3    H110824   2.722   2.641   2.751  0.3939 -1.1740 -0.4537
 3606TIP3    H210825   2.752   2.721   2.626 -0.2277  0.7629  0.5966
 3607TIP3   OH210826   2.137   4.097   3.792 -0.4627 -0.5838  0.2310
 3607TIP3    H110827   2.174   4.013   3.818  1.2110  0.5735  1.8492
 3607TIP3    H210828   2.182   4.119   3.710  0.0025 -0.7090  0.4492
 3608TIP3   OH210829   5.400   4.268   3.037  0.5292 -0.6995 -0.5709
 3608TIP3    H110830   5.420   4.218   3.115 -4.1463 -0.3395  1.1551
 3608TIP3    H210831   5.390   4.203   2.968 -0.9906 -1.7290  0.5730
 3609TIP3   OH210832   3.935   0.631   3.453 -0.4825  0.2593 -0.2018
 3609TIP3    H110833   4.016   0.632   3.402  0.5089 -1.0791  1.2378
 3609TIP3    H210834   3.898   0.543   3.438 -0.3445 -0.0426  1.0525
 3610TIP3   OH210835   4.963   2.435   4.011 -0.1204 -0.3476 -0.0195
 3610TIP3    H110836   4.939   2.359   3.958 -1.4799  0.6290 -0.8885
 3610TIP3    H210837   5.008   2.494   3.950  0.9172 -0.4308  0.6391
 3611TIP3   OH210838   4.198   5.166   1.473  0.1068 -0.1479 -0.5149
 3611TIP3    H110839   4.262   5.202   1.412 -0.5374 -1.2170 -1.8688
 3611TIP3    H210840   4.173   5.081   1.435 -1.7435  0.0240  0.2136
 3612TIP3   OH210841   1.424   4.114   2.971  0.3141  0.2195 -0.3493
 3612TIP3    H110842   1.479   4.158   3.036 -1.9878  0.6754  1.4579
 3612TIP3    H210843   1.376   4.184   2.928 -1.0546 -0.2727  0.2998
 3613TIP3   OH210844   5.395   5.523   0.018 -0.1059 -0.5905  0.4521
 3613TIP3    H110845   5.370   5.602   0.066  1.8065  0.0873  0.3873
 3613TIP3    H210846   5.477   5.495   0.057 -0.6372 -2.4759  0.3385
 3614TIP3   OH210847   1.527   0.400   2.976 -0.3750 -0.1226  0.0228
 3614TIP3    H110848   1.445   0.357   2.955  0.2047 -1.1225 -0.2186
 3614TIP3    H210849   1.589   0.369   2.910  0.0049  1.2907 -0.3315
 3615TIP3   OH210850   5.417   3.527   4.370  0.0772  0.3516  0.0575
 3615TIP3    H110851   5.364   3.563   4.299 -0.8899 -0.5372  0.3066
 3615TIP3    H210852   5.368   3.450   4.400  1.0654  0.0292  0.8958
 3616TIP3   OH210853   2.381   3.290   3.267  0.0191 -0.0718  0.2644
 3616TIP3    H110854   2.376   3.381   3.295  1.1023  0.1546 -0.2199
 3616TIP3    H210855   2.461   3.257   3.308  2.0791  0.4650 -2.9430
 3617TIP3   OH210856   2.525   1.284   0.201 -0.1999 -0.4308  0.3117
 3617TIP3    H110857   2.435   1.277   0.232  0.2167 -0.9106  1.4749
 3617TIP3    H210858   2.567   1.343   0.263  0.4866 -0.8382  0.2454
 3618TIP3   OH210859   3.509   4.469   5.174  0.1655 -0.4783  0.5637
 3618TIP3    H110860   3.455   4.463   5.095 -0.3929 -0.0105  0.9036
 3618TIP3    H210861   3.598   4.450   5.144 -0.1016 -0.7137 -0.1005
 3619TIP3   OH210862   2.881   0.100   2.853  0.1309  0.2646 -0.4779
 3619TIP3    H110863   2.894   0.020   2.802  0.1828 -0.4300  0.5872
 3619TIP3    H210864   2.872   0.169   2.788 -2.0111 -0.8945 -1.5115
 3620TIP3   OH210865   2.634   3.931   4.581  0.1334  0.1667 -0.0376
 3620TIP3    H110866   2.663   4.017   4.550  2.0515 -0.2195  0.5427
 3620TIP3    H210867   2.690   3.913   4.657 -1.9324 -0.5146  1.4187
 3621TIP3   OH210868   3.853   5.299   1.670  0.0503 -0.2400  0.1718
 3621TIP3    H110869   3.769   5.345   1.666  0.6253  0.8177 -0.1923
 3621TIP3    H210870   3.830   5.210   1.699 -1.3848 -0.4747 -1.4646
 3622TIP3   OH210871   3.111   2.158   1.461 -0.0246  0.3654  0.1110
 3622TIP3    H110872   3.153   2.151   1.375  1.3674 -1.2361  0.8658
 3622TIP3    H210873   3.100   2.252   1.475  3.1165  0.8880 -0.2797
 3623TIP3   OH210874   5.518   2.740   2.857  0.1968  0.1604  0.3199
 3623TIP3    H110875   5.504   2.678   2.784 -1.0855 -0.5251  1.1135
 3623TIP3    H210876   5.612   2.734   2.875 -0.1465 -3.0816  1.6408
 3624TIP3   OH210877   2.439   2.502   3.299 -0.2619  0.0528  0.5260
 3624TIP3    H110878   2.408   2.549   3.377 -0.4332  1.2152 -0.2134
 3624TIP3    H210879   2.435   2.568   3.229 -0.7458 -1.1469 -0.6053
 3625TIP3   OH210880   2.390   2.243   0.599  0.2670  0.0085  0.3254
 3625TIP3    H110881   2.423   2.198   0.677 -2.5867 -2.8893  0.0811
 3625TIP3    H210882   2.321   2.300   0.630 -1.9302 -2.2715 -0.0206
 3626TIP3   OH210883   6.073   5.361   4.630 -0.1650  0.3179  0.4549
 3626TIP3    H110884   6.084   5.279   4.583  0.7194  0.6166  0.1269
 3626TIP3    H210885   6.157   5.377   4.671  0.4247  2.1577 -1.2836
 3627TIP3   OH210886   4.627   1.568   1.447 -0.3766  0.2301 -0.1221
 3627TIP3    H110887   4.663   1.482   1.423 -0.0174  0.4411 -0.3525
 3627TIP3    H210888   4.569   1.550   1.521 -0.0555 -0.1664  0.0387
 3628TIP3   OH210889   3.181   1.469   4.186  0.3624 -0.0459 -0.6332
 3628TIP3    H110890   3.238   1.461   4.262  0.5538 -1.6103 -0.8983
 3628TIP3    H210891   3.226   1.531   4.128  0.8832  0.1155 -0.0566
 3629TIP3   OH210892   5.191   2.382   1.339 -0.1831 -0.2079 -0.3756
 3629TIP3    H110893   5.244   2.308   1.370 -1.8243 -2.0270 -1.6936
 3629TIP3    H210894   5.116   2.384   1.398  0.9145  1.9515  1.0815
 3630TIP3   OH210895   2.287   1.213   0.926  0.6995  0.4173  0.1740
 3630TIP3    H110896   2.206   1.264   0.934  1.8823  2.3283  0.5871
 3630TIP3    H210897   2.336   1.256   0.856  2.2341  0.5677  1.2782
 3631TIP3   OH210898   4.848   3.439   2.526 -0.7372  0.4561 -0.4698
 3631TIP3    H110899   4.794   3.505   2.483  1.1491  1.3682 -1.5631
 3631TIP3    H210900   4.890   3.485   2.598 -2.1358 -0.5099  1.0451
 3632TIP3   OH210901   1.619   2.203   2.647 -0.0154 -0.5131 -0.7927
 3632TIP3    H110902   1.639   2.187   2.554  1.6388 -0.8398 -0.4171
 3632TIP3    H210903   1.629   2.117   2.688 -0.9119 -0.4002 -0.3234
 3633TIP3   OH210904   2.612   3.084   0.131 -0.5987 -0.1786 -0.3025
 3633TIP3    H110905   2.611   2.990   0.112  0.1731 -0.6323  1.6720
 3633TIP3    H210906   2.625   3.126   0.046 -2.8423 -1.7250 -1.5057
 3634TIP3   OH210907   4.938   2.558   0.233  0.9878  0.0720 -0.1163
 3634TIP3    H110908   5.015   2.577   0.287 -0.7713  2.0984  1.9243
 3634TIP3    H210909   4.887   2.496   0.286  0.6842 -0.4086 -0.9511
 3635TIP3   OH210910   3.926   0.688   0.056  0.1553 -0.1370 -0.0269
 3635TIP3    H110911   3.862   0.663   0.123 -0.1970  3.7164  1.3421
 3635TIP3    H210912   3.874   0.703  -0.022 -0.3882  1.0476  0.5340
 3636TIP3   OH210913   5.423   3.984   4.862  0.5160  0.2214  0.4570
 3636TIP3    H110914   5.397   3.993   4.954 -1.3578 -0.7809  0.0796
 3636TIP3    H210915   5.368   4.048   4.816  0.8136  0.0979 -0.0803
 3637TIP3   OH210916   2.800   3.747   2.205 -0.1234 -0.0252 -0.4173
 3637TIP3    H110917   2.722   3.760   2.258 -0.0092  0.4611 -0.3644
 3637TIP3    H210918   2.778   3.673   2.147 -0.5946  0.0679 -0.3610
 3638TIP3   OH210919   5.869   2.158   2.053  0.1909 -0.1349  0.6691
 3638TIP3    H110920   5.822   2.229   2.096 -0.6133 -0.1809 -0.0793
 3638TIP3    H210921   5.827   2.078   2.086  0.5631 -0.2220  0.9233
 3639TIP3   OH210922   3.680   2.181   2.532 -0.3634 -0.0362 -0.0766
 3639TIP3    H110923   3.592   2.198   2.499 -0.6127 -1.8933 -0.4479
 3639TIP3    H210924   3.667   2.125   2.608  0.4668  0.5059  0.4826
 3640TIP3   OH210925  -0.000   3.146   2.620  1.2515  0.2382  0.2453
 3640TIP3    H110926   0.063   3.209   2.584 -0.8213  2.3147  0.0219
 3640TIP3    H210927  -0.050   3.115   2.544 -0.6396  1.7720  0.7704
 3641TIP3   OH210928   5.835   4.322   3.323 -0.1263 -0.5465  0.2057
 3641TIP3    H110929   5.758   4.379   3.321  1.7242  2.0842 -1.0143
 3641TIP3    H210930   5.846   4.294   3.232  0.9004 -0.1179  0.1945
 3642TIP3   OH210931   5.628   0.919   4.232  0.9404  0.2631 -0.2186
 3642TIP3    H110932   5.666   0.883   4.312 -0.8448 -0.2475  0.4480
 3642TIP3    H210933   5.609   1.010   4.253  0.0977  0.0238  0.1074
 3643TIP3   OH210934   5.660   3.201   5.016 -0.2063 -0.2348  0.0443
 3643TIP3    H110935   5.645   3.249   4.934  1.8621 -1.4101 -1.1034
 3643TIP3    H210936   5.746   3.230   5.046 -1.0987  0.4958  2.1063
 3644TIP3   OH210937   6.188   0.314   2.418 -0.4702  0.5683  0.6168
 3644TIP3    H110938   6.192   0.276   2.505 -2.5475 -0.5422  0.2905
 3644TIP3    H210939   6.158   0.404   2.432  1.5886  1.2117  1.1747
 3645TIP3   OH210940   3.570   0.789   3.231 -0.2247 -0.3311  0.4359
 3645TIP3    H110941   3.624   0.710   3.225 -0.4485 -0.4059 -1.4479
 3645TIP3    H210942   3.631   0.859   3.256  0.2784 -0.8266  0.6099
 3646TIP3   OH210943   4.656   3.659   3.776  0.0489  0.6460 -0.3383
 3646TIP3    H110944   4.692   3.643   3.689 -1.9407 -1.6451 -0.8588
 3646TIP3    H210945   4.708   3.603   3.834 -0.2550  0.2103 -0.4823
 3647TIP3   OH210946   3.645   2.310   2.861 -0.6946 -0.4968  0.0671
 3647TIP3    H110947   3.637   2.218   2.833 -0.5492 -0.9032  1.3065
 3647TIP3    H210948   3.726   2.312   2.912  0.2624  0.7205 -1.4045
 3648TIP3   OH210949   4.782   1.403   1.135  0.3396  0.5142 -0.2049
 3648TIP3    H110950   4.784   1.483   1.084  0.1851  0.0324 -0.9864
 3648TIP3    H210951   4.713   1.350   1.095  0.5989 -0.1078  0.1443
 3649TIP3   OH210952   3.568   2.402   0.114 -0.1987 -0.5447  0.4266
 3649TIP3    H110953   3.493   2.409   0.055  0.6581 -0.7043 -0.7280
 3649TIP3    H210954   3.604   2.315   0.095  1.4120  0.2801 -0.4851
 3650TIP3   OH210955   5.565   2.023   5.024 -0.4212 -0.1459 -0.2524
 3650TIP3    H110956   5.613   1.967   5.084 -0.1600 -1.4609 -1.6365
 3650TIP3    H210957   5.630   2.051   4.959 -0.7526  1.0232 -0.1156
 3651TIP3   OH210958   1.705   3.795   1.593 -0.0886 -0.0378  0.6777
 3651TIP3    H110959   1.705   3.889   1.606 -1.7719 -0.2178  2.3377
 3651TIP3    H210960   1.797   3.770   1.594  0.3770  1.5675  0.1333
 3652TIP3   OH210961   2.510   0.237   2.294  0.1060 -0.1698  0.1830
 3652TIP3    H110962   2.528   0.324   2.329 -0.4296 -0.0217  0.0958
 3652TIP3    H210963   2.422   0.244   2.256  0.8886 -0.1502 -1.7460
 3653TIP3   OH210964   5.227   5.517   0.853  0.3433  0.2864 -0.5703
 3653TIP3    H110965   5.160   5.465   0.809  0.5497  0.3989 -1.0197
 3653TIP3    H210966   5.177   5.577   0.909  0.1164 -0.5995  0.1915
 3654TIP3   OH210967   0.851   1.475   0.310 -0.4000 -0.3178  0.3675
 3654TIP3    H110968   0.769   1.515   0.280 -1.2241 -2.1915 -0.0913
 3654TIP3    H210969   0.897   1.451   0.230 -0.4079 -1.1433  0.5925
 3655TIP3   OH210970   0.479   5.990   4.970  0.2828 -0.4820  0.5461
 3655TIP3    H110971   0.480   6.046   4.893 -0.2805 -2.5475 -1.0756
 3655TIP3    H210972   0.449   5.905   4.937  0.8315 -1.6789  2.9032
 3656TIP3   OH210973   1.411   1.166   0.680 -0.6276 -0.1858  0.3544
 3656TIP3    H110974   1.456   1.101   0.734  0.1412 -0.8402 -1.0269
 3656TIP3    H210975   1.481   1.217   0.640 -1.2175  1.7392  1.6335
 3657TIP3   OH210976   5.907   2.490   0.985  0.0150 -0.2488 -0.2264
 3657TIP3    H110977   5.996   2.465   0.958 -0.9022 -0.8715 -2.8827
 3657TIP3    H210978   5.898   2.581   0.958  0.1189  0.1220  0.9123
 3658TIP3   OH210979   1.280   2.760   0.947 -0.1103  0.5701 -0.4321
 3658TIP3    H110980   1.319   2.821   0.884 -0.5525  0.8916 -0.3986
 3658TIP3    H210981   1.232   2.816   1.008  0.5114  0.2779  0.3390
 3659TIP3   OH210982   0.599   4.784   3.844  0.1766  0.1502 -0.2934
 3659TIP3    H110983   0.529   4.800   3.907  0.8031  2.2212 -0.0546
 3659TIP3    H210984   0.642   4.705   3.876 -1.6313 -0.8163 -0.1111
 3660TIP3   OH210985   5.676   4.721   1.210  0.0216  0.2104  0.4256
 3660TIP3    H110986   5.700   4.632   1.235  1.0842  0.5711  0.7650
 3660TIP3    H210987   5.757   4.772   1.223 -0.4711  1.1516 -0.0895
 3661TIP3   OH210988   3.057   0.487   0.285  0.2364 -0.3895  0.2787
 3661TIP3    H110989   3.056   0.541   0.363  0.0346  1.0681 -0.6972
 3661TIP3    H210990   3.150   0.480   0.261  0.1323  1.9605 -1.1572
 3662TIP3   OH210991   4.764   4.312   5.133  0.3668 -0.0338 -0.5934
 3662TIP3    H110992   4.675   4.304   5.097  0.2986  2.8038 -1.2836
 3662TIP3    H210993   4.752   4.304   5.228 -0.7394  0.9662 -0.6324
 3663TIP3   OH210994   1.956   3.203   1.480 -0.3546  0.2522 -0.1153
 3663TIP3    H110995   2.006   3.135   1.525 -1.2166  0.6027  1.4530
 3663TIP3    H210996   2.002   3.217   1.398  0.8140 -1.0116  0.2960
 3664TIP3   OH210997   0.044   3.857   4.366 -0.3497 -0.3533  0.5833
 3664TIP3    H110998  -0.009   3.914   4.422  1.2110  0.3123  1.4266
 3664TIP3    H210999   0.119   3.833   4.420  0.6233 -0.6239 -0.8477
 3665TIP3   OH211000   0.726   4.963   0.980 -0.2043 -0.7240  0.0146
 3665TIP3    H111001   0.695   4.931   1.064 -0.9320 -0.0382  0.0072
 3665TIP3    H211002   0.778   4.890   0.945 -1.8809 -1.9476 -0.0342
 3666TIP3   OH211003   1.915   4.221   4.587  0.4539 -0.1194  0.2537
 3666TIP3    H111004   2.002   4.182   4.598  0.2330 -0.6886  0.0024
 3666TIP3    H211005   1.873   4.167   4.520  0.0299  0.3613  0.1299
 3667TIP3   OH211006   5.024   4.232   4.787  0.5929  0.2727 -0.0921
 3667TIP3    H111007   5.048   4.321   4.761 -1.8401  0.3718 -2.5403
 3667TIP3    H211008   5.087   4.176   4.743  0.9732  0.7187 -0.1231
 3668TIP3   OH211009   4.581   2.276   1.362 -0.6029  0.1925 -0.3446
 3668TIP3    H111010   4.561   2.286   1.269 -1.2880  0.8652 -0.1407
 3668TIP3    H211011   4.668   2.238   1.365 -1.5017 -2.1399 -1.2876
 3669TIP3   OH211012   5.948   0.762   0.102 -0.0648  0.3082  0.2214
 3669TIP3    H111013   6.015   0.698   0.128 -0.8741 -1.2757 -1.3727
 3669TIP3    H211014   5.991   0.814   0.034 -0.7396 -1.4760 -1.6540
 3670TIP3   OH211015   3.018   4.300   1.073  0.1254 -0.1473 -0.1605
 3670TIP3    H111016   2.979   4.278   0.988 -0.7445  1.0955 -0.1109
 3670TIP3    H211017   3.061   4.219   1.101 -2.1088 -1.5059 -0.4083
 3671TIP3   OH211018   5.108   1.472   3.479  0.2530  0.1002 -0.1601
 3671TIP3    H111019   5.027   1.437   3.442  0.0240  1.4303 -1.0029
 3671TIP3    H211020   5.124   1.419   3.557 -2.3565  0.8469  1.0183
 3672TIP3   OH211021   4.832   0.212   3.901 -0.1568 -0.0986  0.0515
 3672TIP3    H111022   4.822   0.307   3.892 -0.4031 -0.1170  0.1421
 3672TIP3    H211023   4.831   0.197   3.995  2.4402  0.0963  0.2055
 3673TIP3   OH211024   0.388   5.797   2.530  0.2199 -0.2413  0.3313
 3673TIP3    H111025   0.391   5.757   2.444  0.7869 -0.7191  0.5675
 3673TIP3    H211026   0.339   5.735   2.584  0.0789 -0.0594  0.4133
 3674TIP3   OH211027   3.622   4.066   4.871  0.0833  0.0951 -0.0605
 3674TIP3    H111028   3.573   4.048   4.791 -0.3409  0.7697  0.0355
 3674TIP3    H211029   3.564   4.037   4.942 -0.0477  0.5752  0.0391
 3675TIP3   OH211030   3.144   5.846   3.081 -0.0587 -0.1320 -0.2650
 3675TIP3    H111031   3.147   5.918   3.144  1.1121 -0.2172 -0.1995
 3675TIP3    H211032   3.061   5.802   3.100 -1.0385  1.4696 -0.6411
 3676TIP3   OH211033   0.795   1.942   5.099 -0.1053  0.6855  0.0722
 3676TIP3    H111034   0.771   1.856   5.064  0.5206  0.6066 -0.1826
 3676TIP3    H211035   0.829   1.990   5.023  3.4275 -0.2705  0.8809
 3677TIP3   OH211036   0.923   5.134   1.232  0.2447  0.5436  1.1512
 3677TIP3    H111037   0.839   5.152   1.273  0.0326  1.8684  0.1868
 3677TIP3    H211038   0.988   5.147   1.301 -0.2957 -0.0258  1.7720
 3678TIP3   OH211039   5.968   3.890   2.552  0.2687 -0.4200  0.1687
 3678TIP3    H111040   5.966   3.986   2.554 -0.7383 -0.3159 -2.0850
 3678TIP3    H211041   5.907   3.863   2.620  0.1334  0.5622  0.4533
 3679TIP3   OH211042   1.490   3.186   4.339 -0.5207 -0.2598  0.1185
 3679TIP3    H111043   1.517   3.195   4.430 -1.0379 -1.8831  0.4795
 3679TIP3    H211044   1.514   3.269   4.298  0.2464  0.2856  1.5900
 3680TIP3   OH211045   5.819   1.456   1.542 -0.0233 -0.0757 -0.0697
 3680TIP3    H111046   5.778   1.447   1.627 -0.1410 -2.0506 -0.2970
 3680TIP3    H211047   5.813   1.550   1.522 -0.3185  0.3654  1.8950
 3681TIP3   OH211048   0.885   5.474   3.018 -0.2645  0.1850 -0.2609
 3681TIP3    H111049   0.862   5.526   2.941  0.5182  0.0025 -0.6365
 3681TIP3    H211050   0.913   5.389   2.981 -1.3878 -0.4613  0.3249
 3682TIP3   OH211051   4.333   4.821   1.575 -0.2438 -0.0081 -0.0302
 3682TIP3    H111052   4.367   4.738   1.541  0.3609  0.6699 -1.1658
 3682TIP3    H211053   4.284   4.859   1.501 -0.1655  0.8261  0.3306
 3683TIP3   OH211054   1.752   0.920   3.357  0.0483  0.2606  0.4931
 3683TIP3    H111055   1.828   0.977   3.354 -0.3453  0.7499 -1.2565
 3683TIP3    H211056   1.778   0.842   3.308 -0.2715  0.0447  0.6641
 3684TIP3   OH211057   6.167   2.194   3.752 -0.0019 -0.2658 -0.7351
 3684TIP3    H111058   6.092   2.138   3.734  1.1281 -1.3492 -2.2215
 3684TIP3    H211059   6.177   2.190   3.848 -0.9482 -1.2482 -0.6570
 3685TIP3   OH211060   0.408   0.304   0.847  0.3581 -0.1649 -0.6449
 3685TIP3    H111061   0.378   0.296   0.756  1.5339 -0.1486 -1.0590
 3685TIP3    H211062   0.368   0.230   0.893 -1.5218  0.7158 -0.7971
 3686TIP3   OH211063   4.613   0.934   1.199 -0.5781  0.3001  0.2538
 3686TIP3    H111064   4.536   0.903   1.150 -1.2012  1.3284  0.5711
 3686TIP3    H211065   4.601   0.899   1.287 -1.7974  2.2194  0.8877
 3687TIP3   OH211066   1.271   1.577   0.784  0.1291  0.4033  0.1300
 3687TIP3    H111067   1.298   1.557   0.694 -2.5336 -0.7107 -0.4990
 3687TIP3    H211068   1.245   1.669   0.781 -0.0876  0.3321 -0.2904
 3688TIP3   OH211069   5.673   2.548   4.305 -0.1748 -0.2490 -0.1552
 3688TIP3    H111070   5.705   2.462   4.328  1.2086 -0.2036 -1.7416
 3688TIP3    H211071   5.740   2.585   4.248 -1.6027  1.1109 -1.0663
 3689TIP3   OH211072   1.827   5.170   4.030  0.0883  0.4037 -0.0215
 3689TIP3    H111073   1.753   5.230   4.021 -0.4214 -0.0371  1.0982
 3689TIP3    H211074   1.824   5.116   3.951 -0.9202  0.2440  0.1238
 3690TIP3   OH211075   5.307   2.963   0.479  0.1296  0.0469 -0.2180
 3690TIP3    H111076   5.282   2.877   0.511 -0.0850  0.1190 -0.1865
 3690TIP3    H211077   5.382   2.947   0.422  0.9318 -0.0029  0.8228
 3691TIP3   OH211078   1.201   5.482   0.933  0.2182 -0.1568  0.2397
 3691TIP3    H111079   1.255   5.473   1.012 -1.9925  1.2224  2.0337
 3691TIP3    H211080   1.133   5.416   0.943 -0.7078  0.7416  0.0797
 3692TIP3   OH211081   5.589   1.642   3.258 -0.1027  0.0385 -0.1870
 3692TIP3    H111082   5.501   1.615   3.282 -0.9839  1.2627 -1.8476
 3692TIP3    H211083   5.592   1.631   3.163  0.8320  1.8984 -0.4175
 3693TIP3   OH211084   3.892   4.176   4.770  0.2559 -0.3175 -0.2927
 3693TIP3    H111085   3.919   4.182   4.678 -0.8938 -0.0358 -0.6308
 3693TIP3    H211086   3.811   4.126   4.768  0.0453 -0.0320  0.5316
 3694TIP3   OH211087   4.684   1.482   2.617  0.6188  0.0421 -0.0614
 3694TIP3    H111088   4.774   1.512   2.634  0.6702  0.4068 -0.9324
 3694TIP3    H211089   4.633   1.516   2.691  1.1783 -0.0825  0.3896
 3695TIP3   OH211090   0.850   3.741   5.079  0.8142 -0.4406  0.0624
 3695TIP3    H111091   0.938   3.708   5.061  0.7103 -1.2039  0.9155
 3695TIP3    H211092   0.856   3.776   5.169  0.6862  1.0795 -0.4814
 3696TIP3   OH211093   0.543   4.658   4.832 -0.1996  0.7834  0.1794
 3696TIP3    H111094   0.596   4.714   4.774 -1.6115 -0.2657 -2.2606
 3696TIP3    H211095   0.533   4.576   4.785 -0.1852 -0.7413  2.6342
 3697TIP3   OH211096   3.813   3.950   0.896  0.4005 -0.1651 -0.0617
 3697TIP3    H111097   3.818   3.863   0.856  1.1476 -0.1076 -0.1135
 3697TIP3    H211098   3.778   3.935   0.983  0.5587 -0.5250 -0.0599
 3698TIP3   OH211099   6.236   5.549   0.324  0.1451  0.1550 -0.7176
 3698TIP3    H111100   6.156   5.602   0.319  0.2470  0.3616 -0.2193
 3698TIP3    H211101   6.273   5.553   0.236 -0.0638  0.5815 -0.7899
 3699TIP3   OH211102   2.260   2.487   1.105  0.4203 -0.2848 -0.5390
 3699TIP3    H111103   2.315   2.435   1.164  1.5160 -0.0237 -1.3072
 3699TIP3    H211104   2.182   2.506   1.156  0.9661 -0.8138  0.5232
 3700TIP3   OH211105   2.496   3.465   1.445 -0.2321 -0.2748 -0.0958
 3700TIP3    H111106   2.456   3.387   1.483 -1.4250  0.7582  0.8528
 3700TIP3    H211107   2.509   3.524   1.519  2.3274 -0.2284 -0.5159
 3701TIP3   OH211108   1.591   2.767   1.855  0.2825 -0.7533 -0.9554
 3701TIP3    H111109   1.523   2.818   1.811  0.2371 -0.3444 -0.4229
 3701TIP3    H211110   1.635   2.720   1.784 -1.2019 -1.8374 -1.2297
 3702TIP3   OH211111   5.135   2.282   1.738 -0.2363  0.4388 -0.8298
 3702TIP3    H111112   5.040   2.275   1.739 -0.3318  1.5416 -0.4943
 3702TIP3    H211113   5.161   2.250   1.651 -0.6925 -1.9626 -0.1516
 3703TIP3   OH211114   0.347   3.558   3.690  0.0406  0.1422 -0.2587
 3703TIP3    H111115   0.295   3.628   3.652  4.7182  2.6318 -2.9639
 3703TIP3    H211116   0.379   3.595   3.773  1.0876  0.5924 -0.8399
 3704TIP3   OH211117   2.058   1.841   5.037  0.1138 -0.0658  0.2042
 3704TIP3    H111118   2.073   1.772   5.101 -2.0498 -1.6549 -0.8709
 3704TIP3    H211119   1.968   1.871   5.054  0.6659  1.8694  0.0274
 3705TIP3   OH211120   4.359   3.622   1.340 -0.3497 -0.2983 -0.0362
 3705TIP3    H111121   4.303   3.699   1.343  0.8196  0.6273 -0.7443
 3705TIP3    H211122   4.299   3.548   1.346 -1.6646  0.6455 -0.9752
 3706TIP3   OH211123   1.961   2.847   3.716  0.0091 -0.1883 -0.2554
 3706TIP3    H111124   2.003   2.856   3.631 -1.3196  0.2027 -0.8965
 3706TIP3    H211125   2.009   2.776   3.759  2.2196  1.1579 -0.3601
 3707TIP3   OH211126   2.008   3.447   3.699 -0.1414 -0.7157  0.2625
 3707TIP3    H111127   2.087   3.401   3.729  1.5366  1.3199 -0.7645
 3707TIP3    H211128   1.940   3.379   3.697  1.5658 -2.5618  1.1780
 3708TIP3   OH211129   3.318   1.098   3.389 -0.2484 -0.7987 -0.0689
 3708TIP3    H111130   3.316   1.143   3.474  1.3895  0.9436 -0.8897
 3708TIP3    H211131   3.267   1.154   3.331  0.0237 -1.1156 -0.6255
 3709TIP3   OH211132   1.543   5.548   2.316 -0.4021  0.6778 -0.3626
 3709TIP3    H111133   1.461   5.597   2.323 -1.1084  0.0610 -3.2599
 3709TIP3    H211134   1.611   5.616   2.316 -1.1204  1.4164 -0.8845
 3710TIP3   OH211135   2.852   1.412   0.826 -0.1050 -0.1657 -0.1673
 3710TIP3    H111136   2.760   1.428   0.803  0.1447  1.4912 -0.1710
 3710TIP3    H211137   2.902   1.469   0.767  0.8724 -0.3799  0.4249
 3711TIP3   OH211138   4.065   1.414   2.432  0.6614 -0.1227 -0.3487
 3711TIP3    H111139   4.103   1.339   2.478 -0.1229 -0.3020  0.0266
 3711TIP3    H211140   4.059   1.483   2.498 -1.7121 -0.7960  0.2596
 3712TIP3   OH211141   4.383   1.292   2.122  0.6188 -0.2048  0.7486
 3712TIP3    H111142   4.459   1.252   2.079  0.5904  0.7538 -0.2422
 3712TIP3    H211143   4.394   1.386   2.108 -0.9541 -0.0649  0.1813
 3713TIP3   OH211144   1.578   0.179   3.221  0.0821  0.3178  0.9683
 3713TIP3    H111145   1.566   0.169   3.127 -0.9557 -2.0008  1.2758
 3713TIP3    H211146   1.512   0.243   3.248 -0.8296 -0.3364  0.3454
 3714TIP3   OH211147   0.982   3.602   3.733 -0.0582 -0.2531 -0.0446
 3714TIP3    H111148   0.976   3.668   3.801  0.6761 -0.6543  0.4261
 3714TIP3    H211149   0.909   3.542   3.750 -0.8141  0.5027 -0.5623
 3715TIP3   OH211150   3.877   2.294   1.147  0.2587 -0.3595 -0.4841
 3715TIP3    H111151   3.879   2.329   1.058  1.2585  2.7597  0.6370
 3715TIP3    H211152   3.968   2.272   1.166  0.2152 -0.0460  0.1003
 3716TIP3   OH211153   3.347   1.840   4.405  0.2485  0.2027  0.3795
 3716TIP3    H111154   3.393   1.922   4.389  0.5400  0.1193  0.7785
 3716TIP3    H211155   3.256   1.858   4.380  0.0697  0.9934  1.4965
 3717TIP3   OH211156   5.392   4.327   4.920  0.6626  0.3006  0.3029
 3717TIP3    H111157   5.463   4.326   4.856 -0.7642  0.0705 -1.3504
 3717TIP3    H211158   5.379   4.419   4.941  0.4862  0.4735 -0.5329
 3718TIP3   OH211159   0.978   0.474   1.899 -0.1329  0.2967 -0.9128
 3718TIP3    H111160   0.987   0.398   1.841  1.0106  0.1202 -0.5411
 3718TIP3    H211161   0.961   0.547   1.841  3.3210  0.5517 -1.7933
 3719TIP3   OH211162   4.557   5.784   2.035  0.0313 -0.2273 -0.1784
 3719TIP3    H111163   4.520   5.792   2.123  1.3577  2.2174  0.2477
 3719TIP3    H211164   4.651   5.795   2.048  0.6875 -3.1721 -1.5812
 3720TIP3   OH211165   3.951   0.843   4.637  0.4069 -0.1949 -0.2762
 3720TIP3    H111166   3.978   0.852   4.546 -1.8207 -1.4536 -1.1102
 3720TIP3    H211167   3.931   0.933   4.665  0.4588  0.1171 -1.2218
 3721TIP3   OH211168   3.851   3.693   4.455 -0.6308 -0.5432 -0.1349
 3721TIP3    H111169   3.838   3.693   4.360  1.9301  0.6910 -0.5773
 3721TIP3    H211170   3.863   3.600   4.476  0.2762 -0.7189 -1.2925
 3722TIP3   OH211171   1.779   4.822   0.367  0.1710 -0.1365  0.1134
 3722TIP3    H111172   1.700   4.877   0.366 -0.4164 -0.9646 -0.7190
 3722TIP3    H211173   1.809   4.827   0.458  0.3675  1.8475 -0.0078
 3723TIP3   OH211174   1.998   0.652   3.661  0.0304 -0.1045  0.3019
 3723TIP3    H111175   1.927   0.593   3.688 -0.3719  1.0439  1.8812
 3723TIP3    H211176   2.074   0.595   3.650 -0.9541 -1.2636 -0.7462
 3724TIP3   OH211177   5.578   3.082   2.433 -0.1108 -0.3656  0.2409
 3724TIP3    H111178   5.491   3.079   2.473  0.9271 -0.8485  2.6536
 3724TIP3    H211179   5.610   2.992   2.441 -0.1694 -0.7387 -2.6564
 3725TIP3   OH211180   4.332   4.610   2.277 -0.5030 -0.2954 -0.3115
 3725TIP3    H111181   4.295   4.541   2.332 -1.3214 -1.4125 -2.1621
 3725TIP3    H211182   4.386   4.563   2.213  0.3961  0.9432 -0.4977
 3726TIP3   OH211183   2.084   1.965   0.599 -0.0206  0.9727 -0.0813
 3726TIP3    H111184   2.005   1.911   0.609  1.1191 -1.3470 -2.3912
 3726TIP3    H211185   2.141   1.937   0.671 -0.1009  0.2906 -0.2705
 3727TIP3   OH211186   2.190   0.160   1.249 -0.2159 -0.1177  0.1161
 3727TIP3    H111187   2.268   0.169   1.195 -0.5303 -0.2276 -0.3653
 3727TIP3    H211188   2.152   0.076   1.222 -0.1990 -0.3366  0.7447
 3728TIP3   OH211189   5.433   5.100   3.537  0.8272 -0.4980  0.6667
 3728TIP3    H111190   5.463   5.125   3.450  0.3343 -0.4944  0.4960
 3728TIP3    H211191   5.471   5.013   3.551  0.3575 -0.7884  0.1702
 3729TIP3   OH211192   2.118   3.405   2.288  0.3197 -0.1495  0.0927
 3729TIP3    H111193   2.130   3.384   2.380 -1.6578 -1.8410  0.0378
 3729TIP3    H211194   2.126   3.500   2.284 -1.2374  0.1525  2.3128
 3730TIP3   OH211195   4.821   1.850   2.993  0.6448 -0.5537 -0.0775
 3730TIP3    H111196   4.767   1.916   2.950  0.9054  0.0899  0.5499
 3730TIP3    H211197   4.799   1.768   2.950  0.1644 -0.0859 -0.7378
 3731TIP3   OH211198   5.241   0.381   4.320  0.7846 -0.0312  0.1967
 3731TIP3    H111199   5.240   0.458   4.376 -0.6928  1.2172 -1.4204
 3731TIP3    H211200   5.163   0.331   4.347  0.3173  0.3503 -0.4222
 3732TIP3   OH211201   4.501   5.432   4.932 -0.2646  0.1507 -0.2667
 3732TIP3    H111202   4.412   5.463   4.917 -0.3683 -1.1304 -2.6453
 3732TIP3    H211203   4.548   5.450   4.851  1.0478 -1.1944  0.1304
 3733TIP3   OH211204   0.178   1.432   3.449 -0.0015  0.1845 -0.0590
 3733TIP3    H111205   0.186   1.519   3.486 -1.6948 -0.2007  1.3529
 3733TIP3    H211206   0.267   1.397   3.448  0.2141  0.3120  3.5367
 3734TIP3   OH211207   1.043   4.077   4.180 -0.0669  0.2562  0.6182
 3734TIP3    H111208   0.967   4.130   4.201 -0.2970  0.4134 -0.5493
 3734TIP3    H211209   1.017   3.988   4.203  0.1732  0.5531  2.1909
 3735TIP3   OH211210   4.953   0.854   4.531 -0.5645  0.1403 -0.5718
 3735TIP3    H111211   4.903   0.923   4.575 -0.8119  1.0370 -2.1556
 3735TIP3    H211212   4.892   0.779   4.528 -0.7083  0.2233  0.1667
 3736TIP3   OH211213   1.948   3.740   1.692 -0.4448  0.0488 -0.2689
 3736TIP3    H111214   2.009   3.667   1.681  0.6793  1.1852 -1.9715
 3736TIP3    H211215   1.974   3.782   1.773 -2.5112 -2.6468  1.9860
 3737TIP3   OH211216   1.332   4.702   4.807  0.0026  0.8226 -0.1000
 3737TIP3    H111217   1.402   4.760   4.778  0.1398  1.4125  1.3320
 3737TIP3    H211218   1.353   4.617   4.767  1.0014  1.2242 -0.4555
 3738TIP3   OH211219   3.850   2.829   3.163  0.2031  0.1668  0.3445
 3738TIP3    H111220   3.862   2.877   3.245  0.2604 -1.2681  1.2105
 3738TIP3    H211221   3.931   2.779   3.153 -0.1399 -0.2910 -0.1533
 3739TIP3   OH211222   5.842   3.341   2.124 -0.4475  0.4893 -0.1600
 3739TIP3    H111223   5.878   3.282   2.057  0.8496  0.3119  0.6537
 3739TIP3    H211224   5.748   3.344   2.106 -0.0852  0.8127 -2.2767
 3740TIP3   OH211225   5.354   2.512   5.069 -0.5845 -0.1134 -0.3187
 3740TIP3    H111226   5.442   2.497   5.034 -0.9106 -4.0311  0.1038
 3740TIP3    H211227   5.351   2.606   5.085  3.7061  0.1697  0.0964
 3741TIP3   OH211228   2.887   4.499   3.941 -0.2195 -0.0464  0.8785
 3741TIP3    H111229   2.954   4.431   3.931  2.1718  2.3167 -1.1363
 3741TIP3    H211230   2.818   4.474   3.879  1.2052 -0.0980 -0.7737
 3742TIP3   OH211231   4.571   4.372   2.382  0.6098 -0.0878  0.0322
 3742TIP3    H111232   4.529   4.407   2.460  0.8640 -1.5259  0.8377
 3742TIP3    H211233   4.648   4.428   2.370 -0.8506  1.8824 -0.8389
 3743TIP3   OH211234   5.610   0.399   2.282 -0.1471  0.1653  0.0577
 3743TIP3    H111235   5.658   0.316   2.282 -0.4320 -0.1214 -3.0326
 3743TIP3    H211236   5.585   0.412   2.190 -2.8372  2.1067  0.9386
 3744TIP3   OH211237   0.593   5.230   4.122 -0.0571 -0.0340 -0.0787
 3744TIP3    H111238   0.660   5.200   4.061  0.1318  0.5702 -0.1724
 3744TIP3    H211239   0.538   5.153   4.136 -1.1654  0.2495 -2.3970
 3745TIP3   OH211240   1.335   5.852   1.058 -0.1174  0.2052 -0.1932
 3745TIP3    H111241   1.430   5.852   1.045  0.1524 -0.1679  1.5336
 3745TIP3    H211242   1.324   5.855   1.153 -1.8705  2.1370 -0.3949
 3746TIP3   OH211243   0.331   2.236   0.191 -0.0456 -0.1410  0.8810
 3746TIP3    H111244   0.371   2.243   0.104  0.2695  1.0435  1.0973
 3746TIP3    H211245   0.237   2.229   0.173 -0.1790  1.9593  0.4268
 3747TIP3   OH211246   3.489   2.512   4.580  0.1778 -0.0269  0.2677
 3747TIP3    H111247   3.577   2.551   4.589  1.5510 -3.0777  1.2154
 3747TIP3    H211248   3.431   2.574   4.625  1.2042  3.5638 -2.7442
 3748TIP3   OH211249   1.350   1.943   3.593 -0.0000 -0.5894 -0.0059
 3748TIP3    H111250   1.309   1.869   3.637  0.1151 -0.4616  0.3268
 3748TIP3    H211251   1.442   1.919   3.587 -0.1285 -0.8843 -0.7674
 3749TIP3   OH211252   0.255   3.965   3.821 -0.8606 -0.0986  0.3782
 3749TIP3    H111253   0.261   4.055   3.851 -2.3849  0.8375 -1.7853
 3749TIP3    H211254   0.161   3.952   3.804 -0.3585 -0.9866 -2.2283
 3750TIP3   OH211255   3.320   0.788   2.834 -0.0602 -0.2087 -0.6761
 3750TIP3    H111256   3.240   0.831   2.804 -0.5427 -0.0684  0.7404
 3750TIP3    H211257   3.344   0.729   2.763 -0.3602  1.0979 -1.9232
 3751TIP3   OH211258   3.900   1.479   1.052  0.0671 -0.1712  0.1484
 3751TIP3    H111259   3.901   1.390   1.088  1.3801  0.0251  0.6513
 3751TIP3    H211260   3.981   1.485   1.001 -1.1921 -0.0539 -1.9439
 3752TIP3   OH211261   2.400   0.520   5.067 -0.3152  0.0653 -0.2570
 3752TIP3    H111262   2.462   0.457   5.029  1.0355 -0.4829  2.6006
 3752TIP3    H211263   2.314   0.482   5.049  0.4001 -1.7163 -0.1218
 3753TIP3   OH211264   0.670   5.606   1.248 -0.2590  0.1304  0.0914
 3753TIP3    H111265   0.707   5.694   1.244 -1.2639  0.7544  2.6831
 3753TIP3    H211266   0.740   5.553   1.287  0.9024 -0.6742 -2.7849
 3754TIP3   OH211267   3.332   4.047   2.424  0.1538  0.2819 -0.3957
 3754TIP3    H111268   3.425   4.059   2.405 -0.4137  0.4765 -3.7785
 3754TIP3    H211269   3.305   3.974   2.367 -1.8067  0.3319  0.3796
 3755TIP3   OH211270   4.575   5.885   5.048  0.1140  0.6195 -0.2369
 3755TIP3    H111271   4.657   5.844   5.024 -0.6294 -0.6655 -0.6641
 3755TIP3    H211272   4.591   5.979   5.037  1.5536  0.4054 -0.1521
 3756TIP3   OH211273   5.322   1.072   4.294  0.4365 -0.3045  0.4496
 3756TIP3    H111274   5.366   1.156   4.311 -1.8428  0.9074  0.8852
 3756TIP3    H211275   5.291   1.079   4.204  0.3256 -0.7062  0.4551
 3757TIP3   OH211276   5.389   2.069   0.434 -0.3652  0.4886  0.2799
 3757TIP3    H111277   5.400   2.024   0.350 -1.1640 -0.4352  0.6505
 3757TIP3    H211278   5.430   2.154   0.421 -1.1943  0.6696 -1.3093
 3758TIP3   OH211279   1.936   4.215   0.755 -0.6766  0.2915  0.0713
 3758TIP3    H111280   1.931   4.249   0.666 -1.6078  1.3346  0.4990
 3758TIP3    H211281   2.009   4.263   0.795  1.4183 -1.9528 -0.8123
 3759TIP3   OH211282   2.730   2.467   1.835 -0.1492 -0.2352  0.2066
 3759TIP3    H111283   2.642   2.495   1.861 -0.0770  0.2807 -0.0966
 3759TIP3    H211284   2.726   2.459   1.740  0.3350  0.5415  0.1073
 3760TIP3   OH211285   5.083   3.205   2.856  0.1645  0.4353  0.3639
 3760TIP3    H111286   5.105   3.243   2.771  0.2204 -1.7441 -0.6409
 3760TIP3    H211287   5.148   3.136   2.869 -0.0419  0.5202  2.0598
 3761TIP3   OH211288   2.792   0.727   3.827  0.1408  0.1146  0.1138
 3761TIP3    H111289   2.852   0.787   3.781  0.8151 -1.3204 -0.9865
 3761TIP3    H211290   2.708   0.739   3.783  0.6932 -0.9702 -1.3135
 3762TIP3   OH211291   0.336   1.556   0.888 -0.1914  0.6366  0.5317
 3762TIP3    H111292   0.324   1.473   0.843  0.1239  0.3611  0.9556
 3762TIP3    H211293   0.266   1.559   0.953 -0.5322  0.9504  0.1580
 3763TIP3   OH211294   4.297   0.767   4.655  0.3513  0.1500 -0.2235
 3763TIP3    H111295   4.286   0.813   4.572 -1.2870 -0.1296 -0.2096
 3763TIP3    H211296   4.274   0.676   4.635  0.9175 -0.1140  0.3194
 3764TIP3   OH211297   2.502   4.235   4.821  0.7421 -0.2280  0.3880
 3764TIP3    H111298   2.469   4.146   4.807  0.8613 -0.2057 -0.0623
 3764TIP3    H211299   2.551   4.255   4.742 -0.5991  0.8223 -0.2343
 3765TIP3   OH211300   3.046   2.556   0.426 -0.7781 -0.5257  0.1094
 3765TIP3    H111301   3.138   2.548   0.452 -0.5124 -0.0005 -0.6271
 3765TIP3    H211302   3.014   2.466   0.424  0.0699 -0.8274 -0.7945
 3766TIP3   OH211303   0.971   1.438   2.269 -0.2773 -0.4591  0.2809
 3766TIP3    H111304   1.006   1.443   2.180 -0.5439  0.3642  0.2134
 3766TIP3    H211305   1.036   1.386   2.317  0.6642  0.3792 -0.0335
 3767TIP3   OH211306   4.409   0.012   2.289  0.0922 -0.2520 -0.4877
 3767TIP3    H111307   4.482  -0.036   2.250 -0.3173 -1.0488 -0.3105
 3767TIP3    H211308   4.436   0.104   2.288  0.7227 -0.4348 -1.2338
 3768TIP3   OH211309   3.508   3.905   3.465  0.1336 -0.1691  0.6761
 3768TIP3    H111310   3.473   3.991   3.488 -0.2064 -0.2708  0.5555
 3768TIP3    H211311   3.540   3.868   3.547  0.6940  0.2565  0.6529
 3769TIP3   OH211312   1.694   3.339   3.992  0.9858  0.2119  0.5087
 3769TIP3    H111313   1.688   3.430   4.022 -1.0543  0.3420 -0.1500
 3769TIP3    H211314   1.690   3.345   3.897 -0.5229 -0.6099  0.4940
 3770TIP3   OH211315   6.162   1.579   1.006  0.4654 -0.0840 -0.3172
 3770TIP3    H111316   6.241   1.599   1.056 -0.3043  2.5359  0.0109
 3770TIP3    H211317   6.126   1.502   1.049  0.5204  1.2956  2.4646
 3771TIP3   OH211318   3.442   4.546   2.007  0.2591 -0.5387 -0.0774
 3771TIP3    H111319   3.391   4.563   1.928 -0.0469 -2.2014 -0.2818
 3771TIP3    H211320   3.398   4.598   2.075 -0.2556 -0.0937 -0.7346
 3772TIP3   OH211321   1.372   2.991   3.572 -0.2128 -0.7962 -0.2486
 3772TIP3    H111322   1.329   2.934   3.636 -0.6235 -1.0219 -0.7169
 3772TIP3    H211323   1.466   2.977   3.587 -0.2790 -0.1925  0.8805
 3773TIP3   OH211324   4.471   0.821   3.920 -0.5491 -0.0366 -0.4440
 3773TIP3    H111325   4.388   0.831   3.967 -0.5456 -0.8000 -0.2666
 3773TIP3    H211326   4.532   0.877   3.967 -0.6039 -0.6107  0.3274
 3774TIP3   OH211327   3.342   0.264   2.430 -0.0036 -0.0007 -0.7319
 3774TIP3    H111328   3.329   0.333   2.365 -1.3928 -0.6632 -1.1898
 3774TIP3    H211329   3.376   0.190   2.380  2.0473  0.4791 -0.1534
 3775TIP3   OH211330   3.331   1.895   2.368  0.7594  0.3055 -0.6476
 3775TIP3    H111331   3.283   1.842   2.305 -1.5984  1.5593 -0.0134
 3775TIP3    H211332   3.267   1.915   2.436  2.2383  1.9484  0.3253
 3776TIP3   OH211333   4.786   4.085   4.882 -0.2981 -0.5850 -1.0122
 3776TIP3    H111334   4.858   4.148   4.874 -0.8127 -0.1109 -2.0573
 3776TIP3    H211335   4.741   4.111   4.962  0.7724 -0.9785 -0.2620
 3777TIP3   OH211336   4.957   0.913   3.867  0.3494  0.3956 -0.2930
 3777TIP3    H111337   4.872   0.887   3.904  0.1645  0.5469 -0.6018
 3777TIP3    H211338   4.963   0.866   3.784  0.5459  0.4215 -0.2946
 3778TIP3   OH211339   2.456   1.088   2.549  0.4943 -0.2203 -0.5732
 3778TIP3    H111340   2.549   1.070   2.537  0.6278 -0.2474  0.4481
 3778TIP3    H211341   2.413   1.037   2.481  1.3051  0.9144 -2.0017
 3779TIP3   OH211342   2.829   1.753   1.342 -0.2020  0.5290  0.1256
 3779TIP3    H111343   2.742   1.728   1.372 -0.1341 -0.3210 -0.3413
 3779TIP3    H211344   2.844   1.840   1.379 -2.4837  2.0774 -2.2215
 3780TIP3   OH211345   5.710   2.145   4.814  0.0908 -0.3726 -0.1111
 3780TIP3    H111346   5.677   2.226   4.775 -1.2090  0.1411  1.9039
 3780TIP3    H211347   5.742   2.094   4.740 -1.7257  0.7746 -1.7767
 3781TIP3   OH211348   1.033   4.573   0.727  0.5515 -0.2849  0.5412
 3781TIP3    H111349   1.112   4.569   0.674 -0.8227  1.7758 -1.8397
 3781TIP3    H211350   0.966   4.530   0.674 -0.7162  1.2370  0.8520
 3782TIP3   OH211351   5.869   2.690   0.745  0.1014  0.6955 -0.2002
 3782TIP3    H111352   5.779   2.669   0.718  0.2794 -0.6998  0.2217
 3782TIP3    H211353   5.894   2.762   0.687 -0.9163  0.4020 -1.0532
 3783TIP3   OH211354   0.262   5.402   0.987  0.1351 -0.1477  0.6885
 3783TIP3    H111355   0.297   5.324   0.945  0.3657  0.3189 -0.0056
 3783TIP3    H211356   0.337   5.461   0.997 -0.6558  1.7052 -2.6856
 3784TIP3   OH211357   2.770   3.766   0.359 -0.3649 -0.5372 -0.1650
 3784TIP3    H111358   2.816   3.848   0.376  0.6169 -0.9524 -0.7028
 3784TIP3    H211359   2.790   3.711   0.435 -2.2036  0.1859  0.8931
 3785TIP3   OH211360   5.023   4.893   0.548 -0.3266 -0.4177  0.2561
 3785TIP3    H111361   5.107   4.881   0.504 -0.8141  1.1672 -1.1887
 3785TIP3    H211362   4.961   4.842   0.496 -0.5435 -0.2502  0.3472
 3786TIP3   OH211363   0.459   5.966   3.720 -0.1175  0.2175 -0.1685
 3786TIP3    H111364   0.496   6.023   3.652  0.5908 -0.1794 -0.1205
 3786TIP3    H211365   0.393   5.914   3.673  1.2949 -1.0135 -0.8862
 3787TIP3   OH211366   1.331   3.365   2.531  0.9215 -0.5879 -0.0180
 3787TIP3    H111367   1.409   3.309   2.524  0.0917 -2.1457  2.0145
 3787TIP3    H211368   1.356   3.432   2.595  0.9718 -0.3397 -0.2935
 3788TIP3   OH211369   0.172   4.967   1.576  0.5319  0.1829  0.7064
 3788TIP3    H111370   0.232   4.899   1.609 -0.4642 -0.4429  1.2660
 3788TIP3    H211371   0.121   4.923   1.509  0.5765  0.6771  0.3420
 3789TIP3   OH211372   5.040   3.035   4.238 -0.1321  0.2522 -0.4546
 3789TIP3    H111373   5.122   3.005   4.199 -0.4517 -0.0570 -0.8938
 3789TIP3    H211374   5.062   3.121   4.275  0.7829 -0.4843  0.8213
 3790TIP3   OH211375   0.846   1.502   2.702  0.1926 -0.1397  0.3950
 3790TIP3    H111376   0.939   1.481   2.712  0.4803  0.3409 -1.0264
 3790TIP3    H211377   0.844   1.597   2.695 -0.5342 -0.0628  1.4521
 3791TIP3   OH211378   1.549   5.328   0.447 -0.7762 -0.3965 -0.0593
 3791TIP3    H111379   1.489   5.270   0.495 -0.0449 -1.5369 -0.4719
 3791TIP3    H211380   1.531   5.310   0.355  1.2327 -1.9655 -0.2258
 3792TIP3   OH211381   4.321   4.232   0.440 -0.1630  0.4086  0.2021
 3792TIP3    H111382   4.270   4.150   0.442 -0.7770  0.7847  0.2317
 3792TIP3    H211383   4.311   4.264   0.351  0.5600  0.1618  0.0244
 3793TIP3   OH211384   6.289   1.044   4.818  0.6677 -0.1500 -0.0125
 3793TIP3    H111385   6.268   1.111   4.753 -0.9096 -1.4662 -0.9473
 3793TIP3    H211386   6.301   0.964   4.766 -1.0704 -1.3258  1.2855
 3794TIP3   OH211387   0.644   5.318   3.008 -0.3894 -0.8273  0.3969
 3794TIP3    H111388   0.665   5.248   3.069  1.7063 -0.9786 -0.4141
 3794TIP3    H211389   0.725   5.370   3.002 -0.9529 -0.0572 -1.2273
 3795TIP3   OH211390   0.231   2.231   1.102 -0.0757 -0.4471  0.2863
 3795TIP3    H111391   0.195   2.279   1.028  0.4212 -1.9617 -0.9815
 3795TIP3    H211392   0.170   2.159   1.116  0.4075 -0.7916  0.6452
 3796TIP3   OH211393   1.527   0.705   4.108 -0.4379 -0.1879 -0.5253
 3796TIP3    H111394   1.581   0.710   4.187 -1.3635 -0.6083  0.1521
 3796TIP3    H211395   1.576   0.648   4.049 -0.6612 -1.5249  0.5285
 3797TIP3   OH211396   0.012   2.905   2.082  0.5570  0.5110  0.1152
 3797TIP3    H111397   0.076   2.835   2.069  1.1462  1.0270  0.1857
 3797TIP3    H211398  -0.068   2.860   2.109  1.2322 -0.0730  1.2419
 3798TIP3   OH211399   2.506   0.049   4.095  0.1474  0.0345  0.2488
 3798TIP3    H111400   2.588   0.082   4.060  0.6268  0.0591  1.3567
 3798TIP3    H211401   2.476  -0.016   4.031  0.0801  1.3309 -1.0773
 3799TIP3   OH211402   5.052   1.696   1.105  0.0479  0.1127  0.1208
 3799TIP3    H111403   5.036   1.605   1.078 -2.3155  1.2065 -2.8375
 3799TIP3    H211404   4.978   1.717   1.162  0.2890  0.3163  0.3589
 3800TIP3   OH211405   5.511   1.732   0.922  0.1546 -0.0254 -0.1032
 3800TIP3    H111406   5.419   1.753   0.936  0.3710  0.9441 -0.0744
 3800TIP3    H211407   5.510   1.670   0.849 -0.5577 -0.5186  0.3111
 3801TIP3   OH211408   4.883   5.684   3.927 -0.2481  0.6433 -0.0117
 3801TIP3    H111409   4.962   5.712   3.973  0.0959 -0.8541  0.3800
 3801TIP3    H211410   4.813   5.698   3.991  0.3426 -2.3066  1.4623
 3802TIP3   OH211411   4.125   1.821   2.084 -0.2725  0.5276 -0.0208
 3802TIP3    H111412   4.037   1.831   2.046 -0.9083 -0.6065  1.0892
 3802TIP3    H211413   4.149   1.910   2.110 -0.4403  1.1021 -1.6667
 3803TIP3   OH211414   5.306   5.452   3.435 -0.5827  0.0324 -0.3437
 3803TIP3    H111415   5.224   5.463   3.386 -1.2947  1.2119  1.0525
 3803TIP3    H211416   5.355   5.387   3.385 -1.7755  0.3261 -1.9708
 3804TIP3   OH211417   6.204   5.038   3.092  0.3389 -0.2439  0.3556
 3804TIP3    H111418   6.236   4.993   3.170 -1.9355 -1.6306  0.5492
 3804TIP3    H211419   6.184   4.968   3.030 -0.3293  0.6929 -0.5132
 3805TIP3   OH211420   6.215   2.613   0.313  0.1231 -0.7446 -0.6057
 3805TIP3    H111421   6.160   2.637   0.387  0.0312 -1.5738 -0.3978
 3805TIP3    H211422   6.280   2.553   0.349  2.2031  1.3829 -0.4852
 3806TIP3   OH211423   1.237   1.619   5.139 -0.5207  0.6269 -0.5394
 3806TIP3    H111424   1.287   1.539   5.150 -0.2152  0.4051 -2.9590
 3806TIP3    H211425   1.146   1.590   5.132 -0.6421  0.7120  0.4823
 3807TIP3   OH211426   2.050   0.065   2.102 -0.3145  0.4049 -0.3385
 3807TIP3    H111427   2.010   0.104   2.179 -2.1773  0.7066 -1.4050
 3807TIP3    H211428   2.028   0.125   2.030  0.4412 -0.4235 -1.2908
 3808TIP3   OH211429   3.317   4.291   3.207 -0.2513  0.2196  0.4128
 3808TIP3    H111430   3.394   4.328   3.250 -0.0190 -0.0576  0.2377
 3808TIP3    H211431   3.249   4.290   3.274  0.2900 -0.8251  0.9583
 3809TIP3   OH211432   0.783   1.601   3.179 -0.1446  0.1301  0.0967
 3809TIP3    H111433   0.746   1.593   3.267  0.6037  0.9193  0.5031
 3809TIP3    H211434   0.710   1.582   3.120 -0.7081 -0.1898  0.8851
 3810TIP3   OH211435   1.970   5.425   0.306  0.6137 -0.1633  0.0163
 3810TIP3    H111436   2.018   5.403   0.226 -1.3603 -2.3210 -0.6837
 3810TIP3    H211437   1.934   5.341   0.336 -1.2027  1.0649  1.4778
 3811TIP3   OH211438   2.342   1.521   1.311  0.2399  0.0057  0.0022
 3811TIP3    H111439   2.392   1.488   1.237  1.4688 -0.1152  0.8382
 3811TIP3    H211440   2.341   1.616   1.298 -3.0493 -0.1818 -2.2474
 3812TIP3   OH211441   2.981   3.188   4.884 -0.5193  0.2852  0.6275
 3812TIP3    H111442   2.950   3.110   4.930  1.5966 -1.5288 -0.7716
 3812TIP3    H211443   2.912   3.208   4.821 -1.5395  0.1933  1.6856
 3813TIP3   OH211444   1.552   4.052   2.074 -0.5138  0.0252  0.3013
 3813TIP3    H111445   1.599   3.982   2.029 -2.4393  0.0464 -1.9099
 3813TIP3    H211446   1.529   4.114   2.005 -1.2470  1.4617  1.7810
 3814TIP3   OH211447   0.729   3.602   2.105  0.0070 -0.1404  0.9175
 3814TIP3    H111448   0.735   3.652   2.187 -1.7665 -0.1035  1.0553
 3814TIP3    H211449   0.798   3.537   2.112  0.4208  0.3961  2.0774
 3815TIP3   OH211450   2.185   1.628   3.653  0.2303 -0.2450 -0.7287
 3815TIP3    H111451   2.260   1.575   3.678 -0.4922 -1.9183 -1.9503
 3815TIP3    H211452   2.109   1.582   3.689 -0.2736  1.4509  0.5472
 3816TIP3   OH211453   4.813   4.233   2.264 -0.4070  0.4398  0.1874
 3816TIP3    H111454   4.812   4.250   2.358  0.8646  0.6055  0.1930
 3816TIP3    H211455   4.849   4.313   2.226 -0.5345  0.2235 -0.3932
 3817TIP3   OH211456   3.903   5.615   3.531 -0.1084 -0.4451 -0.3760
 3817TIP3    H111457   3.885   5.659   3.614  1.3966 -0.8647  0.2079
 3817TIP3    H211458   3.907   5.522   3.554  0.5245 -0.5483 -0.8652
 3818TIP3   OH211459   3.972   1.283   4.496 -0.6264 -0.2956  0.2516
 3818TIP3    H111460   3.909   1.355   4.493 -0.3131  0.0235  1.1435
 3818TIP3    H211461   3.926   1.212   4.541 -1.4893 -1.2384 -1.9909
 3819TIP3   OH211462   2.261   4.305   5.118 -0.1783  0.5106 -0.2720
 3819TIP3    H111463   2.251   4.235   5.183  1.7884  0.2586 -0.1898
 3819TIP3    H211464   2.355   4.321   5.114 -0.5148  2.5627 -0.9465
 3820TIP3   OH211465   2.164   0.137   4.652 -0.6079  0.1238 -0.3697
 3820TIP3    H111466   2.125   0.184   4.577  1.8162  0.5711 -1.4420
 3820TIP3    H211467   2.104   0.064   4.668 -1.1887 -0.0239 -2.7981
 3821TIP3   OH211468   1.509   3.487   3.153  0.0229  0.2989 -0.3641
 3821TIP3    H111469   1.560   3.523   3.225 -0.8292  1.2225 -0.2029
 3821TIP3    H211470   1.469   3.407   3.190  0.7163 -0.0065 -0.2608
 3822TIP3   OH211471   0.706   5.685   2.890 -0.2024 -0.0160  0.0653
 3822TIP3    H111472   0.704   5.726   2.804 -0.1956  0.6342  0.3656
 3822TIP3    H211473   0.614   5.664   2.908 -0.1789 -0.3388 -0.1825
 3823TIP3   OH211474   2.187   1.496   3.285  0.5557 -0.0387 -0.1595
 3823TIP3    H111475   2.171   1.401   3.285 -0.4399  0.1149 -1.0570
 3823TIP3    H211476   2.115   1.532   3.336  0.5646  0.2967 -0.3830
 3824TIP3   OH211477   2.446   1.375   2.818  0.0304  0.1994  0.3153
 3824TIP3    H111478   2.456   1.383   2.723  0.3333 -1.5044  0.1742
 3824TIP3    H211479   2.536   1.378   2.851 -0.0283  0.1432  0.4800
 3825TIP3   OH211480   3.986   1.077   4.964  0.3785  0.0671  0.3979
 3825TIP3    H111481   4.072   1.040   4.945 -0.0544 -0.8247  0.1165
 3825TIP3    H211482   3.983   1.158   4.914  1.7254  1.0274  1.7765
 3826TIP3   OH211483   1.607   4.232   1.397 -0.2333  0.2494  0.6099
 3826TIP3    H111484   1.540   4.168   1.423 -1.0212  0.4744 -0.7596
 3826TIP3    H211485   1.623   4.214   1.305  0.3633  1.2972  0.4910
 3827TIP3   OH211486   2.789   0.503   0.531  0.4498  0.2887 -0.1332
 3827TIP3    H111487   2.737   0.464   0.460  0.3552 -0.6117  0.4089
 3827TIP3    H211488   2.756   0.460   0.610  0.4733  1.3635  0.4731
 3828TIP3   OH211489   3.759   5.841   4.675  0.3905 -0.5889  0.2713
 3828TIP3    H111490   3.716   5.817   4.757  0.4067  2.1470  1.1810
 3828TIP3    H211491   3.823   5.908   4.700  0.8328 -0.1252 -1.9045
 3829TIP3   OH211492   2.489   0.773   1.270  0.1382  0.4006 -0.0608
 3829TIP3    H111493   2.437   0.808   1.198  0.2949  1.6045  0.3930
 3829TIP3    H211494   2.578   0.803   1.251  0.3184  0.0480  0.2254
 3830TIP3   OH211495   3.766   2.524   0.833 -0.2810 -0.4268 -0.2362
 3830TIP3    H111496   3.835   2.462   0.811  1.1767  1.5238 -1.6100
 3830TIP3    H211497   3.810   2.610   0.831 -2.0463  0.6476  2.0867
 3831TIP3   OH211498   1.959   1.428   0.388  0.8383 -0.4120 -0.1978
 3831TIP3    H111499   1.935   1.461   0.302 -3.0666  0.4920  1.0615
 3831TIP3    H211500   1.929   1.495   0.449  3.9378 -0.7650  1.9655
 3832TIP3   OH211501   2.277   1.101   5.110  0.3980 -0.2513  0.0987
 3832TIP3    H111502   2.257   1.122   5.019  3.2300 -2.0007 -1.0599
 3832TIP3    H211503   2.282   1.005   5.112  1.1909 -0.2129  1.9012
 3833TIP3   OH211504   0.703   1.492   0.977 -0.0278 -1.0114 -0.1546
 3833TIP3    H111505   0.762   1.553   1.022 -0.2094 -0.7576 -0.2570
 3833TIP3    H211506   0.758   1.416   0.957 -0.2802 -1.7501  1.7404
 3834TIP3   OH211507   4.725   5.293   4.323  0.2371  0.1504 -0.2665
 3834TIP3    H111508   4.675   5.233   4.379  0.9793  0.9204  1.2683
 3834TIP3    H211509   4.816   5.264   4.332  0.1951 -1.0684 -2.8199
 3835TIP3   OH211510   1.027   5.714   2.388 -0.2551  0.0375  0.5798
 3835TIP3    H111511   1.040   5.678   2.476 -0.8305 -1.8504 -0.0538
 3835TIP3    H211512   0.935   5.697   2.368 -0.5752  1.9307  0.2025
 3836TIP3   OH211513   0.835   3.456   2.747 -0.1458 -0.3225 -0.0755
 3836TIP3    H111514   0.759   3.440   2.689 -0.7043 -0.0705  0.5747
 3836TIP3    H211515   0.890   3.378   2.736 -0.2210 -0.2621 -0.9758
 3837TIP3   OH211516   0.345   3.659   2.896 -0.3304  0.3899 -0.2795
 3837TIP3    H111517   0.352   3.720   2.822  0.9856 -0.6939 -1.0938
 3837TIP3    H211518   0.425   3.672   2.946  0.4856 -1.3685 -1.0530
 3838TIP3   OH211519   5.461   5.172   3.895 -0.4211 -0.5512  0.0672
 3838TIP3    H111520   5.398   5.138   3.832  0.1279 -1.8999  0.2209
 3838TIP3    H211521   5.492   5.095   3.942  1.5295  0.0337 -0.1725
 3839TIP3   OH211522   3.167   0.097   3.247  0.2920  0.4115 -0.1983
 3839TIP3    H111523   3.161   0.141   3.162  2.1734  2.1864  0.4727
 3839TIP3    H211524   3.243   0.039   3.239  0.2167  0.2635  0.1282
 3840TIP3   OH211525   4.646   4.701   1.568 -0.1925  0.5918  0.0487
 3840TIP3    H111526   4.568   4.659   1.532 -0.2109 -0.0523  0.8090
 3840TIP3    H211527   4.719   4.653   1.529 -0.2173 -0.7075  1.4970
 3841TIP3   OH211528   0.395   1.287   3.480 -0.2474  0.1058  0.2766
 3841TIP3    H111529   0.410   1.244   3.565  0.6501  0.0940  0.1235
 3841TIP3    H211530   0.482   1.291   3.440 -0.8766 -1.3801 -1.3599
 3842TIP3   OH211531   6.321   1.746   2.188 -0.5269 -0.1678  0.3025
 3842TIP3    H111532   6.245   1.800   2.212 -1.3555 -1.3215  0.3831
 3842TIP3    H211533   6.395   1.788   2.232 -0.5738  2.5959 -1.9655
 3843TIP3   OH211534   3.180   1.072   4.401 -0.0596 -0.1138 -0.2007
 3843TIP3    H111535   3.170   0.980   4.425  1.3388 -0.5075 -1.0095
 3843TIP3    H211536   3.104   1.090   4.345  0.2923 -1.1327 -1.0359
 3844TIP3   OH211537   6.004   2.813   0.181 -0.3783 -0.4672 -0.3758
 3844TIP3    H111538   6.091   2.812   0.219 -0.7122 -4.0563  0.6851
 3844TIP3    H211539   6.018   2.801   0.087  0.2407  0.4538 -0.4155
 3845TIP3   OH211540   1.347   4.604   1.040  0.0600 -0.3870 -0.0597
 3845TIP3    H111541   1.388   4.579   1.123 -0.2816  0.1667  0.2806
 3845TIP3    H211542   1.397   4.680   1.010 -1.6004  1.2702  1.1214
 3846TIP3   OH211543   2.580   5.238   1.753 -0.9017  0.4291 -0.2424
 3846TIP3    H111544   2.642   5.263   1.684 -2.1534 -0.3340 -1.7134
 3846TIP3    H211545   2.548   5.152   1.726 -0.7883 -0.3108  1.7927
 3847TIP3   OH211546   2.421   0.459   1.360 -0.0117  0.7210 -0.0332
 3847TIP3    H111547   2.503   0.477   1.314  1.8306 -1.6371  2.0413
 3847TIP3    H211548   2.426   0.511   1.440  0.3081 -0.6411  0.8767
 3848TIP3   OH211549   4.864   1.547   3.676 -0.2184  0.4617 -0.0140
 3848TIP3    H111550   4.824   1.626   3.710  0.1908  0.9997 -0.7562
 3848TIP3    H211551   4.949   1.575   3.643 -0.5696 -0.0189 -1.4242
 3849TIP3   OH211552   4.326   0.466   4.697  0.3883 -0.1601  0.1423
 3849TIP3    H111553   4.235   0.492   4.683  0.7983  0.3135 -2.0831
 3849TIP3    H211554   4.331   0.445   4.790 -1.8357  0.3853  0.4479
 3850TIP3   OH211555   1.786   4.388   1.503 -0.0407 -0.1617 -0.5942
 3850TIP3    H111556   1.730   4.318   1.468 -1.5000  0.9626 -0.6137
 3850TIP3    H211557   1.805   4.443   1.428 -1.7302  1.2955 -0.0205
 3851TIP3   OH211558   2.393   1.332   1.511  0.6318 -0.0053  0.4944
 3851TIP3    H111559   2.443   1.285   1.444  1.0339 -0.3925  1.0543
 3851TIP3    H211560   2.353   1.406   1.465  0.1569 -0.7810 -0.3649
 3852TIP3   OH211561   5.943   4.353   3.907  0.1553 -0.0293 -0.5187
 3852TIP3    H111562   6.004   4.421   3.880 -1.6941  1.7748 -0.4267
 3852TIP3    H211563   5.971   4.274   3.859  1.4943  1.1601 -1.7783
 3853TIP3   OH211564   5.972   3.766   0.053 -0.4643 -0.5273  0.6519
 3853TIP3    H111565   6.058   3.764   0.096 -0.7708 -0.0114  1.3045
 3853TIP3    H211566   5.938   3.677   0.064 -0.4014 -0.4876  1.2134
 3854TIP3   OH211567   3.656   5.998   5.120 -0.3101  0.2076  0.4062
 3854TIP3    H111568   3.690   6.018   5.033  2.4639 -0.8461  1.1155
 3854TIP3    H211569   3.619   5.910   5.112 -1.3297  0.6655  0.0051
 3855TIP3   OH211570   2.330   2.493   3.884  0.2788  0.3345  0.3247
 3855TIP3    H111571   2.322   2.398   3.884  0.0950  0.3408  1.1904
 3855TIP3    H211572   2.422   2.510   3.903  0.6320  0.3361 -1.2218
 3856TIP3   OH211573   2.213   1.494   0.219  0.4125  0.2220 -0.3349
 3856TIP3    H111574   2.223   1.399   0.212 -1.0158 -0.0979  1.3227
 3856TIP3    H211575   2.119   1.508   0.231  0.4167  1.9825 -1.9713
 3857TIP3   OH211576   4.792   2.654   2.360 -0.1782  0.0507  0.0317
 3857TIP3    H111577   4.767   2.746   2.357  0.1082  0.1408  0.3533
 3857TIP3    H211578   4.742   2.613   2.290 -0.5517  0.3921  0.0990
 3858TIP3   OH211579   1.802   0.444   3.335  0.3909 -0.6862 -0.3140
 3858TIP3    H111580   1.842   0.381   3.395  1.4258  0.6291  0.4530
 3858TIP3    H211581   1.712   0.454   3.366  1.5077  1.7093  2.6356
 3859TIP3   OH211582   4.015   1.894   3.359 -0.0269 -0.1617 -0.5855
 3859TIP3    H111583   3.982   1.896   3.448  0.6101 -1.6244 -0.2755
 3859TIP3    H211584   4.092   1.837   3.363 -0.7952 -1.4389 -2.3121
 3860TIP3   OH211585   2.066   3.218   1.229  0.4377  0.0193 -0.4955
 3860TIP3    H111586   2.034   3.228   1.139  2.0390 -0.4562 -1.1448
 3860TIP3    H211587   2.096   3.128   1.234  0.6225  0.1242  0.4373
 3861TIP3   OH211588   3.162   0.213   2.949 -0.4048 -0.2098 -0.0443
 3861TIP3    H111589   3.202   0.221   2.862 -1.4515  0.4897 -0.4807
 3861TIP3    H211590   3.068   0.206   2.931 -0.6866  0.6138  1.0602
 3862TIP3   OH211591   6.185   0.140   3.173  0.9522 -0.6705  0.0482
 3862TIP3    H111592   6.251   0.113   3.109  2.1863  1.2591  0.4117
 3862TIP3    H211593   6.105   0.151   3.122  1.7127  0.0471 -1.0512
 3863TIP3   OH211594   2.617   0.538   4.058  0.0475 -0.1871 -0.1184
 3863TIP3    H111595   2.622   0.521   3.964  0.9585 -1.3056  0.1129
 3863TIP3    H211596   2.651   0.459   4.099 -0.6754  0.1483  1.1722
 3864TIP3   OH211597   4.132   3.675   1.981 -0.2271  0.5917 -0.4855
 3864TIP3    H111598   4.148   3.755   1.931  0.8517  0.4573 -0.3872
 3864TIP3    H211599   4.037   3.663   1.977 -0.3846  1.7289 -0.7219
 3865TIP3   OH211600   2.681   4.367   4.076 -0.2956  1.0581  0.4816
 3865TIP3    H111601   2.750   4.414   4.030  0.3364  0.5119  0.8494
 3865TIP3    H211602   2.728   4.316   4.142 -1.1849  1.9743  1.8749
 3866TIP3   OH211603   5.699   2.830   1.175  0.1432  0.3666 -0.0089
 3866TIP3    H111604   5.619   2.777   1.168 -0.0012  0.2914  1.7982
 3866TIP3    H211605   5.667   2.921   1.178  0.2689  0.4641 -1.1045
 3867TIP3   OH211606   5.079   4.350   3.044  0.3637 -0.6657  0.1582
 3867TIP3    H111607   5.097   4.381   3.133  1.1230 -0.4203 -0.0806
 3867TIP3    H211608   5.126   4.411   2.987 -0.7683 -0.3310 -0.4570
 3868TIP3   OH211609   5.821   4.254   1.476 -0.6080 -0.0592 -0.0275
 3868TIP3    H111610   5.732   4.217   1.482 -0.5014 -0.5146 -1.0037
 3868TIP3    H211611   5.876   4.178   1.454  0.1246  0.1092  1.1484
 3869TIP3   OH211612   2.416   5.690   4.039 -0.5037 -0.1168  0.2971
 3869TIP3    H111613   2.466   5.753   4.090  0.6048 -1.9219  1.5687
 3869TIP3    H211614   2.329   5.690   4.079 -0.2725  0.0219  0.8087
 3870TIP3   OH211615   4.497   3.677   1.894  0.6665  0.7965  0.4122
 3870TIP3    H111616   4.510   3.584   1.872  0.5007  0.9716 -0.4844
 3870TIP3    H211617   4.444   3.675   1.974  1.1224  0.1215  0.7117
 3871TIP3   OH211618   1.093   2.898   2.821  0.3104  0.2147 -0.2729
 3871TIP3    H111619   1.177   2.855   2.836  0.4602  1.2994  2.4356
 3871TIP3    H211620   1.030   2.826   2.814  1.2904 -0.5683 -1.4778
 3872TIP3   OH211621   2.160   5.891   1.699 -0.0414  0.1788  0.0734
 3872TIP3    H111622   2.198   5.954   1.638 -1.6203  1.8130  0.6862
 3872TIP3    H211623   2.202   5.911   1.783  1.8196 -1.7927 -0.2896
 3873TIP3   OH211624   5.004   1.560   0.842 -0.3072  0.2095 -0.8011
 3873TIP3    H111625   4.914   1.573   0.874 -0.3003  0.0960 -0.7351
 3873TIP3    H211626   5.022   1.639   0.790 -1.2968 -0.8017 -2.8016
 3874TIP3   OH211627   1.300   1.312   0.931 -0.5802 -0.2112  0.3874
 3874TIP3    H111628   1.239   1.272   0.870 -0.5473 -2.1241  1.5037
 3874TIP3    H211629   1.311   1.401   0.900 -0.7084 -1.0323 -2.2599
 3875TIP3   OH211630   6.215   2.235   2.232 -0.0455 -0.1384  0.4427
 3875TIP3    H111631   6.183   2.183   2.305 -1.1966  2.6514  2.1198
 3875TIP3    H211632   6.137   2.253   2.180  0.0457  0.9234  0.6449
 3876TIP3   OH211633   1.738   4.942   2.518 -0.2533 -0.1470 -0.2116
 3876TIP3    H111634   1.684   5.003   2.469  1.1800  0.0012 -1.7105
 3876TIP3    H211635   1.712   4.953   2.609 -3.0355 -0.4463 -0.8916
 3877TIP3   OH211636   2.219   1.193   3.245  0.1323 -0.0317 -1.0856
 3877TIP3    H111637   2.239   1.196   3.152  1.1086 -2.2149 -1.0085
 3877TIP3    H211638   2.301   1.167   3.286 -1.0075 -2.0669  0.0542
 3878TIP3   OH211639   4.132   2.026   0.876  0.4147 -0.4312 -0.0893
 3878TIP3    H111640   4.171   2.104   0.838 -1.2737  0.2682 -0.4650
 3878TIP3    H211641   4.168   1.954   0.825  0.7462  0.2275 -0.8039
 3879TIP3   OH211642   0.012   2.064   0.716 -0.4350  0.4642 -0.5244
 3879TIP3    H111643  -0.043   2.024   0.648 -1.5512  1.3197 -0.1648
 3879TIP3    H211644   0.048   2.143   0.674 -1.0544  0.9448 -0.1720
 3880TIP3   OH211645   3.822   4.778   2.277 -0.2397 -0.1197  0.4219
 3880TIP3    H111646   3.884   4.787   2.350 -1.2845  0.2634  1.2809
 3880TIP3    H211647   3.861   4.830   2.206  0.5285 -0.0669  0.8706
 3881TIP3   OH211648   1.330   5.808   4.366 -0.2625 -0.5719 -0.7412
 3881TIP3    H111649   1.277   5.772   4.295 -1.4939  0.0950 -0.1934
 3881TIP3    H211650   1.354   5.896   4.335  0.6435 -0.9242 -1.0437
 3882TIP3   OH211651   5.647   3.731   0.594 -0.3201 -0.0701  0.0480
 3882TIP3    H111652   5.608   3.819   0.592  0.2140  0.1909  0.6343
 3882TIP3    H211653   5.721   3.740   0.654  1.2125 -0.3245 -1.6981
 3883TIP3   OH211654   3.758   3.141   4.423 -0.0351 -0.3859  0.4461
 3883TIP3    H111655   3.807   3.224   4.421  0.5490 -0.7279 -1.3766
 3883TIP3    H211656   3.814   3.081   4.471  0.3970 -0.2049  0.1771
 3884TIP3   OH211657   3.529   2.426   0.877 -0.2824 -0.2353 -0.5075
 3884TIP3    H111658   3.474   2.502   0.860  0.2574 -0.6007 -5.1942
 3884TIP3    H211659   3.617   2.454   0.852  0.0691 -2.1004 -1.5984
 3885TIP3   OH211660   2.628   1.438   0.394  0.1285 -0.4586 -0.3441
 3885TIP3    H111661   2.607   1.531   0.384 -1.3026 -0.6228  0.9279
 3885TIP3    H211662   2.709   1.437   0.446  0.5575  0.0654 -0.9779
 3886TIP3   OH211663   1.757   4.630   3.976 -0.5537  0.1254 -0.7316
 3886TIP3    H111664   1.673   4.597   4.006  0.0757 -1.3193 -0.4553
 3886TIP3    H211665   1.774   4.707   4.030 -1.5673  0.2838 -0.6221
 3887TIP3   OH211666   3.685   3.279   0.078 -0.4663 -0.4629 -0.6991
 3887TIP3    H111667   3.774   3.249   0.095 -1.0368 -0.3736  3.2573
 3887TIP3    H211668   3.633   3.199   0.076 -0.5177 -0.4323 -2.0068
 3888TIP3   OH211669   2.721   0.753   0.599 -0.1915  0.0427  0.3079
 3888TIP3    H111670   2.651   0.777   0.538 -0.9398 -0.9216  0.7607
 3888TIP3    H211671   2.748   0.665   0.571 -0.3251 -0.2792  1.1756
 3889TIP3   OH211672   0.550   1.307   1.465  0.3257 -0.3002 -0.0979
 3889TIP3    H111673   0.531   1.303   1.371 -0.7725  1.4302  0.0035
 3889TIP3    H211674   0.514   1.391   1.493 -2.0105 -1.9606  2.4490
 3890TIP3   OH211675   1.816   5.647   3.655  0.0506 -0.1270 -0.4556
 3890TIP3    H111676   1.794   5.570   3.706 -0.0373  0.7771  0.9055
 3890TIP3    H211677   1.790   5.624   3.565 -1.1850 -1.1862  0.1383
 3891TIP3   OH211678   2.063   4.321   3.971 -0.1423  0.1168 -0.3334
 3891TIP3    H111679   2.096   4.252   3.914  1.3490 -0.8015  1.5440
 3891TIP3    H211680   2.122   4.395   3.957  0.2215 -0.1070  0.0099
 3892TIP3   OH211681   5.237   4.006   0.773  0.0175  0.3136  0.0232
 3892TIP3    H111682   5.224   4.075   0.707 -2.0411  0.0777  0.1109
 3892TIP3    H211683   5.160   3.949   0.763  0.6681 -0.8459  1.3162
 3893TIP3   OH211684   2.449   0.499   3.386 -0.3002  0.8007  0.4660
 3893TIP3    H111685   2.481   0.419   3.344 -0.0734  0.3732  1.4267
 3893TIP3    H211686   2.392   0.539   3.321 -0.2423 -0.0318 -0.1101
 3894TIP3   OH211687   1.323   5.480   5.014 -0.3607 -0.1054  0.4661
 3894TIP3    H111688   1.281   5.396   5.033 -0.4662 -0.2403 -0.3204
 3894TIP3    H211689   1.255   5.532   4.971 -0.1292  0.1768  0.4342
 3895TIP3   OH211690   4.410   1.441   5.023 -0.5505 -0.1348  0.5569
 3895TIP3    H111691   4.394   1.410   5.113  0.2047 -2.1744  0.0440
 3895TIP3    H211692   4.503   1.464   5.022 -1.2118  3.1253  1.1162
 3896TIP3   OH211693   1.308   3.251   4.134 -0.2351  0.3719  0.2531
 3896TIP3    H111694   1.333   3.209   4.051  1.8367  3.3774 -0.8172
 3896TIP3    H211695   1.354   3.201   4.201 -2.0325 -2.1906 -0.2727
 3897TIP3   OH211696   5.281   3.795   0.471  0.7257  0.1165  0.0931
 3897TIP3    H111697   5.302   3.766   0.559  1.8191 -0.9391 -0.4923
 3897TIP3    H211698   5.225   3.872   0.484  0.7191 -0.1255  1.6875
 3898TIP3   OH211699   3.967   1.385   0.068  0.2090  0.0632 -0.2308
 3898TIP3    H111700   3.884   1.379   0.021 -0.8756  1.7930  1.3227
 3898TIP3    H211701   3.975   1.478   0.090  0.5396 -0.5996  3.0317
 3899TIP3   OH211702   2.979   1.611   1.833  0.7277 -0.6037  0.1076
 3899TIP3    H111703   2.940   1.633   1.749 -2.2341  2.4488  2.0153
 3899TIP3    H211704   2.905   1.583   1.888  1.8319  1.0377  2.6603
 3900TIP3   OH211705   3.720   5.198   1.311 -0.2571 -0.5917  0.4356
 3900TIP3    H111706   3.698   5.129   1.374 -0.1116 -1.9418 -0.9416
 3900TIP3    H211707   3.655   5.190   1.242 -2.9553  3.4571  2.1052
 3901TIP3   OH211708   5.568   4.200   0.473  0.1976 -0.0750  0.1774
 3901TIP3    H111709   5.561   4.293   0.496 -2.0899 -0.3288  0.7097
 3901TIP3    H211710   5.615   4.199   0.390  3.1311  1.3039  1.6561
 3902TIP3   OH211711   4.555   3.814   2.671  0.6304 -0.5424  0.0373
 3902TIP3    H111712   4.488   3.793   2.605 -1.4487 -0.1397  1.9109
 3902TIP3    H211713   4.611   3.879   2.627 -0.6020 -0.3695 -1.3852
 3903TIP3   OH211714   3.279   4.434   4.449 -0.0184 -0.1088  0.1633
 3903TIP3    H111715   3.322   4.410   4.531  0.3551  2.0929  0.6634
 3903TIP3    H211716   3.198   4.478   4.476  0.3957  1.1713 -0.6126
 3904TIP3   OH211717   5.363   3.951   5.149 -0.3446 -0.2084  0.1520
 3904TIP3    H111718   5.385   3.866   5.187  0.4590  0.0896  0.3722
 3904TIP3    H211719   5.268   3.947   5.134 -0.2791 -1.2309 -0.0678
 3905TIP3   OH211720   3.533   1.670   2.657 -0.0862 -0.1431 -0.7146
 3905TIP3    H111721   3.584   1.596   2.625  0.0010  0.5515 -2.2580
 3905TIP3    H211722   3.545   1.738   2.592  0.2129  1.4277  0.8931
 3906TIP3   OH211723   0.899   3.867   4.639 -0.5768 -0.6088 -0.0448
 3906TIP3    H111724   0.853   3.833   4.715 -0.7225 -1.0636 -0.3341
 3906TIP3    H211725   0.882   3.803   4.570 -0.4120 -0.2214 -0.4471
 3907TIP3   OH211726   3.028   4.958   4.559 -0.2965 -0.1197  0.1976
 3907TIP3    H111727   2.956   4.945   4.621  0.3656 -0.8169  0.8412
 3907TIP3    H211728   2.996   5.024   4.498 -1.7872 -0.9523  0.0242
 3908TIP3   OH211729   4.522   3.476   1.551  0.0505 -0.6133 -0.2544
 3908TIP3    H111730   4.480   3.549   1.505  1.2383  0.7745  0.7579
 3908TIP3    H211731   4.536   3.410   1.483 -2.2423 -0.4793 -0.9401
 3909TIP3   OH211732   5.400   0.105   4.408  0.2992 -0.5898  0.1075
 3909TIP3    H111733   5.348   0.067   4.337 -0.3540  0.7947 -0.1744
 3909TIP3    H211734   5.384   0.199   4.402  3.4308  0.0352 -0.4863
 3910TIP3   OH211735   3.160   5.714   0.351  0.2500  0.3952 -0.7600
 3910TIP3    H111736   3.228   5.683   0.410  0.1123 -2.3524 -1.9045
 3910TIP3    H211737   3.078   5.681   0.388 -0.2538  1.7346 -0.6099
 3911TIP3   OH211738   4.018   4.284   1.978 -0.6804  0.3967 -0.0666
 3911TIP3    H111739   4.062   4.277   1.893 -4.0378  0.6030 -2.0225
 3911TIP3    H211740   4.011   4.379   1.993 -0.3093  0.3621  0.3495
 3912TIP3   OH211741   2.563   0.619   3.637  0.0666  0.0822  0.4089
 3912TIP3    H111742   2.540   0.583   3.551  2.0006  0.1717 -0.2041
 3912TIP3    H211743   2.587   0.543   3.689 -2.3411 -0.1185  1.3703
 3913TIP3   OH211744   4.112   4.121   3.225 -0.3110 -0.4720  0.3351
 3913TIP3    H111745   4.033   4.164   3.259 -0.1630 -0.7322  1.0244
 3913TIP3    H211746   4.097   4.028   3.242 -0.2440 -0.6127 -0.3471
 3914TIP3   OH211747   5.000   5.364   1.765  0.3229 -0.2990  0.2423
 3914TIP3    H111748   5.052   5.369   1.845  1.4414  2.1574 -0.5170
 3914TIP3    H211749   4.910   5.380   1.794  0.7616  0.9111  1.0292
 3915TIP3   OH211750   6.004   1.229   2.424 -0.6685  0.4357  0.2095
 3915TIP3    H111751   6.076   1.287   2.400 -0.3582  0.8833  2.1174
 3915TIP3    H211752   5.991   1.174   2.346  2.1642 -0.1103  0.0205
 3916TIP3   OH211753   5.419   5.883   4.173 -0.3884  0.0840  0.1442
 3916TIP3    H111754   5.459   5.964   4.142  1.4164  0.0245  2.0929
 3916TIP3    H211755   5.420   5.826   4.096 -1.4653  1.7703 -1.1946
 3917TIP3   OH211756   5.348   0.521   4.571  0.0255 -0.0995 -0.5644
 3917TIP3    H111757   5.270   0.477   4.605 -0.0590 -1.6948 -2.6300
 3917TIP3    H211758   5.419   0.458   4.584  1.1065  1.4111  1.4733
 3918TIP3   OH211759   4.876   1.813   2.623 -0.7424 -0.0934  0.4743
 3918TIP3    H111760   4.946   1.840   2.563 -0.4848 -0.2583  0.6972
 3918TIP3    H211761   4.914   1.740   2.672 -0.1433  1.4825  2.4441
 3919TIP3   OH211762   3.634   2.396   4.149  0.2027  0.3529 -0.5883
 3919TIP3    H111763   3.572   2.395   4.222  0.9348 -2.0283  0.1127
 3919TIP3    H211764   3.720   2.385   4.191  0.6067 -1.4889 -1.7553
 3920TIP3   OH211765   5.564   2.660   0.276 -0.5139  0.1429 -0.0002
 3920TIP3    H111766   5.540   2.606   0.351 -1.7149 -0.2681 -0.6609
 3920TIP3    H211767   5.660   2.650   0.270 -0.3608  0.4142  1.6213
 3921TIP3   OH211768   3.997   3.756   0.202 -0.1242  0.3435 -0.0562
 3921TIP3    H111769   4.060   3.688   0.180 -1.7521 -1.7394  1.3163
 3921TIP3    H211770   3.936   3.758   0.128  0.1240  0.5389 -0.2530
 3922TIP3   OH211771   1.684   3.873   0.200 -0.0370 -0.2260  0.4681
 3922TIP3    H111772   1.643   3.806   0.255  0.2221 -1.8266 -1.1788
 3922TIP3    H211773   1.618   3.942   0.193  0.5534  0.9407  4.1260
 3923TIP3   OH211774   5.225   0.764   1.057  0.3861  0.1078 -0.0289
 3923TIP3    H111775   5.165   0.835   1.035 -0.6613 -0.7363 -0.0093
 3923TIP3    H211776   5.254   0.729   0.973 -0.8385 -0.8432 -0.0798
 3924TIP3   OH211777   1.361   0.700   4.464 -0.0011  0.1139  0.1117
 3924TIP3    H111778   1.299   0.653   4.408  1.1307 -1.5751  0.2135
 3924TIP3    H211779   1.372   0.785   4.421 -1.9459  0.2448 -0.1901
 3925TIP3   OH211780   1.992   1.080   5.163  0.2570 -0.4734 -0.1788
 3925TIP3    H111781   1.970   0.989   5.141  1.8768 -1.3154  1.4266
 3925TIP3    H211782   2.087   1.080   5.171  0.3211  1.4728 -0.4885
 3926TIP3   OH211783   3.350   3.776   1.339  0.1005  0.5187  0.0569
 3926TIP3    H111784   3.333   3.866   1.366 -2.5263 -0.1789  1.0018
 3926TIP3    H211785   3.272   3.728   1.365  0.3157 -1.5762 -2.6965
 3927TIP3   OH211786   6.289   5.485   4.760 -0.5474  0.2322 -0.0609
 3927TIP3    H111787   6.213   5.543   4.763  0.4289  1.6288 -1.1576
 3927TIP3    H211788   6.314   5.484   4.667  1.9611  1.4206  0.5239
 3928TIP3   OH211789   5.045   3.908   4.897  0.3551  0.6680 -0.4068
 3928TIP3    H111790   4.952   3.927   4.890 -0.4121 -2.3964 -0.2553
 3928TIP3    H211791   5.062   3.901   4.991 -0.2188 -2.1537 -0.4023
 3929TIP3   OH211792   3.009   5.502   4.111  1.0602  0.3003  0.3935
 3929TIP3    H111793   3.080   5.548   4.067 -0.6026 -0.1267 -3.0635
 3929TIP3    H211794   2.932   5.558   4.098 -0.1747 -1.4490 -0.2458
 3930TIP3   OH211795   1.658   3.885   0.554 -0.1044 -0.1291 -0.4195
 3930TIP3    H111796   1.657   3.927   0.640 -1.5100  0.7798 -0.8495
 3930TIP3    H211797   1.747   3.897   0.522 -0.3515  2.2728 -0.3654
 3931TIP3   OH211798   3.647   5.699   1.699  0.0515 -0.4567 -0.3112
 3931TIP3    H111799   3.737   5.730   1.691  0.2965 -1.2357 -0.7009
 3931TIP3    H211800   3.595   5.761   1.648  0.5605 -0.8216 -1.2989
 3932TIP3   OH211801   3.866   4.460   1.017 -0.0536  0.1863 -0.6101
 3932TIP3    H111802   3.890   4.527   0.953 -1.1028  0.8030 -0.3815
 3932TIP3    H211803   3.886   4.377   0.973  0.2758  0.6189 -1.3029
 3933TIP3   OH211804   1.446   1.677   3.777  0.5039 -0.6483  0.2182
 3933TIP3    H111805   1.395   1.689   3.857 -0.8259 -0.6166 -0.5984
 3933TIP3    H211806   1.395   1.614   3.726  0.6598  0.3005 -1.1541
 3934TIP3   OH211807   6.355   0.504   2.214  0.7251  0.2351 -0.7166
 3934TIP3    H111808   6.346   0.595   2.186  0.1572  0.6782  0.7969
 3934TIP3    H211809   6.281   0.459   2.174  0.1476  0.7684 -0.2727
 3935TIP3   OH211810   1.267   0.559   4.732  0.2902 -0.4670 -0.4312
 3935TIP3    H111811   1.179   0.525   4.745  0.5159 -0.9210 -0.0232
 3935TIP3    H211812   1.262   0.611   4.652 -0.3054 -0.6338 -0.5037
 3936TIP3   OH211813   1.007   2.337   2.412  0.2300 -0.2528 -0.0540
 3936TIP3    H111814   1.093   2.370   2.387 -0.1710  0.5772 -0.3990
 3936TIP3    H211815   0.967   2.410   2.460  0.3898 -1.2677  1.7063
 3937TIP3   OH211816   0.711   5.970   0.057  0.4737  0.0650  0.1425
 3937TIP3    H111817   0.672   6.030   0.121 -1.0578  0.1666 -0.8513
 3937TIP3    H211818   0.689   5.883   0.089 -1.2980  0.1271 -0.7990
 3938TIP3   OH211819   1.584   5.398   4.921  0.0681  0.5065  0.2172
 3938TIP3    H111820   1.509   5.454   4.941 -0.3869  0.6799 -1.8165
 3938TIP3    H211821   1.660   5.453   4.938 -0.3712  1.8466 -1.8011
 3939TIP3   OH211822   5.727   5.491   3.161  0.4471  0.1229 -0.2515
 3939TIP3    H111823   5.711   5.551   3.234 -0.7888 -0.3813 -0.0798
 3939TIP3    H211824   5.659   5.512   3.098  0.2670 -0.7919 -0.3757
 3940TIP3   OH211825   5.722   5.491   1.533  0.0412  0.2177  0.5243
 3940TIP3    H111826   5.755   5.458   1.450  1.7274  3.7105 -0.3743
 3940TIP3    H211827   5.795   5.480   1.594 -1.1635 -2.2618  1.6511
 3941TIP3   OH211828   2.455   3.303   3.683 -0.0245 -0.4326 -0.2335
 3941TIP3    H111829   2.487   3.214   3.700 -0.5774 -0.7340 -0.7311
 3941TIP3    H211830   2.486   3.323   3.595 -0.5112 -0.4238 -0.4105
 3942TIP3   OH211831   0.705   0.103   0.826 -0.2079 -0.3544  0.4626
 3942TIP3    H111832   0.735   0.191   0.804  0.0433 -0.6417 -0.3765
 3942TIP3    H211833   0.785   0.050   0.828 -0.5163 -0.9029 -0.7235
 3943TIP3   OH211834   5.690   0.563   0.761  0.4106 -0.0779  0.3616
 3943TIP3    H111835   5.703   0.473   0.731 -0.3920 -0.2514  0.5078
 3943TIP3    H211836   5.674   0.614   0.682  0.6746 -0.0936  0.2964
 3944TIP3   OH211837   5.345   3.370   4.640 -0.4660  0.4554  0.0245
 3944TIP3    H111838   5.347   3.309   4.714 -1.0568  0.3672 -0.0284
 3944TIP3    H211839   5.393   3.325   4.571  0.7245  0.8326  0.5624
 3945TIP3   OH211840   3.928   4.179   4.503  0.5802  0.6650 -0.7292
 3945TIP3    H111841   3.891   4.092   4.486 -0.6345  0.8877  0.5488
 3945TIP3    H211842   4.017   4.175   4.468  1.1923 -1.7160  0.8647
 3946TIP3   OH211843   6.094   1.316   0.430 -0.5164  0.0155  0.2946
 3946TIP3    H111844   6.020   1.290   0.375 -0.6518  0.0062  0.4798
 3946TIP3    H211845   6.151   1.365   0.371 -1.2532  1.0837  0.4292
 3947TIP3   OH211846   4.270   3.918   1.437  0.0417 -0.2303  0.3410
 3947TIP3    H111847   4.189   3.909   1.385  0.1400  0.9070 -0.0503
 3947TIP3    H211848   4.240   3.926   1.527 -0.4110  1.6220  0.0616
 3948TIP3   OH211849   4.666   3.276   3.869  0.1888  0.2463 -0.1957
 3948TIP3    H111850   4.738   3.230   3.827  0.0041  0.5128 -0.8184
 3948TIP3    H211851   4.667   3.245   3.959 -0.0965 -1.1824 -0.6480
 3949TIP3   OH211852   2.571   4.820   4.677 -0.4535 -0.3053 -0.0993
 3949TIP3    H111853   2.502   4.795   4.615 -0.3790 -0.2060 -0.2249
 3949TIP3    H211854   2.533   4.893   4.726  0.4196  1.3974 -1.8310
 3950TIP3   OH211855   5.775   5.484   3.654 -0.6782 -0.2569 -0.7350
 3950TIP3    H111856   5.809   5.427   3.585 -1.5775 -1.6252 -0.1044
 3950TIP3    H211857   5.683   5.497   3.631 -0.7171  0.1524 -0.3573
 3951TIP3   OH211858   6.219   1.527   5.162 -0.1400 -0.1030 -0.7875
 3951TIP3    H111859   6.307   1.499   5.188 -0.3746 -0.4688 -0.3906
 3951TIP3    H211860   6.235   1.588   5.090  0.3932 -0.9145 -1.3746
 3952TIP3   OH211861   3.367   4.442   4.916 -1.0021 -0.0860 -0.0261
 3952TIP3    H111862   3.422   4.470   4.843  0.5687 -1.3812  0.5814
 3952TIP3    H211863   3.323   4.363   4.884 -0.8048 -0.2924  0.2076
 3953TIP3   OH211864   5.605   2.629   3.611  0.3574  0.3181  0.0170
 3953TIP3    H111865   5.587   2.722   3.627 -0.1558  0.4811 -1.3341
 3953TIP3    H211866   5.619   2.624   3.516 -2.7392 -1.4873 -0.4494
 3954TIP3   OH211867   0.634   0.103   0.482  0.3026  0.1252 -0.3547
 3954TIP3    H111868   0.571   0.095   0.553 -1.1580  1.3369 -1.4629
 3954TIP3    H211869   0.625   0.021   0.433 -0.0651  0.0870 -0.2272
 3955TIP3   OH211870   1.359   1.241   2.546 -0.1678 -0.5199 -0.0997
 3955TIP3    H111871   1.404   1.180   2.605  0.3452  0.9837  1.1020
 3955TIP3    H211872   1.267   1.231   2.567 -0.1387 -1.2172 -0.2624
 3956TIP3   OH211873   6.054   0.829   2.519 -0.1047 -0.8141 -0.2021
 3956TIP3    H111874   5.982   0.849   2.580 -0.2737  0.9256 -0.9152
 3956TIP3    H211875   6.024   0.864   2.435  0.3360 -2.7443 -1.2080
 3957TIP3   OH211876   4.803   2.741   4.326  0.5380 -0.1173  0.0549
 3957TIP3    H111877   4.774   2.757   4.236 -3.5435 -1.1733  0.9653
 3957TIP3    H211878   4.850   2.658   4.321  0.6732  0.0068 -1.1436
 3958TIP3   OH211879   2.104   2.062   2.199 -0.2316 -0.1081 -0.0220
 3958TIP3    H111880   2.082   2.154   2.185 -1.3734 -0.3353  0.1293
 3958TIP3    H211881   2.047   2.015   2.137  0.0701 -0.7257  0.1613
 3959TIP3   OH211882   0.133   1.993   1.235 -0.2207  0.7676  0.4849
 3959TIP3    H111883   0.056   2.010   1.181  0.8520  0.6089 -1.1387
 3959TIP3    H211884   0.123   2.053   1.309 -1.2920  1.6160 -0.3051
 3960TIP3   OH211885   3.802   5.225   4.606  0.3306 -0.1383 -0.0245
 3960TIP3    H111886   3.730   5.275   4.645  1.5095  2.0757 -0.5366
 3960TIP3    H211887   3.801   5.249   4.514  2.5337  1.0754  0.1965
 3961TIP3   OH211888   0.968   5.459   3.434 -0.4091 -0.0511 -0.0152
 3961TIP3    H111889   0.946   5.386   3.377 -1.2356  0.7553 -0.7452
 3961TIP3    H211890   1.043   5.427   3.485  0.3584 -0.7838 -1.5501
 3962TIP3   OH211891   0.450   0.735   4.442 -0.1897  0.0658 -0.3670
 3962TIP3    H111892   0.527   0.792   4.443  0.6959 -1.0911  0.2693
 3962TIP3    H211893   0.432   0.719   4.535 -1.2813  0.4001 -0.5075
 3963TIP3   OH211894   3.978   2.872   4.269  0.4713  0.5217  0.1237
 3963TIP3    H111895   4.001   2.939   4.205 -0.1929  0.8342  0.2015
 3963TIP3    H211896   3.995   2.789   4.225  1.0728  0.7413 -0.0580
 3964TIP3   OH211897   1.540   0.947   1.734 -0.2414 -0.6732 -0.4294
 3964TIP3    H111898   1.586   1.030   1.724  0.9245 -0.5863  3.7738
 3964TIP3    H211899   1.600   0.881   1.700  0.3487 -0.0616 -0.5867
 3965TIP3   OH211900   5.978   0.007   2.501  0.2213  0.3142  0.0335
 3965TIP3    H111901   5.896  -0.042   2.492 -0.0637  0.9254 -0.8952
 3965TIP3    H211902   5.962   0.089   2.453  1.2417  0.6149  0.1807
 3966TIP3   OH211903   3.734   1.218   2.792 -0.4760 -0.2355  0.3250
 3966TIP3    H111904   3.724   1.127   2.819  0.5716 -0.9466 -1.4940
 3966TIP3    H211905   3.669   1.266   2.844 -1.3558 -2.0680  1.0009
 3967TIP3   OH211906   5.135   5.621   1.162  0.1853 -0.0915 -0.1145
 3967TIP3    H111907   5.167   5.579   1.241 -1.1250 -1.9565 -0.5173
 3967TIP3    H211908   5.201   5.687   1.141  2.0052 -1.5153  0.9129
 3968TIP3   OH211909   0.859   2.550   4.033 -0.4218  0.0007  0.2536
 3968TIP3    H111910   0.786   2.568   3.974 -1.7767 -0.8001  1.6457
 3968TIP3    H211911   0.837   2.467   4.075 -0.1896  1.1861  2.9048
 3969TIP3   OH211912   4.495   4.352   3.277 -0.1223  0.6352  0.2505
 3969TIP3    H111913   4.494   4.256   3.280 -1.9337  0.5295 -1.5655
 3969TIP3    H211914   4.496   4.378   3.369  0.8786 -1.0964  0.7927
 3970TIP3   OH211915   3.534   2.477   2.689 -0.8381 -0.2123 -0.1198
 3970TIP3    H111916   3.578   2.406   2.736 -1.9607 -0.3364  0.7873
 3970TIP3    H211917   3.603   2.541   2.672 -0.0619 -0.9557  0.1581
 3971TIP3   OH211918   1.606   3.569   2.582  0.1699 -0.4502  0.4500
 3971TIP3    H111919   1.546   3.527   2.642  1.2033 -1.1272  1.0355
 3971TIP3    H211920   1.619   3.657   2.618 -0.3673 -0.3426  0.3828
 3972TIP3   OH211921   4.066   5.383   4.518  0.1985  0.2498  0.4450
 3972TIP3    H111922   4.042   5.297   4.483 -0.3611 -0.3456  2.1458
 3972TIP3    H211923   4.039   5.445   4.451  2.1422 -0.9619 -1.5872
 3973TIP3   OH211924   2.324   0.959   4.256  0.0646  0.2995  0.0078
 3973TIP3    H111925   2.358   0.969   4.167 -3.1111  3.8594 -1.0991
 3973TIP3    H211926   2.395   0.916   4.304  2.0183 -1.6799 -4.1056
 3974TIP3   OH211927   3.393   4.016   3.924  0.2384 -1.0452 -0.5126
 3974TIP3    H111928   3.402   3.954   3.851 -0.0348 -1.9918  0.2274
 3974TIP3    H211929   3.304   4.049   3.917  0.8552  0.4578 -1.7996
 3975TIP3   OH211930   1.824   0.549   4.368 -0.1360  0.2816 -0.0440
 3975TIP3    H111931   1.904   0.529   4.319 -0.1805  0.2255 -0.0933
 3975TIP3    H211932   1.852   0.614   4.433  0.2623 -0.7944  0.8832
 3976TIP3   OH211933   0.284   1.076   4.642 -0.2685  0.3531  0.3523
 3976TIP3    H111934   0.295   1.002   4.581 -1.3797  0.9801 -0.6706
 3976TIP3    H211935   0.255   1.035   4.724  1.3589 -0.5210  0.5222
 3977TIP3   OH211936   3.398   1.120   2.627  0.3434  0.0137 -0.6784
 3977TIP3    H111937   3.476   1.158   2.665  0.3504  1.0510 -1.6592
 3977TIP3    H211938   3.331   1.126   2.695  0.9286 -0.2427 -0.0792
 3978TIP3   OH211939   1.437   3.989   1.120  0.5028  0.8784  0.3130
 3978TIP3    H111940   1.378   3.919   1.148 -0.2586  0.1473 -2.7792
 3978TIP3    H211941   1.525   3.952   1.129  0.4791  1.2335  2.9397
 3979TIP3   OH211942   2.145   1.264   0.520 -0.6760 -0.0981  0.2069
 3979TIP3    H111943   2.238   1.281   0.509 -0.8147  0.2235 -0.5646
 3979TIP3    H211944   2.102   1.322   0.456 -1.2880 -1.6937 -0.9102
 3980TIP3   OH211945   0.629   1.032   1.045 -0.4763 -0.8774  0.2583
 3980TIP3    H111946   0.688   1.055   1.117 -0.8195 -0.4588  0.4109
 3980TIP3    H211947   0.547   1.009   1.088 -0.9958  0.3453 -0.0364
 3981TIP3   OH211948   4.423   4.474   1.032  0.2108  0.1002  0.1774
 3981TIP3    H111949   4.477   4.409   0.988  1.0837  0.0689  1.2450
 3981TIP3    H211950   4.479   4.551   1.040 -0.3855  0.5560  0.0444
 3982TIP3   OH211951   2.040   3.964   2.898  0.0211  0.2139  0.1020
 3982TIP3    H111952   1.998   3.973   2.812  0.1234  0.2138  0.0506
 3982TIP3    H211953   1.975   3.996   2.960 -0.0995  0.0989  0.0352
 3983TIP3   OH211954   4.726   2.803   2.732 -0.0103 -0.3309  0.3353
 3983TIP3    H111955   4.684   2.854   2.801  0.5028 -0.5188  0.7882
 3983TIP3    H211956   4.667   2.812   2.657 -1.3420 -1.3401  1.2190
 3984TIP3   OH211957   1.154   1.225   2.284 -0.2006  0.2922 -0.6145
 3984TIP3    H111958   1.071   1.197   2.247  1.1451 -1.9736 -2.2136
 3984TIP3    H211959   1.194   1.145   2.317  1.3790  1.3136  0.0914
 3985TIP3   OH211960   1.510   0.902   2.880  0.1428  0.0549 -0.1018
 3985TIP3    H111961   1.468   0.924   2.964 -0.6061 -2.4672  0.2836
 3985TIP3    H211962   1.468   0.820   2.854  1.8474 -0.3027 -1.9235
 3986TIP3   OH211963   2.924   3.746   4.021 -0.7869  0.3521 -0.0365
 3986TIP3    H111964   2.970   3.797   3.954  1.2493 -0.5072  0.6382
 3986TIP3    H211965   2.986   3.676   4.045 -3.5210 -2.7158 -1.1701
 3987TIP3   OH211966   4.742   0.816   3.589 -0.0841  0.4032 -0.3622
 3987TIP3    H111967   4.740   0.745   3.525  2.9421 -0.4979  0.3781
 3987TIP3    H211968   4.760   0.772   3.672 -2.0118  1.7430  0.8525
 3988TIP3   OH211969   2.213   1.327   2.349 -0.0831 -0.1407  0.3938
 3988TIP3    H111970   2.146   1.392   2.372  0.7510  0.3380  1.6052
 3988TIP3    H211971   2.175   1.278   2.276 -1.1777  1.0118  0.1434
 3989TIP3   OH211972   4.519   1.462   3.839  0.2007 -0.0855 -0.0988
 3989TIP3    H111973   4.449   1.423   3.785  0.4303  0.0762 -0.5174
 3989TIP3    H211974   4.498   1.434   3.928  0.8824 -1.9742 -0.4864
 3990TIP3   OH211975   5.457   1.961   0.187  0.1372 -0.2004 -0.4341
 3990TIP3    H111976   5.426   1.940   0.099 -0.9580  2.1426 -0.6760
 3990TIP3    H211977   5.547   1.989   0.174 -0.4418  1.4901 -1.0701
 3991TIP3   OH211978   5.009   3.777   3.448  0.4374  0.4304 -0.2255
 3991TIP3    H111979   5.044   3.796   3.536 -2.2265 -1.6734  1.4418
 3991TIP3    H211980   4.956   3.853   3.426 -0.5150  0.1406  0.9639
 3992TIP3   OH211981   0.520   1.933   0.382  0.1880  0.1425 -0.4048
 3992TIP3    H111982   0.438   1.895   0.350 -0.0835  1.4591 -1.3395
 3992TIP3    H211983   0.561   1.971   0.304  0.8666  0.9913  0.3444
 3993TIP3   OH211984   2.069   1.958   0.907  0.0264  0.1538 -0.0750
 3993TIP3    H111985   2.037   1.870   0.928  1.8562 -1.5073 -3.4548
 3993TIP3    H211986   1.991   2.006   0.880 -0.9558 -0.5050  1.4889
 3994TIP3   OH211987   4.175   3.440   0.701 -0.0932  0.0769  0.7124
 3994TIP3    H111988   4.193   3.445   0.795  1.8739 -0.4534  0.4227
 3994TIP3    H211989   4.234   3.505   0.662 -0.0237 -0.5355 -0.2408
 3995TIP3   OH211990   3.858   1.470   2.896  0.0235  0.1179 -0.2680
 3995TIP3    H111991   3.777   1.423   2.914  0.2894 -0.5868 -0.8387
 3995TIP3    H211992   3.913   1.456   2.973 -0.0609 -0.1441 -0.2571
 3996TIP3   OH211993   0.861   3.217   2.499  0.1740  0.1168 -1.0473
 3996TIP3    H111994   0.766   3.219   2.501  0.0927  3.1393 -2.2696
 3996TIP3    H211995   0.886   3.299   2.456  3.3336 -0.6711 -0.9802
 3997TIP3   OH211996   6.155   5.215   3.732  0.2584 -0.0998  1.4192
 3997TIP3    H111997   6.070   5.195   3.772 -0.8511  0.6055 -0.4283
 3997TIP3    H211998   6.166   5.309   3.747  0.8482 -0.2396  1.8716
 3998TIP3   OH211999   5.462   4.751   1.406 -0.2740 -0.4417  0.1558
 3998TIP3    H112000   5.547   4.733   1.365 -0.4137 -0.2732 -0.2112
 3998TIP3    H212001   5.456   4.687   1.477  1.5635  1.5226  2.2578
 3999TIP3   OH212002   1.354   3.509   3.933  0.0097  0.2077 -0.2545
 3999TIP3    H112003   1.408   3.579   3.895  0.2439  0.0425 -0.2245
 3999TIP3    H212004   1.416   3.439   3.954  0.1853  0.9796  2.1077
 4000TIP3   OH212005   2.461   1.291   4.186  0.1807 -0.2225 -0.3606
 4000TIP3    H112006   2.472   1.295   4.281 -0.3929 -0.5172 -0.2781
 4000TIP3    H212007   2.549   1.302   4.151  0.2252  1.2766  0.1601
 4001TIP3   OH212008   5.288   2.790   5.076  0.1326 -0.4708 -0.5932
 4001TIP3    H112009   5.288   2.846   5.154 -3.5610  0.8287 -1.2795
 4001TIP3    H212010   5.324   2.846   5.007 -2.8147  1.0631 -1.1017
 4002TIP3   OH212011   3.448   4.708   3.626  0.0352  0.0281 -0.1428
 4002TIP3    H112012   3.436   4.801   3.645 -0.2440  0.1479 -0.8936
 4002TIP3    H212013   3.434   4.664   3.711  2.8475  0.8697  0.8531
 4003TIP3   OH212014   3.721   3.317   3.176 -0.0415  0.0510 -0.2758
 4003TIP3    H112015   3.772   3.285   3.102  0.8844 -0.6913  0.6601
 4003TIP3    H212016   3.634   3.333   3.140  0.3772 -0.3568 -1.5043
 4004TIP3   OH212017   1.004   0.944   1.378  0.4117 -0.4342  0.5716
 4004TIP3    H112018   1.004   0.853   1.348 -1.2909  0.0461 -1.0857
 4004TIP3    H212019   0.931   0.948   1.440 -0.4183  0.0829 -0.4139
 4005TIP3   OH212020   1.576   3.915   4.321  0.6288  0.1539 -0.2493
 4005TIP3    H112021   1.632   3.952   4.253  0.4795 -1.8656 -1.5399
 4005TIP3    H212022   1.548   3.830   4.287 -0.7506 -0.2469  1.6674
 4006TIP3   OH212023   4.923   4.453   1.123 -0.0250  0.1648 -0.4055
 4006TIP3    H112024   4.851   4.485   1.069  0.0355  1.0824  0.0427
 4006TIP3    H212025   4.929   4.516   1.195  0.1273 -0.8395  0.4793
 4007TIP3   OH212026   2.074   0.550   4.646  0.4986  0.0065  0.3609
 4007TIP3    H112027   2.153   0.580   4.690  0.0503  0.0882  1.1297
 4007TIP3    H212028   2.011   0.620   4.660  0.5966  0.4495 -1.1939
 4008TIP3   OH212029   4.263   2.763   3.871  0.0190  0.0212 -0.3789
 4008TIP3    H112030   4.302   2.705   3.806 -0.9419 -0.0482 -0.9141
 4008TIP3    H212031   4.168   2.753   3.858 -0.1820  2.3298 -1.0756
 4009TIP3   OH212032   4.006   0.188   0.660  0.4109  0.1295  0.1587
 4009TIP3    H112033   4.090   0.194   0.615 -0.2079  1.0718 -0.9069
 4009TIP3    H212034   3.942   0.225   0.599 -0.4546  1.5948  1.8480
 4010TIP3   OH212035   0.341   2.598   4.425  0.4124  0.1301 -0.0835
 4010TIP3    H112036   0.314   2.560   4.509  0.8889 -0.0718 -0.0174
 4010TIP3    H212037   0.264   2.647   4.395 -0.5191 -1.5958 -0.5988
 4011TIP3   OH212038   0.357   0.874   0.856  0.1368  0.0200 -0.2442
 4011TIP3    H112039   0.369   0.892   0.949  0.0533  2.0283 -0.5771
 4011TIP3    H212040   0.266   0.895   0.838  0.0281 -0.7982 -0.7025
 4012TIP3   OH212041   0.148   1.471   2.386  0.3606  0.1233 -0.2644
 4012TIP3    H112042   0.071   1.519   2.358 -0.3268 -0.5994  0.3571
 4012TIP3    H212043   0.195   1.532   2.443  1.3125  1.2873 -2.1718
 4013TIP3   OH212044   3.704   3.601   0.699 -0.6405  0.1921  0.1288
 4013TIP3    H112045   3.785   3.646   0.724 -0.6060 -0.0099  0.3961
 4013TIP3    H212046   3.649   3.669   0.661 -0.7810  0.5700  0.9780
 4014TIP3   OH212047   4.358   5.386   3.190  0.0729 -0.0976 -0.2047
 4014TIP3    H112048   4.411   5.439   3.131  1.1764 -0.0997  0.7483
 4014TIP3    H212049   4.409   5.305   3.200 -0.3310 -0.2817  0.3722
 4015TIP3   OH212050   3.576   2.249   4.608  0.0537  0.3017 -0.4023
 4015TIP3    H112051   3.494   2.200   4.615 -0.2974  0.8468 -0.5834
 4015TIP3    H212052   3.548   2.340   4.594  0.6810  0.3678 -1.3264
 4016TIP3   OH212053   2.598   0.100   1.647 -0.1303  0.0092 -0.2210
 4016TIP3    H112054   2.566   0.072   1.733  0.1308 -0.9486 -0.4232
 4016TIP3    H212055   2.560   0.037   1.586  0.1566  0.3349 -0.7365
 4017TIP3   OH212056   1.101   2.836   3.782 -0.9399 -0.0395 -0.3649
 4017TIP3    H112057   1.127   2.925   3.807 -1.8270  0.1187  0.0623
 4017TIP3    H212058   1.061   2.846   3.696  0.4958 -0.3037 -1.0830
 4018TIP3   OH212059   4.110   5.761   4.104 -0.4199 -0.3101 -0.5017
 4018TIP3    H112060   4.141   5.702   4.173 -0.7649  0.6572  0.5029
 4018TIP3    H212061   4.041   5.812   4.146  0.6900  1.6714 -0.9601
 4019TIP3   OH212062   2.680   4.996   2.397 -0.0834 -0.1098  0.1794
 4019TIP3    H112063   2.659   5.016   2.306  0.0300 -2.7721 -0.5229
 4019TIP3    H212064   2.620   4.925   2.420  0.7252 -0.3144  1.7922
 4020TIP3   OH212065   3.651   3.914   2.146  0.0112  0.0257  0.4147
 4020TIP3    H112066   3.577   3.908   2.207  0.0660  0.4201  0.5207
 4020TIP3    H212067   3.728   3.918   2.202  0.0961 -0.1057  0.3082
 4021TIP3   OH212068   6.073   5.558   2.252  0.3218 -0.2946 -0.4606
 4021TIP3    H112069   6.016   5.538   2.177 -1.1041 -0.1441  0.5563
 4021TIP3    H212070   6.149   5.501   2.239 -0.0761 -0.5700 -1.8025
 4022TIP3   OH212071   4.286   5.072   0.083  0.3079  0.0490 -0.4238
 4022TIP3    H112072   4.245   5.051  -0.001 -1.0653  1.2901 -0.0980
 4022TIP3    H212073   4.220   5.120   0.131  1.2253 -0.2673  1.2337
 4023TIP3   OH212074   2.170   3.377   4.033  0.1195 -0.6182 -0.5413
 4023TIP3    H112075   2.187   3.327   3.954  0.6719  0.8067 -1.3443
 4023TIP3    H212076   2.075   3.371   4.045  0.0838 -1.1811 -1.0726
 4024TIP3   OH212077   4.804   1.086   4.686 -0.1992  0.0982  0.2235
 4024TIP3    H112078   4.729   1.033   4.662 -0.9025 -0.2486  2.8645
 4024TIP3    H212079   4.782   1.174   4.656 -0.2246 -0.5367 -1.7609
 4025TIP3   OH212080   5.395   4.668   2.012 -0.2950 -0.2982 -0.1478
 4025TIP3    H112081   5.317   4.724   2.018 -1.2718 -1.6297  0.0141
 4025TIP3    H212082   5.468   4.726   2.034 -1.4050  0.5806  1.4095
 4026TIP3   OH212083   4.332   5.893   1.483  0.0422 -0.2485  0.2239
 4026TIP3    H112084   4.273   5.967   1.467  0.2171 -0.1412  0.0777
 4026TIP3    H212085   4.288   5.819   1.442  0.1765 -0.1007 -0.1889
 4027TIP3   OH212086   4.713   5.278   4.995 -0.3189 -0.2581 -0.2433
 4027TIP3    H112087   4.779   5.343   4.968 -1.0307  0.7342  0.3472
 4027TIP3    H212088   4.630   5.326   4.992 -1.0970 -1.6200 -1.4210
 4028TIP3   OH212089   6.159   2.776   4.631 -0.6695 -0.1899 -0.1117
 4028TIP3    H112090   6.184   2.857   4.676 -1.2255 -1.0615  1.8719
 4028TIP3    H212091   6.199   2.707   4.683  1.8873 -1.2027 -3.1210
 4029TIP3   OH212092   0.929   1.264   3.018  0.6264 -0.8864 -0.0369
 4029TIP3    H112093   0.925   1.238   3.110  0.2355  3.2353  1.3095
 4029TIP3    H212094   0.847   1.232   2.981 -1.3236  0.9869  2.2864
 4030TIP3   OH212095   0.164   2.633   3.372  0.0555 -0.1271 -0.1448
 4030TIP3    H112096   0.150   2.539   3.362 -0.1923 -0.3349  1.8005
 4030TIP3    H212097   0.084   2.673   3.337 -0.0640 -0.6440 -0.4845
 4031TIP3   OH212098   5.754   4.338   0.728 -0.2645 -0.2778 -0.1791
 4031TIP3    H112099   5.742   4.432   0.741  0.7604 -0.3157  1.2897
 4031TIP3    H212100   5.713   4.298   0.804 -0.1271 -0.9840 -0.4687
 4032TIP3   OH212101   6.140   0.220   0.618  0.5897  0.1164 -0.0866
 4032TIP3    H112102   6.156   0.275   0.695  0.3285 -1.4934  1.1838
 4032TIP3    H212103   6.062   0.169   0.641 -0.7730  1.0567 -2.3050
 4033TIP3   OH212104   2.926   2.745   4.488  0.5104 -0.3404  0.3064
 4033TIP3    H112105   2.838   2.779   4.505  0.9470  2.7843 -2.5630
 4033TIP3    H212106   2.915   2.687   4.413  0.8643 -0.1740  0.1258
 4034TIP3   OH212107   5.571   3.378   1.546  0.2179 -0.1973 -0.4595
 4034TIP3    H112108   5.555   3.468   1.575  1.1069  0.0105 -0.5933
 4034TIP3    H212109   5.489   3.351   1.505  0.2111  0.8292 -1.1343
 4035TIP3   OH212110   2.140   0.452   3.288 -0.2576  0.3069 -0.3528
 4035TIP3    H112111   2.181   0.526   3.243  0.2057  0.7007  0.6769
 4035TIP3    H212112   2.082   0.493   3.352 -1.5719 -0.2417 -1.1431
 4036TIP3   OH212113   3.800   1.099   4.673 -0.3034 -0.2500  0.3533
 4036TIP3    H112114   3.759   1.165   4.729 -1.8802  0.1969 -1.2409
 4036TIP3    H212115   3.728   1.062   4.623  1.2166  0.8486 -2.8974
 4037TIP3   OH212116   3.230   3.624   4.749 -0.1493 -0.0653 -0.3563
 4037TIP3    H112117   3.176   3.569   4.805 -0.3954  1.1609  0.6642
 4037TIP3    H212118   3.319   3.591   4.761 -0.6327 -2.3004 -2.2909
 4038TIP3   OH212119   5.379   5.997   0.010  0.1175  0.3721 -0.2812
 4038TIP3    H112120   5.331   5.935  -0.046  0.3500  0.3698 -0.4756
 4038TIP3    H212121   5.438   5.942   0.062  1.3517  0.5520 -1.4627
 4039TIP3   OH212122   3.483   0.964   5.023 -0.0375 -0.3790 -0.4473
 4039TIP3    H112123   3.505   1.039   4.967  2.1188 -1.4740 -1.1707
 4039TIP3    H212124   3.564   0.913   5.028 -1.2324 -2.2919  0.6237
 4040TIP3   OH212125   2.775   2.717   0.339  0.4106  0.0251  0.2740
 4040TIP3    H112126   2.769   2.808   0.368 -1.6276  0.0112  0.0687
 4040TIP3    H212127   2.744   2.666   0.414  2.6053 -0.6449  0.8033
 4041TIP3   OH212128   1.942   5.387   3.296  0.3652 -0.1040  0.5401
 4041TIP3    H112129   1.974   5.459   3.350  1.9306  0.1120 -0.6136
 4041TIP3    H212130   2.007   5.318   3.306  0.5925 -0.1360 -0.8727
 4042TIP3   OH212131   0.724   1.216   1.234  0.0759 -0.3611 -0.3999
 4042TIP3    H112132   0.804   1.245   1.278 -0.2533 -0.7802  0.5008
 4042TIP3    H212133   0.705   1.131   1.274 -0.6922 -0.3661 -0.7737
 4043TIP3   OH212134   1.337   4.086   1.725 -0.3285 -0.6915 -0.0583
 4043TIP3    H112135   1.351   4.179   1.708 -0.9924 -0.6491 -0.4082
 4043TIP3    H212136   1.283   4.083   1.803 -0.0916 -0.7952  0.1037
 4044TIP3   OH212137   5.746   2.072   2.961  0.1200 -0.0855  0.5619
 4044TIP3    H112138   5.813   2.032   2.905 -0.7248 -0.0882 -0.4873
 4044TIP3    H212139   5.767   2.042   3.049  2.0838  0.7265  0.4128
 4045TIP3   OH212140   4.785   0.219   5.148  0.6604 -0.2351  0.4804
 4045TIP3    H112141   4.691   0.230   5.159  0.4172  0.5964 -1.8922
 4045TIP3    H212142   4.822   0.306   5.166  0.6119  0.2155 -1.3739
 4046TIP3   OH212143   1.687   2.505   2.264 -0.6476  0.3034 -0.4467
 4046TIP3    H112144   1.764   2.482   2.316 -0.7766  3.1995  1.2486
 4046TIP3    H212145   1.718   2.507   2.174  0.4636 -1.4282 -0.1586
 4047TIP3   OH212146   4.514   1.588   0.094  0.1921 -0.0638  0.2823
 4047TIP3    H112147   4.548   1.579   0.005 -0.4693 -1.7206  0.1613
 4047TIP3    H212148   4.419   1.600   0.082  0.2411  0.9416  0.7456
 4048TIP3   OH212149   2.008   2.305   1.835 -0.3214  0.3280  0.2385
 4048TIP3    H112150   1.932   2.253   1.808  0.6252 -0.6161 -0.6818
 4048TIP3    H212151   2.014   2.375   1.770  0.2148 -0.2302 -0.3299
 4049TIP3   OH212152   3.398   5.792   2.121  0.0363  0.3913 -0.3821
 4049TIP3    H112153   3.351   5.709   2.131 -0.4073  0.6137 -0.5625
 4049TIP3    H212154   3.472   5.785   2.181 -1.8770  1.2264  2.2965
 4050TIP3   OH212155   1.433   5.588   2.005 -0.2020 -0.3996 -0.5701
 4050TIP3    H112156   1.493   5.598   1.931  2.6079 -1.3036  1.4254
 4050TIP3    H212157   1.467   5.649   2.071 -2.0416 -0.3261  0.3614
 4051TIP3   OH212158   3.023   0.107   5.069 -0.4828 -0.0139 -0.6542
 4051TIP3    H112159   3.033   0.099   5.164 -0.3319  0.2579 -0.6442
 4051TIP3    H212160   2.972   0.030   5.043 -2.1699  0.8601 -0.0867
 4052TIP3   OH212161   2.665   4.596   4.989 -0.2662  0.1345  0.2026
 4052TIP3    H112162   2.589   4.654   4.986 -0.1036  0.3184 -1.8796
 4052TIP3    H212163   2.740   4.653   4.972 -0.2036 -0.7082 -3.0390
 4053TIP3   OH212164   6.073   1.313   5.053 -0.7077 -0.0702  0.4485
 4053TIP3    H112165   6.153   1.262   5.046 -2.4181 -3.5843  3.3081
 4053TIP3    H212166   6.096   1.386   5.111  0.9622  0.6116 -0.9647
 4054TIP3   OH212167   5.792   2.474   1.470 -0.1067 -0.0220 -0.3438
 4054TIP3    H112168   5.797   2.407   1.402 -0.4025 -0.8890  0.4652
 4054TIP3    H212169   5.833   2.434   1.546  0.8672  1.1914 -0.1954
 4055TIP3   OH212170   2.897   2.553   3.903 -0.8930  0.4049 -0.1029
 4055TIP3    H112171   2.968   2.556   3.967 -1.5391 -1.2842  0.7608
 4055TIP3    H212172   2.917   2.622   3.840  1.4083  0.0778  0.2141
 4056TIP3   OH212173   3.750   1.836   4.005 -0.5799 -0.4532 -0.1364
 4056TIP3    H112174   3.726   1.790   4.085 -0.0687 -0.0315  0.2664
 4056TIP3    H212175   3.677   1.820   3.945 -0.5928 -1.4641  0.1173
 4057TIP3   OH212176   2.466   4.276   2.826  0.2343  0.0093 -0.3192
 4057TIP3    H112177   2.433   4.350   2.876  1.0431  0.4114 -0.3512
 4057TIP3    H212178   2.526   4.316   2.763  0.1827 -0.6135 -0.7688
 4058TIP3   OH212179   3.800   1.325   4.829 -0.6077 -0.2169  0.2443
 4058TIP3    H112180   3.895   1.336   4.828 -0.3741 -1.4652  2.1962
 4058TIP3    H212181   3.767   1.405   4.871 -0.3368 -0.1405  0.3132
 4059TIP3   OH212182   0.349   1.527   0.099  0.1820 -0.1988  0.6611
 4059TIP3    H112183   0.266   1.565   0.069  1.7065  1.8071 -1.2476
 4059TIP3    H212184   0.377   1.469   0.028  1.5380  0.9611  0.2149
 4060TIP3   OH212185   3.922   2.795   0.224 -0.0523  0.3305 -0.0357
 4060TIP3    H112186   3.957   2.877   0.191  0.3244  0.1220 -0.1517
 4060TIP3    H212187   3.878   2.755   0.149 -2.7427  1.7306  0.6378
 4061TIP3   OH212188   1.059   5.246   2.872  0.2332 -0.3174  0.0140
 4061TIP3    H112189   1.107   5.328   2.858 -0.6196 -0.0576 -1.5737
 4061TIP3    H212190   1.021   5.225   2.787 -1.9595 -0.8218  1.0502
 4062TIP3   OH212191   2.652   0.707   3.166  0.2081  0.6615 -0.2385
 4062TIP3    H112192   2.641   0.794   3.125  0.5135  0.4568 -0.7709
 4062TIP3    H212193   2.683   0.726   3.254  0.6863  1.0881 -0.4903
 4063TIP3   OH212194   1.561   3.198   2.398  0.1669  0.5091 -0.1762
 4063TIP3    H112195   1.601   3.191   2.485  0.1976  3.1169  0.0937
 4063TIP3    H212196   1.623   3.156   2.339  0.6515 -0.3637  0.9137
 4064TIP3   OH212197   5.756   2.330   3.190 -0.1604 -0.4700  0.1128
 4064TIP3    H112198   5.814   2.391   3.234 -0.9035  1.8917 -1.9345
 4064TIP3    H212199   5.692   2.305   3.256  0.1490  1.0319  1.0190
 4065TIP3   OH212200   4.800   3.938   0.649  0.5639 -0.0414  0.2684
 4065TIP3    H112201   4.728   3.999   0.630 -0.0582  0.0324  2.6024
 4065TIP3    H212202   4.796   3.874   0.578 -1.4347  0.2906  0.0170
 4066TIP3   OH212203   0.135   3.171   1.846  0.1931 -0.6986  0.2135
 4066TIP3    H112204   0.220   3.166   1.891  0.3909 -1.0241 -0.1987
 4066TIP3    H212205   0.126   3.088   1.800  0.5249  0.0596 -1.3009
 4067TIP3   OH212206   4.530   5.787   2.337  0.0123  0.3023 -0.2649
 4067TIP3    H112207   4.593   5.854   2.363 -0.3394 -0.1237  1.8798
 4067TIP3    H212208   4.560   5.707   2.380 -1.7412 -0.0003  0.4749
 4068TIP3   OH212209   2.485   4.394   0.695 -0.1741  0.1192  0.4325
 4068TIP3    H112210   2.510   4.480   0.728 -1.3614  0.3023  0.9072
 4068TIP3    H212211   2.410   4.368   0.749 -0.9085 -0.4573 -0.8172
 4069TIP3   OH212212   6.066   4.730   0.907 -0.6360  0.6058 -0.0308
 4069TIP3    H112213   5.993   4.785   0.879  0.3373  1.4527 -1.0213
 4069TIP3    H212214   6.128   4.791   0.947 -0.5465 -0.1302  1.0070
 4070TIP3   OH212215   1.694   4.713   3.682 -0.0770 -0.8282  0.3165
 4070TIP3    H112216   1.599   4.702   3.693 -0.2665 -0.7439 -1.0613
 4070TIP3    H212217   1.730   4.697   3.769 -1.2970 -1.5847  0.7130
 4071TIP3   OH212218   0.138   0.171   3.294 -0.0482 -0.7132  0.1719
 4071TIP3    H112219   0.167   0.154   3.384  1.1909  2.4030  0.4822
 4071TIP3    H212220   0.049   0.205   3.304 -0.1866 -1.0552  0.1274
 4072TIP3   OH212221   3.006   1.006   0.316  0.1499 -0.5261 -0.0487
 4072TIP3    H112222   3.095   0.975   0.336 -0.3426 -2.1560 -0.2452
 4072TIP3    H212223   2.963   0.931   0.276 -1.8476 -0.2859  1.4898
 4073TIP3   OH212224   0.320   5.546   2.136  0.0967  0.1659  0.0634
 4073TIP3    H112225   0.246   5.502   2.093  1.4063 -0.9941 -1.0842
 4073TIP3    H212226   0.387   5.479   2.145  1.6596  1.5843 -0.4814
 4074TIP3   OH212227   5.403   2.143   1.924  0.3457  0.0654  0.2878
 4074TIP3    H112228   5.417   2.050   1.904  1.4356  1.0327 -4.9552
 4074TIP3    H212229   5.317   2.146   1.965  0.5326 -3.2428  1.2274
 4075TIP3   OH212230   6.097   4.393   0.775 -0.5533 -0.6793  0.0349
 4075TIP3    H112231   6.058   4.467   0.727  3.4967  1.4238 -0.4576
 4075TIP3    H212232   6.110   4.426   0.864  1.9703 -0.3520 -0.3693
 4076TIP3   OH212233   2.524   4.566   2.226  0.3109  0.3216  0.9812
 4076TIP3    H112234   2.435   4.531   2.225  0.0706  0.9378  0.8352
 4076TIP3    H212235   2.578   4.491   2.251 -0.1399 -0.3123  0.1277
 4077TIP3   OH212236   2.995   5.849   1.121 -0.0046  0.0059  0.0567
 4077TIP3    H112237   2.937   5.854   1.197  0.4503 -1.4051  0.5408
 4077TIP3    H212238   2.993   5.936   1.083  0.0576  0.8804  1.9348
 4078TIP3   OH212239   5.576   0.819   0.958 -0.1808 -0.1321  0.7676
 4078TIP3    H112240   5.666   0.820   0.927 -0.6639 -1.2389 -0.7623
 4078TIP3    H212241   5.538   0.900   0.926 -0.2748 -0.6076 -0.3625
 4079TIP3   OH212242   1.933   0.676   2.511 -0.3996  0.7418  0.3862
 4079TIP3    H112243   1.949   0.728   2.590  0.1863 -1.4304  1.7685
 4079TIP3    H212244   1.938   0.585   2.540 -0.2611 -0.1464 -2.1544
 4080TIP3   OH212245   2.756   0.734   1.487 -0.0540  0.4555  0.0596
 4080TIP3    H112246   2.844   0.717   1.519 -0.0254  0.7843  0.1621
 4080TIP3    H212247   2.701   0.668   1.530 -0.1446  1.3774  1.4320
 4081TIP3   OH212248   3.971   0.132  -0.006  0.3119 -0.5129  0.2041
 4081TIP3    H112249   4.061   0.158   0.016  0.7918 -1.7294 -0.2524
 4081TIP3    H212250   3.917   0.203   0.028  1.4710  0.4143  0.1830
 4082TIP3   OH212251   4.579   4.512   4.938 -0.0283  0.7187 -0.3997
 4082TIP3    H112252   4.548   4.427   4.968 -2.8854  0.9472 -2.2999
 4082TIP3    H212253   4.654   4.492   4.881  1.5994 -0.1280  1.8847
 4083TIP3   OH212254   1.435   5.770   1.336 -0.1242 -0.0578  0.4534
 4083TIP3    H112255   1.487   5.831   1.389  2.6011 -2.7402  1.1666
 4083TIP3    H212256   1.496   5.738   1.270 -1.4758 -1.9000  0.0302
 4084TIP3   OH212257   4.999   2.886   2.709  0.0827  0.5909 -0.1646
 4084TIP3    H112258   5.052   2.830   2.766  1.0004  0.3377 -1.2369
 4084TIP3    H212259   4.911   2.850   2.715  0.3915 -0.1118  0.2424
 4085TIP3   OH212260   4.176   5.560   3.896  0.1379 -0.1088 -0.1299
 4085TIP3    H112261   4.098   5.593   3.941 -0.3365 -2.0122  0.5281
 4085TIP3    H212262   4.212   5.495   3.955  0.6589 -1.2285 -1.6339
 4086TIP3   OH212263   4.234   3.731   2.760 -1.2088  0.4189  0.0520
 4086TIP3    H112264   4.273   3.734   2.673 -2.5620 -0.2635 -0.6118
 4086TIP3    H212265   4.184   3.649   2.761 -0.8447  0.1781  1.6446
 4087TIP3   OH212266   3.508   5.303   0.235  0.0259 -0.4454 -0.6366
 4087TIP3    H112267   3.471   5.278   0.151  0.1676  0.0647 -0.8507
 4087TIP3    H212268   3.456   5.254   0.299 -0.1034 -0.8102 -1.0128
 4088TIP3   OH212269   4.435   0.447   1.906 -0.2704 -0.1013  0.1101
 4088TIP3    H112270   4.466   0.528   1.946  0.3386  0.6702 -1.8251
 4088TIP3    H212271   4.493   0.379   1.939 -1.1427  0.0999  2.2116
 4089TIP3   OH212272   3.721   3.939   2.846 -0.5147 -0.1534 -0.1574
 4089TIP3    H112273   3.728   4.025   2.886 -0.2735 -0.3633  0.2541
 4089TIP3    H212274   3.692   3.881   2.917  1.0154 -0.7469  0.0315
 4090TIP3   OH212275   5.679   0.328   0.636 -0.2273  0.5759 -0.5088
 4090TIP3    H112276   5.701   0.357   0.548  0.6728 -0.2381 -0.5645
 4090TIP3    H212277   5.649   0.238   0.626  1.0102  0.0580  0.1229
 4091TIP3   OH212278   3.794   2.004   4.993 -0.2070 -0.5814 -0.5190
 4091TIP3    H112279   3.813   2.084   5.042  0.6934 -0.8917 -0.3474
 4091TIP3    H212280   3.780   2.033   4.903 -0.8820 -0.1227 -0.2774
 4092TIP3   OH212281   2.026   2.260   3.664  0.1561 -0.3353 -0.0438
 4092TIP3    H112282   1.962   2.195   3.634 -0.7684  0.5206  0.0222
 4092TIP3    H212283   1.993   2.343   3.631 -0.1548  0.4582  2.1231
 4093TIP3   OH212284   2.907   5.459   4.421 -0.4805  0.4954 -0.5883
 4093TIP3    H112285   2.944   5.447   4.334 -2.7831 -0.2287 -1.5442
 4093TIP3    H212286   2.879   5.371   4.447  1.9690  0.2934  1.8368
 4094TIP3   OH212287   1.078   5.620   3.729  0.4733  0.5292 -0.3072
 4094TIP3    H112288   1.113   5.704   3.699  0.4328  0.3056 -0.9863
 4094TIP3    H212289   1.007   5.645   3.789  0.1982  0.9859 -0.8098
 4095TIP3   OH212290   6.285   3.360   0.395 -0.1016 -0.0715 -0.1966
 4095TIP3    H112291   6.256   3.438   0.443  1.1487  1.0133 -1.1204
 4095TIP3    H212292   6.219   3.348   0.327 -2.2597 -2.0306  2.1032
 4096TIP3   OH212293   5.278  -0.010   1.678  0.3688 -0.2795  0.3240
 4096TIP3    H112294   5.317  -0.039   1.760  0.4153 -0.1220  0.3568
 4096TIP3    H212295   5.327   0.068   1.654  1.4447 -1.2300 -0.6807
 4097TIP3   OH212296   1.686   3.220   1.542  0.5415 -0.3821  0.5158
 4097TIP3    H112297   1.777   3.232   1.515  0.7156  1.1837  1.6902
 4097TIP3    H212298   1.657   3.307   1.569 -0.9747 -1.0641  1.2017
 4098TIP3   OH212299   5.818   3.566   0.159  0.5808  0.3939 -0.1319
 4098TIP3    H112300   5.723   3.576   0.157  0.2791 -1.8116 -0.3339
 4098TIP3    H212301   5.844   3.593   0.247 -0.3226  0.4368  0.1279
 4099TIP3   OH212302   4.329   2.927   1.454 -0.0265  0.3423  0.7705
 4099TIP3    H112303   4.399   2.963   1.400  0.7715 -1.0142  0.8428
 4099TIP3    H212304   4.313   2.993   1.521  0.9317  0.8375  0.5236
 4100TIP3   OH212305   5.037   1.862   0.245 -0.5470 -0.1350  0.1663
 4100TIP3    H112306   5.106   1.815   0.291 -2.7031 -2.5385  1.2063
 4100TIP3    H212307   5.053   1.846   0.152  0.1984 -0.7818  0.4061
 4101TIP3   OH212308   5.319   3.633   1.191 -0.5055 -0.1012 -0.3362
 4101TIP3    H112309   5.237   3.680   1.176 -0.1949  0.6815  0.3888
 4101TIP3    H212310   5.388   3.695   1.170 -0.0866 -0.1071  0.9234
 4102TIP3   OH212311   3.453   3.725   0.563 -0.3963  0.4512 -0.1192
 4102TIP3    H112312   3.516   3.727   0.491  1.6979  0.2846  1.5981
 4102TIP3    H212313   3.370   3.699   0.522  0.1877  2.3751 -2.7639
 4103TIP3   OH212314   2.592   3.239   3.434  0.5673  0.0337  0.3876
 4103TIP3    H112315   2.651   3.308   3.464  2.1632 -1.1831  0.2340
 4103TIP3    H212316   2.625   3.160   3.478 -0.5669 -0.7990 -0.2249
 4104TIP3   OH212317   4.124   0.269   3.145  0.4407  0.1873 -0.3201
 4104TIP3    H112318   4.034   0.297   3.154  0.5163  0.0561  1.0394
 4104TIP3    H212319   4.118   0.179   3.114  0.1568  0.7640 -2.0130
 4105TIP3   OH212320   0.111   3.316   4.180  0.4582 -0.0561  0.1709
 4105TIP3    H112321   0.074   3.399   4.150 -0.9669 -1.2414 -1.6034
 4105TIP3    H212322   0.035   3.259   4.192  1.3740 -1.0301  1.7093
 4106TIP3   OH212323   5.598   0.986   1.930 -0.0541  0.4417 -0.0180
 4106TIP3    H112324   5.555   0.988   1.844 -0.8220  3.0362  0.3364
 4106TIP3    H212325   5.647   1.069   1.934  1.4499 -0.4569  1.3551
 4107TIP3   OH212326   3.315   2.929   0.640  0.2347 -0.2271  0.8584
 4107TIP3    H112327   3.228   2.897   0.663  0.1092  0.4800  1.4185
 4107TIP3    H212328   3.356   2.856   0.595 -0.8522 -0.3847  0.0775
 4108TIP3   OH212329   3.674   1.427   1.189  0.2354 -0.7757 -0.1102
 4108TIP3    H112330   3.593   1.440   1.140  0.2302 -0.9211 -0.1410
 4108TIP3    H212331   3.741   1.472   1.137  0.4220 -1.8331 -0.8229
 4109TIP3   OH212332   4.529   5.900   1.267 -0.5865  0.5695  0.3159
 4109TIP3    H112333   4.472   5.881   1.341  0.5850 -1.0977  0.8535
 4109TIP3    H212334   4.590   5.966   1.302  0.0105 -0.2654  0.8987
 4110TIP3   OH212335   0.740   2.921   4.120  0.4023 -0.0627  0.1791
 4110TIP3    H112336   0.769   2.885   4.036 -0.0081  2.4707 -1.1836
 4110TIP3    H212337   0.645   2.917   4.116  0.3594 -2.1745  1.6831
 4111TIP3   OH212338   4.574   2.551   0.368  0.5761  0.0725  0.3698
 4111TIP3    H112339   4.617   2.496   0.303 -1.4350 -0.4504 -0.6244
 4111TIP3    H212340   4.575   2.639   0.330  0.1659 -0.0760 -0.0053
 4112TIP3   OH212341   0.286   4.251   4.584 -0.5610  0.4489 -0.1729
 4112TIP3    H112342   0.303   4.305   4.506  0.0148  1.1765  0.4383
 4112TIP3    H212343   0.342   4.174   4.572  1.9354  1.9545  0.9152
 4113TIP3   OH212344   2.923   4.724   4.075 -0.1321  0.0859  0.4838
 4113TIP3    H112345   2.913   4.652   4.013  1.7284  0.5181 -0.3946
 4113TIP3    H212346   2.944   4.682   4.158  0.9134 -0.4030 -0.0181
 4114TIP3   OH212347   1.621   3.382   3.727  0.2168  0.1680 -0.7269
 4114TIP3    H112348   1.616   3.477   3.736  1.0185  0.3320 -1.8307
 4114TIP3    H212349   1.566   3.362   3.651  1.9118  0.0417 -1.9727
 4115TIP3   OH212350   0.439   3.987   4.665 -0.1293 -0.3378 -0.2147
 4115TIP3    H112351   0.503   3.937   4.716  0.4190  1.3270  0.7758
 4115TIP3    H212352   0.485   4.008   4.583  0.2390  0.0291  0.0873
 4116TIP3   OH212353   3.927   5.826   2.158 -0.1421  0.2338  0.2395
 4116TIP3    H112354   3.992   5.884   2.196  0.2435  0.6675 -1.0257
 4116TIP3    H212355   3.977   5.763   2.108 -0.6697  1.2864 -1.7429
 4117TIP3   OH212356   1.898   5.122   3.751 -0.0774 -0.1841  0.2478
 4117TIP3    H112357   1.883   5.155   3.663 -0.0021 -2.8811 -0.8577
 4117TIP3    H212358   1.949   5.191   3.794  1.1132  0.5931 -2.2438
 4118TIP3   OH212359   2.224   5.239   4.968  0.1760  0.0344 -0.0668
 4118TIP3    H112360   2.270   5.298   4.908 -0.3096  0.1560 -0.3297
 4118TIP3    H212361   2.293   5.200   5.021  0.5598  0.3838 -0.2986
 4119TIP3   OH212362   3.731   4.842   4.198 -0.4223 -0.0002  0.4880
 4119TIP3    H112363   3.751   4.793   4.118 -1.6972 -0.0674  0.1781
 4119TIP3    H212364   3.652   4.799   4.233 -0.7987  1.0146  0.9251
 4120TIP3   OH212365   5.858   2.340   1.708 -0.3351 -0.7276  0.2893
 4120TIP3    H112366   5.775   2.343   1.755 -1.1952 -1.8887 -1.0635
 4120TIP3    H212367   5.875   2.246   1.696  0.9029 -0.4935  0.0796
 4121TIP3   OH212368   4.268   2.643   0.813 -0.4781 -0.1246 -0.6345
 4121TIP3    H112369   4.295   2.609   0.898 -0.7710  0.3002 -0.3618
 4121TIP3    H212370   4.349   2.656   0.764 -0.3807 -1.3935 -0.8211
 4122TIP3   OH212371   1.156   2.398   1.085  0.3348  0.1105  0.3421
 4122TIP3    H112372   1.233   2.342   1.082  0.6386  0.4039  1.8606
 4122TIP3    H212373   1.191   2.487   1.088 -0.0414  0.2381  1.2488
 4123TIP3   OH212374   2.444   1.621   0.311 -0.0376  0.4145 -0.5166
 4123TIP3    H112375   2.364   1.577   0.281 -0.6172  1.3494 -0.3563
 4123TIP3    H212376   2.414   1.683   0.377  0.2567  3.4534 -3.0117
 4124TIP3   OH212377   2.630   5.050   2.136  0.2114 -0.3421 -0.5019
 4124TIP3    H112378   2.638   5.103   2.057  1.0357  0.9307  0.3896
 4124TIP3    H212379   2.566   4.982   2.114 -2.7027  2.3562 -0.9945
 4125TIP3   OH212380   5.716   3.953   3.678  0.0905 -0.1545  0.3613
 4125TIP3    H112381   5.805   3.918   3.680  0.1350 -0.0743 -0.0539
 4125TIP3    H212382   5.664   3.890   3.729  0.6114  0.4780  1.6866
 4126TIP3   OH212383   1.289   4.800   4.182 -0.2074  0.0614  0.5451
 4126TIP3    H112384   1.207   4.764   4.147 -0.7279  1.7913 -0.1345
 4126TIP3    H212385   1.276   4.801   4.276 -0.9503  0.2620  0.4454
 4127TIP3   OH212386   5.464   1.750   2.143  0.3626 -0.2817  0.2912
 4127TIP3    H112387   5.493   1.808   2.213 -0.1067 -0.3888  0.5724
 4127TIP3    H212388   5.370   1.743   2.154  0.0929  0.7178 -1.1112
 4128TIP3   OH212389   1.839   2.194   3.995 -0.1805  0.3696  0.0883
 4128TIP3    H112390   1.921   2.163   3.957 -0.1742 -0.3865  0.7071
 4128TIP3    H212391   1.806   2.259   3.932  0.6688  0.3627 -0.3715
 4129TIP3   OH212392   2.128   5.531   4.239 -0.1502 -0.4331 -0.2912
 4129TIP3    H112393   2.102   5.623   4.237  0.1440 -0.3413  0.0401
 4129TIP3    H212394   2.110   5.503   4.328  2.7226  0.1974  0.6277
 4130TIP3   OH212395   5.752   0.820   4.441  0.0552  0.3457 -0.4452
 4130TIP3    H112396   5.799   0.822   4.524 -0.5900  2.2447 -0.0677
 4130TIP3    H212397   5.695   0.743   4.447  1.2289 -0.5032  0.1431
 4131TIP3   OH212398   0.685   1.301   2.830 -0.6902 -0.3633 -0.1595
 4131TIP3    H112399   0.710   1.224   2.779  0.7740  0.3330 -0.5448
 4131TIP3    H212400   0.745   1.370   2.800 -0.6740  0.4112  1.5558
 4132TIP3   OH212401   4.596   5.888   0.235 -0.1691  0.5943  0.1903
 4132TIP3    H112402   4.562   5.967   0.192 -0.8402  0.9734  1.3747
 4132TIP3    H212403   4.538   5.874   0.309  0.8644 -0.1349  0.8903
 4133TIP3   OH212404   3.854   5.538   4.581 -0.6872  0.3754  0.3405
 4133TIP3    H112405   3.798   5.491   4.643 -2.1738 -1.2967 -2.0870
 4133TIP3    H212406   3.916   5.472   4.551 -0.2775  1.0289 -0.2767
 4134TIP3   OH212407   0.826   4.866   0.232  0.1825  0.1077  0.0353
 4134TIP3    H112408   0.782   4.946   0.261  1.1881  0.5018  0.5409
 4134TIP3    H212409   0.916   4.893   0.214  0.4935 -0.8709  0.0326
 4135TIP3   OH212410   0.807   5.905   1.503  0.0185  0.5242 -0.1772
 4135TIP3    H112411   0.847   5.837   1.448  1.0771  1.4110 -0.5483
 4135TIP3    H212412   0.729   5.864   1.539  0.8256 -1.0214 -0.0876
 4136TIP3   OH212413   1.919   1.022   4.016 -0.0852 -1.2227  0.3481
 4136TIP3    H112414   1.843   0.980   3.975  0.1547 -1.3295  0.0083
 4136TIP3    H212415   1.991   1.005   3.956 -0.4351  1.7887 -1.0840
 4137TIP3   OH212416   4.402   1.807   2.779 -0.0816 -0.0178 -1.2891
 4137TIP3    H112417   4.454   1.872   2.731  1.6279  0.1796  0.6765
 4137TIP3    H212418   4.311   1.836   2.768  0.3964  1.0964 -2.7348
 4138TIP3   OH212419   5.746   0.576   0.130 -0.4267 -0.3568  0.3178
 4138TIP3    H112420   5.815   0.643   0.127 -0.8704  0.0824 -1.6620
 4138TIP3    H212421   5.681   0.610   0.190  0.5695 -0.2807  1.3900
 4139TIP3   OH212422   5.052   0.140   1.084  0.0002  0.0980 -0.1802
 4139TIP3    H112423   5.090   0.149   1.171  1.9030  1.1077 -1.0456
 4139TIP3    H212424   5.047   0.229   1.050 -3.6611  0.1042 -0.0324
 4140TIP3   OH212425   0.896   2.483   1.193  0.0406 -0.2781 -0.7575
 4140TIP3    H112426   0.965   2.428   1.156  0.7310  0.6978 -0.9456
 4140TIP3    H212427   0.909   2.569   1.153  0.9531  0.8993  1.8501
 4141TIP3   OH212428   2.449   2.751   2.761 -0.2536  0.0257 -0.3565
 4141TIP3    H112429   2.368   2.714   2.725  0.3945  0.5970 -2.5690
 4141TIP3    H212430   2.507   2.675   2.770 -0.5512 -0.1794 -0.1048
 4142TIP3   OH212431   4.835   1.920   5.067  0.2255 -0.0937  0.2684
 4142TIP3    H112432   4.810   1.871   4.988  0.1234  2.5646 -1.4772
 4142TIP3    H212433   4.887   1.994   5.034 -0.1582  1.3470  2.6611
 4143TIP3   OH212434   0.855   2.618   2.118  0.7030  0.4077 -0.3444
 4143TIP3    H112435   0.939   2.634   2.074  1.6328  0.7830  1.4371
 4143TIP3    H212436   0.840   2.696   2.171 -1.1962  0.6669 -1.2038
 4144TIP3   OH212437   0.466   3.106   1.606  0.0831  0.5218 -0.3405
 4144TIP3    H112438   0.525   3.182   1.611  0.8467 -0.1222  1.6144
 4144TIP3    H212439   0.522   3.031   1.625 -1.4177 -0.0384  2.4704
 4145TIP3   OH212440   3.242   3.888   4.799 -0.0305  0.9444 -0.6664
 4145TIP3    H112441   3.218   3.795   4.793  2.1182  0.4240 -2.5565
 4145TIP3    H212442   3.220   3.912   4.889 -0.1042 -1.5500  0.0707
 4146TIP3   OH212443   2.109  -0.019   3.206 -0.5523 -0.0062 -0.0471
 4146TIP3    H112444   2.156   0.045   3.261  0.8326 -1.1560  0.1794
 4146TIP3    H212445   2.045   0.033   3.158  0.1352  1.4649  0.5613
 4147TIP3   OH212446   1.928   4.804   1.660 -0.4526  0.5165 -0.9356
 4147TIP3    H112447   2.014   4.834   1.631  0.0781  0.1137  0.1433
 4147TIP3    H212448   1.877   4.794   1.580  0.9961 -0.7400 -1.7635
 4148TIP3   OH212449   3.719   2.641   3.009 -1.0585 -0.3768  0.2510
 4148TIP3    H112450   3.757   2.682   3.086 -0.4822 -0.2901 -0.0779
 4148TIP3    H212451   3.633   2.611   3.038 -1.9481  1.9548  0.2370
 4149TIP3   OH212452   5.232   3.260   2.631 -0.2696 -0.3162  0.4471
 4149TIP3    H112453   5.245   3.317   2.555  3.2509 -2.1485 -0.5223
 4149TIP3    H212454   5.272   3.177   2.606 -1.0322 -1.7439  3.5152
 4150TIP3   OH212455   1.606   0.250   2.433 -0.1872 -0.3193  0.6809
 4150TIP3    H112456   1.693   0.265   2.396 -1.3699  2.6998 -1.2422
 4150TIP3    H212457   1.546   0.275   2.364 -2.5933 -0.6106  2.5482
 4151TIP3   OH212458   1.841   1.225   3.660 -0.7168  0.2848 -0.0003
 4151TIP3    H112459   1.765   1.172   3.635  0.0066 -1.5346  1.3618
 4151TIP3    H212460   1.867   1.190   3.746  1.4896  1.0228 -0.2981
 4152TIP3   OH212461   5.450   1.486   4.741 -0.2978 -0.0939  0.2680
 4152TIP3    H112462   5.522   1.549   4.735 -0.3458 -0.0903 -0.3365
 4152TIP3    H212463   5.401   1.514   4.818 -0.5163  0.8225 -0.1861
 4153TIP3   OH212464   2.625   2.297   3.346  0.4370  0.6484 -0.2629
 4153TIP3    H112465   2.569   2.371   3.322  1.3894  1.3008 -0.5530
 4153TIP3    H212466   2.711   2.321   3.313  0.9678 -0.1720  0.4820
 4154TIP3   OH212467   3.067   1.592   0.688 -0.3663 -0.1257 -0.5869
 4154TIP3    H112468   3.098   1.635   0.768 -2.4086  0.4278 -0.0510
 4154TIP3    H212469   3.147   1.561   0.646  0.9061  1.2010  0.7255
 4155TIP3   OH212470   4.608   2.714   4.779 -0.0986 -0.0198  0.1261
 4155TIP3    H112471   4.657   2.684   4.855  1.2059  0.5717 -0.4455
 4155TIP3    H212472   4.674   2.728   4.711 -0.8956  1.8982 -0.3513
 4156TIP3   OH212473   4.896   0.096   2.417 -0.1360 -0.0656 -0.7116
 4156TIP3    H112474   4.814   0.122   2.461  0.5600  0.3669  0.3826
 4156TIP3    H212475   4.906   0.003   2.439  0.4058  0.2424  0.4067
 4157TIP3   OH212476   4.092   2.372   4.035  0.1746  0.4120  0.1194
 4157TIP3    H112477   4.103   2.456   4.080  1.4786 -0.1008  0.8155
 4157TIP3    H212478   4.053   2.315   4.101  1.5234 -0.1723  0.4524
 4158TIP3   OH212479   4.840   1.671   0.361 -0.3461 -0.3997  0.4226
 4158TIP3    H112480   4.885   1.740   0.313 -0.3515  0.2692  1.3548
 4158TIP3    H212481   4.850   1.593   0.307 -0.0493  0.2551 -0.4820
 4159TIP3   OH212482   1.463   5.259   0.904 -0.2151  0.6393 -0.1437
 4159TIP3    H112483   1.492   5.298   0.822 -1.6505  2.3690  0.1308
 4159TIP3    H212484   1.472   5.329   0.969 -0.1034 -0.3756  0.9806
 4160TIP3   OH212485   5.846   2.931   4.243  0.3678  0.3147 -0.0194
 4160TIP3    H112486   5.903   2.870   4.290  0.2071 -0.1171 -0.3817
 4160TIP3    H212487   5.889   2.944   4.158 -1.2900 -1.9813 -1.3255
 4161TIP3   OH212488   5.970   1.679   4.169 -0.1613  0.1878 -0.2966
 4161TIP3    H112489   6.064   1.667   4.185 -0.1301  0.6144 -0.1487
 4161TIP3    H212490   5.927   1.632   4.240 -0.1010 -1.3448 -1.2211
 4162TIP3   OH212491   4.750   1.634   0.973 -0.1352 -0.1734 -0.1580
 4162TIP3    H112492   4.686   1.617   1.041  1.3039  0.6609  1.4837
 4162TIP3    H212493   4.740   1.727   0.954 -0.3504 -0.3460 -0.9177
 4163TIP3   OH212494   1.679   1.869   0.729  0.7771 -0.1337  0.4081
 4163TIP3    H112495   1.733   1.814   0.671  1.6610  1.6425 -0.5290
 4163TIP3    H212496   1.648   1.940   0.673 -0.8627  0.0338  1.4399
 4164TIP3   OH212497   5.111   3.345   5.072  0.3084  0.3392 -0.4456
 4164TIP3    H112498   5.166   3.269   5.056 -1.4189 -1.6059  2.2113
 4164TIP3    H212499   5.084   3.338   5.163 -1.2017  3.3241 -0.5245
 4165TIP3   OH212500   1.276   5.927   3.227  0.0219  0.5895  0.0928
 4165TIP3    H112501   1.346   5.896   3.285 -0.4282  1.9414  1.4125
 4165TIP3    H212502   1.321   5.969   3.154  0.5897 -0.0163  0.0891
 4166TIP3   OH212503   0.412   4.973   2.385 -0.4628  0.0775  0.1790
 4166TIP3    H112504   0.338   4.965   2.325  1.4337  1.5381 -2.5766
 4166TIP3    H212505   0.393   5.051   2.436 -0.8619  0.4311 -0.4940
 4167TIP3   OH212506   1.441   5.361   2.495  0.2588 -0.2660  0.9565
 4167TIP3    H112507   1.490   5.282   2.475  0.6289  0.0344  0.6629
 4167TIP3    H212508   1.497   5.432   2.465 -0.1462  0.1012  1.0618
 4168TIP3   OH212509   1.904   1.900   3.266 -0.4489  0.0876 -0.2294
 4168TIP3    H112510   1.859   1.852   3.197  0.1219 -0.1280 -0.4625
 4168TIP3    H212511   1.968   1.837   3.301  1.6422  1.1906 -1.8080
 4169TIP3   OH212512   5.523   4.436   2.530 -0.4465  0.2871  0.0769
 4169TIP3    H112513   5.434   4.412   2.502 -0.5585  0.4348  0.3026
 4169TIP3    H212514   5.530   4.529   2.509 -0.3663  0.2892  0.1159
 4170TIP3   OH212515   0.656   2.719   2.795  0.0075 -0.3473 -0.3359
 4170TIP3    H112516   0.633   2.755   2.881 -0.0966 -1.2801  0.0322
 4170TIP3    H212517   0.675   2.627   2.812  2.3229 -0.0224 -0.9291
 4171TIP3   OH212518   4.345   5.732   0.424  0.5106  0.3263  0.0484
 4171TIP3    H112519   4.269   5.676   0.407 -0.5897  1.3105  1.4320
 4171TIP3    H212520   4.339   5.801   0.357  0.1723  0.4033  0.1559
 4172TIP3   OH212521   4.707   0.509   0.305 -0.0184  0.0867  0.0374
 4172TIP3    H112522   4.742   0.545   0.224 -3.1811  2.4264 -0.4937
 4172TIP3    H212523   4.658   0.431   0.278  0.9328 -0.5331  0.0876
 4173TIP3   OH212524   3.714   2.814   1.274 -0.3163 -0.1617  0.6883
 4173TIP3    H112525   3.729   2.815   1.369  1.8046 -2.8492  0.5009
 4173TIP3    H212526   3.674   2.728   1.257 -0.2218  0.0734 -0.8988
 4174TIP3   OH212527   3.630   2.376   3.860 -0.0081  0.4636 -0.4790
 4174TIP3    H112528   3.627   2.384   3.955  1.0000  0.7860 -0.4554
 4174TIP3    H212529   3.718   2.407   3.837  0.2425 -0.8670 -1.3939
 4175TIP3   OH212530   2.590   2.901   0.663  0.7652 -0.1077  0.3356
 4175TIP3    H112531   2.516   2.850   0.697 -0.1743  1.4048  0.6951
 4175TIP3    H212532   2.586   2.889   0.568  0.9271 -1.1652  0.4590
 4176TIP3   OH212533   4.291   1.105   2.421 -0.4724  0.1171  0.2528
 4176TIP3    H112534   4.286   1.057   2.338  0.1588  0.4379  0.0256
 4176TIP3    H212535   4.368   1.161   2.412 -1.0769  1.0265  0.5877
 4177TIP3   OH212536   1.832   3.201   3.724  0.0178 -0.0654  0.0716
 4177TIP3    H112537   1.766   3.254   3.679 -1.0987 -1.9222 -0.6086
 4177TIP3    H212538   1.782   3.130   3.765  1.2240  0.4900  2.7211
 4178TIP3   OH212539   2.939   1.605   4.951 -0.6032 -0.3547 -0.4223
 4178TIP3    H112540   2.866   1.632   4.895 -0.2895 -0.0849 -0.7050
 4178TIP3    H212541   2.908   1.621   5.040 -1.5440 -1.8514 -0.4521
 4179TIP3   OH212542   4.278   5.086   1.761  0.1462 -0.1811  0.0908
 4179TIP3    H112543   4.226   5.096   1.681 -0.4853 -0.3038  0.4786
 4179TIP3    H212544   4.333   5.165   1.764 -2.4715  1.7503  1.4238
 4180TIP3   OH212545   1.977   4.148   4.167 -0.5078 -0.4024  1.2066
 4180TIP3    H112546   2.035   4.211   4.124 -1.3295  0.1224  0.8457
 4180TIP3    H212547   2.006   4.063   4.135  1.0956 -0.2968  2.2640
 4181TIP3   OH212548   6.220   4.312   2.276  0.5976  0.3980  0.2341
 4181TIP3    H112549   6.261   4.261   2.207  2.2950 -0.9115  2.1141
 4181TIP3    H212550   6.174   4.383   2.230  1.5949 -0.4526 -2.1901
 4182TIP3   OH212551   5.818   5.865   4.808  0.6533  0.2039  0.0519
 4182TIP3    H112552   5.865   5.857   4.725  1.5880  1.3573  0.4442
 4182TIP3    H212553   5.729   5.836   4.788  1.0324 -0.1655 -1.1851
 4183TIP3   OH212554   5.894   4.927   4.354  0.1945  0.1366 -0.4710
 4183TIP3    H112555   5.982   4.933   4.318  0.5467 -2.0269 -0.0767
 4183TIP3    H212556   5.842   4.986   4.299  1.7238  0.8734 -1.1811
 4184TIP3   OH212557   3.540   5.516   0.722  0.2301  0.4330  0.0252
 4184TIP3    H112558   3.572   5.548   0.638  0.0273 -0.1074 -0.2644
 4184TIP3    H212559   3.516   5.424   0.706 -1.3424  0.7697  0.2475
 4185TIP3   OH212560   4.151   0.469   3.593  0.1800 -0.0079  0.0174
 4185TIP3    H112561   4.154   0.473   3.497 -0.1292  0.9290  0.0421
 4185TIP3    H212562   4.058   0.478   3.614  0.3681  1.0720  0.4494
 4186TIP3   OH212563   4.918   4.626   1.384 -0.2411  0.3586 -0.4056
 4186TIP3    H112564   4.968   4.551   1.415  2.1645  1.0572 -2.2765
 4186TIP3    H212565   4.953   4.701   1.432 -0.0536  0.7417 -1.1163
 4187TIP3   OH212566   0.521   5.095   4.742 -0.3604 -0.5338  0.2875
 4187TIP3    H112567   0.554   5.011   4.711  0.8251  0.2419 -0.6370
 4187TIP3    H212568   0.427   5.081   4.753 -0.1723 -1.9942  0.2351
 4188TIP3   OH212569   4.288   4.308   2.824  0.0224  0.3236 -0.6717
 4188TIP3    H112570   4.344   4.277   2.895 -0.4393  0.5858 -0.1838
 4188TIP3    H212571   4.251   4.390   2.857  0.3231  0.7988 -1.4862
 4189TIP3   OH212572   2.353   4.959   2.173 -0.1431  0.1309  0.5762
 4189TIP3    H112573   2.261   4.955   2.197  0.3024 -2.6781  2.2364
 4189TIP3    H212574   2.401   4.937   2.253  1.9858  0.8443 -0.3999
 4190TIP3   OH212575   2.437   1.107   3.724 -0.2916  0.2849 -0.3084
 4190TIP3    H112576   2.365   1.170   3.723  0.9588  1.7838  0.2420
 4190TIP3    H212577   2.466   1.105   3.816 -0.0118 -0.7640 -0.4044
 4191TIP3   OH212578   0.057   2.470   1.087 -0.0353 -0.0932 -0.5729
 4191TIP3    H112579   0.151   2.460   1.069  0.4057 -2.1735  2.2010
 4191TIP3    H212580   0.048   2.560   1.117  1.1785 -0.0402 -0.2990
 4192TIP3   OH212581   3.505   5.000   4.071  0.1038  0.2669 -0.4317
 4192TIP3    H112582   3.592   4.978   4.105 -0.5076  0.8863  1.7595
 4192TIP3    H212583   3.455   5.025   4.149 -2.6507 -1.9642 -1.2976
 4193TIP3   OH212584   1.415   5.408   1.129 -0.7056  0.6655 -0.4878
 4193TIP3    H112585   1.368   5.350   1.188 -0.2057  0.0966 -0.6391
 4193TIP3    H212586   1.454   5.475   1.185 -0.7142  0.4599 -0.2389
 4194TIP3   OH212587   2.538   3.704   0.928  0.0048  0.0704  0.1727
 4194TIP3    H112588   2.534   3.734   1.019  1.1356  0.6931  0.0370
 4194TIP3    H212589   2.596   3.628   0.930  1.7602  1.3342 -0.3025
 4195TIP3   OH212590   2.572   4.527   1.122 -0.4148 -0.1174 -0.2899
 4195TIP3    H112591   2.562   4.560   1.211 -0.2182  1.5211 -0.8414
 4195TIP3    H212592   2.567   4.432   1.131 -3.4443  0.0761  1.0721
 4196TIP3   OH212593   3.235   1.499   1.224 -0.1392 -0.7212 -0.0807
 4196TIP3    H112594   3.320   1.506   1.182  1.0269 -1.5572  1.9856
 4196TIP3    H212595   3.175   1.548   1.167  1.9048  0.7630 -1.0523
 4197TIP3   OH212596   3.661   3.786   4.620 -0.1486  0.1829  0.0435
 4197TIP3    H112597   3.714   3.799   4.698  2.5331  0.9720 -1.7622
 4197TIP3    H212598   3.724   3.759   4.553 -2.2875 -0.2131 -1.9174
 4198TIP3   OH212599   4.033   5.447   0.691 -0.0715 -0.2883 -0.0548
 4198TIP3    H112600   4.003   5.505   0.761 -0.1966 -0.9571  0.4575
 4198TIP3    H212601   3.962   5.384   0.681 -0.6779  0.6222 -1.7666
 4199TIP3   OH212602   0.245   1.531   4.801  0.3542 -0.6572  0.3190
 4199TIP3    H112603   0.202   1.616   4.804  0.9190 -0.3913  1.9692
 4199TIP3    H212604   0.175   1.469   4.778 -0.0735  0.2140 -0.8149
 4200TIP3   OH212605   2.319   0.550   1.980  0.0922 -0.1225 -0.3188
 4200TIP3    H112606   2.405   0.515   1.957 -0.8922 -1.3617 -2.4392
 4200TIP3    H212607   2.281   0.483   2.037  0.4680  0.3752  0.5314
 4201TIP3   OH212608   0.439   0.921   1.472  0.0190  0.7268  0.2816
 4201TIP3    H112609   0.406   0.843   1.427 -0.0382  0.3532  0.9493
 4201TIP3    H212610   0.477   0.887   1.553 -0.2620  1.4251  0.7143
 4202TIP3   OH212611   2.547   1.652   2.585  0.1217 -0.2913  0.3689
 4202TIP3    H112612   2.607   1.654   2.659 -1.0570  1.0653  1.3374
 4202TIP3    H212613   2.517   1.561   2.581 -1.3717  0.0119  2.9185
 4203TIP3   OH212614   4.807   5.770   4.948  0.4434 -0.0029  0.0030
 4203TIP3    H112615   4.874   5.824   4.990  0.2391 -1.0201  1.7070
 4203TIP3    H212616   4.831   5.680   4.972  0.0780 -0.6164 -1.7558
 4204TIP3   OH212617   5.822   4.988   2.714 -0.2579 -0.3408  0.0791
 4204TIP3    H112618   5.819   5.003   2.620  0.5682  2.9452  0.4505
 4204TIP3    H212619   5.910   5.014   2.740 -0.7186 -0.4053  1.8593
 4205TIP3   OH212620   0.918   2.594   4.312  0.0928 -0.1470  0.2851
 4205TIP3    H112621   0.909   2.682   4.348  0.3596 -0.8747  2.2511
 4205TIP3    H212622   0.904   2.605   4.217 -0.1124  1.9429  0.5143
 4206TIP3   OH212623   0.391   2.420   1.889  0.4869  0.7061 -0.0855
 4206TIP3    H112624   0.437   2.483   1.945  1.3483 -0.9658  1.1848
 4206TIP3    H212625   0.336   2.370   1.949  0.1423 -0.0307 -0.9890
 4207TIP3   OH212626   0.692   0.846   3.563 -0.1552  0.0891 -0.0971
 4207TIP3    H112627   0.693   0.830   3.657  2.3278 -1.4306 -0.2916
 4207TIP3    H212628   0.683   0.758   3.525  0.4254  0.5283 -1.2777
 4208TIP3   OH212629   0.419   1.338   4.302 -0.1306 -0.1317 -0.5248
 4208TIP3    H112630   0.377   1.417   4.333 -1.1444 -0.6127 -0.6413
 4208TIP3    H212631   0.398   1.334   4.209  1.4546  0.4036 -0.9450
 4209TIP3   OH212632   3.705   0.498   2.524  0.4956  0.1629 -0.1762
 4209TIP3    H112633   3.789   0.523   2.487  0.3619  0.8217 -0.0392
 4209TIP3    H212634   3.660   0.580   2.542 -0.4877 -0.1824 -0.9427
 4210TIP3   OH212635   3.180   1.864   5.053  0.1287 -0.3117  0.3921
 4210TIP3    H112636   3.096   1.876   5.008 -0.5036 -0.3516  1.5220
 4210TIP3    H212637   3.233   1.939   5.026 -0.8328  0.5665  0.8739
 4211TIP3   OH212638   3.890   5.785   4.362 -0.4687 -0.6641  0.2881
 4211TIP3    H112639   3.982   5.759   4.362 -0.6344 -1.3563 -1.1043
 4211TIP3    H212640   3.885   5.856   4.298 -1.0367 -1.1559 -0.2187
 4212TIP3   OH212641   5.667   2.334   5.085 -0.5635  0.5109 -0.1401
 4212TIP3    H112642   5.676   2.244   5.053 -0.6844  0.2543  0.5404
 4212TIP3    H212643   5.646   2.385   5.007 -2.0352 -0.2941 -0.3127
 4213TIP3   OH212644   0.179   0.443   2.868  0.6225  0.0698 -0.2965
 4213TIP3    H112645   0.236   0.438   2.791 -0.4957 -0.4110 -1.1293
 4213TIP3    H212646   0.151   0.352   2.882  1.3311  0.0460  1.0994
 4214TIP3   OH212647   4.786   4.923   4.523 -0.1803  0.3093  0.5083
 4214TIP3    H112648   4.788   5.013   4.554 -0.0062  0.9166 -1.1607
 4214TIP3    H212649   4.697   4.893   4.540  0.2414  0.1423  2.7259
 4215TIP3   OH212650   2.505   0.361   4.381  0.4828 -0.0640  0.3340
 4215TIP3    H112651   2.477   0.343   4.471  1.5629 -1.4061  0.4357
 4215TIP3    H212652   2.574   0.298   4.364  0.5187  0.3683 -1.3523
 4216TIP3   OH212653   5.825   5.861   1.346 -0.5690 -0.5090  0.0945
 4216TIP3    H112654   5.864   5.780   1.314 -0.0666  0.1691 -1.0770
 4216TIP3    H212655   5.838   5.923   1.275 -2.6337  0.1013  0.1919
 4217TIP3   OH212656   3.570   1.346   0.440 -0.0522  0.0781 -0.0449
 4217TIP3    H112657   3.542   1.384   0.357  0.4588 -0.0413 -0.2750
 4217TIP3    H212658   3.645   1.399   0.467 -0.3914  0.2989  0.4898
 4218TIP3   OH212659   5.356   1.833   3.050 -0.4314 -0.0195  0.3589
 4218TIP3    H112660   5.403   1.883   3.117 -0.1023  0.7192 -0.3958
 4218TIP3    H212661   5.419   1.826   2.977 -1.6132  1.4411 -0.8814
 4219TIP3   OH212662   5.268   5.327   2.276  0.0674 -0.2872 -0.4671
 4219TIP3    H112663   5.334   5.261   2.255  0.0517  0.0822 -1.8335
 4219TIP3    H212664   5.189   5.298   2.230  0.1375  0.7925 -1.3384
 4220TIP3   OH212665   2.872   5.724   4.281 -0.2596  0.4499 -0.1457
 4220TIP3    H112666   2.847   5.632   4.279  2.4909 -0.4075 -3.4936
 4220TIP3    H212667   2.941   5.729   4.348 -2.0058  0.7229  1.7556
 4221TIP3   OH212668   1.979   3.012   3.936 -0.0761  0.1364  0.0160
 4221TIP3    H112669   1.986   2.965   3.853 -3.7316  1.4758 -1.2646
 4221TIP3    H212670   2.019   3.097   3.918  2.3975 -0.7595  0.8898
 4222TIP3   OH212671   2.478   1.937   1.482 -0.2879  0.0578  0.3062
 4222TIP3    H112672   2.472   1.902   1.393 -0.7376  1.1372 -0.0999
 4222TIP3    H212673   2.448   2.027   1.475 -0.1772  0.2112  1.5306
 4223TIP3   OH212674   6.156   4.559   1.907 -0.1714 -0.0586  0.0200
 4223TIP3    H112675   6.205   4.514   1.838 -0.7245  0.1261 -0.5035
 4223TIP3    H212676   6.216   4.626   1.939 -0.1127  0.2295 -0.6780
 4224TIP3   OH212677   4.075   1.914   3.726 -0.2655  0.0806  0.2261
 4224TIP3    H112678   3.995   1.900   3.675 -0.5760 -0.6521  0.8827
 4224TIP3    H212679   4.053   1.987   3.784 -0.4586 -0.1042  0.3892
 4225TIP3   OH212680   0.764   3.932   1.373  0.3361 -0.0140  0.2319
 4225TIP3    H112681   0.858   3.952   1.364  0.2440  0.5591  0.5376
 4225TIP3    H212682   0.756   3.844   1.336  0.7205  0.5493 -1.2695
 4226TIP3   OH212683   3.039   4.609   4.309 -0.1773 -0.0453 -0.1893
 4226TIP3    H112684   3.014   4.610   4.401  0.6236  0.8299  0.0415
 4226TIP3    H212685   3.113   4.670   4.304  0.6513 -1.1005 -1.1717
 4227TIP3   OH212686   0.172   0.545   0.250 -0.0619  0.8710  0.4790
 4227TIP3    H112687   0.236   0.574   0.186 -0.4950  0.1548 -0.2938
 4227TIP3    H212688   0.223   0.497   0.316  0.0786 -0.9583 -0.8770
 4228TIP3   OH212689   1.470   3.230   2.899  0.3583  0.1808  0.4822
 4228TIP3    H112690   1.381   3.220   2.935 -0.7701 -0.6985 -2.2616
 4228TIP3    H212691   1.528   3.198   2.968 -1.5346 -0.2910  1.9391
 4229TIP3   OH212692   3.753   1.828   2.751  0.3026 -0.0075  0.2078
 4229TIP3    H112693   3.735   1.757   2.689 -0.7282  1.0728 -0.7967
 4229TIP3    H212694   3.826   1.797   2.803 -0.1439 -1.8142 -0.1811
 4230TIP3   OH212695   0.693   1.593   4.730  0.4531  0.5731  0.7411
 4230TIP3    H112696   0.764   1.542   4.770  1.2319  1.6638  0.8149
 4230TIP3    H212697   0.709   1.586   4.636 -1.2943 -1.8727  0.5312
 4231TIP3   OH212698   2.785   2.493   4.917  0.4978  0.2269  1.1107
 4231TIP3    H112699   2.742   2.424   4.967  2.8253 -0.5922  2.1598
 4231TIP3    H212700   2.726   2.568   4.924 -1.2723 -1.1314  1.4356
 4232TIP3   OH212701   0.540   0.990   4.957  0.0653 -0.2016 -0.2765
 4232TIP3    H112702   0.476   1.038   5.010 -0.5331 -0.2744 -0.9089
 4232TIP3    H212703   0.583   0.931   5.018 -0.5759 -0.2487  0.1436
 4233TIP3   OH212704   4.601   5.164   2.594  0.5074 -0.6828 -0.6321
 4233TIP3    H112705   4.673   5.131   2.541 -0.6518 -0.3300 -2.5100
 4233TIP3    H212706   4.596   5.257   2.574  1.0581 -0.1740  1.3788
 4234TIP3   OH212707   0.653   4.409   1.920  0.2332 -0.1052 -0.8334
 4234TIP3    H112708   0.655   4.472   1.992  0.0852 -1.7801  0.7009
 4234TIP3    H212709   0.744   4.382   1.909  0.3536  0.5849 -1.7455
 4235TIP3   OH212710   5.817   0.534   3.787 -0.3229 -0.1764 -0.2303
 4235TIP3    H112711   5.811   0.558   3.695 -1.3410  1.3334  0.1927
 4235TIP3    H212712   5.738   0.483   3.805 -0.2656 -0.2299 -0.1231
 4236TIP3   OH212713   3.802   5.075   4.011  0.2661  0.2358 -0.6813
 4236TIP3    H112714   3.786   4.991   3.968 -2.0542 -0.4360  1.3127
 4236TIP3    H212715   3.729   5.131   3.983 -0.0677  0.4813  0.6383
 4237TIP3   OH212716   3.801   5.490   4.018 -0.1523  0.4218 -0.0169
 4237TIP3    H112717   3.744   5.562   4.043 -1.3924  0.2445 -2.1789
 4237TIP3    H212718   3.746   5.412   4.025 -0.0648  0.1859 -1.6232
 4238TIP3   OH212719   4.972   5.697   0.884  0.5551 -0.0113  0.2600
 4238TIP3    H112720   4.903   5.700   0.818  2.8342 -0.1471 -2.2993
 4238TIP3    H212721   4.946   5.626   0.943 -0.4404 -1.6161 -1.9642
 4239TIP3   OH212722   0.673   3.693   0.437 -0.3052 -0.2888  0.6376
 4239TIP3    H112723   0.652   3.600   0.441 -0.3267 -0.3185 -0.0567
 4239TIP3    H212724   0.764   3.695   0.408 -0.2458 -0.0941  0.8340
 4240TIP3   OH212725   2.208   4.919   3.214 -0.5922 -0.5344 -0.1132
 4240TIP3    H112726   2.298   4.906   3.184 -0.7074 -1.0316 -0.2526
 4240TIP3    H212727   2.156   4.860   3.160 -0.9496 -0.5688  0.2632
 4241TIP3   OH212728   1.405   2.534   1.039 -0.2821  0.3249 -0.1120
 4241TIP3    H112729   1.374   2.596   0.973 -1.9707  0.4667  0.7714
 4241TIP3    H212730   1.482   2.578   1.078 -0.7483  1.3520 -0.3051
 4242TIP3   OH212731   6.282   0.683   5.040 -0.5001  0.1359 -0.0063
 4242TIP3    H112732   6.294   0.657   4.949  0.0683 -1.2366  0.4526
 4242TIP3    H212733   6.368   0.714   5.068 -0.2970 -0.8318  0.4834
 4243TIP3   OH212734   3.086   0.676   3.707  0.4989  0.2124  0.4368
 4243TIP3    H112735   3.065   0.762   3.743  0.0007  0.4412 -0.3895
 4243TIP3    H212736   3.175   0.658   3.738  0.7620  1.2057  0.2842
 4244TIP3   OH212737   3.995   2.727   2.222  0.3372 -0.3105  0.0327
 4244TIP3    H112738   3.959   2.806   2.181 -1.1220 -0.1452  1.5378
 4244TIP3    H212739   3.956   2.655   2.173  3.2726 -0.2499 -2.7381
 4245TIP3   OH212740   4.739   1.345   4.216  0.3496 -0.4562  0.6056
 4245TIP3    H112741   4.787   1.319   4.295  0.2010  1.2219  1.2817
 4245TIP3    H212742   4.778   1.429   4.190 -1.7143  0.6156  0.7566
 4246TIP3   OH212743   4.815   3.353   5.063  0.1217  0.1312 -0.7427
 4246TIP3    H112744   4.907   3.378   5.053  0.4900 -0.8954 -0.1020
 4246TIP3    H212745   4.793   3.376   5.153 -0.5435  1.2247 -1.1657
 4247TIP3   OH212746   1.128   0.682   0.773  0.5162  0.3049  0.1194
 4247TIP3    H112747   1.180   0.730   0.838 -0.2719  1.0445  0.2222
 4247TIP3    H212748   1.078   0.619   0.824  0.7094  0.1409  0.1075
 4248TIP3   OH212749   3.360   2.249   0.445 -0.5037 -0.0567  0.2449
 4248TIP3    H112750   3.286   2.201   0.481 -0.4066 -0.0684  0.4300
 4248TIP3    H212751   3.325   2.291   0.366 -0.4526 -0.8633 -0.2229
 4249TIP3   OH212752   5.075   5.122   3.908 -0.2941 -0.0728 -0.1059
 4249TIP3    H112753   5.118   5.202   3.937 -0.0172 -0.9840  2.2344
 4249TIP3    H212754   5.143   5.074   3.861  0.4157 -0.1696  0.9807
 4250TIP3   OH212755   5.683   1.853   4.243 -0.3773 -0.5313  0.1761
 4250TIP3    H112756   5.723   1.796   4.309 -1.3557 -2.4504 -0.8032
 4250TIP3    H212757   5.624   1.910   4.293  1.6423  0.6492  1.3356
 4251TIP3   OH212758   5.052   2.108   0.476 -0.0825  0.1109 -0.0626
 4251TIP3    H112759   5.126   2.132   0.532 -0.1338  0.5943 -0.2013
 4251TIP3    H212760   5.080   2.026   0.434  0.3402  0.2464 -0.0511
 4252TIP3   OH212761   5.902   2.716   1.316  0.5150 -0.2388  0.0623
 4252TIP3    H112762   5.825   2.744   1.266 -0.4087 -0.2788  1.4008
 4252TIP3    H212763   5.868   2.650   1.377  1.3920  0.5147  1.4097
 4253TIP3   OH212764   3.456   3.120   2.817  0.4890 -0.0827 -0.2406
 4253TIP3    H112765   3.412   3.056   2.872 -0.9856  0.3753 -0.8285
 4253TIP3    H212766   3.548   3.113   2.841  0.1287 -1.1692  0.9563
 4254TIP3   OH212767   3.376   5.239   4.176  0.1300 -0.0831 -0.1398
 4254TIP3    H112768   3.347   5.326   4.149 -0.7418 -0.1346  0.6130
 4254TIP3    H212769   3.349   5.232   4.267 -0.0434 -1.2508 -0.2751
 4255TIP3   OH212770   4.913   2.877   4.902  0.1723 -0.1554 -0.9667
 4255TIP3    H112771   4.890   2.868   4.810 -0.4680 -1.8141 -0.6636
 4255TIP3    H212772   4.988   2.820   4.914  1.6737  1.7286 -0.9070
 4256TIP3   OH212773   5.368   4.653   3.794  0.3312  0.3233 -0.3218
 4256TIP3    H112774   5.368   4.682   3.886 -1.7251  1.2851 -0.5865
 4256TIP3    H212775   5.457   4.621   3.780  0.6731  0.0741  2.0319
 4257TIP3   OH212776   2.964   1.266   1.723  0.4847  0.0139 -0.2306
 4257TIP3    H112777   2.872   1.279   1.749  0.8447  0.7738  0.7037
 4257TIP3    H212778   2.959   1.237   1.632 -0.6678  0.4775 -0.3340
 4258TIP3   OH212779   4.589   4.731   1.095 -0.1467  0.2263 -0.3922
 4258TIP3    H112780   4.607   4.653   1.148  2.7577 -0.9843 -2.8988
 4258TIP3    H212781   4.656   4.795   1.122 -0.2873  0.5543 -0.8009
 4259TIP3   OH212782   2.810   1.037   2.042 -0.2552 -0.7071 -0.0613
 4259TIP3    H112783   2.873   1.038   1.970  1.2520 -0.9464  1.2010
 4259TIP3    H212784   2.764   0.954   2.033 -1.5376  0.1530 -1.9118
 4260TIP3   OH212785   2.553   4.509   3.162  0.0468  0.2448 -0.3923
 4260TIP3    H112786   2.615   4.496   3.090  0.5371 -0.8031  0.1990
 4260TIP3    H212787   2.515   4.422   3.178  1.0524  0.1064  1.5754
 4261TIP3   OH212788   4.234   2.814   0.125 -0.2659 -0.0450 -0.1827
 4261TIP3    H112789   4.314   2.802   0.074  0.0661  2.1609 -0.3083
 4261TIP3    H212790   4.180   2.738   0.104  1.3620 -1.0678 -0.9009
 4262TIP3   OH212791   1.927   4.460   3.221  0.2021 -0.3817  0.8226
 4262TIP3    H112792   1.871   4.383   3.235 -0.4440  0.0784  0.8213
 4262TIP3    H212793   1.931   4.503   3.307  0.9637 -0.6681  0.9441
 4263TIP3   OH212794   6.296   2.823   3.617 -0.1868 -0.0669  0.0305
 4263TIP3    H112795   6.386   2.843   3.591 -0.1676 -1.0338 -0.7342
 4263TIP3    H212796   6.305   2.779   3.702 -0.0664  1.0702  0.6299
 4264TIP3   OH212797   0.260   5.873   0.008  0.1950 -0.5642  0.0719
 4264TIP3    H112798   0.184   5.931   0.007 -0.1697 -1.0406  0.3609
 4264TIP3    H212799   0.224   5.785   0.015  0.6888 -0.9507 -1.7168
 4265TIP3   OH212800   1.276   3.965   3.187  0.1254 -0.2549 -0.3936
 4265TIP3    H112801   1.319   4.001   3.264  0.9973 -0.5346 -0.7406
 4265TIP3    H212802   1.280   4.035   3.122 -1.8220  0.4884  0.2127
 4266TIP3   OH212803   2.039   0.562   1.607  0.2554  0.1474  0.1750
 4266TIP3    H112804   2.130   0.552   1.635 -0.1298  0.4916  1.6284
 4266TIP3    H212805   1.999   0.478   1.629 -0.3758  0.8800  2.0763
 4267TIP3   OH212806   3.899   2.678   1.073 -0.4041  0.2610  0.1059
 4267TIP3    H112807   3.893   2.747   1.140  2.0457 -0.2286  0.9702
 4267TIP3    H212808   3.851   2.604   1.110 -1.2833  0.8196  0.1098
 4268TIP3   OH212809   3.313   0.158   0.461 -0.2855 -0.3559  0.3159
 4268TIP3    H112810   3.241   0.210   0.425  0.0883 -0.3281 -0.4158
 4268TIP3    H212811   3.285   0.137   0.550 -0.9313  0.1588  0.2459
 4269TIP3   OH212812   0.484   4.938   0.740  0.6020 -0.6722 -0.3540
 4269TIP3    H112813   0.566   4.952   0.786  0.5467  1.0471 -0.7270
 4269TIP3    H212814   0.426   5.006   0.772  0.1460 -0.2370 -1.9846
 4270TIP3   OH212815   5.691   3.715   4.876  0.1915  0.1370  0.2716
 4270TIP3    H112816   5.607   3.680   4.906  0.1918  0.5793  0.7980
 4270TIP3    H212817   5.671   3.758   4.793 -0.3713  1.4009  1.0339
 4271TIP3   OH212818   4.232   4.827   0.249 -0.4666 -0.2322 -0.4196
 4271TIP3    H112819   4.225   4.902   0.190  0.6150  0.4087  0.2201
 4271TIP3    H212820   4.192   4.857   0.331 -0.7285 -0.6333 -0.3973
 4272TIP3   OH212821   3.512   5.070   2.425  0.5253  0.5756 -0.1489
 4272TIP3    H112822   3.552   5.071   2.512 -1.0196  1.1221  0.5938
 4272TIP3    H212823   3.549   4.993   2.383 -0.6595 -1.3062  1.9968
 4273TIP3   OH212824   0.862   5.136   3.611 -0.1607  0.1057 -0.2872
 4273TIP3    H112825   0.877   5.226   3.639 -0.2108  0.1679 -0.4633
 4273TIP3    H212826   0.883   5.083   3.689  1.7403  0.1211 -0.7390
 4274TIP3   OH212827   2.242   5.269   4.182 -0.0812 -0.4253 -0.1869
 4274TIP3    H112828   2.204   5.357   4.174  0.6291 -0.1508 -0.6721
 4274TIP3    H212829   2.233   5.247   4.275 -1.7618 -0.5353 -0.3533
 4275TIP3   OH212830   0.454   2.911   0.531 -0.6559  0.5401 -0.2164
 4275TIP3    H112831   0.505   2.967   0.472  0.2361  0.6754  0.6551
 4275TIP3    H212832   0.467   2.822   0.497  1.0026  0.4583  0.5725
 4276TIP3   OH212833   1.949   0.819   2.731  0.7902  0.0795 -0.6099
 4276TIP3    H112834   1.995   0.901   2.748 -0.4800  0.5338  0.8729
 4276TIP3    H212835   1.864   0.830   2.774  0.5427 -1.9583 -0.4823
 4277TIP3   OH212836   1.960   5.388   4.896 -0.2404  0.0306  0.2347
 4277TIP3    H112837   1.907   5.345   4.829 -1.4491  2.7651 -0.6910
 4277TIP3    H212838   2.050   5.373   4.868 -0.6464 -1.0247 -0.5755
 4278TIP3   OH212839   5.572   3.781   2.364  0.1631 -0.3721 -0.6273
 4278TIP3    H112840   5.560   3.687   2.381  0.8506 -0.5651 -1.1843
 4278TIP3    H212841   5.665   3.797   2.381  0.7781 -0.4526 -3.4959
 4279TIP3   OH212842   5.657   1.889   1.294 -0.7942  0.0936  0.0060
 4279TIP3    H112843   5.644   1.804   1.253 -0.0447  0.9721 -2.2091
 4279TIP3    H212844   5.568   1.924   1.304 -1.0789 -0.7501  0.5587
 4280TIP3   OH212845   3.009   2.112   0.120  0.2446  0.2737 -0.2736
 4280TIP3    H112846   2.945   2.045   0.146  2.5505 -1.7986  0.3811
 4280TIP3    H212847   2.963   2.163   0.052 -1.2686 -2.6594 -1.6551
 4281TIP3   OH212848   3.099   4.226   2.547  0.5125  0.4617  0.0632
 4281TIP3    H112849   3.041   4.302   2.551 -0.2537  0.0154 -1.7495
 4281TIP3    H212850   3.185   4.260   2.573  0.2199  1.9920 -0.8407
 4282TIP3   OH212851   0.571   1.980   2.695 -0.0619  0.8379  0.2012
 4282TIP3    H112852   0.606   2.032   2.767 -1.1940  1.3283  0.4196
 4282TIP3    H212853   0.476   1.991   2.701 -0.1735  1.0246 -1.4605
 4283TIP3   OH212854   4.604   1.122   0.482 -0.1375 -0.5283 -0.1961
 4283TIP3    H112855   4.674   1.183   0.508  0.0598 -1.1955  0.9099
 4283TIP3    H212856   4.534   1.179   0.450 -0.5786  0.4511  2.2357
 4284TIP3   OH212857   4.471   0.208   0.508 -0.2694 -0.4139  0.3342
 4284TIP3    H112858   4.386   0.174   0.534 -0.3777  0.3112  0.9656
 4284TIP3    H212859   4.451   0.283   0.453 -0.0379 -0.6884 -0.1239
 4285TIP3   OH212860   4.278   1.463   3.565  0.4591  0.0541  0.4929
 4285TIP3    H112861   4.303   1.542   3.614  0.8426  1.1816 -1.4426
 4285TIP3    H212862   4.182   1.463   3.569  0.4586  0.5552  0.6069
 4286TIP3   OH212863   0.524   3.030   3.886  0.2664 -0.0570 -0.7942
 4286TIP3    H112864   0.513   3.107   3.942 -0.6176 -0.5987 -0.1932
 4286TIP3    H212865   0.475   3.052   3.807 -1.1494 -0.5074 -0.0824
 4287TIP3   OH212866   5.848   5.448   1.031  0.1560  0.0581  0.1433
 4287TIP3    H112867   5.863   5.366   0.984 -0.3890 -0.6206  1.1386
 4287TIP3    H212868   5.824   5.422   1.119 -4.0358  1.0684 -0.4697
 4288TIP3   OH212869   1.299   2.068   3.961 -0.1807 -0.3052 -0.5003
 4288TIP3    H112870   1.391   2.044   3.972  0.1443  1.4599  1.1058
 4288TIP3    H212871   1.269   2.091   4.048 -2.2576 -1.0477 -0.9554
 4289TIP3   OH212872   0.263   0.885   4.842  0.3917 -0.0235 -0.4510
 4289TIP3    H112873   0.209   0.812   4.870 -1.1167  0.6059 -1.5714
 4289TIP3    H212874   0.314   0.909   4.920 -0.0623 -1.4000  0.2895
 4290TIP3   OH212875   2.415   2.235   4.196 -0.1317 -0.2849  0.4920
 4290TIP3    H112876   2.332   2.193   4.216  0.3352 -1.2839  0.4099
 4290TIP3    H212877   2.480   2.184   4.244  0.2774  1.6201  2.0992
 4291TIP3   OH212878   5.535   0.713   1.952  0.4163 -0.6113  0.6699
 4291TIP3    H112879   5.544   0.807   1.944  0.3595 -0.6566  0.0761
 4291TIP3    H212880   5.512   0.682   1.864  0.2710 -1.1579  0.8899
 4292TIP3   OH212881   4.689   2.089   0.531 -0.1109  0.3355 -0.2232
 4292TIP3    H112882   4.657   2.158   0.589  0.9969  0.7843 -0.1140
 4292TIP3    H212883   4.760   2.048   0.580  0.2210  0.1081 -0.8884
 4293TIP3   OH212884   2.222   3.112   4.760 -0.4827 -0.7544 -0.4428
 4293TIP3    H112885   2.143   3.131   4.711 -0.2386  0.9305 -0.2394
 4293TIP3    H212886   2.285   3.081   4.694 -0.2305  1.2558 -1.2058
 4294TIP3   OH212887   0.325   4.209   3.964 -0.1224  0.4728  0.4069
 4294TIP3    H112888   0.283   4.244   4.043 -1.9124 -0.4362 -0.0833
 4294TIP3    H212889   0.418   4.208   3.985 -0.5107  0.6621  2.3372
 4295TIP3   OH212890   3.738   2.586   2.435  0.2232  0.5002  0.0513
 4295TIP3    H112891   3.682   2.663   2.424 -0.2060 -0.1502 -3.7527
 4295TIP3    H212892   3.683   2.512   2.409  2.1914 -0.3396 -2.1414
 4296TIP3   OH212893   1.282   4.473   3.642  0.2009  0.0157  0.5573
 4296TIP3    H112894   1.341   4.522   3.584 -2.3412 -0.7064 -3.0099
 4296TIP3    H212895   1.227   4.540   3.682 -0.2436  0.4101 -0.6579
 4297TIP3   OH212896   2.825   4.705   3.032  0.1327 -0.1026 -0.2328
 4297TIP3    H112897   2.902   4.707   3.090  0.1193  0.5365 -0.2249
 4297TIP3    H212898   2.802   4.613   3.025  1.4405 -0.3943 -0.9524
 4298TIP3   OH212899   1.098   3.515   4.702 -0.0557  0.3171 -0.1654
 4298TIP3    H112900   1.039   3.489   4.773  0.6822 -1.7984 -0.2701
 4298TIP3    H212901   1.140   3.595   4.734 -0.4490 -0.0576  1.3773
 4299TIP3   OH212902   2.204   5.291   2.078 -0.4528  0.0196 -0.3007
 4299TIP3    H112903   2.127   5.235   2.086 -0.4922  0.0837 -0.2218
 4299TIP3    H212904   2.231   5.283   1.986 -0.3299 -0.2924 -0.2369
 4300TIP3   OH212905   0.890   2.238   2.761  0.3329  0.3475  0.0817
 4300TIP3    H112906   0.977   2.219   2.797  0.1523 -0.8631 -0.0767
 4300TIP3    H212907   0.904   2.313   2.703  2.0062 -1.8760 -2.6786
 4301TIP3   OH212908   2.693   0.948   3.050  0.0952 -0.0052  0.0268
 4301TIP3    H112909   2.728   0.986   2.969 -0.9375  0.5659 -0.1655
 4301TIP3    H212910   2.766   0.954   3.112  0.0882  2.0472 -0.0800
 4302TIP3   OH212911   3.980   4.805   2.497 -0.4687  0.3142 -0.2449
 4302TIP3    H112912   4.005   4.722   2.538  0.2036  1.1380  1.1180
 4302TIP3    H212913   4.057   4.830   2.445  0.7137  1.6306  1.9681
 4303TIP3   OH212914   4.281   5.024   2.037  0.2226 -0.3055  0.3894
 4303TIP3    H112915   4.295   5.039   1.944 -0.4679 -0.0766  0.3175
 4303TIP3    H212916   4.234   5.101   2.067  1.1749  0.0109  1.1174
 4304TIP3   OH212917   0.096   0.216   3.025  0.6642 -0.2085  0.1854
 4304TIP3    H112918   0.129   0.230   3.114  1.1596 -0.2766  0.0151
 4304TIP3    H212919   0.101   0.122   3.011 -1.0507 -0.4117  0.7043
 4305TIP3   OH212920   2.453   2.568   1.914 -0.3445 -0.0083  0.1188
 4305TIP3    H112921   2.368   2.596   1.948 -1.5172 -0.6027 -2.0859
 4305TIP3    H212922   2.517   2.625   1.956 -2.0020  1.5762  0.5932
 4306TIP3   OH212923   5.375   4.422   0.238 -0.0396 -0.2795 -0.0203
 4306TIP3    H112924   5.356   4.350   0.298 -0.2700  0.5999  0.9947
 4306TIP3    H212925   5.299   4.426   0.181 -1.2719  0.7871  1.5871
 4307TIP3   OH212926   3.442   3.824   2.294 -0.2852  0.0387 -0.0577
 4307TIP3    H112927   3.393   3.816   2.212 -1.0377 -0.3637  0.4162
 4307TIP3    H212928   3.454   3.734   2.323  1.1197  0.1027 -0.3686
 4308TIP3   OH212929   5.124   0.170   2.573 -0.1620 -0.4484 -0.1867
 4308TIP3    H112930   5.069   0.160   2.495  1.1984 -0.5997 -1.1565
 4308TIP3    H212931   5.184   0.096   2.569  2.3437  1.5104 -1.0363
 4309TIP3   OH212932   2.136   1.871   2.847 -0.2860  0.5517  0.6135
 4309TIP3    H112933   2.185   1.952   2.834 -2.3680  1.5553 -1.5883
 4309TIP3    H212934   2.151   1.821   2.767 -0.3472 -0.5424  1.2656
 4310TIP3   OH212935   2.792   3.995   3.942  0.3712 -0.7052 -0.3915
 4310TIP3    H112936   2.870   3.945   3.918  0.5110 -0.3708 -0.6526
 4310TIP3    H212937   2.823   4.086   3.948  0.1460 -0.6650  0.1828
 4311TIP3   OH212938   2.483   1.732   0.039 -0.1601 -0.3608 -0.0553
 4311TIP3    H112939   2.489   1.654  -0.016  1.6059  0.4459 -1.0777
 4311TIP3    H212940   2.467   1.698   0.127 -2.1968 -1.7185 -0.8697
 4312TIP3   OH212941   2.404   5.310   2.544 -0.0209 -0.1014  0.4996
 4312TIP3    H112942   2.341   5.381   2.553  0.7296  0.4022  2.3447
 4312TIP3    H212943   2.398   5.283   2.452 -3.5571 -0.7269  0.7875
 4313TIP3   OH212944   1.138   4.249   3.272 -0.6834 -0.1501  0.0246
 4313TIP3    H112945   1.075   4.317   3.249  0.5546  1.0661  0.1153
 4313TIP3    H212946   1.224   4.289   3.258  0.1272 -2.1176 -1.2178
 4314TIP3   OH212947   1.845   3.766   3.945 -0.1698 -0.2550  0.7760
 4314TIP3    H112948   1.868   3.757   3.853 -0.4530 -0.6615  0.7453
 4314TIP3    H212949   1.823   3.859   3.955 -2.8503 -0.6934 -0.2111
 4315TIP3   OH212950   6.028   3.615   0.419 -0.5740 -0.0914  0.3001
 4315TIP3    H112951   5.985   3.699   0.432 -0.5607 -0.1503  0.7380
 4315TIP3    H212952   6.090   3.630   0.348 -3.3630 -0.7533 -2.4942
 4316TIP3   OH212953   5.133   4.370   5.094  0.0646 -0.0109 -0.4171
 4316TIP3    H112954   5.181   4.321   5.027 -0.7502  0.1120 -1.1161
 4316TIP3    H212955   5.058   4.407   5.047 -0.1782  0.6104  0.4336
 4317TIP3   OH212956   4.584   2.253   3.470  0.3559  0.2202  0.2400
 4317TIP3    H112957   4.542   2.295   3.395 -0.5879  2.7230  2.0281
 4317TIP3    H212958   4.671   2.291   3.474  0.0867  0.7941  0.8978
 4318TIP3   OH212959   2.923   1.546   3.349  0.7566  0.0386  0.5191
 4318TIP3    H112960   2.924   1.613   3.280 -1.3649 -0.8072 -0.4130
 4318TIP3    H212961   2.836   1.552   3.387  1.4610 -0.3927  2.3173
 4319TIP3   OH212962   1.995   4.794   2.900  0.3468 -0.5208 -0.3513
 4319TIP3    H112963   1.995   4.859   2.830 -1.9466 -0.4353 -0.3373
 4319TIP3    H212964   2.088   4.782   2.922  1.1738 -0.7095 -3.4961
 4320TIP3   OH212965   2.289   4.699   1.337 -0.0240  0.4285 -0.2506
 4320TIP3    H112966   2.269   4.633   1.403  1.5140 -0.0737 -0.2496
 4320TIP3    H212967   2.262   4.659   1.254 -1.1914  0.7321 -0.0365
 4321TIP3   OH212968   1.489   4.377   2.123  0.0121  0.0468 -0.3539
 4321TIP3    H112969   1.404   4.332   2.131  1.0918 -2.5798 -2.1701
 4321TIP3    H212970   1.521   4.353   2.036  0.6932  4.6692 -1.6488
 4322TIP3   OH212971   0.617   5.386   4.689  0.4777 -0.1583  0.3556
 4322TIP3    H112972   0.620   5.291   4.683  0.5127 -0.2224  1.3424
 4322TIP3    H212973   0.546   5.404   4.750  0.8110  0.4340  0.5717
 4323TIP3   OH212974   3.527   4.024   5.109 -0.3131  0.0138  0.4863
 4323TIP3    H112975   3.442   4.017   5.151 -0.6227  0.4690 -0.0447
 4323TIP3    H212976   3.577   4.083   5.165 -0.3715 -0.1992  0.7629
 4324TIP3   OH212977   0.917   2.212   3.077 -0.0258  0.3441 -0.1242
 4324TIP3    H112978   0.873   2.165   3.149 -2.8685  1.9582 -0.6864
 4324TIP3    H212979   0.861   2.287   3.059  1.8273  1.2786 -2.5212
 4325TIP3   OH212980   3.062   1.246   1.991 -0.4771  0.0525 -0.1638
 4325TIP3    H112981   3.032   1.262   1.901 -0.2181 -0.2838 -0.3134
 4325TIP3    H212982   3.059   1.332   2.033 -1.6578  0.0336 -0.1704
 4326TIP3   OH212983   2.309   5.949   4.646 -0.0786  0.2659 -0.0720
 4326TIP3    H112984   2.218   5.978   4.647 -0.2934 -0.3951 -0.3121
 4326TIP3    H212985   2.350   6.000   4.576 -0.5977 -0.4165 -0.8915
 4327TIP3   OH212986   5.083   2.852   3.467  0.3974  0.0848  0.0473
 4327TIP3    H112987   5.132   2.917   3.518  0.5076 -0.3452  0.4999
 4327TIP3    H212988   5.138   2.834   3.391 -0.6707  2.2329 -1.3339
 4328TIP3   OH212989   2.321   2.423   4.777 -0.6968 -0.0052 -0.4158
 4328TIP3    H112990   2.340   2.417   4.683 -1.1380 -0.9452 -0.4551
 4328TIP3    H212991   2.237   2.469   4.781 -0.4041  0.5483 -0.4409
 4329TIP3   OH212992   2.572   5.404   2.865  0.2130 -0.3358  0.2912
 4329TIP3    H112993   2.555   5.341   2.935  1.1884 -0.5697  0.3266
 4329TIP3    H212994   2.526   5.483   2.892  0.2542 -0.5486  1.0052
 4330TIP3   OH212995   4.954   0.444   2.197 -0.2898 -0.1186  0.1054
 4330TIP3    H112996   5.045   0.418   2.183 -0.9558 -2.2386 -0.7413
 4330TIP3    H212997   4.941   0.434   2.292  0.9417  2.5432  0.6480
 4331TIP3   OH212998   5.935   4.439   1.797  0.2718  0.3838 -0.6190
 4331TIP3    H112999   5.929   4.374   1.866 -0.3017  2.1553  1.0827
 4331TIP3    H213000   5.995   4.506   1.831  0.8642  0.7897 -2.3023
 4332TIP3   OH213001   5.089   2.398   5.092 -0.1249 -0.0802 -0.3167
 4332TIP3    H113002   5.181   2.422   5.089 -0.0414 -0.2682 -3.8131
 4332TIP3    H213003   5.051   2.441   5.015 -2.5058 -1.6622 -0.1268
 4333TIP3   OH213004   2.099   3.282   2.925  0.7179  0.3953 -0.0652
 4333TIP3    H113005   2.110   3.374   2.901 -0.3928  0.3383 -0.8395
 4333TIP3    H213006   2.017   3.256   2.885  1.0347 -0.9599  0.1128
 4334TIP3   OH213007   2.972   0.984   1.813 -0.5676 -0.2918 -0.2898
 4334TIP3    H113008   2.956   0.905   1.762 -0.0432  0.1493 -1.1532
 4334TIP3    H213009   3.031   1.037   1.759  1.6486 -0.6779  1.5708
 4335TIP3   OH213010   1.816   4.100   4.374 -0.1961  0.4371  0.1643
 4335TIP3    H113011   1.741   4.153   4.347  0.1563  0.9477  0.1987
 4335TIP3    H213012   1.861   4.077   4.293 -1.2365 -1.1623 -0.0140
 4336TIP3   OH213013   1.919   1.913   1.226 -0.4459 -0.1546 -0.1555
 4336TIP3    H113014   1.832   1.939   1.194  1.0583  3.2800 -1.9118
 4336TIP3    H213015   1.932   1.965   1.305 -0.6007 -2.0113  1.1624
 4337TIP3   OH213016   0.562   2.559   4.109  0.5807 -0.3393 -0.1263
 4337TIP3    H113017   0.527   2.648   4.108 -0.2274 -0.6624 -0.5725
 4337TIP3    H213018   0.492   2.504   4.076  0.6608 -1.3012  1.1898
 4338TIP3   OH213019   2.497   3.990   1.611  0.2905  0.0673  0.3396
 4338TIP3    H113020   2.540   3.985   1.696  0.4079 -0.0558  0.2721
 4338TIP3    H213021   2.568   3.987   1.547  0.1758 -0.2683  0.2251
 4339TIP3   OH213022   3.872   1.518   1.661  0.5675  0.2164 -0.2507
 4339TIP3    H113023   3.834   1.536   1.747  0.0144 -1.0094 -0.2164
 4339TIP3    H213024   3.803   1.543   1.599  0.4367 -0.2050 -0.2751
 4340TIP3   OH213025   3.436   2.560   1.923 -0.6390 -0.0833 -0.5085
 4340TIP3    H113026   3.438   2.591   2.013  1.3496  1.6260 -1.0619
 4340TIP3    H213027   3.524   2.525   1.908 -1.0051 -0.5200 -1.7321
 4341TIP3   OH213028   0.974   5.840   3.358 -1.2274 -0.1919  0.0272
 4341TIP3    H113029   0.903   5.833   3.422 -0.3812  0.2834  1.0602
 4341TIP3    H213030   0.971   5.932   3.329 -2.7827 -0.8470 -2.0626
 4342TIP3   OH213031   2.436   3.127   0.672  0.4411  0.3237  0.0083
 4342TIP3    H113032   2.488   3.048   0.660 -0.6448 -0.3997 -0.0407
 4342TIP3    H213033   2.435   3.141   0.767  0.9107  0.4771 -0.0071
 4343TIP3   OH213034   5.950   4.462   2.881  0.2392 -0.0879  0.3320
 4343TIP3    H113035   5.877   4.436   2.937 -0.2003  1.1118  0.3581
 4343TIP3    H213036   6.006   4.385   2.877 -1.4197 -1.3148 -0.3397
 4344TIP3   OH213037   2.121   0.373   3.898 -0.1488  0.5128  0.5298
 4344TIP3    H113038   2.203   0.362   3.946  0.7633  1.3162 -0.7704
 4344TIP3    H213039   2.089   0.459   3.924 -0.4743  0.2955  0.8627
 4345TIP3   OH213040   0.992   2.240   0.744  0.4270 -0.1177  0.3249
 4345TIP3    H113041   1.064   2.183   0.716  2.0645  1.8592  0.2334
 4345TIP3    H213042   0.942   2.256   0.665  0.9143 -0.1310  0.0088
 4346TIP3   OH213043   2.544   4.991   0.950  0.1094  0.0423  0.1817
 4346TIP3    H113044   2.616   5.011   1.010  0.7620  0.1477 -0.6202
 4346TIP3    H213045   2.577   5.015   0.864  0.1836 -2.5425 -0.5778
 4347TIP3   OH213046   1.397   4.816   2.575  0.3831  0.2838 -0.8099
 4347TIP3    H113047   1.449   4.737   2.591 -0.2997 -0.0202 -0.0261
 4347TIP3    H213048   1.342   4.793   2.500  0.5377  0.1956 -0.8974
 4348TIP3   OH213049   6.161   1.859   0.907  0.7131 -0.6496 -0.3240
 4348TIP3    H113050   6.108   1.892   0.835  0.7869 -0.0134 -0.0980
 4348TIP3    H213051   6.168   1.765   0.892 -0.3434 -0.7116 -0.4374
 4349TIP3   OH213052   5.046   5.395   2.861  0.1691 -0.1711 -0.2810
 4349TIP3    H113053   5.091   5.359   2.785  0.7661 -0.2043  0.0845
 4349TIP3    H213054   5.006   5.319   2.904 -0.5234 -0.1028 -0.7814
 4350TIP3   OH213055   2.133   3.458   3.408  0.4379 -0.4384  0.1138
 4350TIP3    H113056   2.091   3.475   3.492 -0.7874  1.2701 -0.7882
 4350TIP3    H213057   2.227   3.470   3.425  0.3402 -1.3435  1.4782
 4351TIP3   OH213058   0.456   4.274   0.742  0.4713  0.1997 -0.3104
 4351TIP3    H113059   0.469   4.287   0.836 -1.0397 -1.9737  0.2700
 4351TIP3    H213060   0.393   4.341   0.717  1.6253  1.4443 -0.0498
 4352TIP3   OH213061   4.975   5.891   5.122  0.0617 -0.4989  0.2837
 4352TIP3    H113062   4.916   5.851   5.186 -0.3816 -0.3507 -0.0283
 4352TIP3    H213063   4.971   5.984   5.142 -0.0345 -0.4590  0.0766
 4353TIP3   OH213064   0.528   0.665   1.111 -0.0405  0.2471 -0.0930
 4353TIP3    H113065   0.484   0.611   1.046 -0.9224 -0.2983  0.9249
 4353TIP3    H213066   0.471   0.742   1.121  0.3045  0.5277 -0.2555
 4354TIP3   OH213067   0.434   1.610   4.615  0.6740  0.0564  0.1584
 4354TIP3    H113068   0.402   1.525   4.584  0.0010  0.8098 -1.3252
 4354TIP3    H213069   0.510   1.589   4.669  1.9354 -1.3941 -2.0180
 4355TIP3   OH213070   2.289   2.584   3.527 -0.4636 -0.1490  0.6173
 4355TIP3    H113071   2.282   2.578   3.622 -1.4173 -0.9344  0.5122
 4355TIP3    H213072   2.304   2.677   3.510 -2.7212  0.4275  1.4275
 4356TIP3   OH213073   3.133   4.962   2.788 -0.0105 -0.3496 -0.4244
 4356TIP3    H113074   3.216   4.934   2.748  0.3946  1.0698 -0.6148
 4356TIP3    H213075   3.066   4.916   2.737  0.6173 -0.6755 -0.9729
 4357TIP3   OH213076   5.105   4.246   1.011  0.4216  0.1611  0.0926
 4357TIP3    H113077   5.055   4.314   1.057  0.3567 -0.5772  1.1591
 4357TIP3    H213078   5.041   4.205   0.953 -0.2063 -0.6443  1.3044
 4358TIP3   OH213079   0.212   4.405   1.648  0.1907 -0.2102  0.3695
 4358TIP3    H113080   0.305   4.405   1.626  0.3473  0.8827  0.9402
 4358TIP3    H213081   0.182   4.317   1.625  1.2505 -0.4300 -0.2668
 4359TIP3   OH213082   5.046   3.038   2.490 -0.4149  0.6111 -0.1612
 4359TIP3    H113083   5.042   2.984   2.569  1.1233  0.6186 -0.0372
 4359TIP3    H213084   4.961   3.081   2.485 -0.3498  1.0669  1.8254
 4360TIP3   OH213085   1.861   3.611   2.010 -0.2429  0.6762  0.6762
 4360TIP3    H113086   1.817   3.564   2.081 -0.1522  0.6835  0.7380
 4360TIP3    H213087   1.835   3.566   1.931  0.9350 -0.3279  0.8419
 4361TIP3   OH213088   2.805   3.189   3.872  0.7426  0.1511  0.2743
 4361TIP3    H113089   2.761   3.274   3.867  0.9950  0.3050  0.6965
 4361TIP3    H213090   2.741   3.127   3.836  1.4644  0.8352 -2.4752
 4362TIP3   OH213091   3.826   1.503   1.935  0.2591  0.1622  0.0681
 4362TIP3    H113092   3.918   1.486   1.957 -0.1128 -1.8110  0.2283
 4362TIP3    H213093   3.776   1.447   1.994 -1.1346  1.9271  0.6760
 4363TIP3   OH213094   2.698   3.715   5.157 -0.2048  0.0136 -0.4170
 4363TIP3    H113095   2.676   3.626   5.132  0.2419 -0.2483  0.0908
 4363TIP3    H213096   2.647   3.731   5.237  0.8628 -0.3446  0.3610
 4364TIP3   OH213097   4.087   3.914   0.752 -0.8726 -0.4142 -0.4530
 4364TIP3    H113098   4.165   3.956   0.787 -0.8869 -1.2640  0.6672
 4364TIP3    H213099   4.014   3.954   0.800 -0.9851 -0.7713 -0.3158
 4365TIP3   OH213100   1.393   4.429   2.602  0.7468 -0.6429 -0.5780
 4365TIP3    H113101   1.455   4.359   2.582  1.9851 -0.5985  2.5448
 4365TIP3    H213102   1.448   4.502   2.631 -0.6423 -0.5128  2.0834
 4366TIP3   OH213103   3.895   0.395   1.590  0.6006 -0.3011  0.3902
 4366TIP3    H113104   3.982   0.364   1.564  2.0214  4.1538 -1.2234
 4366TIP3    H213105   3.913   0.459   1.659 -1.4984  0.0874  0.6248
 4367TIP3   OH213106   3.987   4.163   1.013 -0.2631  0.5880  0.0231
 4367TIP3    H113107   3.969   4.159   1.107  0.5308  2.0107  0.2599
 4367TIP3    H213108   3.924   4.103   0.974  0.3212 -1.1447  1.5857
 4368TIP3   OH213109   2.793   1.875   3.922  0.1020 -0.1105  0.4900
 4368TIP3    H113110   2.827   1.869   3.833  1.9853  1.2175  1.0480
 4368TIP3    H213111   2.800   1.786   3.956 -0.8676 -0.6800 -0.7401
 4369TIP3   OH213112   0.576   4.119   4.472 -0.4555  0.0492  0.5082
 4369TIP3    H113113   0.671   4.114   4.479 -0.3822 -1.7971 -1.0495
 4369TIP3    H213114   0.560   4.142   4.380 -1.4748 -2.5698 -0.0628
 4370TIP3   OH213115   0.725   0.449   5.121 -0.4206 -0.2122 -0.0495
 4370TIP3    H113116   0.799   0.396   5.094 -0.3930  0.0743 -0.5536
 4370TIP3    H213117   0.687   0.401   5.195  0.5442 -0.1148  0.5264
 4371TIP3   OH213118   2.700   2.198   1.941 -0.0756  0.0871  0.2472
 4371TIP3    H113119   2.779   2.148   1.965  0.4943  0.4496 -0.7853
 4371TIP3    H213120   2.734   2.277   1.900 -0.9866  0.1502 -0.4138
 4372TIP3   OH213121   4.099   0.222   5.145 -0.0913  0.5900  0.7202
 4372TIP3    H113122   4.050   0.291   5.101 -0.3979 -0.5776 -0.8892
 4372TIP3    H213123   4.144   0.176   5.074 -0.9718 -1.6780  1.5372
 4373TIP3   OH213124   4.034   0.153   2.293 -0.9156  0.2897  0.4063
 4373TIP3    H113125   4.061   0.091   2.225  2.7184  1.8722  0.1690
 4373TIP3    H213126   3.976   0.215   2.248  0.9422  0.9657 -1.2016
 4374TIP3   OH213127   2.895   0.159   3.314  0.2430 -0.4647  0.9551
 4374TIP3    H113128   2.984   0.126   3.303  1.1166  2.2693 -1.2978
 4374TIP3    H213129   2.847   0.122   3.240  0.7124  1.4457 -0.3851
 4375TIP3   OH213130   2.775   5.222   3.294  0.8244  0.5408 -0.3138
 4375TIP3    H113131   2.791   5.178   3.210 -2.0112  2.4913 -2.0606
 4375TIP3    H213132   2.835   5.297   3.293  1.0486  0.3639 -0.4104
 4376TIP3   OH213133   3.776   5.601   0.521 -0.1305 -0.4154  0.0440
 4376TIP3    H113134   3.811   5.569   0.604  0.1332 -0.6777 -0.1669
 4376TIP3    H213135   3.833   5.675   0.497 -0.8077  0.2990  0.5873
 4377TIP3   OH213136   2.632   1.851   4.556 -0.2587  0.5476  0.1309
 4377TIP3    H113137   2.538   1.869   4.549 -0.0843  1.2086 -0.7339
 4377TIP3    H213138   2.669   1.887   4.475  0.5341 -1.1822 -0.3078
 4378TIP3   OH213139   5.018   2.051   1.203 -0.0433  0.1675 -0.6333
 4378TIP3    H113140   4.965   2.128   1.222  2.0179  2.0402 -2.0001
 4378TIP3    H213141   5.029   2.052   1.108  1.5442 -0.7425 -0.4967
 4379TIP3   OH213142   5.393   5.594   0.626  0.1983 -0.0102  0.3835
 4379TIP3    H113143   5.445   5.528   0.671  0.4312 -0.5646 -0.6821
 4379TIP3    H213144   5.308   5.591   0.670  0.4643 -0.4296  0.8809
 4380TIP3   OH213145   0.284   1.610   2.614 -0.0906  0.1320  0.0775
 4380TIP3    H113146   0.208   1.650   2.656 -0.9450 -0.0084 -1.2591
 4380TIP3    H213147   0.360   1.647   2.659 -0.9109  1.4991  0.3870
 4381TIP3   OH213148   1.548   2.498   4.775  0.1835  0.2934 -0.4318
 4381TIP3    H113149   1.573   2.585   4.745 -0.7515 -0.0535 -2.3775
 4381TIP3    H213150   1.609   2.439   4.732 -1.1185 -0.2089 -1.6686
 4382TIP3   OH213151   5.913   3.441   2.363 -0.4019  0.6986 -0.8992
 4382TIP3    H113152   5.859   3.397   2.428  0.4085  2.4818  1.0717
 4382TIP3    H213153   5.883   3.405   2.279 -0.6071 -2.6434  0.4342
 4383TIP3   OH213154   5.455   0.184   1.080  0.2499 -0.0909 -0.2468
 4383TIP3    H113155   5.486   0.257   1.026  0.3376 -0.4177 -0.6463
 4383TIP3    H213156   5.488   0.106   1.035  0.3677 -0.3674  0.3117
 4384TIP3   OH213157   1.011   2.133   3.943 -0.4276 -0.2616  0.1583
 4384TIP3    H113158   1.042   2.180   3.865 -0.3129  1.2184  1.0569
 4384TIP3    H213159   1.083   2.142   4.006 -1.2906  0.2839  1.0993
 4385TIP3   OH213160   2.947   3.397   4.433  0.0212 -0.4313  0.2675
 4385TIP3    H113161   2.974   3.307   4.413 -0.9760 -1.5060  3.1599
 4385TIP3    H213162   2.870   3.412   4.380 -0.0848 -1.4845  0.1057
 4386TIP3   OH213163   3.665   4.543   4.442 -0.0511  0.5823 -0.2098
 4386TIP3    H113164   3.615   4.505   4.370  0.0309  0.7407 -0.3497
 4386TIP3    H213165   3.754   4.509   4.430  0.2054  1.4451 -0.7908
 4387TIP3   OH213166   3.504   3.188   4.498  0.3385  0.5571 -0.3994
 4387TIP3    H113167   3.515   3.265   4.554  1.7158  0.6213 -0.7031
 4387TIP3    H213168   3.590   3.177   4.457  0.1126 -1.0271 -0.5115
 4388TIP3   OH213169   4.320   5.555   4.447  0.0662 -0.0553  0.3543
 4388TIP3    H113170   4.287   5.470   4.477  1.4839 -0.3526  1.1714
 4388TIP3    H213171   4.414   5.540   4.433 -0.1027  0.7000 -2.0574
 4389TIP3   OH213172   3.341   5.074   0.445 -0.0944 -0.3872  0.4917
 4389TIP3    H113173   3.315   5.001   0.389 -1.8808 -1.5300  2.6450
 4389TIP3    H213174   3.260   5.123   0.461  0.9662  1.8095 -0.4516
 4390TIP3   OH213175   1.309   2.847   2.421  0.1476  0.4831  0.1228
 4390TIP3    H113176   1.378   2.786   2.394 -1.9003 -1.7827 -0.4085
 4390TIP3    H213177   1.351   2.904   2.486  2.2974 -1.2995  0.4191
 4391TIP3   OH213178   2.739   5.605   1.124 -0.3275 -0.4332 -0.4015
 4391TIP3    H113179   2.828   5.573   1.139 -0.0196 -0.1858 -1.6171
 4391TIP3    H213180   2.724   5.668   1.194  0.8764  0.3417 -0.8150
 4392TIP3   OH213181   6.066   3.944   0.920  0.1577  0.2207 -0.4398
 4392TIP3    H113182   6.124   3.890   0.974  0.4220  0.3486 -0.5947
 4392TIP3    H213183   6.071   3.906   0.833 -0.0400  0.1961 -0.4428
 4393TIP3   OH213184   5.094   0.403   3.392  0.1200  0.2061 -0.3770
 4393TIP3    H113185   5.074   0.491   3.361  0.8936  0.0731 -1.3116
 4393TIP3    H213186   5.018   0.351   3.366  1.4440 -0.2989 -3.8917
 4394TIP3   OH213187   1.173   1.130   1.305  0.8618  0.4269 -0.1761
 4394TIP3    H113188   1.189   1.158   1.395  1.1955  2.0744 -0.7199
 4394TIP3    H213189   1.106   1.062   1.313 -0.1779  1.5518  1.1999
 4395TIP3   OH213190   4.659   5.014   0.812  0.2778 -0.3484 -0.3884
 4395TIP3    H113191   4.608   5.050   0.739  1.4192  3.2262  0.3715
 4395TIP3    H213192   4.593   4.991   0.877 -0.5989 -0.0561 -1.1451
 4396TIP3   OH213193   5.737   3.469   3.626  0.2094  0.3261  0.1743
 4396TIP3    H113194   5.816   3.438   3.582 -0.4335 -1.7766  0.3979
 4396TIP3    H213195   5.690   3.519   3.560  0.5618 -0.4711 -0.6922
 4397TIP3   OH213196   3.345   3.175   0.168  0.3096  0.4665  0.4555
 4397TIP3    H113197   3.364   3.082   0.185  0.2113  0.3573 -0.0099
 4397TIP3    H213198   3.262   3.191   0.214  1.0749  0.7351  1.8172
 4398TIP3   OH213199   4.380   5.121   0.858  0.2298 -0.9169 -0.1867
 4398TIP3    H113200   4.339   5.142   0.942  0.0527 -1.2792 -0.1779
 4398TIP3    H213201   4.357   5.029   0.843  0.5053 -0.9371 -0.4919
 4399TIP3   OH213202   4.635   0.402   3.736  0.1868 -0.4169  0.1039
 4399TIP3    H113203   4.578   0.430   3.664 -0.6812 -0.0588  0.9142
 4399TIP3    H213204   4.683   0.328   3.699  1.1009  0.8710 -1.4299
 4400TIP3   OH213205   4.369   0.181   0.864 -0.2860  0.6072 -0.2000
 4400TIP3    H113206   4.374   0.085   0.867  1.0840  0.5992 -1.7731
 4400TIP3    H213207   4.453   0.211   0.899 -0.4093  1.2272 -0.4253
 4401TIP3   OH213208   4.653   4.488   1.942  0.2620  0.8565 -0.0947
 4401TIP3    H113209   4.651   4.564   2.001  0.5458  0.3398  0.5999
 4401TIP3    H213210   4.606   4.420   1.989 -0.3903  0.7253 -0.9122
 4402TIP3   OH213211   5.634   4.440   0.144 -0.2911 -0.2593  0.3172
 4402TIP3    H113212   5.606   4.436   0.053  0.2572  1.6090  0.0053
 4402TIP3    H213213   5.554   4.456   0.193 -0.4634 -0.2403  0.0318
 4403TIP3   OH213214   3.251   2.040   0.026  0.3566 -0.0473 -0.2441
 4403TIP3    H113215   3.193   2.022  -0.048 -1.4653  1.3422  0.7635
 4403TIP3    H213216   3.195   2.084   0.090  1.6929 -1.8446  2.3038
 4404TIP3   OH213217   4.812   0.452   4.053  0.4374 -0.0764 -0.6281
 4404TIP3    H113218   4.903   0.481   4.056  0.2083  0.5819  0.8708
 4404TIP3    H213219   4.814   0.361   4.084  0.4741  0.3069  0.5487
 4405TIP3   OH213220   4.681   4.169   2.013  0.1242 -0.1753 -0.4833
 4405TIP3    H113221   4.720   4.190   1.928  0.5373 -1.0908 -0.5324
 4405TIP3    H213222   4.753   4.180   2.076 -0.0801  0.1257 -0.2986
 4406TIP3   OH213223   2.566   1.688   5.013  0.0604  0.1126 -0.1091
 4406TIP3    H113224   2.490   1.635   4.989 -0.4250  0.5035  0.5090
 4406TIP3    H213225   2.620   1.630   5.067  1.0111 -0.6714 -1.8392
 4407TIP3   OH213226   3.505   4.723   4.283  0.0472  0.0794 -0.2952
 4407TIP3    H113227   3.438   4.771   4.331  0.5782  0.2928  0.2480
 4407TIP3    H213228   3.480   4.631   4.292 -1.2888  0.2513 -1.8171
 4408TIP3   OH213229   1.174   3.713   3.207 -0.4134 -0.4421  0.1020
 4408TIP3    H113230   1.173   3.809   3.212 -0.6048 -0.4516  0.2474
 4408TIP3    H213231   1.210   3.694   3.120 -0.4112 -0.2378  0.0580
 4409TIP3   OH213232   3.170   3.643   1.534  0.4370  0.3312  0.1927
 4409TIP3    H113233   3.215   3.568   1.573 -0.4945 -0.2366  0.2334
 4409TIP3    H213234   3.110   3.673   1.603  1.5796  1.8308  0.5699
 4410TIP3   OH213235   3.259   5.263   4.789  0.4064 -0.3857 -0.2585
 4410TIP3    H113236   3.248   5.339   4.846 -3.4285  0.3684 -1.7350
 4410TIP3    H213237   3.218   5.191   4.836  1.1163 -0.7966 -0.2581
 4411TIP3   OH213238   0.917   3.385   2.157 -1.1220 -0.6360  0.0687
 4411TIP3    H113239   0.931   3.419   2.245 -2.7458  0.8225 -0.1998
 4411TIP3    H213240   1.004   3.357   2.128  0.1556  2.3628  0.7116
 4412TIP3   OH213241   1.126   1.651   4.781 -0.2611  0.3404 -0.0929
 4412TIP3    H113242   1.095   1.568   4.819 -0.1218  0.1824 -0.3259
 4412TIP3    H213243   1.058   1.714   4.805  0.2279  0.4230  1.1361
 4413TIP3   OH213244   1.648   0.484   0.961 -0.5705  0.2529  0.0725
 4413TIP3    H113245   1.702   0.471   1.039 -0.8963 -1.7924  0.0036
 4413TIP3    H213246   1.564   0.516   0.996 -0.1769  0.9688  0.3914
 4414TIP3   OH213247   0.627   4.866   1.224 -0.4614  0.1824  0.2262
 4414TIP3    H113248   0.601   4.849   1.315 -0.4613 -0.8500  0.0505
 4414TIP3    H213249   0.667   4.784   1.195 -1.2456  0.2051 -0.9841
 4415TIP3   OH213250   6.120   5.825   2.037  0.2466 -0.0482  0.4709
 4415TIP3    H113251   6.109   5.804   2.129 -0.8968  0.2902  0.4217
 4415TIP3    H213252   6.170   5.907   2.037  2.2416 -1.1868  0.7077
 4416TIP3   OH213253   4.908   4.364   3.457 -0.1363 -0.1397  0.0244
 4416TIP3    H113254   4.843   4.314   3.408  0.2608 -0.2437 -0.3957
 4416TIP3    H213255   4.857   4.432   3.501 -0.7007 -0.9799  0.7098
 4417TIP3   OH213256   6.134   2.396   0.897  0.0852  0.0279  0.4897
 4417TIP3    H113257   6.159   2.359   0.812 -0.7444  0.3174  0.1008
 4417TIP3    H213258   6.153   2.490   0.889  0.6145 -0.0460  0.8628
 4418TIP3   OH213259   4.717   5.077   2.820  0.3980 -0.1834  0.4752
 4418TIP3    H113260   4.716   5.167   2.853  2.0022  0.6911 -1.6154
 4418TIP3    H213261   4.665   5.081   2.739  1.3704 -0.8425 -0.2084
 4419TIP3   OH213262   5.438   4.101  -0.009 -0.2860 -0.6991  0.0801
 4419TIP3    H113263   5.409   4.060   0.072 -0.2637 -2.0465 -0.5660
 4419TIP3    H213264   5.511   4.047  -0.039 -0.6025 -0.5205 -1.0886
 4420TIP3   OH213265   6.300   1.455   0.027 -0.1898 -0.4814  0.0082
 4420TIP3    H113266   6.349   1.532  -0.004  0.1321 -0.0978  1.3825
 4420TIP3    H213267   6.360   1.382   0.014  0.7575 -0.0327  1.5621
 4421TIP3   OH213268   1.516   2.896   1.061  0.9452  0.4899 -0.1686
 4421TIP3    H113269   1.432   2.905   1.106 -0.7643 -0.2067 -2.9865
 4421TIP3    H213270   1.541   2.805   1.075 -0.2292 -0.0822 -1.5922
 4422TIP3   OH213271   4.600   3.436   1.804  0.2098 -0.5727 -0.4787
 4422TIP3    H113272   4.589   3.430   1.709  0.3763  0.7350 -0.6005
 4422TIP3    H213273   4.568   3.352   1.837 -1.8762 -0.2587 -1.5158
 4423TIP3   OH213274   0.971   0.790   0.296 -0.3065  0.6524 -0.5484
 4423TIP3    H113275   0.946   0.770   0.206  0.5555  0.6713 -0.7990
 4423TIP3    H213276   1.024   0.715   0.323  1.9918  1.9720 -1.1060
 4424TIP3   OH213277   6.223   1.360   3.311  0.4071 -0.0615  0.2934
 4424TIP3    H113278   6.187   1.446   3.292  1.7471  0.5095  0.2252
 4424TIP3    H213279   6.195   1.306   3.238 -2.7666 -0.4672  1.6418
 4425TIP3   OH213280   4.671   2.798   4.060 -0.3278  0.2105  0.2195
 4425TIP3    H113281   4.612   2.859   4.016  0.9382 -0.4545 -2.5762
 4425TIP3    H213282   4.641   2.711   4.034  1.1260 -0.1685 -0.2807
 4426TIP3   OH213283   4.573   0.168   2.804 -0.3059  0.3885  0.2689
 4426TIP3    H113284   4.657   0.167   2.851  0.1588  0.1828 -0.5389
 4426TIP3    H213285   4.510   0.201   2.868  1.1526  5.1955 -0.3543
 4427TIP3   OH213286   2.728   0.196   4.034  0.5961 -0.4278  0.5917
 4427TIP3    H113287   2.799   0.154   3.985 -0.0082 -1.3923  0.5090
 4427TIP3    H213288   2.772   0.263   4.087  1.8006 -1.9688  1.6681
 4428TIP3   OH213289   6.008   0.855   4.002 -0.5062  0.5386  0.4491
 4428TIP3    H113290   5.993   0.895   3.916 -1.8357  0.2694  0.5427
 4428TIP3    H213291   5.990   0.926   4.065  0.3825  0.7123  0.5211
 4429TIP3   OH213292   2.732   5.355   5.159  0.4816 -0.0655  0.2616
 4429TIP3    H113293   2.756   5.378   5.249 -0.1270 -0.8425  0.6373
 4429TIP3    H213294   2.684   5.431   5.127  1.0312  0.3692  0.4646
 4430TIP3   OH213295   6.071   2.721   0.511 -0.0079 -0.1349  0.2178
 4430TIP3    H113296   6.052   2.814   0.520  0.3480 -0.0896  0.5370
 4430TIP3    H213297   5.986   2.678   0.522  0.0393  0.0667  1.5103
 4431TIP3   OH213298   1.438   4.476   4.438  0.3680 -0.4481 -0.4195
 4431TIP3    H113299   1.398   4.422   4.370  1.8923 -1.6117 -0.4198
 4431TIP3    H213300   1.410   4.436   4.521 -1.4076  0.9107 -0.3016
 4432TIP3   OH213301   4.451   3.268   5.060  0.0344 -0.1873  0.1146
 4432TIP3    H113302   4.471   3.361   5.050  1.6866 -0.4783  0.5364
 4432TIP3    H213303   4.536   3.226   5.069 -0.7316 -1.6305  0.9267
 4433TIP3   OH213304   3.082   4.837   0.555  0.3054 -0.8614 -0.1491
 4433TIP3    H113305   3.107   4.814   0.465 -0.0471  0.4297 -0.5941
 4433TIP3    H213306   3.155   4.807   0.609  0.9057 -0.8936 -0.9615
 4434TIP3   OH213307   4.933   2.022   0.711  0.1392  0.4233  0.1153
 4434TIP3    H113308   4.957   2.056   0.797  0.4931 -1.2885  0.7251
 4434TIP3    H213309   4.960   2.091   0.650  2.4621  0.5281  1.1383
 4435TIP3   OH213310   2.733   1.803   3.632  0.0602 -0.2541  0.6671
 4435TIP3    H113311   2.828   1.809   3.629  0.0853  3.1228  2.8936
 4435TIP3    H213312   2.702   1.879   3.584 -1.7831 -2.7976 -2.5870
 4436TIP3   OH213313   4.172   0.636   4.400 -0.2339  0.0949  0.3070
 4436TIP3    H113314   4.087   0.595   4.385 -0.9696  1.4006  0.7398
 4436TIP3    H213315   4.235   0.575   4.363 -1.3954 -0.6713 -0.4653
 4437TIP3   OH213316   0.756   4.487   2.205  0.2706 -0.2893 -0.1880
 4437TIP3    H113317   0.718   4.564   2.249 -0.0096 -0.0577 -0.8309
 4437TIP3    H213318   0.706   4.413   2.240 -0.5257 -0.0227 -0.7410
 4438TIP3   OH213319   4.762   5.237   0.918  0.0426 -0.0769 -0.3387
 4438TIP3    H113320   4.783   5.222   1.010 -1.1843  1.2465  0.1856
 4438TIP3    H213321   4.753   5.149   0.881 -0.3216 -0.6341  1.0094
 4439TIP3   OH213322   0.241   5.751   1.660  0.0001  0.0399  0.6703
 4439TIP3    H113323   0.259   5.810   1.586  0.2774 -0.9007 -0.0264
 4439TIP3    H213324   0.179   5.800   1.714  0.2669  1.0020  0.1407
 4440TIP3   OH213325   0.497   4.571   1.382 -0.1390 -0.9575 -0.2279
 4440TIP3    H113326   0.567   4.625   1.420  0.6849 -2.5085  0.5595
 4440TIP3    H213327   0.539   4.487   1.363 -1.1740 -1.1020 -2.1952
 4441TIP3   OH213328   5.281   5.967   2.662  0.0882 -0.0378 -0.1567
 4441TIP3    H113329   5.279   5.874   2.644  0.9299  0.1540 -1.2907
 4441TIP3    H213330   5.328   5.974   2.745 -2.2168 -0.7779  1.3165
 4442TIP3   OH213331   3.925   3.663   2.286  0.4415  0.1343  0.2949
 4442TIP3    H113332   3.896   3.592   2.227  0.7444  0.0477  0.2482
 4442TIP3    H213333   3.931   3.621   2.372  0.1441  0.2242  0.3600
 4443TIP3   OH213334   0.115   2.108   5.114 -0.0381 -0.2742 -0.4454
 4443TIP3    H113335   0.119   2.172   5.042  0.2189  0.8600  0.5418
 4443TIP3    H213336   0.024   2.076   5.113 -0.9966  2.1594  0.7105
 4444TIP3   OH213337   1.293   2.205   2.551  0.9129 -0.3440 -0.2074
 4444TIP3    H113338   1.239   2.283   2.562  0.4947 -0.6780  0.1376
 4444TIP3    H213339   1.293   2.188   2.457  1.6821  0.5432 -0.3858
 4445TIP3   OH213340   3.317   2.280   4.923 -0.0472  0.1740  0.1973
 4445TIP3    H113341   3.226   2.286   4.952 -1.2011 -0.5090 -2.8391
 4445TIP3    H213342   3.368   2.276   5.003 -2.9263 -2.7775  2.1385
 4446TIP3   OH213343   4.336   4.428   4.617 -0.1476 -0.3172 -0.1958
 4446TIP3    H113344   4.255   4.408   4.570  0.4370 -2.7012 -0.3109
 4446TIP3    H213345   4.354   4.349   4.668  1.1120  0.8910  1.3204
 4447TIP3   OH213346   0.913   5.536   5.125  0.4793 -0.7631 -0.1041
 4447TIP3    H113347   0.983   5.523   5.061  2.4360  0.2006  1.7002
 4447TIP3    H213348   0.938   5.479   5.198  0.2337  0.7452  1.1968
 4448TIP3   OH213349   3.816   2.624   1.726  0.2350 -0.0897 -0.2782
 4448TIP3    H113350   3.791   2.552   1.784  0.1282 -0.7753 -1.1559
 4448TIP3    H213351   3.872   2.680   1.780  1.9040 -1.8139 -0.0817
 4449TIP3   OH213352   0.327   4.713   1.567  0.2501  0.0671 -0.5031
 4449TIP3    H113353   0.346   4.687   1.477 -1.5657  1.0311 -1.2083
 4449TIP3    H213354   0.352   4.637   1.620 -1.1891 -1.5789 -2.0700
 4450TIP3   OH213355   6.205   3.460   1.124 -0.0203  0.8427  0.0579
 4450TIP3    H113356   6.165   3.394   1.180  0.3444  0.6690  0.1164
 4450TIP3    H213357   6.224   3.533   1.183  0.0169  0.8116  0.0836
 4451TIP3   OH213358   2.833   0.998   0.676  0.0387 -0.0624 -0.3540
 4451TIP3    H113359   2.879   1.029   0.598 -0.9242 -0.3442 -1.0552
 4451TIP3    H213360   2.801   0.911   0.652 -0.3029 -0.1361  0.3403
 4452TIP3   OH213361   1.047   3.872   0.297  0.5026 -1.0793 -0.3077
 4452TIP3    H113362   1.030   3.804   0.362  0.0213 -1.4377 -0.8030
 4452TIP3    H213363   1.050   3.825   0.214  2.7317 -0.8750 -0.3970
 4453TIP3   OH213364   4.378   2.811   4.626 -0.6264 -0.0760  0.1098
 4453TIP3    H113365   4.459   2.816   4.676 -1.5546 -1.3799  1.8801
 4453TIP3    H213366   4.406   2.798   4.536  1.1361 -0.4277  0.6645
 4454TIP3   OH213367   6.072   4.787   3.257  0.4487  0.3372  0.4947
 4454TIP3    H113368   6.150   4.829   3.294  0.5165  1.8272 -1.2322
 4454TIP3    H213369   6.103   4.742   3.179 -0.3248  0.4793  0.0932
 4455TIP3   OH213370   5.459   0.605   1.125  0.3842  0.3486  0.0342
 4455TIP3    H113371   5.373   0.646   1.113  0.6974  1.2228  0.6465
 4455TIP3    H213372   5.521   0.667   1.086  0.9170  0.7812  1.4796
 4456TIP3   OH213373   1.239   1.679   4.455 -0.0929 -0.6219  0.3092
 4456TIP3    H113374   1.251   1.584   4.459  0.3251 -0.5810  0.1343
 4456TIP3    H213375   1.171   1.697   4.519 -0.2951 -1.0592  0.2242
 4457TIP3   OH213376   0.160   1.935   2.305  0.0379 -0.1259  0.1601
 4457TIP3    H113377   0.249   1.899   2.311  0.2100  0.1872 -0.3966
 4457TIP3    H213378   0.159   2.006   2.369 -0.3869 -1.2653  1.4522
 4458TIP3   OH213379   1.500   1.356   3.382 -0.2577  0.1716 -0.3941
 4458TIP3    H113380   1.497   1.260   3.384 -0.4505  0.1775  1.3591
 4458TIP3    H213381   1.424   1.383   3.434  0.3884  1.2543  0.0179
 4459TIP3   OH213382   4.282   4.628   4.204 -0.0087 -0.0918 -0.2727
 4459TIP3    H113383   4.320   4.549   4.167  1.0652 -0.5406  1.6349
 4459TIP3    H213384   4.350   4.694   4.195 -0.7790  0.5611 -1.5602
 4460TIP3   OH213385   3.521   1.386   3.198  0.2103  0.0377  0.0635
 4460TIP3    H113386   3.496   1.430   3.279 -0.2470 -1.9231  1.0371
 4460TIP3    H213387   3.617   1.390   3.198  0.1937  0.6814  0.3036
 4461TIP3   OH213388   1.349   3.274   3.221  0.0871  0.3222  0.1077
 4461TIP3    H113389   1.254   3.289   3.226  0.1875  0.9432  0.1645
 4461TIP3    H213390   1.357   3.179   3.218 -0.5834  0.2703 -0.6649
 4462TIP3   OH213391   3.536   5.873   4.265  0.2807 -0.1624 -0.1406
 4462TIP3    H113392   3.469   5.893   4.200 -0.7786 -0.8946  0.6985
 4462TIP3    H213393   3.555   5.956   4.307  0.2347  0.1255 -0.6761
 4463TIP3   OH213394   5.232   2.294   4.530 -0.3105  0.1018 -0.2815
 4463TIP3    H113395   5.229   2.378   4.576  1.0106  1.1751 -2.0195
 4463TIP3    H213396   5.142   2.275   4.506 -0.6654  0.8350  0.4408
 4464TIP3   OH213397   2.875   2.044   3.258  0.1980 -0.1025 -0.2026
 4464TIP3    H113398   2.895   2.082   3.343  1.9667  0.2260 -0.7257
 4464TIP3    H213399   2.782   2.023   3.262  0.3020 -0.3409  1.8911
 4465TIP3   OH213400   6.277   1.746   3.090 -0.0002 -0.0781 -0.3980
 4465TIP3    H113401   6.237   1.783   3.012 -2.7298  0.1494  0.9897
 4465TIP3    H213402   6.368   1.773   3.086 -0.5118  1.5656 -2.5068
 4466TIP3   OH213403   3.294   0.813   4.659  0.3111  0.3059  0.3394
 4466TIP3    H113404   3.215   0.771   4.623  0.2439  1.2232 -0.6184
 4466TIP3    H213405   3.277   0.818   4.753 -0.2879 -0.5179  0.2893
 4467TIP3   OH213406   5.831   0.998   0.999 -0.3097 -0.1903 -0.1106
 4467TIP3    H113407   5.916   1.004   1.043 -0.2993  1.3943 -0.2764
 4467TIP3    H213408   5.847   0.939   0.925  0.3219 -0.8677  0.5500
 4468TIP3   OH213409   1.287   4.888   3.494 -0.7422 -0.4162  0.3065
 4468TIP3    H113410   1.266   4.917   3.405 -1.2210  2.9389  1.3765
 4468TIP3    H213411   1.202   4.872   3.534 -0.7602  1.2513  1.0329
 4469TIP3   OH213412   1.722   1.683   2.595 -0.0096 -0.0584 -0.4448
 4469TIP3    H113413   1.661   1.624   2.551  1.0531 -0.0603 -1.9729
 4469TIP3    H213414   1.804   1.634   2.600 -0.2853 -0.4052  2.3845
 4470TIP3   OH213415   5.532   1.918   2.841  0.1732  0.4751 -0.2418
 4470TIP3    H113416   5.601   1.854   2.823  0.2851  0.8306 -1.1590
 4470TIP3    H213417   5.575   1.986   2.892  0.2297  0.1586  0.1329
 4471TIP3   OH213418   2.568   4.335   1.745 -0.0083  0.3264  0.4302
 4471TIP3    H113419   2.474   4.319   1.753 -0.9118  3.8556 -1.0473
 4471TIP3    H213420   2.588   4.308   1.655 -0.2504  1.8987 -0.1208
 4472TIP3   OH213421   5.611   1.183   4.287 -0.1944  0.2013  0.5006
 4472TIP3    H113422   5.546   1.252   4.301  0.8254  1.6557 -1.4206
 4472TIP3    H213423   5.670   1.218   4.220  0.1354 -2.7241 -0.9250
 4473TIP3   OH213424   1.818   5.430   0.890 -0.5028  0.4636 -0.0563
 4473TIP3    H113425   1.865   5.363   0.939  0.1716  0.4964 -0.6444
 4473TIP3    H213426   1.831   5.406   0.798 -2.9169 -0.3837 -0.2256
 4474TIP3   OH213427   5.004   3.529   1.026  0.3282 -0.1878 -0.7460
 4474TIP3    H113428   5.057   3.566   0.956  0.4781  0.1184 -0.4716
 4474TIP3    H213429   4.936   3.594   1.042 -0.5925 -0.9078 -1.6110
 4475TIP3   OH213430   4.247   3.702   2.240 -0.4962 -0.5001 -0.4583
 4475TIP3    H113431   4.184   3.644   2.282 -0.5839 -1.0044 -1.2703
 4475TIP3    H213432   4.209   3.722   2.155 -2.0182  3.3134  0.9090
 4476TIP3   OH213433   1.899   5.608   1.244  0.4585  0.4334  0.0336
 4476TIP3    H113434   1.964   5.659   1.196  1.6103  0.2417  1.3074
 4476TIP3    H213435   1.925   5.517   1.231  0.1555  0.3300  0.1392
 4477TIP3   OH213436   3.204   3.272   2.789  0.1884 -0.1502  0.0062
 4477TIP3    H113437   3.291   3.235   2.771 -0.4773 -1.0189 -1.7184
 4477TIP3    H213438   3.155   3.199   2.826  0.1847  0.3708  1.0840
 4478TIP3   OH213439   3.110   3.019   2.869  0.4757 -0.0094 -0.0607
 4478TIP3    H113440   3.111   3.005   2.774 -0.0073  0.0230 -0.0741
 4478TIP3    H213441   3.045   2.957   2.901 -0.1611  0.7406  0.1238
 4479TIP3   OH213442   1.646   1.284   3.953  0.3756 -0.3969 -0.1429
 4479TIP3    H113443   1.627   1.208   4.008 -1.7012 -0.0862 -0.3467
 4479TIP3    H213444   1.569   1.292   3.896  1.7823  0.1893 -2.0878
 4480TIP3   OH213445   1.175   4.638   5.013  0.6138  0.1661 -0.5164
 4480TIP3    H113446   1.198   4.560   5.063  0.9505  0.1878 -0.6346
 4480TIP3    H213447   1.240   4.641   4.942  0.8833  0.8017 -0.2485
 4481TIP3   OH213448   4.496   3.864   0.681  0.1849  0.4643 -0.1607
 4481TIP3    H113449   4.555   3.799   0.720 -1.5248 -1.1151 -0.0585
 4481TIP3    H213450   4.507   3.854   0.587  1.4574  1.5451 -0.1527
 4482TIP3   OH213451   0.783   5.556   0.512 -0.0070  0.2774  0.0229
 4482TIP3    H113452   0.717   5.489   0.531 -1.1453  1.2774 -0.2372
 4482TIP3    H213453   0.732   5.634   0.489  1.2554  1.3213  0.5719
 4483TIP3   OH213454   3.669   5.366   4.365 -0.5154 -0.7956 -0.3617
 4483TIP3    H113455   3.584   5.396   4.395 -0.7607 -0.5627 -1.2586
 4483TIP3    H213456   3.657   5.274   4.344 -0.1485 -1.1582  0.9513
 4484TIP3   OH213457   1.307   0.692   1.216  0.0427  0.0420 -0.1901
 4484TIP3    H113458   1.386   0.731   1.180  0.1453 -0.5844 -0.6599
 4484TIP3    H213459   1.330   0.600   1.230  0.7522  0.6088  3.5750
 4485TIP3   OH213460   5.634   4.032   1.461  0.3953  0.1483  0.4110
 4485TIP3    H113461   5.544   4.014   1.487 -0.3736  0.5707 -1.7644
 4485TIP3    H213462   5.673   3.945   1.448  0.4881 -0.0457  1.8202
 4486TIP3   OH213463   1.019   1.344   1.179  0.3124 -0.4756 -0.5322
 4486TIP3    H113464   1.086   1.284   1.212  0.6998  0.9741  1.4754
 4486TIP3    H213465   1.069   1.411   1.132  0.0367 -0.7213 -1.1842
 4487TIP3   OH213466   4.799   3.158   1.965  0.4375 -0.1320  0.2202
 4487TIP3    H113467   4.851   3.233   1.937 -1.2120  0.5889 -1.0593
 4487TIP3    H213468   4.708   3.187   1.957 -0.2158 -1.5181  1.9010
 4488TIP3   OH213469   5.756   1.224   4.012  0.1381 -0.3662  0.0787
 4488TIP3    H113470   5.801   1.302   3.980  2.4953 -2.7845 -3.1736
 4488TIP3    H213471   5.698   1.198   3.940 -0.2532 -1.8548  0.8828
 4489TIP3   OH213472   2.526   2.084   3.157  0.0666 -0.1337  1.1103
 4489TIP3    H113473   2.537   2.156   3.219 -0.2621  0.3513  0.6068
 4489TIP3    H213474   2.450   2.108   3.104  0.9844 -0.0151 -0.2010
 4490TIP3   OH213475   0.333   0.096   2.914  0.1966  0.0057 -0.2825
 4490TIP3    H113476   0.257   0.116   2.860 -0.6258 -0.8862  0.5018
 4490TIP3    H213477   0.407   0.138   2.869 -0.5657 -0.0994 -1.6859
 4491TIP3   OH213478   0.830   0.692   1.824 -0.6220 -0.3967 -0.0824
 4491TIP3    H113479   0.883   0.763   1.860 -0.5323 -1.6077  2.3354
 4491TIP3    H213480   0.747   0.735   1.800 -0.2734  0.6717  0.5462
 4492TIP3   OH213481   0.412   5.582   1.849 -0.0480 -0.2527  0.5119
 4492TIP3    H113482   0.354   5.645   1.806 -0.3603 -1.5463 -1.0577
 4492TIP3    H213483   0.453   5.632   1.919 -0.6827  1.5541 -0.3296
 4493TIP3   OH213484   1.262   5.160   4.559  0.2359 -0.0359  0.4278
 4493TIP3    H113485   1.265   5.242   4.511  0.2832 -0.2591  0.0408
 4493TIP3    H213486   1.307   5.178   4.642  2.2636 -0.2399 -0.5508
 4494TIP3   OH213487   1.761   5.492   0.561 -0.6024  0.3579  0.3297
 4494TIP3    H113488   1.711   5.417   0.530 -1.4053  0.9986  0.0389
 4494TIP3    H213489   1.852   5.462   0.562 -0.4835  0.3432 -2.8490
 4495TIP3   OH213490   6.086   5.295   3.030  0.1560 -0.0105 -0.2953
 4495TIP3    H113491   6.143   5.227   3.067 -1.6871 -1.0716  0.7168
 4495TIP3    H213492   6.069   5.265   2.940  0.3640 -0.2089 -0.2722
 4496TIP3   OH213493   0.458   2.192   4.504 -0.2459 -0.4880  0.2999
 4496TIP3    H113494   0.510   2.269   4.483 -0.9557 -0.0564  0.0631
 4496TIP3    H213495   0.520   2.130   4.542  0.5632 -0.2672 -0.6188
 4497TIP3   OH213496   4.615   2.938   0.626 -0.4256 -0.1873 -0.1288
 4497TIP3    H113497   4.628   3.002   0.556  1.0588 -0.1509  0.1408
 4497TIP3    H213498   4.668   2.971   0.698 -1.4076 -0.5766  0.7969
 4498TIP3   OH213499   2.364   0.961   2.317  0.1659 -0.2604 -0.4881
 4498TIP3    H113500   2.400   0.903   2.250  0.4742  0.5787 -1.0633
 4498TIP3    H213501   2.269   0.953   2.308  0.2061 -0.2604 -0.9193
 4499TIP3   OH213502   1.199   3.167   2.422 -0.5985  0.2955  0.8207
 4499TIP3    H113503   1.241   3.252   2.430  0.4937 -0.2207  0.7634
 4499TIP3    H213504   1.227   3.119   2.500 -0.4807 -0.3001  0.4240
 4500TIP3   OH213505   5.365   1.315   3.892 -0.1676 -0.0370  0.4849
 4500TIP3    H113506   5.356   1.247   3.958  2.5786 -0.5720  0.4260
 4500TIP3    H213507   5.408   1.387   3.937 -0.2915  0.4758 -0.1965
 4501TIP3   OH213508   0.252   4.922   2.697  0.1524  0.5107 -0.8021
 4501TIP3    H113509   0.204   4.972   2.763 -0.4117 -0.1276 -0.7185
 4501TIP3    H213510   0.185   4.894   2.635  0.3820 -0.5648 -0.5827
 4502TIP3   OH213511   1.608   1.369   0.644 -0.0909  0.6089 -0.7026
 4502TIP3    H113512   1.584   1.458   0.670  0.5494  0.9118 -1.1182
 4502TIP3    H213513   1.697   1.357   0.678 -0.0622  0.2300 -0.8957
 4503TIP3   OH213514   4.081   5.391   3.220  0.3608 -0.3089 -0.3641
 4503TIP3    H113515   4.174   5.381   3.199  0.2544 -0.8459 -0.6026
 4503TIP3    H213516   4.074   5.359   3.310  0.6912  1.3117  0.2635
 4504TIP3   OH213517   6.288   2.564   1.983 -0.1233  0.1580 -0.5178
 4504TIP3    H113518   6.285   2.478   1.942  2.7880  0.4996 -1.6912
 4504TIP3    H213519   6.204   2.573   2.027 -0.7008 -3.0790 -0.7368
 4505TIP3   OH213520   0.224   3.267   3.496  0.5441  0.0490 -0.2374
 4505TIP3    H113521   0.139   3.311   3.495  1.0552  1.0749  0.2167
 4505TIP3    H213522   0.252   3.267   3.404 -0.2951 -1.0389 -0.5209
 4506TIP3   OH213523   1.015   3.965   0.731  0.4593  0.1360 -0.0390
 4506TIP3    H113524   1.009   3.870   0.724  0.5857  0.0205  1.1914
 4506TIP3    H213525   1.049   3.980   0.820  2.2801  1.2800 -0.8788
 4507TIP3   OH213526   2.273   4.264   4.262  0.1506  0.2283  0.1266
 4507TIP3    H113527   2.245   4.272   4.171 -0.9294  3.2823  0.6216
 4507TIP3    H213528   2.352   4.209   4.258 -0.0903 -0.0539 -2.5648
 4508TIP3   OH213529   1.831   5.232   4.695 -0.0406  0.5859  0.4596
 4508TIP3    H113530   1.797   5.171   4.760 -0.8104  0.4222 -0.0831
 4508TIP3    H213531   1.867   5.176   4.626 -1.3020  0.7042 -0.3326
 4509TIP3   OH213532   2.729   5.096   0.079  0.5816 -0.1293  0.1528
 4509TIP3    H113533   2.645   5.073   0.039  0.6057  1.7072 -1.1053
 4509TIP3    H213534   2.792   5.037   0.037  0.5728  1.6012 -2.5455
 4510TIP3   OH213535   1.947   2.661   2.806  0.1319  0.5797 -0.2042
 4510TIP3    H113536   1.967   2.587   2.748  2.6145  0.0876  1.1584
 4510TIP3    H213537   1.862   2.639   2.844 -0.6012 -0.0496 -2.0876
 4511TIP3   OH213538   5.034   0.882   4.240 -0.2435  0.2906  0.1170
 4511TIP3    H113539   5.002   0.873   4.330 -0.1786  0.0217  0.1123
 4511TIP3    H213540   5.043   0.977   4.228  0.2869  0.3068  0.5851
 4512TIP3   OH213541   5.410   1.989   1.342 -0.5626 -0.0900 -0.8812
 4512TIP3    H113542   5.322   1.961   1.314 -1.2777 -0.4922  1.5464
 4512TIP3    H213543   5.403   2.084   1.349 -1.1772 -0.2048  0.3411
 4513TIP3   OH213544   2.354   0.707   2.644 -0.3642 -0.0988  0.0186
 4513TIP3    H113545   2.312   0.626   2.674  0.4395 -0.6881 -0.3976
 4513TIP3    H213546   2.342   0.769   2.717 -1.0876 -0.5509  0.2936
 4514TIP3   OH213547   1.590   5.820   2.590 -0.2599  0.0837  0.6417
 4514TIP3    H113548   1.640   5.762   2.533  1.6455 -0.5058  2.7610
 4514TIP3    H213549   1.597   5.780   2.676 -4.6745 -0.1265  1.1042
 4515TIP3   OH213550   0.479   0.706   0.654  0.4713 -0.1013  0.0519
 4515TIP3    H113551   0.550   0.749   0.606 -0.8932  0.8045 -1.2570
 4515TIP3    H213552   0.456   0.767   0.724 -0.2494  0.4991 -0.6888
 4516TIP3   OH213553   1.856   3.701   2.479 -0.5534  0.3810  0.0502
 4516TIP3    H113554   1.790   3.730   2.415 -1.4446 -1.6313 -0.0086
 4516TIP3    H213555   1.859   3.606   2.469 -0.8941 -0.0509  3.1415
 4517TIP3   OH213556   3.646   4.761   1.165  0.8720 -0.1132  0.3426
 4517TIP3    H113557   3.636   4.856   1.172  1.0252  0.0704 -1.3881
 4517TIP3    H213558   3.690   4.735   1.246  0.7122  1.2730  0.8959
 4518TIP3   OH213559   2.529   4.323   4.436 -0.0016 -0.7447  0.8302
 4518TIP3    H113560   2.564   4.260   4.373  0.3667  1.2148 -1.0352
 4518TIP3    H213561   2.445   4.350   4.399  1.7642  3.1146 -0.9723
 4519TIP3   OH213562   5.591   3.520   2.510  0.6056 -0.4678 -0.3423
 4519TIP3    H113563   5.565   3.569   2.588  0.1964 -0.6155 -0.3818
 4519TIP3    H213564   5.640   3.445   2.544  0.9961 -0.1789 -0.2667
 4520TIP3   OH213565   0.995   0.587   4.447 -0.3287  0.3414 -0.5510
 4520TIP3    H113566   0.965   0.673   4.418  2.4159  1.4781 -0.3606
 4520TIP3    H213567   0.967   0.582   4.539 -0.0282  1.3137 -0.3851
 4521TIP3   OH213568   5.162   0.446   2.657  0.4505  0.3178  0.1045
 4521TIP3    H113569   5.162   0.357   2.623 -0.9331  1.1457 -2.3422
 4521TIP3    H213570   5.094   0.446   2.725 -0.8683 -0.1060 -1.1639
 4522TIP3   OH213571   0.045   3.943   3.619  0.2693 -0.0664 -0.1596
 4522TIP3    H113572   0.083   3.999   3.551  0.9975 -1.1706 -0.7000
 4522TIP3    H213573  -0.049   3.959   3.613  0.2368 -0.6505 -1.9465
 4523TIP3   OH213574   4.513   1.662   0.372  0.4683 -0.4603 -0.3997
 4523TIP3    H113575   4.556   1.626   0.294 -0.5535  0.3208 -1.3431
 4523TIP3    H213576   4.430   1.616   0.377 -0.1739  0.6414 -0.7184
 4524TIP3   OH213577   5.117   2.500   3.643 -0.0007 -0.4878  0.7385
 4524TIP3    H113578   5.066   2.565   3.691 -0.6848 -0.8436  0.5103
 4524TIP3    H213579   5.112   2.529   3.552  1.4138  0.2672  0.8663
 4525TIP3   OH213580   4.865   5.104  -0.032  0.4378 -0.5568  0.0435
 4525TIP3    H113581   4.801   5.037  -0.008 -1.1882  0.9451  0.0708
 4525TIP3    H213582   4.864   5.166   0.041  1.8479 -0.4178 -0.0233
 4526TIP3   OH213583   6.336   0.911   4.012  0.3038 -0.0067 -0.0060
 4526TIP3    H113584   6.397   0.841   4.034 -1.1351 -1.0413  0.8742
 4526TIP3    H213585   6.293   0.932   4.094 -0.1561  1.0620 -0.5071
 4527TIP3   OH213586   5.620   1.150   3.772  0.9301  0.0905 -0.4151
 4527TIP3    H113587   5.624   1.078   3.709  1.3503 -1.6007  1.4493
 4527TIP3    H213588   5.528   1.178   3.769  0.8848 -0.0920 -1.5813
 4528TIP3   OH213589   3.000   3.732   0.186 -0.2349 -0.5221 -0.3592
 4528TIP3    H113590   2.923   3.711   0.239 -0.9229 -0.7883 -1.4258
 4528TIP3    H213591   2.982   3.819   0.151 -0.0068 -0.5372 -0.5149
 4529TIP3   OH213592   1.751   4.865   4.374 -0.0019 -0.0806 -0.5754
 4529TIP3    H113593   1.694   4.912   4.435  0.9379  0.6319 -0.2182
 4529TIP3    H213594   1.734   4.772   4.392 -1.0336  0.1101 -0.4818
 4530TIP3   OH213595   6.069   0.043   2.752 -0.4656 -0.3913  0.3823
 4530TIP3    H113596   5.986   0.045   2.800 -0.9801  2.3947 -0.4716
 4530TIP3    H213597   6.044   0.018   2.663 -0.1618 -1.0357  0.4749
 4531TIP3   OH213598   6.309   4.926   3.310  0.1535 -0.0375  0.3258
 4531TIP3    H113599   6.385   4.888   3.354 -1.4350 -2.3936  1.2494
 4531TIP3    H213600   6.276   4.992   3.371  1.7080  1.3974 -0.3239
 4532TIP3   OH213601   2.749   2.583   1.375 -0.3445 -0.0252 -0.3054
 4532TIP3    H113602   2.787   2.530   1.306 -0.9158 -0.9195  0.0553
 4532TIP3    H213603   2.778   2.672   1.355 -0.6630 -0.2327 -1.7994
 4533TIP3   OH213604   2.540   3.629   4.169  0.7615  0.4195  0.1788
 4533TIP3    H113605   2.529   3.657   4.260  0.3507  0.4779  0.1124
 4533TIP3    H213606   2.468   3.568   4.154  1.5549 -0.5774  0.2820
 4534TIP3   OH213607   1.561   1.839   3.185 -0.2315  0.2219  0.1170
 4534TIP3    H113608   1.555   1.757   3.235 -0.8344  1.0074  1.3818
 4534TIP3    H213609   1.518   1.819   3.102 -2.9452 -0.0166  1.4517
 4535TIP3   OH213610   2.865   2.013   1.434  0.1282  0.0477 -0.5129
 4535TIP3    H113611   2.951   2.024   1.393  0.4715  1.5606  0.5474
 4535TIP3    H213612   2.883   2.003   1.527 -0.8803  2.5960  0.0464
 4536TIP3   OH213613   3.540   5.398   2.021 -0.3906 -0.6677  0.3184
 4536TIP3    H113614   3.579   5.321   2.063  0.6226  0.2896  1.2031
 4536TIP3    H213615   3.594   5.471   2.050 -0.3303  0.1998 -1.7962
 4537TIP3   OH213616   2.649   0.393   0.327  0.0745  0.6474 -0.2961
 4537TIP3    H113617   2.559   0.362   0.339  0.2849  0.9848  3.1734
 4537TIP3    H213618   2.639   0.485   0.303 -0.6370  1.3969  2.5085
 4538TIP3   OH213619   4.825   0.750   2.749 -0.0369 -0.4503  0.2616
 4538TIP3    H113620   4.759   0.709   2.693 -0.4636 -0.4988  0.7970
 4538TIP3    H213621   4.888   0.788   2.688 -1.5647  1.2896 -0.3115
 4539TIP3   OH213622   5.981   3.804   3.029 -0.5461 -0.3066  0.2064
 4539TIP3    H113623   6.005   3.717   3.061 -1.0406 -0.7285 -0.5673
 4539TIP3    H213624   5.899   3.824   3.073  1.0007  1.0624  2.7141
 4540TIP3   OH213625   2.182   0.244   4.889  0.0278  0.4236  0.5319
 4540TIP3    H113626   2.180   0.192   4.809 -1.4565 -2.7995  2.4631
 4540TIP3    H213627   2.268   0.227   4.927  0.4125  1.2963  0.0967
 4541TIP3   OH213628   5.407   4.701   4.440 -0.5252 -0.3144 -0.7037
 4541TIP3    H113629   5.489   4.703   4.391 -0.1875  0.3013 -0.1310
 4541TIP3    H213630   5.340   4.687   4.374 -0.0035 -0.3543 -1.2353
 4542TIP3   OH213631   3.980   4.938   2.104  0.3021 -0.0545 -0.1757
 4542TIP3    H113632   4.013   4.920   2.016 -0.5780  0.2289 -0.5730
 4542TIP3    H213633   4.044   5.000   2.141  0.4099  0.2121 -0.7961
 4543TIP3   OH213634   1.834   1.492   4.039 -0.5731  0.0821  0.9052
 4543TIP3    H113635   1.804   1.401   4.036 -0.0563 -0.0745  0.0524
 4543TIP3    H213636   1.780   1.538   3.975 -0.1924  0.1671  0.6381
 4544TIP3   OH213637   2.895   1.980   1.703 -0.4989 -0.2158  0.2446
 4544TIP3    H113638   2.988   1.954   1.702 -0.5958 -0.7381 -2.1931
 4544TIP3    H213639   2.897   2.076   1.704  0.3114 -0.0080 -3.7315
 4545TIP3   OH213640   0.902   0.477   1.271  0.0834  0.5409  0.8532
 4545TIP3    H113641   0.936   0.387   1.267  2.3291  1.3687 -0.9971
 4545TIP3    H213642   0.814   0.471   1.234 -0.1251 -0.9805  1.4864
 4546TIP3   OH213643   1.471   0.558   2.026 -0.9738  0.1689 -0.4039
 4546TIP3    H113644   1.529   0.580   1.953 -0.1452  0.6317  0.3679
 4546TIP3    H213645   1.386   0.593   2.001 -1.0920 -1.0410 -1.8281
 4547TIP3   OH213646   5.011   5.532   3.721  0.6197 -0.2596 -0.2647
 4547TIP3    H113647   4.997   5.586   3.643 -0.3629  0.8145  0.6114
 4547TIP3    H213648   4.947   5.565   3.785  1.1059 -1.3919  0.8502
 4548TIP3   OH213649   1.862   5.208   2.659 -0.1095 -0.4831  0.0236
 4548TIP3    H113650   1.876   5.195   2.566 -0.3325 -0.1342 -0.0625
 4548TIP3    H213651   1.817   5.293   2.665  0.7372 -0.0593  0.5058
 4549TIP3   OH213652   3.214   4.568   2.905 -0.0676  0.1726 -0.3111
 4549TIP3    H113653   3.182   4.494   2.957 -2.9716  1.0910 -0.5780
 4549TIP3    H213654   3.233   4.636   2.969  1.9062 -0.5167 -0.1181
 4550TIP3   OH213655   1.622   1.146   1.155 -0.1007  0.4713 -0.0548
 4550TIP3    H113656   1.699   1.091   1.147 -0.7901 -0.7241  1.0490
 4550TIP3    H213657   1.611   1.185   1.069  0.3650 -1.2102 -0.9205
 4551TIP3   OH213658   5.029   1.062   0.591  0.5321 -0.2821  0.1870
 4551TIP3    H113659   5.022   0.993   0.657  0.8557  0.0267  0.5441
 4551TIP3    H213660   4.954   1.119   0.607  0.6110 -0.2069  0.2845
 4552TIP3   OH213661   4.394   5.458   0.651 -0.5712 -0.1870 -0.6820
 4552TIP3    H113662   4.370   5.535   0.600 -0.5518  0.2345 -0.0702
 4552TIP3    H213663   4.482   5.476   0.682  0.0540 -1.1481 -1.8172
 4553TIP3   OH213664   4.340   2.120   2.883 -0.1076  0.3313 -0.6655
 4553TIP3    H113665   4.333   2.166   2.800 -1.2541  0.2357 -0.6379
 4553TIP3    H213666   4.290   2.039   2.870 -1.9191  1.1570  0.6742
 4554TIP3   OH213667   2.082   3.714   4.942 -0.2223 -0.1468  0.1632
 4554TIP3    H113668   2.079   3.645   5.007 -1.6387 -0.2113  0.0582
 4554TIP3    H213669   2.165   3.759   4.958 -0.2480 -0.5629  1.5850
 4555TIP3   OH213670   5.904   1.690   2.343  0.0777 -0.2423 -0.2033
 4555TIP3    H113671   5.931   1.700   2.434  0.5111  0.1635 -0.3674
 4555TIP3    H213672   5.814   1.660   2.347 -0.1346  0.4397  0.3565
 4556TIP3   OH213673   2.657   5.575   4.446  0.6707 -0.2510 -0.5246
 4556TIP3    H113674   2.629   5.547   4.359 -0.3407 -1.0402  0.0435
 4556TIP3    H213675   2.745   5.538   4.456  0.7122 -0.3270 -1.1145
 4557TIP3   OH213676   5.605   0.425   1.351 -0.2019  0.2040 -0.0155
 4557TIP3    H113677   5.684   0.385   1.314 -0.4185 -1.2070  0.9741
 4557TIP3    H213678   5.564   0.470   1.277  0.9954  0.1057 -0.7674
 4558TIP3   OH213679   4.941   5.949   2.473  0.0104 -0.8514  0.2136
 4558TIP3    H113680   5.023   5.995   2.455  0.1197 -0.5025  1.5184
 4558TIP3    H213681   4.960   5.857   2.454  0.9401 -0.8816  1.2419
 4559TIP3   OH213682   1.945   5.339   1.238 -0.5678  0.6384 -0.0576
 4559TIP3    H113683   1.920   5.274   1.173  1.1873  0.9582 -1.1232
 4559TIP3    H213684   2.016   5.298   1.288 -1.1776  0.7979  0.9593
 4560TIP3   OH213685   1.745   2.162   1.013 -0.4233 -0.1238 -0.2598
 4560TIP3    H113686   1.699   2.160   0.929 -1.3637  0.4747  0.2246
 4560TIP3    H213687   1.729   2.076   1.051  1.2033 -0.9344 -1.2881
 4561TIP3   OH213688   5.685   2.266   3.481  0.3988  0.5243 -0.0318
 4561TIP3    H113689   5.753   2.334   3.484 -1.3187  2.2898  1.8077
 4561TIP3    H213690   5.656   2.256   3.572 -0.2869 -1.8172 -0.4378
 4562TIP3   OH213691   3.258   3.501   2.302 -0.2067 -0.4099 -0.2653
 4562TIP3    H113692   3.345   3.467   2.321  0.6427  1.1463 -1.1583
 4562TIP3    H213693   3.198   3.429   2.323  1.1885 -1.1394  1.3858
 4563TIP3   OH213694   5.977   5.522   2.590  0.6006  0.6172  0.0242
 4563TIP3    H113695   5.951   5.541   2.680  0.1214  2.0812 -0.4057
 4563TIP3    H213696   5.906   5.468   2.555  0.3791  0.7572  0.2573
 4564TIP3   OH213697   0.360   0.136   4.079 -0.2488 -0.2126 -0.2540
 4564TIP3    H113698   0.300   0.205   4.051 -1.4336 -1.0278  0.1721
 4564TIP3    H213699   0.342   0.063   4.021 -0.3752 -0.7950  0.4966
 4565TIP3   OH213700   1.142   3.989   1.924 -0.3512 -0.7234 -0.0632
 4565TIP3    H113701   1.087   3.971   1.847 -0.3781 -2.9379  0.4137
 4565TIP3    H213702   1.094   3.949   1.997  0.9044 -0.8987  0.6802
 4566TIP3   OH213703   2.331   1.703   2.146  0.1928  0.2426 -0.2340
 4566TIP3    H113704   2.326   1.777   2.207  1.0673 -0.8082  1.1799
 4566TIP3    H213705   2.412   1.659   2.170 -0.6862 -1.6110 -0.5530
 4567TIP3   OH213706   0.562   3.168   2.481  0.3071 -0.1738 -0.3017
 4567TIP3    H113707   0.511   3.207   2.410  2.2148  1.0561 -1.0999
 4567TIP3    H213708   0.571   3.076   2.456  2.2196  0.5038 -2.6009
 4568TIP3   OH213709   4.896   5.043   3.346 -0.4954 -0.1428  0.3399
 4568TIP3    H113710   4.879   5.133   3.319 -1.6948 -0.1342  1.0407
 4568TIP3    H213711   4.810   5.009   3.372  0.3367 -0.6506  2.6218
 4569TIP3   OH213712   1.882   1.427   3.186 -0.6925  0.0387  0.2684
 4569TIP3    H113713   1.924   1.428   3.272  0.6926  0.5335 -0.3756
 4569TIP3    H213714   1.896   1.515   3.152 -0.0042 -0.5303 -1.0022
 4570TIP3   OH213715   5.189   3.052   0.164 -0.9870 -0.2651  0.3517
 4570TIP3    H113716   5.179   2.961   0.137 -0.4637 -0.8874  2.1075
 4570TIP3    H213717   5.278   3.058   0.199 -1.2941  0.6826  1.0483
 4571TIP3   OH213718   2.386   0.934   2.795 -0.3204  0.1149  0.9069
 4571TIP3    H113719   2.450   0.896   2.855  0.3875 -0.6734 -0.3044
 4571TIP3    H213720   2.439   0.974   2.726 -1.1054 -0.8922 -0.3287
 4572TIP3   OH213721   0.473   5.595   3.634  0.0626 -0.0878  0.0862
 4572TIP3    H113722   0.391   5.569   3.676  0.0541  0.0820  0.1744
 4572TIP3    H213723   0.510   5.513   3.601 -1.0732  0.0296 -1.6619
 4573TIP3   OH213724   2.540   5.170   1.365 -0.3897  0.0534  0.2570
 4573TIP3    H113725   2.528   5.076   1.361  1.3343 -0.2409  1.0606
 4573TIP3    H213726   2.549   5.190   1.458 -0.4093  0.9525  0.0804
 4574TIP3   OH213727   2.703   2.338   4.168  0.3339 -0.0321 -0.4303
 4574TIP3    H113728   2.639   2.369   4.232  1.4090 -0.0302  0.7004
 4574TIP3    H213729   2.661   2.264   4.125 -0.6268  0.3112 -0.1077
 4575TIP3   OH213730   4.250   3.921   1.894 -0.1532  0.2670 -0.3847
 4575TIP3    H113731   4.214   3.914   1.806  1.6260  1.2940 -1.2293
 4575TIP3    H213732   4.343   3.938   1.882 -0.1376  2.1356  1.6449
 4576TIP3   OH213733   5.816   1.478   3.352  0.1575 -0.1069  0.1806
 4576TIP3    H113734   5.730   1.497   3.314 -1.5139 -1.4712  2.9563
 4576TIP3    H213735   5.840   1.558   3.398  0.4564  0.3032 -0.6620
 4577TIP3   OH213736   4.016   1.394   0.457  0.5978  0.2861  0.4000
 4577TIP3    H113737   3.937   1.448   0.461 -0.1007 -0.7758  1.7791
 4577TIP3    H213738   3.993   1.325   0.394  1.4000  1.3704 -1.1674
 4578TIP3   OH213739   1.353   0.427   0.197 -0.2766 -0.6117  0.2224
 4578TIP3    H113740   1.349   0.507   0.144  0.6008  0.1084  1.1811
 4578TIP3    H213741   1.278   0.375   0.168 -0.3936  0.1945 -1.0006
 4579TIP3   OH213742   2.283   3.936   4.937  0.2979 -0.2222  0.1416
 4579TIP3    H113743   2.229   4.004   4.977  0.5759  0.6133 -0.8523
 4579TIP3    H213744   2.311   3.973   4.853  1.0506 -1.2836 -0.1093
 4580TIP3   OH213745   3.417   1.966   1.362  0.3746  0.6589 -0.0881
 4580TIP3    H113746   3.407   1.934   1.272  0.6084  1.3051 -0.3486
 4580TIP3    H213747   3.432   2.060   1.352  0.9199  0.6458  0.6021
 4581TIP3   OH213748   2.061   1.718   3.416  0.6154  0.0451 -0.2002
 4581TIP3    H113749   2.122   1.691   3.484 -0.8525  0.9992  1.6132
 4581TIP3    H213750   2.108   1.784   3.366  1.5835 -0.3332  0.1905
 4582TIP3   OH213751   3.432   2.106   3.454  0.5009  0.5523 -0.3951
 4582TIP3    H113752   3.346   2.132   3.420 -1.7687 -3.3546  1.7014
 4582TIP3    H213753   3.456   2.176   3.515 -1.4008  1.5463 -0.7199
 4583TIP3   OH213754   1.048   3.148   4.520 -0.8204 -1.0889 -0.2369
 4583TIP3    H113755   1.032   3.132   4.427  0.4699 -0.1181 -0.6548
 4583TIP3    H213756   0.963   3.131   4.562 -1.8863  0.0523 -1.8083
 4584TIP3   OH213757   0.815   2.477   2.584  0.3499 -0.0511  0.0583
 4584TIP3    H113758   0.788   2.470   2.676  2.5742  0.9247  0.8746
 4584TIP3    H213759   0.737   2.508   2.538 -0.2885  1.4680  2.0135
 4585TIP3   OH213760   6.274   0.556   3.672  0.6104  0.0559  0.3114
 4585TIP3    H113761   6.356   0.520   3.706  1.6178  2.1072  0.1760
 4585TIP3    H213762   6.222   0.575   3.750  1.5311  1.5545  0.6061
 4586TIP3   OH213763   1.696   3.031   0.401 -0.2949  0.3037 -0.0021
 4586TIP3    H113764   1.631   3.033   0.472 -0.0558  2.6010  0.2391
 4586TIP3    H213765   1.650   3.070   0.326  0.3109  0.5141 -0.2722
 4587TIP3   OH213766   0.247   5.013   4.753 -0.3110 -0.5905  0.0176
 4587TIP3    H113767   0.156   5.031   4.776 -0.1229 -0.4163  0.6444
 4587TIP3    H213768   0.247   4.922   4.723 -0.8054 -0.3773 -0.6518
 4588TIP3   OH213769   2.240   0.562   2.392 -0.1881  0.7179  0.1623
 4588TIP3    H113770   2.194   0.630   2.343  0.3159  1.6449  0.9409
 4588TIP3    H213771   2.201   0.564   2.479 -2.8036 -2.5663 -0.6972
 4589TIP3   OH213772   3.652   5.163   2.130 -0.1842 -0.4471  0.0337
 4589TIP3    H113773   3.708   5.134   2.202 -0.5117 -0.6082  0.2247
 4589TIP3    H213774   3.635   5.084   2.079 -1.1267 -0.6198  0.5893
 4590TIP3   OH213775   2.879   3.205   3.158  0.2816 -0.5935 -0.1221
 4590TIP3    H113776   2.798   3.164   3.126  0.3191 -1.0787  0.4001
 4590TIP3    H213777   2.855   3.241   3.243  0.7401 -1.1631  0.2516
 4591TIP3   OH213778   1.731   4.936   3.489  0.5143 -0.0832 -0.2813
 4591TIP3    H113779   1.726   4.857   3.544 -0.2490 -0.3594 -0.7309
 4591TIP3    H213780   1.650   4.934   3.438  0.2454  1.2739  0.0660
 4592TIP3   OH213781   0.440   3.026   4.460  0.2277  0.3718  0.0843
 4592TIP3    H113782   0.449   2.942   4.414  0.7113  0.2404  0.4101
 4592TIP3    H213783   0.427   3.090   4.390 -2.2527 -0.2165 -0.0754
 4593TIP3   OH213784   0.960   0.916   1.876 -0.0218 -0.5961  0.0023
 4593TIP3    H113785   0.974   1.001   1.833 -0.6723 -0.5041 -0.0389
 4593TIP3    H213786   0.917   0.937   1.958  0.3105 -0.8501  0.2428
 4594TIP3   OH213787   4.447   0.695   4.941 -0.0286  0.2880  0.1791
 4594TIP3    H113788   4.392   0.618   4.958 -1.9861  0.2542 -4.7328
 4594TIP3    H213789   4.387   0.769   4.952  0.1833  0.6174 -0.8371
 4595TIP3   OH213790   5.890   1.467   3.948  0.9979 -0.0134  0.0430
 4595TIP3    H113791   5.902   1.554   3.989  1.6411 -0.4692  0.8591
 4595TIP3    H213792   5.977   1.428   3.951  0.5577 -0.9865  0.3903
 4596TIP3   OH213793   5.519   4.353   1.698 -0.2183  0.4383  0.0249
 4596TIP3    H113794   5.432   4.342   1.737 -0.8053  0.0834 -1.3438
 4596TIP3    H213795   5.534   4.447   1.700  0.2300  0.3752  2.0369
 4597TIP3   OH213796   5.642   0.612   4.311  0.6787  0.5279 -0.0663
 4597TIP3    H113797   5.576   0.665   4.266 -0.7991 -0.5474  0.7175
 4597TIP3    H213798   5.610   0.522   4.301  1.9873 -0.0170  0.4427
 4598TIP3   OH213799   3.197   1.653   3.382 -0.1715 -0.5504  0.3560
 4598TIP3    H113800   3.116   1.604   3.376  0.5971 -1.7961 -0.1186
 4598TIP3    H213801   3.231   1.657   3.292  1.6716 -2.4922  0.8883
 4599TIP3   OH213802   3.384   4.344   1.134 -0.0840  0.1616 -0.3916
 4599TIP3    H113803   3.467   4.391   1.125 -0.4760  1.0451  0.4426
 4599TIP3    H213804   3.341   4.356   1.049 -0.4162  1.8201 -0.0203
 4600TIP3   OH213805   1.987   3.628   4.617  0.0471 -0.1069  0.8386
 4600TIP3    H113806   1.928   3.679   4.672 -0.2799  1.8449 -1.1630
 4600TIP3    H213807   2.057   3.689   4.594 -1.0382  0.0026 -2.7172
 4601TIP3   OH213808   5.890   3.663   0.768  0.0648  0.2350  0.4833
 4601TIP3    H113809   5.927   3.745   0.736  0.4601  0.7929  2.2914
 4601TIP3    H213810   5.963   3.618   0.810 -0.9723  0.8467  3.1089
 4602TIP3   OH213811   1.889   5.159   1.045 -0.3049  0.2639 -0.5428
 4602TIP3    H113812   1.835   5.084   1.020 -1.2924  1.4695 -2.2296
 4602TIP3    H213813   1.972   5.146   0.999  0.9565 -1.5425  1.9779
 4603TIP3   OH213814   3.081   5.019   0.101  0.1517 -0.0755 -0.8688
 4603TIP3    H113815   3.015   4.980   0.043 -1.9137  0.0507  1.2475
 4603TIP3    H213816   3.045   5.104   0.125  0.9243 -0.1228  0.6036
 4604TIP3   OH213817   4.940   2.105   4.101  0.1972  0.2025 -0.4621
 4604TIP3    H113818   4.928   2.115   4.006 -0.8829  0.3072 -0.3236
 4604TIP3    H213819   4.933   2.011   4.116  4.0716 -0.3337 -0.9303
 4605TIP3   OH213820   5.234   0.408   2.195 -0.2429 -0.0875 -0.4466
 4605TIP3    H113821   5.258   0.499   2.175 -1.0806  0.0732 -0.7670
 4605TIP3    H213822   5.294   0.383   2.266 -0.0452  0.7380 -0.3040
 4606TIP3   OH213823   2.139   3.720   2.599 -0.2985  0.8054  0.6862
 4606TIP3    H113824   2.192   3.734   2.677 -0.3720  0.4936  0.7932
 4606TIP3    H213825   2.050   3.709   2.633 -0.3386  0.7200  0.5525
 4607TIP3   OH213826   5.841   4.567   4.938 -0.2957  0.1920  0.3078
 4607TIP3    H113827   5.919   4.538   4.889 -1.3440 -1.5015 -0.4495
 4607TIP3    H213828   5.800   4.632   4.881 -1.8783 -2.2539 -1.5256
 4608TIP3   OH213829   3.209   2.171   4.151  0.4673  0.6259  0.7620
 4608TIP3    H113830   3.260   2.248   4.127 -0.4355  0.4303 -2.3165
 4608TIP3    H213831   3.130   2.206   4.192  1.0316  1.1984  1.3681
 4609TIP3   OH213832   3.813   2.097   3.926 -0.0347  0.3238  0.3598
 4609TIP3    H113833   3.811   2.002   3.939 -0.7269  0.3483  0.4729
 4609TIP3    H213834   3.742   2.130   3.981  0.7000  0.9875  0.9400
 4610TIP3   OH213835   2.892   1.997   2.019  0.0665  0.1080 -0.3955
 4610TIP3    H113836   2.949   2.072   2.007 -0.3228  0.4304 -0.2313
 4610TIP3    H213837   2.950   1.921   2.015  0.6988  0.4878  1.0531
 4611TIP3   OH213838   3.220   4.105  -0.031 -0.4075  0.0338 -0.2007
 4611TIP3    H113839   3.291   4.047  -0.001  1.6201  2.2702 -0.3541
 4611TIP3    H213840   3.207   4.165   0.042  0.8610  2.2339 -1.6815
 4612TIP3   OH213841   0.133   4.743   0.734  0.6515 -0.0697  0.2494
 4612TIP3    H113842   0.115   4.833   0.762  3.3038  0.3457  0.8955
 4612TIP3    H213843   0.223   4.746   0.703  0.9929 -2.6266  0.8041
 4613TIP3   OH213844   6.248   3.555   1.805  0.3440 -0.3658 -0.4686
 4613TIP3    H113845   6.171   3.604   1.833 -1.4035 -2.1313 -1.8349
 4613TIP3    H213846   6.269   3.498   1.879  0.6597  0.4751  0.0933
 4614TIP3   OH213847   3.657   4.179   4.601  0.7563 -0.1026  0.0000
 4614TIP3    H113848   3.732   4.208   4.549 -0.1082 -0.6760 -1.6141
 4614TIP3    H213849   3.645   4.087   4.578  0.9530 -0.6848  2.0020
 4615TIP3   OH213850   2.827   3.589   0.621  0.0687  0.6132 -0.3141
 4615TIP3    H113851   2.897   3.619   0.679 -0.1698 -0.3169  0.4662
 4615TIP3    H213852   2.747   3.595   0.674  0.0126 -1.3936 -0.1110
 4616TIP3   OH213853   3.848   1.980   3.150  0.2868  0.0164 -0.3041
 4616TIP3    H113854   3.897   1.956   3.228  0.4550 -0.6508 -0.6064
 4616TIP3    H213855   3.776   1.916   3.147 -0.5802  0.9500  0.1091
 4617TIP3   OH213856   5.890   1.863   3.908 -0.4820  0.0990  0.5406
 4617TIP3    H113857   5.906   1.907   3.825  0.3127 -0.4223  0.4115
 4617TIP3    H213858   5.975   1.830   3.935 -0.6665  0.5106  1.7141
 4618TIP3   OH213859   5.528   0.788   3.738 -0.2394  0.6653 -0.3607
 4618TIP3    H113860   5.516   0.849   3.810  3.1141  0.4924  0.5134
 4618TIP3    H213861   5.467   0.716   3.757 -0.8921  1.5618  1.1333
 4619TIP3   OH213862   5.452   1.578   2.813 -0.0815  0.1978  0.8428
 4619TIP3    H113863   5.433   1.532   2.895 -1.1510  1.0565  1.0882
 4619TIP3    H213864   5.547   1.591   2.815  0.2228 -1.6575  0.9323
 4620TIP3   OH213865   2.636   2.688   1.675 -0.3395  0.1872 -0.3016
 4620TIP3    H113866   2.574   2.704   1.604 -0.9142 -1.5479 -0.2240
 4620TIP3    H213867   2.719   2.726   1.644 -0.3604 -1.2380 -2.2578
 4621TIP3   OH213868   1.539   4.603   4.125  0.4005 -0.5906 -0.0897
 4621TIP3    H113869   1.483   4.681   4.122  0.9818 -0.1906 -0.7325
 4621TIP3    H213870   1.551   4.587   4.219 -1.9480 -1.5438  0.0987
 4622TIP3   OH213871   6.235   3.221   0.995  0.0834 -0.1456 -0.3732
 4622TIP3    H113872   6.258   3.299   1.045 -0.1482 -0.5687  0.4134
 4622TIP3    H213873   6.156   3.246   0.947 -0.0704  0.0652 -0.0182
 4623TIP3   OH213874   5.224   3.976   3.007  0.1225 -0.8274 -0.3108
 4623TIP3    H113875   5.197   3.983   3.099  0.8767 -0.2131 -0.1200
 4623TIP3    H213876   5.195   4.058   2.967 -0.9194 -1.4356 -0.8264
 4624TIP3   OH213877   0.915   1.440   4.721 -0.4055  0.4922  0.2543
 4624TIP3    H113878   0.977   1.464   4.653 -1.2749 -0.2549 -0.8523
 4624TIP3    H213879   0.914   1.344   4.720 -1.1036  0.4840  0.6821
 4625TIP3   OH213880   4.678   2.130   0.013  0.1181 -0.4694 -0.1056
 4625TIP3    H113881   4.723   2.086  -0.060  0.7239 -1.3581  0.7688
 4625TIP3    H213882   4.736   2.115   0.088 -0.5375  0.3532  0.5729
 4626TIP3   OH213883   2.024   1.224   0.756  0.2323 -0.4228  0.1056
 4626TIP3    H113884   1.958   1.167   0.718  0.4553 -0.3739 -0.3670
 4626TIP3    H213885   2.095   1.223   0.692 -0.2814  1.3958 -0.5456
 4627TIP3   OH213886   1.885   0.384   4.776 -0.7140  0.5617  0.4214
 4627TIP3    H113887   1.802   0.393   4.730 -0.4910  1.8649  0.2147
 4627TIP3    H213888   1.951   0.407   4.710  0.3491 -5.0717 -0.9851
 4628TIP3   OH213889   1.922   2.271   4.906 -0.3732  0.5561 -0.2116
 4628TIP3    H113890   1.863   2.236   4.973 -2.1511 -1.1985 -2.4870
 4628TIP3    H213891   1.909   2.366   4.910 -0.8073  0.4577  1.5543
 4629TIP3   OH213892   2.821   4.828   3.727 -0.1192 -0.2931  0.7444
 4629TIP3    H113893   2.898   4.857   3.776  0.1204 -0.3667  0.4146
 4629TIP3    H213894   2.827   4.874   3.643  0.0352 -0.9731  0.3818
 4630TIP3   OH213895   1.890   0.234   3.850  0.1154 -0.0138  0.2434
 4630TIP3    H113896   1.972   0.273   3.821  0.6576  1.0459  2.9254
 4630TIP3    H213897   1.903   0.216   3.943 -2.3119 -0.8742  0.4955
 4631TIP3   OH213898   5.354   1.852   1.599  0.2500 -0.3040  0.5578
 4631TIP3    H113899   5.397   1.768   1.579 -1.3845 -0.8672 -0.8066
 4631TIP3    H213900   5.356   1.899   1.516 -0.1920  0.3935  0.9416
 4632TIP3   OH213901   0.367   0.916   1.117 -0.1918  0.1668 -0.0240
 4632TIP3    H113902   0.334   1.005   1.109  0.5235  0.5967  1.5471
 4632TIP3    H213903   0.318   0.878   1.190  0.1559 -0.4294 -0.0898
 4633TIP3   OH213904   3.316   5.167   0.073 -0.1066  0.1343 -0.5107
 4633TIP3    H113905   3.401   5.125   0.066 -0.2256 -0.6351  1.8568
 4633TIP3    H213906   3.253   5.098   0.053 -0.2471 -0.4570  1.7244
 4634TIP3   OH213907   5.416   4.665   0.399 -0.3401  0.3908  0.4224
 4634TIP3    H113908   5.340   4.710   0.436 -1.4115 -0.9168 -0.0669
 4634TIP3    H213909   5.384   4.628   0.317  0.2781 -1.6892  1.0444
 4635TIP3   OH213910   5.227   0.979   2.149 -0.1416  0.1832  0.4912
 4635TIP3    H113911   5.184   0.934   2.076 -3.0934 -0.4127  2.3851
 4635TIP3    H213912   5.303   0.925   2.170 -1.4294 -1.8256  0.2520
 4636TIP3   OH213913   5.766   4.229   0.266 -0.2857  0.2794 -0.0457
 4636TIP3    H113914   5.760   4.173   0.188 -0.5713  1.1245 -0.6474
 4636TIP3    H213915   5.736   4.315   0.236 -1.6900  0.3219  1.3275
 4637TIP3   OH213916   3.010   3.882   2.326  1.0531 -0.1504  0.2712
 4637TIP3    H113917   2.932   3.838   2.291 -0.0323  1.1261  0.9640
 4637TIP3    H213918   3.040   3.825   2.396  0.4928 -0.4886  0.2455
 4638TIP3   OH213919   1.655   1.059   5.019  0.7207  0.0330 -0.3164
 4638TIP3    H113920   1.739   1.083   4.981  0.8014  0.7755  0.2927
 4638TIP3    H213921   1.605   1.021   4.947  1.1739  0.6216 -0.9530
 4639TIP3   OH213922   5.523   2.564   2.391  0.2854  0.0988  0.1037
 4639TIP3    H113923   5.499   2.472   2.381 -1.0490  0.3626  0.6566
 4639TIP3    H213924   5.582   2.581   2.318 -1.9488 -0.3865 -1.9565
 4640TIP3   OH213925   0.696   3.727   4.210  0.2560 -0.1558 -0.1473
 4640TIP3    H113926   0.664   3.807   4.169 -1.6454 -0.0395  1.4061
 4640TIP3    H213927   0.630   3.661   4.186 -0.2834 -0.3339  1.6769
 4641TIP3   OH213928   2.342   2.679   3.093 -0.2456 -0.2192 -0.6811
 4641TIP3    H113929   2.312   2.760   3.052 -1.0807  0.1604  0.6166
 4641TIP3    H213930   2.264   2.623   3.092 -0.0747 -0.4621 -0.2696
 4642TIP3   OH213931   2.577   3.039   1.694  0.0350 -0.1544  0.7941
 4642TIP3    H113932   2.563   2.955   1.650  1.7736  0.3270 -0.7755
 4642TIP3    H213933   2.493   3.057   1.737 -0.7311 -2.1522  0.2503
 4643TIP3   OH213934   4.469   2.510   1.157  0.0813 -0.3426  0.3567
 4643TIP3    H113935   4.525   2.551   1.223  0.1632 -1.9373  1.3226
 4643TIP3    H213936   4.433   2.584   1.108 -0.2502  0.9410  2.3864
 4644TIP3   OH213937   1.040   2.266   3.660 -0.4467  0.6583  0.1649
 4644TIP3    H113938   1.002   2.282   3.573 -1.2291  2.1990  0.7555
 4644TIP3    H213939   1.124   2.311   3.658 -0.1655  0.1308 -0.0070
 4645TIP3   OH213940   0.226   4.224   2.631  0.1974 -0.3041  0.6027
 4645TIP3    H113941   0.201   4.174   2.708  1.4071  2.2234  2.7925
 4645TIP3    H213942   0.172   4.303   2.635 -1.7502 -1.2230 -2.7984
 4646TIP3   OH213943   3.704   5.647   2.004  0.1406 -0.2971  0.0479
 4646TIP3    H113944   3.687   5.730   2.048  2.2455  0.1369  0.1497
 4646TIP3    H213945   3.761   5.670   1.930  0.6891 -1.6202  0.0287
 4647TIP3   OH213946   1.597   2.619   3.456  0.2355  0.2881  0.9299
 4647TIP3    H113947   1.604   2.676   3.379  0.9363 -1.4836 -0.4041
 4647TIP3    H213948   1.584   2.531   3.419  3.4179 -1.0827  2.7215
 4648TIP3   OH213949   4.518   5.183   2.213  0.0644 -0.3106  0.1848
 4648TIP3    H113950   4.470   5.118   2.161  0.7944 -0.0463 -0.8571
 4648TIP3    H213951   4.562   5.131   2.281  1.1927 -1.0203 -1.0505
 4649TIP3   OH213952   5.870   2.382   2.765 -0.7348 -0.3902  0.0130
 4649TIP3    H113953   5.777   2.365   2.749 -0.8491  1.0698 -1.0142
 4649TIP3    H213954   5.916   2.321   2.707 -1.0834 -0.0077 -0.6778
 4650TIP3   OH213955   1.744   4.234   2.239 -0.8491  0.5385  0.0910
 4650TIP3    H113956   1.758   4.328   2.232 -0.9068  0.5422  0.0236
 4650TIP3    H213957   1.663   4.218   2.189 -0.1197  0.2713 -1.0456
 4651TIP3   OH213958   3.152   0.377   4.706  0.7259  0.8747 -0.0952
 4651TIP3    H113959   3.083   0.433   4.743  0.3103  0.5018 -0.3042
 4651TIP3    H213960   3.115   0.345   4.624  1.4555  1.3017 -0.6008
 4652TIP3   OH213961   3.581   2.450   0.459  0.1403  0.2378  0.0514
 4652TIP3    H113962   3.489   2.431   0.474  0.5292 -1.1424  0.8163
 4652TIP3    H213963   3.582   2.542   0.432 -1.2111  1.0403  2.4662
 4653TIP3   OH213964   0.547   3.281   2.878 -0.0095  0.5470 -0.2160
 4653TIP3    H113965   0.552   3.189   2.849 -1.6063  0.7457 -1.2179
 4653TIP3    H213966   0.627   3.293   2.930  2.1704 -0.3727 -3.0715
 4654TIP3   OH213967   1.118   1.411   0.568  0.2482  0.3911 -0.2265
 4654TIP3    H113968   1.209   1.383   0.563  0.1525 -0.1945  0.9332
 4654TIP3    H213969   1.122   1.506   0.578  0.9046  0.1677  2.5589
 4655TIP3   OH213970   5.461   1.348   3.396 -0.6632 -0.3863 -0.1712
 4655TIP3    H113971   5.452   1.415   3.463  0.6407 -1.0870  0.7476
 4655TIP3    H213972   5.373   1.312   3.386 -1.3076  1.1538 -0.4038
 4656TIP3   OH213973   1.417   2.586   4.175 -0.3808  0.2335 -0.0419
 4656TIP3    H113974   1.496   2.537   4.192  0.0527  0.8706 -0.1680
 4656TIP3    H213975   1.345   2.526   4.195  0.1335 -0.4208 -0.1602
 4657TIP3   OH213976   5.209   0.837   3.955  0.5719 -0.0934 -0.0215
 4657TIP3    H113977   5.118   0.838   3.987  0.3442  0.5122 -0.6426
 4657TIP3    H213978   5.201   0.855   3.861  1.1560 -2.5367 -0.6165
 4658TIP3   OH213979   5.000   0.496   0.879 -0.4114  0.5493 -0.2762
 4658TIP3    H113980   5.066   0.439   0.840 -0.9518 -0.9766  0.9278
 4658TIP3    H213981   4.929   0.437   0.904 -1.4853  1.9108  0.0496
 4659TIP3   OH213982   2.303   3.705   1.269 -0.2254 -0.0801  0.2677
 4659TIP3    H113983   2.336   3.681   1.356  2.8777  0.3475 -0.6663
 4659TIP3    H213984   2.324   3.798   1.261  0.5128 -0.3556 -1.3193
 4660TIP3   OH213985   0.343   1.185   5.088  0.5188 -0.1380  0.0599
 4660TIP3    H113986   0.334   1.223   5.175  0.6604  1.2938 -0.5272
 4660TIP3    H213987   0.377   1.256   5.034  1.1518 -1.2136 -1.0074
 4661TIP3   OH213988   5.885   0.265   2.455  0.8678  0.4442 -0.0955
 4661TIP3    H113989   5.903   0.340   2.398  0.9471  0.7043  0.2686
 4661TIP3    H213990   5.909   0.295   2.543  0.2565  0.2243  0.1565
 4662TIP3   OH213991   4.935   5.287   0.411 -0.0465  0.2168  0.2575
 4662TIP3    H113992   5.009   5.315   0.464  0.0258  1.1355 -0.2994
 4662TIP3    H213993   4.884   5.229   0.469  1.4671 -1.0208  0.3995
 4663TIP3   OH213994   1.013   1.410   3.821 -0.0697  0.1218  0.1140
 4663TIP3    H113995   0.978   1.456   3.897 -0.2566 -1.2726  0.9116
 4663TIP3    H213996   0.944   1.417   3.755 -0.4265  0.2906  0.5005
 4664TIP3   OH213997   2.586   1.235   1.338  0.2431  0.2273 -1.0395
 4664TIP3    H113998   2.650   1.166   1.318  1.7141  0.6182  1.7381
 4664TIP3    H213999   2.527   1.235   1.263  2.3089 -1.5485 -2.8437
 4665TIP3   OH214000   0.618   5.424   2.698  0.1843 -0.0899  0.1951
 4665TIP3    H114001   0.609   5.437   2.604  3.0523 -2.4738 -0.5474
 4665TIP3    H214002   0.554   5.484   2.736 -1.6913  0.3540 -3.2436
 4666TIP3   OH214003   4.467   0.396   0.019 -0.2377  1.0534  0.2100
 4666TIP3    H114004   4.414   0.442  -0.046 -2.9409  1.7167  2.6755
 4666TIP3    H214005   4.484   0.461   0.087  0.3297 -0.2436  1.3663
 4667TIP3   OH214006   4.574   5.551   2.910 -0.4944 -0.0928 -0.4828
 4667TIP3    H114007   4.570   5.640   2.944 -0.2755  0.0176 -0.7396
 4667TIP3    H214008   4.488   5.536   2.871  0.0480  0.6747 -2.0739
 4668TIP3   OH214009   1.813   2.164   3.339  0.1088 -0.1931 -0.1469
 4668TIP3    H114010   1.720   2.146   3.353  0.2010  0.1381  0.9504
 4668TIP3    H214011   1.850   2.081   3.311  0.1089 -1.2260  2.6451
 4669TIP3   OH214012   4.100   2.798   2.743 -0.1111  0.4295  0.4094
 4669TIP3    H114013   4.052   2.816   2.662 -0.1134 -1.0699  0.0622
 4669TIP3    H214014   4.104   2.883   2.786 -1.2565  1.0073 -0.5351
 4670TIP3   OH214015   1.824   4.003   3.800  0.0806 -0.0193 -0.6544
 4670TIP3    H114016   1.917   4.005   3.780  0.2842 -1.3932  0.0503
 4670TIP3    H214017   1.788   3.936   3.742 -0.4826  0.4970 -0.9166
 4671TIP3   OH214018   3.779   2.006   0.455  0.0248  0.0766 -0.2258
 4671TIP3    H114019   3.853   2.044   0.502  0.7298  1.3761 -2.2501
 4671TIP3    H214020   3.702   2.049   0.493  0.4302 -0.0028  0.7227
 4672TIP3   OH214021   2.945   3.246   4.100  0.2124  0.0889  0.1800
 4672TIP3    H114022   2.918   3.219   4.012 -0.9355  0.6049  0.3582
 4672TIP3    H214023   3.041   3.253   4.094  0.1212  0.5657 -1.1512
 4673TIP3   OH214024   3.314   2.559   0.568  0.1695 -0.3642 -0.2086
 4673TIP3    H114025   3.368   2.639   0.573  1.7276 -1.3272 -0.8624
 4673TIP3    H214026   3.286   2.545   0.658 -0.3156  1.0276 -0.1126
 4674TIP3   OH214027   4.158   0.403   4.075 -0.6676 -0.1690 -0.4983
 4674TIP3    H114028   4.087   0.466   4.068 -0.3737  0.5552  2.0000
 4674TIP3    H214029   4.238   0.456   4.077 -0.4771 -0.3985  2.7341
 4675TIP3   OH214030   3.319   4.951   3.866  0.0134 -0.2504  0.6976
 4675TIP3    H114031   3.372   4.948   3.786 -0.9329 -0.7063  0.0638
 4675TIP3    H214032   3.381   4.973   3.935  0.8774  0.0371 -0.1443
 4676TIP3   OH214033   2.886   4.172   2.332 -0.5151 -0.0566 -0.8775
 4676TIP3    H114034   2.905   4.135   2.246  0.5587  1.4924 -1.3635
 4676TIP3    H214035   2.972   4.192   2.369 -1.0099  1.0238 -0.2553
 4677TIP3   OH214036   3.009   3.386   1.328  0.4247  0.1597 -0.0949
 4677TIP3    H114037   3.043   3.299   1.307  0.8936  0.0452  1.0885
 4677TIP3    H214038   2.933   3.370   1.383 -0.6572  0.4684 -1.4294
 4678TIP3   OH214039   0.905   2.359   1.672 -0.6747  0.0168  0.3227
 4678TIP3    H114040   0.882   2.452   1.667 -0.1984  0.2495  1.9279
 4678TIP3    H214041   0.836   2.320   1.725 -1.5371 -0.8238 -1.3264
 4679TIP3   OH214042   5.897   0.747   5.092 -0.3967  0.2561 -0.0052
 4679TIP3    H114043   5.895   0.698   5.009  0.9600  0.6384 -0.2850
 4679TIP3    H214044   5.843   0.695   5.152  0.2751 -1.1143 -0.5487
 4680TIP3   OH214045   5.766   3.860   4.369  0.3883 -1.0164  0.3827
 4680TIP3    H114046   5.673   3.842   4.379  0.4884 -0.7643  2.0250
 4680TIP3    H214047   5.784   3.843   4.276 -1.2416 -1.2209  0.0776
 4681TIP3   OH214048   2.925   4.810   1.224  0.4670  0.4026 -0.1200
 4681TIP3    H114049   2.850   4.841   1.172 -0.4503 -1.0815  0.2529
 4681TIP3    H214050   2.887   4.784   1.307  1.4384 -0.1706  0.1576
 4682TIP3   OH214051   4.542   5.137   4.462  0.1804  0.0862 -0.7640
 4682TIP3    H114052   4.510   5.068   4.521  0.5691  0.9263  0.4665
 4682TIP3    H214053   4.464   5.163   4.412 -0.4800  0.3116  0.3635
 4683TIP3   OH214054   4.655   0.602   0.651 -0.2725 -0.1008 -0.2967
 4683TIP3    H114055   4.733   0.639   0.609 -0.4707  0.7679  0.0623
 4683TIP3    H214056   4.588   0.669   0.638 -0.8539 -0.6728 -0.2635
 4684TIP3   OH214057   4.161   5.761   4.380 -0.4851  0.4253 -0.3058
 4684TIP3    H114058   4.229   5.820   4.349  0.0841 -0.3648 -0.6013
 4684TIP3    H214059   4.208   5.692   4.427 -1.1645  0.4140  0.3743
 4685TIP3   OH214060   6.125   5.840   4.956 -0.2245  0.4346 -0.0306
 4685TIP3    H114061   6.161   5.810   5.039 -0.5541  1.1196  0.3663
 4685TIP3    H214062   6.100   5.760   4.910  2.3107 -0.1156 -0.5743
 4686TIP3   OH214063   6.156   0.875   2.936  0.4982  0.3510 -0.1596
 4686TIP3    H114064   6.101   0.810   2.892 -1.8500  0.8676  1.7553
 4686TIP3    H214065   6.244   0.839   2.934 -0.5117 -2.3136 -0.2450
 4687TIP3   OH214066   5.117   3.718   2.010  0.1216  0.2048  0.6296
 4687TIP3    H114067   5.207   3.751   2.015 -0.5284  2.0020  1.4460
 4687TIP3    H214068   5.118   3.657   1.936  1.5940  1.5632 -0.5588
 4688TIP3   OH214069   0.409   5.434   4.002  0.1482  0.4640  0.3093
 4688TIP3    H114070   0.348   5.383   4.057 -0.4649  0.2673 -0.5373
 4688TIP3    H214071   0.492   5.388   4.008 -0.1578 -0.0849  0.3229
 4689TIP3   OH214072   5.582   1.325   2.195  0.1062 -0.2472  0.7134
 4689TIP3    H114073   5.670   1.290   2.208  0.2425 -1.8769 -3.3607
 4689TIP3    H214074   5.595   1.408   2.150 -0.4539 -0.2803  0.4855
 4690TIP3   OH214075   0.795   2.129   1.146  1.2814 -0.2022  0.7483
 4690TIP3    H114076   0.754   2.054   1.103  1.2689  0.2583 -0.0575
 4690TIP3    H214077   0.850   2.090   1.214  1.2636 -0.9471  0.3515
 4691TIP3   OH214078   1.349   4.469   1.447  0.5734 -0.7510 -0.0217
 4691TIP3    H114079   1.305   4.526   1.510  2.1418  0.3962  0.0660
 4691TIP3    H214080   1.304   4.485   1.365 -0.3881 -1.0170  0.4290
 4692TIP3   OH214081   4.413   0.397   0.338  0.5527 -0.7369  0.2119
 4692TIP3    H114082   4.446   0.482   0.309 -1.1704  0.3984  1.4069
 4692TIP3    H214083   4.353   0.369   0.269 -1.7175  0.8407  1.4069
 4693TIP3   OH214084   5.049   4.220   4.026  0.2033  0.7103 -0.2576
 4693TIP3    H114085   5.101   4.209   3.946 -1.1986  2.4317 -1.4924
 4693TIP3    H214086   4.962   4.189   4.002  0.0403  0.1357  1.0123
 4694TIP3   OH214087   5.344   2.101   0.988 -0.0353 -0.1691  0.1894
 4694TIP3    H114088   5.303   2.015   0.989  1.2197 -0.7990 -0.2415
 4694TIP3    H214089   5.416   2.093   0.926  1.4895  0.5155  1.7871
 4695TIP3   OH214090   1.688   5.404   3.972  0.4823  0.0178  0.4776
 4695TIP3    H114091   1.682   5.398   3.876  0.2646 -1.1101  0.5488
 4695TIP3    H214092   1.621   5.468   3.996  0.5117  0.2842 -0.1227
 4696TIP3   OH214093   4.033   3.971   4.262  0.3874 -0.4116  0.1208
 4696TIP3    H114094   3.961   3.935   4.313  1.3168 -1.1673  0.9204
 4696TIP3    H214095   4.004   3.964   4.171 -0.1760 -1.5378  0.3766
 4697TIP3   OH214096   2.139   3.781   0.287 -0.2793  0.3325 -0.3569
 4697TIP3    H114097   2.047   3.771   0.262 -0.6426  0.1908  0.9856
 4697TIP3    H214098   2.155   3.710   0.349  0.6951  0.4596 -0.4572
 4698TIP3   OH214099   3.759   2.634   2.744  0.8285  0.3142  0.1737
 4698TIP3    H114100   3.742   2.654   2.836  0.9994  0.2396  0.2223
 4698TIP3    H214101   3.843   2.588   2.745  1.2375  1.0321 -0.0998
 4699TIP3   OH214102  -0.013   3.918   4.678  0.0376  0.3609 -0.7897
 4699TIP3    H114103   0.006   3.969   4.757 -1.9943 -2.0540  1.4585
 4699TIP3    H214104   0.066   3.868   4.662  0.9715  1.8947 -1.2122
 4700TIP3   OH214105   3.706   2.235   3.279 -0.0470 -0.2198  0.0985
 4700TIP3    H114106   3.611   2.247   3.277  0.0369  0.3521 -1.2153
 4700TIP3    H214107   3.727   2.185   3.200  0.9052  1.0726 -0.5135
 4701TIP3   OH214108   2.352   0.796   1.025 -0.7142 -0.0827 -0.4385
 4701TIP3    H114109   2.271   0.847   1.031  0.4092  1.6033  1.8909
 4701TIP3    H214110   2.419   0.859   1.001  0.4253 -0.7692  0.7513
 4702TIP3   OH214111   5.521   1.350   1.574 -0.6535 -0.1672  0.5926
 4702TIP3    H114112   5.474   1.309   1.646  1.0782  0.0329  1.8954
 4702TIP3    H214113   5.583   1.283   1.545  0.0089  0.4232  0.6175
 4703TIP3   OH214114   2.714   3.255   1.790  0.3145  0.2432 -0.0465
 4703TIP3    H114115   2.670   3.177   1.758 -0.0030  1.0949 -1.8350
 4703TIP3    H214116   2.650   3.299   1.845  0.3658 -0.5600  0.6598
 4704TIP3   OH214117   2.848   4.883   4.749  0.5600  0.2338  0.7401
 4704TIP3    H114118   2.875   4.854   4.836  3.7716  1.6260  0.3305
 4704TIP3    H214119   2.777   4.823   4.724  0.0530 -0.6695  3.9499
 4705TIP3   OH214120   4.943   0.713   4.038 -0.6065 -0.2873  0.3695
 4705TIP3    H114121   4.930   0.792   4.090 -0.2454  0.0864 -0.1003
 4705TIP3    H214122   5.014   0.666   4.082  0.0530  0.2835 -0.0778
 4706TIP3   OH214123   4.637   5.398   0.748  0.5757  0.4418  0.1507
 4706TIP3    H114124   4.687   5.354   0.817 -0.8363 -0.4938  0.6109
 4706TIP3    H214125   4.579   5.331   0.713 -1.1073  1.7250  0.3440
 4707TIP3   OH214126   1.985   1.199   2.502  0.3214 -0.5644  0.3065
 4707TIP3    H114127   2.053   1.145   2.542  0.9093  0.0081  0.0984
 4707TIP3    H214128   2.012   1.289   2.518 -0.5425 -0.3233  0.4711
 4708TIP3   OH214129   2.950   5.381   0.902  0.2030  0.1230 -0.3982
 4708TIP3    H114130   3.004   5.430   0.840  1.4621 -1.6724 -0.7740
 4708TIP3    H214131   2.860   5.408   0.881  0.7768  1.5162 -1.2202
 4709TIP3   OH214132   2.495   4.965   1.680 -0.0643 -0.3159 -0.1947
 4709TIP3    H114133   2.573   4.932   1.724  0.9638 -0.3534 -1.9677
 4709TIP3    H214134   2.437   4.890   1.674  0.4181 -0.6872 -0.2483
 4710TIP3   OH214135   0.292   0.225   2.466 -0.0866 -0.1200 -0.0615
 4710TIP3    H114136   0.241   0.247   2.388 -1.1021  1.1959  0.9268
 4710TIP3    H214137   0.355   0.159   2.436 -1.3652 -0.6827 -1.6703
 4711TIP3   OH214138   5.214   1.789   2.243  0.2145 -0.0373  0.3076
 4711TIP3    H114139   5.155   1.723   2.279  0.4490 -0.5483 -0.2230
 4711TIP3    H214140   5.168   1.823   2.166  0.1401  0.3472  0.5201
 4712TIP3   OH214141   4.979   3.410   4.801  0.4275  0.1660  0.3124
 4712TIP3    H114142   4.950   3.495   4.769  1.0170  0.8622  1.5784
 4712TIP3    H214143   5.046   3.429   4.866  1.1565 -1.3003  0.0494
 4713TIP3   OH214144   2.067   2.926   2.499  0.3454 -0.1882 -0.2773
 4713TIP3    H114145   2.131   2.908   2.429  0.8226  0.8745 -0.1472
 4713TIP3    H214146   2.108   2.997   2.550 -1.3514  1.2337 -0.7865
 4714TIP3   OH214147   1.891   3.583   3.277  0.2418  0.3300  0.5131
 4714TIP3    H114148   1.950   3.512   3.303 -0.6587 -0.5886  0.1207
 4714TIP3    H214149   1.936   3.663   3.305  1.7647 -0.3187  0.0536
 4715TIP3   OH214150   3.324   3.293   3.339  0.2235 -0.1241  0.2197
 4715TIP3    H114151   3.294   3.336   3.419  0.5157  2.2067 -0.8239
 4715TIP3    H214152   3.267   3.327   3.271 -0.4472 -2.5697 -0.5446
 4716TIP3   OH214153   4.274   1.971   0.283  0.3892 -0.3551  0.6085
 4716TIP3    H114154   4.285   2.020   0.202  0.3247 -1.7778 -0.3034
 4716TIP3    H214155   4.358   1.978   0.328  0.4316  0.4297  0.4130
 4717TIP3   OH214156   3.457   0.844   0.536  0.6715 -0.3624 -0.3714
 4717TIP3    H114157   3.470   0.749   0.526  0.4191 -0.3499 -0.8089
 4717TIP3    H214158   3.393   0.851   0.607  1.7395 -0.4705  0.6480
 4718TIP3   OH214159   2.022   2.138   3.131  0.4812  0.3129  0.1247
 4718TIP3    H114160   2.002   2.160   3.040 -0.6815 -0.1072  0.2675
 4718TIP3    H214161   1.983   2.052   3.145 -1.5568  1.4128  1.7280
 4719TIP3   OH214162   5.351   0.453   0.111 -0.4129  0.1851 -0.1563
 4719TIP3    H114163   5.392   0.429   0.194 -0.3129  2.4426  0.5083
 4719TIP3    H214164   5.420   0.439   0.046 -0.2083 -0.7462  0.2330
 4720TIP3   OH214165   5.780   2.070   1.489 -0.0824 -0.3944 -0.0016
 4720TIP3    H114166   5.756   2.023   1.409 -0.7774 -0.8541  0.4572
 4720TIP3    H214167   5.704   2.059   1.546  0.3159  0.1138  0.6406
 4721TIP3   OH214168   2.593   1.309   3.625  0.3997  0.2502 -0.4369
 4721TIP3    H114169   2.514   1.352   3.591  0.7577  1.4511  0.1942
 4721TIP3    H214170   2.569   1.216   3.629  0.0337  0.1298 -3.0807
 4722TIP3   OH214171   2.594   2.502   2.757 -0.0763  0.0698 -0.1944
 4722TIP3    H114172   2.663   2.438   2.775  0.5498  0.6340 -0.5661
 4722TIP3    H214173   2.562   2.479   2.670  0.4724  0.5439 -0.5265
 4723TIP3   OH214174   1.001   3.778   2.072 -0.0347  0.3472 -0.0982
 4723TIP3    H114175   0.967   3.744   2.155 -1.0935  0.7758 -0.3299
 4723TIP3    H214176   0.934   3.754   2.008 -1.1631  3.2854 -0.1978
 4724TIP3   OH214177   2.080   4.536   2.034  0.0534 -0.5537 -0.3266
 4724TIP3    H114178   2.121   4.610   1.989  0.3522 -0.6832 -0.2745
 4724TIP3    H214179   1.998   4.571   2.069 -0.8606 -0.7841 -2.1101
 4725TIP3   OH214180   0.071   0.054   1.773  0.5798 -0.0026  0.1851
 4725TIP3    H114181  -0.024   0.056   1.777  0.6010 -0.4941  1.9798
 4725TIP3    H214182   0.092  -0.038   1.755  0.7175  0.2322 -0.8982
 4726TIP3   OH214183   5.342   2.169   5.119  0.4191 -0.0491 -0.3332
 4726TIP3    H114184   5.401   2.122   5.061 -0.0503 -0.0183 -0.8392
 4726TIP3    H214185   5.284   2.218   5.061  0.4401  0.5948  0.1697
 4727TIP3   OH214186   0.330   0.775   0.243  0.0459 -0.2597 -0.0988
 4727TIP3    H114187   0.277   0.778   0.163  0.3164  1.4070 -0.2569
 4727TIP3    H214188   0.289   0.840   0.301  1.0461  0.0037  0.3338
 4728TIP3   OH214189   2.661   4.227   2.040 -0.3011 -0.2145 -0.7413
 4728TIP3    H114190   2.714   4.286   2.094  0.5796 -1.1137 -0.6058
 4728TIP3    H214191   2.648   4.274   1.958 -1.6570  1.1823  0.2219
 4729TIP3   OH214192   6.019   2.006   0.408  0.1524  0.8072 -0.8003
 4729TIP3    H114193   6.113   2.006   0.424  0.2589  0.1720 -1.4092
 4729TIP3    H214194   5.983   1.948   0.475  0.1500  1.2835 -0.3782
 4730TIP3   OH214195   3.138   5.916   3.464 -0.1194  0.2368 -0.2493
 4730TIP3    H114196   3.176   5.831   3.444  0.8309  0.8327 -1.0450
 4730TIP3    H214197   3.211   5.967   3.499 -1.3069 -0.2076  3.3366
 4731TIP3   OH214198  -0.006   0.848   0.641 -0.4659  0.5658 -0.1776
 4731TIP3    H114199   0.050   0.878   0.713  1.0444 -1.3717 -0.4885
 4731TIP3    H214200   0.055   0.822   0.572 -1.8524  0.9310 -1.5863
 4732TIP3   OH214201   0.823   0.867   2.501 -0.2062 -0.1139 -0.6690
 4732TIP3    H114202   0.876   0.816   2.440 -0.5107 -0.2230 -0.8474
 4732TIP3    H214203   0.825   0.956   2.464 -1.4141 -0.4240 -1.5550
 4733TIP3   OH214204   0.768   0.726   1.041  0.1540  0.1059  0.4872
 4733TIP3    H114205   0.812   0.792   1.094 -0.6920  1.2538 -0.1824
 4733TIP3    H214206   0.690   0.703   1.092 -0.5522  1.0593 -0.1316
 4734TIP3   OH214207   5.883   2.475   0.465 -0.0956  0.0099  0.1852
 4734TIP3    H114208   5.842   2.462   0.551 -1.1961  0.9876 -0.1681
 4734TIP3    H214209   5.952   2.409   0.462  0.3170  0.2886  2.0354
 4735TIP3   OH214210   3.427   4.753   1.578  0.4140  0.1483  0.6025
 4735TIP3    H114211   3.378   4.739   1.496 -0.0277 -0.9435  1.0271
 4735TIP3    H214212   3.391   4.835   1.613 -1.9340 -1.1103  1.4086
 4736TIP3   OH214213   3.213   5.504   0.113  0.2303  0.4017  0.7602
 4736TIP3    H114214   3.267   5.558   0.054  1.0392  3.0281  3.6144
 4736TIP3    H214215   3.169   5.568   0.170 -0.3082 -1.9233  3.1389
 4737TIP3   OH214216   1.257   1.481   2.341 -0.3675  0.1068  0.1258
 4737TIP3    H114217   1.339   1.480   2.389 -0.3428 -0.1800  0.0754
 4737TIP3    H214218   1.230   1.389   2.336  0.4295 -0.0598 -1.7739
 4738TIP3   OH214219   1.853   3.443   2.651 -0.1165  0.2581  0.2162
 4738TIP3    H114220   1.771   3.482   2.622  0.1521  1.3733  0.8786
 4738TIP3    H214221   1.827   3.373   2.711 -0.7338 -3.0383 -3.5216
 4739TIP3   OH214222   2.490   5.890   2.748 -0.7853  0.9738 -0.4140
 4739TIP3    H114223   2.469   5.983   2.754 -0.6312  0.9726  0.1288
 4739TIP3    H214224   2.532   5.868   2.831  1.1627  0.9030 -1.3764
 4740TIP3   OH214225   4.076   0.698   2.866  0.5597 -0.0826  0.4414
 4740TIP3    H114226   4.007   0.760   2.885 -0.3895 -0.0837 -2.4962
 4740TIP3    H214227   4.032   0.613   2.863  1.0083 -0.3125  0.2043
 4741TIP3   OH214228   0.203   1.567   4.032 -0.0007  0.2945 -0.2990
 4741TIP3    H114229   0.286   1.585   3.987  0.3702  0.9390  0.6222
 4741TIP3    H214230   0.213   1.479   4.067 -0.0377  0.0433 -0.9059
 4742TIP3   OH214231   2.956   3.667   3.686 -0.4971 -0.0876 -0.2253
 4742TIP3    H114232   2.997   3.745   3.722 -0.1189 -0.9206  1.2556
 4742TIP3    H214233   2.863   3.687   3.683 -0.3870  0.4722  0.0056
 4743TIP3   OH214234   5.269   5.100   1.580 -0.3266  0.2513  0.4772
 4743TIP3    H114235   5.180   5.125   1.604  0.3121  1.3819  1.8420
 4743TIP3    H214236   5.313   5.183   1.561  0.8298 -0.1446  1.2958
 4744TIP3   OH214237   4.435   4.673   3.655  0.1535  0.1856  0.2755
 4744TIP3    H114238   4.531   4.669   3.651  0.2845  2.6023 -1.4584
 4744TIP3    H214239   4.417   4.761   3.689 -1.4373  0.2364 -0.6114
 4745TIP3   OH214240   4.809   0.920   1.718  0.2630  0.1551  0.4465
 4745TIP3    H114241   4.781   0.838   1.759 -1.7830  1.3348  1.5757
 4745TIP3    H214242   4.779   0.913   1.627 -1.5690  0.3435  0.9975
 4746TIP3   OH214243   5.012   3.612   2.750  0.3662  0.7380  0.0249
 4746TIP3    H114244   5.074   3.655   2.690 -0.7738  1.9664 -0.3019
 4746TIP3    H214245   4.990   3.679   2.814 -0.1455  0.1134  0.5086
 4747TIP3   OH214246   0.334   4.021   0.867 -0.3242  0.5271 -0.0832
 4747TIP3    H114247   0.351   4.100   0.816 -0.5715  1.4377  1.2064
 4747TIP3    H214248   0.421   3.983   0.882  0.1203  2.0579  1.5949
 4748TIP3   OH214249   5.637   5.257   2.173  0.2038 -0.7289  0.0609
 4748TIP3    H114250   5.697   5.186   2.191  0.0527 -1.1269 -0.9136
 4748TIP3    H214251   5.551   5.215   2.168  0.0987 -0.4660 -0.4060
 4749TIP3   OH214252   4.210   0.359   2.620  0.2055 -0.8166  0.4575
 4749TIP3    H114253   4.217   0.449   2.652 -0.7334 -0.7109  0.4041
 4749TIP3    H214254   4.228   0.305   2.697 -1.3246 -0.5622  1.0188
 4750TIP3   OH214255   4.716   5.759   4.682  0.5903 -0.6192  0.2765
 4750TIP3    H114256   4.641   5.819   4.679  0.8494 -0.2984  0.2021
 4750TIP3    H214257   4.753   5.771   4.769  1.4741  0.3564 -0.2094
 4751TIP3   OH214258   2.206   1.555   1.706  0.1709  0.1822  0.3729
 4751TIP3    H114259   2.230   1.640   1.743  0.8605 -0.5280  1.6217
 4751TIP3    H214260   2.283   1.526   1.658  0.9601 -0.8871  2.1562
 4752TIP3   OH214261   0.405   4.592   0.253  0.0123  0.3327 -0.1756
 4752TIP3    H114262   0.462   4.653   0.206 -1.0027 -0.1506 -2.1402
 4752TIP3    H214263   0.322   4.638   0.260 -0.6209 -0.5825 -1.2493
 4753TIP3   OH214264   0.226   4.452   1.927  0.8019 -0.2612  0.1689
 4753TIP3    H114265   0.244   4.471   1.834  1.6122 -2.1219 -0.1138
 4753TIP3    H214266   0.305   4.479   1.972  0.5694  0.2661  0.2618
 4754TIP3   OH214267   5.685   0.927   1.235  0.3910  0.4454 -0.0053
 4754TIP3    H114268   5.745   0.853   1.232  0.7767  0.6881  1.0892
 4754TIP3    H214269   5.709   0.980   1.158  0.9912  0.1017 -0.0620
 4755TIP3   OH214270   5.338   4.033   1.300 -0.4731 -0.0751 -0.0069
 4755TIP3    H114271   5.336   3.943   1.333  0.2176 -0.7608 -1.6884
 4755TIP3    H214272   5.305   4.026   1.210 -1.1454  1.4960  0.0814
 4756TIP3   OH214273   6.170   3.434   2.473  0.5076  0.7812  0.4854
 4756TIP3    H114274   6.201   3.518   2.437  0.5049  0.5739 -0.0055
 4756TIP3    H214275   6.075   3.445   2.480  0.5130  0.8379  0.4728
 4757TIP3   OH214276   5.314   5.195   0.683 -0.1601  0.7639  0.5654
 4757TIP3    H114277   5.272   5.175   0.767  0.5948  1.0011  1.0126
 4757TIP3    H214278   5.242   5.196   0.620 -0.6695  0.0843  1.1215
 4758TIP3   OH214279   5.365   3.855   1.934 -0.6707 -0.4019  0.0846
 4758TIP3    H114280   5.442   3.872   1.988 -0.3315 -2.0492  0.1576
 4758TIP3    H214281   5.395   3.866   1.844 -1.2913  2.5789  0.1218
 4759TIP3   OH214282   2.834   0.695   2.935 -0.2630  0.0866  0.4218
 4759TIP3    H114283   2.788   0.698   3.018 -1.1692  0.5265 -0.0891
 4759TIP3    H214284   2.923   0.726   2.956 -0.1833 -0.7344  1.3965
 4760TIP3   OH214285   5.108   2.215   2.025  0.5598 -0.1796  0.1143
 4760TIP3    H114286   5.149   2.257   2.101  0.9624 -0.8002  0.2455
 4760TIP3    H214287   5.135   2.270   1.951  0.0801  0.4894  0.4245
 4761TIP3   OH214288   4.278   2.383   2.015 -0.1569 -1.0250 -0.4788
 4761TIP3    H114289   4.346   2.408   2.078  0.1230 -0.8492 -0.8530
 4761TIP3    H214290   4.196   2.391   2.065 -0.2434  2.0371 -0.9212
 4762TIP3   OH214291   6.058   1.888   2.230 -0.0583  0.2438 -0.0588
 4762TIP3    H114292   6.072   1.937   2.311  0.2385  0.7262 -0.4006
 4762TIP3    H214293   6.010   1.809   2.258 -1.8847  1.4274  0.3147
 4763TIP3   OH214294   5.785   4.848   3.264  0.2719 -0.3157 -0.2682
 4763TIP3    H114295   5.751   4.936   3.280  0.6103 -0.4272  1.2767
 4763TIP3    H214296   5.879   4.861   3.251  0.3079 -0.4418 -0.1336
 4764TIP3   OH214297   6.090   5.821   2.597 -0.0098 -0.3184 -0.5821
 4764TIP3    H114298   6.049   5.740   2.626 -1.9361  0.2566 -1.4683
 4764TIP3    H214299   6.036   5.891   2.636  0.9557  0.5165 -0.6995
 4765TIP3   OH214300   1.069   0.442   3.114 -0.0038 -0.6429  0.1223
 4765TIP3    H114301   1.087   0.500   3.040 -0.9613 -0.7636 -0.2155
 4765TIP3    H214302   1.002   0.382   3.082  0.2164 -1.2694  0.8061
 4766TIP3   OH214303   5.452   0.609   1.724  0.1877 -0.1740  0.3748
 4766TIP3    H114304   5.394   0.554   1.671 -0.1573 -1.6417  2.1744
 4766TIP3    H214305   5.539   0.570   1.711  0.1154 -0.4848  0.8002
 4767TIP3   OH214306   6.077   3.672   3.497  0.1560 -0.6201 -0.2965
 4767TIP3    H114307   6.125   3.653   3.417  0.6461 -0.9292  0.0650
 4767TIP3    H214308   5.986   3.683   3.469  0.3570 -0.5237 -0.9191
 4768TIP3   OH214309   1.855   0.100   3.116  0.0779  0.3280 -0.5812
 4768TIP3    H114310   1.910   0.173   3.088  0.7308  0.8172  1.7688
 4768TIP3    H214311   1.775   0.142   3.148 -0.6902 -0.2139 -1.7274
 4769TIP3   OH214312   6.008   3.149   0.257  0.2471 -0.2969 -0.1286
 4769TIP3    H114313   5.930   3.099   0.231 -0.4423 -0.8027  2.6605
 4769TIP3    H214314   6.009   3.224   0.196 -1.3049 -1.2714 -1.4391
 4770TIP3   OH214315   0.347   5.323   1.808 -0.2315 -0.2332  0.2898
 4770TIP3    H114316   0.418   5.265   1.782 -0.2822  0.5850 -1.8933
 4770TIP3    H214317   0.389   5.407   1.825 -0.3799 -0.4127  1.6475
 4771TIP3   OH214318   2.883   5.959   2.878  0.3554 -0.0301  0.2413
 4771TIP3    H114319   2.848   5.871   2.895 -1.6204  0.4648 -0.8666
 4771TIP3    H214320   2.957   5.944   2.820  0.5238 -1.0063  0.6800
 4772TIP3   OH214321   2.458   2.363   1.719 -0.3206 -0.1390  0.0423
 4772TIP3    H114322   2.476   2.415   1.797  2.6373 -2.3121  0.9863
 4772TIP3    H214323   2.450   2.273   1.750  1.2772 -1.1297 -2.0831
 4773TIP3   OH214324   1.581   4.268   1.894 -0.0498  0.2529 -0.3808
 4773TIP3    H114325   1.578   4.317   1.813  1.0899 -0.9517 -1.2041
 4773TIP3    H214326   1.674   4.246   1.905 -0.3000 -0.3027  0.8091
 4774TIP3   OH214327   1.579   0.720   4.631 -0.1020 -0.6359 -0.0959
 4774TIP3    H114328   1.573   0.793   4.693 -0.6888 -0.5568 -0.2396
 4774TIP3    H214329   1.498   0.724   4.580  0.4397 -0.6120 -0.9753
 4775TIP3   OH214330   6.140   0.644   4.569  0.7009 -0.2012  0.1580
 4775TIP3    H114331   6.094   0.578   4.518  2.2817  0.5146 -2.4086
 4775TIP3    H214332   6.193   0.594   4.631 -0.1991 -1.1903  0.1461
 4776TIP3   OH214333   2.620   0.868   3.465 -0.2527 -0.1230  0.2780
 4776TIP3    H114334   2.699   0.828   3.428  1.4519  1.5202  1.9500
 4776TIP3    H214335   2.583   0.800   3.521 -1.3960 -1.7021 -2.1837
 4777TIP3   OH214336   0.134   4.514   3.109 -0.4439 -0.6554  0.3829
 4777TIP3    H114337   0.089   4.599   3.111  0.7193 -0.0309  1.7628
 4777TIP3    H214338   0.078   4.456   3.160 -0.9243 -0.5588 -0.0255
 4778TIP3   OH214339   2.946   4.383   1.570  0.1609 -0.0024 -0.3092
 4778TIP3    H114340   2.947   4.303   1.518  1.1980 -0.1996 -0.0055
 4778TIP3    H214341   2.990   4.448   1.515 -2.1120  0.8501 -1.2520
 4779TIP3   OH214342   0.424   3.536   0.564 -0.7485 -0.5652 -0.5806
 4779TIP3    H114343   0.403   3.449   0.529 -1.0076 -0.3397 -0.9926
 4779TIP3    H214344   0.364   3.548   0.637  0.3164 -1.3637  0.4651
 4780TIP3   OH214345   4.022   2.253   0.435 -0.4212 -0.1229 -0.4417
 4780TIP3    H114346   4.070   2.330   0.404  0.6277 -0.4848  0.2234
 4780TIP3    H214347   3.937   2.259   0.391 -0.0874  0.9988 -0.9927
 4781TIP3   OH214348   4.992   5.715   3.480  0.2072  0.1236 -0.2943
 4781TIP3    H114349   4.908   5.704   3.436 -0.1796  1.1074  0.1573
 4781TIP3    H214350   5.047   5.758   3.416  0.6803 -1.3452 -0.9128
 4782TIP3   OH214351   0.907   0.222   3.379 -0.3763  0.2270 -0.4759
 4782TIP3    H114352   0.934   0.239   3.288 -1.4977  1.8450 -0.5590
 4782TIP3    H214353   0.838   0.156   3.371 -0.3893  0.2766 -0.7926
 4783TIP3   OH214354   3.345   1.518   1.843  0.5426 -0.6735  0.0890
 4783TIP3    H114355   3.316   1.501   1.754  0.6728  0.2060 -0.1313
 4783TIP3    H214356   3.353   1.431   1.883 -0.2519 -1.0359 -0.5147
 4784TIP3   OH214357   2.631   2.784   4.417 -0.2481 -0.4124 -0.3473
 4784TIP3    H114358   2.556   2.763   4.362  0.3684  0.0456 -1.4136
 4784TIP3    H214359   2.672   2.859   4.373 -0.9314  1.4184  1.9054
 4785TIP3   OH214360   4.351   4.970   1.140 -0.3767 -0.3995 -0.3742
 4785TIP3    H114361   4.421   4.904   1.138  0.3341  0.2991 -3.4682
 4785TIP3    H214362   4.395   5.050   1.167 -0.4486 -0.3934 -0.2740
 4786TIP3   OH214363   0.516   1.185   3.033  0.1676 -0.4715 -0.1210
 4786TIP3    H114364   0.570   1.239   2.977 -0.6652  2.1598  1.4240
 4786TIP3    H214365   0.457   1.138   2.973  1.4395 -0.2788 -1.5629
 4787TIP3   OH214366   5.256   4.662   3.507  0.3155  0.0154  0.1884
 4787TIP3    H114367   5.198   4.731   3.476 -2.2656 -1.1632  1.9791
 4787TIP3    H214368   5.243   4.661   3.602  2.5817 -0.9911  0.5658
 4788TIP3   OH214369   3.481   1.118   3.150  0.2113 -0.4623  0.2789
 4788TIP3    H114370   3.420   1.084   3.216  2.1961 -1.1644  1.8497
 4788TIP3    H214371   3.525   1.191   3.193  1.3054 -0.7144 -0.3725
 4789TIP3   OH214372   1.926   4.085   2.389  0.1055 -0.3689  0.0214
 4789TIP3    H114373   2.011   4.076   2.345  0.8940  0.4016  1.3177
 4789TIP3    H214374   1.874   4.137   2.328  0.3964 -1.2222 -0.9900
 4790TIP3   OH214375   0.848   1.606   3.918 -0.3096 -0.1536 -0.1598
 4790TIP3    H114376   0.836   1.692   3.959  0.2512 -0.2242  0.1643
 4790TIP3    H214377   0.842   1.544   3.990  0.5153 -0.2920 -0.1981
 4791TIP3   OH214378   3.048   4.455   3.105  0.0168  0.0669  0.2237
 4791TIP3    H114379   3.027   4.365   3.128 -0.2319  0.1944  0.4889
 4791TIP3    H214380   3.068   4.498   3.188  1.2278 -0.0257 -0.0002
 4792TIP3   OH214381   2.997   4.557   4.608 -0.2533  0.3497 -0.5761
 4792TIP3    H114382   2.907   4.553   4.639  0.2232  2.1633  1.2265
 4792TIP3    H214383   3.041   4.616   4.669  1.2994  2.4300 -3.4497
 4793TIP3   OH214384   5.620   2.000   0.913  0.8777 -0.1563  0.2511
 4793TIP3    H114385   5.693   1.989   0.974 -0.1767 -1.9589  1.2889
 4793TIP3    H214386   5.575   1.915   0.914 -1.9532  1.2182  0.6137
 4794TIP3   OH214387   1.371   4.720   2.280 -0.5009 -0.2724  0.7778
 4794TIP3    H114388   1.458   4.681   2.270 -0.3594  0.5447 -2.1764
 4794TIP3    H214389   1.312   4.661   2.234 -1.2808 -0.0047  1.4049
 4795TIP3   OH214390   5.136   3.830   1.216  0.3119 -0.2469  0.0272
 4795TIP3    H114391   5.115   3.865   1.130  0.9258  1.3038  0.4658
 4795TIP3    H214392   5.062   3.857   1.271 -0.7796 -2.4486 -0.2683
 4796TIP3   OH214393   3.162   4.631   4.964 -0.4525  0.0372  0.6511
 4796TIP3    H114394   3.229   4.566   4.942  0.6827  0.9567  1.2878
 4796TIP3    H214395   3.174   4.700   4.899 -1.2716 -0.1172  0.3308
 4797TIP3   OH214396   2.397   4.179   1.950 -0.3805  0.1640 -0.0395
 4797TIP3    H114397   2.376   4.089   1.976 -0.1263  0.3238  0.7616
 4797TIP3    H214398   2.477   4.199   1.997 -0.5422  0.8805 -0.0561
 4798TIP3   OH214399   2.764   2.109   0.273  0.2850  0.1241  0.2274
 4798TIP3    H114400   2.716   2.063   0.204  1.7983  1.2549 -1.6615
 4798TIP3    H214401   2.698   2.163   0.316 -0.6770 -0.5296 -0.3827
 4799TIP3   OH214402   6.342   0.996   1.931 -0.1198  0.2766 -1.2349
 4799TIP3    H114403   6.396   0.919   1.912 -0.0606 -0.5679  1.7500
 4799TIP3    H214404   6.252   0.964   1.929 -0.0952  0.0754  0.0104
 4800TIP3   OH214405   3.523   4.401   4.662 -0.2469  0.4488  0.0373
 4800TIP3    H114406   3.569   4.326   4.625 -0.1918  0.8270 -0.6864
 4800TIP3    H214407   3.538   4.472   4.599 -1.5272  0.6707 -0.0564
 4801TIP3   OH214408   2.656   4.087   5.142  0.2466  0.5909  0.0774
 4801TIP3    H114409   2.630   3.995   5.148 -1.1182  0.8679 -1.1117
 4801TIP3    H214410   2.748   4.088   5.169  1.0050 -1.4949 -2.0797
 4802TIP3   OH214411   3.975   0.207   2.558  0.7874  0.0613  0.1209
 4802TIP3    H114412   4.046   0.266   2.582  1.6923 -0.3111 -1.4845
 4802TIP3    H214413   3.987   0.192   2.464 -0.1736 -1.6504  0.2260
 4803TIP3   OH214414   1.781   1.678   3.507  0.7816 -0.2557 -0.0087
 4803TIP3    H114415   1.848   1.739   3.475  1.4560 -0.8619  0.2211
 4803TIP3    H214416   1.831   1.605   3.543 -0.0267 -1.8642 -2.0005
 4804TIP3   OH214417   0.311   0.919   1.978  0.5759 -0.9406 -0.0768
 4804TIP3    H114418   0.265   0.921   1.894  0.3630 -0.9702  0.0368
 4804TIP3    H214419   0.404   0.927   1.956  0.5351 -1.1474 -0.3294
 4805TIP3   OH214420   6.154   4.130   0.537  0.7028  0.3048 -0.2527
 4805TIP3    H114421   6.159   4.223   0.557 -0.0994  0.8318 -2.2274
 4805TIP3    H214422   6.060   4.112   0.527  0.9121 -0.3449 -1.3061
 4806TIP3   OH214423   5.598   3.942   3.422  0.0296  0.2003 -0.4661
 4806TIP3    H114424   5.511   3.910   3.447  0.3298 -0.3848 -0.1376
 4806TIP3    H214425   5.645   3.950   3.505  0.3356  0.3719 -0.6547
 4807TIP3   OH214426   5.277   5.550   1.895 -1.0304  0.2122 -0.2403
 4807TIP3    H114427   5.241   5.622   1.947  1.0203  2.5296 -1.8298
 4807TIP3    H214428   5.214   5.538   1.824 -3.1221 -2.0285  1.7663
 4808TIP3   OH214429   2.857   2.165   3.016  0.1002  0.0077  0.4203
 4808TIP3    H114430   2.881   2.137   3.105  1.8069 -0.0903 -0.0373
 4808TIP3    H214431   2.851   2.084   2.966  1.8289  0.2054 -0.1574
 4809TIP3   OH214432   1.564   4.613   0.389 -0.0317  0.0012  0.1660
 4809TIP3    H114433   1.511   4.684   0.353 -1.0347 -0.3693  0.8662
 4809TIP3    H214434   1.645   4.615   0.339 -0.2949  1.2505 -0.2238
 4810TIP3   OH214435   0.544   3.404   2.627  0.0324 -0.2288  0.3649
 4810TIP3    H114436   0.534   3.379   2.719  0.0687  1.6343  0.9143
 4810TIP3    H214437   0.524   3.324   2.579  0.5246 -1.3993  1.9928
 4811TIP3   OH214438   2.449   0.845   4.671  0.0978  0.3174  0.0829
 4811TIP3    H114439   2.538   0.834   4.705 -0.2244 -0.1358  0.7930
 4811TIP3    H214440   2.445   0.936   4.642  0.3026  0.8032  1.5161
 4812TIP3   OH214441   2.337   3.359   0.266 -0.2534 -0.2050  0.4557
 4812TIP3    H114442   2.272   3.321   0.206 -1.0941  1.5519  0.1778
 4812TIP3    H214443   2.400   3.402   0.208  0.2010 -0.4386  0.7779
 4813TIP3   OH214444   1.084   2.704   2.437 -0.3144  0.3637  0.3500
 4813TIP3    H114445   1.158   2.765   2.430 -1.6755  2.0222 -0.3780
 4813TIP3    H214446   1.007   2.760   2.437 -1.6454 -1.3784 -0.1791
 4814TIP3   OH214447   0.567   5.589   0.772  0.4168  0.1890  0.0746
 4814TIP3    H114448   0.520   5.591   0.856  0.7498  0.2775  0.2594
 4814TIP3    H214449   0.647   5.540   0.790 -0.2372 -1.1426 -0.5788
 4815TIP3   OH214450   4.896   1.482   3.292  0.8218 -0.0379 -0.5024
 4815TIP3    H114451   4.864   1.572   3.293 -1.1555 -0.6899 -0.4249
 4815TIP3    H214452   4.835   1.435   3.349  2.4249 -1.2440  0.2808
 4816TIP3   OH214453   5.554   2.361   3.728  0.2050  0.0696  0.3334
 4816TIP3    H114454   5.557   2.454   3.702 -0.7209 -0.6416 -2.8260
 4816TIP3    H214455   5.462   2.344   3.745  0.3789 -0.2748  0.9409
 4817TIP3   OH214456   2.168   3.487   4.297  0.0045 -0.8699  0.4010
 4817TIP3    H114457   2.179   3.493   4.202  3.3172 -2.0797  0.5805
 4817TIP3    H214458   2.095   3.426   4.309 -0.5434 -0.5988 -1.3516
 4818TIP3   OH214459   3.981   0.791   2.110  0.0461  0.3387  0.0065
 4818TIP3    H114460   3.937   0.865   2.069  1.2366  0.1476 -1.7313
 4818TIP3    H214461   3.942   0.785   2.197 -0.8512  2.3138 -0.2028
 4819TIP3   OH214462   1.751   5.717   2.385  0.2091 -0.3552 -0.3168
 4819TIP3    H114463   1.824   5.742   2.442 -0.2732 -1.0359  0.6368
 4819TIP3    H214464   1.766   5.765   2.304  1.0877  0.4113  0.2761
 4820TIP3   OH214465   4.306   4.308   0.181  0.1588  0.0272  0.2984
 4820TIP3    H114466   4.386   4.351   0.150  0.2333 -0.1151  0.2938
 4820TIP3    H214467   4.263   4.278   0.102 -0.1922  0.6156  0.2571
 4821TIP3   OH214468   4.740   3.404   1.315 -0.7091 -0.0687 -0.0478
 4821TIP3    H114469   4.757   3.489   1.356 -0.3963  0.3066 -0.9453
 4821TIP3    H214470   4.678   3.422   1.245 -0.9895 -0.6571  0.0395
 4822TIP3   OH214471   4.214   4.553   2.975  0.1395 -0.1199 -0.1307
 4822TIP3    H114472   4.195   4.521   3.063 -2.7386  1.2285 -0.1223
 4822TIP3    H214473   4.147   4.620   2.959  1.5185  0.7824 -2.7694
 4823TIP3   OH214474   5.128   0.633   0.470 -0.0666 -0.1252  0.0458
 4823TIP3    H114475   5.137   0.645   0.375  2.5910  0.6167  0.3194
 4823TIP3    H214476   5.036   0.608   0.482 -1.0021  1.6226 -2.5271
 4824TIP3   OH214477   4.523   3.134   0.441  0.1675 -0.1542  0.1505
 4824TIP3    H114478   4.554   3.204   0.498  0.3279 -0.0700 -0.0385
 4824TIP3    H214479   4.429   3.153   0.430 -0.2150 -1.0577  1.6380
 4825TIP3   OH214480   6.202   1.944   1.778  0.9968 -0.4906  0.7984
 4825TIP3    H114481   6.213   1.854   1.809  0.3562  0.0664  2.7845
 4825TIP3    H214482   6.255   1.949   1.698  1.2611 -2.5395  0.8081
 4826TIP3   OH214483   0.971   1.048   1.037  0.3938  0.0846 -0.5192
 4826TIP3    H114484   0.998   0.995   1.112  0.8574 -2.3728 -2.2872
 4826TIP3    H214485   1.053   1.084   1.002  0.4940 -0.7843 -1.2197
 4827TIP3   OH214486   3.271   0.424   1.500  0.3346 -0.1189  0.0146
 4827TIP3    H114487   3.291   0.335   1.470  0.1792  0.6218 -2.4271
 4827TIP3    H214488   3.351   0.474   1.483  0.2322  0.3560  0.8611
 4828TIP3   OH214489   1.639   3.079   4.054 -0.1898 -0.1178 -0.0623
 4828TIP3    H114490   1.658   3.172   4.041  1.5736 -0.2315  1.4390
 4828TIP3    H214491   1.579   3.077   4.129 -0.6093 -0.1888 -0.3923
 4829TIP3   OH214492   1.128   5.169   3.848  0.0594  0.3285  0.1791
 4829TIP3    H114493   1.223   5.168   3.838  0.0364  2.5119 -0.6661
 4829TIP3    H214494   1.096   5.206   3.766 -1.5556 -0.5580  0.3762
 4830TIP3   OH214495   5.620   2.972   3.339 -0.1819  0.0953  0.3868
 4830TIP3    H114496   5.551   3.030   3.371  1.0650  0.5490  2.4778
 4830TIP3    H214497   5.620   2.984   3.244 -2.5266  0.5326  0.3889
 4831TIP3   OH214498   4.781   4.129   3.941  0.4075  0.1535 -0.2908
 4831TIP3    H114499   4.802   4.051   3.890  2.4520  1.0214 -0.8941
 4831TIP3    H214500   4.707   4.168   3.894  0.8268 -0.2363 -1.3129
 4832TIP3   OH214501   0.191   5.184   3.177  0.5685  0.1178  0.2927
 4832TIP3    H114502   0.213   5.271   3.143  0.0232 -0.1116 -0.7021
 4832TIP3    H214503   0.107   5.197   3.221 -0.0530 -0.0802 -0.7748
 4833TIP3   OH214504   1.313   1.069   1.073  0.5715  0.2624 -0.2775
 4833TIP3    H114505   1.268   1.100   1.152  1.0943  0.2619  0.0199
 4833TIP3    H214506   1.343   1.149   1.029 -1.2383  0.3913 -1.4099
 4834TIP3   OH214507   3.823   0.129   3.973  0.0960  0.2018 -0.6649
 4834TIP3    H114508   3.777   0.157   4.052 -2.2575 -2.8600 -0.7486
 4834TIP3    H214509   3.910   0.105   4.002  0.7483  3.1368  0.1167
 4835TIP3   OH214510   2.353   0.537   1.615 -0.2357 -0.5514 -0.1075
 4835TIP3    H114511   2.339   0.455   1.662 -0.4477  0.5988  1.9168
 4835TIP3    H214512   2.424   0.580   1.662 -1.8321  1.5723  0.4927
 4836TIP3   OH214513   3.467   5.341   2.612 -0.0919 -0.3418 -0.1184
 4836TIP3    H114514   3.553   5.314   2.581  0.9577  2.3610  0.1578
 4836TIP3    H214515   3.429   5.389   2.538 -0.7308 -0.2436  0.2631
 4837TIP3   OH214516   1.705   0.553   0.082 -0.1671 -0.3072  0.1422
 4837TIP3    H114517   1.660   0.482   0.035 -0.0393 -0.5539  0.3845
 4837TIP3    H214518   1.684   0.537   0.174  0.3118 -0.3503  0.2453
 4838TIP3   OH214519   5.411   5.334   4.155  0.2819 -0.2943  0.0353
 4838TIP3    H114520   5.449   5.253   4.121  0.1315 -1.0725  1.6472
 4838TIP3    H214521   5.337   5.351   4.096  2.7858  1.1102 -2.9975
 4839TIP3   OH214522   0.315   0.810   4.191 -0.3657 -0.7821 -0.5125
 4839TIP3    H114523   0.359   0.778   4.270 -0.3927  0.1567 -0.1134
 4839TIP3    H214524   0.254   0.740   4.168 -1.8667 -0.2235  1.4966
 4840TIP3   OH214525   6.185   3.693   1.430  0.6962 -0.1098 -0.0932
 4840TIP3    H114526   6.246   3.627   1.464  0.4515 -0.0316  0.5109
 4840TIP3    H214527   6.135   3.720   1.507 -1.1071 -1.2331 -0.8184
 4841TIP3   OH214528   2.811   0.400   4.199 -0.0793  0.3379 -0.2276
 4841TIP3    H114529   2.832   0.468   4.135 -0.3666 -1.7823 -2.7069
 4841TIP3    H214530   2.880   0.407   4.264  0.8254  1.9224 -1.2831
 4842TIP3   OH214531   3.776   3.176   2.372 -0.0487  0.2725 -0.1403
 4842TIP3    H114532   3.716   3.174   2.297 -0.6823  1.7582  0.2874
 4842TIP3    H214533   3.724   3.146   2.446  0.1479  0.2338 -0.0163
 4843TIP3   OH214534   1.276   2.668   3.420  0.1364 -0.2069  0.8086
 4843TIP3    H114535   1.275   2.705   3.509  1.1143 -0.1484  0.8013
 4843TIP3    H214536   1.237   2.581   3.431 -0.0699 -0.0662  1.2369
 4844TIP3   OH214537   4.765   4.254   3.217 -0.2192 -0.5367 -0.1107
 4844TIP3    H114538   4.814   4.252   3.134  0.1740 -0.5313  0.1219
 4844TIP3    H214539   4.696   4.318   3.202  0.0850 -0.2532 -0.3055
 4845TIP3   OH214540   3.217   3.030   4.894 -0.0146 -0.5248  0.1286
 4845TIP3    H114541   3.172   2.968   4.835  1.4842 -0.1361 -1.4994
 4845TIP3    H214542   3.146   3.078   4.936 -1.1857 -0.4480 -1.7982
 4846TIP3   OH214543   0.618   5.595   0.139 -0.1700  0.3058  0.0176
 4846TIP3    H114544   0.644   5.653   0.210 -2.2653 -0.5646  1.6339
 4846TIP3    H214545   0.600   5.653   0.065  1.4967  1.3042  0.3584
 4847TIP3   OH214546   1.310   0.509   3.464 -0.0470  0.2895  0.9100
 4847TIP3    H114547   1.252   0.563   3.517 -1.2561 -0.0039 -0.0634
 4847TIP3    H214548   1.278   0.420   3.477 -0.6591  0.2496 -0.5953
 4848TIP3   OH214549   3.570   3.773   0.298 -0.2362  0.1467  0.1842
 4848TIP3    H114550   3.488   3.786   0.252 -0.8315 -0.6618  0.9689
 4848TIP3    H214551   3.604   3.861   0.313  0.1508  0.4258 -2.0483
 4849TIP3   OH214552   5.348   4.147   1.948  0.3088 -0.2422  0.0814
 4849TIP3    H114553   5.263   4.190   1.944  1.2110  1.9853  2.1739
 4849TIP3    H214554   5.333   4.059   1.913 -2.0186  1.2015 -2.9523
 4850TIP3   OH214555   1.197   2.204   0.054  0.7946 -0.0187  0.4672
 4850TIP3    H114556   1.110   2.197   0.015  1.6473 -1.0687 -1.3518
 4850TIP3    H214557   1.194   2.287   0.102 -1.3398 -0.2584  0.8700
 4851TIP3   OH214558   3.588   1.124   1.213  0.5290  0.1577  0.0204
 4851TIP3    H114559   3.598   1.117   1.308  0.2297  0.4888  0.0782
 4851TIP3    H214560   3.640   1.201   1.189 -1.7861  1.9347  0.3294
 4852TIP3   OH214561   1.144   1.281   4.924 -0.0275  0.3207  0.1233
 4852TIP3    H114562   1.141   1.211   4.989 -0.8991  0.0311 -0.2174
 4852TIP3    H214563   1.225   1.264   4.875  2.3242  2.2736  2.9655
 4853TIP3   OH214564   4.188   3.372   1.948  0.1493 -0.3715  0.2561
 4853TIP3    H114565   4.231   3.368   1.863 -3.3126 -1.5132 -1.6221
 4853TIP3    H214566   4.170   3.465   1.961 -2.5537 -0.4023 -2.2279
 4854TIP3   OH214567   4.882   4.027   3.380 -0.1586  0.6070 -0.2024
 4854TIP3    H114568   4.938   4.089   3.334  0.0023  0.8706  0.3490
 4854TIP3    H214569   4.846   4.076   3.453 -1.6368  0.6299 -0.9072
 4855TIP3   OH214570   5.412   0.845   0.607  0.3024 -0.3645 -0.3339
 4855TIP3    H114571   5.453   0.866   0.523 -0.5641  1.4907 -0.3315
 4855TIP3    H214572   5.406   0.749   0.607  2.2259 -0.5473 -1.4484
 4856TIP3   OH214573   2.239   4.725   2.908  0.1333  0.7275 -0.1067
 4856TIP3    H114574   2.287   4.689   2.834  0.9930  0.1802  0.6951
 4856TIP3    H214575   2.223   4.650   2.965 -1.7032  0.8900 -0.3411
 4857TIP3   OH214576   5.166   0.055   4.263 -0.3969  0.9025  0.1944
 4857TIP3    H114577   5.099   0.016   4.207  0.1555  1.9603 -1.2462
 4857TIP3    H214578   5.121   0.068   4.347 -1.0482 -1.3232  0.2627
 4858TIP3   OH214579   2.832   1.045   3.275 -0.6549 -0.5425  0.1430
 4858TIP3    H114580   2.832   1.012   3.365  0.4188  0.9836  0.7421
 4858TIP3    H214581   2.785   1.128   3.280 -1.4654 -0.9054 -0.9275
 4859TIP3   OH214582   3.144   0.353   3.826 -0.0440  0.1827  0.3195
 4859TIP3    H114583   3.103   0.437   3.802  3.1265  1.6041 -0.6732
 4859TIP3    H214584   3.180   0.369   3.913 -1.0757 -0.8573  0.9538
 4860TIP3   OH214585   1.578   2.080   1.886 -0.4647 -0.0362 -0.1151
 4860TIP3    H114586   1.607   1.989   1.876 -0.1716 -0.1945  1.7388
 4860TIP3    H214587   1.483   2.077   1.875 -0.5316 -0.6972  0.5466
 4861TIP3   OH214588   1.210   4.896   4.422 -0.1693  0.4666  0.4618
 4861TIP3    H114589   1.186   4.836   4.493  1.5437 -0.8500 -0.0148
 4861TIP3    H214590   1.228   4.979   4.467  1.4246 -0.4893  1.6970
 4862TIP3   OH214591   2.611   4.777   2.889 -0.1634  0.3999 -0.2192
 4862TIP3    H114592   2.617   4.830   2.809 -0.7039  0.7301 -0.0467
 4862TIP3    H214593   2.701   4.753   2.908 -0.0003  0.5330 -0.7859
 4863TIP3   OH214594   4.489   4.337   1.435 -0.1087 -0.0393 -0.4019
 4863TIP3    H114595   4.435   4.296   1.367  0.9655 -1.3475 -0.5052
 4863TIP3    H214596   4.512   4.266   1.494  1.0804  0.5751 -0.0856
 4864TIP3   OH214597   5.572   1.314   5.112  0.9224 -0.5027  0.1811
 4864TIP3    H114598   5.633   1.307   5.038  0.3221  0.4623 -0.4279
 4864TIP3    H214599   5.500   1.255   5.089 -0.7019  1.9431 -1.5051
 4865TIP3   OH214600   4.839   5.816   2.879  0.3361  0.2296 -0.5024
 4865TIP3    H114601   4.769   5.804   2.943  0.1113 -0.4158 -0.8578
 4865TIP3    H214602   4.793   5.836   2.797  0.6006  0.4763 -0.5944
 4866TIP3   OH214603   5.949   5.426   1.709 -0.2199  0.1227 -0.3304
 4866TIP3    H114604   6.001   5.507   1.713  0.7864 -0.5401  0.8636
 4866TIP3    H214605   6.014   5.356   1.705 -0.9325 -0.7721  1.9095
 4867TIP3   OH214606   3.700   3.003   2.926  0.1413 -0.1554  0.2223
 4867TIP3    H114607   3.700   2.946   3.002 -3.2604  2.3846  2.3888
 4867TIP3    H214608   3.782   3.051   2.932  1.0952 -1.7577  0.7138
 4868TIP3   OH214609   2.043   0.497   4.228 -0.1535 -0.0055  0.1724
 4868TIP3    H114610   2.043   0.583   4.184 -0.7368  0.2611  0.6897
 4868TIP3    H214611   2.128   0.459   4.204 -0.0185  0.5820 -0.3208
 4869TIP3   OH214612   3.562   5.592   5.200  0.7148 -0.4248  0.3024
 4869TIP3    H114613   3.535   5.510   5.158  0.5687 -0.0595 -0.3366
 4869TIP3    H214614   3.582   5.650   5.127  0.3971  0.2469  0.7425
 4870TIP3   OH214615   5.254   0.838   5.175 -0.0680  0.4484 -0.4332
 4870TIP3    H114616   5.161   0.816   5.180 -0.1697  1.1123  2.7935
 4870TIP3    H214617   5.299   0.757   5.198  0.0514  0.5918 -0.1516
 4871TIP3   OH214618   6.108   4.296   1.572 -0.1530 -0.7430  0.2455
 4871TIP3    H114619   6.144   4.352   1.640  0.3501 -0.2787 -0.3887
 4871TIP3    H214620   6.014   4.294   1.589 -0.3634  1.2881 -0.3977
 4872TIP3   OH214621   5.007   5.355   0.792 -0.2386  0.0720  0.0132
 4872TIP3    H114622   5.028   5.263   0.775 -0.5005  0.0194 -0.0267
 4872TIP3    H214623   4.925   5.352   0.841 -1.8204  0.3977 -2.4728
 4873TIP3   OH214624   4.930   5.600   1.965  0.4258  0.0848  0.0486
 4873TIP3    H114625   4.891   5.681   1.998 -2.1679 -0.0611 -2.3171
 4873TIP3    H214626   4.875   5.530   2.001  3.1320 -0.9004  2.7816
 4874TIP3   OH214627   5.451   3.239   4.390 -0.0721  0.1456  0.1926
 4874TIP3    H114628   5.536   3.234   4.346 -0.5855  0.3148 -0.8442
 4874TIP3    H214629   5.388   3.210   4.324 -0.8134 -0.1101  0.9958
 4875TIP3   OH214630   0.944   3.989   3.769 -0.2385  0.3549 -0.2135
 4875TIP3    H114631   1.030   3.970   3.807 -0.1227  1.5564  0.1673
 4875TIP3    H214632   0.889   4.010   3.845 -1.1277 -1.2735 -0.3661
 4876TIP3   OH214633   2.988   1.255   4.305  0.4916 -0.0619  0.4334
 4876TIP3    H114634   3.055   1.321   4.290 -0.0851  0.7474  1.2894
 4876TIP3    H214635   2.926   1.297   4.364 -1.0094 -0.6401 -0.6749
 4877TIP3   OH214636   6.083   5.615   0.992  0.1031  0.2042 -0.1177
 4877TIP3    H114637   6.011   5.568   1.034  0.5411 -0.2207  0.1730
 4877TIP3    H214638   6.097   5.691   1.048  1.5715 -1.0505  1.3291
 4878TIP3   OH214639   2.561   0.524   0.070  0.0351  0.3082  1.1612
 4878TIP3    H114640   2.578   0.578   0.147  0.4185  1.0765  0.5486
 4878TIP3    H214641   2.490   0.466   0.097 -0.6374  1.3528  1.7272
 4879TIP3   OH214642   6.187   4.215   1.884 -0.0396 -0.0422 -0.2063
 4879TIP3    H114643   6.236   4.204   1.802 -1.9694 -0.0213 -1.4228
 4879TIP3    H214644   6.252   4.200   1.953  1.5859 -0.3332 -1.7238
 4880TIP3   OH214645   4.989   4.991   0.236 -0.1813  0.1798  0.3007
 4880TIP3    H114646   5.062   4.948   0.281 -0.2588  0.1655  0.4120
 4880TIP3    H214647   5.029   5.064   0.189 -0.0273 -0.0971 -0.0046
 4881TIP3   OH214648   6.032   5.080   2.167  0.0780  0.1148  0.2136
 4881TIP3    H114649   6.050   4.989   2.145 -1.7638 -0.0946 -0.6164
 4881TIP3    H214650   5.955   5.103   2.115 -0.7598  1.4945  1.9441
 4882TIP3   OH214651   5.927   4.066   5.076 -0.4590 -0.0739 -0.0532
 4882TIP3    H114652   5.891   4.111   5.153  0.3979  1.2065 -0.3769
 4882TIP3    H214653   5.877   4.102   5.002  0.1155  0.2468 -0.2947
 4883TIP3   OH214654   0.639   2.262   2.473  0.6135  0.0654 -0.2324
 4883TIP3    H114655   0.687   2.186   2.440  0.5391 -1.2212  2.3540
 4883TIP3    H214656   0.683   2.284   2.555 -0.3992  1.8014 -0.0954
 4884TIP3   OH214657   5.012   1.985   3.836 -0.1104  0.3133 -0.2722
 4884TIP3    H114658   5.082   2.018   3.780  1.2131 -1.9530 -0.0729
 4884TIP3    H214659   5.057   1.941   3.908 -1.7715  0.9721  1.2600
 4885TIP3   OH214660   2.154   3.565   1.751  0.5197  0.2507 -0.3352
 4885TIP3    H114661   2.225   3.581   1.688  0.7650  0.9355  0.1056
 4885TIP3    H214662   2.158   3.640   1.811 -0.4701  0.2082 -0.2080
 4886TIP3   OH214663   0.568   3.233   1.915  0.4184  0.2954 -0.3009
 4886TIP3    H114664   0.515   3.307   1.886  1.7450  1.0646 -0.8472
 4886TIP3    H214665   0.570   3.240   2.010 -3.0750 -1.6173  0.0897
 4887TIP3   OH214666   0.803   2.418   3.737  0.2860  0.0380 -0.3661
 4887TIP3    H114667   0.746   2.345   3.758 -0.7576  0.4943 -1.4695
 4887TIP3    H214668   0.889   2.378   3.722  0.0218 -0.7928  0.2607
 4888TIP3   OH214669   4.818   0.211   2.919  0.3787  0.0671 -0.3676
 4888TIP3    H114670   4.859   0.290   2.952  0.6396 -0.0045 -0.5145
 4888TIP3    H214671   4.879   0.141   2.943 -1.2073 -0.5158  2.3980
 4889TIP3   OH214672   6.193   2.310   1.165 -0.4896  0.2162 -0.1311
 4889TIP3    H114673   6.180   2.344   1.077  1.1234 -0.7025 -0.7691
 4889TIP3    H214674   6.286   2.324   1.182 -0.8417  0.6931  1.5795
 4890TIP3   OH214675   0.631   2.292   4.838  0.2298 -0.0851  0.6383
 4890TIP3    H114676   0.571   2.278   4.911 -2.2122 -0.8542 -1.3582
 4890TIP3    H214677   0.627   2.386   4.821 -0.8281 -0.1796  0.2606
 4891TIP3   OH214678   4.952   0.039   5.009  0.2353 -0.1976 -0.4348
 4891TIP3    H114679   4.953  -0.047   5.051  1.1216  0.2120  0.4211
 4891TIP3    H214680   4.887   0.089   5.058 -1.2933 -0.7484 -1.7866
 4892TIP3   OH214681   4.716   0.523   2.073  0.0509  0.2886  0.1081
 4892TIP3    H114682   4.677   0.542   2.158  1.5126  2.1344  0.4214
 4892TIP3    H214683   4.795   0.473   2.093  0.8305  1.4171 -0.0761
 4893TIP3   OH214684   0.126   2.880   1.757  0.2443  0.3662 -0.6210
 4893TIP3    H114685   0.211   2.870   1.800  0.0104  2.4144  0.4228
 4893TIP3    H214686   0.146   2.882   1.663  1.1627 -0.5717 -0.4611
 4894TIP3   OH214687   5.814   4.138   2.759  0.2531  0.5628 -0.0456
 4894TIP3    H114688   5.781   4.053   2.789 -1.2579  0.8661 -0.7616
 4894TIP3    H214689   5.837   4.123   2.668  1.0916  0.6390  0.1496
 4895TIP3   OH214690   1.382   2.894   0.722  0.4383  0.1265  0.0295
 4895TIP3    H114691   1.434   2.823   0.684  0.5081  1.2769 -2.2174
 4895TIP3    H214692   1.401   2.970   0.667 -2.3274  1.0164  0.1142
 4896TIP3   OH214693   0.404   1.332   4.594 -0.1633 -1.3366 -0.3122
 4896TIP3    H114694   0.357   1.255   4.625 -0.9735 -1.3474 -1.4719
 4896TIP3    H214695   0.472   1.297   4.537  0.8718 -1.2847  0.8560
 4897TIP3   OH214696   3.110   3.220   0.299 -0.5642 -0.3013 -0.2835
 4897TIP3    H114697   3.103   3.250   0.390 -0.4950 -0.5955 -0.1809
 4897TIP3    H214698   3.080   3.294   0.247 -0.3431 -0.0319 -0.0314
 4898TIP3   OH214699   2.690   1.314   1.836  0.8119 -0.2290  0.2312
 4898TIP3    H114700   2.691   1.305   1.931 -0.4029 -1.5820  0.1495
 4898TIP3    H214701   2.706   1.408   1.820  0.1666  0.1712  1.7998
 4899TIP3   OH214702   1.978   4.076   0.118 -0.0136  1.2600  0.2497
 4899TIP3    H114703   1.914   4.026   0.067  0.4817  0.4406  0.4051
 4899TIP3    H214704   2.059   4.070   0.067  0.2376  1.2723  0.6440
 4900TIP3   OH214705   0.787   5.863   4.948 -0.1638 -0.5129 -0.1724
 4900TIP3    H114706   0.758   5.796   5.011 -0.3241 -1.0360 -0.7974
 4900TIP3    H214707   0.761   5.828   4.863  2.1310 -0.9432 -0.7632
 4901TIP3   OH214708   1.687   3.008   3.508 -0.2250  0.3286 -0.1383
 4901TIP3    H114709   1.669   3.103   3.509 -0.9781  0.2242 -1.1429
 4901TIP3    H214710   1.683   2.982   3.599 -1.4280  1.0373  0.0439
 4902TIP3   OH214711   5.560   2.034   1.661  0.4941 -0.0327 -0.0563
 4902TIP3    H114712   5.538   2.029   1.754  1.3856  1.9495  0.3315
 4902TIP3    H214713   5.510   1.964   1.620 -1.3651  0.1959  1.6605
 4903TIP3   OH214714   2.664   0.153   3.508 -0.3210  0.0101  0.3487
 4903TIP3    H114715   2.738   0.185   3.457 -0.8317  1.7842  0.6783
 4903TIP3    H214716   2.592   0.147   3.445 -0.1281 -0.9260  0.2025
 4904TIP3   OH214717   0.245   4.435   0.626  0.5234 -0.2862 -0.2026
 4904TIP3    H114718   0.202   4.459   0.544 -4.1910 -2.6011  1.2556
 4904TIP3    H214719   0.261   4.519   0.670 -0.0736  0.8166 -1.9723
 4905TIP3   OH214720   0.670   5.944   3.900  0.5961 -0.0058 -0.6747
 4905TIP3    H114721   0.686   5.858   3.939  0.9943  0.6424  0.6269
 4905TIP3    H214722   0.602   5.927   3.834 -0.7578 -1.0061  0.8839
 4906TIP3   OH214723   0.691   4.893   4.164  0.6156 -0.6405 -0.1716
 4906TIP3    H114724   0.670   4.887   4.071  0.0616 -0.5957 -0.0514
 4906TIP3    H214725   0.611   4.924   4.205  1.1862  0.4413  0.1764
 4907TIP3   OH214726   3.194   5.878   1.965 -0.8622 -0.3116  0.2315
 4907TIP3    H114727   3.213   5.970   1.979  0.1650 -0.3685 -0.6138
 4907TIP3    H214728   3.256   5.832   2.022  0.8908 -0.4851 -1.6858
 4908TIP3   OH214729   3.542   4.388   3.327 -0.6019 -0.0247  0.2874
 4908TIP3    H114730   3.491   4.466   3.351 -0.4526 -0.2336  1.2977
 4908TIP3    H214731   3.633   4.417   3.327 -0.5463 -0.2027  0.6584
 4909TIP3   OH214732   3.008   5.525   1.141  0.1808  0.0600  0.0818
 4909TIP3    H114733   3.056   5.595   1.097 -0.8940  0.1020 -1.0776
 4909TIP3    H214734   2.993   5.460   1.073 -3.6617  1.1959 -0.3976
 4910TIP3   OH214735   4.086   5.323   2.308 -0.4873  0.4088  0.5179
 4910TIP3    H114736   4.105   5.301   2.399 -0.2051 -0.0927  0.3394
 4910TIP3    H214737   4.032   5.403   2.314 -1.0310  0.0101  1.1506
 4911TIP3   OH214738   1.166   2.832   1.629  0.1544  0.4258  0.4437
 4911TIP3    H114739   1.211   2.915   1.645 -0.3513  0.7492  0.2178
 4911TIP3    H214740   1.134   2.804   1.715 -0.9079  1.1921  0.3098
 4912TIP3   OH214741   0.597   1.539   3.006  0.5219  0.4084 -0.1172
 4912TIP3    H114742   0.605   1.457   2.957  0.3271  0.3492 -0.0537
 4912TIP3    H214743   0.502   1.555   3.009  0.6057  1.2293 -1.1160
 4913TIP3   OH214744   2.673   0.518   1.231  0.2523  0.0929  0.6367
 4913TIP3    H114745   2.746   0.504   1.291  0.1543  1.4636  1.1168
 4913TIP3    H214746   2.685   0.608   1.200 -0.9074  0.1315  0.2695
 4914TIP3   OH214747   4.436   2.233   4.485  0.3202 -1.1420 -0.2471
 4914TIP3    H114748   4.519   2.191   4.461  1.3108  0.1694  0.7483
 4914TIP3    H214749   4.390   2.244   4.402  0.8930 -2.3887 -0.7515
 4915TIP3   OH214750   2.591   3.434   2.278 -0.1888  0.1226  0.4703
 4915TIP3    H114751   2.668   3.455   2.332 -0.1006 -1.7851  1.1411
 4915TIP3    H214752   2.550   3.360   2.322 -0.9040 -0.6122 -1.3256
 4916TIP3   OH214753   1.946   2.480   1.607 -0.2878 -0.1071 -0.6819
 4916TIP3    H114754   2.033   2.489   1.569  0.2852  0.4878  0.6913
 4916TIP3    H214755   1.917   2.570   1.622  0.5430 -0.2362  2.4267
 4917TIP3   OH214756   4.434   0.836   2.548 -0.7008 -0.7503 -0.2110
 4917TIP3    H114757   4.413   0.915   2.598  0.6069 -0.9662  0.7241
 4917TIP3    H214758   4.353   0.815   2.501 -1.2953  0.7027  0.1192
 4918TIP3   OH214759   0.793   3.183   4.973  0.5427 -0.2245 -0.7949
 4918TIP3    H114760   0.809   3.217   5.060 -0.0942 -0.2766 -0.6518
 4918TIP3    H214761   0.716   3.231   4.942  0.2355 -0.8213 -0.9802
 4919TIP3   OH214762   2.225   1.558   2.776  0.2340 -0.6071  0.9452
 4919TIP3    H114763   2.248   1.627   2.838  0.6912  1.0792 -1.0106
 4919TIP3    H214764   2.288   1.488   2.794  1.0820  0.3052  1.6134
 4920TIP3   OH214765   2.482   4.801   4.976  0.3351  0.1344  0.1461
 4920TIP3    H114766   2.391   4.827   4.961  0.2543  1.5818  2.6858
 4920TIP3    H214767   2.516   4.865   5.038  3.2110 -0.2165 -0.9114
 4921TIP3   OH214768   3.533   1.649   2.953 -0.1249  0.6805 -0.1734
 4921TIP3    H114769   3.539   1.681   2.863 -0.2654 -0.1117 -0.4667
 4921TIP3    H214770   3.542   1.554   2.946 -3.1863  0.2686  0.3405
 4922TIP3   OH214771   3.774   0.622   0.283 -0.0551 -0.2703  0.6212
 4922TIP3    H114772   3.799   0.692   0.343  1.6931 -0.9033  0.6935
 4922TIP3    H214773   3.746   0.551   0.340  1.0784 -0.6747  0.7073
 4923TIP3   OH214774   0.099   1.629   1.959  0.3516  0.2972  0.2290
 4923TIP3    H114775   0.119   1.540   1.990  2.3859  1.1251  1.4823
 4923TIP3    H214776   0.044   1.667   2.028  0.3293  0.3606  0.1767
 4924TIP3   OH214777   5.213   5.388   4.470 -0.7769  0.3968  0.2317
 4924TIP3    H114778   5.186   5.479   4.456  1.0470  0.7783 -1.2835
 4924TIP3    H214779   5.304   5.385   4.439 -0.8079 -1.9685  0.1707
 4925TIP3   OH214780   2.228   2.030   4.718  0.9587 -0.4640 -0.4446
 4925TIP3    H114781   2.207   1.940   4.742 -1.0689  0.0037 -0.2847
 4925TIP3    H214782   2.229   2.077   4.801  0.3317 -0.0443 -0.6641
 4926TIP3   OH214783   3.207   5.355   3.504 -0.3363 -0.2786  0.1086
 4926TIP3    H114784   3.280   5.412   3.528 -0.1041  0.0523 -1.2954
 4926TIP3    H214785   3.136   5.381   3.562  0.1479  0.5960  0.3257
 4927TIP3   OH214786   0.175   4.670   2.811  0.1179 -0.6089  0.1952
 4927TIP3    H114787   0.247   4.607   2.814  1.3412  0.7453  3.1649
 4927TIP3    H214788   0.214   4.750   2.776 -0.3480 -0.3025  0.3683
 4928TIP3   OH214789   4.607   3.382   4.277  0.1456  0.8424 -0.1721
 4928TIP3    H114790   4.536   3.331   4.238  0.0811 -1.2232  2.4107
 4928TIP3    H214791   4.587   3.384   4.370  2.7638  1.3875  0.4514
 4929TIP3   OH214792   5.543   5.753   2.005 -0.0542 -0.2510  0.1331
 4929TIP3    H114793   5.573   5.662   2.011 -1.0671 -0.5271  1.5941
 4929TIP3    H214794   5.618   5.805   2.034  0.9002 -0.5025 -1.7176
 4930TIP3   OH214795   6.284   1.292   2.727  0.4738  0.4023  0.5583
 4930TIP3    H114796   6.246   1.375   2.701  2.3765  0.5316 -2.2652
 4930TIP3    H214797   6.284   1.293   2.823 -1.0568  2.8854  0.5883
 4931TIP3   OH214798   3.686   4.940   0.198  0.0571  0.1682  0.6541
 4931TIP3    H114799   3.760   4.891   0.234  0.0447  2.0904  3.7310
 4931TIP3    H214800   3.609   4.886   0.219  0.3649 -0.7847 -0.5540
 4932TIP3   OH214801   4.992   0.670   1.657  0.1064 -0.2480  0.1815
 4932TIP3    H114802   4.914   0.632   1.698  0.6344 -0.9379  0.5607
 4932TIP3    H214803   5.065   0.635   1.707  0.5925  2.1956  1.3349
 4933TIP3   OH214804   2.778   3.717   3.345  0.2100 -0.6119 -0.4442
 4933TIP3    H114805   2.751   3.781   3.279  0.7969  0.6483  0.4937
 4933TIP3    H214806   2.785   3.768   3.426 -0.3802 -2.0921  0.5807
 4934TIP3   OH214807   3.115   2.312   5.115  0.1922  0.3239  0.2619
 4934TIP3    H114808   3.181   2.379   5.135  0.2317  0.8336 -1.4230
 4934TIP3    H214809   3.080   2.287   5.201  2.2705  0.3331  1.1677
 4935TIP3   OH214810   3.273   1.249   3.610 -1.0429  0.1152 -0.3015
 4935TIP3    H114811   3.201   1.292   3.565 -1.7436  0.1365  0.8125
 4935TIP3    H214812   3.273   1.287   3.698  0.5322  0.3541 -0.3662
 4936TIP3   OH214813   2.372   4.504   4.849 -0.3966 -0.3795 -0.2976
 4936TIP3    H114814   2.409   4.416   4.858 -1.4835 -1.0309 -1.6525
 4936TIP3    H214815   2.417   4.556   4.915 -0.4436 -2.1769  1.2438
 4937TIP3   OH214816   4.479   1.371   4.084 -0.5292 -0.3859 -0.1338
 4937TIP3    H114817   4.564   1.390   4.124  0.6275 -0.0838 -2.5522
 4937TIP3    H214818   4.445   1.296   4.134  1.5595 -1.0780  0.3574
 4938TIP3   OH214819   0.367   3.124   0.190 -0.1846 -0.7630 -0.5888
 4938TIP3    H114820   0.308   3.080   0.251 -0.0844 -1.1946 -0.7973
 4938TIP3    H214821   0.313   3.191   0.148  0.0514  0.3727  0.8407
 4939TIP3   OH214822   4.563   5.094   4.781  0.1135 -0.4774  0.0737
 4939TIP3    H114823   4.575   5.062   4.870 -0.3413  0.2200  0.3984
 4939TIP3    H214824   4.477   5.136   4.782 -0.8438 -2.2666 -1.2568
 4940TIP3   OH214825   1.742   2.898   2.835 -0.2156  0.0550 -0.1713
 4940TIP3    H114826   1.706   2.958   2.900 -0.6224  2.7723 -2.6878
 4940TIP3    H214827   1.720   2.811   2.867 -3.4564  1.3688  1.5644
 4941TIP3   OH214828   6.125   0.284   4.813 -0.2071  0.0275  0.3806
 4941TIP3    H114829   6.169   0.229   4.748 -1.0864  1.2682 -1.3581
 4941TIP3    H214830   6.105   0.224   4.885  1.6620 -1.1913 -0.0511
 4942TIP3   OH214831   3.923   0.536   0.591  0.4305  0.4436  0.2760
 4942TIP3    H114832   3.917   0.531   0.686 -0.8864  1.4463  0.2805
 4942TIP3    H214833   3.925   0.630   0.572  1.1972  0.2497 -0.6685
 4943TIP3   OH214834   3.092   0.705   2.158  0.3666 -0.0110  0.0327
 4943TIP3    H114835   3.019   0.683   2.215 -0.1720  1.6465  0.0375
 4943TIP3    H214836   3.132   0.781   2.198  1.0100  0.1625 -0.9049
 4944TIP3   OH214837   1.161   3.213   3.725  0.6335  0.3701  0.3629
 4944TIP3    H114838   1.236   3.227   3.784  1.0339  1.1361 -0.3148
 4944TIP3    H214839   1.199   3.169   3.649  0.7769  2.4510 -0.8198
 4945TIP3   OH214840   1.037   5.058   4.935  0.2196  0.5416  0.0689
 4945TIP3    H114841   0.957   5.107   4.954  0.4230  0.7075  0.5123
 4945TIP3    H214842   1.049   5.069   4.841  0.0739  1.0562  0.1042
 4946TIP3   OH214843   1.082   2.336   4.683  0.1748  0.1379  0.6596
 4946TIP3    H114844   1.147   2.297   4.741  0.8150 -0.8087 -0.6590
 4946TIP3    H214845   1.100   2.430   4.687  1.8936 -0.1381  0.0088
 4947TIP3   OH214846   1.094   3.521   4.419 -0.1149 -0.7467 -0.0992
 4947TIP3    H114847   1.040   3.600   4.417 -1.0816 -1.2861  2.1317
 4947TIP3    H214848   1.101   3.499   4.512  3.0621 -1.3289 -0.3734
 4948TIP3   OH214849   2.940   0.793   5.104 -0.0544  0.6167  0.1244
 4948TIP3    H114850   2.991   0.713   5.114  0.7986  1.2299  0.8789
 4948TIP3    H214851   2.987   0.844   5.038 -0.3815  0.6736 -0.0714
 4949TIP3   OH214852   3.878   3.218   2.973 -0.6721  0.2913 -0.2518
 4949TIP3    H114853   3.874   3.264   2.889  2.0549 -0.0704 -0.6953
 4949TIP3    H214854   3.963   3.244   3.010 -0.9140 -1.1263  1.4325
 4950TIP3   OH214855   4.011   1.858   0.307  0.7656 -0.1173  0.4345
 4950TIP3    H114856   3.929   1.907   0.322 -0.2691 -1.7622  0.3887
 4950TIP3    H214857   4.079   1.925   0.307 -0.9579  1.9741 -3.6507
 4951TIP3   OH214858   3.487   5.257   4.666  0.1981  0.1482  0.4198
 4951TIP3    H114859   3.547   5.319   4.708  0.7080  0.4017 -0.6226
 4951TIP3    H214860   3.405   5.264   4.716  0.7111  0.5736  1.2165
 4952TIP3   OH214861   0.264   2.386   2.619 -0.3009 -0.0269  0.0547
 4952TIP3    H114862   0.213   2.362   2.696 -1.4084 -0.4861 -0.7944
 4952TIP3    H214863   0.272   2.482   2.625 -1.2370  0.0536  0.2393
 4953TIP3   OH214864   0.867   4.425   0.906  0.0399  0.3410 -0.1999
 4953TIP3    H114865   0.929   4.497   0.897  1.1206 -0.3769  1.1496
 4953TIP3    H214866   0.921   4.350   0.930 -1.2675 -0.5136  0.1787
 4954TIP3   OH214867   1.645   2.293   3.787 -0.0257  0.1102  0.2096
 4954TIP3    H114868   1.693   2.219   3.750 -2.0553 -0.3693 -1.6936
 4954TIP3    H214869   1.553   2.271   3.773 -0.7701  1.8452  1.9565
 4955TIP3   OH214870   6.074   2.104   1.279 -0.4574  0.1062  0.4893
 4955TIP3    H114871   6.109   2.189   1.251  1.9265 -0.9994 -0.1370
 4955TIP3    H214872   6.074   2.108   1.374  0.6315  0.4585  0.4867
 4956TIP3   OH214873   3.383   4.105   2.059 -0.5279  0.4432  0.2680
 4956TIP3    H114874   3.435   4.171   2.105 -1.4177  3.0065 -2.1663
 4956TIP3    H214875   3.320   4.155   2.007 -0.8853 -2.2891 -2.2030
 4957TIP3   OH214876   2.737   3.511   0.917 -0.1120  0.5636  0.0801
 4957TIP3    H114877   2.757   3.443   0.853 -0.0200  0.0710  0.6261
 4957TIP3    H214878   2.811   3.509   0.978 -1.2863 -0.5836  1.5403
 4958TIP3   OH214879   1.596   3.687   0.379  0.1020  0.6208 -0.4653
 4958TIP3    H114880   1.518   3.706   0.328  1.3692  1.2255 -2.2526
 4958TIP3    H214881   1.580   3.731   0.463 -2.5300 -1.3879  0.2170
 4959TIP3   OH214882   2.066   0.353   0.155  0.5302 -0.0548  0.0130
 4959TIP3    H114883   2.063   0.381   0.064  1.8292  0.0555 -0.0045
 4959TIP3    H214884   2.064   0.434   0.205 -0.8493 -0.1291  0.1332
 4960TIP3   OH214885   5.267   2.803   3.254  0.2571 -0.3179  0.2782
 4960TIP3    H114886   5.260   2.708   3.259  1.1343 -0.4377 -0.4413
 4960TIP3    H214887   5.323   2.819   3.177 -1.1055  0.8186 -0.5272
 4961TIP3   OH214888   5.622   4.210   4.151 -0.6216  0.1460  0.5045
 4961TIP3    H114889   5.588   4.150   4.217 -1.3558 -0.5356 -0.4700
 4961TIP3    H214890   5.648   4.153   4.078 -0.2427  0.9191  0.0195
 4962TIP3   OH214891   0.925   4.307   1.870 -0.6512 -0.5843 -0.4614
 4962TIP3    H114892   0.900   4.265   1.788  1.3949 -2.1325 -0.3807
 4962TIP3    H214893   0.897   4.245   1.938 -0.5758 -0.2516 -0.1270
 4963TIP3   OH214894   2.618   0.522   4.866 -0.1840 -0.4056  0.2069
 4963TIP3    H114895   2.671   0.456   4.911  2.3254  1.3962  0.1555
 4963TIP3    H214896   2.601   0.589   4.933  1.1535  0.9466 -0.7188
 4964TIP3   OH214897   2.490   5.249   4.055  0.0080  0.5546  0.2019
 4964TIP3    H114898   2.502   5.175   3.996  2.0160 -0.2173  1.4843
 4964TIP3    H214899   2.416   5.223   4.111 -0.2680  0.2077 -0.3135
 4965TIP3   OH214900   1.702   4.616   4.433  0.0876  0.4319  0.2765
 4965TIP3    H114901   1.619   4.582   4.465 -0.0577  0.1662 -0.3754
 4965TIP3    H214902   1.748   4.538   4.400  0.3134  0.6752  0.0189
 4966TIP3   OH214903   0.795   3.565   1.578  0.7840 -0.4225 -0.0231
 4966TIP3    H114904   0.721   3.581   1.520  0.6865 -3.4140 -0.8722
 4966TIP3    H214905   0.872   3.592   1.528  0.4252  1.6676  0.4521
 4967TIP3   OH214906   1.957   4.618   3.788  0.8671  0.6389 -0.1616
 4967TIP3    H114907   1.916   4.565   3.720 -0.1516  1.8202 -0.5117
 4967TIP3    H214908   1.906   4.599   3.867  2.4548 -1.2306  0.4877
 4968TIP3   OH214909   2.117   2.466   1.331  0.3005 -0.5280 -0.1548
 4968TIP3    H114910   2.158   2.499   1.411  0.3285  0.0752 -0.4117
 4968TIP3    H214911   2.119   2.371   1.340  1.1604 -0.4953  0.1409
 4969TIP3   OH214912   0.195   1.267   1.620  0.4863 -0.6221  0.1784
 4969TIP3    H114913   0.108   1.249   1.655 -0.3463 -1.1601 -1.9906
 4969TIP3    H214914   0.206   1.361   1.629  0.6018 -0.7814  2.3462
 4970TIP3   OH214915   6.258   1.307   3.017  0.3420  0.2064 -0.5550
 4970TIP3    H114916   6.291   1.397   3.018  1.4058 -0.1344 -1.8257
 4970TIP3    H214917   6.331   1.254   3.048 -0.3412 -0.2272  0.3733
 4971TIP3   OH214918   5.379   5.210   2.966 -0.7338 -0.2396  0.4131
 4971TIP3    H114919   5.334   5.144   2.913  0.2319 -0.4919 -0.1188
 4971TIP3    H214920   5.471   5.204   2.939 -0.3716  0.2690  1.4589
 4972TIP3   OH214921   1.316   0.831   4.991  0.2590  0.4531 -0.1804
 4972TIP3    H114922   1.227   0.800   4.976  0.4299  0.1255 -0.5305
 4972TIP3    H214923   1.371   0.754   4.978  0.6677  0.8432 -0.8087
 4973TIP3   OH214924   5.998   1.306   0.120 -0.2217  0.2458  0.2390
 4973TIP3    H114925   5.984   1.348   0.035  1.1061  0.4595  0.1026
 4973TIP3    H214926   6.079   1.256   0.109 -0.5868 -0.5549  1.0753
 4974TIP3   OH214927   3.975   2.489   0.175 -0.4199  0.2557 -0.7587
 4974TIP3    H114928   3.897   2.512   0.125 -1.5699  2.2313  1.6991
 4974TIP3    H214929   3.941   2.444   0.252  0.6662  2.2240  0.9642
 4975TIP3   OH214930   1.471   3.073   0.527 -0.5993 -0.2878 -0.2609
 4975TIP3    H114931   1.426   3.066   0.443 -2.8851 -1.0224  0.9399
 4975TIP3    H214932   1.456   3.163   0.556  0.0315 -0.0884 -0.5366
 4976TIP3   OH214933   0.489   0.874   3.129 -0.0838  0.4045 -0.0218
 4976TIP3    H114934   0.430   0.891   3.203 -0.0345 -0.0305  0.1228
 4976TIP3    H214935   0.431   0.845   3.059 -0.1399  0.9014 -0.1839
 4977TIP3   OH214936   5.540   0.333   4.608 -0.3353 -0.3793  0.0772
 4977TIP3    H114937   5.514   0.243   4.587  0.2132 -0.0949 -2.1266
 4977TIP3    H214938   5.596   0.359   4.535 -0.3130  1.6940  0.7676
 4978TIP3   OH214939   1.117   5.307   4.195 -0.0613  0.3162 -0.4381
 4978TIP3    H114940   1.202   5.290   4.236 -0.2502 -0.6342 -0.4337
 4978TIP3    H214941   1.074   5.222   4.192 -0.6100  0.6096 -1.3572
 4979TIP3   OH214942   0.046   4.471   4.297 -0.1095  0.0539  0.1567
 4979TIP3    H114943   0.049   4.556   4.252 -0.2832  0.3820  0.7564
 4979TIP3    H214944  -0.006   4.416   4.239  2.3763 -0.5423 -1.7070
 4980TIP3   OH214945   2.409   2.526   1.415 -0.5655 -0.0595  0.2262
 4980TIP3    H114946   2.468   2.601   1.414  2.4399 -2.1823  1.4692
 4980TIP3    H214947   2.347   2.544   1.486 -0.6188  1.6891 -0.2338
 4981TIP3   OH214948   3.435   2.558   1.319 -0.1829 -0.4884 -0.5319
 4981TIP3    H114949   3.487   2.484   1.350 -0.2197  0.2295  1.3772
 4981TIP3    H214950   3.356   2.519   1.282  0.2085 -1.4215 -0.3940
 4982TIP3   OH214951   2.652   4.068   0.870  0.6727  0.5884 -0.4391
 4982TIP3    H114952   2.669   4.019   0.790 -0.0730  0.4943 -0.5470
 4982TIP3    H214953   2.558   4.087   0.867  0.5000  0.0259  0.7193
 4983TIP3   OH214954   4.203   2.413   4.774  0.1389  0.4071 -0.0488
 4983TIP3    H114955   4.235   2.451   4.692 -0.5871  2.2186  0.4587
 4983TIP3    H214956   4.143   2.478   4.809 -1.6128 -1.4670  0.6534
 4984TIP3   OH214957   3.757   3.177   3.912 -0.4468 -0.5312  0.5442
 4984TIP3    H114958   3.777   3.133   3.994  0.2853 -1.6606 -0.2056
 4984TIP3    H214959   3.744   3.105   3.849 -3.2129  0.2053  0.1147
 4985TIP3   OH214960   4.363   3.035   0.820 -1.1467  0.0252  0.0170
 4985TIP3    H114961   4.320   3.090   0.756 -1.4138  0.6307  0.7008
 4985TIP3    H214962   4.322   2.949   0.810 -1.0308  0.0525 -0.7580
 4986TIP3   OH214963   4.973   5.003   2.787 -0.3581  0.2022 -0.2310
 4986TIP3    H114964   4.886   4.994   2.826 -1.8131  0.2624 -3.1951
 4986TIP3    H214965   5.033   5.007   2.862 -2.8403 -0.2188  1.9058
 4987TIP3   OH214966   4.456   2.886   4.917 -0.5319  0.5038 -0.2803
 4987TIP3    H114967   4.500   2.873   5.000  2.0371  2.9098 -1.1050
 4987TIP3    H214968   4.504   2.831   4.855 -0.9084  0.5177 -0.5893
 4988TIP3   OH214969   1.117   5.397   1.207  0.0571 -0.5233  0.4915
 4988TIP3    H114970   1.164   5.322   1.243 -0.6641 -1.1907  0.0697
 4988TIP3    H214971   1.059   5.359   1.141  0.0270  0.4619 -0.0636
 4989TIP3   OH214972   5.831   5.179   4.941 -0.2234  0.0738 -0.4444
 4989TIP3    H114973   5.804   5.166   5.032 -1.6143 -1.7262 -1.0501
 4989TIP3    H214974   5.919   5.144   4.936  0.5820  1.8123  0.5544
 4990TIP3   OH214975   1.379   3.422   1.480  0.1752  0.5172 -0.0383
 4990TIP3    H114976   1.423   3.501   1.512  1.1907 -0.1548  0.2858
 4990TIP3    H214977   1.370   3.367   1.558 -1.8241  0.8752  0.0300
 4991TIP3   OH214978   4.989   2.167   0.950 -0.2270  0.3383 -0.1851
 4991TIP3    H114979   4.896   2.189   0.946 -0.3643  0.0356  1.0832
 4991TIP3    H214980   5.034   2.250   0.962 -0.4349  0.3501  0.5115
 4992TIP3   OH214981   1.945   3.035   0.181  0.3574  0.3330  0.6018
 4992TIP3    H114982   1.947   2.998   0.093 -1.1082 -2.5617  1.6656
 4992TIP3    H214983   1.861   3.007   0.217  1.0697  1.1057  3.0842
 4993TIP3   OH214984   0.904   5.213   3.337 -0.5507  0.3482 -0.2040
 4993TIP3    H114985   0.892   5.172   3.423 -2.4026  2.8230  0.8580
 4993TIP3    H214986   0.859   5.155   3.276 -2.2669  0.2450  1.0772
 4994TIP3   OH214987   5.051   3.647   1.457  0.5037 -0.5239 -0.0398
 4994TIP3    H114988   4.957   3.646   1.438  0.4114 -0.9770  0.4239
 4994TIP3    H214989   5.093   3.644   1.370  0.0819 -1.3414 -0.2323
 4995TIP3   OH214990   3.741   2.621   4.635 -0.2222 -0.0517  0.4641
 4995TIP3    H114991   3.771   2.650   4.549 -1.4644 -0.3668 -0.0983
 4995TIP3    H214992   3.819   2.587   4.678  0.4995  0.5313 -0.3602
 4996TIP3   OH214993   1.628   4.617   1.943  0.1272  0.3161 -0.3375
 4996TIP3    H114994   1.637   4.712   1.956  1.4238  0.7161 -3.3641
 4996TIP3    H214995   1.536   4.603   1.925 -0.9281  0.2862  3.9315
 4997TIP3   OH214996   5.206   2.548   3.384  0.4754 -0.1182  0.0958
 4997TIP3    H114997   5.192   2.537   3.290  0.6806  0.3302  0.0129
 4997TIP3    H214998   5.246   2.465   3.412 -0.4137 -0.6069 -0.0392
 4998TIP3   OH214999   1.681   2.238   1.530 -0.1545  0.0260 -0.0841
 4998TIP3    H115000   1.588   2.237   1.550  0.0913  0.3458  1.1089
 4998TIP3    H215001   1.686   2.276   1.442 -1.0827  0.9639  0.2507
 4999TIP3   OH215002   1.678   2.346   1.224 -0.3593  0.2441 -0.2236
 4999TIP3    H115003   1.696   2.284   1.154  0.2955 -0.1082  0.2425
 4999TIP3    H215004   1.738   2.419   1.208  2.1604 -1.2354  1.7219
 5000TIP3   OH215005   5.478   0.847   2.202  0.1886  0.0464 -0.5488
 5000TIP3    H115006   5.550   0.796   2.165  0.7115  0.3943 -0.0383
 5000TIP3    H215007   5.522   0.918   2.249 -0.4996  0.3759 -0.4022
 5001TIP3   OH215008   3.062   4.463   2.293  0.5866  0.0592  0.6824
 5001TIP3    H115009   3.110   4.381   2.282  1.2180  0.5427 -0.3330
 5001TIP3    H215010   3.038   4.465   2.386  1.7450 -0.6285  1.0141
 5002TIP3   OH215011   2.396   3.323   4.252 -0.0642 -0.2415 -0.1883
 5002TIP3    H115012   2.317   3.337   4.200 -0.2705  0.9731  0.4246
 5002TIP3    H215013   2.414   3.229   4.244 -1.5171 -0.5213 -0.3920
 5003TIP3   OH215014   4.102   5.601   2.092 -0.3559 -0.1031 -0.2341
 5003TIP3    H115015   4.113   5.515   2.053 -1.2342  0.3183 -1.4744
 5003TIP3    H215016   4.054   5.584   2.173 -0.9473 -0.7429 -0.7052
 5004TIP3   OH215017   4.901   4.718   0.959  0.7252 -0.2569 -0.3338
 5004TIP3    H115018   4.819   4.678   0.932  1.3967 -2.4505  0.6817
 5004TIP3    H215019   4.874   4.795   1.010 -0.6537 -0.2338 -1.0588
 5005TIP3   OH215020   1.637   1.454   1.620 -0.0494 -0.1520 -0.2099
 5005TIP3    H115021   1.728   1.466   1.591  0.5397  1.0325  1.8357
 5005TIP3    H215022   1.584   1.493   1.552  0.9354 -1.1134 -1.5839
 5006TIP3   OH215023   5.021   3.025   0.452  0.1148 -0.3085  0.0842
 5006TIP3    H115024   5.117   3.021   0.444  0.1260 -1.0548  0.5113
 5006TIP3    H215025   4.992   3.058   0.367  0.8686  2.0356  0.6667
 5007TIP3   OH215026   5.130   2.489   4.213 -0.6129  0.0656 -0.5722
 5007TIP3    H115027   5.214   2.456   4.181 -1.1693 -1.9514 -0.1032
 5007TIP3    H215028   5.070   2.478   4.139 -1.4224 -2.6680  0.3784
 5008TIP3   OH215029   1.148   1.365   0.288  0.0984 -0.3849  0.0984
 5008TIP3    H115030   1.121   1.371   0.380 -1.4552 -0.6358 -0.3113
 5008TIP3    H215031   1.244   1.362   0.292  0.1249  0.8691  1.6291
 5009TIP3   OH215032   3.790   2.724   4.382 -0.1041 -0.4268  0.1523
 5009TIP3    H115033   3.857   2.790   4.362 -0.8455 -0.0934 -1.3238
 5009TIP3    H215034   3.724   2.735   4.314 -0.2591 -2.6889 -0.1322
 5010TIP3   OH215035   6.245   3.118   4.227  0.2574  0.2320  0.5476
 5010TIP3    H115036   6.211   3.168   4.301  0.2048 -1.0893  1.4572
 5010TIP3    H215037   6.191   3.146   4.153  0.1492  1.4037  1.0536
 5011TIP3   OH215038   6.118   0.856   0.826  0.1234 -0.0678 -0.8631
 5011TIP3    H115039   6.154   0.862   0.915 -0.0508 -1.3307 -0.6876
 5011TIP3    H215040   6.189   0.816   0.775 -0.6141 -1.6137 -0.7402
 5012TIP3   OH215041   2.953   1.640   4.594 -0.1792 -0.2886 -0.1720
 5012TIP3    H115042   2.903   1.675   4.668 -0.4338  0.3198 -0.6168
 5012TIP3    H215043   2.904   1.563   4.565 -0.8966  0.3159 -0.6201
 5013TIP3   OH215044   1.085   1.957   1.848 -0.7839 -0.3004 -0.5265
 5013TIP3    H115045   1.121   1.872   1.872  1.6335  0.0770 -2.3870
 5013TIP3    H215046   1.037   1.940   1.767 -0.0347  0.1042 -1.0725
 5014TIP3   OH215047   6.064   3.323   2.907  0.8063 -0.0155 -0.3130
 5014TIP3    H115048   6.091   3.301   2.996  1.0747 -0.8197 -0.5868
 5014TIP3    H215049   6.128   3.279   2.851 -1.2720 -2.3677 -1.0115
 5015TIP3   OH215050   3.602   3.850   3.091  0.0383  0.0087  0.0134
 5015TIP3    H115051   3.538   3.787   3.125 -0.1016  1.2947  2.3424
 5015TIP3    H215052   3.670   3.853   3.158  0.2611  1.9789 -0.2594
 5016TIP3   OH215053   5.294   4.961   1.345  0.0005  0.5465  0.7734
 5016TIP3    H115054   5.280   5.000   1.431 -2.4725 -1.0549  1.1891
 5016TIP3    H215055   5.333   4.876   1.362 -2.0349 -0.5115  0.5424
 5017TIP3   OH215056   2.454   5.258   0.798 -0.7374 -0.4895 -0.8943
 5017TIP3    H115057   2.508   5.187   0.762  0.6153  0.4815 -0.8640
 5017TIP3    H215058   2.370   5.249   0.753  0.6475  0.2600 -3.8508
 5018TIP3   OH215059   2.130   0.108   2.583  0.1812  0.2037 -0.1649
 5018TIP3    H115060   2.136   0.028   2.635  1.0306  1.3167  1.5089
 5018TIP3    H215061   2.212   0.111   2.534  0.1248  0.0425 -0.2717
 5019TIP3   OH215062   5.394   4.653   2.721 -0.0839  0.1275  0.2971
 5019TIP3    H115063   5.447   4.654   2.642  1.3175 -2.1164  1.1201
 5019TIP3    H215064   5.441   4.709   2.782 -0.2058  0.4275  0.1178
 5020TIP3   OH215065   3.989   4.369   4.123 -0.0169 -0.8004 -0.6999
 5020TIP3    H115066   3.977   4.426   4.048  1.2543  2.6728  1.5136
 5020TIP3    H215067   4.084   4.357   4.130 -0.1441 -1.5666  0.0437
 5021TIP3   OH215068   5.609   0.316   4.343 -0.1142 -0.1655  0.5025
 5021TIP3    H115069   5.570   0.308   4.257 -0.6142  0.0201  0.7080
 5021TIP3    H215070   5.692   0.269   4.337 -0.2350 -0.3084 -0.0215
 5022TIP3   OH215071   2.447   4.520   4.090  0.0070 -0.0385 -0.0557
 5022TIP3    H115072   2.517   4.462   4.122 -0.2731 -0.9953 -1.1000
 5022TIP3    H215073   2.424   4.484   4.004 -1.0264  0.9172 -0.1990
 5023TIP3   OH215074   1.359   3.020   3.289  0.2544 -0.1072  0.4817
 5023TIP3    H115075   1.414   2.942   3.280  1.3045  0.6158  0.4459
 5023TIP3    H215076   1.367   3.044   3.381 -0.1110 -0.0694  0.5041
 5024TIP3   OH215077   4.223   0.403   0.812  0.0857  0.1848 -0.2304
 5024TIP3    H115078   4.246   0.419   0.721 -0.2453  0.2006 -0.3149
 5024TIP3    H215079   4.273   0.326   0.837  0.0965  0.1188 -0.4585
 5025TIP3   OH215080   1.973   2.439   2.632  0.0272  0.7759 -0.0491
 5025TIP3    H115081   1.953   2.404   2.545 -0.2581  1.1992 -0.1560
 5025TIP3    H215082   1.921   2.384   2.692  1.2694 -0.4079 -0.0072
 5026TIP3   OH215083   0.552   4.153   1.883  0.3050 -0.2871  0.5020
 5026TIP3    H115084   0.571   4.246   1.870 -0.7128 -0.3411 -1.9855
 5026TIP3    H215085   0.559   4.140   1.978  2.6989  1.7766  0.7046
 5027TIP3   OH215086   1.097   0.408   0.104 -0.8942  0.2564  0.2098
 5027TIP3    H115087   1.014   0.455   0.095 -1.5683 -0.8887  0.3215
 5027TIP3    H215088   1.087   0.354   0.182 -0.4155 -0.6106 -0.3010
 5028TIP3   OH215089   1.576   1.275   0.925 -0.1088 -0.2131 -0.4213
 5028TIP3    H115090   1.587   1.296   0.833 -0.8451  0.4849 -0.3665
 5028TIP3    H215091   1.481   1.265   0.936  0.1418 -3.9186 -0.4824
 5029TIP3   OH215092   2.472   5.162   5.045 -0.1751  0.0469 -0.4469
 5029TIP3    H115093   2.544   5.191   4.989  0.8949 -0.0687  0.7958
 5029TIP3    H215094   2.500   5.075   5.076  0.6367  1.1767  2.3772
 5030TIP3   OH215095   1.879   3.228   0.513  0.5192  0.0913 -0.2494
 5030TIP3    H115096   1.838   3.171   0.449 -1.1682  2.3723 -1.3335
 5030TIP3    H215097   1.966   3.191   0.526 -0.3303 -2.4247 -1.1779
 5031TIP3   OH215098   0.736   1.585   2.213  0.0352 -0.2109  0.2612
 5031TIP3    H115099   0.767   1.670   2.179  2.3079 -0.9143  0.4421
 5031TIP3    H215100   0.815   1.539   2.239 -1.0451 -2.8402 -0.7941
 5032TIP3   OH215101   2.711   0.548   2.274 -0.4607  0.2055 -0.0699
 5032TIP3    H115102   2.797   0.553   2.315 -0.1779  1.9887 -0.8075
 5032TIP3    H215103   2.651   0.576   2.342 -0.0325  2.7459 -0.6613
 5033TIP3   OH215104   6.082   4.063   0.071 -0.0722 -0.2668 -0.1238
 5033TIP3    H115105   6.070   4.143   0.121  0.4101  0.3957 -1.0321
 5033TIP3    H215106   6.091   4.092  -0.020  0.4685 -1.3206 -0.4295
 5034TIP3   OH215107   2.901   1.684   2.512  0.0658  0.0198  0.4553
 5034TIP3    H115108   2.865   1.728   2.589  0.1771 -0.5033  0.8100
 5034TIP3    H215109   2.987   1.724   2.499  0.3807 -0.4487  1.0839
 5035TIP3   OH215110   1.657   3.488   4.558 -0.5951  0.1168 -0.0433
 5035TIP3    H115111   1.657   3.463   4.466  1.6324 -0.0545 -0.0528
 5035TIP3    H215112   1.645   3.582   4.558 -0.1136  0.1816 -0.5568
 5036TIP3   OH215113   1.344   0.523   3.890  0.3927 -0.4701  0.1371
 5036TIP3    H115114   1.359   0.598   3.833 -0.4584  1.0411  1.7825
 5036TIP3    H215115   1.271   0.476   3.849 -0.5930  0.9056  0.2255
 5037TIP3   OH215116   5.124   2.707   4.883 -0.2572  0.2452 -0.1963
 5037TIP3    H115117   5.170   2.721   4.966 -1.4601 -0.0251  0.5423
 5037TIP3    H215118   5.175   2.758   4.819  0.4107  0.8710  0.7919
 5038TIP3   OH215119   2.787   4.322   1.218  0.4539  0.0686 -0.6820
 5038TIP3    H115120   2.728   4.283   1.154 -0.5293  2.3332 -1.2462
 5038TIP3    H215121   2.869   4.336   1.170  0.8738 -1.3174 -0.4315
 5039TIP3   OH215122   3.379   5.547   4.027 -0.0265  0.2273  0.2460
 5039TIP3    H115123   3.384   5.477   3.962 -0.0658  0.1799  0.2949
 5039TIP3    H215124   3.323   5.613   3.987  1.7324  1.2109 -0.7430
 5040TIP3   OH215125   4.268   1.773   0.848  0.0198  0.6968  0.4678
 5040TIP3    H115126   4.324   1.759   0.772  0.7953  0.0217  1.1496
 5040TIP3    H215127   4.327   1.802   0.917 -0.7159  1.5814  0.7462
 5041TIP3   OH215128   3.775   0.285   0.934 -0.0905 -0.1016  0.4227
 5041TIP3    H115129   3.695   0.256   0.979  0.4978 -1.5499  0.5907
 5041TIP3    H215130   3.813   0.350   0.993 -1.0049  0.4257  0.4557
 5042TIP3   OH215131   5.818   3.414   4.271 -0.2475  0.3760  0.0785
 5042TIP3    H115132   5.873   3.446   4.343 -2.8877 -0.0409  2.4111
 5042TIP3    H215133   5.761   3.488   4.250 -1.3241 -0.3542  0.3380
 5043TIP3   OH215134   4.223   1.149   4.598 -0.1424 -0.8105  0.2330
 5043TIP3    H115135   4.290   1.110   4.542  0.1624  0.1582 -0.0965
 5043TIP3    H215136   4.157   1.182   4.537  0.5480  0.9196  0.3711
 5044TIP3   OH215137   6.011   4.646   3.564  0.1658 -0.1653  0.1469
 5044TIP3    H115138   6.014   4.704   3.641  1.9681 -0.7499  0.5550
 5044TIP3    H215139   6.083   4.676   3.509  0.3729 -1.2615 -0.1964
 5045TIP3   OH215140   3.656   1.027   4.467 -0.2072 -0.1340  0.2984
 5045TIP3    H115141   3.673   1.117   4.440 -0.7436 -0.7556 -2.3939
 5045TIP3    H215142   3.574   1.004   4.425 -0.3822 -1.7131  1.4192
 5046TIP3   OH215143   2.512   3.356   4.697  0.3509 -0.4939 -0.3952
 5046TIP3    H115144   2.432   3.392   4.658  0.3930 -1.1915 -1.1719
 5046TIP3    H215145   2.547   3.298   4.629  0.4481 -1.7499  0.6727
 5047TIP3   OH215146   0.510   2.192   3.153 -0.4924  0.2433 -0.2861
 5047TIP3    H115147   0.565   2.141   3.094 -1.1049 -0.7110 -0.0593
 5047TIP3    H215148   0.422   2.185   3.115 -0.8020  0.0497  0.4512
 5048TIP3   OH215149   1.963   3.779   0.891  0.4328  1.0990  0.5645
 5048TIP3    H115150   1.943   3.701   0.942  1.6233 -0.2496 -0.9266
 5048TIP3    H215151   1.986   3.845   0.956 -0.8038  0.3110  1.8715
 5049TIP3   OH215152   1.033   4.605   1.069 -0.3505 -0.3877 -0.6647
 5049TIP3    H115153   1.039   4.684   1.124 -1.2076 -1.1418  0.5701
 5049TIP3    H215154   1.122   4.592   1.037 -0.2298  1.1809 -1.0649
 5050TIP3   OH215155   4.337   5.928   0.217 -0.6244 -0.2234 -0.1341
 5050TIP3    H115156   4.306   6.018   0.232  0.6759  0.2317  0.0249
 5050TIP3    H215157   4.318   5.911   0.125 -1.4755 -0.0368 -0.0012
 5051TIP3   OH215158   3.463   5.794   2.803 -0.2572 -0.5445  0.3284
 5051TIP3    H115159   3.406   5.735   2.851 -0.3862 -1.2322 -0.6349
 5051TIP3    H215160   3.517   5.836   2.870 -0.8055 -1.0567  1.1053
 5052TIP3   OH215161   4.903   5.467   1.086  0.0877 -0.1861 -0.3741
 5052TIP3    H115162   4.815   5.469   1.124  0.1280 -0.8272 -0.2377
 5052TIP3    H215163   4.957   5.516   1.147 -0.1333  0.0344 -0.3538
 5053TIP3   OH215164   3.902   5.134   0.408  0.3150 -0.0446  0.2013
 5053TIP3    H115165   3.856   5.217   0.421 -0.3237 -0.5374  1.1568
 5053TIP3    H215166   3.839   5.078   0.364  0.0743 -0.6150  1.2281
 5054TIP3   OH215167   3.433   0.033   2.982 -0.0236  0.1432  0.0001
 5054TIP3    H115168   3.486   0.010   2.906  0.1416 -0.3834  0.2729
 5054TIP3    H215169   3.412   0.126   2.970  2.1616  0.7616  0.6038
 5055TIP3   OH215170   1.188   2.131   4.198  0.3918 -0.5358  0.4738
 5055TIP3    H115171   1.239   2.120   4.278  1.7800 -0.9021 -0.4126
 5055TIP3    H215172   1.169   2.225   4.194 -0.1104 -0.5895  1.4662
 5056TIP3   OH215173   3.772   2.789   1.527  0.1086  0.4119 -0.3168
 5056TIP3    H115174   3.802   2.723   1.590  1.1231 -0.4496 -1.6391
 5056TIP3    H215175   3.812   2.871   1.557  0.3357  0.0754  0.3206
 5057TIP3   OH215176   4.132   4.010   0.445 -0.4312 -0.0672  0.0875
 5057TIP3    H115177   4.110   3.968   0.528 -1.0829  1.0629  0.5037
 5057TIP3    H215178   4.047   4.032   0.406 -0.1169  1.4951  0.2220
 5058TIP3   OH215179   2.969   0.207   2.249  0.3568  0.0688  0.7158
 5058TIP3    H115180   3.043   0.176   2.197  1.0577  2.1150  0.3763
 5058TIP3    H215181   2.911   0.250   2.185 -0.6981 -0.7168  1.1125
 5059TIP3   OH215182   4.418   1.243   1.369  0.2206 -0.8089  0.0810
 5059TIP3    H115183   4.367   1.317   1.337  0.9246  0.1396  1.0549
 5059TIP3    H215184   4.378   1.221   1.454 -0.1759 -1.7600 -0.3365
 5060TIP3   OH215185   6.028   5.653   1.831  0.2577  0.0770  0.8567
 5060TIP3    H115186   6.070   5.712   1.893  1.7374  1.5060 -1.3834
 5060TIP3    H215187   6.025   5.702   1.749 -0.9074 -2.0134 -0.4445
 5061TIP3   OH215188   5.295   2.648   3.887 -0.0414  0.0210  0.3103
 5061TIP3    H115189   5.341   2.729   3.910 -1.4398  0.4711  1.6888
 5061TIP3    H215190   5.247   2.670   3.808 -0.5636  0.6089  0.7850
 5062TIP3   OH215191   1.682   0.080   3.806 -0.4804 -0.0331  0.0410
 5062TIP3    H115192   1.760   0.135   3.816  0.3601 -1.0238 -0.9089
 5062TIP3    H215193   1.649   0.101   3.718 -1.2265  0.2979  0.3936
 5063TIP3   OH215194   6.070   2.613   2.117 -0.3903 -0.5545 -0.1730
 5063TIP3    H115195   5.995   2.615   2.058 -0.1733 -0.0668 -0.4362
 5063TIP3    H215196   6.042   2.664   2.193 -0.7941 -1.4678  0.3079
 5064TIP3   OH215197   3.540   0.745   2.092  0.2068 -0.4758  0.3450
 5064TIP3    H115198   3.587   0.806   2.149 -0.4131  0.1308  0.2128
 5064TIP3    H215199   3.518   0.672   2.150  0.9785 -0.6047  0.4956
 5065TIP3   OH215200   5.031   0.882   1.423  0.2521  0.0384  0.1451
 5065TIP3    H115201   4.991   0.815   1.478  0.4705  0.3405  0.6740
 5065TIP3    H215202   5.117   0.846   1.400  0.3485  0.1138  0.3863
 5066TIP3   OH215203   5.624   3.587   4.227  0.0183 -0.4855 -0.1860
 5066TIP3    H115204   5.562   3.619   4.162  0.4566 -1.8395 -1.3073
 5066TIP3    H215205   5.570   3.563   4.302 -0.3353  2.7540  0.7316
 5067TIP3   OH215206   3.166   2.634   3.781  0.6794 -0.1518  0.1893
 5067TIP3    H115207   3.180   2.541   3.761  2.3302 -0.2799  1.6461
 5067TIP3    H215208   3.254   2.672   3.779  0.4180  0.7369  2.4649
 5068TIP3   OH215209   5.911   0.920   0.346  0.8488 -0.1540 -0.4107
 5068TIP3    H115210   5.877   1.003   0.313 -0.8962 -0.4744  0.4481
 5068TIP3    H215211   5.906   0.860   0.272  0.3773  0.0448 -0.5417
 5069TIP3   OH215212   0.963   1.593   0.029  0.7995 -0.0964  0.4726
 5069TIP3    H115213   1.038   1.612   0.085  2.0024  1.9311 -1.6982
 5069TIP3    H215214   0.996   1.599  -0.060 -1.9960  1.2023 -0.5917
 5070TIP3   OH215215   4.800   3.085   4.408  0.1171  0.2542  0.2560
 5070TIP3    H115216   4.841   3.087   4.321 -1.8144  3.7387 -0.8004
 5070TIP3    H215217   4.708   3.065   4.390 -0.2014  0.4686  1.5791
 5071TIP3   OH215218   5.834   2.222   0.912 -0.6611  0.0042  0.0671
 5071TIP3    H115219   5.824   2.188   1.001  0.6255 -1.5391 -0.3415
 5071TIP3    H215220   5.888   2.301   0.922  0.5737 -0.8776  0.5437
 5072TIP3   OH215221   5.740   2.399   0.707 -0.5485  0.3878  0.0469
 5072TIP3    H115222   5.745   2.315   0.752  0.7087  0.5804  0.3075
 5072TIP3    H215223   5.687   2.454   0.765 -1.1077 -0.1086  0.0241
 5073TIP3   OH215224   5.097   3.229   1.501  0.5211 -0.0399 -0.2387
 5073TIP3    H115225   5.131   3.245   1.590  1.2433 -0.7243 -0.3738
 5073TIP3    H215226   5.002   3.234   1.510  0.5397 -1.0734  0.7941
 5074TIP3   OH215227   3.781   2.103   4.732  0.2763 -0.0940 -0.2488
 5074TIP3    H115228   3.715   2.158   4.691  0.1355 -0.9371 -1.1820
 5074TIP3    H215229   3.839   2.165   4.777 -0.4151  0.7404 -0.4724
 5075TIP3   OH215230   3.165   2.079   3.798  0.0557 -0.6630 -0.2731
 5075TIP3    H115231   3.249   2.085   3.753 -0.2536 -0.2649 -0.8047
 5075TIP3    H215232   3.141   2.169   3.817  0.0181 -0.8051  0.3949
 5076TIP3   OH215233   0.048   2.636   2.613  0.2049  0.5606 -0.3052
 5076TIP3    H115234   0.131   2.680   2.595  0.5579  0.5568  1.1727
 5076TIP3    H215235   0.027   2.661   2.702 -0.4718 -0.8650 -0.0432
 5077TIP3   OH215236   1.134   2.827   0.587  0.5424 -0.2498 -0.0281
 5077TIP3    H115237   1.226   2.847   0.605  0.3285  2.6611 -1.6088
 5077TIP3    H215238   1.085   2.899   0.625 -0.8029 -0.1992 -1.7262
 5078TIP3   OH215239   5.164   4.034   4.684  0.2463  0.0985  0.4212
 5078TIP3    H115240   5.150   3.984   4.765  1.3929 -0.8985  0.0361
 5078TIP3    H215241   5.154   3.969   4.614 -0.6860  0.9436 -0.2585
 5079TIP3   OH215242   2.405   5.529   1.759  0.2122  0.2692 -0.3163
 5079TIP3    H115243   2.481   5.485   1.798  0.2503 -0.1681 -0.8794
 5079TIP3    H215244   2.443   5.586   1.692 -0.0187 -0.7344 -1.3313
 5080TIP3   OH215245   6.230   5.148   2.643 -0.0123  0.3173 -0.7059
 5080TIP3    H115246   6.251   5.240   2.627 -1.2822  0.8039  0.2131
 5080TIP3    H215247   6.181   5.121   2.566  0.9381  0.2040 -1.2785
 5081TIP3   OH215248   1.851   2.757   3.969  0.3667 -0.2681 -0.2719
 5081TIP3    H115249   1.837   2.753   3.875  1.8125 -0.7410 -0.4821
 5081TIP3    H215250   1.859   2.851   3.988  0.7511 -0.2073 -0.7244
 5082TIP3   OH215251   5.435   3.695   2.746  0.1289 -0.1144 -0.5551
 5082TIP3    H115252   5.496   3.631   2.781 -0.1996 -0.4068 -0.5122
 5082TIP3    H215253   5.355   3.646   2.730  0.2165  0.0580 -1.5643
 5083TIP3   OH215254   0.237   3.635   2.365 -0.1755  0.1455 -0.2060
 5083TIP3    H115255   0.304   3.574   2.335  0.4727  0.5264  0.4294
 5083TIP3    H215256   0.206   3.677   2.285 -0.4698 -0.8434 -0.6269
 5084TIP3   OH215257   2.171   4.299   1.944  0.1440 -0.7389 -0.0558
 5084TIP3    H115258   2.263   4.278   1.933  0.1802 -0.7487  0.2433
 5084TIP3    H215259   2.170   4.368   2.011 -0.1000 -1.1008  0.3153
 5085TIP3   OH215260   1.401   5.021   2.188 -0.0263 -0.8669 -0.2304
 5085TIP3    H115261   1.349   5.089   2.146  0.8402  0.3650  0.6436
 5085TIP3    H215262   1.353   4.940   2.170 -1.1879 -0.0177 -1.1083
 5086TIP3   OH215263   3.967   1.665   0.037  0.3990 -0.1959 -0.0988
 5086TIP3    H115264   4.017   1.729   0.087  0.8267 -0.8975  0.3850
 5086TIP3    H215265   3.882   1.708   0.022  0.8593  0.6878 -0.2521
 5087TIP3   OH215266   6.008   4.113   3.346 -0.1134 -1.1286  0.1262
 5087TIP3    H115267   5.946   4.185   3.337 -0.8829 -1.6963  0.6997
 5087TIP3    H215268   6.083   4.138   3.292 -0.1708  0.2940  0.6657
 5088TIP3   OH215269   5.528   5.827   2.448 -0.0836 -0.1912  0.0678
 5088TIP3    H115270   5.562   5.740   2.426  0.5741  0.5442 -2.0842
 5088TIP3    H215271   5.434   5.812   2.463  0.0443 -1.3005 -0.1205
 5089TIP3   OH215272   0.175   1.068   0.087  0.1287  0.1709 -0.3479
 5089TIP3    H115273   0.236   1.125   0.134  1.0910  0.4447 -1.8868
 5089TIP3    H215274   0.216   0.982   0.088 -1.1787 -0.5029  1.7010
 5090TIP3   OH215275   0.020   5.658   4.087  0.3190  0.4986  0.0237
 5090TIP3    H115276  -0.029   5.720   4.033 -3.0400  0.3282  2.5325
 5090TIP3    H215277   0.037   5.706   4.168 -0.7789 -1.2225  1.3382
 5091TIP3   OH215278   2.273   2.878   4.032 -0.2193  0.2171  0.1228
 5091TIP3    H115279   2.281   2.817   4.105 -0.1936 -0.8548 -0.7567
 5091TIP3    H215280   2.188   2.857   3.992 -0.2896  0.8752 -0.0888
 5092TIP3   OH215281   2.886   3.317   3.441 -0.2138  0.1228  0.4261
 5092TIP3    H115282   2.961   3.377   3.437 -0.3413  0.2348 -0.2793
 5092TIP3    H215283   2.916   3.246   3.498 -0.2459  1.1041  1.7273
 5093TIP3   OH215284   1.394   2.408   1.691  0.2375 -0.2575 -0.5529
 5093TIP3    H115285   1.306   2.376   1.710 -0.5411  1.2855 -1.4082
 5093TIP3    H215286   1.417   2.369   1.607 -0.2960  0.5775 -1.0999
 5094TIP3   OH215287   5.734   3.282   0.285  0.3674 -0.4257 -0.6991
 5094TIP3    H115288   5.772   3.277   0.198  0.0794  0.3555 -0.8826
 5094TIP3    H215289   5.744   3.374   0.310 -1.9635 -0.0410 -1.0148
 5095TIP3   OH215290   2.508   2.445   4.990  0.0757 -0.6431 -0.6074
 5095TIP3    H115291   2.442   2.455   4.921 -0.3403  1.8305  0.0642
 5095TIP3    H215292   2.489   2.360   5.029 -0.8212 -1.2878 -2.3501
 5096TIP3   OH215293   4.253   2.768   0.388  0.1864  0.3972 -0.6480
 5096TIP3    H115294   4.210   2.814   0.316 -0.4039  0.3466 -0.3382
 5096TIP3    H215295   4.229   2.818   0.466 -0.0444 -0.1311 -0.3674
 5097TIP3   OH215296   0.986   1.905   4.812 -0.3715 -0.4247  0.7701
 5097TIP3    H115297   0.950   1.982   4.855 -0.6351 -0.9960  1.6194
 5097TIP3    H215298   1.081   1.912   4.823 -0.3282  0.2132  0.0570
 5098TIP3   OH215299   5.078   0.881   0.370  0.7203  0.3814 -0.0703
 5098TIP3    H115300   5.113   0.810   0.423  0.2089  0.3648  0.2510
 5098TIP3    H215301   5.058   0.951   0.433 -2.3005 -0.5623  0.1764
 5099TIP3   OH215302   5.916   0.976   4.845 -0.0380 -0.1752 -0.0261
 5099TIP3    H115303   5.948   0.913   4.780  2.2964  1.0635 -0.2039
 5099TIP3    H215304   5.822   0.984   4.828  0.3618 -0.4751 -2.7391
 5100TIP3   OH215305   3.685   1.619   3.503  0.7345 -0.3072  0.0674
 5100TIP3    H115306   3.703   1.576   3.586 -0.6400  1.0226  1.1058
 5100TIP3    H215307   3.591   1.607   3.489  0.4482  1.6665  0.0291
 5101TIP3   OH215308   4.421   3.769   1.643 -0.5285  0.5342 -0.0963
 5101TIP3    H115309   4.331   3.739   1.633 -0.1301 -0.8858  0.3597
 5101TIP3    H215310   4.449   3.734   1.728  0.6404  0.3998 -0.5161
 5102TIP3   OH215311   2.320  -0.035   3.538 -0.5586  0.0300  0.7338
 5102TIP3    H115312   2.356   0.046   3.502 -1.7200 -0.3633 -1.4728
 5102TIP3    H215313   2.234  -0.010   3.571  0.0029  0.1213  2.2341
 5103TIP3   OH215314   6.296   4.504   1.661  0.1181  0.2045 -0.0179
 5103TIP3    H115315   6.386   4.474   1.652  0.6852  1.2570  1.7382
 5103TIP3    H215316   6.291   4.580   1.603  0.7432  0.8897  0.8081
 5104TIP3   OH215317   0.219   5.874   3.919  0.4825  0.3334 -0.0019
 5104TIP3    H115318   0.278   5.808   3.956  0.7877  1.1867  1.0816
 5104TIP3    H215319   0.182   5.832   3.841  1.9642 -0.4901 -0.2984
 5105TIP3   OH215320   5.890   4.645   2.627 -0.0509  0.4687  0.0584
 5105TIP3    H115321   5.895   4.593   2.707  1.2160  0.5756  0.0715
 5105TIP3    H215322   5.842   4.590   2.566 -1.6772  0.6818  1.0863
 5106TIP3   OH215323   3.326   1.239   1.910  0.4885 -0.6567  0.3661
 5106TIP3    H115324   3.354   1.148   1.920 -1.4322 -1.2660  0.7437
 5106TIP3    H215325   3.251   1.247   1.969 -0.0748  0.8434 -0.5115
 5107TIP3   OH215326   5.962   1.800   3.462  0.1010  0.4109 -0.2216
 5107TIP3    H115327   6.044   1.850   3.461 -0.5635  1.6253  1.2310
 5107TIP3    H215328   5.962   1.754   3.546 -0.6376  0.3254 -0.2545
 5108TIP3   OH215329   4.291   1.195   0.847  0.1517 -0.0081  0.4971
 5108TIP3    H115330   4.247   1.118   0.883  0.4934 -1.3576 -1.7688
 5108TIP3    H215331   4.235   1.223   0.775  1.0949  0.5686 -0.0348
 5109TIP3   OH215332   0.956   4.762   3.204 -0.8217  0.3915  0.7496
 5109TIP3    H115333   1.022   4.830   3.191 -2.0854  1.3543 -1.2533
 5109TIP3    H215334   1.002   4.680   3.190  0.2209  0.9707  0.7168
 5110TIP3   OH215335   5.564   2.621   0.799  0.1077 -0.3031  0.0644
 5110TIP3    H115336   5.468   2.618   0.794  0.1041 -0.2416  0.0894
 5110TIP3    H215337   5.585   2.714   0.794  0.1499 -0.2966  0.3219
 5111TIP3   OH215338   5.206   0.503   5.042  0.2149  0.2023 -0.1460
 5111TIP3    H115339   5.127   0.456   5.070  0.9060 -0.7471  0.2504
 5111TIP3    H215340   5.241   0.541   5.122 -0.1000  1.0369 -0.4001
 5112TIP3   OH215341   5.560   1.636   1.189  0.4403 -0.3966  0.3065
 5112TIP3    H115342   5.470   1.622   1.220  0.8676 -0.1393  1.7250
 5112TIP3    H215343   5.550   1.655   1.095 -1.1389  1.1624  0.7420
 5113TIP3   OH215344   2.955   5.759   2.143 -0.1047  0.1032  0.0367
 5113TIP3    H115345   3.038   5.774   2.098 -0.0194  0.5455  0.3329
 5113TIP3    H215346   2.895   5.822   2.103 -0.9226 -1.7228 -1.7770
 5114TIP3   OH215347   2.671   4.340   2.363  0.3143  0.4650  0.4493
 5114TIP3    H115348   2.599   4.277   2.362 -1.7008  2.5405  2.5342
 5114TIP3    H215349   2.747   4.289   2.335 -1.0749 -2.9546  2.2373
 5115TIP3   OH215350   3.855   0.800   2.346 -0.5563 -0.1092 -0.1679
 5115TIP3    H115351   3.762   0.806   2.368  0.1634 -0.5300  3.6424
 5115TIP3    H215352   3.900   0.837   2.422  2.4678 -3.0305 -0.3286
 5116TIP3   OH215353   5.724   1.445   4.566  0.4331  0.1124  0.6252
 5116TIP3    H115354   5.796   1.437   4.503 -0.8800  1.4092 -1.1228
 5116TIP3    H215355   5.689   1.357   4.574  0.4372 -0.0276 -0.7193
 5117TIP3   OH215356   5.521   1.842   4.635  0.4991 -0.3311 -0.0978
 5117TIP3    H115357   5.573   1.784   4.690  0.2006 -0.1399  0.3909
 5117TIP3    H215358   5.456   1.880   4.694  1.4938  1.4868 -0.0991
 5118TIP3   OH215359   4.819   5.144   4.686  0.1748 -0.2481 -0.0870
 5118TIP3    H115360   4.865   5.213   4.734  0.4799 -1.9341  2.1976
 5118TIP3    H215361   4.730   5.146   4.719 -0.4274  0.4438 -1.6502
 5119TIP3   OH215362   1.354   5.394   1.601 -0.7213  0.2672  0.2085
 5119TIP3    H115363   1.358   5.322   1.665 -0.9760  1.5657  1.7635
 5119TIP3    H215364   1.445   5.411   1.578 -0.5252  0.5476  1.1519
 5120TIP3   OH215365   4.421   5.663   5.151  0.0753  0.2488 -0.2008
 5120TIP3    H115366   4.441   5.751   5.119  0.8109  0.0920 -0.1764
 5120TIP3    H215367   4.385   5.618   5.074 -0.3220  0.5736 -0.2091
 5121TIP3   OH215368   1.534   1.292   2.284 -0.2087 -0.2255 -0.0744
 5121TIP3    H115369   1.498   1.226   2.344 -3.1862 -0.1772 -1.5752
 5121TIP3    H215370   1.591   1.242   2.225 -1.2917 -1.2439 -0.3007
 5122TIP3   OH215371   0.111   5.597   0.524 -0.2332  0.2526 -0.1162
 5122TIP3    H115372   0.207   5.607   0.529 -0.0437 -1.3939  0.1010
 5122TIP3    H215373   0.077   5.676   0.565  1.0339  0.9064 -0.2559
 5123TIP3   OH215374   5.966   5.148   1.357 -0.1811  0.1399 -0.6028
 5123TIP3    H115375   6.033   5.193   1.305 -2.0931  2.4774 -1.2292
 5123TIP3    H215376   6.003   5.146   1.446  0.8366  1.1630 -0.9644
 5124TIP3   OH215377   4.792   5.566   0.441 -0.1235 -0.2240  0.2684
 5124TIP3    H115378   4.845   5.488   0.424  0.5295  0.3939 -0.6704
 5124TIP3    H215379   4.702   5.538   0.427  0.1674 -0.6055 -0.9402
 5125TIP3   OH215380   3.276   5.577   2.197  0.6522  0.2722  0.3980
 5125TIP3    H115381   3.230   5.546   2.119  1.1336  1.5637 -0.4191
 5125TIP3    H215382   3.217   5.555   2.270 -0.8948  1.1684 -0.5416
 5126TIP3   OH215383   0.439   1.131   3.729 -0.2484 -0.2888 -0.2263
 5126TIP3    H115384   0.446   1.066   3.798  1.4576  0.4082  0.3227
 5126TIP3    H215385   0.518   1.118   3.676  0.6073  1.8036  0.4002
 5127TIP3   OH215386   3.761   4.120   1.173 -0.1349  0.1319  0.0418
 5127TIP3    H115387   3.687   4.180   1.178  0.2182  0.6508 -0.8228
 5127TIP3    H215388   3.762   4.076   1.258 -1.5404 -0.0222 -0.0016
 5128TIP3   OH215389   5.056   4.206   4.311 -0.0949  0.5888  0.1414
 5128TIP3    H115390   5.068   4.298   4.336 -1.3462  0.9524 -0.5073
 5128TIP3    H215391   5.071   4.205   4.216  0.2362  0.0575  0.1955
 5129TIP3   OH215392   4.149   1.157   2.120 -0.2613  0.4787  0.6743
 5129TIP3    H115393   4.096   1.235   2.134 -0.7231  0.4858 -0.8688
 5129TIP3    H215394   4.234   1.178   2.158 -1.0840  0.8005  2.4169
 5130TIP3   OH215395   0.701   4.356   1.234  0.3910  0.4539  0.0085
 5130TIP3    H115396   0.721   4.431   1.178  1.0457  0.4679  0.2525
 5130TIP3    H215397   0.771   4.294   1.216  0.9416  0.6948  1.2393
 5131TIP3   OH215398   2.839   5.677   2.959 -0.0090 -0.0412  0.4325
 5131TIP3    H115399   2.862   5.602   3.013  1.6270  0.1411  0.0580
 5131TIP3    H215400   2.852   5.647   2.869 -2.5033 -0.2828  0.0867
 5132TIP3   OH215401   6.282   3.574   2.160 -0.5104 -0.3472  0.3868
 5132TIP3    H115402   6.299   3.663   2.189 -2.0974 -0.0350  0.4893
 5132TIP3    H215403   6.188   3.561   2.176 -0.8773 -1.1275 -1.9853
 5133TIP3   OH215404   2.962   0.341   2.731  0.4511 -0.7224 -0.3697
 5133TIP3    H115405   2.875   0.379   2.738 -0.2342 -2.4254  0.8117
 5133TIP3    H215406   2.986   0.354   2.639 -1.4184 -1.0377 -0.9423
 5134TIP3   OH215407   6.077   0.493   0.137  0.2187 -0.2078  0.4215
 5134TIP3    H115408   6.031   0.430   0.082  0.7438  0.5303 -0.9174
 5134TIP3    H215409   6.114   0.441   0.208 -0.6374 -1.1640  0.1855
 5135TIP3   OH215410   5.381   0.812   4.832  0.5421  0.0230  0.1656
 5135TIP3    H115411   5.408   0.765   4.910  0.4529 -1.3879 -0.6052
 5135TIP3    H215412   5.461   0.850   4.797  0.4579  1.3497  1.3515
 5136TIP3   OH215413   5.617   4.400   4.752  0.5313 -0.4359  0.1822
 5136TIP3    H115414   5.671   4.381   4.829  1.6085  0.2718 -0.3666
 5136TIP3    H215415   5.665   4.360   4.680 -0.2260 -0.6769 -0.1958
 5137TIP3   OH215416   4.972   3.022   1.789  0.1128  0.4659 -0.5746
 5137TIP3    H115417   5.050   3.058   1.833  1.2153 -3.5869  1.2984
 5137TIP3    H215418   4.899   3.050   1.844  0.6362  1.5691 -0.4126
 5138TIP3   OH215419   2.167   0.547   1.162 -0.4749  0.3452  0.4875
 5138TIP3    H115420   2.242   0.596   1.129  0.3133  0.1348  1.8785
 5138TIP3    H215421   2.205   0.470   1.204 -1.2806  1.0766  2.7066
 5139TIP3   OH215422   4.698   1.309   1.375  0.0437  0.2347 -0.0871
 5139TIP3    H115423   4.754   1.300   1.298  0.1901 -0.1873  0.0653
 5139TIP3    H215424   4.611   1.284   1.344  0.1602 -0.2362 -0.0448
 5140TIP3   OH215425   0.710   2.788   0.275 -0.7512 -0.5425  0.8073
 5140TIP3    H115426   0.671   2.850   0.213 -0.0507  0.1104  1.0096
 5140TIP3    H215427   0.639   2.727   0.295 -0.9456 -0.9004 -0.7870
 5141TIP3   OH215428   0.101   4.821   1.802 -0.5428 -0.3103  0.1219
 5141TIP3    H115429   0.012   4.829   1.837 -0.6146 -0.4759 -0.0198
 5141TIP3    H215430   0.108   4.890   1.736 -0.3815  0.0523  0.5146
 5142TIP3   OH215431   1.587   0.456   3.497  0.4478 -1.0467 -0.0020
 5142TIP3    H115432   1.536   0.535   3.516 -0.5306 -1.6904  0.0982
 5142TIP3    H215433   1.523   0.385   3.500  1.3772 -1.8936  0.2556
 5143TIP3   OH215434   1.544   0.923   4.819 -0.6402 -0.4626  0.4096
 5143TIP3    H115435   1.511   0.973   4.744 -1.7996 -3.0518 -0.9447
 5143TIP3    H215436   1.465   0.900   4.869  0.0642  0.7199  2.1691
 5144TIP3   OH215437   6.108   2.455   1.673 -0.7512  0.5922 -0.5033
 5144TIP3    H115438   6.152   2.439   1.757 -0.5136 -0.0256 -0.7434
 5144TIP3    H215439   6.029   2.402   1.677 -1.3587  1.4952 -0.1840
 5145TIP3   OH215440   3.085   0.975   1.230  0.5266  0.5462  0.2847
 5145TIP3    H115441   3.038   0.973   1.147 -1.6492  1.5278  1.4306
 5145TIP3    H215442   3.168   1.019   1.210 -0.7239  2.4308 -1.0339
 5146TIP3   OH215443   2.190   3.490   1.466  0.2896 -0.3883  0.2286
 5146TIP3    H115444   2.279   3.467   1.440 -0.0772 -0.9038 -0.6059
 5146TIP3    H215445   2.154   3.410   1.504 -0.3187 -0.6281 -0.8319
 5147TIP3   OH215446   4.464   1.121   4.968 -0.3743 -0.3823 -0.4838
 5147TIP3    H115447   4.456   1.197   4.909  1.9584 -1.2384 -2.0328
 5147TIP3    H215448   4.408   1.054   4.928 -0.0782 -0.4339 -0.8148
 5148TIP3   OH215449   4.667   2.558   5.007 -0.1706 -0.0419 -0.3566
 5148TIP3    H115450   4.697   2.608   5.083 -0.3900 -0.3514 -0.0572
 5148TIP3    H215451   4.747   2.532   4.962 -0.0133 -0.3113  0.0722
 5149TIP3   OH215452   1.379   5.270   4.272  0.0446  0.2654 -0.3742
 5149TIP3    H115453   1.460   5.306   4.310 -0.2115 -0.6351  1.0844
 5149TIP3    H215454   1.404   5.184   4.239 -0.7474 -0.9979  2.1113
 5150TIP3   OH215455   3.674   5.809   2.245 -0.0328  0.4713 -0.4157
 5150TIP3    H115456   3.655   5.755   2.322  1.0433 -2.8364 -2.2592
 5150TIP3    H215457   3.765   5.788   2.223 -0.6963  0.2191 -3.3475
 5151TIP3   OH215458   1.669   2.668   1.094 -0.9998  0.2119  0.4744
 5151TIP3    H115459   1.730   2.599   1.121 -0.2422  0.1769 -1.2224
 5151TIP3    H215460   1.715   2.716   1.025 -1.7049  2.1342  1.2697
 5152TIP3   OH215461   3.167   4.295   0.669  0.7855  0.0424 -0.1716
 5152TIP3    H115462   3.084   4.267   0.708  1.0505  0.2144  0.5311
 5152TIP3    H215463   3.204   4.215   0.632  0.1777  0.0152 -0.7496
 5153TIP3   OH215464   5.709   5.269   3.831  0.0457  0.3729  0.1375
 5153TIP3    H115465   5.629   5.220   3.851 -0.0706  0.5741  0.1661
 5153TIP3    H215466   5.688   5.317   3.751 -0.5598  1.9994  1.2231
 5154TIP3   OH215467   5.827   5.775   0.440 -0.0194  0.0102  1.0022
 5154TIP3    H115468   5.810   5.868   0.455  1.5376  0.3883  0.6472
 5154TIP3    H215469   5.740   5.736   0.429 -0.6560  1.7379 -0.6314
 5155TIP3   OH215470   1.298   3.088   1.661 -0.2131  0.2646 -0.0377
 5155TIP3    H115471   1.302   3.060   1.752  1.9645 -0.8963 -0.4447
 5155TIP3    H215472   1.262   3.177   1.665 -1.5079 -0.3032  1.7983
 5156TIP3   OH215473   5.163   2.932   3.850 -0.1652 -0.5717  0.0259
 5156TIP3    H115474   5.106   2.942   3.926  1.1204  1.0926  0.8289
 5156TIP3    H215475   5.233   2.874   3.880  0.9520  0.9930  0.5038
 5157TIP3   OH215476   5.466   1.255   1.248 -0.0989  0.7142 -0.4999
 5157TIP3    H115477   5.430   1.220   1.329  2.7506 -0.8092  0.2567
 5157TIP3    H215478   5.458   1.183   1.185 -0.7911  1.3113 -1.1093
 5158TIP3   OH215479   3.801   5.766   2.738  0.3904 -0.2954  0.8620
 5158TIP3    H115480   3.846   5.720   2.809 -0.5155 -1.0815  0.9447
 5158TIP3    H215481   3.712   5.780   2.771  0.0544 -0.3796  0.0159
 5159TIP3   OH215482   0.547   5.939   0.996  0.3364  0.1791  0.0625
 5159TIP3    H115483   0.544   6.023   1.041 -0.0282  1.4338 -2.1464
 5159TIP3    H215484   0.637   5.932   0.964  0.7324 -0.9368  1.3513
 5160TIP3   OH215485   1.368   0.214   3.448 -0.2404  0.2531 -0.1054
 5160TIP3    H115486   1.292   0.191   3.502  1.0166  0.8018  1.9825
 5160TIP3    H215487   1.329   0.240   3.364 -2.2915 -0.3578  0.5816
 5161TIP3   OH215488   2.494   5.906   1.198 -0.0858  0.1888  0.4058
 5161TIP3    H115489   2.412   5.863   1.220  0.5787 -1.0828  0.5068
 5161TIP3    H215490   2.559   5.863   1.253  0.8729  0.1305 -0.7277
 5162TIP3   OH215491   3.783   1.554   2.621  0.4324  0.0453 -0.6376
 5162TIP3    H115492   3.846   1.548   2.693  1.1107  1.7648 -1.0272
 5162TIP3    H215493   3.768   1.464   2.594  3.0737 -0.4227 -0.8035
 5163TIP3   OH215494   4.139   2.418   2.351 -0.0154  0.3300  0.0052
 5163TIP3    H115495   4.086   2.484   2.307 -0.0809 -0.4907 -1.1884
 5163TIP3    H215496   4.076   2.355   2.387  0.1028 -0.1391 -0.5934
 5164TIP3   OH215497   2.966   2.275   4.263 -0.4045  0.2245  0.3773
 5164TIP3    H115498   2.950   2.221   4.341 -1.0632  0.7367  0.6041
 5164TIP3    H215499   2.884   2.321   4.248 -0.7522 -0.8797 -1.4427
 5165TIP3   OH215500   2.628   2.796   3.034 -0.1533  0.4869  0.0354
 5165TIP3    H115501   2.623   2.886   3.002 -1.8338 -0.1601 -1.7081
 5165TIP3    H215502   2.540   2.776   3.064  0.4475 -0.2780  1.3872
 5166TIP3   OH215503   2.226   0.072   2.930 -0.3519  0.2391 -0.0320
 5166TIP3    H115504   2.137   0.092   2.956  0.2831  1.4181  1.3435
 5166TIP3    H215505   2.233  -0.024   2.937 -1.1330  0.2527  1.0954
 5167TIP3   OH215506   4.642   4.950   3.435  0.7099 -0.4290  0.0065
 5167TIP3    H115507   4.613   4.917   3.521  0.4790  1.6434  0.7849
 5167TIP3    H215508   4.634   4.874   3.377 -2.2064 -1.1320  1.1186
 5168TIP3   OH215509   5.668   4.130   4.908 -0.1963  0.4885 -0.7909
 5168TIP3    H115510   5.612   4.075   4.853  1.4572 -2.7488  0.4433
 5168TIP3    H215511   5.624   4.132   4.993 -1.0809  2.6438 -1.2384
 5169TIP3   OH215512   2.861   3.235   2.390  0.6618  0.2256  0.3405
 5169TIP3    H115513   2.862   3.322   2.430 -0.4609  0.4520 -0.0998
 5169TIP3    H215514   2.779   3.195   2.420  1.0632 -0.6088  0.3627
 5170TIP3   OH215515   2.872   1.619   1.600  0.4850 -0.5809  0.4400
 5170TIP3    H115516   2.827   1.536   1.587  0.5292 -0.5246 -0.0860
 5170TIP3    H215517   2.845   1.673   1.526 -1.1568  0.5878  1.7819
 5171TIP3   OH215518   0.969   1.669   1.789  0.3566 -0.5069 -0.3298
 5171TIP3    H115519   1.059   1.667   1.757  0.5037  2.4226 -0.3167
 5171TIP3    H215520   0.977   1.694   1.881 -0.4701  1.9024 -0.8410
 5172TIP3   OH215521   1.995   4.915   2.637 -0.0795 -0.3414 -0.2464
 5172TIP3    H115522   2.016   5.004   2.609  0.4255 -0.2996  0.2588
 5172TIP3    H215523   1.921   4.890   2.582 -0.4014  0.4913 -0.2139
 5173TIP3   OH215524   3.931   2.746   3.633 -0.0733 -0.5707 -0.4900
 5173TIP3    H115525   3.980   2.676   3.590 -0.3454 -1.6621  0.8826
 5173TIP3    H215526   3.839   2.723   3.619 -0.3929  2.0457 -3.9949
 5174TIP3   OH215527   2.584   5.688   3.837 -0.1680 -0.2876  0.1010
 5174TIP3    H115528   2.532   5.698   3.757  0.1940  1.5869  0.0644
 5174TIP3    H215529   2.520   5.688   3.908 -0.3524 -0.0180 -0.0659
 5175TIP3   OH215530   5.698   1.842   5.189 -0.3609 -0.0856 -0.7293
 5175TIP3    H115531   5.782   1.861   5.147 -0.5615  0.2654 -0.9663
 5175TIP3    H215532   5.677   1.753   5.161  0.5167 -0.6504  0.2894
 5176TIP3   OH215533   1.464   3.599   0.027  0.0115 -0.2826  0.4461
 5176TIP3    H115534   1.445   3.556   0.111  0.3138 -0.5717  0.3710
 5176TIP3    H215535   1.398   3.668   0.019  0.5066  0.3096  1.3307
 5177TIP3   OH215536   1.103   1.538   3.309 -0.1614  0.2578  0.0145
 5177TIP3    H115537   1.117   1.629   3.280 -0.5075  1.9477  4.2884
 5177TIP3    H215538   1.012   1.536   3.340  0.2554 -1.0538  1.2995
 5178TIP3   OH215539   1.024   5.913   4.767  0.2844  0.1544  0.2428
 5178TIP3    H115540   1.105   5.877   4.730 -0.4314 -1.5484  0.2542
 5178TIP3    H215541   1.046   6.003   4.789  2.5640 -0.6063  1.3671
 5179TIP3   OH215542   0.587   3.134   0.678 -0.2331 -0.0689  0.0664
 5179TIP3    H115543   0.502   3.145   0.721 -0.2437 -2.1797  0.7172
 5179TIP3    H215544   0.574   3.169   0.590 -1.3769  0.8299  0.5712
 5180TIP3   OH215545   4.702   4.891   0.070 -0.2890 -0.2115  0.2475
 5180TIP3    H115546   4.691   4.820   0.007  2.8792  0.1142 -0.8772
 5180TIP3    H215547   4.746   4.851   0.145 -0.8420  0.1006  0.7509
 5181TIP3   OH215548   4.812   4.526   2.434 -0.2966 -0.0560 -0.2873
 5181TIP3    H115549   4.888   4.490   2.478 -0.0518  1.1416  0.2953
 5181TIP3    H215550   4.774   4.587   2.497 -0.8887  0.4511 -1.1140
 5182TIP3   OH215551   2.348   3.974   1.334 -0.4020 -0.4026  0.2398
 5182TIP3    H115552   2.419   3.985   1.397 -1.1942 -0.9188  1.2487
 5182TIP3    H215553   2.273   3.947   1.387 -1.2378 -0.2945 -0.8596
 5183TIP3   OH215554   2.090   0.005   0.858  0.2161 -0.2817  0.6331
 5183TIP3    H115555   2.016   0.062   0.839 -1.0676 -1.7517  1.0529
 5183TIP3    H215556   2.166   0.052   0.823 -1.2057  0.0381 -2.2786
 5184TIP3   OH215557   6.292   0.496   4.752 -0.1885  0.3427  0.4445
 5184TIP3    H115558   6.229   0.425   4.765  0.6783 -0.5973 -0.2702
 5184TIP3    H215559   6.377   0.453   4.763  0.3362  1.4882  0.9594
 5185TIP3   OH215560   5.713   0.938   5.072  0.0955  0.1433  0.2576
 5185TIP3    H115561   5.633   0.963   5.118  0.1995 -1.7171  1.5568
 5185TIP3    H215562   5.686   0.928   4.980 -0.5136  2.1309  0.1668
 5186TIP3   OH215563   4.674   1.643   4.285 -0.5374  0.7142  0.2940
 5186TIP3    H115564   4.621   1.580   4.334  0.7711 -0.3792  0.3749
 5186TIP3    H215565   4.614   1.680   4.220 -1.5835  0.0913  0.8807
 5187TIP3   OH215566   0.084   2.381   4.914 -0.6113 -0.4778 -0.2319
 5187TIP3    H115567   0.067   2.326   4.838  0.6187 -0.4943 -0.5262
 5187TIP3    H215568   0.162   2.343   4.954  0.8401  1.5019 -0.9608
 5188TIP3   OH215569   3.989   0.095   0.915 -0.0644  0.2658  0.1427
 5188TIP3    H115570   4.012   0.104   0.822 -0.4866  1.3455  0.1254
 5188TIP3    H215571   3.915   0.155   0.927 -0.7994 -0.7401  0.9121
 5189TIP3   OH215572   0.641   2.932   2.392  0.6197  0.2917  0.6310
 5189TIP3    H115573   0.688   2.905   2.471  2.3892 -0.4992 -0.6065
 5189TIP3    H215574   0.696   2.900   2.320 -1.1585  0.5695 -0.9297
 5190TIP3   OH215575   6.221   5.144   3.470 -0.0426  0.3589 -0.3458
 5190TIP3    H115576   6.241   5.233   3.500  0.7050  0.3596 -0.8257
 5190TIP3    H215577   6.188   5.099   3.548  0.9214  0.6448  0.2356
 5191TIP3   OH215578  -0.031   2.120   2.699  0.3605  0.9068 -0.2632
 5191TIP3    H115579   0.045   2.173   2.723  1.4895 -0.7677  0.0491
 5191TIP3    H215580  -0.007   2.031   2.726 -1.6191  0.2949 -0.3986
 5192TIP3   OH215581   2.556   1.516   4.395  0.2115  0.2460 -0.3003
 5192TIP3    H115582   2.554   1.513   4.490 -0.3996 -1.0240 -0.3221
 5192TIP3    H215583   2.473   1.557   4.370 -0.1130 -0.3868 -0.2882
 5193TIP3   OH215584   1.595   5.559   0.786 -0.4731  0.0139 -0.3626
 5193TIP3    H115585   1.622   5.539   0.696  2.8421  1.3525  0.1958
 5193TIP3    H215586   1.663   5.519   0.841 -0.5967  1.9730  1.3466
 5194TIP3   OH215587   1.431   0.405   4.536  0.2109  0.2028 -0.0803
 5194TIP3    H115588   1.397   0.478   4.588 -3.4900 -0.5709 -1.1285
 5194TIP3    H215589   1.383   0.328   4.567  2.2729 -1.3977 -0.6161
 5195TIP3   OH215590   1.796   5.768   4.362 -0.6641 -0.6489  0.1143
 5195TIP3    H115591   1.861   5.790   4.296 -1.0820 -1.9499 -0.7753
 5195TIP3    H215592   1.735   5.710   4.317 -1.0177 -1.4841  1.6055
 5196TIP3   OH215593   1.211   4.922   5.097 -0.2138 -0.3751 -0.0791
 5196TIP3    H115594   1.149   4.960   5.036 -0.3851 -0.0548  0.2945
 5196TIP3    H215595   1.205   4.827   5.082 -0.7136 -0.3382 -0.1135
 5197TIP3   OH215596   3.241   5.252   0.759  0.5436 -0.1416  0.2908
 5197TIP3    H115597   3.240   5.338   0.719  1.6725 -0.5037 -0.5754
 5197TIP3    H215598   3.328   5.217   0.738  0.5175 -1.0447  1.5657
 5198TIP3   OH215599   5.911   1.434   4.364  0.0569  0.3951  0.1959
 5198TIP3    H115600   6.001   1.460   4.381  0.3848  0.5101 -1.5359
 5198TIP3    H215601   5.906   1.342   4.392  0.7471  0.3539  0.1890
 5199TIP3   OH215602   0.302   0.470   2.627  0.6206  0.3261 -0.0860
 5199TIP3    H115603   0.302   0.381   2.593  2.1040  0.8281 -1.5559
 5199TIP3    H215604   0.320   0.525   2.550  1.5555  1.7296  1.0775
 5200TIP3   OH215605   1.780   2.424   3.239 -0.1162  0.1855 -0.5037
 5200TIP3    H115606   1.711   2.398   3.179  0.4863 -1.1297 -0.6485
 5200TIP3    H215607   1.807   2.344   3.283  1.3453  0.6508 -0.4765
 5201TIP3   OH215608   2.758   3.969   2.002  0.0430 -0.0392 -0.1509
 5201TIP3    H115609   2.834   3.949   2.057  1.6085  1.7951 -1.5193
 5201TIP3    H215610   2.724   4.051   2.039 -0.8424 -0.4734  0.0064
 5202TIP3   OH215611   6.283   3.669   3.279 -0.8482 -0.5918  0.3217
 5202TIP3    H115612   6.233   3.636   3.204 -2.3485  1.8444  0.1170
 5202TIP3    H215613   6.353   3.720   3.240  1.7206 -3.6020  0.6220
 5203TIP3   OH215614   2.448   0.898   0.090 -0.1508 -0.6511 -0.1631
 5203TIP3    H115615   2.483   0.830   0.032  1.2323 -0.5056  0.4601
 5203TIP3    H215616   2.526   0.936   0.132 -1.1114 -0.9081  1.9677
 5204TIP3   OH215617   5.197   2.133   0.705  0.1223 -0.2792  0.1206
 5204TIP3    H115618   5.168   2.093   0.786  1.0036  0.8552  1.0312
 5204TIP3    H215619   5.284   2.167   0.725 -0.8713  2.8332 -0.2936
 5205TIP3   OH215620   3.548   1.831   4.737 -0.4920  0.3505 -0.0363
 5205TIP3    H115621   3.469   1.884   4.752  0.1629  1.1310  0.7438
 5205TIP3    H215622   3.618   1.895   4.728  0.4509 -0.3764  1.7067
 5206TIP3   OH215623   4.228   3.558   5.155 -0.4432  0.0301 -0.3131
 5206TIP3    H115624   4.229   3.617   5.231 -0.0690 -0.3782  0.0073
 5206TIP3    H215625   4.143   3.572   5.115 -0.3826  0.7504 -0.2103
 5207TIP3   OH215626   2.448   0.228   5.018 -0.0156 -1.1884 -0.0807
 5207TIP3    H115627   2.488   0.141   5.023  0.0880 -1.0972  0.9187
 5207TIP3    H215628   2.453   0.262   5.108  0.3382  0.0273 -0.5406
 5208TIP3   OH215629   2.321   5.267   0.555 -0.2603 -0.1948  0.3483
 5208TIP3    H115630   2.268   5.202   0.508 -0.7508  0.1517  0.4109
 5208TIP3    H215631   2.264   5.343   0.562 -0.0920 -0.1478  1.2825
 5209TIP3   OH215632   0.240   0.971   1.724 -0.0159 -0.8669  0.4758
 5209TIP3    H115633   0.228   1.027   1.648 -0.9878 -2.6432 -0.7734
 5209TIP3    H215634   0.330   0.940   1.718 -0.7284 -2.8324 -1.3799
 5210TIP3   OH215635   5.860   1.422   1.852  0.0773  0.0161  0.2209
 5210TIP3    H115636   5.839   1.516   1.850  1.1923  0.2700 -0.0218
 5210TIP3    H215637   5.921   1.412   1.925  0.4758 -0.4070 -0.1655
 5211TIP3   OH215638   2.062   2.580   3.393  0.0039  0.3520 -0.4886
 5211TIP3    H115639   2.148   2.574   3.436 -0.7983  1.2285  1.3261
 5211TIP3    H215640   2.050   2.494   3.353  2.5540  0.8114 -2.4870
 5212TIP3   OH215641   3.280   2.583   1.638  0.2590 -0.0019 -0.0639
 5212TIP3    H115642   3.346   2.637   1.596  1.2047  0.1525  1.5495
 5212TIP3    H215643   3.312   2.569   1.727 -1.5493 -0.4903  0.5702
 5213TIP3   OH215644   4.351   2.181   4.238  0.2633 -0.2221  0.0336
 5213TIP3    H115645   4.278   2.141   4.191  1.1440 -1.4323 -0.3544
 5213TIP3    H215646   4.429   2.135   4.206  1.2988  1.5004 -0.0809
 5214TIP3   OH215647   0.951   3.025   1.225  0.3517  0.5340 -0.4849
 5214TIP3    H115648   1.011   3.052   1.294 -0.4282 -0.2359  0.5186
 5214TIP3    H215649   0.870   3.002   1.271 -1.0415  2.3358 -1.8480
 5215TIP3   OH215650   0.045   0.300   1.244 -0.5314 -0.4343  0.1540
 5215TIP3    H115651   0.112   0.306   1.176 -0.8248  0.8012 -0.0485
 5215TIP3    H215652   0.070   0.367   1.308 -1.3735 -0.2002  0.2507
 5216TIP3   OH215653   0.927   4.209   3.061  0.0710  0.5546  0.1508
 5216TIP3    H115654   0.850   4.185   3.113 -2.0897  0.5220 -2.8488
 5216TIP3    H215655   0.963   4.126   3.032 -0.4502  0.6263 -0.7203
 5217TIP3   OH215656   2.072   0.803   5.171  0.3036 -0.0875  0.3493
 5217TIP3    H115657   2.115   0.724   5.205 -0.0969 -0.4423  0.0572
 5217TIP3    H215658   2.092   0.801   5.077  0.4692  0.2766  0.3783
 5218TIP3   OH215659   0.523   5.407   5.084  0.0869 -0.3703 -0.1133
 5218TIP3    H115660   0.479   5.405   4.998 -2.4817 -0.9275  1.1127
 5218TIP3    H215661   0.516   5.317   5.116 -1.6829  0.3856  1.8564
 5219TIP3   OH215662   0.423   1.796   0.786  0.5480 -0.4620  0.0958
 5219TIP3    H115663   0.329   1.810   0.801  0.5611  0.4646 -0.5208
 5219TIP3    H215664   0.443   1.715   0.831 -0.3767 -0.2461  0.9475
 5220TIP3   OH215665   4.679   1.504   5.081 -0.2483 -0.3706  0.2966
 5220TIP3    H115666   4.677   1.418   5.124 -1.1562  0.0646  1.1716
 5220TIP3    H215667   4.738   1.556   5.135 -0.9001 -0.0045  0.6655
 5221TIP3   OH215668   1.782   0.892   2.939  0.5591 -0.0533 -0.4520
 5221TIP3    H115669   1.793   0.969   2.995 -0.3376  0.3520 -0.8160
 5221TIP3    H215670   1.687   0.884   2.927  0.6394 -1.1572 -0.5043
 5222TIP3   OH215671   2.927   2.807   2.929 -0.3521 -0.2264  0.0203
 5222TIP3    H115672   2.846   2.818   2.979 -0.1537 -0.0657  0.3148
 5222TIP3    H215673   2.902   2.758   2.851 -0.9925  0.9800 -0.5666
 5223TIP3   OH215674   0.470   3.436   0.194 -0.0607 -0.3312  0.0740
 5223TIP3    H115675   0.444   3.495   0.265  0.2928  0.7576 -0.6767
 5223TIP3    H215676   0.387   3.409   0.154 -0.2689 -1.0585  0.9565
 5224TIP3   OH215677   5.170   3.832   4.006 -0.5328 -0.0490 -0.4285
 5224TIP3    H115678   5.115   3.754   4.000  0.1413 -0.5127 -0.8341
 5224TIP3    H215679   5.173   3.867   3.916  0.6133 -0.6073 -0.6370
 5225TIP3   OH215680   2.469   5.703   3.594 -0.7525 -0.1809  0.4227
 5225TIP3    H115681   2.535   5.709   3.526 -1.6916  1.5084 -0.4036
 5225TIP3    H215682   2.428   5.618   3.580 -1.1647  0.2719 -1.4002
 5226TIP3   OH215683   4.142   3.238   3.079 -0.2344 -0.0772  0.3309
 5226TIP3    H115684   4.138   3.327   3.114 -0.4280  0.4452 -0.9520
 5226TIP3    H215685   4.158   3.183   3.155  1.6775  1.2162  0.9439
 5227TIP3   OH215686   5.008   5.073   1.633 -0.7341 -0.0328 -0.3542
 5227TIP3    H115687   4.951   5.138   1.676  1.0821  2.0729 -0.9704
 5227TIP3    H215688   5.068   5.045   1.702 -2.8193 -2.8562  0.5148
 5228TIP3   OH215689   4.409   3.155   4.814  0.3081 -0.0364  0.0683
 5228TIP3    H115690   4.473   3.086   4.826 -0.5742 -0.6835  1.2995
 5228TIP3    H215691   4.417   3.210   4.892  0.1732  0.5636 -0.3272
 5229TIP3   OH215692   2.476   5.558   0.662 -0.5362 -0.5132  0.3926
 5229TIP3    H115693   2.466   5.464   0.645  0.9882 -0.7572  0.6902
 5229TIP3    H215694   2.441   5.570   0.750  0.3589 -1.0384  0.8275
 5230TIP3   OH215695   5.473   0.269   0.364  0.2732  0.2476  0.1531
 5230TIP3    H115696   5.495   0.176   0.357 -0.5635  0.1353 -1.6137
 5230TIP3    H215697   5.558   0.313   0.370  0.6504 -0.6719  2.5222
 5231TIP3   OH215698   5.808   1.966   2.488  0.7487 -0.3060  0.3908
 5231TIP3    H115699   5.713   1.961   2.497  0.5144  1.7471 -0.3411
 5231TIP3    H215700   5.839   1.877   2.507 -1.3747 -1.2472 -0.2401
 5232TIP3   OH215701   2.787   5.960   0.831 -0.2839 -0.3363  0.4441
 5232TIP3    H115702   2.721   5.907   0.785 -0.4893 -0.9899  1.4547
 5232TIP3    H215703   2.737   6.009   0.896  0.3017 -1.5101  1.8215
 5233TIP3   OH215704   3.826   2.362   3.502  0.2807 -0.2895 -0.6167
 5233TIP3    H115705   3.825   2.312   3.420  0.8498  0.8416 -1.3275
 5233TIP3    H215706   3.738   2.399   3.509  1.0715  2.1164 -2.3244
 5234TIP3   OH215707   2.846   5.138   2.796 -0.3349  0.5237  0.2551
 5234TIP3    H115708   2.757   5.139   2.760 -0.9113 -1.4417  1.4328
 5234TIP3    H215709   2.901   5.169   2.724 -1.6902 -0.7891 -1.4685
 5235TIP3   OH215710   2.870   1.994   4.731  0.0739  0.3559 -0.2016
 5235TIP3    H115711   2.777   1.993   4.755 -0.7995  5.2661 -2.0762
 5235TIP3    H215712   2.916   2.015   4.812 -0.8683  0.7581  0.2466
 5236TIP3   OH215713   1.331   3.454   2.210  0.2420  0.9339 -0.5345
 5236TIP3    H115714   1.283   3.536   2.216 -1.1458  0.0584  1.3108
 5236TIP3    H215715   1.406   3.465   2.269 -0.0822  0.8218 -0.0914
 5237TIP3   OH215716   4.241   1.243   3.083 -0.1711  0.1647  0.5292
 5237TIP3    H115717   4.322   1.257   3.131  0.8946  0.9185 -1.3893
 5237TIP3    H215718   4.230   1.148   3.081  0.8064  0.0449  0.5777
 5238TIP3   OH215719   5.154   0.568   1.872  0.0372  0.1355  0.2058
 5238TIP3    H115720   5.186   0.526   1.952 -0.1493 -0.4784 -0.0331
 5238TIP3    H215721   5.231   0.609   1.834  0.6574 -1.6420 -0.5640
 5239TIP3   OH215722   6.167   2.967   3.883 -0.3050 -0.1076 -0.7187
 5239TIP3    H115723   6.235   2.963   3.950 -0.3381  0.9105 -0.6204
 5239TIP3    H215724   6.203   3.022   3.814 -0.9564  0.2990 -0.7464
 5240TIP3   OH215725   4.773   2.521   0.915 -1.2173  0.0560  0.5553
 5240TIP3    H115726   4.733   2.600   0.879  0.1399  1.1338  1.3001
 5240TIP3    H215727   4.785   2.540   1.008  1.4428  0.0470  0.3069
 5241TIP3   OH215728   2.328   0.596   4.777  0.0678 -0.3633  0.4376
 5241TIP3    H115729   2.387   0.662   4.740 -1.4293  0.6744 -0.2086
 5241TIP3    H215730   2.339   0.604   4.872  0.4195  0.3076  0.3447
 5242TIP3   OH215731   0.404   5.210   2.867 -0.3564  0.1771 -0.0038
 5242TIP3    H115732   0.337   5.251   2.921 -1.9333 -1.7674 -0.3626
 5242TIP3    H215733   0.487   5.245   2.900 -1.4722  1.7738  1.2304
 5243TIP3   OH215734   0.734   4.093   3.269 -0.3555  0.5288  0.3096
 5243TIP3    H115735   0.734   4.073   3.362 -0.4443  0.8379  0.3765
 5243TIP3    H215736   0.801   4.034   3.232  4.6236  4.6712  1.5347
 5244TIP3   OH215737   0.814   0.438   0.895 -0.2179 -0.5283 -0.5992
 5244TIP3    H115738   0.777   0.397   0.816 -0.4090 -0.0403 -0.7652
 5244TIP3    H215739   0.747   0.426   0.962 -0.3646 -0.2892 -0.7053
 5245TIP3   OH215740   3.083   5.478   3.759  0.1806 -0.2983 -0.2439
 5245TIP3    H115741   3.037   5.535   3.698 -0.1123 -0.6148 -0.3196
 5245TIP3    H215742   3.089   5.530   3.840  0.1627 -0.0555 -0.3962
 5246TIP3   OH215743   0.077   4.793   2.496 -0.1040 -0.5222 -0.5167
 5246TIP3    H115744   0.049   4.856   2.429  0.1508  2.1580  1.7351
 5246TIP3    H215745  -0.004   4.766   2.538 -0.0788 -0.1526 -0.2212
 5247TIP3   OH215746   1.937   3.818   3.429 -0.2180 -0.1660  0.2902
 5247TIP3    H115747   1.921   3.911   3.411  0.2219  0.1778  1.6185
 5247TIP3    H215748   2.024   3.815   3.469  1.0972 -1.4933 -2.3527
 5248TIP3   OH215749   2.088   3.686   2.306  0.1637  0.7544 -0.3215
 5248TIP3    H115750   2.058   3.737   2.230  0.7707  0.7787 -0.5562
 5248TIP3    H215751   2.064   3.739   2.382  0.4640  1.2216 -0.5471
 5249TIP3   OH215752   1.220   5.761   4.609 -0.2019 -0.2725 -0.0790
 5249TIP3    H115753   1.224   5.779   4.515 -0.7358 -0.5700 -0.1578
 5249TIP3    H215754   1.145   5.703   4.620  0.6235 -1.2813  0.3644
 5250TIP3   OH215755   0.758   4.935   2.904  0.0263  0.3735 -1.1780
 5250TIP3    H115756   0.846   4.948   2.937 -0.2752  0.4610 -0.3988
 5250TIP3    H215757   0.736   5.019   2.862 -0.7770  1.4396  1.2046
 5251TIP3   OH215758   3.223   1.758   2.163 -0.1450 -0.1487 -0.4212
 5251TIP3    H115759   3.142   1.809   2.172 -1.1560 -1.9198  1.1492
 5251TIP3    H215760   3.262   1.790   2.082 -1.7316  1.6916 -0.5361
 5252TIP3   OH215761   1.209   4.239   3.580 -0.5293  0.0932  0.7939
 5252TIP3    H115762   1.175   4.280   3.500 -0.9468 -0.1021  0.8697
 5252TIP3    H215763   1.247   4.311   3.629  1.5135 -0.0507 -0.4668
 5253TIP3   OH215764   6.340   3.991   2.547 -0.1211 -0.4763  0.2237
 5253TIP3    H115765   6.274   4.016   2.482  0.3781 -0.3554 -0.2387
 5253TIP3    H215766   6.292   3.938   2.610 -1.5029  2.5015  1.8775
 5254TIP3   OH215767   4.737   5.655   2.491 -0.6769 -0.4049 -0.0181
 5254TIP3    H115768   4.813   5.647   2.433 -1.2587 -1.1803 -0.6872
 5254TIP3    H215769   4.757   5.596   2.564 -0.6235 -0.5878 -0.1792
 5255TIP3   OH215770   1.087   4.493   3.065  0.2787  0.1309 -0.6767
 5255TIP3    H115771   1.166   4.442   3.047 -0.6906 -1.2969 -1.0546
 5255TIP3    H215772   1.032   4.479   2.987 -1.2395 -0.6836  0.4987
 5256TIP3   OH215773   2.032   2.828   4.785  0.0152  0.1942 -0.2738
 5256TIP3    H115774   2.005   2.828   4.877 -1.4515 -0.2196 -0.6801
 5256TIP3    H215775   2.000   2.911   4.751 -1.6188 -0.6793 -0.9809
 5257TIP3   OH215776   1.148   5.802   2.772 -0.3907 -0.3990  0.0632
 5257TIP3    H115777   1.144   5.811   2.867 -0.2626 -1.0888  0.1351
 5257TIP3    H215778   1.172   5.890   2.741 -1.9156  0.2265  0.5537
 5258TIP3   OH215779   5.595   0.625   0.346 -0.0682 -0.5104 -0.1798
 5258TIP3    H115780   5.579   0.717   0.365 -1.8588 -0.8076 -0.1197
 5258TIP3    H215781   5.529   0.578   0.397  1.1425 -1.8698  0.1800
 5259TIP3   OH215782   2.073   4.825   4.347 -0.2744 -0.3553  0.2072
 5259TIP3    H115783   2.032   4.747   4.308 -1.0885  0.3809 -0.4516
 5259TIP3    H215784   2.110   4.872   4.272  0.1639 -0.0739  0.5949
 5260TIP3   OH215785   2.226   1.284   4.036  0.0368  0.0415 -0.0058
 5260TIP3    H115786   2.196   1.374   4.024 -0.5856 -0.1544  0.0271
 5260TIP3    H215787   2.304   1.292   4.091  0.5197  0.6234 -0.7656
 5261TIP3   OH215788   1.185   5.163   0.982  0.0799  0.2045 -0.0380
 5261TIP3    H115789   1.184   5.072   0.953 -0.6281  1.0328 -2.9054
 5261TIP3    H215790   1.267   5.198   0.948 -0.3238  1.0054 -0.2154
 5262TIP3   OH215791   1.115   1.590   1.087 -0.2614 -0.3138  0.0943
 5262TIP3    H115792   1.057   1.666   1.094 -0.0365 -0.0894 -0.4143
 5262TIP3    H215793   1.173   1.611   1.014  1.2712 -0.0146  1.3630
 5263TIP3   OH215794   0.859   3.706   1.793 -0.0033  0.4090  0.0091
 5263TIP3    H115795   0.784   3.752   1.832 -0.4884 -0.3989  0.0539
 5263TIP3    H215796   0.821   3.660   1.718  0.0443 -1.5994  1.1743
 5264TIP3   OH215797   0.112   5.215   1.697 -0.3562 -0.5230  0.1753
 5264TIP3    H115798   0.143   5.127   1.681  1.6450 -0.2431  2.0115
 5264TIP3    H215799   0.188   5.262   1.731 -1.2926  1.9944 -0.9184
 5265TIP3   OH215800   5.530   5.587   1.275 -0.0633  0.3336 -0.0809
 5265TIP3    H115801   5.525   5.665   1.220 -1.7034  1.0736  1.0162
 5265TIP3    H215802   5.549   5.515   1.215  0.6622  1.4524 -1.2279
 5266TIP3   OH215803   4.587   1.717   3.871 -0.7890 -0.2858 -0.3839
 5266TIP3    H115804   4.575   1.623   3.856 -1.1029 -0.5183  1.1061
 5266TIP3    H215805   4.499   1.749   3.891 -0.4666  0.0293  0.5627
 5267TIP3   OH215806   5.426   5.745   3.176 -0.0084  0.0208  0.2609
 5267TIP3    H115807   5.385   5.664   3.144 -0.1834  0.3930 -0.4748
 5267TIP3    H215808   5.512   5.717   3.208 -0.1911 -0.5047  0.3011
 5268TIP3   OH215809   3.280   4.020   0.637  0.5816 -0.3206  0.1602
 5268TIP3    H115810   3.232   3.957   0.691  0.6671  0.5724  1.3052
 5268TIP3    H215811   3.371   3.989   0.638  0.1396 -1.9500 -1.9185
 5269TIP3   OH215812   0.984   2.921   3.548 -0.4516  0.1805 -0.3146
 5269TIP3    H115813   1.012   2.946   3.460  0.3657  0.8518  0.1137
 5269TIP3    H215814   0.941   3.000   3.582  0.1786  0.2890  0.2580
 5270TIP3   OH215815   0.341   5.128   0.268  0.2795  0.0338 -0.0285
 5270TIP3    H115816   0.357   5.149   0.176  0.3302  2.3541  0.4661
 5270TIP3    H215817   0.419   5.157   0.314 -0.4958  0.5994  0.9746
 5271TIP3   OH215818   4.572   2.599   1.803 -0.1077 -0.2860 -0.5305
 5271TIP3    H115819   4.486   2.641   1.799 -0.5764 -1.2758 -1.9489
 5271TIP3    H215820   4.555   2.508   1.776  1.5407 -0.1987 -2.0748
 5272TIP3   OH215821   2.646   5.261   2.649 -0.2123  0.2831  0.1426
 5272TIP3    H115822   2.572   5.282   2.592 -1.6245  0.2138  1.8282
 5272TIP3    H215823   2.630   5.314   2.728  2.2296  1.2104  0.1064
 5273TIP3   OH215824   5.064   1.308   1.430  0.2422  0.6210 -0.0226
 5273TIP3    H115825   5.044   1.329   1.339 -1.2077  1.0579  0.3701
 5273TIP3    H215826   5.151   1.268   1.427  0.2783  0.7586 -1.5698
 5274TIP3   OH215827   5.971   2.255   3.025 -0.5013  0.1820 -0.5236
 5274TIP3    H115828   5.945   2.264   2.933  0.8920 -0.4678 -1.0145
 5274TIP3    H215829   5.897   2.289   3.074 -1.5929 -0.1433 -1.8697
 5275TIP3   OH215830   1.834   0.574   4.998  0.2917 -0.3920 -0.5105
 5275TIP3    H115831   1.741   0.550   4.993 -0.0074  0.8445 -1.4262
 5275TIP3    H215832   1.875   0.526   4.926  0.7772 -2.4606  1.0425
 5276TIP3   OH215833   0.614   1.329   3.309  0.3706 -0.2896 -0.0100
 5276TIP3    H115834   0.688   1.273   3.332 -0.8137 -1.9886 -0.1589
 5276TIP3    H215835   0.629   1.351   3.217  0.8068 -0.4236  0.0233
 5277TIP3   OH215836   4.960   3.959   2.054  0.0088  0.0279  0.0548
 5277TIP3    H115837   5.001   3.876   2.030 -0.0646  0.3471 -1.2716
 5277TIP3    H215838   4.866   3.940   2.055 -0.0507  0.2090 -0.8361
 5278TIP3   OH215839   3.889   0.082   3.315  0.0162 -0.3638 -0.2684
 5278TIP3    H115840   3.925   0.034   3.240  2.5428 -0.2669  0.7757
 5278TIP3    H215841   3.877   0.171   3.283 -2.7458 -1.1344 -1.6297
 5279TIP3   OH215842   1.337   1.270   4.739 -0.1842  0.0396  0.6804
 5279TIP3    H115843   1.365   1.211   4.668  0.3037 -0.4859  1.2954
 5279TIP3    H215844   1.419   1.308   4.771 -0.5232  1.3551  0.0518
 5280TIP3   OH215845   2.124   1.228   2.093 -0.1220 -0.7103  0.4505
 5280TIP3    H115846   2.131   1.312   2.047  1.4809 -0.5864  0.8676
 5280TIP3    H215847   2.187   1.171   2.049  0.8464 -0.8291  1.9401
 5281TIP3   OH215848   4.743   0.234   1.646  0.2190 -0.4447 -0.4924
 5281TIP3    H115849   4.793   0.301   1.693  0.4845  0.0422 -1.4427
 5281TIP3    H215850   4.659   0.275   1.628 -0.0956 -0.8371  0.0554
 5282TIP3   OH215851   1.129   0.409   3.735 -0.0559  0.6426 -0.0511
 5282TIP3    H115852   1.068   0.436   3.667 -0.3646  0.7337  0.2602
 5282TIP3    H215853   1.176   0.335   3.696 -0.8617  0.1051 -0.0318
 5283TIP3   OH215854   0.388   1.121   2.787 -0.1053 -0.1401 -0.2426
 5283TIP3    H115855   0.339   1.196   2.819  0.9744  0.6533 -0.4054
 5283TIP3    H215856   0.417   1.146   2.700  0.8193 -0.4828 -0.0457
 5284TIP3   OH215857   1.468   5.583   2.968 -0.0737 -0.2692  0.0774
 5284TIP3    H115858   1.433   5.507   3.014 -0.7364 -0.7322 -1.1407
 5284TIP3    H215859   1.398   5.609   2.908  0.5924  0.5801 -0.3566
 5285TIP3   OH215860   0.651   2.555   1.357 -0.4818 -0.7315  0.0458
 5285TIP3    H115861   0.703   2.516   1.287  0.5696 -1.3530  1.1246
 5285TIP3    H215862   0.562   2.558   1.323 -0.2852 -2.4902 -0.7297
 5286TIP3   OH215863   4.865   1.032   1.217 -0.0547 -0.1939  0.2520
 5286TIP3    H115864   4.903   0.983   1.289 -0.8414 -0.7601  0.2931
 5286TIP3    H215865   4.777   0.996   1.207 -0.1936  0.3396 -0.5494
 5287TIP3   OH215866   2.111   2.435   0.059  0.4474 -0.2389 -0.1438
 5287TIP3    H115867   2.170   2.507   0.037  0.4670  0.3206  1.5680
 5287TIP3    H215868   2.045   2.436  -0.010  0.8018  1.0228 -0.4867
 5288TIP3   OH215869   0.935   2.671   2.850  0.0992  0.1962  0.1171
 5288TIP3    H115870   0.840   2.682   2.849 -0.1097 -1.1081 -2.3311
 5288TIP3    H215871   0.950   2.585   2.809  2.3791  1.0534 -1.0253
 5289TIP3   OH215872   3.496   4.892   2.956 -0.7149 -0.0291  0.0463
 5289TIP3    H115873   3.436   4.965   2.941 -1.0485 -0.4137 -0.5132
 5289TIP3    H215874   3.481   4.868   3.048 -1.1457  0.1228  0.0185
 5290TIP3   OH215875   0.127   5.017   0.420 -0.1313 -0.5791  0.2200
 5290TIP3    H115876   0.033   5.008   0.405  0.0597 -1.2129 -0.7378
 5290TIP3    H215877   0.157   5.073   0.349  0.2425 -0.5787  0.3790
 5291TIP3   OH215878   1.682   4.690   3.342 -0.1786 -0.2467  0.1270
 5291TIP3    H115879   1.674   4.783   3.322 -1.0465 -0.3287  0.0320
 5291TIP3    H215880   1.760   4.683   3.397  0.1871  0.4646 -0.2948
 5292TIP3   OH215881   0.296   2.882   0.782  0.4432 -0.2427  0.0763
 5292TIP3    H115882   0.317   2.880   0.689  0.9977 -0.0039  0.1899
 5292TIP3    H215883   0.322   2.796   0.814 -1.8544 -1.1706 -0.4106
 5293TIP3   OH215884   6.299   3.929   0.418  0.4187 -1.0317  0.2956
 5293TIP3    H115885   6.269   4.016   0.445 -0.5265  0.2147 -3.9216
 5293TIP3    H215886   6.394   3.936   0.417  0.3540  0.0512 -0.1024
 5294TIP3   OH215887   2.090   4.092   0.409 -0.0418 -0.0672  0.9230
 5294TIP3    H115888   2.180   4.062   0.396  0.0311  0.1674  0.8985
 5294TIP3    H215889   2.056   4.033   0.477  0.3448  0.2699  1.4199
 5295TIP3   OH215890   2.735   1.367   2.851  0.1401  0.3309  0.4020
 5295TIP3    H115891   2.718   1.277   2.878 -0.6915  0.8089  1.5686
 5295TIP3    H215892   2.770   1.360   2.762  0.8105 -1.1764  0.7636
 5296TIP3   OH215893   1.481   5.010   5.114 -0.3212 -0.3029  0.8901
 5296TIP3    H115894   1.528   4.927   5.111 -1.0606 -0.7014 -0.1870
 5296TIP3    H215895   1.389   4.987   5.098 -0.5094  0.7382  0.3386
 5297TIP3   OH215896   0.000   0.651   2.795  0.0481 -0.2159  0.6401
 5297TIP3    H115897   0.055   0.581   2.830  0.1422  0.3946  1.7453
 5297TIP3    H215898   0.045   0.732   2.819 -0.4505  0.2475  0.0439
 5298TIP3   OH215899   0.427   4.027   0.191 -0.5288  0.3787 -0.0514
 5298TIP3    H115900   0.420   4.082   0.269 -0.0882  2.9427 -1.7142
 5298TIP3    H215901   0.342   4.033   0.149 -0.0221  1.0434 -1.0139
 5299TIP3   OH215902   3.558   3.830   2.639 -0.4626 -0.1196  0.4353
 5299TIP3    H115903   3.610   3.875   2.706 -1.0689  0.0459  0.7989
 5299TIP3    H215904   3.522   3.900   2.586 -0.1588 -0.2436  0.0616
 5300TIP3   OH215905   1.110   0.180   3.580  0.1048  0.2689  0.4949
 5300TIP3    H115906   1.099   0.093   3.619  0.5585  0.5669  1.2921
 5300TIP3    H215907   1.028   0.195   3.532 -0.9605  0.3730  2.2694
 5301TIP3   OH215908   3.659   4.675   1.933 -0.4656 -0.2133 -0.9903
 5301TIP3    H115909   3.720   4.631   1.992 -1.8994  0.5289  1.2039
 5301TIP3    H215910   3.573   4.639   1.958 -1.5401  2.7367 -0.0076
 5302TIP3   OH215911   4.988   0.915   2.557 -0.5066 -0.0547  0.1386
 5302TIP3    H115912   4.944   0.903   2.472 -0.8126  0.8810  0.1508
 5302TIP3    H215913   5.076   0.945   2.534 -0.5697  0.1404  0.1540
 5303TIP3   OH215914   3.390   4.619   3.366 -0.1476 -0.4768 -0.0072
 5303TIP3    H115915   3.408   4.657   3.452  0.2892 -1.3644  0.3099
 5303TIP3    H215916   3.295   4.605   3.366 -0.0891 -0.9446  0.5466
 5304TIP3   OH215917   5.216   1.817   0.929  0.5745 -0.3126  0.4286
 5304TIP3    H115918   5.163   1.765   0.989 -0.8076 -1.3998 -1.6202
 5304TIP3    H215919   5.173   1.808   0.845  2.4029  1.2020 -0.7560
 5305TIP3   OH215920   2.199   3.845   3.538  0.2084 -0.5342  0.2134
 5305TIP3    H115921   2.201   3.788   3.615  0.1930 -0.9770 -0.1117
 5305TIP3    H215922   2.213   3.933   3.573 -1.4210 -0.5177  0.9386
 5306TIP3   OH215923   3.933   3.197   3.435  0.4908 -0.4345 -0.7367
 5306TIP3    H115924   3.934   3.102   3.425 -1.2014 -0.4815 -0.8268
 5306TIP3    H215925   3.873   3.212   3.508 -0.8724  0.6190 -2.0173
 5307TIP3   OH215926   4.104   3.952   1.658  1.0106 -0.0380 -0.2694
 5307TIP3    H115927   4.090   4.046   1.669 -1.3677 -0.1943 -1.5178
 5307TIP3    H215928   4.026   3.911   1.695  2.1373 -1.5907  0.5310
 5308TIP3   OH215929   3.898   0.554   3.972 -0.3645  0.0192 -0.0826
 5308TIP3    H115930   3.818   0.574   4.021  0.3629 -0.4301  1.3517
 5308TIP3    H215931   3.884   0.593   3.886 -2.3567 -0.5347 -0.0698
 5309TIP3   OH215932   6.176   1.407   1.453  0.0177 -0.1890  0.4255
 5309TIP3    H115933   6.243   1.369   1.396  0.1961 -0.1724  0.6219
 5309TIP3    H215934   6.171   1.499   1.427  0.2616 -0.1278  0.5888
 5310TIP3   OH215935   1.780   0.766   2.032 -0.1112 -0.0861  0.6084
 5310TIP3    H115936   1.783   0.765   2.128  1.3770 -0.2784  0.5939
 5310TIP3    H215937   1.869   0.741   2.006 -0.1341  1.2125 -0.8127
 5311TIP3   OH215938   3.496   1.812   3.354  0.6663 -0.3976  0.4834
 5311TIP3    H115939   3.570   1.803   3.294  0.8406  1.5760  0.3351
 5311TIP3    H215940   3.419   1.790   3.302  1.0492 -1.5472  0.3775
 5312TIP3   OH215941   3.169   2.689   3.193  0.1931  0.2804 -0.5268
 5312TIP3    H115942   3.153   2.614   3.135 -1.6679  0.3404 -0.1329
 5312TIP3    H215943   3.109   2.756   3.163 -0.2837  0.5704  1.0091
 5313TIP3   OH215944   3.548   3.190   0.935  0.4336 -0.3674 -0.2010
 5313TIP3    H115945   3.590   3.206   1.020  1.9627 -0.0794 -0.9612
 5313TIP3    H215946   3.482   3.123   0.953  0.4592 -0.0322  1.2803
 5314TIP3   OH215947   6.240   5.002   3.863  0.0251 -0.3489 -0.4832
 5314TIP3    H115948   6.152   5.000   3.900 -0.5021  0.0165 -1.6588
 5314TIP3    H215949   6.244   5.084   3.813  0.9042 -0.5281 -0.7370
 5315TIP3   OH215950   6.162   2.795   1.324 -0.3499  0.0807 -0.0259
 5315TIP3    H115951   6.088   2.735   1.325 -0.6440  0.4225 -0.6279
 5315TIP3    H215952   6.134   2.866   1.266  1.3704 -0.9734 -2.2861
 5316TIP3   OH215953   2.019   4.580   0.655  0.2960  0.0543  0.3132
 5316TIP3    H115954   2.085   4.637   0.617  0.7361  0.5996  1.8305
 5316TIP3    H215955   2.067   4.523   0.715 -0.4657 -0.2749  0.6335
 5317TIP3   OH215956   5.219   3.392   2.034 -0.0870  0.0656 -0.3171
 5317TIP3    H115957   5.190   3.430   2.117 -1.1542 -0.0732 -0.6164
 5317TIP3    H215958   5.306   3.429   2.021 -0.1077  0.4874  0.6134
 5318TIP3   OH215959   4.516   4.021   3.515 -0.0500 -0.0415  0.5808
 5318TIP3    H115960   4.500   4.079   3.441 -1.1373 -1.3189 -0.2432
 5318TIP3    H215961   4.592   4.058   3.559  2.9409 -1.0474 -3.1583
 5319TIP3   OH215962   5.993   0.389   3.187  0.2520 -0.5971 -0.2099
 5319TIP3    H115963   5.935   0.322   3.150  0.0530 -0.7158  0.3079
 5319TIP3    H215964   5.937   0.465   3.201  0.0506 -0.9124  0.8754
 5320TIP3   OH215965   5.609   2.690   3.334  0.3672 -0.5231  0.5617
 5320TIP3    H115966   5.535   2.696   3.275  1.2405  0.0160 -0.5174
 5320TIP3    H215967   5.633   2.781   3.352  1.7374 -0.6704 -0.3871
 5321TIP3   OH215968   3.713   3.872   0.632  0.1697  0.0522 -0.4844
 5321TIP3    H115969   3.682   3.962   0.641 -0.2720  0.0357 -1.6169
 5321TIP3    H215970   3.748   3.867   0.543  0.9618 -0.6725 -0.1431
 5322TIP3   OH215971   4.414   0.629   0.182  0.6652 -0.6007 -0.3226
 5322TIP3    H115972   4.475   0.678   0.127  0.9333 -0.9409 -0.3325
 5322TIP3    H215973   4.329   0.669   0.164  0.8231 -0.3904 -0.6197
 5323TIP3   OH215974   1.040   1.713   1.455 -0.1426  0.2781 -0.1383
 5323TIP3    H115975   1.101   1.708   1.529 -0.5060  0.0551  0.1465
 5323TIP3    H215976   0.994   1.796   1.468 -0.1901  0.2501 -0.1300
 5324TIP3   OH215977   3.382   0.638   3.764  0.1548 -0.0294  0.2045
 5324TIP3    H115978   3.439   0.583   3.817  0.7178  1.5244  1.2572
 5324TIP3    H215979   3.438   0.669   3.693  0.2193  0.3421  0.4202
 5325TIP3   OH215980   2.925   0.554   4.000  0.0731  0.1389 -0.3110
 5325TIP3    H115981   2.970   0.630   4.038  0.3778  1.4070 -3.0101
 5325TIP3    H215982   2.874   0.590   3.928  0.1536 -2.2243 -1.6447
 5326TIP3   OH215983   0.094   4.783   4.959  0.2633 -0.1743  0.1653
 5326TIP3    H115984   0.052   4.867   4.977  0.1080 -0.4148  0.9622
 5326TIP3    H215985   0.187   4.799   4.973  0.0756 -0.5888  2.2588
 5327TIP3   OH215986   4.287   4.341   4.149  0.3092 -0.7229  0.5048
 5327TIP3    H115987   4.344   4.305   4.217 -0.8168 -0.5116  1.6072
 5327TIP3    H215988   4.276   4.270   4.087  1.4284 -0.8969  0.4847
 5328TIP3   OH215989   3.850   3.796   4.825  0.7891 -0.1767 -0.7430
 5328TIP3    H115990   3.920   3.749   4.779 -1.0050 -1.2366 -2.5461
 5328TIP3    H215991   3.892   3.877   4.854  2.0855  0.7275 -4.5035
 5329TIP3   OH215992   1.709   0.364   4.552 -0.1360 -0.3058 -0.7578
 5329TIP3    H115993   1.616   0.386   4.558 -0.3077 -1.0832 -0.4790
 5329TIP3    H215994   1.746   0.430   4.493 -1.0566 -0.5885 -1.6630
 5330TIP3   OH215995   1.821   1.045   0.722  0.5493 -0.6749  0.2010
 5330TIP3    H115996   1.867   0.975   0.675 -1.8531 -2.2198 -0.0663
 5330TIP3    H215997   1.781   1.000   0.797 -1.5659  0.2463 -0.3072
 5331TIP3   OH215998   3.708   0.208   4.921  0.0220 -0.3426 -0.2424
 5331TIP3    H115999   3.791   0.255   4.911  0.2843 -0.9046 -0.7832
 5331TIP3    H216000   3.648   0.252   4.861 -0.5205  1.0299  1.2433
 5332TIP3   OH216001   5.704   5.598   2.353  0.0891  0.1551 -0.7631
 5332TIP3    H116002   5.787   5.645   2.353  0.2381 -0.1044 -0.2010
 5332TIP3    H216003   5.723   5.515   2.398 -0.6875  0.4664  0.1638
 5333TIP3   OH216004   6.186   4.563   3.887 -0.2399 -0.3365 -0.5422
 5333TIP3    H116005   6.232   4.600   3.812  1.3007 -1.7816 -0.3591
 5333TIP3    H216006   6.203   4.624   3.958  0.5552 -0.3456 -0.7194
 5334TIP3   OH216007   0.904   4.236   5.011 -0.2746 -0.2551  0.2356
 5334TIP3    H116008   0.899   4.148   4.973  0.5054 -0.0538 -0.3566
 5334TIP3    H216009   0.838   4.286   4.963 -0.0017 -0.2570 -0.1413
 5335TIP3   OH216010   4.986   2.494   4.452  0.7467 -0.3511  0.8601
 5335TIP3    H116011   4.962   2.402   4.465  2.2346 -0.6879  1.4067
 5335TIP3    H216012   5.024   2.496   4.364 -0.6675  0.0606  0.2377
 5336TIP3   OH216013   4.767   3.599   3.553  0.0779 -0.1408  0.1135
 5336TIP3    H116014   4.689   3.574   3.503 -0.8987  1.7477  0.5574
 5336TIP3    H216015   4.840   3.583   3.494 -0.8289 -0.1390 -1.0607
 5337TIP3   OH216016   5.647   5.504   2.052  0.0316  0.7477  0.3803
 5337TIP3    H116017   5.635   5.442   2.125  0.9314  2.4907  2.0997
 5337TIP3    H216018   5.741   5.515   2.046 -0.0678  1.0762 -0.6894
 5338TIP3   OH216019   0.361   2.640   3.590  0.1971  0.2845 -0.3844
 5338TIP3    H116020   0.357   2.546   3.606 -0.9065  0.3482 -0.1810
 5338TIP3    H216021   0.297   2.655   3.520  0.7655  0.8140 -0.8022
 5339TIP3   OH216022   1.890   1.373   4.488  0.7497 -0.6300 -0.6094
 5339TIP3    H116023   1.910   1.360   4.581 -0.6460 -0.7054 -0.2914
 5339TIP3    H216024   1.973   1.399   4.449  1.3949 -0.7392  0.6335
 5340TIP3   OH216025   4.855   1.285   2.912 -0.1022  0.4025  0.0131
 5340TIP3    H116026   4.868   1.198   2.875  0.7669  1.4185 -2.2702
 5340TIP3    H216027   4.927   1.297   2.973 -0.7558 -0.7957  1.0546
 5341TIP3   OH216028   3.203   0.158   4.865 -0.4629 -0.4760 -0.0208
 5341TIP3    H116029   3.128   0.186   4.917  1.4169  2.3307  1.4033
 5341TIP3    H216030   3.201   0.215   4.788  0.9556  0.6740  0.7505
 5342TIP3   OH216031   3.810   3.013   1.113  0.2003 -0.4704 -0.4821
 5342TIP3    H116032   3.743   3.080   1.101  0.5908 -0.5473 -4.6042
 5342TIP3    H216033   3.769   2.947   1.169 -1.6815  1.2450  0.2824
 5343TIP3   OH216034   2.800   0.925   4.046  0.3415 -0.3098  0.1582
 5343TIP3    H116035   2.807   0.871   4.125  1.2865  0.2542  0.4765
 5343TIP3    H216036   2.789   0.862   3.974 -1.0448 -0.8131  0.7672
 5344TIP3   OH216037   4.870   2.276   1.240 -0.0344  0.3583  0.1644
 5344TIP3    H116038   4.888   2.351   1.184  0.3621  0.4220  0.3738
 5344TIP3    H216039   4.869   2.312   1.329  0.5133  0.0596  0.2970
 5345TIP3   OH216040   6.294   1.819   3.398 -0.3239 -0.0189  0.4110
 5345TIP3    H116041   6.349   1.837   3.322 -1.6375  2.8940  0.0278
 5345TIP3    H216042   6.336   1.866   3.470 -1.7994  1.6269  0.2709
 5346TIP3   OH216043   0.529   1.973   3.947 -0.2154  0.4700 -0.4107
 5346TIP3    H116044   0.613   1.945   3.983  0.0990  1.1995 -0.5600
 5346TIP3    H216045   0.464   1.940   4.009  0.0829 -1.1182 -0.9011
 5347TIP3   OH216046   3.067   1.036   2.181  0.2135 -0.1742 -0.3557
 5347TIP3    H116047   3.104   1.084   2.107  1.3772  0.5829  0.6706
 5347TIP3    H216048   2.973   1.038   2.166  0.3895  0.4550 -1.5116
 5348TIP3   OH216049   4.805   5.436   2.144 -0.1824  0.1901  0.4025
 5348TIP3    H116050   4.714   5.443   2.175 -0.5511  0.1873 -0.6365
 5348TIP3    H216051   4.854   5.493   2.203 -1.0207  0.9672  0.3792
 5349TIP3   OH216052   3.136   5.148   1.546 -0.1981 -0.3518  0.1431
 5349TIP3    H116053   3.047   5.172   1.522 -0.0299 -0.4387 -0.5857
 5349TIP3    H216054   3.178   5.230   1.570  0.5449  0.2567 -2.8747
 5350TIP3   OH216055   0.961   1.535   2.981  0.6436  0.3576  0.4050
 5350TIP3    H116056   0.913   1.569   3.056 -1.0479  1.8826 -1.2599
 5350TIP3    H216057   0.952   1.440   2.987 -0.8726  0.5309  1.2592
 5351TIP3   OH216058   6.269   1.682   4.175  0.2407 -0.4353 -0.6963
 5351TIP3    H116059   6.344   1.627   4.154  0.1420 -1.0805  0.5391
 5351TIP3    H216060   6.293   1.725   4.258 -1.5395 -2.3114  0.9169
 5352TIP3   OH216061   6.036   5.788   1.598  0.6479  0.1570 -0.0671
 5352TIP3    H116062   6.079   5.737   1.529 -0.1565  1.1646 -1.3435
 5352TIP3    H216063   5.952   5.814   1.560 -0.2110 -0.0261  1.6312
 5353TIP3   OH216064   0.006   1.047   1.395 -0.4186 -0.3795 -0.3096
 5353TIP3    H116065   0.095   1.083   1.398 -0.6571  0.2987 -1.0521
 5353TIP3    H216066  -0.048   1.110   1.442 -0.3150 -1.4519  1.3082
 5354TIP3   OH216067   5.252   2.444   2.760  0.9149 -0.0037  0.2678
 5354TIP3    H116068   5.158   2.461   2.766  0.9431  0.1965  0.1409
 5354TIP3    H216069   5.290   2.526   2.728  1.2163  0.1423  0.9738
 5355TIP3   OH216070   3.838   4.035   1.470  0.1409  0.5019 -0.6558
 5355TIP3    H116071   3.868   4.126   1.481  0.5798  0.4913 -1.7107
 5355TIP3    H216072   3.911   3.990   1.429 -0.0715 -0.3456 -0.1317
 5356TIP3   OH216073   3.394   2.151   2.470 -0.8798 -0.1944 -0.6567
 5356TIP3    H116074   3.397   2.055   2.465  0.5070 -0.1944 -0.3439
 5356TIP3    H216075   3.343   2.178   2.394 -0.8335 -1.1667 -1.0468
 5357TIP3   OH216076   0.405   2.504   3.023  0.5954  0.2344 -0.2177
 5357TIP3    H116077   0.378   2.435   2.962  0.3571  1.5753 -1.6889
 5357TIP3    H216078   0.330   2.564   3.026  1.0936  0.8459  0.4200
 5358TIP3   OH216079   4.635   2.753   0.882 -0.3341 -0.2050  0.3269
 5358TIP3    H116080   4.663   2.845   0.879 -0.5986 -0.0736  1.4507
 5358TIP3    H216081   4.582   2.742   0.803 -0.6453  0.7325  0.3831
 5359TIP3   OH216082   3.489   5.348   5.077  0.1628  0.3472 -0.2078
 5359TIP3    H116083   3.436   5.288   5.129 -1.1267  1.1251 -0.5641
 5359TIP3    H216084   3.562   5.295   5.045 -0.1215 -0.6292  0.7168
 5360TIP3   OH216085   2.535   4.325   5.105  0.3334 -0.6551  0.2521
 5360TIP3    H116086   2.520   4.317   5.011 -1.3962 -2.2291  0.5798
 5360TIP3    H216087   2.584   4.246   5.128 -0.6771 -1.1301  0.8730
 5361TIP3   OH216088   1.248   0.252   2.546 -0.1086  0.4604  0.1188
 5361TIP3    H116089   1.179   0.244   2.611 -0.1305  3.4326  0.5972
 5361TIP3    H216090   1.239   0.341   2.512  2.4528  0.3713 -1.0142
 5362TIP3   OH216091   2.458   3.445   0.045  0.0072 -0.2130 -0.2286
 5362TIP3    H116092   2.410   3.415  -0.033  1.2751 -0.6450 -0.8717
 5362TIP3    H216093   2.492   3.531   0.019  1.3098 -0.8062 -0.5642
 5363TIP3   OH216094   4.656   5.316   3.603  0.3035  0.2827 -0.4750
 5363TIP3    H116095   4.595   5.257   3.559 -0.7667 -1.0193  2.4845
 5363TIP3    H216096   4.736   5.266   3.612  1.2848  1.3205 -2.6751
 5364TIP3   OH216097   1.995   5.433   4.002  0.4688  0.1592  0.3669
 5364TIP3    H116098   2.011   5.433   4.096  1.4417 -1.2892  0.2336
 5364TIP3    H216099   1.902   5.415   3.992  0.6524 -1.3079  1.0537
 5365TIP3   OH216100   4.121  -0.005   3.435 -0.3735 -0.1149 -0.0765
 5365TIP3    H116101   4.040   0.036   3.402 -0.1940 -0.5811 -1.1497
 5365TIP3    H216102   4.125   0.022   3.527 -2.4721 -1.1795  0.4060
 5366TIP3   OH216103   3.335   1.342   0.146  0.4508 -0.5204 -0.0996
 5366TIP3    H116104   3.240   1.354   0.145  0.5713  0.4755 -0.4249
 5366TIP3    H216105   3.367   1.406   0.211  0.8774 -1.0373  0.2118
 5367TIP3   OH216106   0.498   1.477   1.867 -0.5167  0.3832 -0.2274
 5367TIP3    H116107   0.489   1.388   1.833 -2.6802  0.5340 -0.1916
 5367TIP3    H216108   0.447   1.477   1.948 -0.1373  1.5329  0.0346
 5368TIP3   OH216109   0.476   1.641   3.302  0.2038  0.4316  0.1851
 5368TIP3    H116110   0.403   1.609   3.356  1.3868 -1.6943  0.6358
 5368TIP3    H216111   0.459   1.604   3.215  0.6095  0.1514  0.2243
 5369TIP3   OH216112   0.396   5.709   4.957  0.3830  0.4517  0.1833
 5369TIP3    H116113   0.448   5.631   4.935 -0.1642  0.0413  0.3305
 5369TIP3    H216114   0.326   5.711   4.892  0.3116  0.7438  0.2665
 5370TIP3   OH216115   5.724   4.776   2.281 -0.0579  0.1893 -0.4203
 5370TIP3    H116116   5.748   4.721   2.356 -2.2935 -1.3963 -0.7628
 5370TIP3    H216117   5.739   4.865   2.311  3.0619 -0.4762  0.4067
 5371TIP3   OH216118   6.253   2.712   2.383 -0.5617 -0.0068  0.3372
 5371TIP3    H116119   6.181   2.768   2.355 -3.0099 -0.6472  4.4675
 5371TIP3    H216120   6.323   2.773   2.407 -1.7329  1.0969  1.1027
 5372TIP3   OH216121   1.937   4.167   3.503 -0.3574  0.2959 -0.4808
 5372TIP3    H116122   2.029   4.181   3.481 -0.6591  2.9063 -0.4740
 5372TIP3    H216123   1.890   4.201   3.427 -1.3242  0.0754  0.0055
 5373TIP3   OH216124   2.802   5.912   1.973 -0.2253 -0.4981  0.5306
 5373TIP3    H116125   2.870   5.962   1.929  0.1104 -1.6164 -0.2655
 5373TIP3    H216126   2.744   5.883   1.902 -0.6588 -0.8628  1.0251
 5374TIP3   OH216127   3.668   5.000   1.502  0.4225 -0.2518 -0.0351
 5374TIP3    H116128   3.696   5.035   1.587  1.4355  1.4297 -1.0015
 5374TIP3    H216129   3.573   5.011   1.502  0.2718 -1.3260  1.3074
 5375TIP3   OH216130   0.549   4.395   4.685  0.7392 -0.3862  0.8281
 5375TIP3    H116131   0.611   4.368   4.753  1.8297 -0.6655 -0.2362
 5375TIP3    H216132   0.531   4.314   4.636 -1.9260 -0.7145  2.2057
 5376TIP3   OH216133   1.660   1.567   0.404  0.3971 -0.4385 -0.1447
 5376TIP3    H116134   1.596   1.637   0.391  0.6540 -0.2408 -0.3432
 5376TIP3    H216135   1.738   1.611   0.437  1.7215 -0.1236 -3.3978
 5377TIP3   OH216136   5.904   2.630   4.657 -0.3076 -0.4423 -0.2028
 5377TIP3    H116137   5.967   2.699   4.640 -1.1724  0.3403 -0.3297
 5377TIP3    H216138   5.824   2.660   4.614 -1.7154  0.1540  2.5976
 5378TIP3   OH216139   1.050   0.538   0.986  0.5834  0.0898 -0.4112
 5378TIP3    H116140   0.965   0.505   0.959  1.0281 -0.3667 -1.2838
 5378TIP3    H216141   1.080   0.477   1.053 -0.3355  0.9877  0.8669
 5379TIP3   OH216142   2.209   2.622   4.152  0.3673 -0.7416  0.4735
 5379TIP3    H116143   2.160   2.540   4.155 -1.0518  0.0219 -0.3994
 5379TIP3    H216144   2.174   2.674   4.225 -1.3315  0.3947 -1.0504
 5380TIP3   OH216145   0.709   2.077   2.921 -0.1945 -0.1989 -0.1227
 5380TIP3    H116146   0.785   2.022   2.940 -1.2773 -1.4629  0.7267
 5380TIP3    H216147   0.745   2.151   2.873  1.2667 -1.9248 -1.8818
 5381TIP3   OH216148   0.594   5.064   3.516 -0.1585  0.6210 -0.6421
 5381TIP3    H116149   0.638   4.993   3.469  0.9656  1.4366 -0.8942
 5381TIP3    H216150   0.657   5.089   3.584 -1.2375  0.2956  0.4978
 5382TIP3   OH216151   4.385   1.812   5.016 -0.3914 -0.2455 -0.4943
 5382TIP3    H116152   4.469   1.798   4.972 -0.0100 -0.3618  0.2578
 5382TIP3    H216153   4.401   1.886   5.075 -1.0185  0.1892 -0.8599
 5383TIP3   OH216154   3.352   0.906   2.457 -0.0337 -0.3543 -0.5870
 5383TIP3    H116155   3.349   0.954   2.540 -1.2827 -1.7751  0.2395
 5383TIP3    H216156   3.266   0.866   2.449 -0.0804  0.0084 -2.7747
 5384TIP3   OH216157   0.119   1.561   1.064 -0.3752  0.1491  0.7845
 5384TIP3    H116158   0.147   1.615   1.138 -0.7129 -0.2109  1.1824
 5384TIP3    H216159   0.123   1.471   1.098  3.8646 -0.5659 -0.9509
 5385TIP3   OH216160   5.252   0.172   3.008  1.0560 -0.5315  0.0211
 5385TIP3    H116161   5.240   0.145   3.099  0.1079  2.1416  0.7855
 5385TIP3    H216162   5.172   0.144   2.964  0.2787  0.5981  0.6861
 5386TIP3   OH216163   6.122   4.791   4.058 -0.4089 -0.0429 -0.3713
 5386TIP3    H116164   6.090   4.708   4.093 -0.1700 -0.6436 -1.5231
 5386TIP3    H216165   6.153   4.839   4.135  0.2121 -1.3552  0.2329
 5387TIP3   OH216166   3.075   4.015   2.924 -0.3630 -0.3202  0.4040
 5387TIP3    H116167   3.070   4.099   2.969 -0.9510 -0.9080  1.4687
 5387TIP3    H216168   3.005   3.962   2.963 -0.6532 -0.9855 -0.9447
 5388TIP3   OH216169   3.881   2.046   0.710 -0.4103  0.0041 -0.7280
 5388TIP3    H116170   3.951   1.981   0.709  1.4921  1.8497  1.2574
 5388TIP3    H216171   3.846   2.042   0.799  0.6679  2.4855 -0.1025
 5389TIP3   OH216172   3.885   4.428   0.380  0.0927  0.3810  0.2240
 5389TIP3    H116173   3.945   4.368   0.425  0.6735 -0.0889 -1.1039
 5389TIP3    H216174   3.943   4.495   0.343 -0.5539  1.8374  1.7201
 5390TIP3   OH216175   0.058   4.206   2.029  0.2453  0.2259  0.3611
 5390TIP3    H116176   0.130   4.254   1.987  0.5740 -1.6022 -1.3032
 5390TIP3    H216177   0.097   4.124   2.056 -0.4823  0.5250  2.4919
 5391TIP3   OH216178   5.617   4.475   2.224  0.0431  0.2707  0.5101
 5391TIP3    H116179   5.635   4.569   2.215 -0.8997  0.2713 -2.1753
 5391TIP3    H216180   5.524   4.470   2.245 -0.1600 -0.0603 -0.4235
 5392TIP3   OH216181   0.753   4.409   4.891  0.3652 -0.3958 -0.1530
 5392TIP3    H116182   0.734   4.490   4.938  1.9778  0.1502 -0.3688
 5392TIP3    H216183   0.836   4.427   4.846  1.3353 -2.5318  0.6649
 5393TIP3   OH216184   4.137   1.661   3.374  0.1591  0.5836 -0.1245
 5393TIP3    H116185   4.187   1.588   3.339  1.2946  0.4905  1.5833
 5393TIP3    H216186   4.097   1.626   3.454 -2.3754  0.7736 -1.2162
 5394TIP3   OH216187   4.325   2.266   2.605 -0.0116  0.2505  0.5396
 5394TIP3    H116188   4.420   2.270   2.590  0.0453  0.2681  0.8893
 5394TIP3    H216189   4.297   2.358   2.603 -0.2354  0.1843 -0.8384
 5395TIP3   OH216190   2.728   5.218   4.464  0.3762  0.0101 -0.0881
 5395TIP3    H116191   2.661   5.209   4.532  0.5213  1.5180  0.2839
 5395TIP3    H216192   2.679   5.212   4.382  0.2006 -1.8120  0.1058
 5396TIP3   OH216193   3.618   4.513   2.671 -0.2951  0.2960  0.7637
 5396TIP3    H116194   3.653   4.593   2.631 -1.3215 -0.2544 -1.3762
 5396TIP3    H216195   3.602   4.537   2.762 -1.4963  2.8711 -0.0309
 5397TIP3   OH216196   2.609   4.754   3.300  0.4003 -0.6202 -0.0866
 5397TIP3    H116197   2.635   4.798   3.220  3.0385 -2.4217 -0.3619
 5397TIP3    H216198   2.555   4.680   3.271 -1.2150  0.4489  0.1015
 5398TIP3   OH216199   0.350   1.727   4.377 -0.0229 -0.1507 -0.2007
 5398TIP3    H116200   0.278   1.663   4.373 -1.2081  1.1823 -0.7772
 5398TIP3    H216201   0.379   1.724   4.469  0.2398 -1.8062 -0.3061
 5399TIP3   OH216202   5.819   3.222   3.744 -0.2859  0.2147 -0.6786
 5399TIP3    H116203   5.862   3.242   3.827  0.5017 -0.6003 -0.8738
 5399TIP3    H216204   5.778   3.304   3.718  0.0549  0.6662  0.1685
 5400TIP3   OH216205   4.418   4.764   0.583 -0.2457  0.0612  0.2109
 5400TIP3    H116206   4.423   4.673   0.554  0.7074  0.9646 -2.7645
 5400TIP3    H216207   4.508   4.795   0.584 -0.5496  0.9991  1.2080
 5401TIP3   OH216208   3.423   5.963   3.455 -0.4104 -0.3648 -0.3909
 5401TIP3    H116209   3.493   5.983   3.517 -2.0859 -0.9152  1.8089
 5401TIP3    H216210   3.456   5.888   3.405  1.2194  0.4754 -0.6432
 5402TIP3   OH216211   3.637   3.303   0.698  0.5405 -0.6594  0.0713
 5402TIP3    H116212   3.609   3.274   0.785  0.4410  0.6150  0.4858
 5402TIP3    H216213   3.675   3.389   0.712  0.3364 -0.3412 -1.1817
 5403TIP3   OH216214   1.190   3.844   1.495 -0.4535  0.4022 -0.6497
 5403TIP3    H116215   1.273   3.802   1.516 -0.9904 -1.2204 -1.6370
 5403TIP3    H216216   1.144   3.850   1.579 -0.0097 -0.1862 -0.3620
 5404TIP3   OH216217   4.697   5.839   1.068 -0.3850 -0.5103  0.2833
 5404TIP3    H116218   4.778   5.795   1.093 -0.1804 -0.9617 -1.0817
 5404TIP3    H216219   4.654   5.859   1.151  0.0503 -2.2876  0.9876
 5405TIP3   OH216220   5.194   5.044   4.388 -0.2734  0.4915  0.9370
 5405TIP3    H116221   5.285   5.074   4.393  0.2353 -0.9242  0.6208
 5405TIP3    H216222   5.183   5.014   4.298 -0.1872 -1.8431  1.6344
 5406TIP3   OH216223   4.957   2.531   1.142  0.0971 -0.0348  0.2454
 5406TIP3    H116224   5.052   2.521   1.143  0.3153  1.6884  0.5572
 5406TIP3    H216225   4.939   2.599   1.208 -0.9982  1.9710 -1.9331
 5407TIP3   OH216226   2.602   1.409   3.890 -0.0894  0.3731 -0.6169
 5407TIP3    H116227   2.527   1.460   3.921 -0.4389 -0.6120  0.2109
 5407TIP3    H216228   2.587   1.398   3.797 -0.3167  1.2635 -0.6918
 5408TIP3   OH216229   4.356   0.988   2.786  0.1641 -0.1020 -0.2363
 5408TIP3    H116230   4.387   0.967   2.875 -1.3471  3.1622  1.2059
 5408TIP3    H216231   4.430   1.034   2.746 -0.1709  1.1221  0.4997
 5409TIP3   OH216232   2.753   1.677   4.768  0.7215 -0.0673 -0.2222
 5409TIP3    H116233   2.730   1.737   4.698  0.8469 -0.6085 -0.7319
 5409TIP3    H216234   2.695   1.701   4.840  0.8352  0.7266 -0.3779
 5410TIP3   OH216235   5.491   1.927   2.569  0.0634  0.4979  0.3254
 5410TIP3    H116236   5.426   1.857   2.568  0.8483 -0.2934  1.4231
 5410TIP3    H216237   5.505   1.945   2.662  0.0914  1.9274  0.0656
 5411TIP3   OH216238   2.613   3.154   2.492  0.0213 -0.2508 -0.4567
 5411TIP3    H116239   2.563   3.130   2.414 -1.5257 -0.4295  0.5303
 5411TIP3    H216240   2.552   3.139   2.565  0.6622  1.9306  0.6253
 5412TIP3   OH216241   5.440   1.523   3.623 -0.0278 -0.3802 -0.4541
 5412TIP3    H116242   5.373   1.552   3.685  0.4946 -0.5504  0.2017
 5412TIP3    H216243   5.523   1.535   3.670  0.3628 -0.6654 -1.0624
 5413TIP3   OH216244   6.149   1.657   3.910 -0.3337  0.7243  0.0739
 5413TIP3    H116245   6.221   1.628   3.854 -1.4822  0.4566 -1.3336
 5413TIP3    H216246   6.188   1.665   3.997  1.3538  0.4654 -0.6098
 5414TIP3   OH216247   6.080   3.406   0.158  0.0175 -0.0251  0.6157
 5414TIP3    H116248   6.151   3.395   0.095 -0.5873 -0.4268 -0.0123
 5414TIP3    H216249   6.010   3.446   0.107  0.6732  2.8946  1.8247
 5415TIP3   OH216250   5.615   2.893   0.720  0.0785  0.6374 -0.6618
 5415TIP3    H116251   5.654   2.973   0.754  1.0250  0.0692 -0.3800
 5415TIP3    H216252   5.629   2.897   0.625 -1.1919  1.4878 -0.8422
 5416TIP3   OH216253   0.078   1.086   3.120 -0.0901  0.2200  0.2940
 5416TIP3    H116254   0.167   1.103   3.150 -0.0226  0.7371 -0.1829
 5416TIP3    H216255   0.036   1.041   3.193  0.7900 -0.7523  0.2272
 5417TIP3   OH216256   3.276   1.647   3.980 -0.0647 -0.0716 -0.2133
 5417TIP3    H116257   3.351   1.658   3.921 -0.1530 -0.7797 -0.4654
 5417TIP3    H216258   3.262   1.734   4.017  1.1738 -0.0277  0.1934
 5418TIP3   OH216259   1.406   2.607   2.619  0.0734 -0.4646  0.5646
 5418TIP3    H116260   1.431   2.516   2.605  0.4957 -0.3021  0.2480
 5418TIP3    H216261   1.482   2.647   2.662 -0.0625 -0.2370  0.5950
 5419TIP3   OH216262   4.253   5.081   4.771  0.8132 -0.5484  0.6877
 5419TIP3    H116263   4.287   5.113   4.854 -0.2974  0.7022  0.7029
 5419TIP3    H216264   4.199   5.006   4.794 -1.4426  1.1901  1.4818
 5420TIP3   OH216265   3.139   3.739   5.033 -0.0295  0.4137 -0.0997
 5420TIP3    H116266   3.094   3.669   4.985 -0.0034  0.4184 -0.1311
 5420TIP3    H216267   3.103   3.735   5.121  0.3855 -0.0182  0.0592
 5421TIP3   OH216268   4.483   3.548   3.528  0.2034  0.8638  0.4216
 5421TIP3    H116269   4.392   3.576   3.534  0.0218  0.6552 -1.0426
 5421TIP3    H216270   4.528   3.620   3.484  0.6893  0.8393  0.8655
 5422TIP3   OH216271   0.359   4.471   1.168  0.3972  0.2614 -0.2812
 5422TIP3    H116272   0.269   4.490   1.195  0.3487  0.7946 -0.8007
 5422TIP3    H216273   0.412   4.518   1.232  0.3391 -0.9784  0.7151
 5423TIP3   OH216274   6.354   2.100   0.999  0.2302  0.2242  0.0570
 5423TIP3    H116275   6.367   2.088   0.905  0.9815 -0.5370  0.2455
 5423TIP3    H216276   6.259   2.094   1.012  0.1764 -0.2915 -0.5673
 5424TIP3   OH216277   4.037   0.989   1.493 -0.4269  0.4351  0.2130
 5424TIP3    H116278   3.989   0.953   1.568 -1.0369  0.0588 -0.3526
 5424TIP3    H216279   3.980   0.973   1.418  0.9145 -0.7043 -0.6021
 5425TIP3   OH216280   1.550   1.085   3.473  0.2616  0.4977  0.6218
 5425TIP3    H116281   1.625   1.044   3.431 -1.3860 -1.4754 -0.6476
 5425TIP3    H216282   1.554   1.054   3.564 -0.4363 -1.9335 -0.0887
 5426TIP3   OH216283   4.802   3.180   2.462  0.0674 -0.3424  0.7338
 5426TIP3    H116284   4.813   3.211   2.373  1.3520 -1.2880  0.5322
 5426TIP3    H216285   4.816   3.257   2.517  2.0735 -0.2723  0.2059
 5427TIP3   OH216286   4.400   3.881   2.895 -0.1481  0.0422  0.1745
 5427TIP3    H116287   4.458   3.873   2.820  0.6130 -2.6354  0.9211
 5427TIP3    H216288   4.322   3.831   2.871 -1.3568  1.9445 -0.0497
 5428TIP3   OH216289   3.275   3.629   0.159  0.1684 -0.3654  0.6272
 5428TIP3    H116290   3.354   3.610   0.109 -0.4453 -0.2056 -0.4423
 5428TIP3    H216291   3.213   3.663   0.094 -0.1411  1.3605  1.7586
 5429TIP3   OH216292   0.226   4.132   4.232 -0.8749  0.0723  0.0113
 5429TIP3    H116293   0.149   4.121   4.288  0.2716 -1.7369  1.3489
 5429TIP3    H216294   0.293   4.166   4.292 -0.6430  1.8924 -1.1900
 5430TIP3   OH216295   5.497   4.185   3.277 -0.0271  0.8198  0.3655
 5430TIP3    H116296   5.586   4.217   3.294  0.2051 -0.1251  1.0291
 5430TIP3    H216297   5.493   4.101   3.322 -0.9710  0.4227 -0.4284
 5431TIP3   OH216298   3.741   0.508   4.968 -0.4672 -0.2509 -0.2587
 5431TIP3    H116299   3.755   0.590   4.920 -0.9150 -1.1879 -2.0689
 5431TIP3    H216300   3.712   0.446   4.902 -1.0384 -1.6505  1.2381
 5432TIP3   OH216301   0.554   2.213   3.774 -0.1505 -0.3183  0.2665
 5432TIP3    H116302   0.534   2.287   3.831 -1.1707 -0.6650  0.3740
 5432TIP3    H216303   0.583   2.144   3.834  0.7837 -0.0236  0.1678
 5433TIP3   OH216304   1.982   4.816   1.119 -0.5886 -0.7767  0.3951
 5433TIP3    H116305   2.077   4.806   1.123 -0.1110  1.0093 -3.0556
 5433TIP3    H216306   1.959   4.862   1.199  1.6977  0.1388  0.5910
 5434TIP3   OH216307   3.234   3.269   4.088  0.3848  0.1461  0.7775
 5434TIP3    H116308   3.325   3.288   4.112  0.0864  0.6543  1.5326
 5434TIP3    H216309   3.210   3.194   4.143  1.3497 -2.1656 -1.7252
 5435TIP3   OH216310   6.214   5.604   5.157 -0.0352  0.2480  0.7423
 5435TIP3    H116311   6.199   5.556   5.239  0.5636 -1.6540 -0.2148
 5435TIP3    H216312   6.197   5.541   5.088  0.1216  1.6317 -0.6236
 5436TIP3   OH216313   5.598   3.250   2.841 -0.0475  0.2724 -0.2271
 5436TIP3    H116314   5.614   3.184   2.773 -0.6992  0.6273 -0.7402
 5436TIP3    H216315   5.664   3.232   2.908  0.8508  0.1495 -1.1194
 5437TIP3   OH216316   0.763   2.195   0.553 -0.0595  0.3499  0.6785
 5437TIP3    H116317   0.683   2.239   0.525 -0.1619 -0.1231  0.2060
 5437TIP3    H216318   0.733   2.115   0.595  0.1950 -1.2483 -1.9752
 5438TIP3   OH216319   2.908   4.220   0.569  0.1739  0.5160  0.1859
 5438TIP3    H116320   2.921   4.125   0.566  1.1896  0.6193  0.7715
 5438TIP3    H216321   2.876   4.243   0.482  0.7273 -0.2575 -0.2377
 5439TIP3   OH216322   1.265   0.876   0.910  0.2547  0.5800 -0.1373
 5439TIP3    H116323   1.253   0.917   0.996  0.1820  0.3633 -0.0441
 5439TIP3    H216324   1.216   0.932   0.849 -1.5378 -0.4691  0.2751
 5440TIP3   OH216325   0.902   4.305   4.178  0.3252 -0.0644  0.1441
 5440TIP3    H116326   0.942   4.354   4.106  3.2824 -1.2098  0.8574
 5440TIP3    H216327   0.808   4.310   4.161  0.8060  1.2054 -2.7781
 5441TIP3   OH216328   4.941   3.370   1.941  0.0586 -0.0563 -0.0696
 5441TIP3    H116329   4.922   3.436   1.874 -0.6192 -0.5406 -0.3592
 5441TIP3    H216330   5.029   3.393   1.972  0.7143 -0.2443 -1.6414
 5442TIP3   OH216331   4.599   1.066   3.267  0.4028  0.7776  0.3089
 5442TIP3    H116332   4.684   1.037   3.301  0.7452  1.3730 -0.0359
 5442TIP3    H216333   4.536   1.007   3.309  0.8975  0.8947  1.2519
 5443TIP3   OH216334   3.302   1.319   4.390  0.1602 -0.2788 -0.0102
 5443TIP3    H116335   3.330   1.345   4.478  2.6319 -0.0669 -0.7864
 5443TIP3    H216336   3.282   1.226   4.398 -0.4953 -0.0748  0.9462
 5444TIP3   OH216337   1.426   3.776   0.829  0.0899  0.2530 -0.0989
 5444TIP3    H116338   1.372   3.700   0.854 -0.9560  0.5917 -1.2313
 5444TIP3    H216339   1.511   3.758   0.869 -0.6657 -0.5972  1.2478
 5445TIP3   OH216340   2.522   5.800   5.116 -0.0286  0.0217  0.0277
 5445TIP3    H116341   2.518   5.790   5.021 -4.6555  1.0229 -0.1416
 5445TIP3    H216342   2.526   5.710   5.150 -2.9910 -0.7384 -1.2795
 5446TIP3   OH216343   2.784   2.889   3.812  0.5812  0.0228  0.3903
 5446TIP3    H116344   2.781   2.806   3.763  2.7968 -0.1595  0.4913
 5446TIP3    H216345   2.873   2.895   3.845 -0.0874  1.5142  2.0901
 5447TIP3   OH216346   6.196   0.688   0.417 -0.6995 -0.1090  0.4709
 5447TIP3    H116347   6.268   0.705   0.477  0.2087  0.7621 -0.8077
 5447TIP3    H216348   6.197   0.763   0.357 -1.6630 -0.8670 -0.5324
 5448TIP3   OH216349   0.440   4.999   4.211 -0.6122  0.6946 -0.2879
 5448TIP3    H116350   0.429   4.946   4.290 -0.3652  0.3492 -0.4833
 5448TIP3    H216351   0.370   4.970   4.153 -0.1883  0.2487 -0.5763
 5449TIP3   OH216352   3.104   3.418   3.229 -0.5833  0.7379 -0.0376
 5449TIP3    H116353   3.036   3.404   3.164 -1.5789 -0.6564  1.2380
 5449TIP3    H216354   3.065   3.478   3.293  0.2543  1.8078 -0.4827
 5450TIP3   OH216355   3.065   4.820   3.848  0.0269  0.1393 -0.4327
 5450TIP3    H116356   3.154   4.830   3.881  0.2585 -1.4543 -0.5308
 5450TIP3    H216357   3.010   4.820   3.926  0.1540  0.5373 -0.3382
 5451TIP3   OH216358   0.440   5.211   1.347 -0.3326 -0.0219 -0.3734
 5451TIP3    H116359   0.359   5.231   1.393 -0.2321  0.0714 -0.2367
 5451TIP3    H216360   0.427   5.246   1.259 -0.9778 -1.2171 -0.7808
 5452TIP3   OH216361   0.455   2.011   1.396  0.0967  0.3203 -0.3363
 5452TIP3    H116362   0.468   2.098   1.360  1.3148  0.0120 -0.7189
 5452TIP3    H216363   0.497   1.953   1.333  2.2856 -0.2509  1.4932
 5453TIP3   OH216364   1.473   5.007   4.176  0.0071 -0.2617  0.2554
 5453TIP3    H116365   1.510   5.031   4.091  0.7888 -0.0685  0.6452
 5453TIP3    H216366   1.414   4.934   4.156  0.6137 -0.5901 -0.3711
 5454TIP3   OH216367   1.690   1.805   2.166 -0.8005  0.0038 -0.8733
 5454TIP3    H116368   1.695   1.729   2.224  0.1337  1.4226  1.0075
 5454TIP3    H216369   1.618   1.858   2.202  1.6247  2.3315  0.9663
 5455TIP3   OH216370   4.828   1.063   1.959  0.5066  0.6915 -0.4360
 5455TIP3    H116371   4.828   1.017   1.875  1.5945  0.5467 -0.3768
 5455TIP3    H216372   4.861   1.151   1.938  0.4032  0.7833 -0.2210
 5456TIP3   OH216373   1.612   3.222   2.652  0.5902 -0.1404  0.5580
 5456TIP3    H116374   1.694   3.174   2.661  0.0055 -1.0026  1.4361
 5456TIP3    H216375   1.597   3.262   2.738  0.5220  0.7351  0.1508
 5457TIP3   OH216376   5.031   3.954   2.330  0.4997  0.5035  0.2621
 5457TIP3    H116377   5.117   3.912   2.330  1.5227  2.5028  0.3012
 5457TIP3    H216378   5.009   3.966   2.238 -1.0364 -2.3677  0.1332
 5458TIP3   OH216379   5.527   2.778   1.870  0.3612 -0.0638  0.1059
 5458TIP3    H116380   5.540   2.842   1.940 -1.0632  0.5869 -0.1979
 5458TIP3    H216381   5.479   2.707   1.912 -0.1300  0.1387 -0.1160
 5459TIP3   OH216382   3.306   3.347   1.075 -0.5138 -0.2697  0.0690
 5459TIP3    H116383   3.283   3.255   1.077 -0.9463 -0.1638  0.1012
 5459TIP3    H216384   3.343   3.362   0.988 -1.1414 -0.3102 -0.2096
 5460TIP3   OH216385   4.296   2.213   1.439  0.4227 -0.0930 -0.2177
 5460TIP3    H116386   4.389   2.219   1.419  0.6063 -1.4433  0.1117
 5460TIP3    H216387   4.282   2.120   1.459 -0.5047  0.4545  2.0425
 5461TIP3   OH216388   3.546   3.563   2.747 -0.6547  0.1258 -0.3570
 5461TIP3    H116389   3.454   3.566   2.775 -0.5860  0.1839 -0.1358
 5461TIP3    H216390   3.563   3.650   2.711 -1.3929 -0.6228 -2.6792
 5462TIP3   OH216391   0.280   0.754   1.327 -0.0055 -0.1422  0.1157
 5462TIP3    H116392   0.269   0.677   1.272 -0.5716  0.0431 -0.0444
 5462TIP3    H216393   0.203   0.754   1.384  0.1299  0.1484  0.3050
 5463TIP3   OH216394   1.552   3.699   4.822 -0.0444 -0.0860 -0.6124
 5463TIP3    H116395   1.461   3.682   4.797 -0.5150  0.4188  0.6698
 5463TIP3    H216396   1.597   3.713   4.738 -0.7376 -2.1220 -1.3784
 5464TIP3   OH216397   4.459   2.752   2.093 -0.2522  0.6926 -0.0851
 5464TIP3    H116398   4.455   2.789   2.181 -0.2155  1.2471 -0.3130
 5464TIP3    H216399   4.464   2.657   2.107 -2.2672  0.6283  0.4634
 5465TIP3   OH216400   5.270   5.698   2.607  0.3091 -0.1861  0.0304
 5465TIP3    H116401   5.356   5.669   2.638 -0.5725 -0.9604  1.9073
 5465TIP3    H216402   5.227   5.619   2.576 -0.3907 -0.1185  0.8059
 5466TIP3   OH216403   4.957   3.068   3.284  0.0695  0.1902 -0.3108
 5466TIP3    H116404   5.020   3.130   3.248 -0.1970  0.5734 -0.1262
 5466TIP3    H216405   5.010   2.992   3.311  1.0844  1.9189  3.2836
 5467TIP3   OH216406   5.039   3.824   0.726 -0.3436  0.4472 -0.4984
 5467TIP3    H116407   5.077   3.774   0.654 -0.3509 -0.0079 -0.1854
 5467TIP3    H216408   4.970   3.876   0.685 -1.3689 -0.9355 -0.5894
 5468TIP3   OH216409   6.039   4.468   3.184  0.2801 -0.1903  0.4537
 5468TIP3    H116410   5.964   4.521   3.211  0.4972  0.6002 -0.4172
 5468TIP3    H216411   6.040   4.475   3.088  1.1864 -0.5654  0.4234
 5469TIP3   OH216412   5.931   3.868   0.392  0.2793  0.2095 -0.2936
 5469TIP3    H116413   5.997   3.936   0.376 -1.1323  2.2987  1.9051
 5469TIP3    H216414   5.869   3.878   0.319  0.5946  0.6501 -0.5092
 5470TIP3   OH216415   5.330   1.611   3.353  0.3854  0.1826 -0.6652
 5470TIP3    H116416   5.384   1.678   3.395 -0.7551  0.0771  1.1113
 5470TIP3    H216417   5.291   1.563   3.426 -0.7714 -0.8158 -1.8882
 5471TIP3   OH216418   0.411   1.829   1.128  0.2475 -0.3925 -0.6045
 5471TIP3    H116419   0.361   1.800   1.205  0.2210 -0.1828 -0.5421
 5471TIP3    H216420   0.363   1.793   1.054 -0.3696  0.3434 -0.5767
 5472TIP3   OH216421   0.871   5.185   0.897 -0.1163 -0.3432  0.4353
 5472TIP3    H116422   0.934   5.168   0.967 -1.8016  0.7140  2.3007
 5472TIP3    H216423   0.819   5.104   0.891  0.4956 -0.7014 -0.1273
 5473TIP3   OH216424   1.392   2.259   2.824 -0.0942  0.5706  0.2289
 5473TIP3    H116425   1.415   2.239   2.733 -0.8681 -0.7973  0.3090
 5473TIP3    H216426   1.475   2.282   2.865  0.7477 -1.5638 -0.1422
 5474TIP3   OH216427   4.245   0.505   0.535  0.3945 -0.4660  0.6215
 5474TIP3    H116428   4.182   0.482   0.467  1.2726 -0.2465 -0.2983
 5474TIP3    H216429   4.330   0.479   0.499  0.8270 -0.8807  1.8874
 5475TIP3   OH216430   0.269   1.994   4.638 -0.0905  0.3394  0.3309
 5475TIP3    H116431   0.354   1.964   4.671 -0.3219 -0.9321 -0.1645
 5475TIP3    H216432   0.286   2.019   4.547 -0.2269  0.1599  0.2554
 5476TIP3   OH216433   4.606   2.563   3.958 -0.2158  0.1803 -0.1179
 5476TIP3    H116434   4.558   2.532   3.881  1.3039 -0.5422 -0.8211
 5476TIP3    H216435   4.574   2.508   4.029  1.3954 -2.1986 -1.0890
 5477TIP3   OH216436   2.079   5.414   5.173  0.1862 -0.1543 -0.3402
 5477TIP3    H116437   1.995   5.448   5.204  0.3204 -1.0127  1.0901
 5477TIP3    H216438   2.065   5.393   5.081 -1.6033 -1.5416  0.1817
 5478TIP3   OH216439   6.217   2.251   1.506 -0.2958  0.2472  0.3643
 5478TIP3    H116440   6.262   2.301   1.437  0.2562 -0.3824  0.2607
 5478TIP3    H216441   6.162   2.316   1.550 -1.7638  0.4121 -1.5580
 5479TIP3   OH216442   0.603   0.091   3.585 -0.1326 -0.0001  0.8387
 5479TIP3    H116443   0.639   0.099   3.497 -1.3310 -0.0670  0.3220
 5479TIP3    H216444   0.620   0.001   3.611 -1.6862 -0.6466 -0.2285
 5480TIP3   OH216445   1.312   0.378   3.222  0.2977  0.2008 -0.1962
 5480TIP3    H116446   1.236   0.390   3.164  0.0690  1.4580  0.3299
 5480TIP3    H216447   1.353   0.464   3.226  0.4965  0.0671  1.2334
 5481TIP3   OH216448   5.619   2.345   1.830 -0.1488 -0.1435  0.2518
 5481TIP3    H116449   5.550   2.405   1.803 -0.0676  0.3237  1.0834
 5481TIP3    H216450   5.573   2.267   1.859 -0.2361 -0.8632 -1.6288
 5482TIP3   OH216451   3.252   0.076   3.740  0.1161 -0.2722  0.2340
 5482TIP3    H116452   3.269  -0.001   3.685  0.4810  0.5169 -0.7953
 5482TIP3    H216453   3.329   0.131   3.729 -1.3303  1.6101 -1.4647
 5483TIP3   OH216454   0.328   1.939   4.112 -0.3774  0.2007  0.4441
 5483TIP3    H116455   0.287   2.025   4.099 -1.0775 -0.3568 -1.4164
 5483TIP3    H216456   0.257   1.876   4.095  0.3460 -0.7586  0.8762
 5484TIP3   OH216457   5.063   5.219   2.075 -0.1213 -0.1406  0.0698
 5484TIP3    H116458   4.982   5.270   2.079 -0.8551 -0.9978 -2.2407
 5484TIP3    H216459   5.034   5.129   2.059  1.2624 -0.7192  0.6642
 5485TIP3   OH216460   1.662   3.430   0.172 -0.1055  0.1016  0.2155
 5485TIP3    H116461   1.673   3.525   0.176 -0.9668  0.2152  0.0823
 5485TIP3    H216462   1.738   3.395   0.218  0.0172  0.8653  0.6134
 5486TIP3   OH216463   3.590   0.030   2.388 -0.2449  0.0983 -1.2858
 5486TIP3    H116464   3.623   0.101   2.444  1.7134 -0.7474 -1.2759
 5486TIP3    H216465   3.644  -0.046   2.412 -0.0921 -0.5694 -3.5183
 5487TIP3   OH216466   3.493   2.245   5.131 -0.0355  0.6112 -0.0812
 5487TIP3    H116467   3.566   2.291   5.089  1.2734 -1.4143 -0.1779
 5487TIP3    H216468   3.500   2.268   5.223 -0.5957  2.0945 -0.3887
 5488TIP3   OH216469   6.090   3.587   4.863 -0.5586 -0.1889  0.3276
 5488TIP3    H116470   6.146   3.624   4.931 -1.4944  0.3440  0.8222
 5488TIP3    H216471   6.102   3.646   4.788  0.8713 -1.0695 -0.1710
 5489TIP3   OH216472   1.497   2.510   3.849  0.5109 -0.0605 -0.6113
 5489TIP3    H116473   1.447   2.478   3.924 -0.6618  3.6989  0.4221
 5489TIP3    H216474   1.567   2.446   3.838 -0.8642 -2.2106  1.8943
 5490TIP3   OH216475   2.566   3.514   3.045  0.0460  0.0481 -0.2290
 5490TIP3    H116476   2.614   3.433   3.059 -1.2731 -0.3420  2.6474
 5490TIP3    H216477   2.516   3.499   2.965  0.9239 -1.3907 -0.5452
 5491TIP3   OH216478   5.116   5.833   2.260 -0.2187  0.3193 -0.2003
 5491TIP3    H116479   5.142   5.915   2.302 -1.7377  0.8413 -0.1872
 5491TIP3    H216480   5.170   5.827   2.182 -0.3693  1.5747 -0.4252
 5492TIP3   OH216481   5.357   2.748   3.529 -0.2351  0.0243 -0.1000
 5492TIP3    H116482   5.392   2.664   3.559 -0.7978 -0.2439 -0.1690
 5492TIP3    H216483   5.269   2.727   3.497  0.1995  0.3589 -1.6081
 5493TIP3   OH216484   5.367   1.674   2.553  0.0524 -0.1501  0.1446
 5493TIP3    H116485   5.404   1.638   2.634 -1.2964 -2.6498 -0.2476
 5493TIP3    H216486   5.372   1.601   2.491  0.6947  1.5880 -1.9451
 5494TIP3   OH216487   0.534   0.471   0.497  0.1557  0.1345 -0.4404
 5494TIP3    H116488   0.450   0.426   0.487  0.1023  0.4041 -1.2959
 5494TIP3    H216489   0.512   0.553   0.540  0.0516 -0.0289 -0.1837
 5495TIP3   OH216490   1.115   2.519   0.074 -0.0838 -0.2230  0.1470
 5495TIP3    H116491   1.165   2.494   0.152 -0.5824  0.5432  0.7245
 5495TIP3    H216492   1.087   2.609   0.091 -0.5140 -0.1758 -0.7597
 5496TIP3   OH216493   2.961   0.574   2.406 -0.6808  0.0582  0.0817
 5496TIP3    H116494   2.963   0.624   2.487 -1.5120 -0.0811  0.1952
 5496TIP3    H216495   3.007   0.492   2.427 -1.9108 -0.4719  0.7587
 5497TIP3   OH216496   4.747   4.409   4.738  0.2092 -0.4285  0.0666
 5497TIP3    H116497   4.759   4.473   4.669 -2.6466 -0.1607 -0.2790
 5497TIP3    H216498   4.762   4.324   4.695  0.6262 -0.1677 -0.3128
 5498TIP3   OH216499   4.042   4.926   1.822  0.2174  0.4862  0.0005
 5498TIP3    H116500   4.051   4.837   1.789  1.9772  0.3546  0.7046
 5498TIP3    H216501   4.128   4.966   1.809 -0.4440  2.0048 -0.0274
 5499TIP3   OH216502   3.595   5.679   4.436  0.0360  0.8634 -0.3420
 5499TIP3    H116503   3.537   5.602   4.441  0.9481  0.2419  2.1562
 5499TIP3    H216504   3.551   5.738   4.375 -2.7747  0.0296  0.6948
 5500TIP3   OH216505   5.765   0.602   2.433  0.4307  0.2232 -0.1913
 5500TIP3    H116506   5.737   0.536   2.369  0.9797  0.6622 -0.9026
 5500TIP3    H216507   5.845   0.567   2.471 -1.4362 -1.4528  2.4958
 5501TIP3   OH216508   2.888   0.466   3.657  0.0363 -0.0859 -0.3843
 5501TIP3    H116509   2.851   0.468   3.569  1.0997  0.4713 -0.8337
 5501TIP3    H216510   2.946   0.542   3.661 -0.1088 -0.0150  0.8542
 5502TIP3   OH216511   4.823   0.638   3.779 -0.0474  0.3405 -0.0297
 5502TIP3    H116512   4.870   0.667   3.857  0.8571 -1.0696 -0.0196
 5502TIP3    H216513   4.775   0.560   3.808 -1.3927  1.0071 -0.3758
 5503TIP3   OH216514   3.143   0.186   2.024  0.0249 -0.2060 -0.0479
 5503TIP3    H116515   3.112   0.261   1.973  1.9598  0.9338  0.3533
 5503TIP3    H216516   3.127   0.110   1.967 -1.5636  0.5283 -0.6429
 5504TIP3   OH216517   4.567   4.107   1.158  0.4500  0.1424  0.4123
 5504TIP3    H116518   4.585   4.052   1.234 -0.6250 -0.9324 -0.0628
 5504TIP3    H216519   4.478   4.139   1.172 -0.1534 -0.8607 -0.7984
 5505TIP3   OH216520   2.954   0.198   3.656  0.1048  0.1136 -0.2396
 5505TIP3    H116521   3.045   0.177   3.677  0.4458 -0.6186 -2.2667
 5505TIP3    H216522   2.941   0.285   3.692  1.6555  0.2825 -0.0120
 5506TIP3   OH216523   6.339   0.923   3.339  0.3280  0.1925 -0.0432
 5506TIP3    H116524   6.341   0.879   3.424  0.5714  1.7899  0.8306
 5506TIP3    H216525   6.268   0.881   3.292  0.4757 -1.0347  0.7702
 5507TIP3   OH216526   3.546   4.443   4.203 -0.0706  0.0714 -0.3372
 5507TIP3    H116527   3.599   4.492   4.139  1.0190 -1.2652 -0.4999
 5507TIP3    H216528   3.491   4.386   4.149  0.5707 -0.7775 -0.1034
 5508TIP3   OH216529   4.392   2.242   3.865 -0.7236 -0.4009  0.1073
 5508TIP3    H116530   4.304   2.276   3.880 -0.5584 -0.2510  0.8079
 5508TIP3    H216531   4.380   2.170   3.804 -1.1873  0.3527 -0.7102
 5509TIP3   OH216532   0.651   5.741   2.590  0.0706  0.2280 -0.2732
 5509TIP3    H116533   0.709   5.816   2.601  1.0573 -0.8019  2.1888
 5509TIP3    H216534   0.566   5.779   2.568  0.3552  2.1603  1.6453
 5510TIP3   OH216535   4.591   5.755   0.836 -0.0036  0.5104 -0.1886
 5510TIP3    H116536   4.636   5.778   0.917  0.8960  0.3254 -0.6227
 5510TIP3    H216537   4.657   5.707   0.785 -0.1950  1.5760 -1.4931
 5511TIP3   OH216538   0.497   3.567   4.092  0.2606  0.2579  0.4139
 5511TIP3    H116539   0.447   3.607   4.021 -1.4028  0.0261  1.4018
 5511TIP3    H216540   0.447   3.587   4.171 -0.0588 -2.7510  1.0920
 5512TIP3   OH216541   0.873   0.950   4.449 -0.4355 -0.0467  0.3512
 5512TIP3    H116542   0.780   0.928   4.459 -0.3468 -1.1181 -0.8429
 5512TIP3    H216543   0.907   0.884   4.388  1.5544 -0.8082  2.1661
 5513TIP3   OH216544   3.208   3.800   2.747  0.5318 -0.5558  0.3440
 5513TIP3    H116545   3.217   3.714   2.789 -0.0082 -0.5780  0.4177
 5513TIP3    H216546   3.199   3.780   2.654  2.1031 -0.4904  0.1399
 5514TIP3   OH216547   0.320   2.181   0.449  0.8535 -0.2171  0.1016
 5514TIP3    H116548   0.362   2.095   0.460  0.1405 -0.7007 -0.7959
 5514TIP3    H216549   0.319   2.195   0.354  0.8404  0.7287  0.2338
 5515TIP3   OH216550   5.345   1.031   3.475 -0.0610  0.2505  0.8191
 5515TIP3    H116551   5.413   0.999   3.416 -0.8922  1.2941 -0.7982
 5515TIP3    H216552   5.292   1.090   3.421 -1.9339 -0.1064  2.1442
 5516TIP3   OH216553   5.036   4.819   1.541  0.3442  0.2809  0.6531
 5516TIP3    H116554   5.036   4.910   1.573  0.5054  0.9662 -1.2069
 5516TIP3    H216555   5.124   4.787   1.562  0.8338  1.0949 -0.0813
 5517TIP3   OH216556   3.879   4.715   5.133  0.1281  0.2087 -0.1958
 5517TIP3    H116557   3.887   4.625   5.102 -0.1075 -0.2592  1.0608
 5517TIP3    H216558   3.793   4.743   5.100  0.4186  0.1590 -1.0171
 5518TIP3   OH216559   4.166   2.503   0.460  0.0127 -0.0465 -0.2827
 5518TIP3    H116560   4.242   2.447   0.474 -0.4897 -0.0938  3.6063
 5518TIP3    H216561   4.203   2.590   0.444  0.8955 -0.3834 -0.1192
 5519TIP3   OH216562   0.199   3.268   2.472 -0.1304  0.4073  0.1555
 5519TIP3    H116563   0.229   3.330   2.538  0.2749  2.8961 -2.1854
 5519TIP3    H216564   0.218   3.311   2.389 -0.5636 -2.5822 -1.6179
 5520TIP3   OH216565   5.955   0.481   4.418 -0.1573  0.0117 -0.1487
 5520TIP3    H116566   5.888   0.543   4.388 -0.1396 -0.0610 -0.3438
 5520TIP3    H216567   5.936   0.401   4.369  0.0969  0.0028 -0.2336
 5521TIP3   OH216568   4.028   2.339   0.806  0.0591 -0.0434  0.4850
 5521TIP3    H116569   4.055   2.377   0.723 -3.5398 -0.1016 -0.9126
 5521TIP3    H216570   4.001   2.249   0.784  0.6063 -0.6512  2.0894
 5522TIP3   OH216571   1.386   3.789   0.249 -0.3993 -0.1135  0.2103
 5522TIP3    H116572   1.323   3.797   0.320 -0.3492  0.0334  0.2395
 5522TIP3    H216573   1.415   3.879   0.233  1.6948 -0.4083  1.8941
 5523TIP3   OH216574   3.781   0.601   3.166 -0.1182 -0.1857 -0.6936
 5523TIP3    H116575   3.776   0.638   3.078 -0.6130  2.5795  0.3922
 5523TIP3    H216576   3.866   0.629   3.199 -0.0920 -0.8785 -0.1522
 5524TIP3   OH216577   2.084   4.447   1.705  0.6799 -0.0846 -0.3963
 5524TIP3    H116578   2.117   4.408   1.786  2.8275  1.6130 -0.3574
 5524TIP3    H216579   2.005   4.495   1.733  0.8462 -0.3067  0.4999
 5525TIP3   OH216580   2.254   0.299   1.701 -0.1799 -0.6118  0.1880
 5525TIP3    H116581   2.291   0.266   1.783 -0.8545 -2.1891 -0.1141
 5525TIP3    H216582   2.229   0.221   1.652 -0.8514  0.3338 -1.0440
 5526TIP3   OH216583   3.660   4.933   4.763  0.8053  0.1118  0.5556
 5526TIP3    H116584   3.736   4.991   4.761  1.1050 -0.2470  1.2658
 5526TIP3    H216585   3.680   4.863   4.701  0.9396  0.1575  0.5489
 5527TIP3   OH216586   4.753   2.924   2.371  0.0427 -0.2011 -0.3539
 5527TIP3    H116587   4.773   3.007   2.413 -3.2323  0.7879 -0.4648
 5527TIP3    H216588   4.785   2.933   2.281  1.8034 -0.0390  0.2621
 5528TIP3   OH216589   4.930   5.657   1.704 -0.3373  0.0741 -0.4780
 5528TIP3    H116590   5.015   5.614   1.694 -1.2592 -1.8135 -0.6875
 5528TIP3    H216591   4.912   5.653   1.798 -0.2916  0.2599 -0.4618
 5529TIP3   OH216592   5.726   1.235   4.896 -0.5469  0.0871 -0.7393
 5529TIP3    H116593   5.642   1.237   4.850 -0.8552 -0.3941 -0.2198
 5529TIP3    H216594   5.785   1.190   4.835 -0.2713  1.7003 -1.7059
 5530TIP3   OH216595   4.731   2.484   3.141 -0.2131  0.6139  0.5596
 5530TIP3    H116596   4.742   2.565   3.091  0.8639  0.1468  0.0071
 5530TIP3    H216597   4.776   2.417   3.088 -0.9870 -0.3238  1.0582
 5531TIP3   OH216598   0.618   1.093   3.497  0.3895 -0.2501 -0.1865
 5531TIP3    H116599   0.667   1.017   3.527  0.8008 -0.1718 -0.6538
 5531TIP3    H216600   0.607   1.080   3.403 -0.6161 -0.3357 -0.0744
 5532TIP3   OH216601   3.799   4.568   2.133  0.0804  0.0805 -0.7257
 5532TIP3    H116602   3.761   4.493   2.179 -2.2868  0.6776 -1.5691
 5532TIP3    H216603   3.786   4.642   2.192 -2.0137  0.6539 -1.8072
 5533TIP3   OH216604   4.277   0.474   2.339  0.6445 -0.0221 -0.0486
 5533TIP3    H116605   4.252   0.447   2.250  0.4320  0.3558 -0.1038
 5533TIP3    H216606   4.240   0.406   2.396 -0.6429  0.5865 -0.1182
 5534TIP3   OH216607   0.783   4.404   4.443  0.1246  0.5509 -0.0389
 5534TIP3    H116608   0.788   4.316   4.481 -0.2683  0.3635 -0.4081
 5534TIP3    H216609   0.738   4.391   4.359 -0.0836  1.1259 -0.0196
 5535TIP3   OH216610   2.603   3.070   2.041  0.5412  0.0711  0.1067
 5535TIP3    H116611   2.552   3.076   1.960  0.3968  1.2594  0.2607
 5535TIP3    H216612   2.685   3.028   2.015  0.5466  0.5559 -0.6910
 5536TIP3   OH216613   4.025   5.439   5.004 -0.6309 -0.0350  0.2260
 5536TIP3    H116614   3.988   5.354   4.979 -0.9329  0.2828 -0.4358
 5536TIP3    H216615   3.960   5.478   5.062 -1.4632  0.6063 -1.0866
 5537TIP3   OH216616   0.341   2.623   1.704 -0.1714 -0.3486  0.1101
 5537TIP3    H116617   0.249   2.642   1.717 -0.2177  1.0417 -1.7911
 5537TIP3    H216618   0.387   2.702   1.735  0.2831 -0.5351 -0.0688
 5538TIP3   OH216619   2.706   1.886   0.507 -0.2148 -0.0817 -0.9130
 5538TIP3    H116620   2.615   1.893   0.535  0.0306  1.0736 -0.3218
 5538TIP3    H216621   2.720   1.962   0.450  0.4988  0.0210 -0.6119
 5539TIP3   OH216622   2.645   0.675   0.284 -0.0044 -0.2991  0.0884
 5539TIP3    H116623   2.600   0.747   0.329  1.3304  0.2628  0.6093
 5539TIP3    H216624   2.737   0.704   0.281  0.2716 -1.2598 -1.1823
 5540TIP3   OH216625   1.422   2.436   3.273  0.4434  0.3842 -0.0761
 5540TIP3    H116626   1.394   2.355   3.231  1.3594  0.1475 -0.2711
 5540TIP3    H216627   1.373   2.439   3.355 -0.1853  0.0384 -0.4347
 5541TIP3   OH216628   0.944   1.169   1.757 -0.0223  0.5002 -0.8208
 5541TIP3    H116629   1.022   1.224   1.758 -0.6054  1.3472  0.4288
 5541TIP3    H216630   0.883   1.211   1.818 -0.4858 -1.5402  0.2398
 5542TIP3   OH216631   2.355   1.834   3.078 -0.2510 -0.2591 -0.4715
 5542TIP3    H116632   2.289   1.904   3.082  0.0534  0.1376 -1.7672
 5542TIP3    H216633   2.417   1.864   3.012  0.4584 -1.2884 -0.2945
 5543TIP3   OH216634   1.569   5.431   2.750  0.0079  0.6273 -0.3184
 5543TIP3    H116635   1.544   5.493   2.820  2.0402  1.1205  0.0180
 5543TIP3    H216636   1.639   5.476   2.703 -0.3313 -0.3318 -1.7736
 5544TIP3   OH216637   2.689   3.919   4.246  0.2450 -0.2854 -0.1960
 5544TIP3    H116638   2.687   3.860   4.171  1.6025 -1.9562  0.9740
 5544TIP3    H216639   2.753   3.879   4.305 -1.7230  0.1874  2.4451
 5545TIP3   OH216640   2.637   4.301   1.462  0.4589  0.1988 -0.0049
 5545TIP3    H116641   2.617   4.214   1.428  0.1529  0.6191 -0.9446
 5545TIP3    H216642   2.697   4.339   1.397  0.5581  0.6941  0.3717
 5546TIP3   OH216643   2.608   1.152   0.809  0.1693  0.1608 -0.5543
 5546TIP3    H116644   2.693   1.135   0.768  0.2143 -0.1144 -0.3494
 5546TIP3    H216645   2.595   1.247   0.799  0.4406  0.1843 -0.6968
 5547TIP3   OH216646   4.005   3.026   2.307 -0.2113 -0.2172 -0.0868
 5547TIP3    H116647   3.930   3.082   2.328 -0.7807 -0.7383 -0.6572
 5547TIP3    H216648   4.062   3.081   2.253  0.3078  0.4937  1.1419
 5548TIP3   OH216649   4.314   3.249   2.428 -0.0229  0.3680  0.6601
 5548TIP3    H116650   4.399   3.286   2.402  0.5939 -1.1448  0.3925
 5548TIP3    H216651   4.254   3.323   2.424  1.0356  1.2288 -0.3594
 5549TIP3   OH216652   5.190   5.379   3.926  0.2534  0.2455  0.0531
 5549TIP3    H116653   5.133   5.445   3.885 -0.1142 -0.4881 -0.6426
 5549TIP3    H216654   5.253   5.356   3.857  0.7718  0.3312  0.4999
 5550TIP3   OH216655   0.494   0.257   0.069 -0.1652 -0.6283  0.0270
 5550TIP3    H116656   0.515   0.236  -0.022 -0.0766  2.0086 -0.6459
 5550TIP3    H216657   0.579   0.257   0.114 -0.2482 -2.2961  0.2466
 5551TIP3   OH216658   4.720   2.280   0.752  0.0874  0.2173  0.0660
 5551TIP3    H116659   4.740   2.365   0.791  1.7353 -0.4259  0.7175
 5551TIP3    H216660   4.683   2.229   0.824  2.7310 -0.8298  0.8040
 5552TIP3   OH216661   0.618   0.965   4.054  0.2677 -0.1285 -0.0067
 5552TIP3    H116662   0.524   0.981   4.063  0.4927  1.1375  0.2630
 5552TIP3    H216663   0.654   1.049   4.027  1.3954 -0.4582  0.4259
 5553TIP3   OH216664   0.143   5.697   2.291  0.0124  0.1287  0.7901
 5553TIP3    H116665   0.221   5.663   2.248 -0.9261  0.5369 -1.3509
 5553TIP3    H216666   0.113   5.767   2.233 -1.6068  0.3846  1.8866
 5554TIP3   OH216667   5.610   4.801   2.825  0.4530  0.2228 -0.1063
 5554TIP3    H116668   5.579   4.878   2.873  0.7673  0.1198  0.2721
 5554TIP3    H216669   5.675   4.836   2.764  1.3851  0.1504  0.7952
 5555TIP3   OH216670   4.055   2.123   1.806  0.1304  0.1192 -0.4507
 5555TIP3    H116671   4.072   2.145   1.897  1.2880  1.7069 -1.0113
 5555TIP3    H216672   3.960   2.114   1.800  0.1148 -1.2995  1.1495
 5556TIP3   OH216673   1.854   2.172   4.259 -0.6297  0.2612 -0.1144
 5556TIP3    H116674   1.854   2.171   4.163  0.4298  1.0799 -0.1402
 5556TIP3    H216675   1.923   2.111   4.284  0.7143  1.7825  0.0493
 5557TIP3   OH216676   3.768   4.248   2.128  0.1729  0.2688 -0.4242
 5557TIP3    H116677   3.683   4.208   2.110  0.8949 -1.7115  0.2456
 5557TIP3    H216678   3.811   4.252   2.043  0.0118 -0.2004 -0.5291
 5558TIP3   OH216679   0.464   2.973   1.376  0.1354  0.6139 -0.7729
 5558TIP3    H116680   0.442   3.033   1.448  0.1939  0.4045 -0.5787
 5558TIP3    H216681   0.507   3.028   1.311  1.9952  0.4380  0.2353
 5559TIP3   OH216682   6.063   4.041   4.432  0.1667 -0.0876 -0.2411
 5559TIP3    H116683   5.988   4.055   4.491 -0.6864 -0.0554 -1.3017
 5559TIP3    H216684   6.060   3.948   4.412  0.3303 -0.0578 -0.3983
 5560TIP3   OH216685   0.625   2.469   2.063  0.1139 -0.4715 -0.4193
 5560TIP3    H116686   0.615   2.409   2.137  0.5983  0.4597  0.4192
 5560TIP3    H216687   0.693   2.530   2.091 -0.4825  0.5625 -1.1880
 5561TIP3   OH216688   0.191   4.602   3.935 -0.4525  0.1196 -0.0735
 5561TIP3    H116689   0.155   4.677   3.888  0.0023 -0.1450 -0.8574
 5561TIP3    H216690   0.207   4.537   3.867 -0.3756 -0.5059  0.5351
 5562TIP3   OH216691   5.182   3.408   0.644  0.3624 -0.3099 -0.0877
 5562TIP3    H116692   5.203   3.446   0.729  0.9038 -0.7019 -0.0408
 5562TIP3    H216693   5.244   3.336   0.634  2.1152  1.3249 -1.9853
 5563TIP3   OH216694   5.340   1.180   1.725 -0.5732  0.0541 -0.1246
 5563TIP3    H116695   5.408   1.125   1.763  0.0301  0.0718 -1.1299
 5563TIP3    H216696   5.259   1.153   1.769  0.0857  0.0870  1.1379
 5564TIP3   OH216697   5.234   3.479   2.842 -0.7132  0.2777 -0.3761
 5564TIP3    H116698   5.228   3.390   2.806 -0.8206 -0.5390  1.5481
 5564TIP3    H216699   5.144   3.511   2.842 -0.7139  0.2812 -0.8032
 5565TIP3   OH216700   2.711   3.236   1.260  0.0553  0.4304 -0.0737
 5565TIP3    H116701   2.700   3.325   1.229 -0.3213 -0.2974 -2.1723
 5565TIP3    H216702   2.640   3.187   1.219  1.6311 -1.2781 -0.9467
 5566TIP3   OH216703   1.668   2.875   3.278  0.1390  0.2520 -0.1800
 5566TIP3    H116704   1.677   2.924   3.359  0.6906  1.8139 -1.1398
 5566TIP3    H216705   1.753   2.834   3.265  0.0319 -0.0474  0.0471
 5567TIP3   OH216706   5.929   0.989   3.784  0.4192 -1.1765 -0.3210
 5567TIP3    H116707   5.932   0.939   3.702 -0.5042 -1.4707 -0.1888
 5567TIP3    H216708   5.840   1.024   3.787  0.8214 -0.1426 -0.0340
 5568TIP3   OH216709   4.407   2.909   1.868 -0.3066  0.3501 -0.2344
 5568TIP3    H116710   4.418   2.858   1.948 -0.8535  0.1901 -0.2582
 5568TIP3    H216711   4.393   2.844   1.800  1.7709  0.3876 -0.7743
 5569TIP3   OH216712   1.650   1.795   4.141  0.3674  0.5119  0.4863
 5569TIP3    H116713   1.710   1.751   4.201  0.4888 -1.5174 -1.0196
 5569TIP3    H216714   1.573   1.814   4.195  0.4417 -1.2857  1.3231
 5570TIP3   OH216715   3.091   1.501   5.217  0.1824  0.1958 -0.0114
 5570TIP3    H116716   3.142   1.494   5.136  1.5735  1.1182  0.7610
 5570TIP3    H216717   3.002   1.521   5.187  0.6886  0.5861 -1.3047
 5571TIP3   OH216718   0.495   5.671   1.030 -0.0365  0.1979  0.0227
 5571TIP3    H116719   0.560   5.657   1.099 -0.1736  0.2939  0.1714
 5571TIP3    H216720   0.461   5.759   1.047 -0.7912 -0.1606  0.4327
 5572TIP3   OH216721   5.095   5.316   1.193 -0.2217  0.0965 -0.4009
 5572TIP3    H116722   5.022   5.351   1.142  0.5207  1.0538 -0.8465
 5572TIP3    H216723   5.084   5.354   1.280 -1.9285 -2.1461  0.4565
 5573TIP3   OH216724   2.272   5.155   2.828 -0.4068  0.5946  0.0706
 5573TIP3    H116725   2.218   5.228   2.797 -3.0312 -1.3066 -0.2573
 5573TIP3    H216726   2.292   5.105   2.749  0.5456  0.4376  0.3986
 5574TIP3   OH216727   2.099   0.600   0.258 -0.0468 -0.1965  0.2829
 5574TIP3    H116728   2.006   0.609   0.280 -0.2030  0.9022 -0.6977
 5574TIP3    H216729   2.137   0.684   0.282  0.2063  0.2231 -1.4671
 5575TIP3   OH216730   1.957   5.664   0.893  0.3911  0.2899  0.1929
 5575TIP3    H116731   2.045   5.653   0.928  0.7740  0.8205 -0.5783
 5575TIP3    H216732   1.922   5.575   0.888  0.7842  0.0985  0.7365
 5576TIP3   OH216733   4.146   3.464   1.335  0.2488 -0.3379 -0.3334
 5576TIP3    H116734   4.068   3.490   1.383  0.9040  0.1600  0.5001
 5576TIP3    H216735   4.126   3.378   1.300 -1.3805  0.5592 -1.7581
 5577TIP3   OH216736   1.659   3.003   4.662  0.6378 -0.8955  0.1063
 5577TIP3    H116737   1.595   2.938   4.631 -0.3953 -0.3255  1.0055
 5577TIP3    H216738   1.625   3.087   4.632  1.0349 -0.5891  0.4959
 5578TIP3   OH216739   0.882   2.200   1.443  0.0939  0.6999  0.2255
 5578TIP3    H116740   0.883   2.277   1.501  0.4388  0.6672  0.2618
 5578TIP3    H216741   0.918   2.232   1.360 -0.2862  0.7157  0.0647
 5579TIP3   OH216742   4.768   5.619   0.703  0.4829  0.1684  0.2900
 5579TIP3    H116743   4.796   5.621   0.612 -2.0732  2.0745 -0.5656
 5579TIP3    H216744   4.741   5.528   0.718  0.8685 -0.1471 -0.8383
 5580TIP3   OH216745   3.259   4.508   3.825 -0.1687 -0.6934  0.0291
 5580TIP3    H116746   3.191   4.555   3.777  1.3525  2.0146  0.3651
 5580TIP3    H216747   3.278   4.564   3.900  0.4072 -2.8312  1.5721
 5581TIP3   OH216748   3.132   0.727   0.475 -0.5900  0.0801  0.1365
 5581TIP3    H116749   3.143   0.773   0.558  0.1416  1.2881 -0.5967
 5581TIP3    H216750   3.196   0.767   0.417 -1.7139 -0.0819 -1.2832
 5582TIP3   OH216751   4.447   1.468   1.639 -0.7179 -0.3482  0.0500
 5582TIP3    H116752   4.364   1.504   1.609 -0.4969  0.4155  0.3443
 5582TIP3    H216753   4.464   1.511   1.723 -0.8113 -1.6879  0.7806
 5583TIP3   OH216754   0.112   2.783   4.589  0.0300 -0.1727 -0.4936
 5583TIP3    H116755   0.035   2.841   4.592 -1.1152 -1.6542  0.3936
 5583TIP3    H216756   0.076   2.697   4.568  1.6979 -0.5730 -1.8483
 5584TIP3   OH216757   4.480   5.208   0.634 -0.1773  0.2659  0.1539
 5584TIP3    H116758   4.434   5.165   0.707  0.2468  0.4305  0.5198
 5584TIP3    H216759   4.430   5.288   0.618  1.5040  1.8871  2.3868
 5585TIP3   OH216760   5.336   3.160   2.950 -0.6784  0.7560 -0.6473
 5585TIP3    H116761   5.405   3.195   2.893  1.6135 -3.2791 -0.6992
 5585TIP3    H216762   5.327   3.225   3.020  0.8625  2.9038 -2.2959
 5586TIP3   OH216763   5.505   5.594   3.986  0.2940  0.3486  0.4950
 5586TIP3    H116764   5.456   5.512   3.982 -1.5346  1.3325  1.2973
 5586TIP3    H216765   5.594   5.568   4.010 -0.1587 -1.4120  0.3900
 5587TIP3   OH216766   2.404   0.160   1.059 -0.4374 -0.6065 -0.4033
 5587TIP3    H116767   2.459   0.210   1.000  0.7835  0.0816  1.2357
 5587TIP3    H216768   2.379   0.082   1.009  1.5295 -0.6439 -1.4235
 5588TIP3   OH216769   4.255   1.743   0.084 -0.2183 -0.4691 -0.2466
 5588TIP3    H116770   4.263   1.799   0.161  1.3740 -0.0401 -0.6941
 5588TIP3    H216771   4.245   1.803   0.011 -1.2343 -0.8656 -0.4532
 5589TIP3   OH216772   6.094   5.135   1.609  0.1604  0.1655 -0.5300
 5589TIP3    H116773   6.058   5.077   1.676 -0.4835  0.7724 -0.3297
 5589TIP3    H216774   6.167   5.179   1.653  1.9962 -1.9534 -1.3076
 5590TIP3   OH216775   3.830   2.289   1.515 -0.0113 -0.2203  0.3226
 5590TIP3    H116776   3.861   2.202   1.489  1.6002  0.6228 -0.7444
 5590TIP3    H216777   3.909   2.343   1.517 -0.6692  0.7914  2.9746
 5591TIP3   OH216778   1.035   0.455   4.199 -0.3078  0.1133  0.4116
 5591TIP3    H116779   1.023   0.369   4.238 -0.2867 -0.2275 -0.3227
 5591TIP3    H216780   1.012   0.517   4.269  1.7321 -0.4385  1.6461
 5592TIP3   OH216781   4.288   5.321   4.634 -0.2904 -0.7188 -0.2196
 5592TIP3    H116782   4.206   5.346   4.590  1.0631  1.5468 -1.6578
 5592TIP3    H216783   4.266   5.241   4.681 -2.8833 -1.1584 -1.9487
 5593TIP3   OH216784   2.617   0.368   3.197  0.6910  0.0376  0.4682
 5593TIP3    H116785   2.675   0.421   3.141 -0.5807  1.1787  0.1835
 5593TIP3    H216786   2.599   0.290   3.145 -1.5791  1.6799 -1.4423
 5594TIP3   OH216787   4.247   0.047   0.585 -0.0514 -0.1661 -0.0156
 5594TIP3    H116788   4.179  -0.014   0.612  1.4568 -1.5232  0.8722
 5594TIP3    H216789   4.329  -0.001   0.596  0.9908  0.8286 -2.6731
 5595TIP3   OH216790   1.227   3.095   2.974 -0.2215  0.1997  0.2015
 5595TIP3    H116791   1.179   3.072   2.894 -0.4921  1.7701 -0.1099
 5595TIP3    H216792   1.159   3.119   3.037  0.0962  1.3355  0.1183
 5596TIP3   OH216793   5.395   3.393   2.367 -0.3494 -0.4440  0.0304
 5596TIP3    H116794   5.320   3.453   2.363 -1.7950 -2.1339  0.5429
 5596TIP3    H216795   5.465   3.445   2.406 -1.0102  1.3915 -1.0805
 5597TIP3   OH216796   6.078   2.488   0.108 -0.4018 -0.2398  0.1992
 5597TIP3    H116797   6.139   2.529   0.170 -0.4245 -2.2030  1.6281
 5597TIP3    H216798   6.043   2.412   0.156 -1.1064 -1.3301 -1.9184
 5598TIP3   OH216799   2.831   1.790   1.073  0.2219 -0.0760  1.0111
 5598TIP3    H116800   2.812   1.760   1.162 -0.2895 -0.4456  0.7767
 5598TIP3    H216801   2.770   1.862   1.058 -0.2927 -0.5872  0.6386
 5599TIP3   OH216802   1.494   0.628   2.844 -0.2565  0.4393  0.4561
 5599TIP3    H116803   1.505   0.562   2.912  2.6723  1.8258  1.5002
 5599TIP3    H216804   1.521   0.584   2.764 -1.3778 -0.4902  0.5522
 5600TIP3   OH216805   0.053   4.733   0.079  0.1354  0.1224 -0.2459
 5600TIP3    H116806   0.081   4.746  -0.012 -0.4727  1.4038 -0.2653
 5600TIP3    H216807   0.001   4.811   0.100  0.0473 -0.2782  1.1216
 5601TIP3   OH216808   2.399   1.579   3.986  0.0078 -0.1246 -0.2114
 5601TIP3    H116809   2.466   1.624   4.038 -0.5337  0.3200  0.1096
 5601TIP3    H216810   2.321   1.581   4.041 -1.3698  2.6877 -2.0308
 5602TIP3   OH216811   2.541   1.841   3.283 -0.1268 -0.0318 -0.0564
 5602TIP3    H116812   2.464   1.814   3.333 -0.3584 -0.4563 -0.6329
 5602TIP3    H216813   2.515   1.921   3.238  0.3493  0.8179  1.1381
 5603TIP3   OH216814   1.653   0.636   1.826  0.4289 -0.1116  0.1350
 5603TIP3    H116815   1.685   0.689   1.899  0.1589  0.6073 -0.2613
 5603TIP3    H216816   1.670   0.689   1.748 -1.2505  0.0790 -0.1369
 5604TIP3   OH216817   1.486   2.030   5.139  0.5893  0.0433  0.3521
 5604TIP3    H116818   1.523   2.118   5.128  0.6103  0.0477  0.4529
 5604TIP3    H216819   1.515   2.003   5.227  0.7047 -0.1227  0.2648
 5605TIP3   OH216820   4.050   3.860   3.421 -0.4092 -0.5746  0.6446
 5605TIP3    H116821   4.064   3.858   3.516  2.7115 -2.5815  0.2613
 5605TIP3    H216822   4.090   3.780   3.388  1.1246  1.3396 -2.6770
 5606TIP3   OH216823   1.852   3.237   4.405  0.4551 -0.1002 -0.1424
 5606TIP3    H116824   1.824   3.146   4.413  3.1867 -1.1496 -1.4267
 5606TIP3    H216825   1.867   3.249   4.312  1.1779  1.3207  0.1366
 5607TIP3   OH216826   0.896   1.085   2.246 -0.4101 -0.0874 -0.4154
 5607TIP3    H116827   0.813   1.112   2.206  0.8044  1.6669 -1.8570
 5607TIP3    H216828   0.914   1.000   2.207  0.2735  1.1605 -3.0366
 5608TIP3   OH216829   3.288   5.639   1.647 -0.2233 -0.1918  0.1355
 5608TIP3    H116830   3.307   5.561   1.593  2.0467  0.4235 -0.0416
 5608TIP3    H216831   3.359   5.700   1.627  0.0193  0.5646  2.8989
 5609TIP3   OH216832   3.404   0.333   1.852  0.4352  0.1635 -0.4669
 5609TIP3    H116833   3.427   0.248   1.816 -0.6915 -0.0178 -0.7905
 5609TIP3    H216834   3.478   0.355   1.909  0.6216 -1.1447 -0.1671
 5610TIP3   OH216835   2.762   3.507   1.498  0.3636 -0.4941 -0.3258
 5610TIP3    H116836   2.728   3.547   1.418 -2.9770 -0.8566  0.7316
 5610TIP3    H216837   2.704   3.432   1.513 -0.1413  0.4202  3.1477
 5611TIP3   OH216838   5.894   3.704   1.260  0.0176 -0.6093 -0.4357
 5611TIP3    H116839   5.846   3.630   1.223  1.6093 -1.6061 -0.5945
 5611TIP3    H216840   5.962   3.664   1.314 -0.8082  0.7879  1.7718
 5612TIP3   OH216841   2.241   5.587   0.949 -0.0793  0.3588  0.1777
 5612TIP3    H116842   2.331   5.610   0.973 -0.1149  0.0519  0.5930
 5612TIP3    H216843   2.222   5.508   0.998  0.4658 -1.3298 -2.1353
 5613TIP3   OH216844   3.513   2.716   2.167 -0.2719  0.8247  1.1688
 5613TIP3    H116845   3.436   2.751   2.213  0.1015 -0.0329  2.4870
 5613TIP3    H216846   3.586   2.732   2.227  0.1535 -0.7597  1.1038
 5614TIP3   OH216847   2.163   4.926   1.557 -0.4623 -0.1000 -0.1999
 5614TIP3    H116848   2.222   4.878   1.616  0.5276  1.0922 -0.1678
 5614TIP3    H216849   2.209   4.926   1.473 -1.0534 -0.2930 -0.5290
 5615TIP3   OH216850   6.054   2.039   4.737  0.3737  0.3363 -0.4530
 5615TIP3    H116851   6.000   2.091   4.678  0.6826  0.2363 -0.8287
 5615TIP3    H216852   6.066   2.095   4.814  0.3258  0.6421 -0.6648
 5616TIP3   OH216853   0.307   2.009   2.702  0.2753  0.0633 -0.4529
 5616TIP3    H116854   0.236   1.947   2.722 -0.4887  1.1551  0.3777
 5616TIP3    H216855   0.277   2.055   2.623  0.5169 -0.1468 -0.6675
 5617TIP3   OH216856   0.670   5.624   5.042 -0.2791 -0.2874  0.1877
 5617TIP3    H116857   0.757   5.596   5.073  0.3329 -0.1459 -1.3247
 5617TIP3    H216858   0.615   5.547   5.054  0.4872 -0.9486 -0.4481
 5618TIP3   OH216859   1.696   4.013   2.746 -0.2722  0.0145 -0.0704
 5618TIP3    H116860   1.699   4.000   2.841  0.3784  0.2139 -0.0610
 5618TIP3    H216861   1.696   4.108   2.736 -0.0816 -0.0094 -0.2807
 5619TIP3   OH216862   2.321   1.748   1.857 -0.2747  0.6325  0.1892
 5619TIP3    H116863   2.384   1.818   1.837  0.3684  0.3638  1.2101
 5619TIP3    H216864   2.329   1.736   1.951  0.4941 -1.6467 -0.1198
 5620TIP3   OH216865   4.454   3.254   1.234 -0.1842 -0.1944 -0.0683
 5620TIP3    H116866   4.376   3.199   1.238 -0.0435 -0.3908 -0.0124
 5620TIP3    H216867   4.506   3.226   1.309  0.3813 -0.7338 -0.6423
 5621TIP3   OH216868   5.103   4.248   3.715 -0.3326  0.5428 -0.9435
 5621TIP3    H116869   5.192   4.256   3.681  0.3626 -0.7740  0.4337
 5621TIP3    H216870   5.078   4.157   3.696 -0.7598  0.4359  0.0469
 5622TIP3   OH216871   2.353   0.659   4.039 -0.3940  0.2284  0.1071
 5622TIP3    H116872   2.352   0.586   4.102  1.5125  2.5915  3.1389
 5622TIP3    H216873   2.445   0.669   4.015 -0.9019  0.3722 -1.9704
 5623TIP3   OH216874   2.233   0.362   2.193  0.8645 -1.4752  0.9200
 5623TIP3    H116875   2.139   0.344   2.198  0.5650 -0.3325  0.0021
 5623TIP3    H216876   2.248   0.428   2.260  0.5239  0.0254 -0.4043
 5624TIP3   OH216877   3.028   2.970   1.751  0.4452 -0.2027 -0.1980
 5624TIP3    H116878   3.120   2.976   1.779  0.7175 -0.4304 -1.0269
 5624TIP3    H216879   3.001   3.061   1.740 -0.1747  0.0083  2.3259
 5625TIP3   OH216880   1.534   5.745   1.762 -0.0621 -0.3079  0.1028
 5625TIP3    H116881   1.451   5.742   1.715  0.4269 -0.2173 -0.7939
 5625TIP3    H216882   1.566   5.834   1.750 -0.3864  0.0247  1.4688
 5626TIP3   OH216883   5.667   0.082   2.278 -0.0452 -0.2081 -0.1705
 5626TIP3    H116884   5.697  -0.008   2.290  1.6491  0.4140  0.5761
 5626TIP3    H216885   5.698   0.106   2.191  0.9198  0.1572  0.2637
 5627TIP3   OH216886   4.438   0.917   1.742 -0.1553 -0.1971  0.2724
 5627TIP3    H116887   4.486   0.999   1.743 -0.8231  0.2427 -1.3869
 5627TIP3    H216888   4.355   0.937   1.786 -0.7628  0.3218 -1.0856
 5628TIP3   OH216889   2.950   3.131   0.075  0.2359  0.6004 -0.5335
 5628TIP3    H116890   3.006   3.119   0.152  1.0202  0.4616 -1.1186
 5628TIP3    H216891   2.891   3.202   0.100  0.8384  0.9257  0.0006
 5629TIP3   OH216892   1.872   3.918   4.568 -0.0396 -0.1722 -0.6901
 5629TIP3    H116893   1.961   3.921   4.533 -0.1440  1.1754 -0.8938
 5629TIP3    H216894   1.824   3.981   4.515 -0.2101  1.9665  1.8191
 5630TIP3   OH216895   1.494   1.793   0.400 -0.4627 -1.1079 -0.3458
 5630TIP3    H116896   1.529   1.860   0.459  0.7217 -1.6732 -0.3673
 5630TIP3    H216897   1.447   1.842   0.333  0.4271 -0.2910 -0.3926
 5631TIP3   OH216898   1.526   1.764   4.534  0.4586  0.3298  0.4393
 5631TIP3    H116899   1.455   1.708   4.503  1.3583 -0.7236  0.2309
 5631TIP3    H216900   1.604   1.732   4.489  2.0042 -1.7593  4.1239
 5632TIP3   OH216901   1.011   0.957   4.687 -1.0358  0.0276  0.2459
 5632TIP3    H116902   0.952   1.015   4.734 -2.1994  0.1729 -1.3148
 5632TIP3    H216903   0.962   0.931   4.609  0.8162 -0.1611 -0.9111
 5633TIP3   OH216904   0.923   5.363   4.710 -0.0275  0.2358  0.7463
 5633TIP3    H116905   0.956   5.276   4.690 -0.1513  0.0619  1.2822
 5633TIP3    H216906   0.833   5.363   4.678  0.7461  1.0594 -1.6991
 5634TIP3   OH216907   1.593   3.805   3.490 -0.1653 -0.3055 -0.5057
 5634TIP3    H116908   1.581   3.894   3.523 -1.5813  0.3363 -2.5562
 5634TIP3    H216909   1.507   3.764   3.500  0.2794 -1.1980 -0.2807
 5635TIP3   OH216910   1.827   3.237   4.928  0.0453 -0.0169  0.0420
 5635TIP3    H116911   1.913   3.275   4.907  0.3156 -0.1861  0.8108
 5635TIP3    H216912   1.764   3.302   4.896  0.4949  1.1145  1.3336
 5636TIP3   OH216913   4.535   5.564   0.325  0.0733 -0.6373  0.2389
 5636TIP3    H116914   4.548   5.588   0.234 -0.8555 -2.3100 -0.3758
 5636TIP3    H216915   4.467   5.623   0.357 -0.3926 -0.7761 -0.4918
 5637TIP3   OH216916   2.135   0.816   1.692 -0.0050 -0.1973  0.5918
 5637TIP3    H116917   2.088   0.736   1.669  1.6258 -0.8388 -0.7598
 5637TIP3    H216918   2.099   0.842   1.777 -3.8918  0.2894 -1.0123
 5638TIP3   OH216919   3.848   0.159   1.286  0.2534  0.1184  0.5578
 5638TIP3    H116920   3.868   0.251   1.268 -0.8248 -0.2152 -3.3947
 5638TIP3    H216921   3.752   0.154   1.284  0.3057 -1.1555 -0.1250
 5639TIP3   OH216922   2.573   1.956   4.906  0.3691  0.0151  0.2168
 5639TIP3    H116923   2.545   1.868   4.930  2.1155 -0.6536 -0.0198
 5639TIP3    H216924   2.562   2.008   4.985 -2.9634  0.2506 -0.2715
 5640TIP3   OH216925   0.749   3.340   4.363  0.1597  0.6471  0.1964
 5640TIP3    H116926   0.761   3.245   4.358  1.5327  0.6525  2.2803
 5640TIP3    H216927   0.807   3.375   4.295  0.1340  0.0333 -0.1511
 5641TIP3   OH216928   2.053   1.059   0.322  0.2648 -0.2238  0.1605
 5641TIP3    H116929   2.043   1.082   0.414  0.0601  1.3235 -0.2171
 5641TIP3    H216930   1.968   1.023   0.296  0.8080 -2.1621  0.9447
 5642TIP3   OH216931   0.786   5.941   3.557  0.2207 -0.0900 -0.6192
 5642TIP3    H116932   0.806   6.025   3.598 -0.7000 -0.8104  1.4100
 5642TIP3    H216933   0.713   5.960   3.498 -1.8431  0.1249  1.8396
 5643TIP3   OH216934   2.861   4.194   4.228  0.1465 -0.8008 -0.2930
 5643TIP3    H116935   2.807   4.123   4.262 -0.0186 -1.1181 -1.2033
 5643TIP3    H216936   2.869   4.255   4.302  0.0142 -1.5949  0.3914
 5644TIP3   OH216937   3.181   5.207   3.868 -0.2025 -0.3018 -0.2625
 5644TIP3    H116938   3.237   5.132   3.888  1.3435  0.5844 -1.1273
 5644TIP3    H216939   3.140   5.230   3.952 -0.6207 -2.0027  0.0447
 5645TIP3   OH216940   0.208   5.476   3.508  0.0862 -0.4523  0.0495
 5645TIP3    H116941   0.266   5.542   3.471 -0.0949 -0.0840  0.4213
 5645TIP3    H216942   0.232   5.470   3.600 -0.6500 -0.0961  0.2712
 5646TIP3   OH216943   0.279   3.778   4.087 -0.2229 -0.4658  0.0642
 5646TIP3    H116944   0.218   3.851   4.100  0.7645  0.1209  1.8239
 5646TIP3    H216945   0.256   3.716   4.157 -0.4244 -1.4161 -0.8255
 5647TIP3   OH216946   3.046   3.125   4.514  0.2090  0.6754  0.3608
 5647TIP3    H116947   3.113   3.148   4.577 -0.9466  1.7647  1.2326
 5647TIP3    H216948   2.976   3.085   4.566  0.2262 -0.6122 -0.5480
 5648TIP3   OH216949   0.388   2.020   5.134 -0.1759  0.0338 -0.2411
 5648TIP3    H116950   0.383   1.930   5.101 -0.8179 -0.5467  1.3423
 5648TIP3    H216951   0.296   2.045   5.149  0.0439  0.6360  0.1359
 5649TIP3   OH216952   5.763   2.856   2.230 -0.1196 -0.4004 -0.2438
 5649TIP3    H116953   5.712   2.888   2.155  0.1451 -0.4351 -0.4402
 5649TIP3    H216954   5.708   2.789   2.270 -0.7322  0.3810  0.2431
 5650TIP3   OH216955   3.975   2.074   2.910  0.1306  0.4974  0.1116
 5650TIP3    H116956   3.953   2.012   2.980 -0.3025 -1.4311 -1.6562
 5650TIP3    H216957   3.914   2.147   2.924 -0.7145 -0.3577  1.0859
 5651TIP3   OH216958   0.414   4.572   3.112  0.2498 -0.0810 -0.1296
 5651TIP3    H116959   0.441   4.485   3.141  2.4062  0.7674  0.5396
 5651TIP3    H216960   0.319   4.565   3.102  0.1847 -2.0808  1.3488
 5652TIP3   OH216961   1.451   5.635   5.177 -0.3771 -0.2016 -0.6155
 5652TIP3    H116962   1.493   5.573   5.237 -0.9803 -0.4265 -0.4189
 5652TIP3    H216963   1.419   5.581   5.105  1.9471  0.2582 -2.1193
 5653TIP3   OH216964   5.641   1.562   2.089 -0.2051 -0.0841 -0.9739
 5653TIP3    H116965   5.723   1.605   2.062 -0.3487  1.8938  1.3848
 5653TIP3    H216966   5.581   1.634   2.107 -1.3462 -1.3711  0.6641
 5654TIP3   OH216967   4.647   2.621   1.301 -0.1280 -0.1338 -0.3144
 5654TIP3    H116968   4.717   2.673   1.262  0.9702 -1.9910 -0.9796
 5654TIP3    H216969   4.677   2.603   1.390 -0.1058 -0.3011 -0.3544
 5655TIP3   OH216970   1.499   0.476   2.586  0.5641  0.2038  0.1844
 5655TIP3    H116971   1.498   0.542   2.518  0.7899 -1.2056 -1.2560
 5655TIP3    H216972   1.521   0.395   2.540  1.9036 -0.6002  2.1248
 5656TIP3   OH216973   0.432   3.570   4.649  0.1637  0.2153  0.0857
 5656TIP3    H116974   0.406   3.478   4.645 -0.1998  0.3505 -0.7622
 5656TIP3    H216975   0.496   3.581   4.579  1.0381  0.3656  0.8761
 5657TIP3   OH216976   5.857   3.430   3.230  0.0929  0.0649 -0.5798
 5657TIP3    H116977   5.877   3.391   3.315 -0.0594 -0.9684 -1.0127
 5657TIP3    H216978   5.762   3.439   3.229 -0.0082 -0.9770 -1.0853
 5658TIP3   OH216979   2.396   1.953   4.070  0.4606  0.7648  0.0991
 5658TIP3    H116980   2.359   1.926   3.986 -0.4172 -0.2404  0.7746
 5658TIP3    H216981   2.342   1.908   4.135  2.1312  0.2241  1.1680
 5659TIP3   OH216982   0.997   2.706   1.091  0.3906 -0.1989 -0.4667
 5659TIP3    H116983   1.020   2.793   1.122 -1.2382  0.0299  0.1987
 5659TIP3    H216984   0.941   2.722   1.015 -1.2904 -0.5779  0.6367
 5660TIP3   OH216985   4.176   0.066   3.718 -0.1883 -0.3283 -0.1658
 5660TIP3    H116986   4.151  -0.026   3.715 -0.4381 -0.2616 -0.1550
 5660TIP3    H216987   4.183   0.086   3.811 -0.3167 -0.2884 -0.1644
 5661TIP3   OH216988   4.162   1.495   0.886  0.0851 -0.5928 -0.0981
 5661TIP3    H116989   4.194   1.585   0.898 -2.9714  0.5135  0.5216
 5661TIP3    H216990   4.235   1.450   0.843  2.3614  1.7109  1.0711
 5662TIP3   OH216991   5.259   2.932   1.760 -0.1110  0.1115  0.3078
 5662TIP3    H116992   5.275   2.988   1.836 -0.7335  2.1497 -0.9753
 5662TIP3    H216993   5.173   2.959   1.728 -0.1275 -1.1291 -0.7725
 5663TIP3   OH216994   3.708   5.607   0.084 -0.1378 -0.4305  0.0133
 5663TIP3    H116995   3.783   5.574   0.134 -0.4950 -1.7225 -0.2783
 5663TIP3    H216996   3.691   5.694   0.121  1.6822  0.0336 -0.1128
 5664TIP3   OH216997   1.242   0.616   1.898  0.2425  0.7439  0.0690
 5664TIP3    H116998   1.188   0.537   1.891 -1.1926  1.6464  0.5605
 5664TIP3    H216999   1.223   0.664   1.818 -0.3265  1.4427  0.6131
 5665TIP3   OH217000   0.263   1.182   1.119  0.1374  0.0425 -0.2206
 5665TIP3    H117001   0.342   1.236   1.125  1.8078 -2.2898 -0.1247
 5665TIP3    H217002   0.239   1.163   1.210  0.4258 -0.5657 -0.2681
 5666TIP3   OH217003   2.868   1.145   0.070 -0.0254  0.2223  0.3996
 5666TIP3    H117004   2.903   1.196   0.143  2.3154  0.0220 -0.5178
 5666TIP3    H217005   2.880   1.201  -0.007 -0.5312 -0.4018 -0.1544
 5667TIP3   OH217006   1.158   4.118   4.492 -0.0029  0.1168  0.1828
 5667TIP3    H117007   1.235   4.062   4.487  0.4360  0.7102  0.3082
 5667TIP3    H217008   1.153   4.144   4.584 -2.0507 -2.2846  0.8694
 5668TIP3   OH217009   0.119   4.974   2.938  0.0813 -0.2024 -0.3002
 5668TIP3    H117010   0.190   4.939   2.992  0.8514  1.0294 -0.4612
 5668TIP3    H217011   0.041   4.965   2.991  0.5847 -0.3499  0.4308
 5669TIP3   OH217012   6.000   5.434   0.479  0.4872 -0.0749 -0.4634
 5669TIP3    H117013   6.013   5.511   0.535  1.8848 -0.9878  0.5494
 5669TIP3    H217014   6.086   5.418   0.440  0.1478 -0.9615 -0.8688
 5670TIP3   OH217015   2.188   1.162   3.821  0.0992 -0.1747  0.0254
 5670TIP3    H117016   2.178   1.217   3.898  1.6675 -0.2257  0.2983
 5670TIP3    H217017   2.149   1.078   3.846  0.9077 -0.3019  0.9025
 5671TIP3   OH217018   4.405   4.874   2.223  0.0982 -0.2442  0.0284
 5671TIP3    H117019   4.352   4.922   2.159  0.0969  0.5617  0.6242
 5671TIP3    H217020   4.370   4.785   2.220 -0.6660  0.0549 -0.2782
 5672TIP3   OH217021   2.449   5.595   1.445  0.2895  0.4937  0.2484
 5672TIP3    H117022   2.418   5.514   1.405 -0.2179  0.8037  0.0021
 5672TIP3    H217023   2.382   5.660   1.422  0.4446  0.8726  0.8541
 5673TIP3   OH217024   4.631   3.199   3.214  0.1450 -0.9690  0.3348
 5673TIP3    H117025   4.662   3.249   3.139  0.3581 -1.5623  0.0269
 5673TIP3    H217026   4.708   3.191   3.271 -0.2165  0.2036  1.0341
 5674TIP3   OH217027   1.387   5.105   0.551 -0.1698  0.1469  0.4224
 5674TIP3    H117028   1.388   5.032   0.489  0.6102  0.0000  0.5943
 5674TIP3    H217029   1.360   5.066   0.634  0.9454 -0.1119  0.6866
 5675TIP3   OH217030   2.142   3.974   1.529  0.5337 -0.0361  0.0926
 5675TIP3    H117031   2.084   4.048   1.546 -1.0489 -1.0619 -0.6466
 5675TIP3    H217032   2.174   3.948   1.615 -0.8839 -0.0575  0.6375
 5676TIP3   OH217033   4.733   3.086   4.982  0.5734  0.3977 -0.4674
 5676TIP3    H117034   4.812   3.048   4.944  0.2138  1.1839 -2.0937
 5676TIP3    H217035   4.752   3.179   4.990 -0.1178  0.5620 -0.6841
 5677TIP3   OH217036   0.787   3.668   4.815 -0.3304  0.0484 -0.5392
 5677TIP3    H117037   0.855   3.658   4.881 -1.0534  0.3759  0.2699
 5677TIP3    H217038   0.779   3.581   4.775 -0.7518 -0.4726  0.6536
 5678TIP3   OH217039   0.837   1.416   4.111 -0.1884  0.9965  0.1413
 5678TIP3    H117040   0.876   1.330   4.098 -1.1645  0.3064  1.5065
 5678TIP3    H217041   0.874   1.447   4.193 -1.2199  1.0590  0.5965
 5679TIP3   OH217042   5.211   2.727   0.568  0.1888 -0.5013 -0.1345
 5679TIP3    H117043   5.117   2.733   0.549 -0.1806  0.3543  1.7074
 5679TIP3    H217044   5.227   2.634   0.579 -1.1648 -0.5277  2.4935
 5680TIP3   OH217045   4.193   4.523   5.110 -0.2397 -0.5769  0.0226
 5680TIP3    H117046   4.263   4.543   5.172 -0.2498  0.3458 -0.2512
 5680TIP3    H217047   4.231   4.539   5.024 -0.5671 -0.7529 -0.1584
 5681TIP3   OH217048   2.214   1.064   1.504  0.4045 -0.0290 -0.0178
 5681TIP3    H117049   2.137   1.080   1.450 -0.5488 -0.8145  1.0561
 5681TIP3    H217050   2.249   1.151   1.524  0.3571  0.2922 -1.2793
 5682TIP3   OH217051   4.580   0.533   4.591 -0.0698 -0.0202  0.6212
 5682TIP3    H117052   4.642   0.606   4.583  2.8658 -2.2824  1.0260
 5682TIP3    H217053   4.496   0.575   4.610  0.7887  3.3788 -2.0190
 5683TIP3   OH217054   0.985   4.243   1.396  0.2562  0.4882  0.0917
 5683TIP3    H117055   1.004   4.284   1.311 -2.1727  0.8851 -0.3409
 5683TIP3    H217056   0.984   4.149   1.377 -0.0972  0.5657 -0.3083
 5684TIP3   OH217057   3.673   0.336   4.354 -0.5579  0.6639 -0.0984
 5684TIP3    H117058   3.593   0.309   4.400 -1.3957  1.4860 -0.9944
 5684TIP3    H217059   3.706   0.256   4.314 -2.8484  0.7622 -2.5220
 5685TIP3   OH217060   2.295   2.327   4.520  0.1356 -0.4649  0.0650
 5685TIP3    H117061   2.269   2.234   4.520 -0.3447 -0.3408 -0.8389
 5685TIP3    H217062   2.215   2.374   4.497  0.4770  0.1412  0.1084
 5686TIP3   OH217063   6.347   4.765   3.733 -0.2929 -0.0165 -0.1393
 5686TIP3    H117064   6.285   4.837   3.732 -0.8740 -0.4824 -1.9649
 5686TIP3    H217065   6.393   4.772   3.649  1.1249 -0.5343  0.5593
 5687TIP3   OH217066   4.447   2.900   2.653 -0.1894  0.5953  0.1150
 5687TIP3    H117067   4.453   2.825   2.712 -0.1500  0.6061  0.1249
 5687TIP3    H217068   4.358   2.931   2.662 -0.8388 -0.6948 -1.3877
 5688TIP3   OH217069   4.833   4.754   1.779  0.5227 -0.6268 -0.3056
 5688TIP3    H117070   4.850   4.838   1.736  0.6305 -0.0082  0.9188
 5688TIP3    H217071   4.765   4.714   1.725 -1.2406  1.2806  0.3748
 5689TIP3   OH217072   3.630   2.841   2.381 -0.2073  0.2188 -0.3687
 5689TIP3    H117073   3.610   2.891   2.461 -0.7471  1.1185 -1.0430
 5689TIP3    H217074   3.606   2.900   2.310  0.1066 -0.6386 -1.2024
 5690TIP3   OH217075   0.136   4.266   0.324 -0.0784  0.5357 -0.0426
 5690TIP3    H117076   0.164   4.187   0.370 -1.8212 -0.9279 -1.3560
 5690TIP3    H217077   0.206   4.281   0.260  1.1266  1.1434  1.3504
 5691TIP3   OH217078   3.679   4.569   0.217  0.0822  0.7496  0.1882
 5691TIP3    H117079   3.604   4.625   0.196  0.6170  1.1696 -0.6467
 5691TIP3    H217080   3.732   4.568   0.137 -0.2212 -1.4584 -0.0610
 5692TIP3   OH217081   0.235   4.347   3.743  0.0583  0.2552 -0.0232
 5692TIP3    H117082   0.220   4.278   3.807  0.3822 -0.5773 -0.8254
 5692TIP3    H217083   0.330   4.357   3.739  0.0491  0.1896 -0.4875
 5693TIP3   OH217084   1.649   2.130   4.443 -0.1633  0.2200 -0.0846
 5693TIP3    H117085   1.670   2.181   4.521 -1.5080  0.5043  0.1274
 5693TIP3    H217086   1.712   2.158   4.377  0.9500  0.0181  0.8809
 5694TIP3   OH217087   1.805   4.965   0.775  0.2858  0.2436 -0.0340
 5694TIP3    H117088   1.793   4.876   0.744  0.7535  0.4519 -0.8492
 5694TIP3    H217089   1.899   4.980   0.768  0.4743  0.2109  1.7880
 5695TIP3   OH217090   1.246   3.199   2.144 -0.8278 -0.2372  0.0463
 5695TIP3    H117091   1.238   3.152   2.227  2.3413 -1.7924 -0.4009
 5695TIP3    H217092   1.281   3.285   2.169  0.1486 -0.7094  0.3434
 5696TIP3   OH217093   2.148   4.551   3.096 -0.2793  0.0069  0.7082
 5696TIP3    H117094   2.201   4.527   3.172  1.0459  1.0343  0.1656
 5696TIP3    H217095   2.059   4.526   3.119  0.1205  0.1546  2.5283
 5697TIP3   OH217096   2.035   4.101   5.052 -0.3916 -0.0004  0.4743
 5697TIP3    H117097   1.992   4.133   4.972  0.0876  0.1466  0.2767
 5697TIP3    H217098   1.997   4.154   5.122 -0.4500  0.2044  0.2875
 5698TIP3   OH217099   3.937   5.721   4.930 -1.0048  0.1204 -0.2414
 5698TIP3    H117100   3.956   5.627   4.940 -0.6711  0.1160 -0.8715
 5698TIP3    H217101   3.841   5.724   4.920 -1.1355 -0.0470  0.8565
 5699TIP3   OH217102   6.094   4.942   2.783  0.1076  0.7284 -0.0316
 5699TIP3    H117103   6.123   5.025   2.743 -1.8182  1.7411  0.5304
 5699TIP3    H217104   6.139   4.874   2.733 -0.6006  2.0065 -2.5738
 5700TIP3   OH217105   5.772   3.281   1.751 -0.1844  0.3053  0.3174
 5700TIP3    H117106   5.839   3.230   1.797 -0.1640 -1.0087 -1.0744
 5700TIP3    H217107   5.707   3.301   1.819  1.3518  1.2176  1.5991
 5701TIP3   OH217108   1.686   0.370   2.770  0.6572 -0.2677  0.1685
 5701TIP3    H117109   1.771   0.333   2.746  0.7766 -0.7154  1.2318
 5701TIP3    H217110   1.633   0.361   2.691  0.7737 -2.4359  0.2888
 5702TIP3   OH217111   6.357   4.278   5.002 -0.6237 -0.2095  0.0551
 5702TIP3    H117112   6.379   4.303   4.913 -2.7791 -1.3862 -0.8847
 5702TIP3    H217113   6.319   4.358   5.040 -0.9592 -0.0841 -0.5401
 5703TIP3   OH217114   1.824   2.327   4.554 -0.1548 -0.0652  0.4048
 5703TIP3    H117115   1.893   2.261   4.558  0.3246  0.2864 -1.2789
 5703TIP3    H217116   1.767   2.306   4.628  2.0596  0.0346  2.2467
 5704TIP3   OH217117   1.713   5.047   4.900 -0.3677 -0.1415  0.5116
 5704TIP3    H117118   1.792   5.003   4.869 -1.3948 -1.0768 -0.8979
 5704TIP3    H217119   1.740   5.091   4.980  1.0465 -2.2968  1.3054
 5705TIP3   OH217120   0.851   4.130   4.471 -0.2843  0.0733  0.3494
 5705TIP3    H117121   0.881   4.060   4.529  0.7666  0.4307  0.2623
 5705TIP3    H217122   0.931   4.159   4.426 -1.0258 -0.0634 -1.1297
 5706TIP3   OH217123   0.402   3.458   1.950 -0.2183  0.3939 -0.4780
 5706TIP3    H117124   0.315   3.462   1.990 -0.5219 -0.3790 -1.0202
 5706TIP3    H217125   0.394   3.512   1.872  0.3059  1.7161  0.3627
 5707TIP3   OH217126   1.530   3.228   4.624 -0.1427  0.1181  0.5209
 5707TIP3    H117127   1.580   3.304   4.653  0.0776 -0.0918  0.6886
 5707TIP3    H217128   1.443   3.241   4.663  0.0739 -0.0254  1.0570
 5708TIP3   OH217129   5.850   2.799   1.841 -0.4559 -0.1004 -0.5477
 5708TIP3    H117130   5.844   2.815   1.747 -0.3081  4.0450 -0.0415
 5708TIP3    H217131   5.759   2.792   1.870 -0.6549  1.4067 -0.7151
 5709TIP3   OH217132   0.504   0.453   4.057 -0.4805  0.0576  0.2217
 5709TIP3    H117133   0.425   0.486   4.014 -0.0632  0.2866 -0.3762
 5709TIP3    H217134   0.534   0.382   4.001  0.4231  0.7729 -0.2140
 5710TIP3   OH217135   4.910   3.671   4.000 -0.4735 -0.2940  0.1058
 5710TIP3    H117136   4.912   3.728   4.076 -0.4346  0.0179 -0.1300
 5710TIP3    H217137   4.895   3.583   4.036  1.1356 -0.3874  0.6060
 5711TIP3   OH217138   1.153   3.517   1.131  0.6151  0.1182  0.3025
 5711TIP3    H117139   1.221   3.452   1.148  1.9008  1.1731 -0.6737
 5711TIP3    H217140   1.079   3.465   1.098  1.1271 -0.9851  0.8368
 5712TIP3   OH217141   4.049   0.653   3.196 -0.0875  0.7460  0.2115
 5712TIP3    H117142   4.083   0.563   3.196  1.2636  1.2351  0.3424
 5712TIP3    H217143   4.110   0.701   3.140 -1.5773  1.3183 -0.9897
 5713TIP3   OH217144   5.278   4.860   2.336  0.1011  0.4659 -0.2604
 5713TIP3    H117145   5.224   4.854   2.415  1.2311 -0.3565  0.4753
 5713TIP3    H217146   5.233   4.805   2.271 -2.0647  2.9051 -0.9977
 5714TIP3   OH217147   5.825   5.813   2.033  0.3863  0.7592 -0.3191
 5714TIP3    H117148   5.827   5.904   2.063 -0.2456  0.0595  1.9766
 5714TIP3    H217149   5.912   5.779   2.053  0.3791  0.6284 -0.5025
 5715TIP3   OH217150   3.325   1.712   3.148 -0.4874 -0.1720  0.2489
 5715TIP3    H117151   3.260   1.771   3.111  0.2734  1.4113  1.3413
 5715TIP3    H217152   3.390   1.702   3.078  1.3033  3.3650  1.1438
 5716TIP3   OH217153   3.423   0.318   3.131  0.6030 -0.2525 -0.0893
 5716TIP3    H117154   3.371   0.395   3.155  0.3127 -0.5366  0.2042
 5716TIP3    H217155   3.417   0.260   3.208 -2.2100 -2.1946 -1.5937
 5717TIP3   OH217156   0.132   2.376   3.405 -0.2546 -0.2419  0.3907
 5717TIP3    H117157   0.190   2.308   3.371 -0.9015 -0.4173 -0.3939
 5717TIP3    H217158   0.156   2.384   3.497 -0.5783 -1.9741  0.6592
 5718TIP3   OH217159   2.802   3.458   4.712 -0.0068 -0.2083  0.3237
 5718TIP3    H117160   2.839   3.486   4.628 -0.8160  2.0650  0.6340
 5718TIP3    H217161   2.708   3.446   4.694 -0.0682 -0.3914  0.7514
 5719TIP3   OH217162   3.229   2.393   1.228 -0.1864  0.3357  0.0502
 5719TIP3    H117163   3.247   2.359   1.140  0.9588 -0.0057  0.4026
 5719TIP3    H217164   3.134   2.404   1.230 -0.1160  1.9111 -1.7977
 5720TIP3   OH217165   3.561   0.563   0.068 -0.2028  0.0799  0.1957
 5720TIP3    H117166   3.599   0.562  -0.020  0.4053  0.7802  0.4359
 5720TIP3    H217167   3.637   0.576   0.126 -0.8192  1.7043  0.6854
 5721TIP3   OH217168   1.266   0.874   4.689  0.6786  0.0191 -0.0675
 5721TIP3    H117169   1.278   0.828   4.771  3.5088  1.1060  0.2487
 5721TIP3    H217170   1.176   0.907   4.692 -0.2028 -2.3440  1.2559
 5722TIP3   OH217171   3.278   2.761   4.592  0.3129  0.0800 -0.6639
 5722TIP3    H117172   3.350   2.822   4.607  0.9044 -0.9403  0.9432
 5722TIP3    H217173   3.283   2.740   4.499  1.8853  0.2726 -0.6494
 5723TIP3   OH217174   3.342   1.781   1.879  0.6204 -0.4740 -0.3608
 5723TIP3    H117175   3.356   1.802   1.787  0.3537 -2.5509 -0.9330
 5723TIP3    H217176   3.348   1.686   1.883 -2.4182 -0.7209  1.2034
 5724TIP3   OH217177   3.204   2.479   4.532  0.1512 -0.1397  0.2286
 5724TIP3    H117178   3.285   2.433   4.509 -0.8574 -1.4619 -0.7956
 5724TIP3    H217179   3.219   2.511   4.620  1.6431 -0.7193  0.2115
 5725TIP3   OH217180   1.686   1.554   3.813 -0.4412  0.2444  0.5101
 5725TIP3    H117181   1.671   1.459   3.806 -0.0619  0.2049  0.2119
 5725TIP3    H217182   1.598   1.592   3.807 -0.5247 -0.0415 -0.2319
 5726TIP3   OH217183   4.155   1.489   3.034 -0.1390 -0.2666  0.2595
 5726TIP3    H117184   4.189   1.400   3.039  0.7120 -0.2655 -3.0807
 5726TIP3    H217185   4.217   1.542   3.085  2.1873 -0.9781 -1.6885
 5727TIP3   OH217186   2.795   2.184   2.252 -0.3401 -0.2266 -0.7534
 5727TIP3    H117187   2.849   2.137   2.189  0.1626 -0.6082 -0.0452
 5727TIP3    H217188   2.857   2.231   2.307 -0.7505 -0.2926 -0.2272
 5728TIP3   OH217189   5.093   1.718   2.878  0.3528  0.6436  0.3246
 5728TIP3    H117190   5.099   1.637   2.827 -2.9046  0.2636  0.3199
 5728TIP3    H217191   5.093   1.689   2.969 -0.0880  0.6763  0.3398
 5729TIP3   OH217192   4.758   0.804   3.272  0.0691 -0.0502  0.4633
 5729TIP3    H117193   4.763   0.820   3.178  0.1991  0.1641  0.5053
 5729TIP3    H217194   4.819   0.868   3.310 -1.1872  0.9729  0.8200
 5730TIP3   OH217195   0.351   0.364   1.289  0.9071  0.5841  0.2437
 5730TIP3    H117196   0.438   0.390   1.318  0.0503  1.0325  2.6471
 5730TIP3    H217197   0.347   0.269   1.305  1.8279 -0.0062 -2.4903
 5731TIP3   OH217198   4.137   4.923   0.976 -0.1202 -0.3684  0.1496
 5731TIP3    H117199   4.083   4.960   1.046  2.8777  3.3361  0.8328
 5731TIP3    H217200   4.219   4.899   1.020  2.1362  2.7372 -1.9714
 5732TIP3   OH217201   5.860   3.334   4.010 -0.1760 -0.0894  0.5580
 5732TIP3    H117202   5.944   3.296   4.032  0.1714 -0.0306 -0.5897
 5732TIP3    H217203   5.846   3.402   4.075 -0.1339 -1.1922  1.7604
 5733TIP3   OH217204   1.829   4.642   2.504 -0.1143  0.3135  0.3778
 5733TIP3    H117205   1.792   4.702   2.440 -0.6254  0.9659  1.2708
 5733TIP3    H217206   1.827   4.557   2.460 -0.9596  0.6559 -0.2732
 5734TIP3   OH217207   4.601   4.026   4.662 -0.5050  0.3400 -0.5542
 5734TIP3    H117208   4.690   4.054   4.685 -1.5029  0.4822  4.1292
 5734TIP3    H217209   4.614   3.950   4.606  2.4955  1.1493 -1.1537
 5735TIP3   OH217210   0.790   0.681   0.754 -0.5254  0.2120 -0.3258
 5735TIP3    H117211   0.867   0.625   0.743  0.4742  1.5211 -0.2435
 5735TIP3    H217212   0.784   0.694   0.849 -0.1006  1.0938 -0.4103
 5736TIP3   OH217213   1.218   3.185   0.951  0.3490  0.3542  0.1323
 5736TIP3    H117214   1.217   3.222   1.039  1.1703 -0.2976  0.4352
 5736TIP3    H217215   1.311   3.178   0.929  0.1439  1.8440 -1.3854
 5737TIP3   OH217216   3.136   0.608   4.460  0.2649  0.1584  0.6399
 5737TIP3    H117217   3.205   0.633   4.399 -0.0606  0.0942  0.2382
 5737TIP3    H217218   3.107   0.522   4.429 -0.0274  0.2053  0.7765
 5738TIP3   OH217219   0.860   1.621   3.471 -0.2309 -0.0945  0.2554
 5738TIP3    H117220   0.941   1.658   3.509  0.1510 -0.7469  0.0854
 5738TIP3    H217221   0.806   1.698   3.453  1.0549  0.5306 -1.2534
 5739TIP3   OH217222   5.901   4.885   1.209  0.6331  0.5987 -0.0028
 5739TIP3    H117223   5.859   4.951   1.265  0.5834  1.3267 -0.8823
 5739TIP3    H217224   5.945   4.827   1.271 -1.2582  0.0702  0.9360
 5740TIP3   OH217225   0.626   2.564   4.833  0.3135  0.3394  0.6744
 5740TIP3    H117226   0.688   2.576   4.762  0.7452  0.6128  1.0872
 5740TIP3    H217227   0.615   2.652   4.871 -0.1947  0.2645  0.7137
 5741TIP3   OH217228   4.927   0.500   2.931 -0.5996 -0.0964  0.2106
 5741TIP3    H117229   4.919   0.489   3.026 -0.9093  0.2705  0.2302
 5741TIP3    H217230   4.842   0.534   2.904 -0.7686 -0.8971 -0.3046
 5742TIP3   OH217231   2.503   5.528   3.355 -0.2213  0.1814 -0.0096
 5742TIP3    H117232   2.410   5.530   3.330 -0.1447  2.4986 -0.3454
 5742TIP3    H217233   2.534   5.444   3.323 -2.2505 -0.7674  0.3355
 5743TIP3   OH217234   3.571   0.590   1.081 -0.2360 -0.8617  0.0886
 5743TIP3    H117235   3.663   0.606   1.061 -0.2536 -1.5611 -0.5822
 5743TIP3    H217236   3.540   0.673   1.118  0.4694 -0.3751 -0.3835
 5744TIP3   OH217237   1.283   1.975   2.728  0.0505  0.0000  0.4323
 5744TIP3    H117238   1.299   2.044   2.664 -0.6623  0.0570  0.3167
 5744TIP3    H217239   1.262   2.021   2.809  0.2191 -0.0815  0.5250
 5745TIP3   OH217240   3.980   2.711   5.175  0.6490 -0.0047 -0.6565
 5745TIP3    H117241   3.890   2.681   5.164  1.1010 -2.7342  1.7523
 5745TIP3    H217242   3.974   2.807   5.171 -2.8432  0.0976  1.8620
 5746TIP3   OH217243   0.697   2.040   1.822 -0.3597 -0.5782  0.2969
 5746TIP3    H117244   0.698   1.944   1.820 -0.6704 -0.6087  1.0790
 5746TIP3    H217245   0.664   2.065   1.736  0.0671 -1.1613 -0.0434
 5747TIP3   OH217246   2.751   4.770   1.531 -0.1776 -0.0742  0.2215
 5747TIP3    H117247   2.694   4.726   1.469  3.1827  0.2500 -3.5180
 5747TIP3    H217248   2.743   4.720   1.612 -1.8473 -3.1151 -1.6522
 5748TIP3   OH217249   1.983   0.677   1.376 -0.1423  0.0934  0.3459
 5748TIP3    H117250   1.996   0.653   1.468 -0.3924 -2.8907 -0.2782
 5748TIP3    H217251   2.058   0.638   1.330 -0.3589  0.9708 -0.7923
 5749TIP3   OH217252   0.843   0.073   1.097  0.0139  0.6691 -0.0109
 5749TIP3    H117253   0.770   0.051   1.155  0.2694  1.1832  0.5130
 5749TIP3    H217254   0.830   0.166   1.077 -0.9622  0.1637 -2.0581
 5750TIP3   OH217255   1.869   2.513   3.642  0.7470  0.0246 -0.2984
 5750TIP3    H117256   1.775   2.510   3.658  0.6364 -2.2070 -0.9606
 5750TIP3    H217257   1.882   2.589   3.585 -0.7334  0.0318 -0.6553
 5751TIP3   OH217258   5.421   2.335   2.292  0.3124  0.1863 -0.3046
 5751TIP3    H117259   5.367   2.275   2.240 -0.1709  0.1236  0.2513
 5751TIP3    H217260   5.402   2.311   2.383 -0.4227  1.6337 -0.0485
 5752TIP3   OH217261   0.870   1.291   0.921 -0.3595  0.4076  0.4956
 5752TIP3    H117262   0.848   1.205   0.884 -1.3259  0.6005  0.5745
 5752TIP3    H217263   0.936   1.273   0.987  2.0224  0.1372 -1.8127
 5753TIP3   OH217264   3.657   1.210   1.797  0.4997 -0.2296  0.6902
 5753TIP3    H117265   3.567   1.182   1.777 -0.3365  0.9949  2.3867
 5753TIP3    H217266   3.654   1.233   1.890  3.1186 -2.0388  1.3251
 5754TIP3   OH217267   2.057   5.115   0.589  0.1204  0.3743 -0.2104
 5754TIP3    H117268   2.000   5.118   0.513 -1.2396 -0.7682  0.7107
 5754TIP3    H217269   2.107   5.034   0.579 -3.3737 -2.4083  2.2287
 5755TIP3   OH217270   4.058   0.507   0.278  0.2482 -0.3859 -0.0494
 5755TIP3    H117271   3.979   0.545   0.316  0.7404 -0.2636  0.8775
 5755TIP3    H217272   4.096   0.577   0.225  0.9951  0.3646  1.4150
 5756TIP3   OH217273   3.276   0.700   4.262 -0.4699  0.3086  0.2794
 5756TIP3    H117274   3.292   0.760   4.190 -0.4249  0.2015  0.2007
 5756TIP3    H217275   3.183   0.678   4.255 -0.1595 -0.7867 -0.5763
 5757TIP3   OH217276   0.955   1.970   2.550 -0.6396  0.0624  0.2265
 5757TIP3    H117277   1.006   1.959   2.470 -1.0264  0.0969 -0.0273
 5757TIP3    H217278   1.008   2.028   2.605 -0.0167 -0.5874  0.3196
 5758TIP3   OH217279   3.331   3.560   0.813 -0.4889 -0.3888 -0.3049
 5758TIP3    H117280   3.359   3.574   0.723 -1.7500  0.2660 -0.6139
 5758TIP3    H217281   3.364   3.637   0.860  0.5366 -0.9357 -0.1009
 5759TIP3   OH217282   4.567   0.092   4.452  0.0870  0.1071 -0.2276
 5759TIP3    H117283   4.623   0.016   4.436  0.7366  0.2703  1.1590
 5759TIP3    H217284   4.627   0.166   4.459 -0.5212  0.7505 -1.3435
 5760TIP3   OH217285   6.017   5.607   1.384 -0.2727  0.3447 -0.0223
 5760TIP3    H117286   5.938   5.552   1.383  0.6340 -1.0436 -1.9376
 5760TIP3    H217287   6.087   5.547   1.409  0.4781  1.0353 -0.4418
 5761TIP3   OH217288   4.167   2.058   3.164 -0.4404 -0.0819 -0.1505
 5761TIP3    H117289   4.117   2.093   3.090 -1.1420 -0.9199 -0.0796
 5761TIP3    H217290   4.103   2.010   3.216  0.4952 -1.4868 -0.2485
 5762TIP3   OH217291   1.900   4.651   3.501 -0.4573  0.1726 -0.6675
 5762TIP3    H117292   1.982   4.701   3.495 -1.0356  1.2364  0.0774
 5762TIP3    H217293   1.867   4.669   3.588 -1.8775  0.3644 -1.2241
 5763TIP3   OH217294   3.938   3.595   1.009 -0.1755  0.0889 -0.3669
 5763TIP3    H117295   4.028   3.572   1.033 -0.0240  0.6218 -0.4120
 5763TIP3    H217296   3.938   3.601   0.914 -0.4572 -0.6930 -0.4304
 5764TIP3   OH217297   1.505   3.127   0.832 -0.5017  0.6743 -0.6572
 5764TIP3    H117298   1.486   3.034   0.822 -1.3222  0.9827 -2.2696
 5764TIP3    H217299   1.598   3.135   0.811 -0.7049  0.3611 -1.7371
 5765TIP3   OH217300   3.954   2.876   3.880  0.3076 -0.4531  0.3448
 5765TIP3    H117301   3.975   2.851   3.790  1.0779 -1.2270  0.7186
 5765TIP3    H217302   3.888   2.813   3.908 -1.6656  1.1690 -0.3878
 5766TIP3   OH217303   3.134   5.496   2.431 -0.2124  0.6922  0.5626
 5766TIP3    H117304   3.176   5.562   2.486 -0.3099  0.7939  0.5170
 5766TIP3    H217305   3.109   5.427   2.491 -0.7322  1.0101  0.7215
 5767TIP3   OH217306   2.989   3.534   1.074 -0.2070  0.0473  0.0485
 5767TIP3    H117307   2.981   3.491   1.158 -0.2500 -1.2427 -0.5889
 5767TIP3    H217308   3.079   3.567   1.072 -0.2983  0.3379  0.7068
 5768TIP3   OH217309   0.481   4.183   0.446  0.1299 -0.6779 -0.1545
 5768TIP3    H117310   0.458   4.221   0.531 -1.5187 -0.2909 -0.7340
 5768TIP3    H217311   0.541   4.112   0.467  0.4104 -0.0548  1.2642
 5769TIP3   OH217312   0.767   5.053   1.979  0.4450  0.3487 -0.1386
 5769TIP3    H117313   0.772   5.148   1.982  2.5933  0.3500 -1.4189
 5769TIP3    H217314   0.790   5.025   2.067 -1.0730  0.9901  0.4915
 5770TIP3   OH217315   1.098   2.976   3.281 -0.6765 -0.4714  0.5725
 5770TIP3    H117316   1.083   2.885   3.254 -0.1866 -0.2339 -0.5330
 5770TIP3    H217317   1.189   2.993   3.258 -0.4736  0.0131  1.6571
 5771TIP3   OH217318   1.563   3.463   2.342  0.0209  0.3170 -0.1549
 5771TIP3    H117319   1.588   3.512   2.420  0.7169  0.8633 -0.7092
 5771TIP3    H217320   1.539   3.376   2.375 -1.2912  1.0331  0.8498
 5772TIP3   OH217321   1.346   1.349   4.023 -0.1353 -0.0968  0.4063
 5772TIP3    H117322   1.362   1.312   3.936 -2.9491 -1.9891  0.5668
 5772TIP3    H217323   1.358   1.443   4.012  0.9080 -0.4250 -1.6818
 5773TIP3   OH217324   1.750   4.242   3.308  0.2671  0.2796 -0.3535
 5773TIP3    H117325   1.691   4.255   3.233 -0.6559 -1.9879 -0.0913
 5773TIP3    H217326   1.714   4.299   3.376  0.3647  1.4068 -1.2087
 5774TIP3   OH217327   2.576   3.179   4.477  0.2206 -0.1110 -0.5732
 5774TIP3    H117328   2.635   3.143   4.411  0.0426 -1.5496  0.0289
 5774TIP3    H217329   2.498   3.124   4.473  1.1029 -1.7881  2.4019
 5775TIP3   OH217330   0.476   4.495   3.493 -0.1645 -0.0381 -0.6153
 5775TIP3    H117331   0.429   4.577   3.506 -1.0232 -0.3991 -1.3732
 5775TIP3    H217332   0.559   4.521   3.453  0.1251  0.5658  0.3446
 5776TIP3   OH217333   1.614   3.158   0.155  0.5758  0.1272 -0.2677
 5776TIP3    H117334   1.622   3.249   0.129  0.2953  0.0836 -0.5094
 5776TIP3    H217335   1.581   3.113   0.077  0.4450 -0.1308 -0.0681
 5777TIP3   OH217336   6.241   1.961   0.210 -0.1096  0.0897 -0.2114
 5777TIP3    H117337   6.280   1.953   0.123 -1.8792  0.2158 -1.0505
 5777TIP3    H217338   6.171   1.896   0.211  0.0184 -0.0689  1.2189
 5778TIP3   OH217339   6.189   1.657   1.825  0.4658 -0.0324 -0.3072
 5778TIP3    H117340   6.246   1.594   1.868 -1.3831 -1.4747  0.1873
 5778TIP3    H217341   6.218   1.658   1.734  0.7155 -1.4256 -0.2657
 5779TIP3   OH217342   4.995   5.234   4.331 -0.1659 -0.0420 -0.6751
 5779TIP3    H117343   5.048   5.155   4.333  1.1187  0.7925  0.5499
 5779TIP3    H217344   5.053   5.303   4.365 -0.9121  1.6382 -2.5938
 5780TIP3   OH217345   2.324   0.809   3.752 -0.0613  0.1672  0.1073
 5780TIP3    H117346   2.407   0.771   3.724 -0.1894 -0.6513  0.8104
 5780TIP3    H217347   2.340   0.903   3.754  0.7606  0.0329 -0.0298
 5781TIP3   OH217348   0.446   1.952   0.026  0.5245 -0.1415 -0.4133
 5781TIP3    H117349   0.533   1.970   0.061 -0.0139  1.3142  0.2804
 5781TIP3    H217350   0.396   1.919   0.100  0.1016  0.4464 -0.4219
 5782TIP3   OH217351   3.971   0.272   4.842  0.5541  0.2595 -0.4979
 5782TIP3    H117352   3.933   0.277   4.754 -1.0555 -1.5113  0.0271
 5782TIP3    H217353   4.053   0.224   4.830  1.1728  1.4575 -1.2326
 5783TIP3   OH217354   1.618   2.729   3.697  0.2189 -0.5382  0.3147
 5783TIP3    H117355   1.586   2.661   3.757 -2.4868  0.2350 -0.1316
 5783TIP3    H217356   1.597   2.695   3.610 -0.4835  0.5197  0.0555
 5784TIP3   OH217357   5.330   4.931   4.867 -0.4080 -0.5066  0.7441
 5784TIP3    H117358   5.306   4.989   4.939  1.7530  0.0728  1.0515
 5784TIP3    H217359   5.251   4.927   4.812 -0.8520  2.1602  1.0692
 5785TIP3   OH217360   2.456   4.563   2.794 -0.0066 -0.1640 -0.1583
 5785TIP3    H117361   2.508   4.636   2.828 -1.3408  0.5132  0.4889
 5785TIP3    H217362   2.515   4.517   2.734  0.2357  2.6433 -2.2538
 5786TIP3   OH217363   2.483   2.646   4.169  0.3023 -0.3699  0.4458
 5786TIP3    H117364   2.548   2.638   4.099  0.2233  0.3591  0.2818
 5786TIP3    H217365   2.408   2.595   4.137  0.3031 -0.1239  0.0393
 5787TIP3   OH217366   3.908   3.061   2.671 -0.3866  0.3920  0.0573
 5787TIP3    H117367   4.002   3.052   2.657 -0.4687  1.5300 -1.5084
 5787TIP3    H217368   3.871   2.976   2.644  0.2482 -0.4433  1.7068
 5788TIP3   OH217369   3.453   2.640   5.026  0.2031  0.1869  0.4122
 5788TIP3    H117370   3.431   2.635   4.933 -0.6011  1.2835  0.5285
 5788TIP3    H217371   3.378   2.599   5.071  0.6720 -0.5115  0.5886
 5789TIP3   OH217372   3.818   5.277   0.064 -0.6304 -0.5593  1.1401
 5789TIP3    H117373   3.842   5.335   0.136 -0.8840  0.8849  0.0892
 5789TIP3    H217374   3.735   5.312   0.031  0.0399 -0.4948 -0.5684
 5790TIP3   OH217375   3.544   3.341   1.511  0.4472  0.6096  0.1452
 5790TIP3    H117376   3.456   3.344   1.472  0.0984 -0.0592  0.8439
 5790TIP3    H217377   3.549   3.254   1.552  2.5162 -0.5426 -2.3074
 5791TIP3   OH217378   3.103   2.742   4.068 -0.5074  0.2773 -0.1736
 5791TIP3    H117379   3.092   2.835   4.050  0.0776  0.2703 -0.6108
 5791TIP3    H217380   3.192   2.722   4.038 -0.1910 -0.1633  1.0005
 5792TIP3   OH217381   1.848   3.669   0.198 -0.2645  0.3967  0.4094
 5792TIP3    H117382   1.810   3.639   0.280 -1.1505  1.4526  0.4076
 5792TIP3    H217383   1.823   3.761   0.192 -0.1556  0.3563 -1.0160
 5793TIP3   OH217384   5.546   5.813   2.756  0.6130  0.3027 -0.1203
 5793TIP3    H117385   5.634   5.797   2.792  0.2301 -0.1849  0.6264
 5793TIP3    H217386   5.560   5.878   2.687  1.2857  1.9213  1.4465
 5794TIP3   OH217387   2.663   4.788   1.134 -0.0140  0.0004 -0.0902
 5794TIP3    H117388   2.699   4.703   1.108 -1.2723 -0.9731  1.1844
 5794TIP3    H217389   2.614   4.818   1.057  2.6064  0.9370 -1.5410
 5795TIP3   OH217390   3.976   1.558   4.708 -0.6225 -0.4860 -0.0107
 5795TIP3    H117391   4.070   1.545   4.719 -0.4739  0.4057 -0.1155
 5795TIP3    H217392   3.958   1.641   4.753 -1.1728 -0.1348 -0.8409
 5796TIP3   OH217393   5.264   5.295   4.990  0.2396  0.3340 -0.5998
 5796TIP3    H117394   5.309   5.227   5.040  2.0344  1.1781 -0.9820
 5796TIP3    H217395   5.204   5.335   5.053  1.5843  0.5852  0.5767
 5797TIP3   OH217396   2.828   1.705   0.098  0.0431  0.2533  0.2254
 5797TIP3    H117397   2.902   1.688   0.158  0.7189  2.3148  0.0689
 5797TIP3    H217398   2.761   1.642   0.124 -0.2435  1.8895  4.1721
 5798TIP3   OH217399   0.377   4.151   1.604  0.0756  0.3835 -0.3501
 5798TIP3    H117400   0.404   4.072   1.557  0.5386 -0.3883  1.1287
 5798TIP3    H217401   0.423   4.145   1.688  0.0015  2.1709 -0.1551
 5799TIP3   OH217402   6.174   4.990   4.291  0.3121  0.7380  0.4235
 5799TIP3    H117403   6.231   4.947   4.356  0.8704 -0.8643 -1.0302
 5799TIP3    H217404   6.227   5.063   4.258  1.8338 -0.9614 -1.1940
 5800TIP3   OH217405   0.842   1.324   0.545  0.5229  0.2950  0.6426
 5800TIP3    H117406   0.914   1.387   0.550 -2.0658  3.4978  0.8886
 5800TIP3    H217407   0.801   1.341   0.460 -1.5293  0.5380  1.6202
 5801TIP3   OH217408   3.877   0.885   3.527  0.1887 -0.3403 -0.0778
 5801TIP3    H117409   3.884   0.794   3.498 -1.2658 -0.4294 -0.2101
 5801TIP3    H217410   3.860   0.935   3.448  3.6026  0.4892 -0.4458
 5802TIP3   OH217411   1.853   2.389   0.668 -0.3766 -0.0318 -0.0072
 5802TIP3    H117412   1.902   2.326   0.616 -1.6622 -0.5155 -0.6906
 5802TIP3    H217413   1.898   2.391   0.752  2.2541  1.3873 -1.3257
 5803TIP3   OH217414   0.012   5.170   0.120  0.8723  0.3099 -0.4537
 5803TIP3    H117415   0.063   5.179   0.040  0.2740 -0.2415 -0.9101
 5803TIP3    H217416  -0.019   5.080   0.119  2.7493 -0.4273  1.5745
 5804TIP3   OH217417   2.711   2.932   3.499 -0.5067 -1.0020  0.1081
 5804TIP3    H117418   2.748   2.916   3.412 -1.6044 -1.3729 -0.3107
 5804TIP3    H217419   2.755   2.869   3.556  1.1256  0.0730  0.0983
 5805TIP3   OH217420   3.968   5.170   4.929  0.1144  0.3848 -0.8224
 5805TIP3    H117421   3.991   5.152   4.837  1.0907 -0.5559 -0.4151
 5805TIP3    H217422   4.019   5.106   4.979  1.4150  2.3758  0.5415
 5806TIP3   OH217423   5.956   5.375   0.770  0.1823 -0.0701  0.2281
 5806TIP3    H117424   6.037   5.350   0.726 -0.0824 -0.2529 -0.1662
 5806TIP3    H217425   5.969   5.467   0.794  0.4564 -0.0591  0.0433
 5807TIP3   OH217426   2.447   1.201   1.741  0.3986  0.3219 -0.0645
 5807TIP3    H117427   2.530   1.247   1.758  1.1593 -1.0407  0.0972
 5807TIP3    H217428   2.401   1.256   1.678  2.8608 -0.3692 -2.6923
 5808TIP3   OH217429   2.964   5.229   3.692 -0.0286 -0.2428  0.0822
 5808TIP3    H117430   3.046   5.191   3.724 -0.2618 -0.1638  0.7772
 5808TIP3    H217431   2.965   5.319   3.724  0.3408  0.2530 -1.2394
 5809TIP3   OH217432   3.852   1.281   3.611  0.1123 -0.2534 -0.2180
 5809TIP3    H117433   3.771   1.230   3.603 -0.1321  0.2711 -1.4677
 5809TIP3    H217434   3.920   1.224   3.574  0.2360 -0.5201  0.4171
 5810TIP3   OH217435   4.622   3.061   0.938 -0.1675 -0.1782  0.5231
 5810TIP3    H117436   4.531   3.046   0.911 -0.5531  3.0121 -0.4501
 5810TIP3    H217437   4.615   3.095   1.027 -0.5076  3.6317 -0.7391
 5811TIP3   OH217438   6.217   1.997   5.088  0.4622  0.1623 -0.0726
 5811TIP3    H117439   6.237   1.923   5.031 -2.6010  0.4675 -1.7813
 5811TIP3    H217440   6.178   1.957   5.166 -1.2950 -0.1241 -1.0420
 5812TIP3   OH217441   3.081   0.503   0.619  0.0059  0.1880  0.4382
 5812TIP3    H117442   3.117   0.580   0.575 -0.8747  0.7970  0.7481
 5812TIP3    H217443   2.988   0.524   0.631  0.2095  0.0877  2.6094
 5813TIP3   OH217444   4.394   5.579   1.547  0.3531  0.8877 -0.2715
 5813TIP3    H117445   4.468   5.626   1.585  0.5675  0.5160 -0.2228
 5813TIP3    H217446   4.399   5.599   1.453  0.9375  0.3052 -0.3768
 5814TIP3   OH217447   3.373   4.685   3.111 -0.0511 -0.1930  0.0249
 5814TIP3    H117448   3.303   4.748   3.127  1.0606  1.3339 -0.7701
 5814TIP3    H217449   3.396   4.651   3.197 -0.7334  0.4501  0.4679
 5815TIP3   OH217450   4.038   5.398   3.677  0.4894 -0.5252  0.2273
 5815TIP3    H117451   3.943   5.385   3.683  0.3808 -0.9116 -1.6394
 5815TIP3    H217452   4.054   5.481   3.721 -0.9148  0.1823 -0.5087
 5816TIP3   OH217453   6.294   3.467   1.537  0.0244  0.2873  0.2083
 5816TIP3    H117454   6.373   3.414   1.536  0.2082  0.5635 -0.3215
 5816TIP3    H217455   6.292   3.505   1.625  0.8640  0.8404 -0.0012
 5817TIP3   OH217456   2.844   5.186   2.472 -0.6354 -0.6126 -0.3717
 5817TIP3    H117457   2.769   5.204   2.528  0.6529 -1.1470  1.6443
 5817TIP3    H217458   2.813   5.118   2.412 -1.7936 -0.7435  0.3445
 5818TIP3   OH217459   1.296   5.237   1.346  0.6159 -0.3073 -0.8784
 5818TIP3    H117460   1.357   5.275   1.409  0.5007 -0.1840 -0.8412
 5818TIP3    H217461   1.329   5.148   1.331 -0.5666 -1.1338  1.0292
 5819TIP3   OH217462   0.190   5.124   0.672 -0.0451  0.4839  0.3930
 5819TIP3    H117463   0.258   5.190   0.658  2.0376 -1.3946  1.0803
 5819TIP3    H217464   0.166   5.094   0.585  4.4678 -2.9882  0.0016
 5820TIP3   OH217465   3.083   1.165   2.831  0.1604  0.0218 -0.2067
 5820TIP3    H117466   3.145   1.129   2.894 -0.2441 -1.2985 -0.5337
 5820TIP3    H217467   3.072   1.256   2.857  0.4800 -0.3347  1.2501
 5821TIP3   OH217468   5.248   2.093   2.257  0.5261  0.3872  0.1563
 5821TIP3    H117469   5.209   2.019   2.210  0.3459  0.8508 -0.4350
 5821TIP3    H217470   5.201   2.096   2.341  0.4198 -0.0661  0.1125
 5822TIP3   OH217471   0.997   3.449   2.409 -0.3459  0.1068  0.6652
 5822TIP3    H117472   0.988   3.524   2.468 -0.0865 -0.1298  1.0168
 5822TIP3    H217473   1.091   3.429   2.411 -0.4680 -0.4720  0.8954
 5823TIP3   OH217474   2.923   1.300   3.098 -0.5302  0.1759  0.6585
 5823TIP3    H117475   2.919   1.205   3.105  0.4793  0.2342  2.4939
 5823TIP3    H217476   2.836   1.330   3.125 -1.6496 -0.2285 -2.0843
 5824TIP3   OH217477   0.615   0.142   4.226 -0.1490  0.1783 -0.6917
 5824TIP3    H117478   0.562   0.190   4.290 -0.3593 -2.3009  1.1250
 5824TIP3    H217479   0.556   0.125   4.153 -0.0776  2.5151 -1.3920
 5825TIP3   OH217480   1.869   2.046   1.465 -0.8202  0.3554  0.0348
 5825TIP3    H117481   1.787   2.091   1.484 -0.7363  0.4721  0.1175
 5825TIP3    H217482   1.891   2.002   1.547 -0.4782  0.8274  0.1967
 5826TIP3   OH217483   1.031   3.517   1.480 -0.2274  0.0543  0.0726
 5826TIP3    H117484   1.083   3.533   1.401  2.2343  1.1763  1.8043
 5826TIP3    H217485   1.095   3.514   1.551 -2.2988 -1.2787  2.0322
 5827TIP3   OH217486   1.387   3.135   3.909  0.2711 -0.0557 -0.4568
 5827TIP3    H117487   1.369   3.047   3.943 -0.7744  0.5876  0.7152
 5827TIP3    H217488   1.472   3.127   3.865 -0.4987 -2.0222 -1.7332
 5828TIP3   OH217489   1.233   1.514   3.706  0.2398  0.0941  0.4796
 5828TIP3    H117490   1.236   1.443   3.641 -0.4959 -0.2932  0.8572
 5828TIP3    H217491   1.154   1.496   3.758  1.3553 -0.1883  2.1523
 5829TIP3   OH217492   4.528   4.809   4.607  0.1454  0.4829 -0.2258
 5829TIP3    H117493   4.433   4.813   4.616  0.2738  1.1444  0.9307
 5829TIP3    H217494   4.544   4.722   4.568 -0.8670 -0.0263  0.4492
 5830TIP3   OH217495   1.466   3.778   2.378 -0.0893  1.1926 -0.0858
 5830TIP3    H117496   1.525   3.727   2.322 -0.4812 -0.1598  0.6780
 5830TIP3    H217497   1.520   3.849   2.411  1.8002 -1.1054  2.1959
 5831TIP3   OH217498   5.301   2.247   2.535 -0.5567  0.2068 -0.5049
 5831TIP3    H117499   5.378   2.272   2.586 -0.2473  0.5365 -1.1186
 5831TIP3    H217500   5.228   2.291   2.580 -0.7561 -1.9472  1.4412
 5832TIP3   OH217501   3.217   4.700   0.760  0.2267 -0.4432  0.2009
 5832TIP3    H117502   3.155   4.728   0.827  0.8545 -0.0353  0.6220
 5832TIP3    H217503   3.302   4.701   0.804  0.4957 -1.3161 -0.2783
 5833TIP3   OH217504   4.366   5.951   1.051  0.0244  0.1158  0.3038
 5833TIP3    H117505   4.393   5.869   1.009 -1.0596  0.1796 -0.5829
 5833TIP3    H217506   4.417   5.955   1.131 -0.8577 -2.1032  1.0570
 5834TIP3   OH217507   0.335   4.520   5.024  0.2832 -0.0619  0.2880
 5834TIP3    H117508   0.275   4.499   4.953 -1.4005  1.3880  1.2103
 5834TIP3    H217509   0.396   4.584   4.985 -1.5119  1.8442  0.4639
 5835TIP3   OH217510   5.895   3.953   0.661 -0.3100  0.2154 -0.2179
 5835TIP3    H117511   5.890   3.925   0.570  1.6639  1.4074 -0.7505
 5835TIP3    H217512   5.857   4.040   0.662 -1.0323 -0.0968  0.2699
 5836TIP3   OH217513   0.609   1.088   2.180 -0.0478 -0.0602  0.4571
 5836TIP3    H117514   0.587   1.180   2.165  0.7102  0.0471 -0.0621
 5836TIP3    H217515   0.534   1.053   2.228 -0.5364  0.7213  0.2860
 5837TIP3   OH217516   3.572   3.095   2.550 -0.3282 -0.2106 -0.2680
 5837TIP3    H117517   3.509   3.127   2.615  0.6320 -0.3634  0.7634
 5837TIP3    H217518   3.606   3.014   2.587  0.4098 -0.1784 -0.8519
 5838TIP3   OH217519   6.000   4.587   4.171  0.5540  0.0486  0.2975
 5838TIP3    H117520   5.911   4.620   4.183  0.6939  1.0005 -0.9507
 5838TIP3    H217521   6.002   4.504   4.217 -0.9902  0.0090  0.3465
 5839TIP3   OH217522   4.542   2.910   3.382 -0.4923  0.2515  0.3255
 5839TIP3    H117523   4.627   2.885   3.347  0.1635 -0.5988  2.3876
 5839TIP3    H217524   4.510   2.977   3.321  2.2023  1.5104  0.1569
 5840TIP3   OH217525   1.785   1.494   1.018  0.4209  0.0717 -0.1273
 5840TIP3    H117526   1.691   1.508   1.029  0.1255  0.0520 -2.2073
 5840TIP3    H217527   1.793   1.446   0.936  2.1707 -1.6660  0.9677
 5841TIP3   OH217528   4.457   0.155   1.278 -0.2467 -0.0650 -0.1766
 5841TIP3    H117529   4.526   0.094   1.251 -0.4294  0.0088 -0.8189
 5841TIP3    H217530   4.501   0.240   1.286 -0.3453  0.0870 -1.0778
 5842TIP3   OH217531   5.914   4.173   0.876 -0.1847  0.3463 -0.3517
 5842TIP3    H117532   5.959   4.218   0.804  1.0368  0.0626  0.2210
 5842TIP3    H217533   5.967   4.095   0.893 -1.2945 -0.3840 -0.1362
 5843TIP3   OH217534   2.021   5.081   2.347 -0.8562  0.0562  0.1212
 5843TIP3    H117535   1.985   5.020   2.283 -0.8754  2.4990 -2.3662
 5843TIP3    H217536   1.952   5.147   2.358  0.6451  1.7910 -0.4379
 5844TIP3   OH217537   2.466   3.451   5.023  0.5778 -0.0742  0.4214
 5844TIP3    H117538   2.384   3.406   5.001  1.9712 -2.7553  0.3758
 5844TIP3    H217539   2.484   3.506   4.946 -1.5510  1.2526  0.7812
 5845TIP3   OH217540   5.795   4.724   0.208  0.1985 -1.1028 -0.7346
 5845TIP3    H117541   5.754   4.742   0.293  1.2893 -0.1414 -0.3977
 5845TIP3    H217542   5.760   4.638   0.183 -1.2052 -0.7937  0.0227
 5846TIP3   OH217543   2.227   3.164   0.454  0.2021 -0.2639  0.0348
 5846TIP3    H117544   2.293   3.139   0.519 -0.2185  1.3292  1.1407
 5846TIP3    H217545   2.277   3.205   0.384  0.5303 -0.6247  0.0540
 5847TIP3   OH217546   1.234   3.261   4.707  0.4149 -0.2455 -0.1935
 5847TIP3    H117547   1.219   3.355   4.708  1.6383 -0.0249 -0.5691
 5847TIP3    H217548   1.170   3.226   4.645 -0.8495  0.1656  0.8404
 5848TIP3   OH217549   5.146   4.963   5.054 -0.3308  0.0617 -0.0439
 5848TIP3    H117550   5.127   4.870   5.071 -0.3724  0.1141  0.2051
 5848TIP3    H217551   5.079   4.990   4.992  1.2246 -0.7534 -2.1993
 5849TIP3   OH217552   5.048   6.015   2.923  0.1131  0.3698 -0.4252
 5849TIP3    H117553   4.971   5.959   2.931  0.7960 -0.8630 -1.8552
 5849TIP3    H217554   5.121   5.958   2.946  0.6303  1.5389  0.9618
 5850TIP3   OH217555   4.405   2.359   0.452 -0.7313  0.3071  0.2507
 5850TIP3    H117556   4.456   2.300   0.396 -1.1404 -0.5022  0.7134
 5850TIP3    H217557   4.443   2.445   0.436 -1.1314  0.1737 -1.5887
 5851TIP3   OH217558   5.449   0.482   2.652  0.1775  0.1191 -0.0695
 5851TIP3    H117559   5.379   0.464   2.590  0.7100 -0.2459 -0.5714
 5851TIP3    H217560   5.452   0.577   2.658 -0.1158  0.1453 -0.3261
 5852TIP3   OH217561   3.955   2.030   1.380  0.0826 -0.0749  0.2957
 5852TIP3    H117562   3.869   2.023   1.338  0.6476  0.3072 -0.9765
 5852TIP3    H217563   4.017   2.000   1.313  1.0419  0.8125  0.7578
 5853TIP3   OH217564   1.033   2.304   5.052  0.0442  1.0141 -0.0031
 5853TIP3    H117565   1.095   2.321   5.124 -0.9819 -0.2339  1.2382
 5853TIP3    H217566   0.955   2.354   5.075 -0.2960  0.5988 -0.2461
 5854TIP3   OH217567   1.023   5.530   4.330  0.6695  0.5186 -0.4468
 5854TIP3    H117568   1.052   5.449   4.287  0.5463  0.0564  0.3092
 5854TIP3    H217569   0.930   5.535   4.311  0.7161  0.5816 -0.6565
 5855TIP3   OH217570   1.759   2.122   3.626 -1.0137  0.3731  0.4874
 5855TIP3    H117571   1.763   2.132   3.531 -2.1143  2.7283  0.6127
 5855TIP3    H217572   1.710   2.041   3.639 -0.2088 -0.3766 -0.9372
 5856TIP3   OH217573   0.447   4.528   1.763 -0.0109  0.0126  0.8431
 5856TIP3    H117574   0.464   4.620   1.781  0.5677  0.1238 -0.1992
 5856TIP3    H217575   0.513   4.481   1.814 -0.3671  0.1566  1.4516
 5857TIP3   OH217576   5.958   5.118   0.168  0.2205  0.5176  0.3831
 5857TIP3    H117577   5.883   5.161   0.209 -0.2979  0.7303 -0.7197
 5857TIP3    H217578   5.932   5.026   0.160  0.2505  0.5073  0.4043
 5858TIP3   OH217579   2.313   1.454   4.651  0.0196 -0.1849  0.2204
 5858TIP3    H117580   2.289   1.473   4.560 -1.5659 -0.5336  0.5325
 5858TIP3    H217581   2.408   1.450   4.651  0.1805  2.0982 -0.9788
 5859TIP3   OH217582   3.756   0.755   4.868  0.5585  0.0352 -0.4473
 5859TIP3    H117583   3.739   0.838   4.914 -0.1056  0.1710 -0.9214
 5859TIP3    H217584   3.811   0.780   4.794 -1.2252  0.3968 -1.7170
 5860TIP3   OH217585   2.374   4.110   0.407  0.2948 -0.3249  0.4100
 5860TIP3    H117586   2.461   4.145   0.424  0.9041 -0.9718 -1.1666
 5860TIP3    H217587   2.361   4.043   0.474  1.2954 -0.6801  0.2580
 5861TIP3   OH217588   4.240   0.265   1.132 -0.1747 -0.3255 -0.1317
 5861TIP3    H117589   4.313   0.235   1.186 -1.1183 -1.5234  0.5452
 5861TIP3    H217590   4.268   0.249   1.042  1.3176  1.4519 -0.0421
 5862TIP3   OH217591   4.297   2.672   1.725 -0.4877  0.4901 -0.1772
 5862TIP3    H117592   4.341   2.658   1.641  0.0292 -0.2952  0.2105
 5862TIP3    H217593   4.237   2.598   1.733  0.2543 -0.0330  0.6388
 5863TIP3   OH217594   3.714   5.607   2.455  0.1387  0.3046  0.1054
 5863TIP3    H117595   3.686   5.679   2.512 -1.3659 -1.1733  1.3214
 5863TIP3    H217596   3.633   5.573   2.418  0.8563 -0.6124 -0.6524
 5864TIP3   OH217597   3.263   2.224   2.216 -0.4946  0.3441  0.1127
 5864TIP3    H117598   3.283   2.140   2.173 -1.5074 -0.2132  0.6842
 5864TIP3    H217599   3.254   2.286   2.144  0.8233  0.1010 -0.2933
 5865TIP3   OH217600   5.447   4.926   3.132  0.2125 -0.1402 -0.8147
 5865TIP3    H117601   5.369   4.875   3.109  0.0694  0.1130 -0.8888
 5865TIP3    H217602   5.483   4.880   3.208 -1.6438  1.3577  1.1252
 5866TIP3   OH217603   1.353   0.683   0.057  0.5692  0.2050 -0.4312
 5866TIP3    H117604   1.415   0.701  -0.013 -1.4880  0.8670 -2.1978
 5866TIP3    H217605   1.310   0.768   0.074 -0.3617 -0.3707  0.2069
 5867TIP3   OH217606   4.410   2.373   2.304 -0.1092  0.3344  0.6520
 5867TIP3    H117607   4.440   2.458   2.334  0.3744  1.4834 -2.7418
 5867TIP3    H217608   4.315   2.376   2.312 -0.1168  1.3443  0.2155
 5868TIP3   OH217609   2.274   2.885   0.976  0.2162  0.4569  0.2972
 5868TIP3    H117610   2.313   2.854   0.894 -2.3476  0.4179 -1.0259
 5868TIP3    H217611   2.283   2.980   0.972  0.0838  0.4569 -0.0674
 5869TIP3   OH217612   6.354   3.609   0.084  0.4920 -0.1530  0.3656
 5869TIP3    H117613   6.319   3.681   0.136  2.5409  2.0558 -1.1055
 5869TIP3    H217614   6.325   3.627  -0.005  2.4554 -0.0906 -0.3174
 5870TIP3   OH217615   3.061   2.430   1.564 -0.1272 -0.7184 -0.1378
 5870TIP3    H117616   3.027   2.506   1.515 -0.7044 -0.8930 -0.0183
 5870TIP3    H217617   3.151   2.454   1.585  0.1692 -0.6711 -1.3644
 5871TIP3   OH217618   2.593   5.444   4.189  0.1301  0.6026 -0.6242
 5871TIP3    H117619   2.538   5.378   4.146  0.4570  0.0122 -0.1547
 5871TIP3    H217620   2.649   5.478   4.120  1.1279 -0.8222 -0.5591
 5872TIP3   OH217621   5.676   0.478   2.049 -0.4519 -0.2200  0.1323
 5872TIP3    H117622   5.615   0.539   2.009  0.3635  1.0703  0.7903
 5872TIP3    H217623   5.718   0.434   1.975 -1.8977 -0.8889 -0.3310
 5873TIP3   OH217624   6.275   4.308   1.017  0.2463  0.1033  0.0356
 5873TIP3    H117625   6.237   4.323   1.104  1.1138 -1.4460  0.7358
 5873TIP3    H217626   6.315   4.392   0.994 -0.5987  0.7460  0.8087
 5874TIP3   OH217627   6.101   1.401   0.772  0.4373 -0.9093  0.1911
 5874TIP3    H117628   6.024   1.402   0.829 -0.2337 -1.1619 -0.6846
 5874TIP3    H217629   6.129   1.492   0.767 -2.0136 -0.1298 -2.3283
 5875TIP3   OH217630   1.911   0.218   1.283  0.4741 -0.0848 -0.2989
 5875TIP3    H117631   1.998   0.221   1.242  0.8441  2.2583  0.5084
 5875TIP3    H217632   1.928   0.223   1.377 -0.5043  1.7837 -0.1655
 5876TIP3   OH217633   4.370   5.869   2.773  0.0740  0.2274 -0.1988
 5876TIP3    H117634   4.391   5.961   2.755  0.7252  0.4171  1.4057
 5876TIP3    H217635   4.454   5.823   2.763  0.2508  0.1934  1.3060
 5877TIP3   OH217636   0.505   4.152   3.677  0.5255 -0.2158  0.0553
 5877TIP3    H117637   0.445   4.103   3.733 -1.1411  0.9203 -0.6468
 5877TIP3    H217638   0.502   4.107   3.592 -0.3376  0.5478 -0.3393
 5878TIP3   OH217639   0.731   2.829   1.309  0.0114  0.1186  0.3092
 5878TIP3    H117640   0.820   2.804   1.333  0.9443  1.4378 -1.5259
 5878TIP3    H217641   0.680   2.749   1.321  1.1753 -0.3762  2.4767
 5879TIP3   OH217642   4.078   5.121   4.090  0.5377 -0.6746 -0.4806
 5879TIP3    H117643   3.983   5.114   4.084  0.5505 -4.1064  0.9559
 5879TIP3    H217644   4.110   5.041   4.048  2.7393 -0.2311  0.2257
 5880TIP3   OH217645   0.330   1.769   4.997 -0.1733  0.2829  0.2328
 5880TIP3    H117646   0.312   1.694   5.055  2.7965  0.2680  1.2821
 5880TIP3    H217647   0.253   1.773   4.940 -0.8849 -2.9721  0.7351
 5881TIP3   OH217648   4.075   1.349   4.906  0.5708 -0.0497 -0.2221
 5881TIP3    H117649   4.120   1.434   4.908 -2.3780  1.6472  0.0266
 5881TIP3    H217650   4.040   1.339   4.994  0.7238 -1.4880 -0.3055
 5882TIP3   OH217651   6.089   3.561   3.095 -0.3309 -0.2678  0.0682
 5882TIP3    H117652   6.085   3.500   3.021  0.4144  0.1153 -0.3025
 5882TIP3    H217653   6.006   3.548   3.141 -0.5111 -1.0061 -0.4404
 5883TIP3   OH217654   5.791   4.591   3.181  0.3456  0.2701  0.1634
 5883TIP3    H117655   5.770   4.680   3.208 -0.2959  0.4017 -0.7413
 5883TIP3    H217656   5.722   4.567   3.119 -0.4523 -1.4784  1.6290
 5884TIP3   OH217657   5.655   1.059   3.045 -0.3029  0.3622  0.2183
 5884TIP3    H117658   5.740   1.030   3.012  0.2703  0.5879  1.4477
 5884TIP3    H217659   5.619   1.112   2.974  1.4908  1.9813  0.4114
 5885TIP3   OH217660   3.450   0.243   0.111  0.4296  0.2652 -0.0732
 5885TIP3    H117661   3.521   0.187   0.143 -0.3978 -0.0122  1.3656
 5885TIP3    H217662   3.463   0.247   0.016  0.8548 -1.9097 -0.1575
 5886TIP3   OH217663   4.099   5.761   0.991 -0.0287 -0.6588  0.5003
 5886TIP3    H117664   4.177   5.811   1.011  0.6222 -1.5733  0.3193
 5886TIP3    H217665   4.130   5.671   0.980 -1.0073 -0.9332 -0.2105
 5887TIP3   OH217666   1.687   4.760   2.890  0.6618  0.1554  0.3905
 5887TIP3    H117667   1.653   4.846   2.863  0.7379  0.0737  0.0275
 5887TIP3    H217668   1.782   4.771   2.887  0.6830  0.3886  1.4172
 5888TIP3   OH217669   6.246   5.999   1.560  0.0949  0.2872  0.4672
 5888TIP3    H117670   6.295   5.932   1.513 -0.8074  1.7672 -2.9013
 5888TIP3    H217671   6.171   5.953   1.597  0.7891 -0.9566  0.3582
 5889TIP3   OH217672   0.535   4.481   0.447  0.7766 -0.3652 -0.1791
 5889TIP3    H117673   0.494   4.504   0.363  0.9935 -2.7164 -0.9990
 5889TIP3    H217674   0.484   4.529   0.513  0.2456  1.1013 -1.5779
 5890TIP3   OH217675   4.136   0.329   1.456 -0.2773 -0.5169 -0.0290
 5890TIP3    H117676   4.097   0.285   1.381 -0.2536 -0.8693  0.1634
 5890TIP3    H217677   4.221   0.359   1.424  0.0950 -1.4091  0.0951
 5891TIP3   OH217678   5.046   1.239   2.165 -0.0428 -0.3677  0.1355
 5891TIP3    H117679   5.133   1.250   2.127 -0.8499  0.1645 -1.6906
 5891TIP3    H217680   4.986   1.273   2.098 -1.6859 -1.0749  1.1727
 5892TIP3   OH217681   5.580   0.373   3.782 -0.1986 -0.4706 -0.4435
 5892TIP3    H117682   5.544   0.462   3.784 -0.5629 -0.6226  1.3283
 5892TIP3    H217683   5.594   0.355   3.689 -2.3825  0.5343 -1.0315
 5893TIP3   OH217684   3.929   2.625   0.458 -0.0769  0.4168 -0.2198
 5893TIP3    H117685   4.002   2.562   0.453 -0.6799 -0.4653  1.2376
 5893TIP3    H217686   3.922   2.661   0.370  0.1943 -1.7039 -1.1807
 5894TIP3   OH217687   5.421   4.190   2.768  0.3122 -0.1679  0.0114
 5894TIP3    H117688   5.433   4.161   2.678 -0.3894  1.8553 -0.7815
 5894TIP3    H217689   5.499   4.242   2.787 -0.3365  0.8231 -0.0232
 5895TIP3   OH217690   0.203   3.599   0.714  0.3724 -0.6592  0.4564
 5895TIP3    H117691   0.119   3.606   0.669 -0.0544 -3.1776  0.7343
 5895TIP3    H217692   0.213   3.684   0.758 -1.4484  0.1176 -0.5136
 5896TIP3   OH217693   0.011   1.682   0.807 -0.1902  0.5666  0.0424
 5896TIP3    H117694   0.068   1.759   0.817  0.5598 -0.0280  0.4773
 5896TIP3    H217695   0.044   1.620   0.872 -0.5336 -0.2771 -0.5737
 5897TIP3   OH217696   4.927   2.852   0.812  0.1882 -0.0235  0.1373
 5897TIP3    H117697   4.987   2.924   0.794  0.5354 -0.1366  0.8235
 5897TIP3    H217698   4.982   2.774   0.813 -0.2538 -0.3792 -1.0682
 5898TIP3   OH217699   5.263   0.311   0.818  0.1753 -0.2590  0.5094
 5898TIP3    H117700   5.331   0.368   0.855  1.3801 -1.5746  0.4182
 5898TIP3    H217701   5.295   0.289   0.730 -0.7152 -0.3459  0.1982
 5899TIP3   OH217702   5.222   5.650   1.622  0.4152 -0.1903 -0.3646
 5899TIP3    H117703   5.213   5.740   1.590 -0.4938 -0.3867 -0.7076
 5899TIP3    H217704   5.313   5.627   1.607  0.9725  1.0935  0.8542
 5900TIP3   OH217705   5.075   5.080   0.782 -0.2428 -0.1105  0.2105
 5900TIP3    H117706   5.074   5.020   0.856  2.1024 -1.0616 -0.4403
 5900TIP3    H217707   5.035   5.031   0.710  0.2161 -0.3087  0.0884
 5901TIP3   OH217708   5.563   2.589   4.892 -0.4048 -0.0586  0.4623
 5901TIP3    H117709   5.496   2.633   4.841 -1.6464 -1.1577  1.0842
 5901TIP3    H217710   5.642   2.643   4.881 -1.2771  1.0364 -0.6008
 5902TIP3   OH217711   4.009   3.060   4.089 -0.5238 -0.3543  0.5127
 5902TIP3    H117712   4.009   3.004   4.011 -0.5181 -1.7275  1.4848
 5902TIP3    H217713   4.054   3.140   4.059 -1.2983 -0.4819 -1.1314
 5903TIP3   OH217714   4.195   3.889   3.804  0.6314 -0.4416 -0.7325
 5903TIP3    H117715   4.125   3.846   3.756 -0.0603  1.9368 -1.9580
 5903TIP3    H217716   4.275   3.867   3.755  0.3417 -0.6376 -1.1182
 5904TIP3   OH217717   2.436   1.831   0.565  0.3903 -0.2279  0.6357
 5904TIP3    H117718   2.357   1.848   0.514  0.8828 -1.9551 -0.8356
 5904TIP3    H217719   2.408   1.835   0.656 -1.3602 -0.5858  0.1388
 5905TIP3   OH217720   4.088   1.216   0.665  0.0460  0.0009 -0.0532
 5905TIP3    H117721   4.070   1.269   0.587  0.1464  0.5969  0.3189
 5905TIP3    H217722   4.015   1.234   0.724  1.0569  1.2722  0.8615
 5906TIP3   OH217723   5.540   0.884   0.367 -0.0995 -0.5088  0.1833
 5906TIP3    H117724   5.462   0.907   0.316  0.0316 -0.4090  0.0264
 5906TIP3    H217725   5.599   0.959   0.356  0.7967 -1.3778 -1.2790
 5907TIP3   OH217726   2.259   0.867   0.524 -0.5905 -0.5772  0.3531
 5907TIP3    H117727   2.211   0.871   0.607 -0.7954 -1.4445  0.2894
 5907TIP3    H217728   2.192   0.846   0.459 -0.4192  0.0308 -0.0301
 5908TIP3   OH217729   4.666   4.832   0.449  0.2433  0.5834 -0.5002
 5908TIP3    H117730   4.739   4.806   0.393  0.5428  0.3174  0.0039
 5908TIP3    H217731   4.591   4.782   0.416  0.4283  0.3924 -0.6358
 5909TIP3   OH217732   0.959   5.670   4.670 -0.4837  0.0688  0.3386
 5909TIP3    H117733   0.931   5.752   4.709 -0.3046 -0.0907  0.8127
 5909TIP3    H217734   0.882   5.637   4.624 -0.2685  0.9980 -0.7125
 5910TIP3   OH217735   1.015   5.110   2.342  0.6115 -0.8353 -0.5381
 5910TIP3    H117736   1.019   5.021   2.375  0.0744 -1.5747 -2.3298
 5910TIP3    H217737   1.068   5.108   2.262 -0.6254  0.0398 -1.4173
 5911TIP3   OH217738   0.786   4.145   3.943 -0.1714  0.3154  0.0560
 5911TIP3    H117739   0.724   4.174   3.877  0.0258 -0.6984 -0.5887
 5911TIP3    H217740   0.866   4.194   3.924 -0.1376  0.0814 -0.4181
 5912TIP3   OH217741   3.230   1.404   1.599 -0.1281  0.4772 -0.3445
 5912TIP3    H117742   3.286   1.341   1.554 -2.5707  0.1883 -3.3050
 5912TIP3    H217743   3.165   1.350   1.644  0.5304  0.8497  1.0994
 5913TIP3   OH217744   2.068   5.035   5.133  0.2040 -0.2133  0.2406
 5913TIP3    H117745   2.100   5.104   5.075 -0.7996 -1.4466 -1.8986
 5913TIP3    H217746   1.973   5.043   5.130  0.0262 -2.1147 -0.6747
 5914TIP3   OH217747   2.089   4.986   4.104  0.0787  0.6865 -1.3401
 5914TIP3    H117748   2.093   4.953   4.014 -2.3573  0.7724 -1.5356
 5914TIP3    H217749   2.067   5.078   4.094 -1.9869  0.3096 -0.6735
 5915TIP3   OH217750   5.488   3.869   4.346 -0.1652 -0.6696 -0.2353
 5915TIP3    H117751   5.541   3.900   4.273  0.3679 -2.4574 -0.6420
 5915TIP3    H217752   5.422   3.812   4.306 -3.5027  2.5875  0.0445
 5916TIP3   OH217753   0.983   4.536   2.051  0.1590  0.1063  0.8756
 5916TIP3    H117754   0.915   4.539   2.118  0.9901 -2.3805  1.9371
 5916TIP3    H217755   0.943   4.486   1.979  0.5559 -0.6344  1.1604
 5917TIP3   OH217756   0.389   1.331   4.022  0.0847  0.0737  0.2520
 5917TIP3    H117757   0.316   1.292   3.975 -0.6074  2.3594 -0.6573
 5917TIP3    H217758   0.454   1.260   4.028 -1.0620 -1.1836 -1.3760
 5918TIP3   OH217759   4.077   5.089   4.384 -0.0229 -0.3397 -0.1034
 5918TIP3    H117760   4.026   5.011   4.408  1.1712 -0.9507  0.5602
 5918TIP3    H217761   4.036   5.120   4.303 -1.8086 -0.4295  0.7106
 5919TIP3   OH217762   1.148   2.527   2.656  0.0749  0.1529  0.0954
 5919TIP3    H117763   1.094   2.588   2.607  0.9450  2.2952  1.6458
 5919TIP3    H217764   1.238   2.556   2.641  0.3744  1.3416  3.2518
 5920TIP3   OH217765   4.174   2.128   0.620  0.6594 -0.1676 -0.0296
 5920TIP3    H117766   4.115   2.183   0.569  0.9897 -0.2592 -0.5171
 5920TIP3    H217767   4.154   2.039   0.591  0.9839 -0.2045 -0.1467
 5921TIP3   OH217768   5.539   5.547   3.578 -0.0141  0.0970  0.5050
 5921TIP3    H117769   5.554   5.588   3.493  0.1039  0.3721  0.6573
 5921TIP3    H217770   5.454   5.581   3.607 -1.3621 -2.0407 -0.7012
 5922TIP3   OH217771   1.815   3.259   3.228 -0.1828 -0.1097  0.3588
 5922TIP3    H117772   1.902   3.235   3.262 -0.2463 -0.1542  0.4887
 5922TIP3    H217773   1.830   3.342   3.183 -0.1870  0.1719  0.8747
 5923TIP3   OH217774   4.745   1.551   2.956  0.0331 -0.0789 -0.0601
 5923TIP3    H117775   4.758   1.471   2.905 -0.6961 -0.7425  0.7319
 5923TIP3    H217776   4.710   1.519   3.040 -1.8246  1.1664 -0.2995
 5924TIP3   OH217777   5.669   2.260   2.212  0.2592 -0.0467 -0.2860
 5924TIP3    H117778   5.642   2.175   2.246  0.1108 -0.5987 -1.7155
 5924TIP3    H217779   5.587   2.307   2.197  0.3272  0.2201  0.1580
 5925TIP3   OH217780   3.592   0.370   1.222 -0.3068  0.2810  0.0446
 5925TIP3    H117781   3.610   0.411   1.137 -0.3750 -0.0777 -0.1458
 5925TIP3    H217782   3.544   0.290   1.200 -0.6630  0.3820  0.4448
 5926TIP3   OH217783   0.523   4.795   1.785  0.1539 -0.6808  0.2435
 5926TIP3    H117784   0.611   4.768   1.812 -0.6882 -3.4013  0.6376
 5926TIP3    H217785   0.525   4.795   1.690  0.5952 -0.7580  0.2521
 5927TIP3   OH217786   4.613   0.158   1.963  0.2615  0.4453 -0.3915
 5927TIP3    H117787   4.653   0.130   1.881 -0.5565  0.2574 -0.7406
 5927TIP3    H217788   4.684   0.155   2.027  0.2646 -2.6400 -0.3548
 5928TIP3   OH217789   2.723   5.218   1.169 -0.0023  0.7549  0.2983
 5928TIP3    H117790   2.787   5.256   1.230 -0.8825  1.7485  0.6408
 5928TIP3    H217791   2.648   5.196   1.224  0.8807 -2.7682  0.3668
 5929TIP3   OH217792   3.193   1.267   3.187  0.4256  0.2747 -0.3205
 5929TIP3    H117793   3.246   1.340   3.155  0.4872  1.4474  2.2449
 5929TIP3    H217794   3.105   1.303   3.194  0.8862  1.0995  3.4043
 5930TIP3   OH217795   2.921   1.720   3.131  0.1054 -0.1828 -0.6708
 5930TIP3    H117796   2.976   1.793   3.102 -1.4373  1.2432 -0.1092
 5930TIP3    H217797   2.833   1.742   3.101 -0.6002 -1.2280  0.5285
 5931TIP3   OH217798   0.092   0.834   2.996 -0.4057 -0.2184 -0.1437
 5931TIP3    H117799   0.175   0.856   2.952 -0.0956 -1.0024  0.0263
 5931TIP3    H217800   0.056   0.918   3.022  0.4625  0.1276 -0.0082
 5932TIP3   OH217801   1.304   3.716   3.511 -0.2135 -0.0565  0.4393
 5932TIP3    H117802   1.257   3.753   3.436  1.4686  1.0163 -0.1627
 5932TIP3    H217803   1.322   3.792   3.566 -0.5680 -0.6930  1.4410
 5933TIP3   OH217804   2.499   1.951   2.550  0.2725  0.3351 -0.0447
 5933TIP3    H117805   2.534   1.862   2.543 -2.0476 -0.7478  1.0388
 5933TIP3    H217806   2.432   1.956   2.482  0.2196  1.1787  0.0579
 5934TIP3   OH217807   0.428   3.277   0.453  0.1046 -0.4450  0.2628
 5934TIP3    H117808   0.339   3.253   0.482  0.0089  0.1227  0.4495
 5934TIP3    H217809   0.434   3.243   0.364 -0.2186 -0.6921  0.3329
 5935TIP3   OH217810   2.982   2.077   3.509 -0.9200 -0.6760  0.1047
 5935TIP3    H117811   2.924   2.095   3.583 -0.7698 -2.2066  0.6321
 5935TIP3    H217812   3.049   2.018   3.544  0.3385  0.1555 -0.7672
 5936TIP3   OH217813   0.294   3.240   2.960 -0.2291 -0.1915 -0.0432
 5936TIP3    H117814   0.389   3.231   2.954 -0.1142  0.6468  0.3657
 5936TIP3    H217815   0.273   3.310   2.898 -0.4461  0.3318  0.6049
 5937TIP3   OH217816   1.139   0.291   0.605  0.1351 -0.4449  0.7193
 5937TIP3    H117817   1.075   0.235   0.649  0.7214 -0.9647  0.9357
 5937TIP3    H217818   1.097   0.377   0.600 -0.6454 -0.8208  0.6934
 5938TIP3   OH217819   4.905   0.833   5.075 -0.1739 -0.4057 -0.3559
 5938TIP3    H117820   4.862   0.823   4.990  0.3493  0.4693 -0.7429
 5938TIP3    H217821   4.856   0.777   5.134 -1.8824  0.5836 -0.7710
 5939TIP3   OH217822   1.661   2.980   3.797  0.0050 -0.3992 -0.1255
 5939TIP3    H117823   1.639   2.893   3.764  4.4482 -2.3688  1.1953
 5939TIP3    H217824   1.641   2.977   3.891 -0.5035  0.3099 -0.2001
 5940TIP3   OH217825   1.137   2.341   2.870  0.2547 -0.4254 -0.3786
 5940TIP3    H117826   1.223   2.298   2.868  0.8162  0.6721 -1.1919
 5940TIP3    H217827   1.130   2.384   2.784 -0.1097  1.3751  0.5026
 5941TIP3   OH217828   0.723   0.197   0.230 -0.2953  0.1092  1.2797
 5941TIP3    H117829   0.683   0.182   0.315 -0.8673 -0.5204  0.9095
 5941TIP3    H217830   0.757   0.112   0.204 -1.4011 -0.0509  0.2438
 5942TIP3   OH217831   2.816   5.526   2.733  0.2786 -0.4966  0.1618
 5942TIP3    H117832   2.773   5.450   2.771 -1.0824  0.2504  0.2047
 5942TIP3    H217833   2.793   5.523   2.640  0.7906 -0.4990  0.0305
 5943TIP3   OH217834   0.843   1.115   5.050 -0.3666 -0.1211  0.3925
 5943TIP3    H117835   0.856   1.066   4.969 -0.4635 -0.9287  0.8539
 5943TIP3    H217836   0.931   1.130   5.083 -0.3384 -0.0271  0.2750
 5944TIP3   OH217837   5.831   5.881   3.261 -0.1564  0.4661 -0.2763
 5944TIP3    H117838   5.897   5.902   3.327  1.6035  0.9141 -2.0488
 5944TIP3    H217839   5.787   5.964   3.243  0.1731  0.6079 -0.4548
 5945TIP3   OH217840   2.070   2.517   4.791 -0.2409  0.0206  0.4608
 5945TIP3    H117841   2.084   2.598   4.741  0.0115 -0.2895  0.0127
 5945TIP3    H217842   1.991   2.532   4.841  0.6323  1.1202  1.5603
 5946TIP3   OH217843   1.864   4.230   1.864  0.1775 -0.3226  0.0294
 5946TIP3    H117844   1.947   4.236   1.911 -0.1670  1.6719  0.4714
 5946TIP3    H217845   1.851   4.317   1.827 -2.2542 -0.2255  0.9343
 5947TIP3   OH217846   3.525   5.205   0.619 -0.1400 -0.1605  0.4967
 5947TIP3    H117847   3.569   5.147   0.681 -1.6274 -1.1427  0.6965
 5947TIP3    H217848   3.502   5.148   0.545  0.2585  0.6638 -0.2872
 5948TIP3   OH217849   4.412   2.267   1.022 -0.7210 -0.0272  0.0718
 5948TIP3    H117850   4.413   2.282   0.928 -0.3553  0.0012  0.0774
 5948TIP3    H217851   4.412   2.355   1.060 -0.5413 -0.0396  0.0999
 5949TIP3   OH217852   0.339   4.399   4.369 -0.9308 -0.4558  1.0418
 5949TIP3    H117853   0.265   4.408   4.309  0.6352 -1.5833 -1.2141
 5949TIP3    H217854   0.412   4.373   4.313  1.8304  2.8345  2.7298
 5950TIP3   OH217855   2.345   2.292   0.196  0.4201 -0.4315  0.0216
 5950TIP3    H117856   2.373   2.217   0.144 -0.9478 -2.9377  2.6265
 5950TIP3    H217857   2.273   2.331   0.146  0.7700 -1.1927 -1.1028
 5951TIP3   OH217858   5.716   5.189   0.295 -0.2027 -0.3588  0.0686
 5951TIP3    H117859   5.731   5.266   0.350 -0.9271 -0.6724  0.7429
 5951TIP3    H217860   5.642   5.144   0.337 -0.9830 -0.4545 -1.3500
 5952TIP3   OH217861   3.243   3.432   1.709  0.1740 -0.0658  0.1486
 5952TIP3    H117862   3.172   3.370   1.690  0.1912  0.2906 -1.1764
 5952TIP3    H217863   3.294   3.390   1.778  1.8800 -2.9965 -2.5944
 5953TIP3   OH217864   0.335   2.842   1.143 -0.4414 -0.0459 -0.1053
 5953TIP3    H117865   0.393   2.916   1.160  0.2051 -0.4460 -0.5300
 5953TIP3    H217866   0.276   2.873   1.074  1.3267 -0.6633 -1.9746
 5954TIP3   OH217867   0.671   0.365   3.351  0.7709  0.1031 -0.5033
 5954TIP3    H117868   0.678   0.270   3.344  0.5599  0.0710 -0.2950
 5954TIP3    H217869   0.659   0.394   3.261 -0.5024 -0.1863 -0.4573
 5955TIP3   OH217870   4.535   1.453   3.473 -0.3786  0.1163 -0.2705
 5955TIP3    H117871   4.448   1.448   3.512  0.8193  2.1606  3.0666
 5955TIP3    H217872   4.548   1.546   3.453  1.3272  0.0027  0.1332
 5956TIP3   OH217873   5.550   3.626   3.155  0.1753  0.2734  0.1469
 5956TIP3    H117874   5.511   3.708   3.124 -0.5207  0.8162  2.2949
 5956TIP3    H217875   5.483   3.560   3.139 -0.5727  0.7186  1.2813
 5957TIP3   OH217876   3.488   0.093   1.325 -0.5556 -0.4299  0.5116
 5957TIP3    H117877   3.437   0.147   1.385  0.8751  2.4708 -0.6688
 5957TIP3    H217878   3.551   0.048   1.381 -0.4037  0.8128  1.3761
 5958TIP3   OH217879   5.304   3.108   4.205 -0.5273  0.4116 -0.3172
 5958TIP3    H117880   5.370   3.142   4.144 -0.9990 -0.3194 -1.2547
 5958TIP3    H217881   5.305   3.014   4.191 -2.4478  0.4593 -1.0952
 5959TIP3   OH217882   4.153   5.751   1.342  0.2433  0.7994  0.6475
 5959TIP3    H117883   4.062   5.760   1.370 -0.1976  0.7800 -0.7042
 5959TIP3    H217884   4.152   5.680   1.278  1.5477 -0.4478  1.9499
 5960TIP3   OH217885   0.671   1.917   1.035 -0.7458  0.3983  0.0238
 5960TIP3    H117886   0.585   1.875   1.044  0.0577 -0.7945  3.6579
 5960TIP3    H217887   0.729   1.847   1.007 -0.3535  0.2858  1.0646
 5961TIP3   OH217888   2.380   5.249   2.280  0.0159  0.5718 -0.0964
 5961TIP3    H117889   2.445   5.196   2.235  1.1864  1.3807  0.5677
 5961TIP3    H217890   2.313   5.267   2.214  0.4933 -0.2172 -0.8183
 5962TIP3   OH217891   4.990   2.557   1.641  0.0425  0.2456 -0.0290
 5962TIP3    H117892   4.936   2.634   1.623 -0.0078  0.4707  1.0120
 5962TIP3    H217893   5.075   2.594   1.667  0.7761 -0.0988 -1.7586
 5963TIP3   OH217894   1.365   0.905   2.259 -0.1977  0.2385  0.1787
 5963TIP3    H117895   1.303   0.940   2.322  1.2341 -0.2428  1.9396
 5963TIP3    H217896   1.314   0.892   2.179 -2.2996 -0.0020  1.4923
 5964TIP3   OH217897   4.332   4.559   4.864 -0.6361  0.4527  0.2679
 5964TIP3    H117898   4.427   4.557   4.877 -0.5626  0.6884 -0.1721
 5964TIP3    H217899   4.320   4.535   4.772 -1.0572 -0.2823  0.5045
 5965TIP3   OH217900   5.622   4.556   2.940  0.1630  0.3513  0.4412
 5965TIP3    H117901   5.630   4.635   2.888 -0.0487  0.0649 -0.0324
 5965TIP3    H217902   5.612   4.485   2.876 -0.4804  0.0404  0.8747
 5966TIP3   OH217903   3.285   3.876   0.262 -0.3006 -0.6986  0.1822
 5966TIP3    H117904   3.261   3.787   0.236 -2.0195 -0.4181  0.7238
 5966TIP3    H217905   3.205   3.926   0.254  0.8992  1.1298 -1.2833
 5967TIP3   OH217906   0.436   2.179   2.290 -0.2344 -0.4096 -0.6666
 5967TIP3    H117907   0.474   2.092   2.284  1.1975  0.2790 -2.3261
 5967TIP3    H217908   0.491   2.225   2.354  1.6696  0.4691 -2.7903
 5968TIP3   OH217909   1.833   3.231   2.854  0.4296  0.5999 -0.0930
 5968TIP3    H117910   1.845   3.162   2.920  0.7363 -0.7430 -1.4792
 5968TIP3    H217911   1.791   3.302   2.901  0.3596 -0.4225  1.4795
 5969TIP3   OH217912   2.297   3.943   2.991  0.3564 -0.4170 -0.3132
 5969TIP3    H117913   2.211   3.945   2.948  0.8878  0.5217 -1.3686
 5969TIP3    H217914   2.292   4.010   3.059 -0.4549 -1.8410  1.0829
 5970TIP3   OH217915   1.915   1.935   2.044 -0.0186  0.5128  0.0133
 5970TIP3    H117916   1.969   1.860   2.021 -0.3577  0.3411 -0.2359
 5970TIP3    H217917   1.836   1.896   2.082 -0.8760  0.6809 -1.5244
 5971TIP3   OH217918   1.606   2.357   0.844 -0.0675  0.4589  0.0493
 5971TIP3    H117919   1.677   2.418   0.824  1.0395 -1.3016 -1.7485
 5971TIP3    H217920   1.526   2.404   0.819  0.6402  1.6224 -0.0877
 5972TIP3   OH217921   5.355   3.399   3.086  0.1346 -0.4461 -0.1709
 5972TIP3    H117922   5.288   3.375   3.149  0.9874  0.4950  1.1292
 5972TIP3    H217923   5.307   3.439   3.013 -0.6693  0.6619  0.9473
 5973TIP3   OH217924   6.085   3.940   2.168 -0.5783 -0.0358 -0.3910
 5973TIP3    H117925   6.003   3.979   2.136 -0.0146  0.8145 -0.8444
 5973TIP3    H217926   6.124   3.901   2.090 -0.0278  0.5350 -0.4151
 5974TIP3   OH217927   2.948   1.427   4.045 -0.1035 -0.6275 -0.2404
 5974TIP3    H117928   2.894   1.498   4.010  2.1668  0.5601 -1.5622
 5974TIP3    H217929   3.002   1.469   4.112 -0.5792 -1.7368  0.8777
 5975TIP3   OH217930   3.740   3.783   1.536  0.7523 -0.3211  0.3520
 5975TIP3    H117931   3.660   3.792   1.484  1.2124  0.1504 -0.2918
 5975TIP3    H217932   3.770   3.873   1.548 -0.1361 -0.2609  2.7353
 5976TIP3   OH217933   3.954   4.727   0.856  0.3753 -0.0350 -0.0412
 5976TIP3    H117934   4.007   4.695   0.783 -0.3813 -0.5747 -0.3715
 5976TIP3    H217935   4.013   4.781   0.907  1.9671 -2.6060  1.0079
 5977TIP3   OH217936   1.181   4.341   5.022  0.2708 -0.5458 -0.1389
 5977TIP3    H117937   1.229   4.311   5.100  0.6435 -0.1217 -0.1993
 5977TIP3    H217938   1.091   4.310   5.035  0.4638 -0.9860  0.1777
 5978TIP3   OH217939   0.223   4.393   2.332 -0.4926 -0.6449 -0.0168
 5978TIP3    H117940   0.255   4.470   2.381 -1.7010  0.7416 -1.3133
 5978TIP3    H217941   0.197   4.331   2.400  1.3562 -0.3109  1.0688
 5979TIP3   OH217942   3.970   3.904   3.980  0.3774  0.2428 -0.1191
 5979TIP3    H117943   3.945   3.987   4.020 -1.1017 -0.3074  0.1477
 5979TIP3    H217944   4.039   3.928   3.918 -1.2106  1.9611 -1.3465
 5980TIP3   OH217945   6.200   0.023   3.418  0.6399  0.2886 -0.2928
 5980TIP3    H117946   6.121   0.007   3.366  0.6053  0.6524 -0.3536
 5980TIP3    H217947   6.221   0.115   3.402 -1.6015  1.6552  3.4213
 5981TIP3   OH217948   0.056   0.764   1.468 -0.1483 -0.5877 -0.3848
 5981TIP3    H117949   0.054   0.778   1.562  0.3684 -0.9612 -0.3119
 5981TIP3    H217950   0.006   0.836   1.431  0.8539  0.3697  0.0915
 5982TIP3   OH217951   3.417   0.598   2.529 -0.6628  0.1748 -0.2317
 5982TIP3    H117952   3.389   0.678   2.483  1.1603  0.8614 -0.2284
 5982TIP3    H217953   3.395   0.527   2.468  0.6416  0.9685 -1.7226
 5983TIP3   OH217954   2.217   5.456   2.995 -0.4694 -0.3253 -0.0799
 5983TIP3    H117955   2.265   5.530   2.958 -0.9886  0.9433  1.6247
 5983TIP3    H217956   2.181   5.410   2.919 -1.1246  1.8708 -1.1794
 5984TIP3   OH217957   3.271   1.164   1.455 -0.0207 -0.3041 -0.0226
 5984TIP3    H117958   3.196   1.198   1.406 -0.9269 -1.6267  0.3914
 5984TIP3    H217959   3.241   1.080   1.489  1.0384 -0.0128  1.7235
 5985TIP3   OH217960   1.247   1.368   3.481 -0.1045 -0.6096 -0.2519
 5985TIP3    H117961   1.244   1.285   3.432 -0.3728 -1.0583  0.5137
 5985TIP3    H217962   1.209   1.432   3.421  0.6836 -0.9045 -1.0933
 5986TIP3   OH217963   3.971   0.176   1.876 -0.3952 -0.0890  0.2886
 5986TIP3    H117964   4.032   0.245   1.848 -0.6357 -0.1876 -0.5012
 5986TIP3    H217965   4.025   0.116   1.928 -0.0346  0.3362  0.4140
 5987TIP3   OH217966   0.138   3.971   2.790  0.0510 -0.0967 -0.0128
 5987TIP3    H117967   0.087   3.899   2.827 -1.1016  1.4029  1.4911
 5987TIP3    H217968   0.128   3.961   2.695 -1.8032 -0.7532  0.1981
 5988TIP3   OH217969   4.516   2.357   5.116 -0.1004  0.6226 -0.3015
 5988TIP3    H117970   4.597   2.310   5.134 -0.0139  1.1086  0.6437
 5988TIP3    H217971   4.539   2.419   5.047  0.5026  1.1710  0.3730
 5989TIP3   OH217972   2.581   4.796   0.570  0.6192 -0.0560 -0.0956
 5989TIP3    H117973   2.632   4.817   0.492 -0.6004  0.6327 -0.7324
 5989TIP3    H217974   2.605   4.863   0.634  0.5756  0.2130 -0.3610
 5990TIP3   OH217975   1.895   1.194   1.894  0.4686 -0.5137  0.0192
 5990TIP3    H117976   1.952   1.271   1.889 -0.8067  0.5264  0.6897
 5990TIP3    H217977   1.955   1.121   1.905  1.7876  0.2281 -1.7245
 5991TIP3   OH217978   0.799   5.324   1.968 -0.2990 -0.0784 -0.3203
 5991TIP3    H117979   0.791   5.391   2.036  1.5495  0.7605 -0.8431
 5991TIP3    H217980   0.826   5.373   1.890 -0.7447 -1.2201 -1.2195
 5992TIP3   OH217981   0.395   5.148   0.915  0.2459  0.1317 -0.3630
 5992TIP3    H117982   0.480   5.163   0.957  0.2951  0.0083 -0.4177
 5992TIP3    H217983   0.353   5.081   0.969  0.8953 -1.0797 -1.3067
 5993TIP3   OH217984   5.234   1.574   0.491 -0.4671  0.0932  0.0276
 5993TIP3    H117985   5.150   1.532   0.506 -0.2227 -1.5198 -2.4945
 5993TIP3    H217986   5.253   1.558   0.398  3.2857 -0.9526  0.7697
 5994TIP3   OH217987   3.133   1.667   1.561 -0.2673  0.1841  0.6925
 5994TIP3    H117988   3.045   1.645   1.591  0.3019 -1.8833  0.9901
 5994TIP3    H217989   3.176   1.583   1.549  0.8467  1.0248 -2.0173
 5995TIP3   OH217990   2.620   5.112   0.335 -0.6226  0.0328 -0.2537
 5995TIP3    H117991   2.675   5.130   0.259  0.1998 -3.0320 -0.4997
 5995TIP3    H217992   2.630   5.190   0.390  3.3385  0.0705 -0.6859
 5996TIP3   OH217993   5.490   4.455   0.558 -0.1956  0.0477 -0.2718
 5996TIP3    H117994   5.468   4.530   0.503  0.9028 -0.8976 -2.1004
 5996TIP3    H217995   5.551   4.490   0.624 -0.5767  0.9658 -0.3978
 5997TIP3   OH217996   3.028   4.626   3.658  0.3728  0.2011 -0.2011
 5997TIP3    H117997   2.935   4.612   3.638  0.4030 -0.8383  0.3325
 5997TIP3    H217998   3.028   4.696   3.723 -0.1343 -0.6449  0.7304
 5998TIP3   OH217999   6.279   3.328   1.957  0.1260 -0.2549  0.1014
 5998TIP3    H118000   6.192   3.288   1.946  0.1590  0.0213 -1.4148
 5998TIP3    H218001   6.336   3.279   1.897  1.0880 -0.6014  1.2732
 5999TIP3   OH218002   6.004   3.394   4.700 -0.1718 -0.6592 -0.5629
 5999TIP3    H118003   5.973   3.314   4.743  0.0319 -0.7213 -0.5296
 5999TIP3    H218004   6.019   3.455   4.772  0.1357 -0.7515 -0.5480
 6000TIP3   OH218005   4.384   0.567   2.883 -0.1941  0.4212  0.2497
 6000TIP3    H118006   4.347   0.483   2.910  0.5761  0.3072  0.9890
 6000TIP3    H218007   4.365   0.627   2.956  1.3202  0.2814  0.7904
 6001TIP3   OH218008   0.228   0.519   1.752 -0.1570 -0.2492  0.3341
 6001TIP3    H118009   0.184   0.466   1.819 -1.2146  0.6319  0.3646
 6001TIP3    H218010   0.315   0.536   1.789  0.1973 -1.8874  0.3480
 6002TIP3   OH218011   0.888   1.188   3.277 -0.1129  0.0832 -0.5558
 6002TIP3    H118012   0.954   1.127   3.310 -1.2442 -0.8097  0.1439
 6002TIP3    H218013   0.816   1.132   3.246 -0.8651  1.0345 -0.5957
 6003TIP3   OH218014   3.565   4.990   3.239  0.2951 -0.0705  0.3962
 6003TIP3    H118015   3.494   5.037   3.196 -0.3771  0.5509  2.1121
 6003TIP3    H218016   3.610   5.056   3.291  0.4445 -0.9748  1.4442
 6004TIP3   OH218017   3.568   1.983   1.762 -0.2415  0.2789  0.8702
 6004TIP3    H118018   3.614   1.908   1.799  2.0182  1.2643  0.2288
 6004TIP3    H218019   3.492   1.945   1.718  0.7196 -1.6136  0.7448
 6005TIP3   OH218020   6.046   0.544   2.502 -0.4883  0.2460 -0.4641
 6005TIP3    H118021   6.062   0.632   2.467 -0.1467  0.4423  0.1674
 6005TIP3    H218022   6.032   0.558   2.596  0.3431 -0.4549 -0.2172
 6006TIP3   OH218023   0.865   3.969   4.930  0.2253 -0.2372 -0.3429
 6006TIP3    H118024   0.841   3.905   4.997 -0.3188 -0.8077 -1.0597
 6006TIP3    H218025   0.822   3.937   4.851  0.3169  0.7802 -0.8167
 6007TIP3   OH218026   2.754   2.946   1.128  0.4587  0.8375  0.0190
 6007TIP3    H118027   2.827   2.887   1.148 -0.3074 -0.3646 -0.5590
 6007TIP3    H218028   2.718   2.969   1.213 -0.3569 -1.0516  0.2426
 6008TIP3   OH218029   5.746   2.925   4.569 -0.4519 -0.0324 -0.0170
 6008TIP3    H118030   5.663   2.968   4.550  0.2862  1.3919 -0.2002
 6008TIP3    H218031   5.741   2.840   4.525 -1.7594  0.0688 -0.0945
 6009TIP3   OH218032   2.587   3.511   1.192 -0.2099  0.2283 -0.1801
 6009TIP3    H118033   2.644   3.587   1.204 -0.3779  0.7584 -2.3493
 6009TIP3    H218034   2.541   3.502   1.275  1.5764  0.9995  0.9446
 6010TIP3   OH218035   2.490   5.262   3.318 -0.2677 -0.0933 -0.7680
 6010TIP3    H118036   2.583   5.240   3.316 -0.2600 -0.0689 -0.6820
 6010TIP3    H218037   2.460   5.246   3.229  0.0432  0.8595 -1.0601
 6011TIP3   OH218038   1.925   5.865   5.084  0.2141 -0.7748 -0.6728
 6011TIP3    H118039   1.838   5.904   5.074  1.0018  1.5858  0.7953
 6011TIP3    H218040   1.963   5.866   4.996 -0.9707 -1.1844 -1.2055
 6012TIP3   OH218041   3.009   0.661   2.660 -0.2493 -0.5354 -0.0508
 6012TIP3    H118042   2.969   0.643   2.745 -1.0044 -2.8978 -0.8196
 6012TIP3    H218043   3.056   0.743   2.673 -0.9786 -0.4063  2.4094
 6013TIP3   OH218044   2.054   2.211   1.071  0.2448 -0.6340 -0.0362
 6013TIP3    H118045   2.078   2.207   1.164 -1.5645  1.0893  0.5728
 6013TIP3    H218046   1.997   2.135   1.057  2.7095 -2.5194 -0.5290
 6014TIP3   OH218047   0.221   0.570   1.134 -0.1018 -0.0393 -0.3432
 6014TIP3    H118048   0.273   0.573   1.054  2.4695  0.9340  1.2291
 6014TIP3    H218049   0.269   0.511   1.192 -0.0067  1.8176  1.6134
 6015TIP3   OH218050   4.175   4.254   0.812  0.5860  0.0760  0.0273
 6015TIP3    H118051   4.128   4.243   0.894  0.0774  1.5590 -0.0231
 6015TIP3    H218052   4.237   4.181   0.809 -0.8188 -1.1799  0.7088
 6016TIP3   OH218053   0.812   3.568   3.009 -0.7367  0.2435 -0.2121
 6016TIP3    H118054   0.822   3.562   2.914 -0.2155  0.4758 -0.1807
 6016TIP3    H218055   0.811   3.478   3.039  0.6583  0.1627 -0.3061
 6017TIP3   OH218056   2.282   0.147   0.742  0.5155  0.0277  0.1067
 6017TIP3    H118057   2.328   0.143   0.659  0.5138 -0.2630  0.1211
 6017TIP3    H218058   2.324   0.220   0.789 -0.2197  0.9116 -0.5850
 6018TIP3   OH218059   5.183   5.088   2.435  0.2943  0.2096 -0.7215
 6018TIP3    H118060   5.217   5.006   2.401  0.5731  0.9615 -2.3890
 6018TIP3    H218061   5.229   5.156   2.384 -0.5599  1.3625 -0.0124
 6019TIP3   OH218062   2.071   1.436   1.902 -0.3337 -0.1697 -0.9947
 6019TIP3    H118063   2.133   1.469   1.837  1.8173  1.9231  1.8699
 6019TIP3    H218064   2.032   1.515   1.941  1.1501 -0.9868  2.5865
 6020TIP3   OH218065   3.262   2.082   0.851 -0.9110 -0.4392  0.1999
 6020TIP3    H118066   3.276   2.029   0.773 -0.7894  1.6816 -1.3158
 6020TIP3    H218067   3.344   2.077   0.900 -0.6680 -1.0926 -0.2719
 6021TIP3   OH218068   3.354   1.846   1.604  0.3922 -0.3815 -0.1920
 6021TIP3    H118069   3.388   1.870   1.517 -0.1139 -0.4044 -0.4021
 6021TIP3    H218070   3.291   1.777   1.586 -1.2278  0.9860 -0.0425
 6022TIP3   OH218071   4.896   0.354   4.722  0.1987  0.0068 -0.4764
 6022TIP3    H118072   4.945   0.272   4.732  0.5040  0.1396 -0.8653
 6022TIP3    H218073   4.890   0.388   4.811 -1.2764 -1.1962 -0.0766
 6023TIP3   OH218074   0.157   3.751   1.797 -0.4309 -0.3838  0.3822
 6023TIP3    H118075   0.222   3.694   1.755 -0.9589 -0.5732 -0.1798
 6023TIP3    H218076   0.113   3.795   1.725 -0.3390  0.4019  0.7965
 6024TIP3   OH218077   4.525   2.724   4.359  0.0988  0.1038 -0.0659
 6024TIP3    H118078   4.588   2.749   4.428 -0.3346  0.0780  0.3414
 6024TIP3    H218079   4.576   2.731   4.278  0.1665  1.7629  0.0808
 6025TIP3   OH218080   2.386   3.192   1.459 -0.1354 -0.9737  0.3882
 6025TIP3    H118081   2.459   3.161   1.406  0.5538 -2.3827  2.0684
 6025TIP3    H218082   2.336   3.113   1.480 -2.4148  0.0001 -1.0312
 6026TIP3   OH218083   0.801   5.076   4.412  0.4062  0.3736 -0.1920
 6026TIP3    H118084   0.765   5.163   4.397  0.6414  0.2251 -1.7964
 6026TIP3    H218085   0.821   5.074   4.505 -0.9737  1.5026  0.1549
 6027TIP3   OH218086   5.169   0.424   4.741 -0.1471 -0.7709  0.1450
 6027TIP3    H118087   5.180   0.453   4.832  0.7544  0.7485 -0.4188
 6027TIP3    H218088   5.078   0.398   4.735 -0.2282 -0.8780  1.4832
 6028TIP3   OH218089   1.105   1.458   2.043  0.2875 -0.0013 -0.4568
 6028TIP3    H118090   1.090   1.422   1.956 -0.3515  2.2371 -1.3407
 6028TIP3    H218091   1.190   1.423   2.069  0.2663 -1.1020 -1.7570
 6029TIP3   OH218092   4.053   4.596   0.240 -0.6998 -0.3751 -0.0274
 6029TIP3    H118093   4.119   4.662   0.264 -0.9024 -0.4834  0.8529
 6029TIP3    H218094   4.059   4.591   0.145 -1.3041  1.5707 -0.2111
 6030TIP3   OH218095   1.856   2.560   4.942 -0.1557 -0.2876 -0.4855
 6030TIP3    H118096   1.773   2.604   4.961 -0.1372 -0.3136 -0.3469
 6030TIP3    H218097   1.920   2.604   4.999 -0.4205 -1.5499  0.8355
 6031TIP3   OH218098   4.063   0.907   0.642  0.0347 -0.5376 -0.7133
 6031TIP3    H118099   4.035   0.998   0.648 -0.0968 -0.6190 -0.0248
 6031TIP3    H218100   4.140   0.910   0.585 -0.7435 -0.1784 -1.7811
 6032TIP3   OH218101   3.870   0.477   2.794  0.9323 -0.2205 -0.2019
 6032TIP3    H118102   3.824   0.494   2.711 -1.1888  1.4773  1.2263
 6032TIP3    H218103   3.808   0.425   2.845  0.8720  1.3783  1.4471
 6033TIP3   OH218104   5.525   4.993   0.323 -0.5566 -0.5832  0.1258
 6033TIP3    H118105   5.589   4.950   0.380  0.0054  0.2964  0.1689
 6033TIP3    H218106   5.559   4.978   0.234 -0.8315 -0.9690  0.0789
 6034TIP3   OH218107   4.190   4.385   3.224  0.0398 -0.1118  0.1450
 6034TIP3    H118108   4.265   4.393   3.283 -0.5761  2.1150  0.7232
 6034TIP3    H218109   4.192   4.294   3.195  2.8462 -0.1783  0.2748
 6035TIP3   OH218110   2.490   0.459   2.458  0.5413 -0.2633  0.0647
 6035TIP3    H118111   2.528   0.532   2.506  1.5195 -0.7020 -0.0123
 6035TIP3    H218112   2.395   0.473   2.463  0.7230  1.9723 -1.4859
 6036TIP3   OH218113   1.492   2.308   2.176  0.2435 -0.3519  0.4114
 6036TIP3    H118114   1.549   2.372   2.218 -0.2240  1.1141 -1.1041
 6036TIP3    H218115   1.460   2.351   2.097 -1.7008 -1.7338  0.3622
 6037TIP3   OH218116   6.307   0.176   0.903 -0.0249 -0.3687  0.1650
 6037TIP3    H118117   6.381   0.120   0.930  0.1848 -0.4081 -0.4766
 6037TIP3    H218118   6.233   0.116   0.898  0.1596 -0.5592 -0.3424
 6038TIP3   OH218119   4.152   3.180   2.140  0.3401  0.0120  0.1696
 6038TIP3    H118120   4.246   3.177   2.159  0.5861 -2.6170 -1.1268
 6038TIP3    H218121   4.141   3.261   2.089  1.7261  0.7764  1.0041
 6039TIP3   OH218122   3.006   1.867   3.725 -0.3172  0.4567  0.1173
 6039TIP3    H118123   3.067   1.939   3.740 -0.6822  0.6695  0.6162
 6039TIP3    H218124   3.060   1.788   3.728  0.0679  0.7019 -0.3203
 6040TIP3   OH218125   2.065   0.872   4.310 -0.0716  0.5208 -0.0599
 6040TIP3    H118126   2.145   0.908   4.273 -0.6843  2.3239  0.2859
 6040TIP3    H218127   2.020   0.832   4.236  0.2676  1.1570 -0.6158
 6041TIP3   OH218128   5.221   1.668   3.834 -0.2008 -0.3483  0.2729
 6041TIP3    H118129   5.295   1.729   3.844 -1.4247  1.3853 -0.8175
 6041TIP3    H218130   5.232   1.607   3.907  2.1402  0.0017  0.3203
 6042TIP3   OH218131   2.518   3.891   1.873 -0.1357  0.3160  0.2231
 6042TIP3    H118132   2.591   3.941   1.911  0.3426  2.7405 -3.3554
 6042TIP3    H218133   2.535   3.801   1.900  2.8036  1.1159  1.5493
 6043TIP3   OH218134   4.285   1.743   1.775  0.2977 -0.4823 -0.0816
 6043TIP3    H118135   4.253   1.692   1.701  0.5045 -0.4862 -0.1679
 6043TIP3    H218136   4.223   1.725   1.845 -0.5544  0.3843 -0.5750
 6044TIP3   OH218137   2.839   3.414   2.997 -0.0923 -0.0343  0.2243
 6044TIP3    H118138   2.864   3.348   3.063 -3.4683 -0.1765  1.5692
 6044TIP3    H218139   2.867   3.497   3.034 -0.0403 -0.3212  0.8429
 6045TIP3   OH218140   6.158   3.085   1.882  0.5725 -0.2858 -0.1356
 6045TIP3    H118141   6.172   3.061   1.790  1.6486 -1.0598  0.2081
 6045TIP3    H218142   6.169   3.003   1.930 -1.9745 -0.3093  0.5570
 6046TIP3   OH218143   2.243   4.018   0.011  0.3299 -0.1611 -0.1433
 6046TIP3    H118144   2.318   4.059  -0.031  0.9704 -2.2844 -1.2006
 6046TIP3    H218145   2.280   3.943   0.058 -0.9500 -0.3815  0.5522
 6047TIP3   OH218146   0.728   3.097   3.635 -0.1968  0.5482 -0.2144
 6047TIP3    H118147   0.738   3.185   3.671 -0.7834  0.9061 -0.9033
 6047TIP3    H218148   0.720   3.041   3.712  0.8451  0.9989  0.2472
 6048TIP3   OH218149   5.609   5.619   0.401  0.0683 -0.5772 -0.2482
 6048TIP3    H118150   5.542   5.576   0.348 -0.0939 -0.6104 -0.0156
 6048TIP3    H218151   5.649   5.548   0.451 -1.1068 -0.2922  1.1447
 6049TIP3   OH218152   4.518   4.268   5.021  0.1096 -0.4398 -0.0815
 6049TIP3    H118153   4.453   4.268   5.091  0.9378 -1.8301  0.7602
 6049TIP3    H218154   4.471   4.235   4.945 -1.1096  2.2032 -0.5643
 6050TIP3   OH218155   3.207   0.813   0.939 -0.0642 -0.4754 -0.3902
 6050TIP3    H118156   3.239   0.888   0.990 -0.6274 -0.2313 -0.3855
 6050TIP3    H218157   3.238   0.736   0.988 -1.9099 -0.2687  1.2221
 6051TIP3   OH218158   3.819   5.200   2.382  0.0489  0.7660 -0.3272
 6051TIP3    H118159   3.894   5.143   2.393  0.1570  0.4580 -2.3730
 6051TIP3    H218160   3.776   5.200   2.468  1.1919 -0.7147  0.2811
 6052TIP3   OH218161   3.465   5.150   2.815  0.4256  0.1487 -0.2923
 6052TIP3    H118162   3.464   5.246   2.811 -1.6371  0.1347 -1.4252
 6052TIP3    H218163   3.518   5.124   2.740  0.9753  0.3834  0.0061
 6053TIP3   OH218164   3.318   1.064   1.131  0.1177 -0.3950 -0.3126
 6053TIP3    H118165   3.294   1.128   1.064 -0.7262 -1.4692 -1.0654
 6053TIP3    H218166   3.400   1.098   1.168 -0.2187  1.0252 -0.7919
 6054TIP3   OH218167   5.422   5.821   3.885  0.5018 -1.0263 -0.0329
 6054TIP3    H118168   5.440   5.739   3.931  1.3870 -1.3325 -0.8887
 6054TIP3    H218169   5.509   5.854   3.861  0.2743  0.8150  1.3687
 6055TIP3   OH218170   4.029   2.569   3.452  0.0333 -0.0042 -0.2275
 6055TIP3    H118171   3.985   2.484   3.447 -0.3056  0.2336 -1.5194
 6055TIP3    H218172   4.122   2.547   3.463  0.3353 -0.6512 -3.1884
 6056TIP3   OH218173   2.765   0.807   2.455 -0.2741 -0.0058  0.3022
 6056TIP3    H118174   2.784   0.739   2.520  1.1020 -0.5615 -0.6321
 6056TIP3    H218175   2.678   0.785   2.423 -0.4632 -0.4385  1.0839
 6057TIP3   OH218176   0.190   0.377   5.022 -0.2029 -0.3546  0.1422
 6057TIP3    H118177   0.248   0.395   4.948  1.2622 -1.2285  1.0480
 6057TIP3    H218178   0.133   0.307   4.990 -1.2542  0.9352 -0.9669
 6058TIP3   OH218179   1.975   0.412   2.121 -0.0594 -0.6040 -0.0729
 6058TIP3    H118180   1.890   0.447   2.094 -0.1494 -0.7231  0.0510
 6058TIP3    H218181   1.996   0.346   2.055  0.2772 -0.0727 -0.5016
 6059TIP3   OH218182   3.644   3.566   1.701 -0.3906  0.3524  0.3790
 6059TIP3    H118183   3.609   3.498   1.643  2.5850 -0.3793 -0.7070
 6059TIP3    H218184   3.691   3.626   1.644 -2.3161  3.0768  1.4113
 6060TIP3   OH218185   5.301   0.651   2.092  0.4998 -0.4458 -0.4233
 6060TIP3    H118186   5.248   0.730   2.101  1.0091 -0.1335 -0.1285
 6060TIP3    H218187   5.385   0.682   2.060 -0.0019 -1.1213 -2.5020
 6061TIP3   OH218188   1.377   3.693   5.063 -0.8795  0.5189 -0.3753
 6061TIP3    H118189   1.428   3.696   4.982  0.9113 -0.2778  0.6538
 6061TIP3    H218190   1.421   3.627   5.117 -2.9006 -0.0438  0.6920
 6062TIP3   OH218191   3.978   0.436   4.416 -0.2415  0.6217  0.2554
 6062TIP3    H118192   3.925   0.359   4.395 -1.2511  1.3305  0.1561
 6062TIP3    H218193   3.924   0.486   4.477  0.7657  0.8352  1.0017
 6063TIP3   OH218194   0.844   4.281   0.380 -0.7286 -0.2486 -0.2940
 6063TIP3    H118195   0.802   4.364   0.355  0.3544 -0.0218 -1.4648
 6063TIP3    H218196   0.789   4.214   0.339 -1.0823 -0.0640 -0.1258
 6064TIP3   OH218197   4.607   0.612   4.177  0.0427 -0.1126  0.4638
 6064TIP3    H118198   4.581   0.634   4.088  1.6807  2.1755  0.4315
 6064TIP3    H218199   4.688   0.563   4.167 -0.7558 -1.5167  0.6871
 6065TIP3   OH218200   5.883   4.766   1.532 -0.3400  0.3105 -0.7201
 6065TIP3    H118201   5.824   4.692   1.548 -2.0819  1.6140 -0.7804
 6065TIP3    H218202   5.834   4.842   1.563  2.3299  1.2597  1.6146
 6066TIP3   OH218203   1.821   4.774   1.397  0.1477 -0.2059 -0.5425
 6066TIP3    H118204   1.844   4.867   1.400  1.8563 -0.5793 -0.9673
 6066TIP3    H218205   1.734   4.771   1.357 -0.1382  1.2257 -0.0743
 6067TIP3   OH218206   0.212   1.852   1.792 -0.3651 -0.0535  0.0341
 6067TIP3    H118207   0.180   1.779   1.845  1.6780 -1.2391 -0.2520
 6067TIP3    H218208   0.299   1.871   1.828  0.3023  0.3343 -1.6810
 6068TIP3   OH218209   5.278   2.555   0.870 -0.1357  0.3491 -0.3068
 6068TIP3    H118210   5.183   2.546   0.856 -0.1630  0.3866 -0.1387
 6068TIP3    H218211   5.301   2.483   0.928 -0.0005  0.1332 -0.6200
 6069TIP3   OH218212   4.183   5.501   0.470  0.0087 -0.0158 -0.4834
 6069TIP3    H118213   4.235   5.431   0.431  0.3531  0.3647 -0.7164
 6069TIP3    H218214   4.134   5.459   0.540  1.0833 -0.2703  0.1341
 6070TIP3   OH218215   0.112   1.211   4.158 -0.0474 -0.1302  0.0118
 6070TIP3    H118216   0.131   1.209   4.252  0.6120  0.5280 -0.0925
 6070TIP3    H218217   0.016   1.213   4.153 -0.2053 -2.9691  0.5700
 6071TIP3   OH218218   1.573   4.280   0.479  0.0558 -0.1862  0.4938
 6071TIP3    H118219   1.648   4.336   0.500  0.8935 -0.6599 -1.0565
 6071TIP3    H218220   1.521   4.332   0.417  0.2554 -0.6906 -0.1057
 6072TIP3   OH218221   6.290   3.181   4.863 -0.2955  0.4299 -0.2678
 6072TIP3    H118222   6.328   3.187   4.950 -0.8540 -1.8996  0.1939
 6072TIP3    H218223   6.272   3.272   4.839  0.2529  1.1617  1.8517
 6073TIP3   OH218224   4.891   4.660   0.530  0.5684 -0.2388  0.6141
 6073TIP3    H118225   4.886   4.651   0.435 -1.2359 -1.0105  0.7313
 6073TIP3    H218226   4.853   4.578   0.564 -1.3185  1.0934  1.9444
 6074TIP3   OH218227   4.408   4.515   1.779  0.5581 -0.3721  0.1394
 6074TIP3    H118228   4.465   4.518   1.702  1.4867  0.3578  0.8252
 6074TIP3    H218229   4.467   4.532   1.853 -0.8764  3.1360  0.6916
 6075TIP3   OH218230   0.997   5.268   1.505  0.0854 -0.0547  0.4318
 6075TIP3    H118231   1.093   5.276   1.507  0.1552 -0.6231 -0.1860
 6075TIP3    H218232   0.976   5.212   1.579  0.2829 -0.3941  0.2306
 6076TIP3   OH218233   5.991   4.377   3.549  0.0982 -0.0911  0.1143
 6076TIP3    H118234   5.993   4.471   3.567  0.8974 -0.2922  1.1419
 6076TIP3    H218235   5.939   4.370   3.469  0.3398  1.2563 -0.1944
 6077TIP3   OH218236   2.824   0.708   3.381 -0.0513 -0.2009  0.4252
 6077TIP3    H118237   2.834   0.613   3.371 -1.2148 -0.2413 -0.6606
 6077TIP3    H218238   2.913   0.742   3.385  0.4028 -1.2252 -0.4713
 6078TIP3   OH218239   5.951   5.876   0.825 -0.4684 -0.4290  0.0496
 6078TIP3    H118240   5.901   5.816   0.879 -1.3295 -1.2074 -1.5247
 6078TIP3    H218241   5.886   5.920   0.770  0.4866 -1.2604 -1.8496
 6079TIP3   OH218242   2.149   3.556   0.440 -0.5926  0.5773  0.0336
 6079TIP3    H118243   2.191   3.545   0.526  0.9991  0.4692 -0.7366
 6079TIP3    H218244   2.204   3.508   0.379 -1.1935  1.4034 -1.2111
 6080TIP3   OH218245   1.102   0.962   0.468 -0.2548 -0.0094 -0.3985
 6080TIP3    H118246   1.043   1.006   0.529  0.3233 -1.0794  0.9910
 6080TIP3    H218247   1.044   0.912   0.411 -0.8758  1.9208 -1.5410
 6081TIP3   OH218248   2.279   3.860   1.741 -0.2834  0.0274  0.3501
 6081TIP3    H118249   2.253   3.828   1.828  1.2358 -1.4435  0.3095
 6081TIP3    H218250   2.365   3.898   1.754  0.0831 -0.4642 -0.5608
 6082TIP3   OH218251   4.611   4.694   3.266  0.5065  0.4301  0.1760
 6082TIP3    H118252   4.589   4.604   3.244 -1.0668  0.7960  0.1123
 6082TIP3    H218253   4.617   4.739   3.182  0.2497  0.6093  0.2539
 6083TIP3   OH218254   4.119   0.765   1.776 -0.0509 -0.0674  0.1359
 6083TIP3    H118255   4.139   0.850   1.816  2.0685 -0.3339 -0.2303
 6083TIP3    H218256   4.152   0.773   1.687 -0.4453 -1.0434 -0.1013
 6084TIP3   OH218257   2.462   1.673   3.595  0.0305 -0.0646 -0.3741
 6084TIP3    H118258   2.438   1.697   3.685  0.5218 -1.4144  0.1478
 6084TIP3    H218259   2.552   1.703   3.585 -0.3451  0.9730 -0.7780
 6085TIP3   OH218260   3.049   0.011   3.940  0.7399  0.3838 -0.3842
 6085TIP3    H118261   2.954  -0.002   3.931  0.6678 -0.8997  1.5336
 6085TIP3    H218262   3.080   0.028   3.852 -1.2482  0.5875 -1.0906
 6086TIP3   OH218263   1.485   4.336   4.966  0.3207 -0.5495  0.7498
 6086TIP3    H118264   1.406   4.382   4.998  0.8283 -0.4863  1.9904
 6086TIP3    H218265   1.451   4.261   4.918 -0.5079  0.2534  0.0388
 6087TIP3   OH218266   2.859   2.689   3.614 -0.1753 -0.2407  0.0941
 6087TIP3    H118267   2.812   2.639   3.548  0.2321 -0.4332 -0.0531
 6087TIP3    H218268   2.938   2.720   3.569  0.9171 -1.7099  0.9095
 6088TIP3   OH218269   3.763   3.484   1.236 -0.2117  0.2733 -0.3157
 6088TIP3    H118270   3.817   3.532   1.173 -0.9048  0.3616 -0.8589
 6088TIP3    H218271   3.690   3.543   1.255 -0.0916  0.1821  0.4561
 6089TIP3   OH218272   2.336   3.425   4.507 -0.6514 -0.4245 -0.3609
 6089TIP3    H118273   2.374   3.399   4.424 -0.4024 -0.5050 -0.2228
 6089TIP3    H218274   2.242   3.408   4.497 -0.7237  0.2437 -0.8786
 6090TIP3   OH218275   3.631   0.867   0.310 -0.1169 -0.6696 -0.4772
 6090TIP3    H118276   3.560   0.876   0.373  2.6281  1.1297  2.6474
 6090TIP3    H218277   3.689   0.800   0.347  0.9837 -0.4334 -1.6825
 6091TIP3   OH218278   6.017   5.668   0.629  0.3022 -0.3151  0.0400
 6091TIP3    H118279   5.968   5.720   0.566 -0.9242  0.6465  1.7107
 6091TIP3    H218280   6.037   5.729   0.701  1.4122 -1.4336  0.7296
 6092TIP3   OH218281   5.688   3.760   1.451  0.1205  0.0608 -0.0565
 6092TIP3    H118282   5.771   3.734   1.409  1.2374  0.7416  1.6018
 6092TIP3    H218283   5.689   3.713   1.535 -0.1929  1.6249  0.8571
 6093TIP3   OH218284   2.810   0.399   3.399 -0.6935  0.3258  0.2219
 6093TIP3    H118285   2.729   0.388   3.349 -0.1150  2.4179 -1.3228
 6093TIP3    H218286   2.865   0.325   3.372 -0.7564  0.8781 -1.5822
 6094TIP3   OH218287   4.784   0.150   3.638 -0.0738  0.1097  0.2063
 6094TIP3    H118288   4.817   0.140   3.728  1.9099  0.3491 -0.4372
 6094TIP3    H218289   4.731   0.072   3.623  0.4164 -0.4456  1.2404
 6095TIP3   OH218290   3.388   1.933   1.085  0.1312  0.2521  0.0807
 6095TIP3    H118291   3.354   1.855   1.040 -0.1571  1.0815 -1.1936
 6095TIP3    H218292   3.483   1.924   1.079  0.1212 -0.3370  0.5813
 6096TIP3   OH218293   3.624   3.669   0.966 -0.5672 -0.5150 -0.3393
 6096TIP3    H118294   3.563   3.733   0.929 -1.5555 -1.3343 -0.1828
 6096TIP3    H218295   3.647   3.613   0.892  1.4812  0.8465 -0.8341
 6097TIP3   OH218296   4.868   1.774   1.897  0.0398  0.2155  0.2669
 6097TIP3    H118297   4.797   1.834   1.920  0.6206  1.1980 -0.4604
 6097TIP3    H218298   4.884   1.789   1.804  2.0792  0.9769  0.6947
 6098TIP3   OH218299   5.215   0.732   1.328  0.0958 -0.8621 -0.1830
 6098TIP3    H118300   5.139   0.691   1.286 -0.4092  0.7015 -0.8873
 6098TIP3    H218301   5.276   0.749   1.257 -0.0614  0.3081 -0.0708
 6099TIP3   OH218302   0.996   3.083   2.002 -0.5650  0.2622 -0.0798
 6099TIP3    H118303   1.061   3.154   2.011 -0.8724  0.4315  0.9089
 6099TIP3    H218304   1.036   3.009   2.048 -1.2582  0.5053  0.9409
 6100TIP3   OH218305   0.742   1.116   0.168 -0.3539  0.3355 -0.2019
 6100TIP3    H118306   0.706   1.028   0.179  1.5434 -0.7283 -1.9341
 6100TIP3    H218307   0.749   1.127   0.074 -0.7632  2.4853 -0.0208
 6101TIP3   OH218308   6.361   4.808   1.423 -0.3157  0.3765  0.0809
 6101TIP3    H118309   6.333   4.838   1.337 -0.0611  0.8772  0.1660
 6101TIP3    H218310   6.282   4.815   1.477 -0.5802 -0.3231 -0.1993
 6102TIP3   OH218311   1.877   3.398   0.831  0.1778 -0.1043 -0.2492
 6102TIP3    H118312   1.893   3.453   0.908  0.2926  1.1421 -1.1390
 6102TIP3    H218313   1.816   3.449   0.778 -0.3559 -1.2069 -0.7392
 6103TIP3   OH218314   3.594   4.634   2.927 -0.6018  0.3344  0.3501
 6103TIP3    H118315   3.559   4.721   2.908 -1.6362 -0.1204  0.0816
 6103TIP3    H218316   3.536   4.600   2.997 -0.0407 -0.0289  0.6481
 6104TIP3   OH218317   5.702   3.651   1.764  0.5782 -0.4770  0.2524
 6104TIP3    H118318   5.795   3.664   1.783  0.7007 -0.3007 -0.4485
 6104TIP3    H218319   5.676   3.581   1.823  1.9013 -2.6989 -1.6076
 6105TIP3   OH218320   3.425   4.685   3.958 -0.1667 -0.4928  0.1766
 6105TIP3    H118321   3.401   4.759   4.014 -0.1066 -0.2255 -0.1496
 6105TIP3    H218322   3.515   4.663   3.985  0.4355  0.6146 -0.8426
 6106TIP3   OH218323   4.937   2.433   2.280 -0.5464  0.3271 -0.7389
 6106TIP3    H118324   4.878   2.362   2.307 -0.2812 -0.2853 -1.7442
 6106TIP3    H218325   4.893   2.513   2.309 -1.1901 -0.2000 -0.2279
 6107TIP3   OH218326   4.363   4.039   0.830  0.3817  0.0102  0.5992
 6107TIP3    H118327   4.425   3.983   0.785  1.4337  0.8241  1.0041
 6107TIP3    H218328   4.378   4.022   0.923 -0.9339 -0.7623  0.6969
 6108TIP3   OH218329   5.790   4.785   0.897  0.4136 -0.0693  0.0788
 6108TIP3    H118330   5.813   4.706   0.947  0.6763 -0.4026 -0.5613
 6108TIP3    H218331   5.791   4.855   0.962  0.3760 -0.5598  0.6173
 6109TIP3   OH218332   2.645   3.669   4.446  0.4593 -0.0945  0.5462
 6109TIP3    H118333   2.693   3.742   4.486 -0.5226  0.3629  0.9065
 6109TIP3    H218334   2.561   3.666   4.492 -0.3210 -0.1547 -0.8263
 6110TIP3   OH218335   1.891   4.469   4.735  0.2466 -0.2963  0.0654
 6110TIP3    H118336   1.896   4.390   4.682  0.0984  0.2630 -0.8070
 6110TIP3    H218337   1.925   4.443   4.821  1.0101 -1.0841 -0.4616
 6111TIP3   OH218338   0.391   5.860   0.783 -0.4078 -0.1300 -0.0335
 6111TIP3    H118339   0.447   5.846   0.859  0.4717  0.6557 -0.4953
 6111TIP3    H218340   0.303   5.867   0.818  0.2058  2.7552  1.3061
 6112TIP3   OH218341   3.809   4.272   2.586 -0.2261  0.0168 -0.5156
 6112TIP3    H118342   3.887   4.217   2.575 -0.7056 -0.9752  0.7958
 6112TIP3    H218343   3.841   4.350   2.631 -0.0284 -0.5811  0.4229
 6113TIP3   OH218344   2.423   3.505   3.887  0.5845 -0.2721  0.5764
 6113TIP3    H118345   2.481   3.444   3.931  0.8908  0.3175  1.0009
 6113TIP3    H218346   2.421   3.475   3.796  0.1343 -1.3543  0.9324
 6114TIP3   OH218347   3.979   5.738   0.148  0.2060  0.2354  0.0315
 6114TIP3    H118348   3.989   5.754   0.054  0.2661 -0.2131 -0.0419
 6114TIP3    H218349   3.991   5.824   0.188 -1.4149  0.7368 -0.4856
 6115TIP3   OH218350   4.819   0.135   2.135 -0.0429 -0.2289 -0.3761
 6115TIP3    H118351   4.892   0.076   2.119  1.4375  1.5745 -0.6587
 6115TIP3    H218352   4.838   0.172   2.221 -0.5419  0.3641 -0.5176
 6116TIP3   OH218353   1.985   5.671   0.431  0.2821  0.0155 -0.3774
 6116TIP3    H118354   1.978   5.594   0.374 -1.0304 -1.8162  2.0616
 6116TIP3    H218355   1.907   5.722   0.411 -0.7099 -1.1341  0.4189
 6117TIP3   OH218356   0.317   3.148   0.788 -0.5431  0.0420  0.2195
 6117TIP3    H118357   0.303   3.056   0.764 -0.8814 -0.0451  0.7380
 6117TIP3    H218358   0.246   3.168   0.848 -1.1858  1.0067 -0.8298
 6118TIP3   OH218359   3.695   2.074   3.514  0.0724  0.0261  0.1957
 6118TIP3    H118360   3.608   2.042   3.488 -0.5680  1.3854  0.5573
 6118TIP3    H218361   3.713   2.145   3.453  0.6035  0.2365  0.5951
 6119TIP3   OH218362   0.084   3.341   0.777 -0.4945 -0.3564  0.8180
 6119TIP3    H118363   0.145   3.323   0.706 -0.7607  0.8605  0.2472
 6119TIP3    H218364   0.024   3.407   0.741 -1.0037 -0.1588  1.9692
 6120TIP3   OH218365   3.687   4.251   0.286 -0.4884 -0.2098  0.1376
 6120TIP3    H118366   3.628   4.180   0.313  0.1886 -0.2433  1.6708
 6120TIP3    H218367   3.754   4.207   0.234 -0.7129 -0.5069  0.0943
 6121TIP3   OH218368   1.280   3.553   0.891 -0.1582 -0.5338  0.3826
 6121TIP3    H118369   1.223   3.496   0.839 -2.2491  2.1706 -0.5172
 6121TIP3    H218370   1.241   3.554   0.978  0.9493 -1.8138  0.9336
 6122TIP3   OH218371   5.904   0.377   2.715 -0.0488 -0.4663 -0.5441
 6122TIP3    H118372   5.822   0.425   2.725 -0.4098 -1.0159 -0.8348
 6122TIP3    H218373   5.972   0.442   2.732 -0.5425  0.0108 -0.3763
 6123TIP3   OH218374   0.341   3.635   4.913 -0.0281  0.3441 -0.2407
 6123TIP3    H118375   0.386   3.631   4.828  0.6802 -0.7591  0.1516
 6123TIP3    H218376   0.407   3.669   4.973 -0.0956 -0.1150  0.1046
 6124TIP3   OH218377   1.743   3.118   0.716  0.4064 -0.2715  0.3968
 6124TIP3    H118378   1.807   3.058   0.678  1.2626  0.3877  0.7666
 6124TIP3    H218379   1.758   3.201   0.670 -0.8461 -0.3612 -0.1990
 6125TIP3   OH218380   0.433   1.755   1.931 -0.5807 -0.9735  0.4962
 6125TIP3    H118381   0.398   1.672   1.899  0.6290 -1.3458  0.0631
 6125TIP3    H218382   0.507   1.774   1.872 -0.0089 -0.2798  1.4064
 6126TIP3   OH218383   4.055   2.156   4.202 -0.8220  0.3226 -0.4519
 6126TIP3    H118384   4.081   2.140   4.293  0.5263 -0.5161 -0.9571
 6126TIP3    H218385   3.967   2.118   4.195 -0.4245 -0.7665  0.1841
 6127TIP3   OH218386   3.347   4.531   2.422  0.0711 -0.0732 -0.3294
 6127TIP3    H118387   3.323   4.585   2.498 -0.2639  1.5026 -1.5056
 6127TIP3    H218388   3.278   4.465   2.417 -1.1103  1.1268 -0.5042
 6128TIP3   OH218389   3.494   2.730   1.521  0.4350  0.2479  0.5770
 6128TIP3    H118390   3.588   2.725   1.542  0.3952 -0.5929  0.6150
 6128TIP3    H218391   3.484   2.669   1.447  0.0692  0.9957  0.0032
 6129TIP3   OH218392   3.916   5.920   3.856 -0.0714  0.2379 -0.0598
 6129TIP3    H118393   3.852   5.954   3.793  0.2228 -0.4423 -0.7359
 6129TIP3    H218394   4.001   5.932   3.813  0.3955  2.0845  1.2443
 6130TIP3   OH218395   5.223   0.421   1.203  0.2327 -0.0590  0.2095
 6130TIP3    H118396   5.220   0.334   1.245  0.3059  0.6090  1.6773
 6130TIP3    H218397   5.316   0.437   1.189  0.2716  0.0796  0.6115
 6131TIP3   OH218398   4.093   2.914   1.655  0.0286 -0.3721 -0.6411
 6131TIP3    H118399   4.055   2.864   1.727 -0.0958 -1.7582 -1.6305
 6131TIP3    H218400   4.136   2.849   1.600 -0.3107  0.5749 -2.0921
 6132TIP3   OH218401   4.674   0.972   0.864 -0.1292 -0.3149 -0.4069
 6132TIP3    H118402   4.616   1.011   0.928  1.0036  0.9599 -0.1020
 6132TIP3    H218403   4.723   0.906   0.913  0.0440 -0.0258 -0.1850
 6133TIP3   OH218404   3.708   3.524   3.476 -0.1988 -0.5919 -0.3642
 6133TIP3    H118405   3.742   3.446   3.519  1.4362  1.1930  1.8045
 6133TIP3    H218406   3.771   3.541   3.405  0.8574  0.0422  0.6808
 6134TIP3   OH218407   1.308   0.766   0.532 -0.1354  0.7562  0.2699
 6134TIP3    H118408   1.301   0.763   0.627  3.2450  1.5366  0.6945
 6134TIP3    H218409   1.235   0.820   0.503 -0.9942  0.8543  2.4636
 6135TIP3   OH218410   1.948   0.087   2.371  0.0172 -0.6243  0.1533
 6135TIP3    H118411   1.923  -0.002   2.345  2.2403 -1.3832  0.3707
 6135TIP3    H218412   2.000   0.075   2.450  0.2059  0.9058  0.2927
 6136TIP3   OH218413   1.884   2.709   3.222 -0.0685 -0.4176 -0.2827
 6136TIP3    H118414   1.940   2.671   3.290  1.2876  0.8410 -0.6434
 6136TIP3    H218415   1.829   2.636   3.193  0.6974 -1.4601  0.7803
 6137TIP3   OH218416   1.140   4.356   1.185  0.5458 -0.1316  0.5757
 6137TIP3    H118417   1.111   4.312   1.105 -0.6953  0.7255  0.5305
 6137TIP3    H218418   1.146   4.448   1.161 -0.2415  0.1971  1.5698
 6138TIP3   OH218419   3.404   3.548   4.977 -0.5438  0.0863  0.4635
 6138TIP3    H118420   3.457   3.625   4.997 -0.6443  0.1646  0.4305
 6138TIP3    H218421   3.320   3.565   5.020 -0.1871 -0.5289  1.4476
 6139TIP3   OH218422   1.540   4.794   4.689 -0.2548 -0.0205 -0.0030
 6139TIP3    H118423   1.541   4.875   4.638  0.4827  0.2421  0.4236
 6139TIP3    H218424   1.631   4.764   4.688 -0.4839 -0.7296  0.0305
 6140TIP3   OH218425   0.693   0.710   2.992 -0.0165 -0.1993  0.2008
 6140TIP3    H118426   0.632   0.688   2.921 -2.1972 -1.9479  2.4251
 6140TIP3    H218427   0.645   0.773   3.046  0.4293 -0.9661  1.5427
 6141TIP3   OH218428   1.382   5.086   3.021 -0.2917 -0.1939 -0.0234
 6141TIP3    H118429   1.328   5.056   2.947  0.3706  2.0810 -1.5379
 6141TIP3    H218430   1.457   5.128   2.980  1.0837 -0.5390  2.0270
 6142TIP3   OH218431   5.085   3.083   1.005 -0.3960  0.1352 -0.0138
 6142TIP3    H118432   5.075   3.072   0.910 -0.5783 -1.7565  0.1786
 6142TIP3    H218433   5.036   3.162   1.026  0.8019  1.3992 -1.6737
 6143TIP3   OH218434   6.074   5.666   2.866  0.1127  0.1523 -0.3922
 6143TIP3    H118435   6.113   5.631   2.946 -1.4789 -0.5304  0.1293
 6143TIP3    H218436   6.094   5.760   2.868 -0.0160  0.1666  0.8829
 6144TIP3   OH218437   2.239   5.829   0.141  0.0090 -0.2510 -0.5244
 6144TIP3    H118438   2.169   5.828   0.076  0.5508  0.3559 -1.1277
 6144TIP3    H218439   2.214   5.899   0.201 -0.7593 -1.1539  0.2421
 6145TIP3   OH218440   3.067   5.212   1.101 -0.0371  0.3759 -0.0125
 6145TIP3    H118441   3.161   5.211   1.085 -0.2098 -0.9048 -1.0836
 6145TIP3    H218442   3.031   5.269   1.032  0.0842  2.2657  1.4171
 6146TIP3   OH218443   3.242   5.731   0.633 -0.0449  0.6091 -0.1010
 6146TIP3    H118444   3.252   5.819   0.596  2.0955  0.3097 -0.3643
 6146TIP3    H218445   3.303   5.729   0.707  0.0749 -0.6815 -0.2066
 6147TIP3   OH218446   1.226   4.986   3.250  0.6176 -0.3261  0.1288
 6147TIP3    H118447   1.288   4.994   3.178  0.2214 -0.9395 -0.2894
 6147TIP3    H218448   1.193   5.075   3.263  1.4278 -0.0304  0.2276
 6148TIP3   OH218449   3.753   3.797   3.854  0.0299 -0.4651 -0.0614
 6148TIP3    H118450   3.674   3.781   3.906 -0.2041 -0.8220 -0.5233
 6148TIP3    H218451   3.815   3.834   3.917 -1.1933  1.8574 -0.1367
 6149TIP3   OH218452   0.343   3.080   4.933 -0.5147  0.0048 -0.4324
 6149TIP3    H118453   0.283   3.068   4.860 -0.6401 -0.5989 -0.2413
 6149TIP3    H218454   0.392   3.159   4.912 -0.9201  0.1334 -0.9079
 6150TIP3   OH218455   1.762   5.567   1.750 -0.1354 -0.4541  0.1327
 6150TIP3    H118456   1.687   5.627   1.742 -0.8933 -0.8738  2.9108
 6150TIP3    H218457   1.837   5.619   1.722 -1.1057  0.9574  0.0024
 6151TIP3   OH218458   1.606   2.661   5.008  0.1501 -0.0540  0.2017
 6151TIP3    H118459   1.599   2.616   5.092  0.6435 -1.7568 -0.6046
 6151TIP3    H218460   1.520   2.651   4.968  0.0761  0.2616  0.2865
 6152TIP3   OH218461   0.557   2.552   2.486 -0.2429 -0.3209  0.2335
 6152TIP3    H118462   0.524   2.479   2.433  1.2461 -2.7725  2.4387
 6152TIP3    H218463   0.485   2.571   2.547 -1.4709  1.6605 -1.6806
 6153TIP3   OH218464   0.380   0.199   3.446 -0.0075  0.1872  0.5484
 6153TIP3    H118465   0.462   0.177   3.490  0.6230  0.5215 -0.4518
 6153TIP3    H218466   0.399   0.190   3.353 -1.0914  0.3313  0.3018
 6154TIP3   OH218467   4.380   5.329   1.672 -0.3572  0.7805  0.0792
 6154TIP3    H118468   4.317   5.291   1.611 -0.1814  0.3744  0.1425
 6154TIP3    H218469   4.400   5.416   1.636 -0.3249  0.5805 -0.3925
 6155TIP3   OH218470   0.246   1.344   2.737  0.4607 -0.5204  0.1173
 6155TIP3    H118471   0.268   1.417   2.680  0.3108 -1.2943 -0.9589
 6155TIP3    H218472   0.157   1.320   2.711  0.5570 -1.1655  0.3657
 6156TIP3   OH218473   3.851   3.589   1.887 -0.2527  0.3533  0.1554
 6156TIP3    H118474   3.780   3.612   1.827 -0.1035  0.0785 -0.1302
 6156TIP3    H218475   3.809   3.580   1.973 -0.4980  0.5722  0.0589
 6157TIP3   OH218476   3.503   3.330   4.068 -0.2360 -0.1535  0.0043
 6157TIP3    H118477   3.554   3.382   4.129  0.0373  1.8477 -1.8357
 6157TIP3    H218478   3.568   3.283   4.016 -0.4057 -0.4476  0.0543
 6158TIP3   OH218479   6.315   5.418   1.042  0.2131 -0.4565 -0.0999
 6158TIP3    H118480   6.300   5.460   0.957 -0.5732 -0.0691  0.2203
 6158TIP3    H218481   6.409   5.398   1.042  0.5021  0.8059 -0.4880
 6159TIP3   OH218482   4.374   4.122   2.203 -0.5908 -0.5134  0.2081
 6159TIP3    H118483   4.448   4.070   2.235 -0.2033 -1.1600 -1.6097
 6159TIP3    H218484   4.307   4.112   2.271  0.9734  0.1393  1.9237
 6160TIP3   OH218485   3.030   5.342   3.219  0.0346  0.6413 -0.0987
 6160TIP3    H118486   3.101   5.337   3.283  1.6653  0.6551 -1.8346
 6160TIP3    H218487   3.022   5.435   3.198 -2.0219  0.9407  1.6330
 6161TIP3   OH218488   3.796   4.119   3.245 -0.0482  0.1854 -0.4485
 6161TIP3    H118489   3.752   4.199   3.277  0.6657  0.3801  0.0666
 6161TIP3    H218490   3.749   4.048   3.288  0.0721  0.3878  0.0313
 6162TIP3   OH218491   1.918   3.078   4.720  0.3251  0.2089 -0.3894
 6162TIP3    H118492   1.892   3.136   4.792  1.0103 -1.7322  1.5335
 6162TIP3    H218493   1.836   3.046   4.684 -0.1474  3.1148 -2.3062
 6163TIP3   OH218494   4.423   2.990   3.956  0.3688 -0.4965 -0.4679
 6163TIP3    H118495   4.351   2.928   3.943 -2.6797  2.0195  2.6052
 6163TIP3    H218496   4.413   3.053   3.885 -1.3232  0.4576  0.5569
 6164TIP3   OH218497   4.247   5.187   3.766  0.0128 -0.0681 -0.1084
 6164TIP3    H118498   4.340   5.165   3.764 -0.2534 -1.4791  1.3936
 6164TIP3    H218499   4.222   5.183   3.858 -1.1562  2.1261 -0.2321
 6165TIP3   OH218500   1.792   1.230   2.142 -0.5472 -0.2114  0.0171
 6165TIP3    H118501   1.817   1.207   2.053 -0.4530  0.3842 -0.1124
 6165TIP3    H218502   1.761   1.148   2.180 -0.6948 -0.4449 -0.5965
 6166TIP3   OH218503   2.117   5.181   3.298  0.6042  0.5962  0.2093
 6166TIP3    H118504   2.127   5.086   3.310 -0.1466  0.4991  0.1212
 6166TIP3    H218505   2.184   5.219   3.355  1.8247 -0.0001 -0.7631
 6167TIP3   OH218506   2.129   1.184   3.556 -0.1849 -0.1867 -0.1344
 6167TIP3    H118507   2.138   1.174   3.650  3.0304 -0.7914 -0.3696
 6167TIP3    H218508   2.093   1.101   3.526  0.6731 -0.7790  0.4274
 6168TIP3   OH218509   0.333   0.874   2.882 -0.0710  0.1335 -0.3239
 6168TIP3    H118510   0.365   0.962   2.860 -0.0197  0.4982  1.1045
 6168TIP3    H218511   0.385   0.815   2.828  1.3360  0.8556  0.1992
 6169TIP3   OH218512   1.673   5.864   0.953 -0.8596  0.5270 -0.2687
 6169TIP3    H118513   1.752   5.813   0.934 -1.8035 -1.1970  0.2616
 6169TIP3    H218514   1.689   5.949   0.912  0.4963 -0.3992 -1.7598
 6170TIP3   OH218515   4.801   5.506   2.697  0.1216  0.2525  0.1410
 6170TIP3    H118516   4.735   5.519   2.766  0.4841  0.4514  0.4542
 6170TIP3    H218517   4.880   5.480   2.745  0.1806 -0.3089 -0.2602
 6171TIP3   OH218518   5.354   3.208   4.860  0.6417  0.5936 -0.2148
 6171TIP3    H118519   5.280   3.164   4.901 -0.0842  1.8646 -0.1031
 6171TIP3    H218520   5.428   3.149   4.872 -0.4001 -0.8179 -0.5519
 6172TIP3   OH218521   2.852   5.019   3.498 -0.1304 -0.2520  0.0633
 6172TIP3    H118522   2.844   5.081   3.571  0.8926  0.0372 -0.0554
 6172TIP3    H218523   2.817   5.065   3.423  1.1636  0.4261 -0.1468
 6173TIP3   OH218524   3.585   1.858   2.469  0.3665  0.0600  0.1581
 6173TIP3    H118525   3.639   1.845   2.391 -0.0200 -0.3662 -0.0440
 6173TIP3    H218526   3.495   1.850   2.437  0.2149 -0.6354  0.7391
 6174TIP3   OH218527   4.494   1.857   3.597 -0.2048  0.2961  0.6720
 6174TIP3    H118528   4.535   1.816   3.522  0.5209  2.0038  0.0737
 6174TIP3    H218529   4.561   1.853   3.666  2.4044  5.3891 -1.0279
 6175TIP3   OH218530   0.534   4.406   3.740  0.0838  0.5104 -0.2238
 6175TIP3    H118531   0.558   4.314   3.733 -0.4661  0.2718  0.7824
 6175TIP3    H218532   0.516   4.434   3.650 -0.1189 -0.4742 -0.4967
 6176TIP3   OH218533   4.791   3.386   0.065 -0.0251  0.4452  0.1127
 6176TIP3    H118534   4.836   3.409   0.147 -0.9638  0.0312  0.7669
 6176TIP3    H218535   4.849   3.324   0.022  0.4116  0.5483  0.5468
 6177TIP3   OH218536   3.441   2.093   4.302 -0.1477 -0.3230 -0.0448
 6177TIP3    H118537   3.378   2.154   4.264  0.8689  0.4513 -0.5425
 6177TIP3    H218538   3.465   2.133   4.386  0.7059  0.1206 -0.4835
 6178TIP3   OH218539   3.745   4.767   3.507 -0.3334 -0.8267 -0.1529
 6178TIP3    H118540   3.793   4.689   3.480 -0.5473 -0.8589 -0.4440
 6178TIP3    H218541   3.653   4.742   3.500 -0.3966 -0.6636  0.0961
 6179TIP3   OH218542   2.652   2.180   1.370 -0.0230  0.4246  0.0007
 6179TIP3    H118543   2.648   2.244   1.441 -0.3119  1.6814 -1.1057
 6179TIP3    H218544   2.719   2.117   1.399  0.1592  1.1224  1.1944
 6180TIP3   OH218545   1.078   0.361   4.791 -0.0067 -0.1131 -0.4111
 6180TIP3    H118546   1.072   0.358   4.886 -0.2059  1.5665 -0.3320
 6180TIP3    H218547   1.119   0.279   4.766  0.2837 -0.4613  1.1451
 6181TIP3   OH218548   6.045   2.764   4.369 -0.1013  0.4069 -0.0530
 6181TIP3    H118549   6.092   2.696   4.321 -0.9361 -0.1609 -0.0760
 6181TIP3    H218550   6.083   2.761   4.457 -0.7723 -0.7462  0.2169
 6182TIP3   OH218551   3.031   4.934   3.304  0.2441 -0.1690 -0.0453
 6182TIP3    H118552   3.017   5.010   3.248  0.3172  0.4509  0.7607
 6182TIP3    H218553   3.007   4.964   3.391  2.4116 -0.3938  0.6690
 6183TIP3   OH218554   4.499   1.257   2.935  0.1256  0.5386 -0.3942
 6183TIP3    H118555   4.447   1.259   2.855  0.2055 -1.6435 -0.5507
 6183TIP3    H218556   4.524   1.166   2.945 -1.7543  0.2483  3.3138
 6184TIP3   OH218557   1.620   1.936   4.719  0.0718 -0.1806 -0.2530
 6184TIP3    H118558   1.586   1.865   4.665 -1.0823 -0.3323  0.6449
 6184TIP3    H218559   1.648   1.894   4.800  1.2196  0.1343 -0.4652
 6185TIP3   OH218560   2.230   4.488   4.423  0.1457  0.0176 -0.1515
 6185TIP3    H118561   2.159   4.535   4.379 -2.1655 -0.6385  2.5996
 6185TIP3    H218562   2.244   4.410   4.369 -0.4458  0.6959 -1.3310
 6186TIP3   OH218563   3.526   3.589   0.049 -0.5647  0.1685  0.1979
 6186TIP3    H118564   3.596   3.590   0.115 -1.3877  0.0310  1.0834
 6186TIP3    H218565   3.573   3.595  -0.034  0.5741 -0.8311  0.7282
 6187TIP3   OH218566   1.635   0.872   1.335 -0.1762 -0.0396  0.0671
 6187TIP3    H118567   1.691   0.925   1.392 -0.5168  0.7960 -0.3634
 6187TIP3    H218568   1.551   0.870   1.380 -0.0329 -0.6165  0.3142
 6188TIP3   OH218569   3.656   2.720   3.613  0.0659 -0.5348 -0.6455
 6188TIP3    H118570   3.639   2.790   3.551  0.5713 -0.9231 -1.2334
 6188TIP3    H218571   3.651   2.640   3.561  1.6176 -0.7925 -0.4237
 6189TIP3   OH218572   1.645   4.061   3.571  0.5566 -0.3142 -0.3026
 6189TIP3    H118573   1.687   4.122   3.510 -1.5306  0.9139 -0.6071
 6189TIP3    H218574   1.670   4.093   3.658  0.6837  0.0678 -0.4791
 6190TIP3   OH218575   4.313   3.881   0.247 -0.3365  0.1746  0.0369
 6190TIP3    H118576   4.255   3.845   0.180 -0.7430  2.7253 -1.1115
 6190TIP3    H218577   4.255   3.935   0.302  0.3295 -0.3219  1.2588
 6191TIP3   OH218578   1.761   5.797   3.891 -0.4476 -0.3778  0.4749
 6191TIP3    H118579   1.755   5.767   3.800  0.1132 -0.4448  0.4582
 6191TIP3    H218580   1.739   5.890   3.887 -0.8613 -0.4797  0.3345
 6192TIP3   OH218581   2.941   0.082   4.760  0.0460 -0.8182 -0.0534
 6192TIP3    H118582   3.012   0.018   4.759  0.4306 -0.4186  0.8436
 6192TIP3    H218583   2.874   0.043   4.817  0.4583 -0.2509  0.8366
 6193TIP3   OH218584   4.714   0.861   0.260 -0.0468 -0.1227  0.3305
 6193TIP3    H118585   4.732   0.940   0.209 -0.7072 -1.2933 -1.8273
 6193TIP3    H218586   4.628   0.878   0.300 -1.3649 -0.6052 -2.0982
 6194TIP3   OH218587   5.734   2.241   2.550  0.2088  0.2372  0.1619
 6194TIP3    H118588   5.769   2.154   2.532 -2.2767 -0.6617 -0.6886
 6194TIP3    H218589   5.762   2.294   2.475 -0.0892 -0.4047 -0.4087
 6195TIP3   OH218590   1.719   0.435   2.030 -0.0500 -0.8462  0.1765
 6195TIP3    H118591   1.653   0.469   2.090 -0.1988  0.7201 -0.8223
 6195TIP3    H218592   1.685   0.453   1.943  1.3732 -0.6114 -0.3719
 6196TIP3   OH218593   1.559   4.602   5.164  0.0784 -0.1152 -0.8842
 6196TIP3    H118594   1.645   4.560   5.165  0.5241  0.7613  0.4435
 6196TIP3    H218595   1.569   4.678   5.107  0.6301  0.7957  0.3743
 6197TIP3   OH218596   2.049   4.187   1.244  0.4663  0.1281  0.8337
 6197TIP3    H118597   2.028   4.171   1.336 -0.5251 -0.0047  0.5882
 6197TIP3    H218598   2.129   4.241   1.248  1.7077 -1.6595  1.7204
 6198TIP3   OH218599   5.893   4.189   0.511 -0.3196  0.6331 -0.0703
 6198TIP3    H118600   5.847   4.191   0.427 -0.8033  1.0118  0.1977
 6198TIP3    H218601   5.829   4.224   0.574  0.0065  0.2645  0.4678
 6199TIP3   OH218602   4.080   4.840   4.777  0.6499 -0.9945 -0.0162
 6199TIP3    H118603   4.000   4.874   4.736  0.0114 -0.6768  1.4185
 6199TIP3    H218604   4.059   4.749   4.798  0.7984 -1.0177  0.0333
 6200TIP3   OH218605   1.703   2.490   1.746  0.5373  0.1277  0.1061
 6200TIP3    H118606   1.621   2.461   1.706  1.1725 -0.8230 -0.5525
 6200TIP3    H218607   1.766   2.491   1.674  1.5702 -1.0603  0.9483
 6201TIP3   OH218608   3.990   1.365   2.158  0.2592 -0.0473 -0.1438
 6201TIP3    H118609   4.014   1.409   2.240 -0.1184 -1.3895  0.7052
 6201TIP3    H218610   3.895   1.356   2.162  0.2719 -0.4043 -0.5890
 6202TIP3   OH218611   3.237   5.135   2.026  0.1446  0.0816 -0.2466
 6202TIP3    H118612   3.183   5.141   2.105 -0.7069 -2.3309 -0.5675
 6202TIP3    H218613   3.281   5.050   2.032  0.5845  0.1354 -2.0349
 6203TIP3   OH218614   1.235   1.690   1.662  0.0408  0.2399  0.4616
 6203TIP3    H118615   1.275   1.617   1.709  2.2347  1.4460  0.5473
 6203TIP3    H218616   1.306   1.752   1.646 -1.7117  2.3408  0.2855
 6204TIP3   OH218617   4.882   5.680   4.483 -0.0004  0.3899  0.0599
 6204TIP3    H118618   4.828   5.680   4.563 -0.1522  1.8169 -0.0008
 6204TIP3    H218619   4.883   5.772   4.456  0.9693  0.0957 -0.9699
 6205TIP3   OH218620   1.438   3.310   0.647  0.5135 -0.4015 -0.1137
 6205TIP3    H118621   1.498   3.347   0.582 -0.4329  2.2420  0.3997
 6205TIP3    H218622   1.494   3.294   0.724  0.7009  1.8333  0.2892
 6206TIP3   OH218623   6.313   1.288   1.208 -0.2323 -0.2356  0.5353
 6206TIP3    H118624   6.314   1.312   1.115  1.7980 -0.4973  0.4457
 6206TIP3    H218625   6.321   1.192   1.208 -0.5639 -0.2679  0.9855
 6207TIP3   OH218626   1.463   1.303   3.740 -0.0147 -0.0554  0.1133
 6207TIP3    H118627   1.391   1.243   3.759 -0.3733 -0.2476 -1.6306
 6207TIP3    H218628   1.493   1.278   3.653  0.0381  2.0576 -0.5366
 6208TIP3   OH218629   5.332   3.997   3.530  0.3160 -0.5358  0.0980
 6208TIP3    H118630   5.266   3.951   3.583 -1.3150  3.6345  2.1607
 6208TIP3    H218631   5.385   4.043   3.595  2.5221 -0.3092 -1.7633
 6209TIP3   OH218632   6.320   1.225   1.767  0.0315  0.3648  1.0700
 6209TIP3    H118633   6.230   1.239   1.737 -0.1088 -1.5462  0.4688
 6209TIP3    H218634   6.321   1.135   1.800  1.2293  1.0185  3.0394
 6210TIP3   OH218635   4.242   1.600   4.868 -0.0674 -0.2190 -0.1977
 6210TIP3    H118636   4.260   1.681   4.917 -2.7713 -0.5775  1.5830
 6210TIP3    H218637   4.313   1.541   4.894  1.1165  1.0408 -0.3731
 6211TIP3   OH218638   2.892   0.416   1.879  0.1209  0.0305  0.1228
 6211TIP3    H118639   2.978   0.446   1.848 -0.1528  0.4877 -0.2126
 6211TIP3    H218640   2.830   0.463   1.823 -0.3112 -1.7322 -0.9431
 6212TIP3   OH218641   3.050   3.515   0.764  0.4834 -0.2627  0.0936
 6212TIP3    H118642   3.145   3.513   0.779  0.4891 -1.8375 -0.0173
 6212TIP3    H218643   3.012   3.494   0.849  0.2650 -0.5344 -0.0705
 6213TIP3   OH218644   5.196   3.608   4.583 -0.2831  0.2561 -0.7166
 6213TIP3    H118645   5.244   3.525   4.587 -0.4232  0.1925 -0.1519
 6213TIP3    H218646   5.248   3.668   4.637 -1.2604 -0.0467  0.6171
 6214TIP3   OH218647   5.184   1.975   1.771  0.2318 -0.2455 -0.4344
 6214TIP3    H118648   5.182   2.033   1.695  1.1986  0.3454 -0.0303
 6214TIP3    H218649   5.249   1.908   1.748 -0.7756 -1.1084 -0.8403
 6215TIP3   OH218650   0.360   0.154   1.931 -0.4397  0.5533 -0.1947
 6215TIP3    H118651   0.302   0.081   1.953  0.3355 -0.4316 -1.2964
 6215TIP3    H218652   0.301   0.221   1.895 -1.0964  0.2874  0.3597
 6216TIP3   OH218653   2.319   4.749   1.696 -0.1092  0.1227  0.1170
 6216TIP3    H118654   2.321   4.757   1.791 -0.1981 -1.3210  0.2573
 6216TIP3    H218655   2.344   4.658   1.679 -2.2804 -0.2911 -1.1379
 6217TIP3   OH218656   1.274   4.573   0.466  0.0470 -0.7665  0.4046
 6217TIP3    H118657   1.272   4.522   0.385  1.8445 -0.8047  0.3581
 6217TIP3    H218658   1.365   4.600   0.476 -0.7901  2.4980  0.4029
 6218TIP3   OH218659   0.069   5.404   4.010 -0.1747 -0.0341  0.2562
 6218TIP3    H118660   0.089   5.496   4.022 -0.4077  0.4683 -2.6901
 6218TIP3    H218661  -0.010   5.402   3.957  0.1091 -1.9359 -0.1955
 6219TIP3   OH218662   5.885   3.545   4.500 -0.0397  0.0859 -0.4705
 6219TIP3    H118663   5.793   3.551   4.523  0.1972 -0.1192  0.6237
 6219TIP3    H218664   5.927   3.509   4.579  1.6309  4.0678  0.6956
 6220TIP3   OH218665   3.102   3.531   4.100  0.4291  0.4932  0.6157
 6220TIP3    H118666   3.105   3.438   4.082  1.4845  0.7547 -0.7431
 6220TIP3    H218667   3.194   3.558   4.099  0.0648  2.1794 -2.8052
 6221TIP3   OH218668   5.948   4.164   2.516  0.0011 -0.2141  0.0848
 6221TIP3    H118669   5.988   4.128   2.437 -1.0391 -1.2751  0.0091
 6221TIP3    H218670   5.982   4.254   2.522  1.2811 -0.6261 -0.7016
 6222TIP3   OH218671   1.944   2.690   2.419  0.1568 -0.0641 -0.3961
 6222TIP3    H118672   1.889   2.654   2.489 -1.1336  1.4388 -0.5883
 6222TIP3    H218673   1.989   2.764   2.460 -0.1679  0.4681 -0.9965
 6223TIP3   OH218674   5.402   1.582   4.043 -0.5632 -0.4307 -0.9018
 6223TIP3    H118675   5.452   1.663   4.032 -0.4975 -0.2706  0.3494
 6223TIP3    H218676   5.335   1.605   4.108  0.3071 -1.7194  0.5248
 6224TIP3   OH218677   4.223   1.393   4.417  0.3960 -0.3160 -0.1794
 6224TIP3    H118678   4.132   1.365   4.426 -0.1569  0.9737 -1.5024
 6224TIP3    H218679   4.223   1.484   4.446  1.0917 -0.0540 -0.9707
 6225TIP3   OH218680   0.410   2.862   1.851 -0.2733 -0.2635  0.4310
 6225TIP3    H118681   0.502   2.886   1.863 -0.1362 -0.5953  0.0667
 6225TIP3    H218682   0.364   2.911   1.918  0.0738  0.5241  0.1144
 6226TIP3   OH218683   4.476   3.305   2.977 -0.4379  0.4154  0.3375
 6226TIP3    H118684   4.539   3.375   2.996  0.4542 -0.7520  1.9106
 6226TIP3    H218685   4.512   3.262   2.900 -0.6376  1.2503 -0.2409
 6227TIP3   OH218686   2.104   3.696   3.760  0.0695 -0.0557  0.4238
 6227TIP3    H118687   2.139   3.690   3.849 -0.5214  0.4645  0.7028
 6227TIP3    H218688   2.059   3.613   3.747  0.0669 -0.0939  0.6595
 6228TIP3   OH218689   3.341   1.881   2.778  0.0027  0.2613 -0.2062
 6228TIP3    H118690   3.366   1.789   2.788  0.3878  0.0475 -2.5203
 6228TIP3    H218691   3.283   1.882   2.702 -2.3530  1.5920  1.5070
 6229TIP3   OH218692   2.894   4.762   2.260  0.5995  0.8900  0.1994
 6229TIP3    H118693   2.871   4.677   2.297 -3.6362  0.4210 -2.8007
 6229TIP3    H218694   2.895   4.821   2.335 -0.1858 -1.1300  1.9023
 6230TIP3   OH218695   4.432   5.237   1.339 -0.0220 -0.4305 -0.5089
 6230TIP3    H118696   4.511   5.184   1.339 -0.6277 -1.3629  0.1551
 6230TIP3    H218697   4.462   5.325   1.316  1.2582 -0.6803  0.1068
 6231TIP3   OH218698   4.253   0.758   2.102  0.0717  0.4271  0.4551
 6231TIP3    H118699   4.264   0.725   2.191  1.2072 -2.0767 -0.5237
 6231TIP3    H218700   4.160   0.780   2.096 -0.3549 -0.8147  1.8003
 6232TIP3   OH218701   3.668   1.307   4.468 -0.4945 -0.0971  0.0982
 6232TIP3    H118702   3.594   1.326   4.526 -1.1100  1.6492 -1.1654
 6232TIP3    H218703   3.720   1.388   4.470  1.7567 -1.4824  1.4185
 6233TIP3   OH218704   1.182   3.897   3.900 -0.3241  0.1318 -0.4322
 6233TIP3    H118705   1.239   3.917   3.974  1.7671  0.3497 -1.9917
 6233TIP3    H218706   1.155   3.807   3.913 -0.8695  0.4873  1.1020
 6234TIP3   OH218707   2.111   0.514   4.979 -0.3758  0.8152  0.1328
 6234TIP3    H118708   2.022   0.537   5.005 -0.5140 -0.0641  0.4683
 6234TIP3    H218709   2.104   0.425   4.946  0.0374  1.3982 -1.6729
 6235TIP3   OH218710   5.339   4.090   1.603 -0.0340  0.0455  0.0521
 6235TIP3    H118711   5.345   4.144   1.525  1.1994 -0.6819 -0.3898
 6235TIP3    H218712   5.266   4.126   1.653 -0.4240  0.9189 -1.1281
 6236TIP3   OH218713   1.035   4.811   1.676  0.2246  0.2677  0.4158
 6236TIP3    H118714   1.000   4.843   1.759  0.3300  0.3445  0.4305
 6236TIP3    H218715   0.975   4.846   1.610  0.3764  0.5499  0.4276
 6237TIP3   OH218716   3.106   1.191   0.658  0.8391 -0.1955  0.4838
 6237TIP3    H118717   3.159   1.234   0.591  0.6538  1.2120  1.2064
 6237TIP3    H218718   3.016   1.198   0.626  0.8023  0.0249  0.6314
 6238TIP3   OH218719   5.143   4.775   2.051 -0.2078 -0.4912  0.4890
 6238TIP3    H118720   5.095   4.848   2.012  0.4393  0.1412  0.8540
 6238TIP3    H218721   5.081   4.739   2.115 -0.2006  0.3512  0.9954
 6239TIP3   OH218722   4.311   1.378   2.699  0.0268  0.0901  0.3962
 6239TIP3    H118723   4.226   1.372   2.742 -0.7697  2.0089 -0.7759
 6239TIP3    H218724   4.359   1.444   2.750  0.2706  0.0567  0.2131
 6240TIP3   OH218725   3.083   1.363   4.877 -0.0204 -0.2265 -0.2169
 6240TIP3    H118726   3.143   1.409   4.818  1.7372 -0.3685  1.3722
 6240TIP3    H218727   3.018   1.429   4.902  1.2746  0.8543  0.4185
 6241TIP3   OH218728   4.038   1.034   3.220  0.2707 -0.1867  0.0982
 6241TIP3    H118729   4.086   0.957   3.249 -1.3508 -0.6855  1.6598
 6241TIP3    H218730   4.035   1.091   3.296  0.0395  0.7005 -0.5530
 6242TIP3   OH218731   4.856   4.761   0.266 -0.3589  0.2847  0.2878
 6242TIP3    H118732   4.904   4.840   0.241 -1.9354  0.6932 -1.6748
 6242TIP3    H218733   4.883   4.695   0.203 -1.1979  0.0778  0.1352
 6243TIP3   OH218734   2.668   1.595   3.407  0.6237 -0.2358  0.3620
 6243TIP3    H118735   2.594   1.567   3.461  0.6541  1.3586  1.3124
 6243TIP3    H218736   2.641   1.680   3.372  0.8954 -0.9156 -1.6190
 6244TIP3   OH218737   5.430   2.711   1.117 -0.7881  0.3470 -0.5288
 6244TIP3    H118738   5.398   2.700   1.027 -1.1610  0.5527 -0.4240
 6244TIP3    H218739   5.352   2.700   1.172 -0.4670 -0.3120 -0.1945
 6245TIP3   OH218740   0.351   4.833   4.421 -0.2540  0.0015 -0.6078
 6245TIP3    H118741   0.360   4.751   4.470  0.4301  0.0816 -0.5953
 6245TIP3    H218742   0.269   4.822   4.372 -1.0756  0.0218  0.7264
 6246TIP3   OH218743   2.363   3.007   3.245  0.5670  0.4841 -0.4258
 6246TIP3    H118744   2.334   2.967   3.164 -1.3762  3.2299 -1.2296
 6246TIP3    H218745   2.324   3.094   3.245  2.0337  1.3109  2.5908
 6247TIP3   OH218746   2.089   2.291   3.325 -0.0296 -0.0621  0.2674
 6247TIP3    H118747   2.056   2.256   3.243  0.3822  1.3572 -0.5362
 6247TIP3    H218748   2.087   2.217   3.386 -2.8435 -0.5280 -0.2595
 6248TIP3   OH218749   1.456   3.092   1.434  0.2913  0.1654  0.0649
 6248TIP3    H118750   1.538   3.141   1.448  0.3099 -0.3044  1.7527
 6248TIP3    H218751   1.411   3.096   1.518 -0.6927 -0.9426 -0.3848
 6249TIP3   OH218752   5.916   2.281   4.069  0.1034  0.3447 -0.0907
 6249TIP3    H118753   5.890   2.209   4.126  0.9538 -0.3470 -0.5404
 6249TIP3    H218754   5.873   2.262   3.986 -1.3868  1.5159  0.3642
 6250TIP3   OH218755   2.211   4.928   4.714  0.1529  0.6580 -0.2372
 6250TIP3    H118756   2.207   4.843   4.670 -0.1252  0.4760  0.1379
 6250TIP3    H218757   2.260   4.983   4.653 -1.8968  0.9754 -1.6922
 6251TIP3   OH218758   0.165   1.913   0.875  0.0528  0.2027  0.1297
 6251TIP3    H118759   0.124   1.973   0.812 -0.6885 -0.9390 -0.5147
 6251TIP3    H218760   0.132   1.942   0.960  0.9273  1.6573  0.0194
 6252TIP3   OH218761   4.772   3.688   1.369  0.1693 -0.0624 -0.1557
 6252TIP3    H118762   4.763   3.770   1.418 -2.9563 -0.0101 -0.6514
 6252TIP3    H218763   4.690   3.679   1.321  0.8817 -2.9235 -1.0376
 6253TIP3   OH218764   5.914   0.755   4.689 -0.0747 -0.3750  0.5615
 6253TIP3    H118765   5.984   0.730   4.628 -1.3990 -1.6243 -0.5089
 6253TIP3    H218766   5.919   0.691   4.760  0.6481  0.3027  1.1375
 6254TIP3   OH218767   1.780   5.590   3.385  0.2277 -0.0893  0.4232
 6254TIP3    H118768   1.808   5.524   3.320  1.2010  1.6277 -0.9906
 6254TIP3    H218769   1.695   5.619   3.353 -0.0692 -0.4337  0.8888
 6255TIP3   OH218770   0.592   5.171   1.106 -0.2259  0.3285 -0.3604
 6255TIP3    H118771   0.613   5.171   1.199 -2.5721  1.2008  0.2382
 6255TIP3    H218772   0.646   5.102   1.069  0.2803 -0.4769  1.7620
 6256TIP3   OH218773   0.383   0.989   2.324 -0.1821  0.2575 -0.2122
 6256TIP3    H118774   0.336   0.935   2.387 -1.2827  0.5541 -0.7520
 6256TIP3    H218775   0.354   1.079   2.342  0.8339  0.5587 -0.0058
 6257TIP3   OH218776   5.265   5.810   2.016  0.3884  0.4276  0.1876
 6257TIP3    H118777   5.357   5.784   2.018  0.3804  0.3620  2.3749
 6257TIP3    H218778   5.263   5.889   1.962  1.6574  0.1932 -0.2298
 6258TIP3   OH218779   5.764   3.292   2.539  0.2078 -0.4903  0.4028
 6258TIP3    H118780   5.837   3.231   2.537  0.8553  0.2231 -2.5235
 6258TIP3    H218781   5.686   3.236   2.533  0.7385 -1.1399 -0.8999
 6259TIP3   OH218782   6.169   3.714   4.624 -0.2557 -0.5760  0.3968
 6259TIP3    H118783   6.122   3.720   4.541 -0.3416  0.1065  0.4841
 6259TIP3    H218784   6.203   3.803   4.639 -0.6829 -0.5576  1.3386
 6260TIP3   OH218785   5.971   4.409   1.311  0.1243 -0.6627  0.2737
 6260TIP3    H118786   5.937   4.359   1.238  0.4429 -2.3992  1.2655
 6260TIP3    H218787   5.945   4.360   1.389  2.2460 -0.4517  1.1968
 6261TIP3   OH218788   0.772   3.400   4.635  0.1947 -0.0207 -0.3852
 6261TIP3    H118789   0.766   3.375   4.543 -1.4123 -2.2014  0.2245
 6261TIP3    H218790   0.778   3.317   4.682  0.5479  1.0249  1.5157
 6262TIP3   OH218791   3.349   0.139   2.181  0.0349  0.4711 -0.3270
 6262TIP3    H118792   3.409   0.111   2.113  1.3751  1.5040  0.3796
 6262TIP3    H218793   3.281   0.188   2.135  1.7230  2.4697 -0.8418
 6263TIP3   OH218794   2.649   3.252   0.528 -0.4111  0.1109 -0.3300
 6263TIP3    H118795   2.573   3.229   0.581 -2.1115  0.1763 -2.5765
 6263TIP3    H218796   2.620   3.329   0.478  1.4770  0.6881 -0.5971
 6264TIP3   OH218797   0.029   3.038   1.367 -0.5016 -0.1102  0.4606
 6264TIP3    H118798  -0.052   3.039   1.417  0.6716  0.0191  2.4761
 6264TIP3    H218799   0.049   3.131   1.351 -1.3474 -0.1668 -1.1565
 6265TIP3   OH218800   4.146   3.153   0.666 -0.7343 -0.0722 -0.0134
 6265TIP3    H118801   4.093   3.133   0.743 -0.8921  0.9099  0.1459
 6265TIP3    H218802   4.146   3.249   0.661 -1.2323 -0.1218 -1.5840
 6266TIP3   OH218803   2.537   2.202   0.361 -0.4578 -0.4511 -0.7689
 6266TIP3    H118804   2.472   2.173   0.425  0.1301  1.5933  0.8712
 6266TIP3    H218805   2.487   2.250   0.296 -0.6632  1.4519  0.6926
 6267TIP3   OH218806   1.870   1.778   1.676  0.1193 -0.2746 -0.1208
 6267TIP3    H118807   1.960   1.804   1.697  0.1151 -0.7789  0.5411
 6267TIP3    H218808   1.872   1.756   1.583  1.3500 -2.9925  0.4703
 6268TIP3   OH218809   2.059   3.056   1.748  0.1066 -0.0321  0.1475
 6268TIP3    H118810   1.964   3.046   1.749  0.2346 -1.2652  0.7229
 6268TIP3    H218811   2.074   3.144   1.782 -0.8106  0.0602  0.3316
 6269TIP3   OH218812   4.170   1.757   2.367 -0.0416  0.3350  0.2818
 6269TIP3    H118813   4.167   1.746   2.272  0.9074  1.9289  0.0400
 6269TIP3    H218814   4.150   1.850   2.382  2.4011  0.7583  1.4377
 6270TIP3   OH218815   1.511   2.701   0.522 -0.1935  0.5650  0.1215
 6270TIP3    H118816   1.604   2.691   0.538 -0.3195  1.8336  1.9184
 6270TIP3    H218817   1.504   2.718   0.428  1.1877 -1.2343 -0.3645
 6271TIP3   OH218818   3.534   5.095   4.449  0.4620 -0.6360 -0.1000
 6271TIP3    H118819   3.510   5.138   4.531  1.0290 -0.9341  0.2251
 6271TIP3    H218820   3.453   5.053   4.420  0.5507 -1.5808  0.9611
 6272TIP3   OH218821   0.927   2.131   0.349  0.5330 -0.5581 -0.2238
 6272TIP3    H118822   0.987   2.063   0.380  0.2075 -0.2686  1.0950
 6272TIP3    H218823   0.875   2.154   0.426  0.3105  0.8472 -0.7693
 6273TIP3   OH218824   0.215   5.619   0.059 -0.6168 -0.7400  0.0205
 6273TIP3    H118825   0.254   5.534   0.040  0.0800 -0.2203 -0.9382
 6273TIP3    H218826   0.125   5.599   0.086  0.1706 -1.9421  2.0090
 6274TIP3   OH218827   2.721   1.293   4.107 -0.1397 -0.0404 -0.4569
 6274TIP3    H118828   2.815   1.306   4.123 -0.5968  1.7376  1.0631
 6274TIP3    H218829   2.708   1.325   4.018  0.5072  0.7879 -0.2656
 6275TIP3   OH218830   3.954   3.246   4.797  0.6812  0.3522  0.1073
 6275TIP3    H118831   3.924   3.274   4.710 -0.9384  1.5014  0.9951
 6275TIP3    H218832   3.888   3.280   4.857 -0.0050 -3.1038  1.5346
 6276TIP3   OH218833   5.930   5.678   3.780 -0.4980 -0.2419 -0.5413
 6276TIP3    H118834   5.886   5.623   3.716 -1.1328 -0.1826 -0.1663
 6276TIP3    H218835   6.018   5.643   3.785 -1.0525 -1.6157  0.1390
 6277TIP3   OH218836   6.237   0.949   4.307 -0.2066 -0.0407  0.3233
 6277TIP3    H118837   6.285   0.952   4.389 -1.2828 -0.8475  1.0096
 6277TIP3    H218838   6.181   0.872   4.314  0.0048 -0.3912 -1.3616
 6278TIP3   OH218839   2.971   5.256   0.149  0.0711  0.1330  0.1233
 6278TIP3    H118840   2.992   5.331   0.093 -0.5880  0.9254  0.9020
 6278TIP3    H218841   2.879   5.236   0.128  1.2875 -3.1594 -3.1157
 6279TIP3   OH218842   2.283   5.982   1.931 -0.4189  0.5719  0.1673
 6279TIP3    H118843   2.339   6.058   1.952  1.0397 -0.7817  1.4475
 6279TIP3    H218844   2.317   5.912   1.986 -3.3350 -0.4107  0.8806
 6280TIP3   OH218845   6.327   2.001   1.548  0.3710  0.3754  0.5594
 6280TIP3    H118846   6.414   2.029   1.519  1.1264  0.7919  3.0670
 6280TIP3    H218847   6.276   2.082   1.551 -0.1525  0.1297 -0.9202
 6281TIP3   OH218848   0.989   1.683   0.455  0.1013 -0.1577 -0.0931
 6281TIP3    H118849   0.899   1.717   0.452  0.2559  0.3801  1.0409
 6281TIP3    H218850   0.985   1.601   0.406 -0.9090  0.0703 -0.4241
 6282TIP3   OH218851   5.164   0.656   0.193  0.0555 -0.4901 -0.8335
 6282TIP3    H118852   5.215   0.729   0.230 -0.5476 -0.6246  0.3140
 6282TIP3    H218853   5.229   0.600   0.152  0.6978 -0.0423 -0.4548
 6283TIP3   OH218854   2.954   4.358   1.874 -0.2405  0.0872 -0.2290
 6283TIP3    H118855   2.955   4.356   1.779 -0.0842  2.4069 -0.3347
 6283TIP3    H218856   2.993   4.442   1.897  1.9714 -1.3599  1.9783
 6284TIP3   OH218857   2.700   2.198   1.072  0.5019  0.3358  0.2883
 6284TIP3    H118858   2.786   2.160   1.055 -0.6479 -2.0994 -0.4314
 6284TIP3    H218859   2.703   2.223   1.165  1.8639  0.0404  0.3452
 6285TIP3   OH218860   5.574   1.451   4.212 -0.3357  0.3285  0.8379
 6285TIP3    H118861   5.625   1.527   4.241  1.7344 -0.3704 -0.6934
 6285TIP3    H218862   5.505   1.488   4.157 -0.1172  1.1766  1.1247
 6286TIP3   OH218863   0.887   1.579   1.245  0.1600  0.4097  0.2757
 6286TIP3    H118864   0.931   1.613   1.323  1.2441  0.6212 -0.3992
 6286TIP3    H218865   0.913   1.487   1.240  0.7950  0.6158 -0.3009
 6287TIP3   OH218866   0.222   4.134   1.309  0.3876  0.3014 -0.2984
 6287TIP3    H118867   0.316   4.155   1.310  0.4422  0.0507 -0.0659
 6287TIP3    H218868   0.199   4.137   1.216  1.0122 -1.2847 -0.5352
 6288TIP3   OH218869   5.491   4.917   0.611  0.2422  0.1942 -0.5652
 6288TIP3    H118870   5.430   4.979   0.570 -0.0926 -0.3755 -0.9333
 6288TIP3    H218871   5.435   4.861   0.664  0.6444  0.7776  0.5119
 6289TIP3   OH218872   2.156   3.554   2.872  0.2483  0.4184 -0.3777
 6289TIP3    H118873   2.168   3.565   2.967  1.6692 -0.8367 -0.3836
 6289TIP3    H218874   2.226   3.606   2.833  1.2560 -1.1121 -0.6488
 6290TIP3   OH218875   2.701   3.963   0.618  0.7688 -0.4295 -0.7296
 6290TIP3    H118876   2.775   3.943   0.560 -0.7921 -0.0361 -2.9931
 6290TIP3    H218877   2.644   3.887   0.611  0.2048 -0.0583 -0.2498
 6291TIP3   OH218878   4.004   4.562   4.679  0.0847  0.4213 -0.3132
 6291TIP3    H118879   4.052   4.500   4.735 -0.2870  0.9181  0.5902
 6291TIP3    H218880   4.064   4.581   4.607  0.2719 -0.8554 -0.5209
 6292TIP3   OH218881   4.223   4.142   3.991  0.3055 -0.1076  0.2317
 6292TIP3    H118882   4.223   4.103   3.903 -0.2650  0.1103  0.1348
 6292TIP3    H218883   4.277   4.082   4.043 -1.2252 -1.5115  0.2970
 6293TIP3   OH218884   3.554   0.388   4.810  0.5824 -0.4740 -0.1971
 6293TIP3    H118885   3.494   0.421   4.877 -0.4369 -1.7332 -0.4610
 6293TIP3    H218886   3.498   0.361   4.738  1.5316 -0.9296 -0.7865
 6294TIP3   OH218887   3.114   5.707   3.964  0.2076  0.0755 -0.4064
 6294TIP3    H118888   3.035   5.750   3.929  1.0402  1.9269 -0.1127
 6294TIP3    H218889   3.186   5.766   3.939  1.0928  0.3740  2.5151
 6295TIP3   OH218890   4.753   3.824   4.298  0.2793 -0.4345 -0.4053
 6295TIP3    H118891   4.701   3.790   4.226 -2.0232  0.0631  0.9365
 6295TIP3    H218892   4.821   3.877   4.255  0.5247 -2.1222 -2.2561
 6296TIP3   OH218893   2.969   1.716   4.159  0.1235 -0.0186  0.5928
 6296TIP3    H118894   3.048   1.758   4.125 -0.4100  0.3491 -0.2093
 6296TIP3    H218895   2.925   1.681   4.082 -0.4837 -0.2640  1.0417
 6297TIP3   OH218896   2.076   0.758   2.304 -0.1546  0.4503  0.0404
 6297TIP3    H118897   2.050   0.849   2.295  0.0412  0.8969  3.0154
 6297TIP3    H218898   2.026   0.725   2.378  1.5284 -1.1457  0.5650
 6298TIP3   OH218899   6.212   5.933   3.693  0.7982 -0.5592 -0.2342
 6298TIP3    H118900   6.173   6.016   3.721 -2.3770 -1.2814 -1.9808
 6298TIP3    H218901   6.164   5.867   3.743  0.9071 -1.4534 -1.2927
 6299TIP3   OH218902   5.740   4.731   3.498 -0.8906 -0.6483  0.3453
 6299TIP3    H118903   5.825   4.702   3.533 -1.0980 -1.5009  0.1768
 6299TIP3    H218904   5.760   4.765   3.411 -0.4105  1.2217  1.1338
 6300TIP3   OH218905   5.110   1.090   4.510 -0.0600 -0.2031 -0.0413
 6300TIP3    H118906   5.101   1.002   4.547 -0.3198  1.1108  3.3375
 6300TIP3    H218907   5.196   1.090   4.468  0.9032 -1.4838  1.7902
 6301TIP3   OH218908   0.663   2.874   4.612  0.2544 -0.0841 -0.5645
 6301TIP3    H118909   0.611   2.889   4.533  0.0751  0.8678 -0.2832
 6301TIP3    H218910   0.599   2.867   4.682  0.4829  1.2785 -0.1879
 6302TIP3   OH218911   5.364   1.016   2.769  0.2774 -0.6054 -0.1471
 6302TIP3    H118912   5.438   1.071   2.792 -0.7996  0.3927  1.1416
 6302TIP3    H218913   5.349   0.961   2.847 -0.6253 -0.4286 -0.1790
 6303TIP3   OH218914   4.187   0.081   4.637  0.4724  0.0716  0.3480
 6303TIP3    H118915   4.186   0.160   4.584  0.6501  0.5885  1.1023
 6303TIP3    H218916   4.116   0.027   4.601  0.0149  0.7890  0.1533
 6304TIP3   OH218917   5.648   1.120   3.447 -0.3350  0.5389  0.0860
 6304TIP3    H118918   5.737   1.151   3.427 -0.4401  1.3358  0.8193
 6304TIP3    H218919   5.599   1.200   3.468 -1.0759  0.0425  0.2631
 6305TIP3   OH218920   1.177   1.730   2.405 -0.2157  0.1005 -0.4651
 6305TIP3    H118921   1.180   1.639   2.377 -2.6104 -0.1267 -0.1910
 6305TIP3    H218922   1.234   1.733   2.482  0.3871 -1.0036 -0.8411
 6306TIP3   OH218923   0.676   3.506   5.046  0.9512  0.1038 -0.8008
 6306TIP3    H118924   0.738   3.572   5.077  0.7773 -0.0127 -0.1752
 6306TIP3    H218925   0.660   3.452   5.123  0.5184 -0.2177 -1.1152
 6307TIP3   OH218926   1.335   3.805   1.859  0.0774  0.2452 -0.0187
 6307TIP3    H118927   1.413   3.841   1.900 -0.9577  0.0968  2.2446
 6307TIP3    H218928   1.267   3.871   1.873 -0.7620 -0.6291  0.1718
 6308TIP3   OH218929   0.636   0.090   3.320 -0.2255  0.7111 -0.2295
 6308TIP3    H118930   0.636  -0.001   3.291  3.1858  0.4815  0.0548
 6308TIP3    H218931   0.573   0.134   3.263  0.3825 -1.2547 -2.5453
 6309TIP3   OH218932   5.267   5.310   3.670  0.2886  0.4326  0.2314
 6309TIP3    H118933   5.319   5.244   3.624 -1.0574  0.2511 -1.1110
 6309TIP3    H218934   5.258   5.382   3.607  0.5926  1.3413  1.1888
 6310TIP3   OH218935   0.406   4.290   2.161  0.2506  0.4993 -0.9936
 6310TIP3    H118936   0.334   4.325   2.213  1.2211  0.0684  0.6975
 6310TIP3    H218937   0.440   4.366   2.113 -1.5151  0.6397 -2.1156
 6311TIP3   OH218938   4.797   5.189   1.188  0.3587  0.1369 -0.4762
 6311TIP3    H118939   4.883   5.176   1.229  0.4262 -0.8379 -0.8846
 6311TIP3    H218940   4.766   5.272   1.223  1.5460  0.5880 -0.4514
 6312TIP3   OH218941   0.494   1.322   2.598 -0.0247  0.2382  0.5266
 6312TIP3    H118942   0.550   1.335   2.674  1.9307 -0.8148 -0.6625
 6312TIP3    H218943   0.508   1.399   2.544 -0.5951  0.4789  0.7070
 6313TIP3   OH218944   5.473   1.464   1.879 -0.0655  0.6340  0.0896
 6313TIP3    H118945   5.510   1.514   1.806 -0.3491  0.0183 -0.4941
 6313TIP3    H218946   5.529   1.484   1.953  1.4632 -0.2494 -0.7669
 6314TIP3   OH218947   4.407   0.905   0.293 -0.0736  0.1946 -0.6019
 6314TIP3    H118948   4.409   0.847   0.218 -2.5847 -1.0726  0.1880
 6314TIP3    H218949   4.316   0.935   0.299  0.2154  0.8904  1.4504
 6315TIP3   OH218950   1.510   1.597   0.945 -0.1480  0.5314 -0.3833
 6315TIP3    H118951   1.443   1.597   0.876  1.1313 -3.7464 -2.0041
 6315TIP3    H218952   1.467   1.555   1.020 -0.2808  1.0824 -0.1496
 6316TIP3   OH218953   1.471   2.481   1.947  0.6617 -0.3412 -0.3466
 6316TIP3    H118954   1.424   2.483   1.864  1.2148 -2.0778 -0.7478
 6316TIP3    H218955   1.564   2.483   1.923  0.8305 -0.8411  0.2267
 6317TIP3   OH218956   6.106   3.236   3.231  0.4909  0.0021  0.2761
 6317TIP3    H118957   6.083   3.218   3.321  0.4964  1.8295  0.6939
 6317TIP3    H218958   6.192   3.279   3.237  2.1801 -2.8933 -0.9047
 6318TIP3   OH218959   0.090   4.429   0.098 -0.0571 -0.4603  0.0037
 6318TIP3    H118960   0.079   4.524   0.093  1.2749 -0.3166 -0.7765
 6318TIP3    H218961   0.074   4.408   0.190  2.2195  0.9277  0.8066
 6319TIP3   OH218962   6.251   2.560   4.776 -0.6956 -0.0281  0.6852
 6319TIP3    H118963   6.180   2.496   4.775 -1.0454  0.2470 -2.4200
 6319TIP3    H218964   6.328   2.509   4.804 -1.4339 -1.2269  0.6032
 6320TIP3   OH218965   5.526   5.355   0.730  0.3966  0.8609  0.3997
 6320TIP3    H118966   5.442   5.325   0.696 -0.5005  3.0299  0.5114
 6320TIP3    H218967   5.590   5.292   0.697 -1.3206 -1.1999  0.8286
 6321TIP3   OH218968   2.435   4.661   4.354  0.2512  0.0746 -0.5247
 6321TIP3    H118969   2.383   4.603   4.410 -2.2084  1.9846 -0.6006
 6321TIP3    H218970   2.430   4.622   4.267 -1.3138  0.2613 -0.5635
 6322TIP3   OH218971   2.216   3.603   1.049  0.3063  0.6649  0.2605
 6322TIP3    H118972   2.282   3.539   1.023  0.7458  1.4738 -0.6707
 6322TIP3    H218973   2.258   3.655   1.117 -0.1721 -0.2253  1.2699
 6323TIP3   OH218974   3.077   4.800   0.979  0.2163 -0.2999  0.9255
 6323TIP3    H118975   3.097   4.721   1.029  2.0118  0.5344  1.6028
 6323TIP3    H218976   3.027   4.855   1.039  0.6119 -0.1454  1.1175
 6324TIP3   OH218977   4.210   5.352   2.569 -0.7245  0.3214  0.0936
 6324TIP3    H118978   4.262   5.424   2.534 -2.0362  1.1700 -0.1617
 6324TIP3    H218979   4.275   5.288   2.598  0.4998  1.8976  0.9832
 6325TIP3   OH218980   2.929   0.412   3.103 -0.8445 -0.0518 -0.1513
 6325TIP3    H118981   2.910   0.448   3.016 -3.6569  0.3108  0.4936
 6325TIP3    H218982   2.916   0.318   3.093  2.8895 -0.6370 -0.9687
 6326TIP3   OH218983   1.626   5.528   0.110  0.1364  0.2787  0.1390
 6326TIP3    H118984   1.531   5.540   0.119  0.1206  0.0753  0.2561
 6326TIP3    H218985   1.659   5.533   0.200  0.4169  1.8087 -0.0314
 6327TIP3   OH218986   0.142   5.305   4.899  0.2541 -0.2747 -0.1702
 6327TIP3    H118987   0.073   5.351   4.852 -0.0108  0.0317  0.5031
 6327TIP3    H218988   0.120   5.212   4.891 -0.9006 -0.1220  1.0441
 6328TIP3   OH218989   5.045   5.878   3.696  0.1663  0.1723  0.2826
 6328TIP3    H118990   4.971   5.854   3.751  0.3514  0.1015  0.4987
 6328TIP3    H218991   5.033   5.826   3.616 -0.7225  1.1051 -0.2212
 6329TIP3   OH218992   5.366   0.071   0.135 -0.5113  0.5280  0.9452
 6329TIP3    H118993   5.345   0.115   0.052 -0.2350  1.6749  1.4739
 6329TIP3    H218994   5.441   0.120   0.170 -2.1410  1.6477  3.0748
 6330TIP3   OH218995   5.754   3.919   0.179  0.4128 -0.2349  0.1044
 6330TIP3    H118996   5.665   3.895   0.153 -0.1117  2.0789 -0.4117
 6330TIP3    H218997   5.809   3.882   0.110 -0.5808  1.8345 -1.9422
 6331TIP3   OH218998   3.793   0.792   1.391 -0.1954  0.4145  0.4623
 6331TIP3    H118999   3.779   0.698   1.378 -0.9446  0.5720  0.0652
 6331TIP3    H219000   3.761   0.809   1.480  1.9943 -0.0912  1.3973
 6332TIP3   OH219001   0.062   2.909   4.255 -0.4709 -0.3461  0.2652
 6332TIP3    H119002  -0.000   2.982   4.255 -0.8015 -0.6237  0.4368
 6332TIP3    H219003   0.107   2.916   4.171 -1.2259 -0.5489 -0.1624
 6333TIP3   OH219004   3.019   5.217   0.561  0.1241 -0.0132 -0.1094
 6333TIP3    H119005   3.020   5.158   0.636  1.0430 -1.7006 -1.3923
 6333TIP3    H219006   3.020   5.305   0.600  0.4307 -0.8288  1.8321
 6334TIP3   OH219007   5.329   1.460   2.373 -0.4077  0.4315  0.9608
 6334TIP3    H119008   5.337   1.423   2.285  0.8041  3.7503 -0.4965
 6334TIP3    H219009   5.242   1.499   2.374 -1.5182 -1.8890  2.3359
 6335TIP3   OH219010   0.039   0.255   4.217  0.5925 -0.1064  0.3250
 6335TIP3    H119011   0.028   0.160   4.227  0.5335 -0.2538 -0.9437
 6335TIP3    H219012  -0.050   0.288   4.206  0.7336 -0.1889 -1.3038
 6336TIP3   OH219013   5.000   1.290   2.465  0.4840 -0.6348 -0.1063
 6336TIP3    H119014   5.059   1.223   2.499 -0.4654 -2.0922 -1.1921
 6336TIP3    H219015   4.997   1.274   2.371 -0.5740  0.2825 -0.2475
 6337TIP3   OH219016   3.311   5.673   3.594  0.1376  0.3183  0.3146
 6337TIP3    H119017   3.262   5.636   3.668 -0.0317  1.8255  0.9931
 6337TIP3    H219018   3.399   5.689   3.629  0.6688 -0.8358 -0.4226
 6338TIP3   OH219019   0.601   1.780   4.281 -0.3035  0.3396  0.1657
 6338TIP3    H119020   0.621   1.855   4.337 -0.1401  1.1265 -0.9070
 6338TIP3    H219021   0.512   1.756   4.304 -0.0482  0.2863  1.1511
 6339TIP3   OH219022   6.219   0.233   3.861 -0.3194  0.2161  0.2440
 6339TIP3    H119023   6.228   0.296   3.790 -0.2173  0.9797  0.9258
 6339TIP3    H219024   6.236   0.148   3.820  1.5221  0.7945 -0.2858
 6340TIP3   OH219025   2.458   0.167   3.033  0.3251 -0.4114 -0.0052
 6340TIP3    H119026   2.370   0.131   3.026 -0.1647  0.5349  0.8533
 6340TIP3    H219027   2.512   0.111   2.978 -1.2077  0.3292 -2.4524
 6341TIP3   OH219028   3.472   1.821   3.641 -0.0493 -0.1921  0.4320
 6341TIP3    H119029   3.429   1.903   3.666 -2.2315 -0.9001 -0.7472
 6341TIP3    H219030   3.493   1.833   3.548 -2.4874 -1.7299 -0.4058
 6342TIP3   OH219031   6.106   3.837   2.804  0.2181  0.3305  0.4143
 6342TIP3    H119032   6.052   3.815   2.728  1.7857  1.5594 -1.1355
 6342TIP3    H219033   6.048   3.827   2.879 -1.7518  0.2685 -1.0547
 6343TIP3   OH219034   2.650   2.079   4.057 -0.5030 -0.4975 -0.1657
 6343TIP3    H119035   2.573   2.021   4.060 -0.3661 -0.6653  0.1994
 6343TIP3    H219036   2.715   2.031   4.006 -0.2902 -0.7923  0.3764
 6344TIP3   OH219037   5.036   3.567   1.752  0.0231 -0.1050  0.2858
 6344TIP3    H119038   4.959   3.624   1.747 -0.5955 -0.7907  1.4888
 6344TIP3    H219039   5.043   3.527   1.665 -0.7870  0.2107  0.0727
 6345TIP3   OH219040   3.660   3.144   0.410 -0.3540  0.4723  0.0942
 6345TIP3    H119041   3.640   3.088   0.335  0.6789  1.3787 -0.8977
 6345TIP3    H219042   3.736   3.103   0.451  0.1213  0.8823 -0.3636
 6346TIP3   OH219043   5.972   1.625   3.677  0.0377  0.0977  0.1082
 6346TIP3    H119044   6.044   1.564   3.661  0.5395  0.2480  1.6216
 6346TIP3    H219045   5.982   1.651   3.768  0.1941  2.9241 -0.6284
 6347TIP3   OH219046   4.970   3.548   0.231 -0.3791 -0.0037 -0.1643
 6347TIP3    H119047   4.922   3.508   0.303 -1.5361 -0.8404 -1.3424
 6347TIP3    H219048   4.977   3.640   0.255 -0.5588 -0.2971  1.0942
 6348TIP3   OH219049   3.236   3.616   0.459  0.0608  0.7278 -0.1310
 6348TIP3    H119050   3.266   3.651   0.375  0.3637 -0.5206 -0.5588
 6348TIP3    H219051   3.177   3.545   0.436  1.7539 -1.0320  0.6569
 6349TIP3   OH219052   4.641   0.905   2.125  0.3276 -0.3374 -0.8851
 6349TIP3    H119053   4.648   0.853   2.205  1.7197 -1.7220 -1.8368
 6349TIP3    H219054   4.565   0.869   2.080  0.4149 -0.5716 -0.8512
 6350TIP3   OH219055   3.697   4.754   2.593  0.0251 -0.2229  0.1449
 6350TIP3    H119056   3.658   4.841   2.603  0.5393 -0.0473  0.6916
 6350TIP3    H219057   3.758   4.763   2.520  0.2986 -0.0398  0.3927
 6351TIP3   OH219058   0.655   0.508   3.805  0.2984 -0.0005 -0.6745
 6351TIP3    H119059   0.727   0.506   3.743  1.0887 -0.5446  0.2256
 6351TIP3    H219060   0.689   0.462   3.882 -0.2606  1.5350  0.5587
 6352TIP3   OH219061   0.259   4.740   4.726 -0.0487  0.2783  0.2758
 6352TIP3    H119062   0.204   4.689   4.785  0.4371  0.3956  0.8347
 6352TIP3    H219063   0.313   4.675   4.681 -1.9561 -0.0385 -1.7143
 6353TIP3   OH219064   2.753   5.499   3.960 -0.0656  0.4430  0.2199
 6353TIP3    H119065   2.692   5.565   3.927 -0.8541 -0.2414  0.2949
 6353TIP3    H219066   2.748   5.428   3.896  1.0847  0.6069 -0.0811
 6354TIP3   OH219067   0.512   0.219   5.077 -0.2960 -0.0932 -0.1567
 6354TIP3    H119068   0.491   0.312   5.075 -0.8407 -0.2121 -0.2975
 6354TIP3    H219069   0.478   0.186   4.993 -0.1493 -0.4253 -0.0861
 6355TIP3   OH219070   1.305   4.785   1.786 -0.0579  0.3062 -0.4144
 6355TIP3    H119071   1.224   4.824   1.820 -1.6425 -1.4689 -1.9347
 6355TIP3    H219072   1.309   4.699   1.828  1.4633  0.6276  0.1688
 6356TIP3   OH219073   2.637   2.773   5.031  0.1357 -0.6923  0.3092
 6356TIP3    H119074   2.545   2.754   5.015  0.0489 -1.5729  1.6631
 6356TIP3    H219075   2.648   2.761   5.126  0.6977  3.5069  0.9663
 6357TIP3   OH219076   0.552   3.313   4.843 -0.0613 -0.1100 -0.1079
 6357TIP3    H119077   0.591   3.398   4.863 -1.2707  0.4162  0.0896
 6357TIP3    H219078   0.537   3.314   4.749 -1.3275  0.4771  0.0709
 6358TIP3   OH219079   3.042   0.214   0.373  0.1050 -0.0042  0.2227
 6358TIP3    H119080   3.003   0.216   0.460 -0.5852 -0.0571 -0.0777
 6358TIP3    H219081   3.041   0.305   0.344 -1.1824 -0.1928 -0.3784
 6359TIP3   OH219082   5.963   0.804   3.597 -0.1662 -0.0581  0.2781
 6359TIP3    H119083   5.972   0.709   3.583  0.7267  0.3628 -2.6452
 6359TIP3    H219084   5.870   0.821   3.579 -0.8724 -0.5911  2.9817
 6360TIP3   OH219085   5.024   0.714   2.262 -0.2176  0.1738  1.4996
 6360TIP3    H119086   5.020   0.628   2.220 -0.1701  0.6203  0.5652
 6360TIP3    H219087   5.100   0.709   2.320 -0.4337 -0.5367  1.7311
 6361TIP3   OH219088   3.006   4.774   1.763  0.2388 -0.2560  0.5134
 6361TIP3    H119089   3.031   4.807   1.676 -1.9969 -0.3265 -0.2157
 6361TIP3    H219090   2.914   4.798   1.771  0.6282  0.6251  3.3186
 6362TIP3   OH219091   4.474   0.740   1.942 -0.8777 -0.1007  0.4802
 6362TIP3    H119092   4.396   0.738   1.998 -0.6516  0.4326  0.8292
 6362TIP3    H219093   4.454   0.805   1.874 -1.0558 -0.5661  0.0881
 6363TIP3   OH219094   0.813   3.126   4.672 -0.2454  0.3409  0.0059
 6363TIP3    H119095   0.828   3.102   4.763 -1.3330  0.6899  0.2900
 6363TIP3    H219096   0.756   3.057   4.638 -0.2760  0.4918 -0.2526
 6364TIP3   OH219097   1.397   2.164   1.544  0.0952  0.2345 -0.0057
 6364TIP3    H119098   1.307   2.174   1.575 -0.0418 -1.5818  0.2707
 6364TIP3    H219099   1.389   2.154   1.449  0.1083  0.9668 -0.0940
 6365TIP3   OH219100   5.836   1.182   0.263  0.1806  0.1706 -1.0451
 6365TIP3    H119101   5.773   1.241   0.307  1.5538  0.1249  1.1491
 6365TIP3    H219102   5.883   1.239   0.202  0.2160  0.9417 -0.3251
 6366TIP3   OH219103   4.686   2.163   1.005  0.5020 -0.5066 -0.5161
 6366TIP3    H119104   4.598   2.192   1.028  1.3604  2.4387 -0.5727
 6366TIP3    H219105   4.724   2.134   1.088  0.3079  0.6540 -0.0093
 6367TIP3   OH219106   3.502   0.863   1.231 -0.0273  0.3336 -0.0884
 6367TIP3    H119107   3.409   0.882   1.229  0.0192  0.9535  1.7265
 6367TIP3    H219108   3.544   0.946   1.212  0.1287  1.4180  4.0119
 6368TIP3   OH219109   0.031   3.055   3.393  0.1914 -0.0866 -0.0990
 6368TIP3    H119110   0.035   2.964   3.363 -1.9680 -0.6601  1.0909
 6368TIP3    H219111   0.013   3.105   3.314  1.3244 -0.6904 -0.7602
 6369TIP3   OH219112   5.964   3.786   3.772  0.5476 -0.2894  0.2883
 6369TIP3    H119113   6.050   3.828   3.774  0.4365 -0.0860  0.9374
 6369TIP3    H219114   5.961   3.741   3.687  1.9572 -1.6965  0.9368
 6370TIP3   OH219115   3.486   4.326   2.179 -0.2541  0.5218  0.1305
 6370TIP3    H119116   3.490   4.416   2.144  0.0526  0.2747 -0.4921
 6370TIP3    H219117   3.535   4.329   2.260  0.0432  0.8450 -0.0598
 6371TIP3   OH219118   5.073   1.374   3.124 -0.5544  0.1861 -0.2253
 6371TIP3    H119119   5.008   1.396   3.190 -1.2989 -0.8898 -0.5769
 6371TIP3    H219120   5.118   1.457   3.106  0.3539  0.3309  2.3177
 6372TIP3   OH219121   3.041   2.952   2.114  0.0345  0.3166  0.1366
 6372TIP3    H119122   3.125   2.990   2.089  0.8628 -1.1748  0.5235
 6372TIP3    H219123   3.061   2.901   2.193 -1.0503 -0.7356 -0.2404
 6373TIP3   OH219124   1.046   0.785   4.906  0.6740 -0.4120  0.4445
 6373TIP3    H119125   1.006   0.803   4.821  0.5129 -4.0411 -0.4161
 6373TIP3    H219126   0.977   0.804   4.969  1.3393  4.0865  0.1393
 6374TIP3   OH219127   6.091   2.657   2.977  0.0168 -0.5649 -0.2668
 6374TIP3    H119128   6.030   2.725   3.007  0.4542 -0.2376 -0.1159
 6374TIP3    H219129   6.124   2.617   3.058 -0.8482 -1.5187 -0.3574
 6375TIP3   OH219130   1.385   3.394   5.137 -0.0439  0.0717 -0.3477
 6375TIP3    H119131   1.429   3.450   5.201 -1.0413  1.2191 -0.6414
 6375TIP3    H219132   1.448   3.323   5.121  1.6147  1.5392 -0.6025
 6376TIP3   OH219133   5.472   0.419   0.935 -0.3604 -0.0249 -0.1085
 6376TIP3    H119134   5.468   0.483   1.006 -1.5522  0.9462 -1.0016
 6376TIP3    H219135   5.551   0.442   0.887 -1.3370  1.5537 -1.0663
 6377TIP3   OH219136   1.973   3.167   0.968  0.2220 -0.0967 -0.0123
 6377TIP3    H119137   1.912   3.233   0.935 -0.8781 -0.5123  1.1349
 6377TIP3    H219138   1.943   3.085   0.929  1.1013 -0.0750 -0.7902
 6378TIP3   OH219139   5.785   2.973   0.193 -0.3026 -0.3670 -0.1494
 6378TIP3    H119140   5.742   2.970   0.108  0.0203  1.3777 -0.4031
 6378TIP3    H219141   5.838   2.893   0.195 -0.4670 -0.5333 -1.5006
 6379TIP3   OH219142   5.647   5.501   0.109 -0.0006  0.5120  0.8588
 6379TIP3    H119143   5.662   5.537   0.022 -0.8010  1.0158  0.9196
 6379TIP3    H219144   5.724   5.526   0.159  0.2725  0.5812  0.4071
 6380TIP3   OH219145   4.908   3.544   3.323 -0.2251 -0.1859 -0.4225
 6380TIP3    H119146   4.906   3.559   3.228  2.2677  1.6263 -0.2861
 6380TIP3    H219147   4.971   3.607   3.356 -0.8374 -0.9346  2.4657
 6381TIP3   OH219148   0.264   0.166   0.155 -0.2201  0.8065  0.3203
 6381TIP3    H119149   0.211   0.162   0.075  2.3916  0.7448 -1.5225
 6381TIP3    H219150   0.351   0.192   0.126  2.0088 -3.0736  2.5060
 6382TIP3   OH219151   3.081   2.844   5.080  0.6868 -0.1180 -0.0192
 6382TIP3    H119152   3.087   2.783   5.007  0.5546  0.2125 -0.3060
 6382TIP3    H219153   2.994   2.882   5.073  1.4151  1.4866 -0.9528
 6383TIP3   OH219154   3.004   5.090   3.063  0.1603  0.3049  0.2153
 6383TIP3    H119155   3.024   5.176   3.101  1.1445  0.3825 -0.4349
 6383TIP3    H219156   2.964   5.111   2.979 -0.3503  0.1232  0.4106
 6384TIP3   OH219157   4.207   0.988   4.818 -0.7146  0.2916 -0.6326
 6384TIP3    H119158   4.217   1.060   4.756 -0.6252  1.2254  0.4253
 6384TIP3    H219159   4.226   0.909   4.768  1.9967  1.1952 -1.1869
 6385TIP3   OH219160   2.214   4.861   4.983  0.3769 -0.3827  0.4159
 6385TIP3    H119161   2.173   4.930   5.035 -1.1266 -1.0997  0.2445
 6385TIP3    H219162   2.186   4.879   4.893  0.0237 -1.1484  0.3602
 6386TIP3   OH219163   4.708   2.317   4.810 -0.0327 -0.0214  0.2159
 6386TIP3    H119164   4.627   2.281   4.846 -0.5735  2.1537  1.3248
 6386TIP3    H219165   4.685   2.347   4.722  0.3917 -2.0537 -0.6719
 6387TIP3   OH219166   0.521   0.475   4.624  0.1741  0.0782  0.4809
 6387TIP3    H119167   0.450   0.439   4.678 -1.0927  0.7270 -0.6873
 6387TIP3    H219168   0.523   0.568   4.646  3.2600 -0.4544  3.2908
 6388TIP3   OH219169   5.593   3.248   0.738 -0.2604 -0.1600  0.4801
 6388TIP3    H119170   5.632   3.242   0.826 -0.9866  1.6253  0.9719
 6388TIP3    H219171   5.662   3.219   0.679  0.9052  0.3934  1.5192
 6389TIP3   OH219172   5.010   2.376   0.535 -0.0720 -0.6265 -0.1506
 6389TIP3    H119173   5.043   2.300   0.486 -1.2524 -0.0243 -1.9731
 6389TIP3    H219174   4.915   2.365   0.535 -0.1389 -0.9275  2.6596
 6390TIP3   OH219175   3.988   3.262   1.209 -0.0657 -0.6648 -0.0643
 6390TIP3    H119176   3.903   3.302   1.195  0.5188 -0.2894 -3.4555
 6390TIP3    H219177   3.980   3.175   1.170  1.1988 -0.4614 -0.8287
 6391TIP3   OH219178   5.498   3.508   0.828  0.0640  0.1463  0.3384
 6391TIP3    H119179   5.585   3.539   0.855  0.3411 -0.6914  0.4760
 6391TIP3    H219180   5.516   3.422   0.788 -0.3543  1.1833 -2.3010
 6392TIP3   OH219181   0.963   4.562   4.257  0.4936  0.0688  0.1850
 6392TIP3    H119182   0.972   4.582   4.350  0.5254  0.4604  0.1000
 6392TIP3    H219183   0.957   4.466   4.253  0.5590  0.0476  0.5817
 6393TIP3   OH219184   4.889   2.202   3.565 -0.0697 -0.5011  0.3893
 6393TIP3    H119185   4.904   2.137   3.497  0.0860 -1.0017  0.8955
 6393TIP3    H219186   4.911   2.285   3.524  2.0127 -0.9857  0.4217
 6394TIP3   OH219187   2.812   2.608   4.285  0.7318 -0.6769  0.1756
 6394TIP3    H119188   2.792   2.524   4.243  0.6440 -1.1491  1.1140
 6394TIP3    H219189   2.732   2.631   4.332  0.3429  0.5662 -1.0534
 6395TIP3   OH219190   0.032   1.822   4.400  0.8428  0.2666 -0.2228
 6395TIP3    H119191  -0.043   1.830   4.459  0.9601 -0.7713  0.0878
 6395TIP3    H219192   0.083   1.901   4.416  1.2895 -0.3585  1.6936
 6396TIP3   OH219193   3.461   3.959   4.670 -0.7094  0.4294 -0.3592
 6396TIP3    H119194   3.530   3.894   4.655  0.7985  2.2599 -1.9656
 6396TIP3    H219195   3.394   3.912   4.719  0.8514 -1.9622 -0.3389
 6397TIP3   OH219196   4.979   2.154   4.969 -0.0642  0.2115  0.2533
 6397TIP3    H119197   5.045   2.101   4.925 -0.6211  0.2551 -0.6618
 6397TIP3    H219198   5.027   2.229   5.004  0.4211  0.0746 -0.1138
 6398TIP3   OH219199   1.617   5.048   0.967 -0.0037  0.1822  0.0728
 6398TIP3    H119200   1.557   5.121   0.951  1.0905  0.9120 -0.7987
 6398TIP3    H219201   1.674   5.046   0.890 -0.4956 -2.1080 -0.3103
 6399TIP3   OH219202   6.056   0.193   5.067  0.0529 -0.6108  0.1557
 6399TIP3    H119203   6.038   0.106   5.104  1.0369  0.5681  3.8584
 6399TIP3    H219204   5.989   0.249   5.105  0.4879  0.5743 -0.7648
 6400TIP3   OH219205   4.104   5.211   2.055  0.2526 -0.2466 -0.0316
 6400TIP3    H119206   4.072   5.275   1.991  2.8201  0.9456 -0.2465
 6400TIP3    H219207   4.091   5.254   2.140  1.7209  0.5151 -0.1582
 6401TIP3   OH219208   4.571   4.986   1.371 -0.2396 -0.8536 -0.6981
 6401TIP3    H119209   4.658   4.948   1.375 -0.2976 -0.9300 -0.0500
 6401TIP3    H219210   4.534   4.971   1.458 -0.1228  1.0486 -0.2897
 6402TIP3   OH219211   2.774   2.313   2.791 -0.1149 -0.0554 -0.3236
 6402TIP3    H119212   2.831   2.253   2.743  0.6863 -0.2015  0.7625
 6402TIP3    H219213   2.752   2.265   2.871 -2.7197 -0.4729 -1.1681
 6403TIP3   OH219214  -0.015   2.115   0.444  0.1614 -0.4761  0.0447
 6403TIP3    H119215   0.079   2.103   0.453  0.1952 -0.4794 -0.2840
 6403TIP3    H219216  -0.041   2.052   0.376  0.4826  1.8145 -2.3644
 6404TIP3   OH219217   1.850   5.891   3.080  0.7491 -0.2182  0.5889
 6404TIP3    H119218   1.820   5.901   2.990 -2.6445  1.6565  1.7403
 6404TIP3    H219219   1.807   5.812   3.111  0.2641  0.2239  1.0792
 6405TIP3   OH219220   5.425   5.574   2.331 -0.3704  0.2802 -0.1054
 6405TIP3    H119221   5.390   5.513   2.266 -1.1396 -0.8932  1.3607
 6405TIP3    H219222   5.520   5.568   2.320 -0.4800  1.1223 -1.9869
 6406TIP3   OH219223   4.857   0.225   1.399  0.2146  0.4282 -0.6385
 6406TIP3    H119224   4.820   0.204   1.485  0.6942  1.8860 -0.0327
 6406TIP3    H219225   4.882   0.141   1.362 -2.4176 -0.5074 -0.5074
 6407TIP3   OH219226   3.485   4.968   4.985 -0.5856  0.4838  0.4260
 6407TIP3    H119227   3.549   5.022   4.939 -0.8497 -0.4115 -1.0621
 6407TIP3    H219228   3.513   4.878   4.970 -2.1463  0.0666 -0.2231
 6408TIP3   OH219229   4.044   4.380   4.892 -0.1290  0.0681  0.0643
 6408TIP3    H119230   3.999   4.302   4.860 -0.7675  0.1009  0.8604
 6408TIP3    H219231   4.064   4.361   4.984 -0.7103  1.0168  0.3999
 6409TIP3   OH219232   0.117   4.965   4.015  0.1140 -0.3302  0.0594
 6409TIP3    H119233   0.035   4.928   3.981 -0.9747  1.1965  0.9153
 6409TIP3    H219234   0.162   4.998   3.937 -0.9134  0.3817 -0.2541
 6410TIP3   OH219235   3.030   4.113   2.068  0.3780 -0.0282 -0.5346
 6410TIP3    H119236   3.107   4.108   2.125  0.7811 -0.3984 -1.1023
 6410TIP3    H219237   3.065   4.125   1.980 -0.1141 -1.9026 -1.0492
 6411TIP3   OH219238   2.966   5.288   1.989 -0.0226 -0.1904  0.0164
 6411TIP3    H119239   3.014   5.241   2.058 -0.3990  0.5492  0.7978
 6411TIP3    H219240   2.987   5.380   2.003 -0.3759 -0.0001 -0.6576
 6412TIP3   OH219241   3.031   1.379   0.183 -0.0898 -0.4442 -0.5416
 6412TIP3    H119242   3.027   1.382   0.087 -1.0375  0.4750 -0.4822
 6412TIP3    H219243   3.000   1.465   0.211 -1.0981 -1.1726  0.6326
 6413TIP3   OH219244   2.209   5.517   4.517 -0.0233  0.4478 -0.2535
 6413TIP3    H119245   2.114   5.503   4.514  0.1062 -0.6695  0.3759
 6413TIP3    H219246   2.221   5.586   4.582 -0.5726  2.6927 -2.3685
 6414TIP3   OH219247   3.820   3.023   1.976  0.8721 -0.2651  0.5646
 6414TIP3    H119248   3.906   2.992   1.948  0.0003 -0.7679 -1.7968
 6414TIP3    H219249   3.822   3.117   1.958  1.7076  0.2251  2.8394
 6415TIP3   OH219250   4.166   0.768   0.176 -0.4665  0.2252 -0.5004
 6415TIP3    H119251   4.143   0.845   0.228 -0.9993 -1.0749  1.2912
 6415TIP3    H219252   4.090   0.755   0.118  0.2384  1.8306 -1.8623
 6416TIP3   OH219253   0.214   3.000   0.375  0.4436  0.1629 -0.3038
 6416TIP3    H119254   0.276   2.954   0.433  1.1247  0.7407 -0.5551
 6416TIP3    H219255   0.170   2.929   0.328  0.9077 -0.2648 -0.1132
 6417TIP3   OH219256   4.989   0.869   0.794  0.0459 -0.0587 -0.1438
 6417TIP3    H119257   5.048   0.913   0.855  0.5837  0.1191 -0.7797
 6417TIP3    H219258   4.923   0.826   0.850 -0.3874  1.3950  0.4950
 6418TIP3   OH219259   6.046   2.260   0.359 -0.1317  0.3584 -0.4015
 6418TIP3    H119260   6.014   2.181   0.402  0.1466  1.5603  2.1668
 6418TIP3    H219261   6.140   2.243   0.346  0.3544  0.9742  1.9713
 6419TIP3   OH219262   4.183   5.802   1.913  0.0361  0.1330 -0.5627
 6419TIP3    H119263   4.126   5.756   1.975  0.7474 -3.0590 -2.0340
 6419TIP3    H219264   4.180   5.748   1.834  2.6546  1.5519 -1.7570
 6420TIP3   OH219265   6.299   0.431   0.795 -0.1395 -0.2497  0.1168
 6420TIP3    H119266   6.354   0.424   0.717  0.9015  0.2057  0.7950
 6420TIP3    H219267   6.309   0.347   0.839  0.2699 -0.0615  0.3936
 6421TIP3   OH219268   2.915   3.623   3.133  0.2319  0.2247  0.0604
 6421TIP3    H119269   2.848   3.655   3.194 -0.3245 -0.9304  0.0887
 6421TIP3    H219270   2.953   3.702   3.095 -0.7138  0.9211  0.5171
 6422TIP3   OH219271   0.936   5.133   1.752  0.1100 -0.5221  0.1739
 6422TIP3    H119272   1.031   5.141   1.765 -0.0866 -0.7339  1.8959
 6422TIP3    H219273   0.899   5.143   1.839 -1.3645 -2.0234 -0.2336
 6423TIP3   OH219274   4.165   0.932   0.906 -0.9929 -0.0736 -0.3383
 6423TIP3    H119275   4.130   0.927   0.817 -0.9486 -2.7836 -0.2683
 6423TIP3    H219276   4.109   0.875   0.958 -1.1405  1.6078  1.4781
 6424TIP3   OH219277   5.237   3.142   3.639 -0.0239 -0.5427 -0.3448
 6424TIP3    H119278   5.198   3.219   3.681  1.4288 -0.0533  0.1537
 6424TIP3    H219279   5.232   3.074   3.705  1.4401 -0.0198  0.3348
 6425TIP3   OH219280   4.699   5.011   2.361 -0.0511  0.3102 -0.1635
 6425TIP3    H119281   4.675   4.919   2.376 -0.4763  0.5230  0.4756
 6425TIP3    H219282   4.789   5.018   2.395  0.0376  0.0994 -0.3472
 6426TIP3   OH219283   3.049   5.797   4.471 -0.1017 -1.0373  0.2284
 6426TIP3    H119284   3.145   5.794   4.466 -0.0567 -0.8161  0.8148
 6426TIP3    H219285   3.028   5.742   4.547 -0.5381 -2.2286 -0.7401
 6427TIP3   OH219286   4.812   4.781   3.996  0.0456 -0.3201  0.4342
 6427TIP3    H119287   4.890   4.816   3.953  0.7239 -0.2558  1.6748
 6427TIP3    H219288   4.798   4.839   4.070 -1.0433 -0.4876  0.3653
 6428TIP3   OH219289   5.490   3.210   0.249  0.9305 -0.4096 -0.5370
 6428TIP3    H119290   5.575   3.252   0.258  0.0545  1.4713 -0.5919
 6428TIP3    H219291   5.510   3.119   0.225  2.8915  0.8523 -4.3987
 6429TIP3   OH219292   0.998   3.953   3.290 -0.0013 -0.6590 -0.0184
 6429TIP3    H119293   1.058   4.015   3.249 -2.4828  1.6110 -0.5277
 6429TIP3    H219294   0.980   3.990   3.376 -1.4916 -0.6208 -0.3136
 6430TIP3   OH219295   2.404   0.015   0.260  0.4097 -0.1790  0.6487
 6430TIP3    H119296   2.309   0.015   0.252  0.4740 -0.4931 -0.2898
 6430TIP3    H219297   2.436   0.015   0.169  1.2835 -2.2358  0.8968
 6431TIP3   OH219298   5.675   3.513   0.432 -0.2905 -0.0174  0.2278
 6431TIP3    H119299   5.581   3.507   0.421 -0.3057  1.1779 -0.4729
 6431TIP3    H219300   5.687   3.571   0.507 -0.0974 -1.7144  1.5847
 6432TIP3   OH219301   5.368   3.986   0.236  0.3023  0.0849 -0.4187
 6432TIP3    H119302   5.280   3.949   0.245 -0.4256  1.6735 -0.6896
 6432TIP3    H219303   5.427   3.913   0.256 -1.0764 -0.5827  1.5634
 6433TIP3   OH219304   5.419   5.117   2.240  0.5500 -0.0940 -0.3849
 6433TIP3    H119305   5.396   5.049   2.177 -0.1962 -1.2380  1.0801
 6433TIP3    H219306   5.494   5.082   2.288  0.2592  0.1800  0.2806
 6434TIP3   OH219307   4.232   5.726   3.386 -0.1848  0.1171  0.9120
 6434TIP3    H119308   4.215   5.820   3.393 -1.1918  0.0516 -0.2038
 6434TIP3    H219309   4.207   5.691   3.471 -1.7147  0.6144  0.6947
 6435TIP3   OH219310   0.090   0.941   0.884  0.1998 -0.2972 -0.4962
 6435TIP3    H119311   0.052   1.007   0.941  2.2629 -0.1557  0.8035
 6435TIP3    H219312   0.053   0.858   0.914  0.4630 -0.1105  0.3573
 6436TIP3   OH219313   3.667   1.007   2.967 -0.1820  0.0679  0.5375
 6436TIP3    H119314   3.615   1.040   3.039 -0.3976 -0.4080  0.5989
 6436TIP3    H219315   3.643   0.915   2.959  0.7155 -0.1831  0.6330
 6437TIP3   OH219316   3.065   0.618   1.507 -0.1235 -0.1394  0.4396
 6437TIP3    H119317   3.019   0.560   1.446  0.6615  0.2576 -0.5537
 6437TIP3    H219318   3.151   0.578   1.518 -0.2879 -0.2543  1.3743
 6438TIP3   OH219319   4.115   3.027   2.877 -0.0349 -0.2200  0.2739
 6438TIP3    H119320   4.032   3.072   2.864 -0.2595 -1.1124 -1.7463
 6438TIP3    H219321   4.167   3.088   2.929 -1.4457  0.9540  0.3809
 6439TIP3   OH219322   4.704   0.982   3.979  0.1048  0.0870  0.0772
 6439TIP3    H119323   4.703   1.005   4.072  0.4534  0.1568  0.0643
 6439TIP3    H219324   4.706   1.066   3.934  3.0635  0.1213  0.0443
 6440TIP3   OH219325   0.843   5.967   1.021  0.5744  0.3410  0.2686
 6440TIP3    H119326   0.921   5.916   1.000  0.3169  0.4940 -1.1324
 6440TIP3    H219327   0.846   6.041   0.961 -1.6189 -0.6305 -1.1779
 6441TIP3   OH219328   0.236   4.408   4.794 -0.5919 -0.3770  0.5380
 6441TIP3    H119329   0.255   4.316   4.777  0.4294 -0.2123  0.7045
 6441TIP3    H219330   0.185   4.437   4.719  3.1550  0.1638 -2.0391
 6442TIP3   OH219331   6.032   2.185   5.006 -0.3157  0.6610 -0.6074
 6442TIP3    H119332   6.030   2.277   5.030  0.8972  0.6934 -0.5659
 6442TIP3    H219333   6.114   2.152   5.045 -1.3287 -0.7278  0.4490
 6443TIP3   OH219334   0.706   5.184   1.402  0.6704  0.6623 -0.1316
 6443TIP3    H119335   0.610   5.183   1.402  0.6605  0.6685  0.9659
 6443TIP3    H219336   0.730   5.269   1.438  1.0559 -0.1823  1.7216
 6444TIP3   OH219337   2.232   4.468   3.345  0.2358 -0.0233  0.5665
 6444TIP3    H119338   2.214   4.405   3.416 -0.3235 -1.7489 -1.0259
 6444TIP3    H219339   2.259   4.547   3.391 -0.4821 -0.9295  2.7383
 6445TIP3   OH219340   0.886   1.353   3.564  0.1202 -0.3834  0.2669
 6445TIP3    H119341   0.896   1.315   3.477  0.7899 -1.9405  0.9808
 6445TIP3    H219342   0.861   1.444   3.548  0.1771 -0.6495 -1.5369
 6446TIP3   OH219343   5.155   5.184   3.417 -0.2462  0.1855  0.2242
 6446TIP3    H119344   5.090   5.113   3.422 -0.6356  0.3801 -1.6195
 6446TIP3    H219345   5.236   5.140   3.391 -0.2406  0.2960  0.0613
 6447TIP3   OH219346   2.182   2.622   1.981 -0.7041  0.1218 -0.1152
 6447TIP3    H119347   2.117   2.604   2.049 -0.7886  0.7647 -0.0138
 6447TIP3    H219348   2.131   2.655   1.907 -0.3743  2.8637  0.7505
 6448TIP3   OH219349   0.621   0.361   2.499  0.8894  0.4005 -0.1481
 6448TIP3    H119350   0.639   0.352   2.406 -0.1064 -0.2230 -0.2883
 6448TIP3    H219351   0.603   0.455   2.511  0.1299  0.3371 -0.7513
 6449TIP3   OH219352   5.935   1.902   5.040 -0.4381  0.6294 -0.2822
 6449TIP3    H119353   5.942   1.996   5.023  1.6478  0.6362  0.3109
 6449TIP3    H219354   6.020   1.867   5.017 -0.9045 -0.9937  0.3062
 6450TIP3   OH219355   0.480   3.520   2.235  0.5226  0.4158  0.3906
 6450TIP3    H119356   0.445   3.464   2.165  0.5153 -0.8627  1.3901
 6450TIP3    H219357   0.560   3.557   2.198 -1.1248  2.3543 -1.4691
 6451TIP3   OH219358   4.948   1.514   2.611 -0.2126  0.0152  0.8997
 6451TIP3    H119359   5.032   1.508   2.656 -0.1356 -0.2640  0.7251
 6451TIP3    H219360   4.941   1.431   2.563 -1.6005 -0.9840  2.7007
 6452TIP3   OH219361   3.582   5.921   1.284 -0.1555  0.0081 -0.7621
 6452TIP3    H119362   3.506   5.896   1.232  0.5722 -1.8508 -1.0045
 6452TIP3    H219363   3.651   5.935   1.219  0.0247  0.5075 -0.4672
 6453TIP3   OH219364   5.875   1.036   4.165  0.3833 -0.6218 -0.6496
 6453TIP3    H119365   5.791   0.989   4.170 -0.4951  0.9541  0.5505
 6453TIP3    H219366   5.861   1.103   4.099 -0.7490  2.1057  2.1034
 6454TIP3   OH219367   0.688   2.314   1.834  0.2438 -0.4260 -0.6908
 6454TIP3    H119368   0.692   2.224   1.865  2.1892 -0.4337 -0.8216
 6454TIP3    H219369   0.639   2.360   1.902  1.2555 -1.1587  0.5868
 6455TIP3   OH219370   6.024   2.974   2.821  0.4438 -0.4005 -0.0252
 6455TIP3    H119371   5.950   2.977   2.882  0.1101 -0.9502 -0.3832
 6455TIP3    H219372   6.101   2.986   2.876  0.0286  1.7582  0.1605
 6456TIP3   OH219373   1.681   2.180   2.362  0.6792  0.1229  0.4829
 6456TIP3    H119374   1.633   2.211   2.285  1.6059  0.8459  0.1650
 6456TIP3    H219375   1.675   2.085   2.357 -1.8911  0.1698  1.2499
 6457TIP3   OH219376   2.536   0.259   0.857  0.4199 -0.3650 -0.2515
 6457TIP3    H119377   2.575   0.335   0.813  0.3009 -0.8443 -1.2126
 6457TIP3    H219378   2.567   0.184   0.807  2.4409 -1.1923  2.0523
 6458TIP3   OH219379   4.335   3.224   4.218  0.3084 -0.2345 -0.2920
 6458TIP3    H119380   4.270   3.257   4.281  0.5614 -0.5075  0.1191
 6458TIP3    H219381   4.298   3.244   4.132 -0.4119 -0.5546 -0.0612
 6459TIP3   OH219382   4.750   4.508   0.870 -0.1736  0.1676 -0.1829
 6459TIP3    H119383   4.742   4.568   0.796 -2.0467  0.5042  0.2345
 6459TIP3    H219384   4.678   4.446   0.858 -0.2544 -0.0263  1.1153
 6460TIP3   OH219385   1.268   1.172   1.559 -1.0465 -0.1208  0.6314
 6460TIP3    H119386   1.264   1.262   1.591  0.8691 -0.0217  0.7195
 6460TIP3    H219387   1.241   1.118   1.634 -0.9467  0.3177  0.9850
 6461TIP3   OH219388   4.058   3.988   4.976 -0.1469  0.0791 -0.3522
 6461TIP3    H119389   3.985   4.039   5.011  0.4650  2.2864 -2.0870
 6461TIP3    H219390   4.120   3.981   5.049  0.0561  2.5055 -0.2270
 6462TIP3   OH219391  -0.006   0.997   2.339 -0.6276 -0.8301 -0.2825
 6462TIP3    H119392  -0.030   1.090   2.338  0.6441 -0.4689  0.9073
 6462TIP3    H219393   0.037   0.984   2.423 -0.1524 -2.3457 -0.7321
 6463TIP3   OH219394   0.258   1.134   1.398  0.2910  0.3451 -0.2652
 6463TIP3    H119395   0.324   1.072   1.430 -0.8446 -0.9429 -0.3500
 6463TIP3    H219396   0.246   1.196   1.470  1.2794  0.3509 -0.0926
 6464TIP3   OH219397   3.247   5.208   4.419 -0.4529  0.3876  0.0018
 6464TIP3    H119398   3.216   5.235   4.505 -0.0332 -3.5533  1.5850
 6464TIP3    H219399   3.175   5.157   4.382  0.0131  0.6164 -1.2798
 6465TIP3   OH219400   6.200   5.281   1.266  0.0734 -0.2482 -0.1570
 6465TIP3    H119401   6.190   5.200   1.216 -0.7711  0.0681 -0.5191
 6465TIP3    H219402   6.234   5.344   1.203  3.7538 -1.0199  0.7990
 6466TIP3   OH219403   2.892   5.750   5.097 -0.6336  0.0282 -0.4005
 6466TIP3    H119404   2.871   5.679   5.037 -0.6414  0.0576 -0.4331
 6466TIP3    H219405   2.852   5.724   5.181  2.2784 -1.6676  0.5931
 6467TIP3   OH219406   1.494   1.319   4.280  0.6634  0.1647  0.5517
 6467TIP3    H119407   1.552   1.244   4.288 -0.3716 -0.5345  2.0087
 6467TIP3    H219408   1.453   1.310   4.194  1.3543 -0.3268  0.2753
 6468TIP3   OH219409   5.695   2.559   2.160 -0.2639  0.1002 -0.3126
 6468TIP3    H119410   5.770   2.568   2.102  0.0870 -1.2104 -0.0811
 6468TIP3    H219411   5.623   2.531   2.102  0.3372 -2.2481 -0.0194
 6469TIP3   OH219412   0.112   4.839   4.258  0.2885 -0.7652 -0.2550
 6469TIP3    H119413   0.019   4.818   4.257  0.1326 -0.1399 -1.9302
 6469TIP3    H219414   0.132   4.864   4.168  1.4652  1.7286  0.6193
 6470TIP3   OH219415   1.140   4.078   2.403 -0.1888  0.1544 -0.5400
 6470TIP3    H119416   1.049   4.061   2.379  0.0206 -2.4204  0.1189
 6470TIP3    H219417   1.158   4.166   2.371 -2.9454  0.8058 -0.5497
 6471TIP3   OH219418   3.108   3.318   0.549 -0.0073 -0.1206 -0.0402
 6471TIP3    H119419   3.182   3.268   0.583  1.5051  0.5260 -2.1933
 6471TIP3    H219420   3.090   3.383   0.617  1.4295 -0.2810  0.5256
 6472TIP3   OH219421   3.478   2.240   1.317  0.2953 -0.0518  0.2085
 6472TIP3    H119422   3.395   2.280   1.291 -0.6924 -1.1350  1.5282
 6472TIP3    H219423   3.507   2.292   1.393 -0.3260 -0.9939  1.1156
 6473TIP3   OH219424   0.199   0.867   2.526 -0.5567 -0.7234 -0.3819
 6473TIP3    H119425   0.187   0.784   2.480  2.3553 -1.7164  0.4171
 6473TIP3    H219426   0.114   0.885   2.566 -1.8314 -2.2375 -2.2235
 6474TIP3   OH219427   5.627   3.189   1.019  0.1023  0.2629 -0.2030
 6474TIP3    H119428   5.558   3.126   0.995  0.6073 -0.6670  0.7142
 6474TIP3    H219429   5.580   3.260   1.062 -0.4969  0.6282 -1.4077
 6475TIP3   OH219430   2.146   3.358   0.699 -0.2310  0.4451 -0.7367
 6475TIP3    H119431   2.061   3.382   0.735 -0.5550  0.1579 -1.2945
 6475TIP3    H219432   2.141   3.264   0.685  0.5358  0.2638  0.1330
 6476TIP3   OH219433   3.399   5.878   4.795  0.4345  0.0565  0.3043
 6476TIP3    H119434   3.475   5.830   4.825 -0.1571 -0.4841  0.9545
 6476TIP3    H219435   3.326   5.816   4.801 -0.4787  1.2142  1.8495
 6477TIP3   OH219436   4.212   1.039   1.847  0.5733  0.0762  0.7567
 6477TIP3    H119437   4.159   1.091   1.907  0.1895 -0.7213  1.1349
 6477TIP3    H219438   4.214   1.089   1.766  1.1771  1.2286  1.4471
 6478TIP3   OH219439   3.781   5.361   3.758 -0.7147  1.2559 -0.3305
 6478TIP3    H119440   3.748   5.287   3.810 -0.8716  2.3274  1.1400
 6478TIP3    H219441   3.729   5.358   3.677  0.5569 -1.3324 -1.1653
 6479TIP3   OH219442   1.778   2.619   4.631 -0.5684  0.6296  0.0825
 6479TIP3    H119443   1.844   2.653   4.691  1.8045  0.0923 -2.0410
 6479TIP3    H219444   1.814   2.535   4.602 -2.6904 -0.1517 -0.4285
 6480TIP3   OH219445   4.414   0.865   1.045  0.8269 -0.7613  0.4613
 6480TIP3    H119446   4.392   0.784   0.999  1.3092 -0.1378 -0.9028
 6480TIP3    H219447   4.345   0.927   1.021  0.7768 -0.5802  1.0354
 6481TIP3   OH219448   3.199   1.409   3.832 -0.3508 -0.1222 -0.1286
 6481TIP3    H119449   3.259   1.463   3.884  1.0994 -0.6491 -1.1910
 6481TIP3    H219450   3.121   1.463   3.821  0.1549  0.8269  0.7865
 6482TIP3   OH219451   2.020   2.245   0.533  0.1668 -0.2010  0.0381
 6482TIP3    H119452   2.059   2.160   0.553 -2.1562 -1.7042 -1.4536
 6482TIP3    H219453   2.010   2.247   0.438 -1.2429  1.0758  0.1620
 6483TIP3   OH219454   2.706   2.526   1.075 -0.7242  0.2951 -0.1880
 6483TIP3    H119455   2.690   2.474   0.996  0.3977 -1.9891  0.9801
 6483TIP3    H219456   2.622   2.526   1.121 -0.7314 -0.5636 -0.1862
 6484TIP3   OH219457   5.785   0.572   3.506 -0.0074  0.0328 -0.0252
 6484TIP3    H119458   5.796   0.564   3.411  1.6528  0.1952  0.1219
 6484TIP3    H219459   5.754   0.662   3.519  1.6349  0.6870 -0.3277
 6485TIP3   OH219460   2.773   3.155   4.673  0.6281 -0.9188  0.2742
 6485TIP3    H119461   2.743   3.068   4.699 -0.9347 -0.1450  1.2206
 6485TIP3    H219462   2.707   3.184   4.609  1.2119 -0.4803 -0.1357
 6486TIP3   OH219463   1.043   2.013   1.286  0.0352  0.6755 -0.1819
 6486TIP3    H119464   1.120   1.978   1.242  1.4768  1.2381  1.7511
 6486TIP3    H219465   1.071   2.024   1.377 -2.2522  1.1827  0.5113
 6487TIP3   OH219466   1.140   4.235   4.735  0.1052  0.6000  0.0647
 6487TIP3    H119467   1.065   4.292   4.715 -0.7407 -0.1393  1.0451
 6487TIP3    H219468   1.116   4.191   4.817  0.4829 -1.6089 -0.9400
 6488TIP3   OH219469   1.489   0.860   0.760  0.1039 -0.1145  0.2896
 6488TIP3    H119470   1.407   0.866   0.810  0.1690 -0.9038  0.4931
 6488TIP3    H219471   1.557   0.866   0.827  0.2069 -0.0657  0.1793
 6489TIP3   OH219472   0.855   0.707   0.062 -0.8627 -0.0423 -0.0158
 6489TIP3    H119473   0.777   0.730   0.013 -1.3291 -0.3638  0.5659
 6489TIP3    H219474   0.834   0.624   0.105 -0.4602  0.2093  0.6945
 6490TIP3   OH219475   5.786   2.654   4.028  0.1201  0.0937 -0.9995
 6490TIP3    H119476   5.781   2.749   4.029  1.6707  0.2559  1.9134
 6490TIP3    H219477   5.696   2.625   4.018 -0.7538  1.9489  0.8690
 6491TIP3   OH219478   6.182   0.122   2.196  0.7294 -0.2294 -0.5446
 6491TIP3    H119479   6.247   0.052   2.204  0.8589 -0.1198 -0.6500
 6491TIP3    H219480   6.173   0.157   2.285 -0.3306 -1.2789 -0.2150
 6492TIP3   OH219481   2.785   2.846   3.268  0.0550 -0.3915 -0.1160
 6492TIP3    H119482   2.721   2.833   3.198 -0.3946 -0.0072  0.2166
 6492TIP3    H219483   2.870   2.848   3.223 -0.2007 -0.4884 -0.6087
 6493TIP3   OH219484   2.082   2.922   0.407 -0.2154  0.7009  0.1748
 6493TIP3    H119485   2.150   2.987   0.426  2.1767 -0.9618 -1.9821
 6493TIP3    H219486   2.031   2.961   0.336  1.0590  0.3963 -0.9470
 6494TIP3   OH219487   4.417   2.772   1.053 -0.9770 -0.1486  1.0467
 6494TIP3    H119488   4.511   2.790   1.043 -0.9668 -0.8081 -0.1925
 6494TIP3    H219489   4.378   2.859   1.066 -0.1205  0.0654  2.3976
 6495TIP3   OH219490   3.098   2.793   0.259  0.6662 -0.1792 -0.2124
 6495TIP3    H119491   3.090   2.860   0.326  0.5289 -0.1341 -0.2739
 6495TIP3    H219492   3.087   2.710   0.305  0.0345 -0.1280 -0.2646
 6496TIP3   OH219493   5.362   4.347   1.467 -0.4761 -0.3862  0.5344
 6496TIP3    H119494   5.400   4.335   1.381  0.0682  1.1631  0.5343
 6496TIP3    H219495   5.437   4.358   1.526 -0.8114  2.4893  0.5647
 6497TIP3   OH219496   1.208   0.186   2.091 -0.7372 -0.2178 -0.0729
 6497TIP3    H119497   1.274   0.166   2.158 -1.4318  1.3435  1.1459
 6497TIP3    H219498   1.140   0.120   2.105 -0.5405 -0.3540  0.2580
 6498TIP3   OH219499   5.473   4.500   3.151 -0.0210 -0.2323  0.8684
 6498TIP3    H119500   5.422   4.428   3.114 -0.2881  0.5322 -0.3054
 6498TIP3    H219501   5.527   4.531   3.078 -0.5424  1.3074  1.1068
 6499TIP3   OH219502   2.855   1.320   2.608  0.0894 -0.3095  0.1715
 6499TIP3    H119503   2.850   1.369   2.526  0.6227 -0.0185  0.3075
 6499TIP3    H219504   2.806   1.239   2.591 -0.8514  0.2967 -0.0335
 6500TIP3   OH219505   5.436   0.755   2.672 -0.0324 -0.1373 -0.0852
 6500TIP3    H119506   5.491   0.786   2.601  1.0868 -0.2257  0.7183
 6500TIP3    H219507   5.423   0.833   2.728 -0.7556 -0.1101 -0.2750
 6501TIP3   OH219508   1.097   3.593   0.108 -0.5673  0.0757  0.7357
 6501TIP3    H119509   1.046   3.529   0.158  0.9275 -0.3475  1.7958
 6501TIP3    H219510   1.188   3.564   0.119  0.0194  1.5792  0.0454
 6502TIP3   OH219511   1.766   4.521   2.214 -0.1428 -0.0508 -0.5556
 6502TIP3    H119512   1.682   4.496   2.176  0.4769 -1.5632 -1.0132
 6502TIP3    H219513   1.767   4.617   2.209 -1.9009  0.0144 -0.3552
 6503TIP3   OH219514   2.991   3.978   1.197 -0.0951 -0.3654  0.8944
 6503TIP3    H119515   3.084   3.993   1.182 -0.2922 -0.9517 -1.2345
 6503TIP3    H219516   2.988   3.903   1.257  0.8190 -1.1422 -0.0025
 6504TIP3   OH219517   1.372   5.413   4.671 -0.2846  0.7850 -0.4314
 6504TIP3    H119518   1.414   5.496   4.648 -0.1412  1.2657  1.4477
 6504TIP3    H219519   1.290   5.412   4.621  1.6428 -0.0117 -3.9104
 6505TIP3   OH219520   5.822   0.409   4.156 -0.1424 -0.6816  0.6215
 6505TIP3    H119521   5.735   0.406   4.116  0.8217  0.3976 -1.7329
 6505TIP3    H219522   5.837   0.501   4.175  0.6197 -0.8027  0.6377
 6506TIP3   OH219523   6.023   2.810   2.326  0.3860 -0.0654  0.3317
 6506TIP3    H119524   5.949   2.855   2.285  1.3744  0.4204 -1.0147
 6506TIP3    H219525   5.990   2.780   2.410 -1.2938  0.2524 -0.1842
 6507TIP3   OH219526   0.682   2.901   3.433 -0.1017  0.4549  0.0393
 6507TIP3    H119527   0.706   2.970   3.494 -0.7337  0.8718 -0.1769
 6507TIP3    H219528   0.691   2.820   3.483 -0.6288  0.7956  0.6966
 6508TIP3   OH219529   1.235   4.521   2.158  0.2025 -0.1896 -0.0459
 6508TIP3    H119530   1.147   4.546   2.129  0.0618  0.7599  1.1436
 6508TIP3    H219531   1.282   4.501   2.077 -1.3858 -1.7513 -0.6583
 6509TIP3   OH219532   3.366   0.668   3.080  0.9430 -0.5632 -0.5572
 6509TIP3    H119533   3.391   0.685   2.990  2.0017 -1.7544 -0.5134
 6509TIP3    H219534   3.436   0.707   3.132  0.7461 -0.5801 -0.2758
 6510TIP3   OH219535   4.546   5.066   0.168  0.1559  0.2889  0.3561
 6510TIP3    H119536   4.454   5.040   0.181  0.0762  0.7486  0.7603
 6510TIP3    H219537   4.590   4.986   0.139 -0.1795 -0.1782  1.1021
 6511TIP3   OH219538   5.076   3.364   0.048  0.2518  0.4941  0.3854
 6511TIP3    H119539   5.071   3.429   0.118  1.5665  1.3511 -0.2823
 6511TIP3    H219540   5.168   3.363   0.023 -0.4349  1.6690 -2.6706
 6512TIP3   OH219541   0.879   0.512   4.689  0.0199  0.4304  1.0850
 6512TIP3    H119542   0.943   0.460   4.737  3.6359 -0.1473 -3.5768
 6512TIP3    H219543   0.829   0.447   4.639  0.9541  1.0707 -0.7846
 6513TIP3   OH219544   5.478   4.812   1.063  0.3981  0.1818  0.0399
 6513TIP3    H119545   5.428   4.867   1.122 -1.7756 -3.3016  1.7995
 6513TIP3    H219546   5.554   4.785   1.114  0.2317 -0.2581  0.0612
 6514TIP3   OH219547   0.378   5.623   0.564 -0.0052 -0.3910 -0.2499
 6514TIP3    H119548   0.380   5.692   0.498 -0.6594 -0.6847 -0.5876
 6514TIP3    H219549   0.433   5.656   0.635  0.4710  0.0550 -0.8136
 6515TIP3   OH219550   1.769   3.007   1.947  0.9752 -0.5202 -0.6706
 6515TIP3    H119551   1.704   2.938   1.958 -0.3720  0.5949 -1.3344
 6515TIP3    H219552   1.835   2.990   2.014  0.0032 -1.6897  0.0109
 6516TIP3   OH219553   3.192   2.198   3.361 -0.7339  0.3122 -0.0242
 6516TIP3    H119554   3.113   2.151   3.386 -0.5010 -0.0940 -0.0492
 6516TIP3    H219555   3.166   2.290   3.362 -1.3458  0.1524 -0.5186
 6517TIP3   OH219556   5.458   3.633   4.012 -0.0541 -0.0223  0.8612
 6517TIP3    H119557   5.385   3.573   4.029  0.2852 -0.2998  1.3558
 6517TIP3    H219558   5.522   3.579   3.965  0.3257 -0.1048  1.4600
 6518TIP3   OH219559   0.029   2.422   0.385  0.3267 -0.3634 -0.2775
 6518TIP3    H119560   0.056   2.362   0.316  0.1499 -3.2066  1.9560
 6518TIP3    H219561   0.111   2.442   0.432  0.3104  0.8294 -0.7227
 6519TIP3   OH219562   3.904   4.429   4.378 -0.3797 -0.0863 -0.2518
 6519TIP3    H119563   3.927   4.408   4.288  1.1776 -0.3235  0.1620
 6519TIP3    H219564   3.909   4.345   4.424 -0.9217  0.0707  0.0997
 6520TIP3   OH219565   0.507   5.360   3.507 -0.1462  0.2658 -0.2430
 6520TIP3    H119566   0.531   5.368   3.415  1.3133 -0.7685  0.0171
 6520TIP3    H219567   0.545   5.277   3.535 -2.2301 -0.4000  0.8136
 6521TIP3   OH219568   1.254   0.054   1.143  0.0306 -0.0747 -0.0471
 6521TIP3    H119569   1.192   0.003   1.091  0.6413  0.4765 -1.3813
 6521TIP3    H219570   1.237   0.028   1.233  0.1650 -2.4797 -0.6356
 6522TIP3   OH219571   2.071   1.355   4.764  0.3929 -0.3642  0.0992
 6522TIP3    H119572   2.158   1.377   4.731  0.7564 -0.6327  0.8607
 6522TIP3    H219573   2.077   1.263   4.787  0.1190 -0.2003  0.8340
 6523TIP3   OH219574   2.834   0.105   1.831 -0.0826 -0.3245 -0.3730
 6523TIP3    H119575   2.789   0.094   1.747  0.2047 -1.1151 -0.4338
 6523TIP3    H219576   2.864   0.195   1.830 -2.0792  0.3957 -0.1203
 6524TIP3   OH219577   5.297   2.023   4.558  0.2012  0.2813 -0.2816
 6524TIP3    H119578   5.241   2.003   4.483 -1.2034  0.2093  0.7581
 6524TIP3    H219579   5.291   2.118   4.568 -2.4928 -0.0188  1.8524
 6525TIP3   OH219580   3.186   4.835   0.294 -0.0910  0.1104 -0.1659
 6525TIP3    H119581   3.187   4.909   0.234  2.7198 -0.2492 -0.7024
 6525TIP3    H219582   3.167   4.759   0.237  3.1954 -0.3180 -0.8879
 6526TIP3   OH219583   6.049   2.895   2.030 -0.1783  0.1876  0.4308
 6526TIP3    H119584   5.970   2.888   1.976  0.6315 -0.1737 -0.7605
 6526TIP3    H219585   6.086   2.806   2.028 -0.0557  0.1996  1.4970
 6527TIP3   OH219586   0.825   2.299   4.088 -0.4424  0.4920 -0.5068
 6527TIP3    H119587   0.855   2.271   4.174 -0.0543  0.0180 -0.7878
 6527TIP3    H219588   0.853   2.229   4.029 -1.5493  0.3407 -0.8764
 6528TIP3   OH219589   0.439   3.270   4.009  0.6055  0.1461  0.0346
 6528TIP3    H119590   0.484   3.350   4.035  0.7687 -0.4855  1.7904
 6528TIP3    H219591   0.414   3.285   3.918  2.5176  1.3371 -0.3509
 6529TIP3   OH219592   3.122   1.895   3.115  0.0806  0.5973 -0.0741
 6529TIP3    H119593   3.100   1.946   3.037 -0.1710  0.4026 -0.1324
 6529TIP3    H219594   3.072   1.937   3.185  0.1282  0.6318 -0.0609
 6530TIP3   OH219595   1.243   2.381   3.976 -0.8070  0.2288 -0.0019
 6530TIP3    H119596   1.196   2.445   3.922 -1.9800  0.6855  1.4829
 6530TIP3    H219597   1.219   2.404   4.066  0.4845 -0.9742  0.6814
 6531TIP3   OH219598   3.513   0.287   3.968 -0.0373  0.7046 -0.2280
 6531TIP3    H119599   3.497   0.193   3.968 -0.9193  0.7499 -2.9193
 6531TIP3    H219600   3.435   0.325   4.009  0.2327  0.2871  0.6801
 6532TIP3   OH219601   4.762   1.828   0.067 -0.6899 -0.4702  0.1725
 6532TIP3    H119602   4.740   1.758   0.129  1.6661 -1.6413 -0.1993
 6532TIP3    H219603   4.710   1.809  -0.011  1.6719 -3.4494 -0.8891
 6533TIP3   OH219604   5.195   1.294   4.676  0.7450  0.0381  0.5274
 6533TIP3    H119605   5.136   1.306   4.750  1.5441  0.2063  1.1481
 6533TIP3    H219606   5.151   1.229   4.621 -0.1960  0.4477  0.7782
 6534TIP3   OH219607   3.322   5.095   3.151  0.5407  0.2448 -0.1141
 6534TIP3    H119608   3.272   5.032   3.100  1.6094  0.4569 -1.4598
 6534TIP3    H219609   3.280   5.180   3.133  0.4698  0.2244 -0.0482
 6535TIP3   OH219610   5.668   5.294   4.496  0.1280  0.5340 -0.3616
 6535TIP3    H119611   5.758   5.267   4.478  0.7972  0.8863  2.0277
 6535TIP3    H219612   5.638   5.232   4.563 -1.3273  0.5749 -0.9627
 6536TIP3   OH219613   5.703   4.727   4.418 -0.1602 -0.6605 -0.5916
 6536TIP3    H119614   5.753   4.688   4.490  1.0801  0.2260 -0.9367
 6536TIP3    H219615   5.756   4.802   4.390 -1.2492 -0.2388 -1.5908
 6537TIP3   OH219616   3.310   2.872   1.840  0.1165  0.3987  0.4902
 6537TIP3    H119617   3.404   2.855   1.833  0.4559  1.5327  1.8179
 6537TIP3    H219618   3.303   2.940   1.907 -1.5486  1.3726 -0.6064
 6538TIP3   OH219619   3.570   4.171   1.539  0.4377  0.1024 -0.3750
 6538TIP3    H119620   3.641   4.110   1.558 -1.0363 -1.1023  1.6051
 6538TIP3    H219621   3.569   4.231   1.614  0.3572  1.1285 -1.1694
 6539TIP3   OH219622   1.069   0.772   1.136 -0.2359  0.4136 -0.2256
 6539TIP3    H119623   1.040   0.695   1.088  0.6010 -1.4887  2.0953
 6539TIP3    H219624   1.160   0.753   1.160 -0.2884  1.6984  1.1671
 6540TIP3   OH219625   1.476   4.344   4.012  0.0785  0.2258 -0.0009
 6540TIP3    H119626   1.385   4.349   4.040  0.0649  1.4778 -0.2197
 6540TIP3    H219627   1.516   4.425   4.045  1.4383 -0.8899  1.2204
 6541TIP3   OH219628   3.470   4.711   0.894  0.0984 -0.0431 -0.3241
 6541TIP3    H119629   3.544   4.677   0.843  0.6466  0.3154  0.2151
 6541TIP3    H219630   3.469   4.656   0.972 -2.1284 -2.0909 -1.6428
 6542TIP3   OH219631   5.148   5.461   2.477  0.2309  0.0004 -0.1410
 6542TIP3    H119632   5.214   5.438   2.411  0.1566  0.0936 -0.2475
 6542TIP3    H219633   5.115   5.376   2.507  1.4388 -0.1095  0.9851
 6543TIP3   OH219634   2.468   4.951   2.656 -0.3913 -0.4835  0.0808
 6543TIP3    H119635   2.462   5.046   2.645 -0.3137 -0.2868  1.5598
 6543TIP3    H219636   2.409   4.915   2.589 -0.0639  0.5775 -0.8002
 6544TIP3   OH219637   3.532   1.187   4.884 -0.3259 -0.6761  0.0803
 6544TIP3    H119638   3.496   1.254   4.942  0.4992 -1.6379  1.8149
 6544TIP3    H219639   3.613   1.226   4.851  0.0483 -0.7057  0.9217
 6545TIP3   OH219640   0.573   4.003   2.128  0.8031 -0.0127 -0.0868
 6545TIP3    H119641   0.512   3.940   2.090  1.0466 -0.2886 -0.0176
 6545TIP3    H219642   0.582   3.976   2.219  2.5777 -1.1848 -0.5727
 6546TIP3   OH219643   5.583   4.225   0.964  0.1196  0.3834 -0.0130
 6546TIP3    H119644   5.506   4.254   0.915  0.5648  0.7113 -0.5398
 6546TIP3    H219645   5.582   4.278   1.044 -0.8174 -0.4151  0.5256
 6547TIP3   OH219646   1.638   0.217   1.221  0.0528  0.0060 -0.4181
 6547TIP3    H119647   1.731   0.229   1.238 -0.2673  0.6032  1.0309
 6547TIP3    H219648   1.612   0.145   1.279 -0.0697 -1.3520 -2.0581
 6548TIP3   OH219649   4.905   4.463   2.089 -0.3143 -0.6003  0.3363
 6548TIP3    H119650   4.833   4.483   2.030  0.4573  0.8197 -0.1696
 6548TIP3    H219651   4.911   4.538   2.147  1.5637 -0.0295 -0.4854
 6549TIP3   OH219652   3.478   2.782   0.480  0.2629 -0.4144  0.2294
 6549TIP3    H119653   3.559   2.792   0.531  1.2037  0.9458 -1.4242
 6549TIP3    H219654   3.508   2.757   0.392 -1.1010  0.1942 -0.4371
 6550TIP3   OH219655   1.810   5.417   3.050 -0.2817 -0.0967 -0.7715
 6550TIP3    H119656   1.876   5.396   3.116  0.2880  0.3545 -1.1797
 6550TIP3    H219657   1.778   5.332   3.020 -0.7182 -0.2974  0.2462
 6551TIP3   OH219658   5.509   5.348   1.018  0.1456  0.2291 -0.1583
 6551TIP3    H119659   5.428   5.297   1.012  0.1629  0.1888 -0.0580
 6551TIP3    H219660   5.539   5.358   0.928 -0.3637  0.8762 -0.2591
 6552TIP3   OH219661   2.210   5.520   0.525 -0.4840  0.3388 -0.2081
 6552TIP3    H119662   2.133   5.551   0.477 -0.9229 -0.5158 -0.0631
 6552TIP3    H219663   2.273   5.592   0.518 -0.5963  0.3029 -1.9410
 6553TIP3   OH219664   0.055   3.709   3.876 -0.4551  0.3901 -0.7708
 6553TIP3    H119665   0.132   3.737   3.926 -1.5498  1.3794  0.4123
 6553TIP3    H219666   0.076   3.732   3.786 -0.1868  2.6124 -0.2062
 6554TIP3   OH219667   4.501   0.384   1.632  0.1744 -0.6343  0.3943
 6554TIP3    H119668   4.523   0.473   1.605 -0.3850 -0.2076  1.3014
 6554TIP3    H219669   4.504   0.386   1.727  0.6994 -1.7360  0.4117
 6555TIP3   OH219670   6.053   5.623   4.779 -0.5142  0.1957  0.4562
 6555TIP3    H119671   6.025   5.682   4.709  0.6652 -0.9205 -0.9922
 6555TIP3    H219672   5.973   5.578   4.806 -0.8273 -0.0457 -0.8293
 6556TIP3   OH219673   2.211   2.429   0.692  0.1600 -0.4757  0.1944
 6556TIP3    H119674   2.148   2.419   0.764  0.5384 -0.2936  0.5563
 6556TIP3    H219675   2.170   2.491   0.633 -0.4546 -1.1362 -0.0890
 6557TIP3   OH219676   3.037   1.257   2.334  0.3636  0.3461  0.6299
 6557TIP3    H119677   2.977   1.322   2.297  0.7311  0.6892  0.6280
 6557TIP3    H219678   3.062   1.203   2.259 -0.0748  0.0917  0.6625
 6558TIP3   OH219679   1.014   0.813   4.266 -0.2313  0.0527  0.1843
 6558TIP3    H119680   1.099   0.786   4.233  0.4000  4.1457 -2.2816
 6558TIP3    H219681   0.954   0.798   4.193 -1.4149 -1.4719  1.4055
 6559TIP3   OH219682   5.930   0.228   3.868  0.5941 -0.3421  0.0517
 6559TIP3    H119683   6.024   0.220   3.885  1.1998  1.4655 -1.9084
 6559TIP3    H219684   5.892   0.252   3.952  2.2741  1.2022  0.4381
 6560TIP3   OH219685   1.184   5.254   3.296  0.0221  0.2887  0.0639
 6560TIP3    H119686   1.090   5.237   3.308 -0.3225  1.5843 -0.5380
 6560TIP3    H219687   1.222   5.239   3.382 -0.4667 -1.7402 -0.0237
 6561TIP3   OH219688   4.249   3.578   0.956 -0.0619  0.1013  0.2010
 6561TIP3    H119689   4.318   3.526   0.998  0.1707 -1.4607 -1.9865
 6561TIP3    H219690   4.295   3.649   0.914  0.1427 -0.4687 -0.5536
 6562TIP3   OH219691   3.545   0.694   4.600 -0.0737  0.3123 -0.1747
 6562TIP3    H119692   3.467   0.740   4.631 -0.1501  1.7711 -2.3410
 6562TIP3    H219693   3.584   0.752   4.535  2.1195 -0.9597 -0.1162
 6563TIP3   OH219694   2.230   4.207   2.703  0.1430 -0.1449  0.5279
 6563TIP3    H119695   2.309   4.221   2.756  0.3090  1.5060 -0.1127
 6563TIP3    H219696   2.248   4.128   2.653  1.9017  0.8194 -0.4539
 6564TIP3   OH219697   3.282   2.354   1.990  0.1767  0.1313  0.0290
 6564TIP3    H119698   3.304   2.447   1.982  0.0657  0.1519 -0.0433
 6564TIP3    H219699   3.345   2.310   1.932 -0.6271  0.2820 -0.9959
 6565TIP3   OH219700   2.779   3.305   0.159 -0.2677  0.3601 -0.1790
 6565TIP3    H119701   2.800   3.335   0.248 -0.7068  0.3234 -0.0588
 6565TIP3    H219702   2.699   3.253   0.170 -0.3574  0.4061 -0.6049
 6566TIP3   OH219703   1.832   4.569   0.268  0.8593  0.0754  0.0238
 6566TIP3    H119704   1.819   4.663   0.280 -0.4192 -0.2428  1.3724
 6566TIP3    H219705   1.821   4.556   0.174 -0.7473  1.0487  0.0327
 6567TIP3   OH219706   5.123   1.937   2.021 -0.2662  0.7188 -0.8495
 6567TIP3    H119707   5.145   1.956   1.929  2.5199  1.6230 -0.0809
 6567TIP3    H219708   5.083   2.018   2.053 -1.9836  0.1452 -1.3879
 6568TIP3   OH219709   5.345   2.825   4.773 -0.1110 -0.8130 -0.1466
 6568TIP3    H119710   5.306   2.898   4.725 -1.5269 -1.3963  0.0602
 6568TIP3    H219711   5.428   2.859   4.805  0.3154 -0.0189 -1.9568
 6569TIP3   OH219712   4.363   1.557   3.206 -0.4504 -0.2063  0.3266
 6569TIP3    H119713   4.442   1.504   3.213 -0.1688  0.2877  0.8548
 6569TIP3    H219714   4.392   1.641   3.171 -0.7373 -0.0130  0.5456
 6570TIP3   OH219715   4.681   1.733   3.427 -0.2215  0.8021 -0.4586
 6570TIP3    H119716   4.730   1.739   3.345 -0.1554  1.8235 -0.3478
 6570TIP3    H219717   4.745   1.751   3.495 -0.1553 -0.5703 -0.1260
 6571TIP3   OH219718   0.180   1.191   0.481 -0.1545  0.9428  0.5712
 6571TIP3    H119719   0.163   1.252   0.409  1.4717 -0.0522 -0.7316
 6571TIP3    H219720   0.265   1.219   0.516  1.9694 -1.9023 -1.7210
 6572TIP3   OH219721   3.914   2.979   5.078 -0.1577 -0.4177 -0.5000
 6572TIP3    H119722   3.851   2.954   5.011  0.9637 -0.3448 -1.6261
 6572TIP3    H219723   3.976   3.037   5.033  0.1663  0.3054  0.8080
 6573TIP3   OH219724   6.305   5.680   1.578 -0.3106 -0.4524 -0.4060
 6573TIP3    H119725   6.347   5.717   1.500  1.3503  0.0209  0.6662
 6573TIP3    H219726   6.272   5.595   1.549  1.3323 -0.8090 -1.3252
 6574TIP3   OH219727   0.730   0.917   1.278 -0.3357  0.1017 -0.0810
 6574TIP3    H119728   0.811   0.906   1.327 -0.2891  0.5372 -0.0539
 6574TIP3    H219729   0.667   0.859   1.322 -0.1469  0.0707  0.1492
 6575TIP3   OH219730   3.497   2.881   0.895  0.5110  0.0801 -0.4138
 6575TIP3    H119731   3.592   2.875   0.887  0.7697  1.3895  1.1905
 6575TIP3    H219732   3.466   2.899   0.806  1.8348  0.4534 -0.8110
 6576TIP3   OH219733   1.719   1.111   4.544  0.2998  0.2394  0.0212
 6576TIP3    H119734   1.624   1.098   4.540  0.1118  0.9740  1.6468
 6576TIP3    H219735   1.736   1.184   4.483 -0.3377  0.8441  0.5564
 6577TIP3   OH219736   3.673   1.131   1.468  0.0339 -0.0131 -0.0252
 6577TIP3    H119737   3.618   1.193   1.515 -0.1901 -0.3431  0.1570
 6577TIP3    H219738   3.685   1.059   1.531 -2.6968 -1.8758 -1.4556
 6578TIP3   OH219739   1.333   3.801   0.562  0.3447 -0.2378 -0.0542
 6578TIP3    H119740   1.317   3.894   0.546 -0.8568 -0.3418  0.4372
 6578TIP3    H219741   1.370   3.798   0.650  0.2147 -0.2435 -0.0002
 6579TIP3   OH219742   5.552   3.739   0.095 -0.2348  0.4269  0.1536
 6579TIP3    H119743   5.566   3.691   0.013  2.3708 -1.0439  1.3206
 6579TIP3    H219744   5.469   3.704   0.128 -1.3156  1.0186 -1.7751
 6580TIP3   OH219745   5.211   2.662   1.753 -0.9271 -0.1834 -0.1091
 6580TIP3    H119746   5.177   2.651   1.842 -1.5181  0.8799 -0.1841
 6580TIP3    H219747   5.235   2.755   1.749  0.0366 -0.4398 -0.7472
 6581TIP3   OH219748   1.004   0.025   5.040  0.2155  0.4172  0.2599
 6581TIP3    H119749   0.983  -0.028   4.963 -0.1185  1.6972 -0.5436
 6581TIP3    H219750   0.934   0.004   5.102  0.1874 -0.2108  0.0261
 6582TIP3   OH219751   0.477   3.443   0.867 -0.6283 -0.5412 -0.1314
 6582TIP3    H119752   0.384   3.452   0.847 -0.6273  0.3668  0.1992
 6582TIP3    H219753   0.483   3.359   0.914 -1.1306 -1.0396 -0.9315
 6583TIP3   OH219754   5.451   3.008   1.285 -0.0217 -0.2984  0.0642
 6583TIP3    H119755   5.414   2.931   1.326 -0.8567 -0.4271 -0.9088
 6583TIP3    H219756   5.407   3.015   1.200  0.5477  0.8347 -0.1677
 6584TIP3   OH219757   0.744   0.355   0.640  0.0561 -0.5899  0.3319
 6584TIP3    H119758   0.783   0.442   0.635  1.2254 -0.9209  2.4901
 6584TIP3    H219759   0.693   0.347   0.559  1.7414  1.1816 -1.0021
 6585TIP3   OH219760   5.662   1.152   4.568  0.0989 -0.3617 -0.4490
 6585TIP3    H119761   5.630   1.125   4.482  0.7334 -1.4648 -0.3568
 6585TIP3    H219762   5.585   1.150   4.625 -0.3650  0.5783 -1.0152
 6586TIP3   OH219763   5.663   5.099   3.322 -0.6032 -0.3913  0.1736
 6586TIP3    H119764   5.592   5.158   3.297  1.4606  1.9426 -0.6539
 6586TIP3    H219765   5.733   5.117   3.258  1.2836 -1.4255  1.8256
 6587TIP3   OH219766   2.607   5.036   0.691  0.0576  0.0426  0.1120
 6587TIP3    H119767   2.692   5.027   0.648  0.6529  2.1262  0.7500
 6587TIP3    H219768   2.545   5.050   0.619  0.7569  1.6259 -0.2093
 6588TIP3   OH219769   4.493   5.722   3.781  0.6646 -0.0286  0.4923
 6588TIP3    H119770   4.492   5.627   3.794 -2.9017 -0.2613 -0.5388
 6588TIP3    H219771   4.483   5.758   3.869 -0.7320 -0.7480  0.6538
 6589TIP3   OH219772   3.429   1.008   4.294 -0.1543  0.4935 -0.5830
 6589TIP3    H119773   3.415   1.000   4.199 -0.3392 -2.6366 -0.4208
 6589TIP3    H219774   3.343   1.033   4.328 -0.2502  1.0265 -1.1843
 6590TIP3   OH219775   5.991   4.807   3.797 -0.2687 -0.0428  0.1263
 6590TIP3    H119776   5.909   4.839   3.836 -0.7244 -0.4252 -0.4922
 6590TIP3    H219777   6.035   4.762   3.869 -0.1481  0.9920  0.7096
 6591TIP3   OH219778   6.324   3.489   4.607 -0.0350 -0.2230 -0.0339
 6591TIP3    H119779   6.385   3.484   4.681  2.1731  0.5757 -1.6612
 6591TIP3    H219780   6.268   3.564   4.627 -0.2512 -0.7260  1.3391
 6592TIP3   OH219781   0.163   5.145   5.191 -0.5509  0.3798 -0.1832
 6592TIP3    H119782   0.252   5.125   5.161 -1.2882 -1.4775 -1.2550
 6592TIP3    H219783   0.143   5.230   5.153  0.7148  0.7765 -0.0059
 6593TIP3   OH219784   4.906   1.928   1.519 -0.8111 -0.1025  0.1023
 6593TIP3    H119785   4.864   1.932   1.433 -0.1192 -1.2695 -0.3194
 6593TIP3    H219786   4.877   1.845   1.556  0.0956 -0.3225  0.3470
 6594TIP3   OH219787   0.216   3.989   0.435 -0.6379  0.7066 -0.5321
 6594TIP3    H119788   0.276   3.916   0.419 -1.9842  0.0137 -2.7204
 6594TIP3    H219789   0.243   4.023   0.521  1.2336 -1.1449 -0.3078
 6595TIP3   OH219790   1.050   2.279   1.973  0.2275  0.0073 -0.5426
 6595TIP3    H119791   0.999   2.262   2.053  0.1838  1.5963 -0.1960
 6595TIP3    H219792   0.998   2.240   1.903 -1.7429  1.8578 -0.2419
 6596TIP3   OH219793   1.425   0.096   2.700 -0.5056 -0.3379  0.2495
 6596TIP3    H119794   1.376   0.140   2.630  0.4104  1.1333  0.4749
 6596TIP3    H219795   1.411   0.151   2.777  0.4131 -0.6276  0.6349
 6597TIP3   OH219796   6.151   1.836   2.866  0.5153 -0.3188 -0.0309
 6597TIP3    H119797   6.102   1.767   2.822  1.4290 -1.3962  0.5722
 6597TIP3    H219798   6.240   1.829   2.831  0.3142  1.5668 -1.0740
 6598TIP3   OH219799   1.593   5.249   5.201 -0.6088  0.3581  0.2324
 6598TIP3    H119800   1.549   5.166   5.182  0.8055 -0.1833 -0.8326
 6598TIP3    H219801   1.602   5.291   5.115  2.9633 -0.6243 -0.0288
 6599TIP3   OH219802   6.210   0.658   4.278  0.3459  0.0380 -0.7349
 6599TIP3    H119803   6.219   0.642   4.372  0.4486  0.4952 -0.6652
 6599TIP3    H219804   6.116   0.659   4.262  0.3191  0.3869 -0.5605
 6600TIP3   OH219805   0.070   0.774   2.150  0.0766  0.2111  0.5415
 6600TIP3    H119806   0.022   0.853   2.176  0.3900  0.3940  0.5636
 6600TIP3    H219807   0.158   0.805   2.128 -0.1256  0.0395 -0.5620
 6601TIP3   OH219808   1.234   3.696   2.213 -0.6391  0.2167 -0.5372
 6601TIP3    H119809   1.291   3.769   2.235 -2.0968  0.8489  1.4836
 6601TIP3    H219810   1.169   3.734   2.154  0.0932 -0.1201 -1.5825
 6602TIP3   OH219811   2.644   1.052   0.231  0.2091  0.2632  0.3982
 6602TIP3    H119812   2.732   1.059   0.193 -0.5327  0.8643 -1.3262
 6602TIP3    H219813   2.612   1.142   0.232  0.6079  0.4731  3.6792
 6603TIP3   OH219814   6.217   0.287   1.833  0.1731 -0.2709 -0.4150
 6603TIP3    H119815   6.268   0.285   1.752 -1.7347  1.3317 -1.7463
 6603TIP3    H219816   6.131   0.252   1.808 -0.6855  0.9374  0.7000
 6604TIP3   OH219817   5.244   1.173   5.011 -0.5046 -0.6412  0.1055
 6604TIP3    H119818   5.202   1.136   5.088  0.3212 -0.0301  0.8706
 6604TIP3    H219819   5.229   1.267   5.019  3.0215 -0.0688  1.7420
 6605TIP3   OH219820   2.022   5.494   2.417  0.2481 -0.1949 -0.8873
 6605TIP3    H119821   2.049   5.545   2.340 -1.3340 -0.6117 -1.7508
 6605TIP3    H219822   2.098   5.499   2.476  1.1240  0.9600 -2.0410
 6606TIP3   OH219823   6.010   1.315   3.097  0.0960  0.0481  0.1178
 6606TIP3    H119824   5.997   1.240   3.156  0.0546  0.8432  1.1480
 6606TIP3    H219825   6.079   1.286   3.037 -0.7249 -1.2361 -0.2545
 6607TIP3   OH219826   0.523   5.117   1.803 -0.1591 -0.0075 -0.5357
 6607TIP3    H119827   0.564   5.033   1.781 -0.6855 -0.8438  1.4692
 6607TIP3    H219828   0.557   5.138   1.890 -2.0243  0.5514  0.1002
 6608TIP3   OH219829   1.599   4.580   3.096 -0.7860  0.0968  0.4302
 6608TIP3    H119830   1.619   4.606   3.186 -0.9668  0.4256  0.3766
 6608TIP3    H219831   1.644   4.645   3.042  0.6396 -0.9881  0.2337
 6609TIP3   OH219832   2.079   0.738   4.069 -0.0336  0.3187  0.1780
 6609TIP3    H119833   2.173   0.723   4.062 -0.1352 -0.6926  0.8665
 6609TIP3    H219834   2.054   0.772   3.983  0.7968 -0.2938 -0.3171
 6610TIP3   OH219835   1.827   3.025   2.587 -0.0179  0.4594  0.7208
 6610TIP3    H119836   1.915   2.999   2.561 -0.5694 -1.5284  0.6138
 6610TIP3    H219837   1.821   2.999   2.679 -0.4470  0.6727  0.7560
 6611TIP3   OH219838   1.194   4.558   0.175  0.0866 -0.0319  0.1198
 6611TIP3    H119839   1.109   4.526   0.145  0.4395 -2.6702  1.6919
 6611TIP3    H219840   1.182   4.653   0.181 -1.3778  0.2273 -3.7179
 6612TIP3   OH219841   6.310   0.606   1.181 -0.0354  0.0488  0.0463
 6612TIP3    H119842   6.302   0.667   1.255  2.3409  0.2850  0.1848
 6612TIP3    H219843   6.402   0.582   1.180 -0.6035 -2.4099 -0.9521
 6613TIP3   OH219844   2.623   3.128   3.095  0.0936  0.0108 -0.0364
 6613TIP3    H119845   2.561   3.079   3.149  0.3297 -0.4608 -0.1789
 6613TIP3    H219846   2.572   3.154   3.018 -0.1771  0.4683  0.2970
 6614TIP3   OH219847   3.441   1.592   0.314  0.6062 -0.5155  0.0025
 6614TIP3    H119848   3.520   1.632   0.351  0.5026 -2.1883  2.2892
 6614TIP3    H219849   3.394   1.664   0.273  1.5649  1.2575  1.8347
 6615TIP3   OH219850   1.344   5.369   3.119  0.5758 -0.0989  0.5041
 6615TIP3    H119851   1.270   5.342   3.173  0.4990  0.4313  0.6734
 6615TIP3    H219852   1.385   5.287   3.091 -2.0277 -0.5904 -2.3888
 6616TIP3   OH219853   2.299   2.779   4.964 -0.0944 -0.1807  0.1896
 6616TIP3    H119854   2.293   2.812   4.875 -0.4164  0.0589  0.2982
 6616TIP3    H219855   2.303   2.858   5.019  3.2478 -0.2355  0.2195
 6617TIP3   OH219856   5.509   5.825   5.028  0.1705  0.4066  0.0935
 6617TIP3    H119857   5.532   5.742   4.987 -1.2902  0.2759 -0.5170
 6617TIP3    H219858   5.442   5.862   4.971 -1.0644  0.7972  1.7303
 6618TIP3   OH219859   2.713   1.053   2.555  0.6674 -0.3468 -0.0046
 6618TIP3    H119860   2.745   0.964   2.570 -1.6075 -1.3747 -0.7970
 6618TIP3    H219861   2.723   1.066   2.460 -0.2327 -0.2898 -0.0995
 6619TIP3   OH219862   1.701   3.521   1.526 -0.2964  0.2125  0.1435
 6619TIP3    H119863   1.731   3.535   1.436  0.0707 -0.4075  0.1672
 6619TIP3    H219864   1.686   3.610   1.560 -0.4745  0.4501 -0.5343
 6620TIP3   OH219865   4.312   1.226   3.408 -0.3535  0.0818 -0.0062
 6620TIP3    H119866   4.380   1.292   3.426  0.0985 -0.3999  0.0979
 6620TIP3    H219867   4.320   1.165   3.481  0.6414 -1.2171 -1.1391
 6621TIP3   OH219868   1.336   1.731   2.625  0.2703  0.1039  0.1282
 6621TIP3    H119869   1.337   1.816   2.669  1.2696 -1.0031  2.4542
 6621TIP3    H219870   1.402   1.739   2.556 -0.7700  1.6575 -0.7592
 6622TIP3   OH219871   2.001   5.363   0.699 -0.3308 -0.3354 -0.0302
 6622TIP3    H119872   2.050   5.435   0.658 -1.5539  0.7242  0.2964
 6622TIP3    H219873   2.032   5.285   0.654 -1.3096  0.7046 -2.7710
 6623TIP3   OH219874   0.005   3.668   2.523  0.5377  0.1621 -0.1802
 6623TIP3    H119875   0.075   3.633   2.468  0.3168 -2.1865  0.8926
 6623TIP3    H219876  -0.068   3.682   2.463  1.7869  2.5337 -1.2941
 6624TIP3   OH219877   5.228   5.895   4.357  0.1830 -0.3210 -0.0669
 6624TIP3    H119878   5.263   5.957   4.422  2.0835  0.7995 -2.0380
 6624TIP3    H219879   5.301   5.879   4.298 -0.8188 -3.0656 -0.7119
 6625TIP3   OH219880   5.126   0.140   3.896 -0.3240  0.1034 -0.4088
 6625TIP3    H119881   5.034   0.165   3.910 -0.3796 -0.7336  0.9648
 6625TIP3    H219882   5.143   0.159   3.804 -1.0842  2.7645 -0.0845
 6626TIP3   OH219883   6.322   1.197   5.041 -0.4879  0.0818  0.0164
 6626TIP3    H119884   6.397   1.158   5.085  0.2051 -1.5093 -2.3573
 6626TIP3    H219885   6.312   1.146   4.960 -1.9812  2.4503 -1.4321
 6627TIP3   OH219886   4.035   5.024   0.753  0.3493 -0.0962  0.5750
 6627TIP3    H119887   4.089   4.974   0.814  0.9680  1.4443  1.3331
 6627TIP3    H219888   3.999   5.095   0.805  0.8665  1.2465 -0.8225
 6628TIP3   OH219889   1.386   2.702   1.448 -0.4496  0.4807 -0.1779
 6628TIP3    H119890   1.469   2.749   1.439 -0.5159  0.3541 -1.6466
 6628TIP3    H219891   1.360   2.716   1.540  1.6462 -0.2688  0.5689
 6629TIP3   OH219892   4.821   3.901   4.553 -0.2342  0.6529  0.4451
 6629TIP3    H119893   4.908   3.873   4.528 -0.4891 -2.7055  2.7034
 6629TIP3    H219894   4.766   3.884   4.476  0.6508  0.4721 -0.1552
 6630TIP3   OH219895   6.278   3.764   1.004  0.4027 -0.0311 -0.0219
 6630TIP3    H119896   6.291   3.791   1.095  2.6627 -1.2165  0.0786
 6630TIP3    H219897   6.337   3.820   0.953 -0.9216  0.6987 -0.8267
 6631TIP3   OH219898   2.032   3.396   4.826 -0.2100 -0.3947 -0.2132
 6631TIP3    H119899   2.078   3.380   4.743  0.5930 -0.9460  0.3186
 6631TIP3    H219900   1.981   3.475   4.810 -2.1867 -1.9328 -2.0917
 6632TIP3   OH219901   4.961   5.848   4.209 -0.3583  0.3693  0.3688
 6632TIP3    H119902   5.050   5.866   4.237  0.0184 -0.7031 -0.0888
 6632TIP3    H219903   4.923   5.934   4.191 -0.5790  1.1616  3.9039
 6633TIP3   OH219904   1.476   5.658   4.556 -0.4316 -0.4954 -0.2723
 6633TIP3    H119905   1.387   5.687   4.577 -1.9487 -3.6891 -1.5313
 6633TIP3    H219906   1.488   5.683   4.464 -1.2520 -2.4262 -0.9721
 6634TIP3   OH219907   3.975   2.276   4.884 -0.2086  0.3415  0.0564
 6634TIP3    H119908   4.054   2.311   4.843 -0.1984  0.1661 -0.0782
 6634TIP3    H219909   3.959   2.333   4.959 -0.8348  1.3317 -0.7942
 6635TIP3   OH219910   1.961   0.250   1.904 -0.0109  0.0297  0.1955
 6635TIP3    H119911   1.877   0.204   1.898 -1.4344  2.1632  2.0224
 6635TIP3    H219912   1.969   0.296   1.821 -0.3445 -0.6329 -0.2178
 6636TIP3   OH219913   2.695   0.437   2.922  0.3548 -0.9601 -0.0612
 6636TIP3    H119914   2.687   0.388   2.840 -0.7127  0.5725 -0.9204
 6636TIP3    H219915   2.644   0.516   2.907  1.0163 -0.1595  1.7243
 6637TIP3   OH219916   0.020   0.621   3.143 -0.5198  0.0627  0.2268
 6637TIP3    H119917  -0.006   0.556   3.077 -1.9438  0.2187  0.6001
 6637TIP3    H219918   0.058   0.692   3.092  0.0110 -0.5689 -0.2809
 6638TIP3   OH219919   0.108   2.601   0.804 -0.3974 -0.4435 -0.1856
 6638TIP3    H119920   0.045   2.547   0.851 -0.8274 -0.2591 -0.5369
 6638TIP3    H219921   0.055   2.670   0.764  0.1577  0.2802  0.3219
 6639TIP3   OH219922   0.556   3.867   0.930 -0.0940 -0.0324  0.7862
 6639TIP3    H119923   0.608   3.940   0.898 -2.0803  0.7818 -0.7649
 6639TIP3    H219924   0.607   3.789   0.906 -0.4236  0.6383 -2.4354
 6640TIP3   OH219925   5.864   2.951   3.971  0.0782  0.0041 -0.0816
 6640TIP3    H119926   5.810   2.957   3.893  1.2536  0.2353 -0.9000
 6640TIP3    H219927   5.954   2.955   3.939  0.5889  1.7837  1.4088
 6641TIP3   OH219928   3.716   1.246   4.180 -0.4146  0.4858 -0.3842
 6641TIP3    H119929   3.672   1.262   4.263 -0.6871  3.6060 -1.0342
 6641TIP3    H219930   3.684   1.314   4.121 -1.0599 -2.2337 -3.4634
 6642TIP3   OH219931   2.445   5.429   0.121  0.1447 -0.3950 -0.4237
 6642TIP3    H119932   2.471   5.421   0.029 -0.2246 -0.9176 -0.4890
 6642TIP3    H219933   2.486   5.354   0.164  1.6399  0.7161  0.1637
 6643TIP3   OH219934   1.137   5.425   4.550  0.1683 -0.0514 -0.0561
 6643TIP3    H119935   1.107   5.472   4.473  1.6781  1.7975  0.3952
 6643TIP3    H219936   1.072   5.444   4.617  0.3485  0.7475 -0.1039
 6644TIP3   OH219937   3.090   4.625   1.480 -0.5828 -0.1941  0.6474
 6644TIP3    H119938   3.113   4.598   1.569  1.2483  0.8729  0.5662
 6644TIP3    H219939   3.082   4.720   1.486  1.6814  0.1511 -0.6839
 6645TIP3   OH219940   4.903   3.273   1.107 -0.5391 -0.1452 -0.5174
 6645TIP3    H119941   4.880   3.302   1.195  1.2563 -1.0924  0.3194
 6645TIP3    H219942   4.928   3.354   1.061 -1.0599  0.3030 -0.0285
   6.35199   5.98871   5.18639   0.00000   0.00000  -2.11734   0.00000  -2.11734  -2.99436
