Generated by CHARMM-GUI FF-Converter
44415
    1GLY      N    1   6.364   4.612   3.793
    1GLY    HT1    2   6.452   4.625   3.847
    1GLY    HT2    3   6.319   4.705   3.778
    1GLY    HT3    4   6.389   4.571   3.700
    1GLY     CA    5   6.273   4.523   3.863
    1GLY    HA1    6   6.249   4.569   3.958
    1GLY    HA2    7   6.318   4.426   3.873
    1GLY      C    8   6.141   4.503   3.789
    1GLY      O    9   6.105   4.583   3.704
    2ASP      N   10   6.076   4.399   3.805
    2ASP     HN   11   6.107   4.322   3.862
    2ASP     CA   12   5.947   4.372   3.742
    2ASP     HA   13   5.953   4.401   3.637
    2ASP     CB   14   5.913   4.223   3.750
    2ASP    HB1   15   5.811   4.203   3.711
    2ASP    HB2   16   5.917   4.189   3.856
    2ASP     CG   17   6.008   4.136   3.670
    2ASP    OD1   18   6.076   4.188   3.578
    2ASP    OD2   19   6.016   4.015   3.699
    2ASP      C   20   5.837   4.455   3.807
    2ASP      O   21   5.842   4.485   3.926
    3SER      N   22   5.741   4.492   3.732
    3SER     HN   23   5.738   4.470   3.635
    3SER     CA   24   5.623   4.557   3.789
    3SER     HA   25   5.655   4.652   3.830
    3SER     CB   26   5.518   4.581   3.680
    3SER    HB1   27   5.429   4.634   3.722
    3SER    HB2   28   5.484   4.482   3.641
    3SER     OG   29   5.572   4.656   3.573
    3SER    HG1   30   5.510   4.649   3.499
    3SER      C   31   5.564   4.474   3.901
    3SER      O   32   5.578   4.351   3.903
    4GLY      N   33   5.512   4.546   4.002
    4GLY     HN   34   5.516   4.645   4.005
    4GLY     CA   35   5.441   4.475   4.107
    4GLY    HA1   36   5.406   4.549   4.177
    4GLY    HA2   37   5.509   4.403   4.152
    4GLY      C   38   5.320   4.400   4.057
    4GLY      O   39   5.274   4.422   3.944
    5SER      N   40   5.270   4.325   4.138
    5SER     HN   41   5.314   4.301   4.224
    5SER     CA   42   5.144   4.258   4.106
    5SER     HA   43   5.155   4.209   4.010
    5SER     CB   44   5.112   4.151   4.210
    5SER    HB1   45   5.021   4.094   4.180
    5SER    HB2   46   5.090   4.198   4.308
    5SER     OG   47   5.220   4.061   4.225
    5SER    HG1   48   5.243   4.022   4.139
    5SER      C   49   5.029   4.358   4.097
    5SER      O   50   5.033   4.464   4.159
    6GLY      N   51   4.947   4.337   3.993
    6GLY     HN   52   4.946   4.250   3.945
    6GLY     CA   53   4.829   4.422   3.988
    6GLY    HA1   54   4.769   4.387   3.905
    6GLY    HA2   55   4.864   4.523   3.977
    6GLY      C   56   4.743   4.411   4.113
    6GLY      O   57   4.767   4.325   4.198
    7PRO      N   58   4.656   4.489   4.126
    7PRO     CD   59   4.620   4.590   4.021
    7PRO    HD1   60   4.611   4.545   3.920
    7PRO    HD2   61   4.694   4.674   4.023
    7PRO     CA   62   4.557   4.481   4.234
    7PRO     HA   63   4.608   4.479   4.330
    7PRO     CB   64   4.471   4.605   4.213
    7PRO    HB1   65   4.517   4.686   4.273
    7PRO    HB2   66   4.365   4.593   4.245
    7PRO     CG   67   4.485   4.636   4.067
    7PRO    HG1   68   4.407   4.577   4.012
    7PRO    HG2   69   4.467   4.744   4.045
    7PRO      C   70   4.472   4.354   4.227
    7PRO      O   71   4.464   4.290   4.122
    8GLY      N   72   4.414   4.324   4.341
    8GLY     HN   73   4.434   4.373   4.425
    8GLY     CA   74   4.326   4.207   4.346
    8GLY    HA1   75   4.300   4.191   4.449
    8GLY    HA2   76   4.377   4.123   4.302
    8GLY      C   77   4.196   4.228   4.270
    8GLY      O   78   4.161   4.340   4.235
    9ASP      N   79   4.125   4.115   4.246
    9ASP     HN   80   4.161   4.025   4.266
    9ASP     CA   81   3.992   4.117   4.185
    9ASP     HA   82   4.008   4.168   4.091
    9ASP     CB   83   3.942   3.975   4.159
    9ASP    HB1   84   3.836   3.973   4.125
    9ASP    HB2   85   3.946   3.919   4.254
    9ASP     CG   86   4.022   3.903   4.051
    9ASP    OD1   87   4.086   3.971   3.968
    9ASP    OD2   88   4.019   3.778   4.049
    9ASP      C   89   3.892   4.192   4.274
    9ASP      O   90   3.905   4.192   4.396
   10PRO      N   91   3.793   4.243   4.214
   10PRO     CD   92   3.779   4.259   4.080
   10PRO    HD1   93   3.750   4.161   4.035
   10PRO    HD2   94   3.871   4.296   4.030
   10PRO     CA   95   3.689   4.303   4.298
   10PRO     HA   96   3.735   4.375   4.364
   10PRO     CB   97   3.595   4.367   4.196
   10PRO    HB1   98   3.570   4.472   4.223
   10PRO    HB2   99   3.499   4.310   4.187
   10PRO     CG  100   3.667   4.358   4.066
   10PRO    HG1  101   3.600   4.331   3.982
   10PRO    HG2  102   3.712   4.457   4.042
   10PRO      C  103   3.616   4.200   4.384
   10PRO      O  104   3.615   4.081   4.351
   11GLY      N  105   3.581   4.247   4.511
   11GLY     HN  106   3.599   4.340   4.541
   11GLY     CA  107   3.505   4.159   4.600
   11GLY    HA1  108   3.474   4.220   4.682
   11GLY    HA2  109   3.570   4.077   4.627
   11GLY      C  110   3.381   4.101   4.534
   11GLY      O  111   3.337   4.149   4.430
   12SER      N  112   3.318   4.007   4.597
   12SER     HN  113   3.357   3.960   4.675
   12SER     CA  114   3.190   3.954   4.551
   12SER     HA  115   3.194   3.941   4.444
   12SER     CB  116   3.163   3.817   4.615
   12SER    HB1  117   3.071   3.771   4.574
   12SER    HB2  118   3.149   3.829   4.725
   12SER     OG  119   3.273   3.729   4.594
   12SER    HG1  120   3.291   3.718   4.500
   12SER      C  121   3.075   4.049   4.584
   12SER      O  122   3.082   4.124   4.681
   13GLY      N  123   2.968   4.067   4.501
   13GLY     HN  124   2.964   4.010   4.420
   13GLY     CA  125   2.850   4.149   4.521
   13GLY    HA1  126   2.787   4.141   4.434
   13GLY    HA2  127   2.883   4.250   4.542
   13GLY      C  128   2.766   4.104   4.640
   13GLY      O  129   2.777   3.990   4.685
   14ASP      N  130   2.701   4.164   4.711
   14ASP     HN  131   2.705   4.262   4.701
   14ASP     CA  132   2.609   4.134   4.820
   14ASP     HA  133   2.666   4.091   4.901
   14ASP     CB  134   2.540   4.263   4.868
   14ASP    HB1  135   2.462   4.238   4.943
   14ASP    HB2  136   2.492   4.313   4.782
   14ASP     CG  137   2.635   4.361   4.933
   14ASP    OD1  138   2.744   4.319   4.978
   14ASP    OD2  139   2.601   4.481   4.939
   14ASP      C  140   2.504   4.031   4.778
   14ASP      O  141   2.458   4.032   4.664
   15SER      N  142   2.491   3.912   4.855
   15SER     HN  143   2.540   3.902   4.941
   15SER     CA  144   2.397   3.805   4.823
   15SER     HA  145   2.416   3.774   4.721
   15SER     CB  146   2.416   3.687   4.918
   15SER    HB1  147   2.521   3.650   4.908
   15SER    HB2  148   2.349   3.604   4.892
   15SER     OG  149   2.396   3.728   5.053
   15SER    HG1  150   2.341   3.807   5.044
   15SER      C  151   2.253   3.854   4.829
   15SER    OT1  152   2.232   3.975   4.859
   15SER    OT2  153   2.161   3.771   4.803
   16LIT    LIT  154   2.927   2.101   5.031
   17LIT    LIT  155   7.499   3.247   1.379
   18LIT    LIT  156   4.620   5.835   8.033
   19LIT    LIT  157   6.821   5.785   5.825
   20LIT    LIT  158   4.345   2.617   5.810
   21LIT    LIT  159   5.509   1.821   6.276
   22LIT    LIT  160   4.221   2.181   2.599
   23LIT    LIT  161   4.975   7.714   5.312
   24LIT    LIT  162   5.869   1.527   0.695
   25LIT    LIT  163   5.779   5.132   5.202
   26LIT    LIT  164   4.175   7.999   1.213
   27LIT    LIT  165   5.603   5.371   7.132
   28LIT    LIT  166   6.794   3.839   8.202
   29LIT    LIT  167   5.802   2.545   0.918
   30LIT    LIT  168   1.526   5.539   8.335
   31LIT    LIT  169   3.880   6.825   1.719
   32LIT    LIT  170   4.193   0.707   1.631
   33LIT    LIT  171   1.799   1.399   6.940
   34LIT    LIT  172   5.213   2.063   1.483
   35LIT    LIT  173   3.859   8.045   5.289
   36LIT    LIT  174   6.834   6.588   6.055
   37LIT    LIT  175   2.295   1.468   2.798
   38LIT    LIT  176   6.884   1.038   5.730
   39LIT    LIT  177   8.286   5.247   6.433
   40LIT    LIT  178   2.807   2.193   0.687
   41LIT    LIT  179   3.142   0.553   1.807
   42LIT    LIT  180   3.106   4.435   0.366
   43LIT    LIT  181   2.836   2.285   6.525
   44LIT    LIT  182   5.054   3.655   0.582
   45LIT    LIT  183   7.473   4.654   7.442
   46LIT    LIT  184   3.876   0.663   2.434
   47LIT    LIT  185   2.394   1.037   2.092
   48LIT    LIT  186   5.827   7.012   5.404
   49LIT    LIT  187   0.754   1.194   5.141
   50LIT    LIT  188   1.161   4.305   4.931
   51LIT    LIT  189   2.025   4.590   2.521
   52LIT    LIT  190   1.607   6.329   2.958
   53LIT    LIT  191   1.806   1.343   5.605
   54LIT    LIT  192   0.175   3.058   5.436
   55LIT    LIT  193   3.631   7.084   3.126
   56LIT    LIT  194   1.479   2.273   6.800
   57LIT    LIT  195   7.394   0.571   2.756
   58LIT    LIT  196   5.422   6.896   6.312
   59LIT    LIT  197   7.199   7.481   4.673
   60LIT    LIT  198   7.476   5.227   4.195
   61CLA    CLA  199   1.619   7.587   5.131
   62CLA    CLA  200   6.813   1.496   6.240
   63CLA    CLA  201   6.889   2.139   4.014
   64CLA    CLA  202   3.370   2.052   3.925
   65CLA    CLA  203   1.225   4.719   1.560
   66CLA    CLA  204   4.442   2.638   2.070
   67CLA    CLA  205   5.832   1.876   0.934
   68CLA    CLA  206   3.135   2.979   7.884
   69CLA    CLA  207   5.409   3.832   8.426
   70CLA    CLA  208   5.562   2.528   5.496
   71CLA    CLA  209   3.947   5.205   8.370
   72CLA    CLA  210   3.416   7.141   2.697
   73CLA    CLA  211   3.336   0.548   1.567
   74CLA    CLA  212   7.021   1.015   2.981
   75CLA    CLA  213   3.892   2.457   0.653
   76CLA    CLA  214   5.189   1.564   6.022
   77CLA    CLA  215   6.066   0.720   5.168
   78CLA    CLA  216   5.846   4.212   0.329
   79CLA    CLA  217   5.370   5.387   4.608
   80CLA    CLA  218   0.434   5.090   5.697
   81CLA    CLA  219   0.116   5.454   3.839
   82CLA    CLA  220   5.211   7.380   4.698
   83CLA    CLA  221   2.740   2.561   1.265
   84CLA    CLA  222   7.870   5.007   5.975
   85CLA    CLA  223   4.144   5.652   8.813
   86CLA    CLA  224   5.230   4.305   8.237
   87CLA    CLA  225   6.773   5.740   5.627
   88CLA    CLA  226   3.290   5.676   7.171
   89CLA    CLA  227   6.592   6.771   1.760
   90CLA    CLA  228   0.578   3.924   4.820
   91CLA    CLA  229   5.232   8.350   5.691
   92CLA    CLA  230   4.954   8.156   4.614
   93CLA    CLA  231   5.338   2.790   1.482
   94CLA    CLA  232   3.046   7.446   6.733
   95CLA    CLA  233   3.375   0.894   1.897
   96CLA    CLA  234   5.900   6.585   5.594
   97CLA    CLA  235   2.602   2.018   1.588
   98CLA    CLA  236   3.933   0.990   3.080
   99CLA    CLA  237   4.410   0.620   1.644
  100CLA    CLA  238   7.850   2.485   5.380
  101CLA    CLA  239   5.814   6.098   3.368
  102CLA    CLA  240   0.873   3.923   5.942
  103TIP3   OH2  241   3.278   0.363   2.237
  103TIP3    H1  242   3.277   0.267   2.253
  103TIP3    H2  243   3.193   0.389   2.279
  104TIP3   OH2  244   2.968   0.711   2.358
  104TIP3    H1  245   2.958   0.738   2.264
  104TIP3    H2  246   3.049   0.761   2.383
  105TIP3   OH2  247   3.277   0.055   2.261
  105TIP3    H1  248   3.182   0.072   2.254
  105TIP3    H2  249   3.295   0.021   2.172
  106TIP3   OH2  250   2.732   0.267   2.504
  106TIP3    H1  251   2.713   0.207   2.579
  106TIP3    H2  252   2.796   0.329   2.546
  107TIP3   OH2  253   3.124   0.509   1.999
  107TIP3    H1  254   3.080   0.424   2.011
  107TIP3    H2  255   3.188   0.507   2.072
  108TIP3   OH2  256   3.144   0.171   2.575
  108TIP3    H1  257   3.072   0.179   2.641
  108TIP3    H2  258   3.188   0.258   2.583
  109TIP3   OH2  259   3.184  -0.165   2.414
  109TIP3    H1  260   3.251  -0.236   2.407
  109TIP3    H2  261   3.219  -0.099   2.351
  110TIP3   OH2  262   3.367  -0.361   2.425
  110TIP3    H1  263   3.334  -0.444   2.467
  110TIP3    H2  264   3.462  -0.370   2.439
  111TIP3   OH2  265   2.580   0.648   2.267
  111TIP3    H1  266   2.595   0.552   2.269
  111TIP3    H2  267   2.621   0.677   2.351
  112TIP3   OH2  268   3.032   0.449   2.319
  112TIP3    H1  269   2.943   0.414   2.321
  112TIP3    H2  270   3.016   0.544   2.336
  113TIP3   OH2  271   4.226  -0.179   1.487
  113TIP3    H1  272   4.277  -0.201   1.567
  113TIP3    H2  273   4.206  -0.267   1.452
  114TIP3   OH2  274   4.501   0.125   1.193
  114TIP3    H1  275   4.531   0.065   1.262
  114TIP3    H2  276   4.533   0.210   1.230
  115TIP3   OH2  277   4.179   0.585   1.180
  115TIP3    H1  278   4.229   0.520   1.128
  115TIP3    H2  279   4.198   0.555   1.270
  116TIP3   OH2  280   4.092   0.060   1.534
  116TIP3    H1  281   4.126  -0.026   1.500
  116TIP3    H2  282   4.178   0.102   1.554
  117TIP3   OH2  283   3.947  -0.028   1.757
  117TIP3    H1  284   3.879   0.031   1.798
  117TIP3    H2  285   3.995   0.033   1.699
  118TIP3   OH2  286   3.762   0.157   1.853
  118TIP3    H1  287   3.749   0.248   1.819
  118TIP3    H2  288   3.684   0.151   1.913
  119TIP3   OH2  289   4.595   0.353   1.325
  119TIP3    H1  290   4.507   0.362   1.367
  119TIP3    H2  291   4.602   0.440   1.279
  120TIP3   OH2  292   4.309   0.405   1.023
  120TIP3    H1  293   4.370   0.333   1.004
  120TIP3    H2  294   4.348   0.476   0.966
  121TIP3   OH2  295   4.830   0.312   1.702
  121TIP3    H1  296   4.828   0.233   1.644
  121TIP3    H2  297   4.804   0.384   1.641
  122TIP3   OH2  298   4.721  -0.215   1.843
  122TIP3    H1  299   4.704  -0.129   1.886
  122TIP3    H2  300   4.666  -0.208   1.763
  123TIP3   OH2  301   3.867   0.213   1.463
  123TIP3    H1  302   3.858   0.188   1.370
  123TIP3    H2  303   3.955   0.175   1.484
  124TIP3   OH2  304   4.365   0.376   1.462
  124TIP3    H1  305   4.385   0.448   1.523
  124TIP3    H2  306   4.351   0.299   1.521
  125TIP3   OH2  307   3.973   0.259   2.010
  125TIP3    H1  308   3.922   0.334   2.048
  125TIP3    H2  309   3.906   0.219   1.952
  126TIP3   OH2  310   3.722  -0.150   2.082
  126TIP3    H1  311   3.736  -0.072   2.138
  126TIP3    H2  312   3.629  -0.170   2.099
  127TIP3   OH2  313   4.087   0.259   1.127
  127TIP3    H1  314   4.164   0.314   1.103
  127TIP3    H2  315   4.013   0.306   1.086
  128TIP3   OH2  316   3.774   0.438   2.091
  128TIP3    H1  317   3.739   0.445   2.002
  128TIP3    H2  318   3.692   0.428   2.146
  129TIP3   OH2  319   5.067   0.622   1.718
  129TIP3    H1  320   5.070   0.527   1.740
  129TIP3    H2  321   4.986   0.649   1.766
  130TIP3   OH2  322   4.219   0.481   0.758
  130TIP3    H1  323   4.132   0.452   0.726
  130TIP3    H2  324   4.276   0.403   0.745
  131TIP3   OH2  325   4.963  -0.261   1.988
  131TIP3    H1  326   4.880  -0.232   1.944
  131TIP3    H2  327   4.957  -0.357   1.975
  132TIP3   OH2  328   3.556   0.167   2.035
  132TIP3    H1  329   3.614   0.150   2.112
  132TIP3    H2  330   3.497   0.091   2.037
  133TIP3   OH2  331   4.738  -0.476   1.943
  133TIP3    H1  332   4.702  -0.442   2.026
  133TIP3    H2  333   4.725  -0.400   1.884
  134TIP3   OH2  334   4.444  -0.221   2.139
  134TIP3    H1  335   4.419  -0.304   2.185
  134TIP3    H2  336   4.539  -0.215   2.163
  135TIP3   OH2  337   4.400  -0.251   1.706
  135TIP3    H1  338   4.477  -0.295   1.665
  135TIP3    H2  339   4.397  -0.297   1.793
  136TIP3   OH2  340   4.759   0.969   1.818
  136TIP3    H1  341   4.754   0.998   1.725
  136TIP3    H2  342   4.836   1.020   1.850
  137TIP3   OH2  343   3.719   0.080   2.244
  137TIP3    H1  344   3.801   0.112   2.288
  137TIP3    H2  345   3.657   0.080   2.320
  138TIP3   OH2  346   4.148  -0.588   1.852
  138TIP3    H1  347   4.100  -0.565   1.773
  138TIP3    H2  348   4.215  -0.517   1.858
  139TIP3   OH2  349   4.806   0.104   1.536
  139TIP3    H1  350   4.846   0.154   1.461
  139TIP3    H2  351   4.713   0.094   1.508
  140TIP3   OH2  352   4.282   0.135   1.885
  140TIP3    H1  353   4.325   0.092   1.960
  140TIP3    H2  354   4.258   0.221   1.922
  141TIP3   OH2  355   4.194  -0.117   2.194
  141TIP3    H1  356   4.141  -0.163   2.127
  141TIP3    H2  357   4.285  -0.143   2.165
  142TIP3   OH2  358   4.457   0.369   1.808
  142TIP3    H1  359   4.401   0.427   1.756
  142TIP3    H2  360   4.499   0.439   1.863
  143TIP3   OH2  361   5.087   0.337   1.777
  143TIP3    H1  362   4.989   0.335   1.767
  143TIP3    H2  363   5.116   0.310   1.687
  144TIP3   OH2  364   4.574  -0.006   1.450
  144TIP3    H1  365   4.493  -0.048   1.483
  144TIP3    H2  366   4.626  -0.084   1.424
  145TIP3   OH2  367   4.348   0.134   1.616
  145TIP3    H1  368   4.330   0.134   1.712
  145TIP3    H2  369   4.442   0.114   1.614
  146TIP3   OH2  370   3.443   0.334   1.780
  146TIP3    H1  371   3.472   0.286   1.858
  146TIP3    H2  372   3.432   0.425   1.816
  147TIP3   OH2  373   4.383  -0.415   1.929
  147TIP3    H1  374   4.362  -0.344   1.993
  147TIP3    H2  375   4.416  -0.482   1.991
  148TIP3   OH2  376   4.625   0.605   1.232
  148TIP3    H1  377   4.574   0.673   1.183
  148TIP3    H2  378   4.714   0.643   1.225
  149TIP3   OH2  379   3.360   0.641   2.241
  149TIP3    H1  380   3.454   0.638   2.261
  149TIP3    H2  381   3.341   0.545   2.237
  150TIP3   OH2  382   4.508   0.542   2.016
  150TIP3    H1  383   4.502   0.469   2.081
  150TIP3    H2  384   4.588   0.590   2.045
  151TIP3   OH2  385   3.515   0.068   2.430
  151TIP3    H1  386   3.534  -0.027   2.439
  151TIP3    H2  387   3.426   0.065   2.388
  152TIP3   OH2  388   4.121   0.156   2.213
  152TIP3    H1  389   4.079   0.176   2.127
  152TIP3    H2  390   4.154   0.064   2.200
  153TIP3   OH2  391   4.620   0.156   1.802
  153TIP3    H1  392   4.695   0.213   1.775
  153TIP3    H2  393   4.550   0.225   1.806
  154TIP3   OH2  394   3.634  -0.199   2.420
  154TIP3    H1  395   3.716  -0.242   2.391
  154TIP3    H2  396   3.663  -0.163   2.506
  155TIP3   OH2  397   3.962  -0.285   2.068
  155TIP3    H1  398   3.880  -0.232   2.064
  155TIP3    H2  399   4.011  -0.254   1.989
  156TIP3   OH2  400   4.490   0.094   2.209
  156TIP3    H1  401   4.569   0.067   2.161
  156TIP3    H2  402   4.483   0.024   2.278
  157TIP3   OH2  403   4.060  -0.495   2.197
  157TIP3    H1  404   4.008  -0.545   2.133
  157TIP3    H2  405   4.037  -0.405   2.163
  158TIP3   OH2  406   4.137  -0.183   1.889
  158TIP3    H1  407   4.198  -0.204   1.818
  158TIP3    H2  408   4.074  -0.123   1.843
  159TIP3   OH2  409   4.699  -0.230   2.241
  159TIP3    H1  410   4.732  -0.288   2.312
  159TIP3    H2  411   4.776  -0.174   2.222
  160TIP3   OH2  412   4.751   0.028   1.999
  160TIP3    H1  413   4.693   0.077   1.937
  160TIP3    H2  414   4.839   0.045   1.958
  161TIP3   OH2  415   3.936  -0.374   2.426
  161TIP3    H1  416   3.900  -0.453   2.466
  161TIP3    H2  417   3.998  -0.410   2.360
  162TIP3   OH2  418   4.343  -0.451   2.229
  162TIP3    H1  419   4.373  -0.478   2.318
  162TIP3    H2  420   4.247  -0.464   2.238
  163TIP3   OH2  421   4.875   0.721   1.222
  163TIP3    H1  422   4.891   0.761   1.310
  163TIP3    H2  423   4.917   0.787   1.165
  164TIP3   OH2  424   4.896   0.751   1.501
  164TIP3    H1  425   4.853   0.663   1.495
  164TIP3    H2  426   4.972   0.729   1.558
  165TIP3   OH2  427   4.945   0.423   2.069
  165TIP3    H1  428   4.872   0.434   2.133
  165TIP3    H2  429   4.987   0.512   2.071
  166TIP3   OH2  430   4.957   0.226   1.349
  166TIP3    H1  431   5.021   0.183   1.288
  166TIP3    H2  432   4.941   0.308   1.297
  167TIP3   OH2  433   4.751   0.505   1.516
  167TIP3    H1  434   4.669   0.552   1.540
  167TIP3    H2  435   4.719   0.451   1.441
  168TIP3   OH2  436   5.000   0.080   1.890
  168TIP3    H1  437   5.075   0.018   1.883
  168TIP3    H2  438   5.028   0.152   1.832
  169TIP3   OH2  439   5.188  -0.120   1.931
  169TIP3    H1  440   5.113  -0.178   1.958
  169TIP3    H2  441   5.264  -0.180   1.930
  170TIP3   OH2  442   3.558  -0.584   2.479
  170TIP3    H1  443   3.626  -0.602   2.411
  170TIP3    H2  444   3.599  -0.622   2.559
  171TIP3   OH2  445   4.462   0.592   0.890
  171TIP3    H1  446   4.534   0.542   0.848
  171TIP3    H2  447   4.508   0.664   0.934
  172TIP3   OH2  448   3.552   0.406   2.267
  172TIP3    H1  449   3.465   0.374   2.237
  172TIP3    H2  450   3.553   0.378   2.360
  173TIP3   OH2  451   3.736   0.426   1.806
  173TIP3    H1  452   3.656   0.469   1.768
  173TIP3    H2  453   3.806   0.477   1.764
  174TIP3   OH2  454   4.199   0.702   1.896
  174TIP3    H1  455   4.204   0.667   1.989
  174TIP3    H2  456   4.294   0.712   1.881
  175TIP3   OH2  457   3.403   0.594   1.859
  175TIP3    H1  458   3.390   0.609   1.764
  175TIP3    H2  459   3.403   0.687   1.894
  176TIP3   OH2  460   3.644   0.665   1.665
  176TIP3    H1  461   3.589   0.689   1.740
  176TIP3    H2  462   3.579   0.667   1.593
  177TIP3   OH2  463   4.072   0.693   1.514
  177TIP3    H1  464   3.998   0.662   1.409
  177TIP3    H2  465   4.057   0.773   1.499
  178TIP3   OH2  466   3.792   0.481   1.409
  178TIP3    H1  467   3.827   0.390   1.406
  178TIP3    H2  468   3.763   0.486   1.500
  179TIP3   OH2  469   4.825   0.703   1.825
  179TIP3    H1  470   4.743   0.666   1.791
  179TIP3    H2  471   4.805   0.799   1.823
  180TIP3   OH2  472   5.544   0.420   1.312
  180TIP3    H1  473   5.530   0.516   1.300
  180TIP3    H2  474   5.480   0.402   1.384
  181TIP3   OH2  475   5.750   0.521   1.497
  181TIP3    H1  476   5.694   0.595   1.527
  181TIP3    H2  477   5.687   0.466   1.447
  182TIP3   OH2  478   5.561   0.713   1.572
  182TIP3    H1  479   5.527   0.713   1.480
  182TIP3    H2  480   5.481   0.691   1.625
  183TIP3   OH2  481   5.157   0.247   1.533
  183TIP3    H1  482   5.084   0.226   1.471
  183TIP3    H2  483   5.184   0.159   1.567
  184TIP3   OH2  484   4.993   0.436   1.176
  184TIP3    H1  485   5.089   0.441   1.169
  184TIP3    H2  486   4.972   0.522   1.216
  185TIP3   OH2  487   5.933   0.720   1.307
  185TIP3    H1  488   5.958   0.807   1.346
  185TIP3    H2  489   5.952   0.663   1.383
  186TIP3   OH2  490   5.354   0.430   1.505
  186TIP3    H1  491   5.409   0.415   1.586
  186TIP3    H2  492   5.285   0.361   1.518
  187TIP3   OH2  493   6.542   1.241   1.329
  187TIP3    H1  494   6.528   1.248   1.233
  187TIP3    H2  495   6.633   1.274   1.338
  188TIP3   OH2  496   5.496   0.372   1.732
  188TIP3    H1  497   5.587   0.372   1.764
  188TIP3    H2  498   5.446   0.359   1.814
  189TIP3   OH2  499   5.229   0.034   1.680
  189TIP3    H1  500   5.296   0.049   1.749
  189TIP3    H2  501   5.223  -0.063   1.678
  190TIP3   OH2  502   5.723   0.785   1.154
  190TIP3    H1  503   5.755   0.845   1.084
  190TIP3    H2  504   5.804   0.775   1.209
  191TIP3   OH2  505   5.205   0.604   1.305
  191TIP3    H1  506   5.255   0.542   1.361
  191TIP3    H2  507   5.224   0.687   1.350
  192TIP3   OH2  508   5.185   0.926   1.721
  192TIP3    H1  509   5.272   0.928   1.767
  192TIP3    H2  510   5.171   0.830   1.716
  193TIP3   OH2  511   5.662   0.883   1.769
  193TIP3    H1  512   5.759   0.871   1.769
  193TIP3    H2  513   5.637   0.828   1.692
  194TIP3   OH2  514   6.264   0.823   1.510
  194TIP3    H1  515   6.266   0.738   1.560
  194TIP3    H2  516   6.357   0.848   1.511
  195TIP3   OH2  517   5.308   0.339   1.936
  195TIP3    H1  518   5.333   0.244   1.924
  195TIP3    H2  519   5.223   0.341   1.885
  196TIP3   OH2  520   5.912   0.416   1.710
  196TIP3    H1  521   5.896   0.456   1.622
  196TIP3    H2  522   5.935   0.325   1.685
  197TIP3   OH2  523   5.408   0.087   1.909
  197TIP3    H1  524   5.430  -0.007   1.902
  197TIP3    H2  525   5.451   0.112   1.993
  198TIP3   OH2  526   4.762   0.726   0.773
  198TIP3    H1  527   4.729   0.667   0.703
  198TIP3    H2  528   4.796   0.662   0.840
  199TIP3   OH2  529   4.899   0.586   0.955
  199TIP3    H1  530   4.901   0.497   0.993
  199TIP3    H2  531   4.942   0.636   1.026
  200TIP3   OH2  532   5.343   0.666   1.739
  200TIP3    H1  533   5.255   0.629   1.722
  200TIP3    H2  534   5.361   0.638   1.829
  201TIP3   OH2  535   5.513   0.693   1.291
  201TIP3    H1  536   5.466   0.768   1.251
  201TIP3    H2  537   5.601   0.713   1.250
  202TIP3   OH2  538   5.968   0.956   1.438
  202TIP3    H1  539   6.014   0.946   1.524
  202TIP3    H2  540   6.034   1.007   1.386
  203TIP3   OH2  541   6.129   1.108   1.280
  203TIP3    H1  542   6.201   1.061   1.232
  203TIP3    H2  543   6.183   1.159   1.344
  204TIP3   OH2  544   5.199   0.940   1.315
  204TIP3    H1  545   5.108   0.973   1.294
  204TIP3    H2  546   5.217   0.987   1.396
  205TIP3   OH2  547   5.432   0.928   1.166
  205TIP3    H1  548   5.345   0.941   1.209
  205TIP3    H2  549   5.418   0.963   1.076
  206TIP3   OH2  550   5.824   0.946   0.958
  206TIP3    H1  551   5.800   0.998   0.881
  206TIP3    H2  552   5.876   1.012   1.009
  207TIP3   OH2  553   5.116   0.743   1.071
  207TIP3    H1  554   5.151   0.711   1.156
  207TIP3    H2  555   5.177   0.703   1.007
  208TIP3   OH2  556   0.823   2.247   2.478
  208TIP3    H1  557   0.785   2.297   2.405
  208TIP3    H2  558   0.890   2.309   2.513
  209TIP3   OH2  559   1.023   1.724   2.757
  209TIP3    H1  560   0.971   1.720   2.839
  209TIP3    H2  561   1.059   1.815   2.762
  210TIP3   OH2  562   2.316   1.684   1.379
  210TIP3    H1  563   2.348   1.667   1.469
  210TIP3    H2  564   2.337   1.778   1.370
  211TIP3   OH2  565   2.001   2.084   1.325
  211TIP3    H1  566   2.077   2.045   1.280
  211TIP3    H2  567   2.035   2.100   1.414
  212TIP3   OH2  568   2.992   0.955   1.709
  212TIP3    H1  569   2.992   1.039   1.760
  212TIP3    H2  570   3.023   0.985   1.622
  213TIP3   OH2  571   3.021   1.164   1.881
  213TIP3    H1  572   2.940   1.217   1.863
  213TIP3    H2  573   3.060   1.209   1.958
  214TIP3   OH2  574   2.667   1.845   1.832
  214TIP3    H1  575   2.672   1.766   1.774
  214TIP3    H2  576   2.640   1.912   1.764
  215TIP3   OH2  577   2.875   1.462   1.670
  215TIP3    H1  578   2.795   1.519   1.680
  215TIP3    H2  579   2.906   1.494   1.582
  216TIP3   OH2  580   2.574   1.366   1.978
  216TIP3    H1  581   2.563   1.450   2.027
  216TIP3    H2  582   2.484   1.357   1.937
  217TIP3   OH2  583   2.143   1.909   1.603
  217TIP3    H1  584   2.167   2.002   1.622
  217TIP3    H2  585   2.202   1.862   1.663
  218TIP3   OH2  586   1.809   1.831   2.156
  218TIP3    H1  587   1.769   1.902   2.210
  218TIP3    H2  588   1.728   1.801   2.111
  219TIP3   OH2  589   1.616   2.012   2.245
  219TIP3    H1  590   1.597   2.006   2.149
  219TIP3    H2  591   1.528   1.996   2.283
  220TIP3   OH2  592   2.914   2.182   1.879
  220TIP3    H1  593   2.906   2.086   1.888
  220TIP3    H2  594   2.828   2.211   1.917
  221TIP3   OH2  595   2.008   1.969   2.003
  221TIP3    H1  596   2.013   2.061   2.038
  221TIP3    H2  597   1.940   1.930   2.061
  222TIP3   OH2  598   2.798   1.304   2.153
  222TIP3    H1  599   2.742   1.331   2.078
  222TIP3    H2  600   2.824   1.212   2.129
  223TIP3   OH2  601   2.572   1.117   2.076
  223TIP3    H1  602   2.622   1.136   2.157
  223TIP3    H2  603   2.578   1.203   2.029
  224TIP3   OH2  604   2.274   1.309   2.310
  224TIP3    H1  605   2.261   1.239   2.377
  224TIP3    H2  606   2.368   1.332   2.325
  225TIP3   OH2  607   2.325   1.299   1.892
  225TIP3    H1  608   2.285   1.291   1.803
  225TIP3    H2  609   2.251   1.274   1.949
  226TIP3   OH2  610   2.602   2.532   1.976
  226TIP3    H1  611   2.598   2.548   1.879
  226TIP3    H2  612   2.683   2.581   2.000
  227TIP3   OH2  613   1.579   1.633   2.389
  227TIP3    H1  614   1.645   1.672   2.449
  227TIP3    H2  615   1.499   1.636   2.442
  228TIP3   OH2  616   2.661   1.626   1.674
  228TIP3    H1  617   2.679   1.672   1.588
  228TIP3    H2  618   2.566   1.603   1.664
  229TIP3   OH2  619   2.118   1.696   2.041
  229TIP3    H1  620   2.172   1.697   2.120
  229TIP3    H2  621   2.103   1.792   2.026
  230TIP3   OH2  622   2.030   1.448   2.343
  230TIP3    H1  623   1.980   1.401   2.277
  230TIP3    H2  624   2.121   1.414   2.330
  231TIP3   OH2  625   2.288   1.936   1.948
  231TIP3    H1  626   2.198   1.966   1.932
  231TIP3    H2  627   2.319   2.004   2.011
  232TIP3   OH2  628   2.920   1.884   1.916
  232TIP3    H1  629   2.823   1.888   1.903
  232TIP3    H2  630   2.948   1.860   1.825
  233TIP3   OH2  631   2.409   1.531   1.638
  233TIP3    H1  632   2.320   1.506   1.606
  233TIP3    H2  633   2.455   1.445   1.631
  234TIP3   OH2  634   1.824   2.050   1.794
  234TIP3    H1  635   1.857   2.127   1.742
  234TIP3    H2  636   1.901   2.032   1.851
  235TIP3   OH2  637   2.201   1.676   1.768
  235TIP3    H1  638   2.191   1.678   1.865
  235TIP3    H2  639   2.293   1.646   1.759
  236TIP3   OH2  640   2.422   2.242   1.828
  236TIP3    H1  641   2.413   2.154   1.788
  236TIP3    H2  642   2.428   2.297   1.746
  237TIP3   OH2  643   2.220   1.134   2.109
  237TIP3    H1  644   2.228   1.205   2.177
  237TIP3    H2  645   2.144   1.084   2.139
  238TIP3   OH2  646   2.837   1.041   2.060
  238TIP3    H1  647   2.743   1.029   2.036
  238TIP3    H2  648   2.881   1.044   1.973
  239TIP3   OH2  649   1.236   2.240   2.381
  239TIP3    H1  650   1.320   2.243   2.432
  239TIP3    H2  651   1.222   2.144   2.377
  240TIP3   OH2  652   1.709   2.184   2.439
  240TIP3    H1  653   1.806   2.180   2.434
  240TIP3    H2  654   1.684   2.129   2.362
  241TIP3   OH2  655   2.342   2.099   2.166
  241TIP3    H1  656   2.342   2.027   2.234
  241TIP3    H2  657   2.423   2.150   2.189
  242TIP3   OH2  658   1.369   1.630   2.591
  242TIP3    H1  659   1.406   1.540   2.579
  242TIP3    H2  660   1.276   1.612   2.573
  243TIP3   OH2  661   1.967   1.719   2.359
  243TIP3    H1  662   1.926   1.736   2.271
  243TIP3    H2  663   1.998   1.626   2.350
  244TIP3   OH2  664   2.458   1.724   1.961
  244TIP3    H1  665   2.534   1.768   1.917
  244TIP3    H2  666   2.392   1.797   1.954
  245TIP3   OH2  667   1.483   1.376   2.583
  245TIP3    H1  668   1.547   1.310   2.553
  245TIP3    H2  669   1.516   1.401   2.671
  246TIP3   OH2  670   2.327   1.647   2.351
  246TIP3    H1  671   2.407   1.644   2.297
  246TIP3    H2  672   2.349   1.590   2.426
  247TIP3   OH2  673   2.541   1.333   2.417
  247TIP3    H1  674   2.598   1.258   2.440
  247TIP3    H2  675   2.605   1.394   2.377
  248TIP3   OH2  676   2.585   1.585   2.150
  248TIP3    H1  677   2.530   1.638   2.088
  248TIP3    H2  678   2.674   1.604   2.111
  249TIP3   OH2  679   1.835   1.137   2.592
  249TIP3    H1  680   1.767   1.138   2.663
  249TIP3    H2  681   1.808   1.060   2.538
  250TIP3   OH2  682   2.197   1.084   2.450
  250TIP3    H1  683   2.208   1.076   2.547
  250TIP3    H2  684   2.103   1.062   2.442
  251TIP3   OH2  685   2.414   1.016   2.286
  251TIP3    H1  686   2.350   1.030   2.358
  251TIP3    H2  687   2.495   0.993   2.336
  252TIP3   OH2  688   2.636   0.978   2.440
  252TIP3    H1  689   2.665   0.886   2.460
  252TIP3    H2  690   2.646   1.022   2.527
  253TIP3   OH2  691   2.247   0.813   2.640
  253TIP3    H1  692   2.224   0.733   2.587
  253TIP3    H2  693   2.162   0.860   2.650
  254TIP3   OH2  694   2.723   2.304   1.658
  254TIP3    H1  695   2.679   2.225   1.620
  254TIP3    H2  696   2.801   2.263   1.696
  255TIP3   OH2  697   2.787   1.980   2.220
  255TIP3    H1  698   2.712   1.992   2.282
  255TIP3    H2  699   2.827   2.069   2.220
  256TIP3   OH2  700   2.753   1.742   1.450
  256TIP3    H1  701   2.831   1.727   1.396
  256TIP3    H2  702   2.736   1.837   1.438
  257TIP3   OH2  703   2.827   1.645   2.042
  257TIP3    H1  704   2.901   1.581   2.029
  257TIP3    H2  705   2.853   1.719   1.984
  258TIP3   OH2  706   3.009   1.447   2.058
  258TIP3    H1  707   2.941   1.399   2.108
  258TIP3    H2  708   3.088   1.393   2.078
  259TIP3   OH2  709   2.745   1.075   1.582
  259TIP3    H1  710   2.819   1.124   1.540
  259TIP3    H2  711   2.716   1.142   1.646
  260TIP3   OH2  712   2.774   1.262   1.821
  260TIP3    H1  713   2.692   1.304   1.853
  260TIP3    H2  714   2.807   1.331   1.759
  261TIP3   OH2  715   3.212   0.838   2.367
  261TIP3    H1  716   3.266   0.768   2.324
  261TIP3    H2  717   3.190   0.898   2.292
  262TIP3   OH2  718   3.095   0.990   2.175
  262TIP3    H1  719   3.005   1.022   2.195
  262TIP3    H2  720   3.073   0.918   2.112
  263TIP3   OH2  721   2.269   2.165   1.001
  263TIP3    H1  722   2.341   2.156   0.937
  263TIP3    H2  723   2.311   2.223   1.069
  264TIP3   OH2  724   1.358   1.957   2.406
  264TIP3    H1  725   1.385   1.875   2.365
  264TIP3    H2  726   1.392   1.948   2.498
  265TIP3   OH2  727   1.610   1.971   1.965
  265TIP3    H1  728   1.519   1.999   1.940
  265TIP3    H2  729   1.665   2.032   1.912
  266TIP3   OH2  730   2.017   2.233   2.086
  266TIP3    H1  731   2.059   2.237   2.174
  266TIP3    H2  732   2.083   2.283   2.033
  267TIP3   OH2  733   2.197   2.380   1.943
  267TIP3    H1  734   2.271   2.330   1.902
  267TIP3    H2  735   2.249   2.439   2.002
  268TIP3   OH2  736   2.970   0.745   2.087
  268TIP3    H1  737   2.892   0.750   2.032
  268TIP3    H2  738   3.023   0.675   2.044
  269TIP3   OH2  739   1.278   2.256   1.986
  269TIP3    H1  740   1.206   2.274   1.925
  269TIP3    H2  741   1.250   2.296   2.070
  270TIP3   OH2  742   1.488   2.238   1.812
  270TIP3    H1  743   1.428   2.239   1.890
  270TIP3    H2  744   1.422   2.238   1.742
  271TIP3   OH2  745   1.915   2.259   1.630
  271TIP3    H1  746   1.845   2.281   1.565
  271TIP3    H2  747   1.928   2.345   1.675
  272TIP3   OH2  748   2.179   2.176   1.652
  272TIP3    H1  749   2.091   2.217   1.651
  272TIP3    H2  750   2.238   2.253   1.637
  273TIP3   OH2  751   2.374   2.377   1.586
  273TIP3    H1  752   2.369   2.470   1.555
  273TIP3    H2  753   2.429   2.337   1.517
  274TIP3   OH2  754   2.729   0.722   2.492
  274TIP3    H1  755   2.747   0.689   2.582
  274TIP3    H2  756   2.817   0.713   2.450
  275TIP3   OH2  757   2.663   2.262   1.978
  275TIP3    H1  758   2.587   2.234   1.923
  275TIP3    H2  759   2.648   2.359   1.975
  276TIP3   OH2  760   3.929   1.632   0.742
  276TIP3    H1  761   3.902   1.724   0.722
  276TIP3    H2  762   3.856   1.583   0.701
  277TIP3   OH2  763   3.929   1.637   1.122
  277TIP3    H1  764   3.963   1.610   1.209
  277TIP3    H2  765   3.893   1.554   1.088
  278TIP3   OH2  766   3.235   1.543   1.479
  278TIP3    H1  767   3.266   1.473   1.540
  278TIP3    H2  768   3.313   1.598   1.474
  279TIP3   OH2  769   4.170   1.938   0.800
  279TIP3    H1  770   4.158   1.874   0.870
  279TIP3    H2  771   4.197   2.018   0.849
  280TIP3   OH2  772   3.203   1.938   1.206
  280TIP3    H1  773   3.194   1.842   1.212
  280TIP3    H2  774   3.300   1.949   1.203
  281TIP3   OH2  775   2.996   1.459   1.171
  281TIP3    H1  776   3.056   1.389   1.207
  281TIP3    H2  777   3.058   1.525   1.138
  282TIP3   OH2  778   3.728   1.858   1.169
  282TIP3    H1  779   3.771   1.783   1.124
  282TIP3    H2  780   3.810   1.906   1.195
  283TIP3   OH2  781   4.750   1.182   1.161
  283TIP3    H1  782   4.775   1.265   1.205
  283TIP3    H2  783   4.769   1.203   1.068
  284TIP3   OH2  784   4.138   1.359   1.201
  284TIP3    H1  785   4.185   1.276   1.219
  284TIP3    H2  786   4.110   1.345   1.108
  285TIP3   OH2  787   3.484   1.012   1.191
  285TIP3    H1  788   3.460   1.069   1.117
  285TIP3    H2  789   3.435   0.931   1.170
  286TIP3   OH2  790   4.173   1.117   0.789
  286TIP3    H1  791   4.246   1.101   0.854
  286TIP3    H2  792   4.225   1.150   0.713
  287TIP3   OH2  793   3.118   1.232   1.267
  287TIP3    H1  794   3.203   1.208   1.310
  287TIP3    H2  795   3.102   1.152   1.212
  288TIP3   OH2  796   3.565   1.440   1.069
  288TIP3    H1  797   3.658   1.412   1.083
  288TIP3    H2  798   3.524   1.356   1.038
  289TIP3   OH2  799   4.817   1.391   1.332
  289TIP3    H1  800   4.733   1.436   1.312
  289TIP3    H2  801   4.814   1.394   1.429
  290TIP3   OH2  802   3.480   0.997   1.609
  290TIP3    H1  803   3.419   1.056   1.563
  290TIP3    H2  804   3.437   0.981   1.695
  291TIP3   OH2  805   3.816   1.855   0.612
  291TIP3    H1  806   3.796   1.856   0.518
  291TIP3    H2  807   3.786   1.944   0.639
  292TIP3   OH2  808   3.581   1.781   1.394
  292TIP3    H1  809   3.521   1.850   1.430
  292TIP3    H2  810   3.627   1.829   1.322
  293TIP3   OH2  811   4.378   1.123   0.963
  293TIP3    H1  812   4.373   1.067   1.041
  293TIP3    H2  813   4.436   1.196   0.992
  294TIP3   OH2  814   3.347   1.130   1.394
  294TIP3    H1  815   3.406   1.206   1.416
  294TIP3    H2  816   3.406   1.084   1.330
  295TIP3   OH2  817   3.411   1.975   1.490
  295TIP3    H1  818   3.388   2.063   1.453
  295TIP3    H2  819   3.332   1.961   1.547
  296TIP3   OH2  820   4.249   2.178   0.967
  296TIP3    H1  821   4.161   2.169   1.010
  296TIP3    H2  822   4.238   2.264   0.922
  297TIP3   OH2  823   4.557   1.107   1.353
  297TIP3    H1  824   4.466   1.100   1.322
  297TIP3    H2  825   4.607   1.120   1.270
  298TIP3   OH2  826   3.842   0.729   1.311
  298TIP3    H1  827   3.827   0.631   1.327
  298TIP3    H2  828   3.775   0.767   1.365
  299TIP3   OH2  829   4.113   1.992   0.522
  299TIP3    H1  830   4.047   1.924   0.511
  299TIP3    H2  831   4.131   1.987   0.618
  300TIP3   OH2  832   4.471   2.092   1.313
  300TIP3    H1  833   4.459   2.015   1.252
  300TIP3    H2  834   4.452   2.168   1.254
  301TIP3   OH2  835   3.767   1.481   0.566
  301TIP3    H1  836   3.690   1.535   0.541
  301TIP3    H2  837   3.814   1.469   0.482
  302TIP3   OH2  838   4.670   1.737   1.159
  302TIP3    H1  839   4.585   1.786   1.164
  302TIP3    H2  840   4.696   1.756   1.066
  303TIP3   OH2  841   4.114   1.572   0.549
  303TIP3    H1  842   4.059   1.597   0.627
  303TIP3    H2  843   4.198   1.546   0.593
  304TIP3   OH2  844   4.344   1.608   1.455
  304TIP3    H1  845   4.342   1.691   1.505
  304TIP3    H2  846   4.259   1.614   1.407
  305TIP3   OH2  847   3.344   1.564   0.958
  305TIP3    H1  848   3.323   1.511   0.880
  305TIP3    H2  849   3.425   1.520   0.993
  306TIP3   OH2  850   3.472   1.975   1.108
  306TIP3    H1  851   3.457   1.938   1.020
  306TIP3    H2  852   3.564   1.945   1.127
  307TIP3   OH2  853   3.476   1.544   1.309
  307TIP3    H1  854   3.516   1.523   1.222
  307TIP3    H2  855   3.521   1.628   1.334
  308TIP3   OH2  856   4.016   2.171   1.098
  308TIP3    H1  857   3.987   2.254   1.140
  308TIP3    H2  858   3.990   2.102   1.161
  309TIP3   OH2  859   3.616   2.093   1.639
  309TIP3    H1  860   3.557   2.157   1.683
  309TIP3    H2  861   3.551   2.042   1.587
  310TIP3   OH2  862   3.967   1.424   0.373
  310TIP3    H1  863   4.022   1.488   0.424
  310TIP3    H2  864   3.987   1.452   0.281
  311TIP3   OH2  865   3.373   1.650   1.743
  311TIP3    H1  866   3.377   1.739   1.783
  311TIP3    H2  867   3.276   1.634   1.748
  312TIP3   OH2  868   3.713   2.123   0.649
  312TIP3    H1  869   3.773   2.192   0.680
  312TIP3    H2  870   3.650   2.174   0.597
  313TIP3   OH2  871   3.411   2.260   1.723
  313TIP3    H1  872   3.376   2.263   1.632
  313TIP3    H2  873   3.330   2.239   1.775
  314TIP3   OH2  874   4.259   2.040  -0.049
  314TIP3    H1  875   4.273   2.137  -0.056
  314TIP3    H2  876   4.351   2.007  -0.049
  315TIP3   OH2  877   2.989   1.791   1.671
  315TIP3    H1  878   2.927   1.765   1.601
  315TIP3    H2  879   3.029   1.706   1.698
  316TIP3   OH2  880   2.849   1.982   1.293
  316TIP3    H1  881   2.943   2.004   1.298
  316TIP3    H2  882   2.812   2.041   1.361
  317TIP3   OH2  883   4.710   2.439   1.360
  317TIP3    H1  884   4.705   2.343   1.379
  317TIP3    H2  885   4.626   2.468   1.404
  318TIP3   OH2  886   3.814   2.223   1.493
  318TIP3    H1  887   3.812   2.316   1.525
  318TIP3    H2  888   3.743   2.183   1.549
  319TIP3   OH2  889   3.554   2.344   0.448
  319TIP3    H1  890   3.534   2.339   0.353
  319TIP3    H2  891   3.547   2.439   0.468
  320TIP3   OH2  892   3.767   2.247   0.100
  320TIP3    H1  893   3.827   2.190   0.049
  320TIP3    H2  894   3.812   2.252   0.187
  321TIP3   OH2  895   3.833   2.308   0.370
  321TIP3    H1  896   3.748   2.313   0.417
  321TIP3    H2  897   3.893   2.314   0.447
  322TIP3   OH2  898   4.611   1.577   1.625
  322TIP3    H1  899   4.526   1.590   1.581
  322TIP3    H2  900   4.624   1.481   1.614
  323TIP3   OH2  901   3.196   1.975   1.655
  323TIP3    H1  902   3.243   1.963   1.740
  323TIP3    H2  903   3.119   1.914   1.665
  324TIP3   OH2  904   4.131   0.894   1.642
  324TIP3    H1  905   4.182   0.937   1.716
  324TIP3    H2  906   4.037   0.905   1.678
  325TIP3   OH2  907   4.365   1.345   1.558
  325TIP3    H1  908   4.316   1.344   1.643
  325TIP3    H2  909   4.343   1.434   1.522
  326TIP3   OH2  910   4.039   1.485   0.113
  326TIP3    H1  911   4.021   1.466   0.020
  326TIP3    H2  912   4.116   1.544   0.104
  327TIP3   OH2  913   3.530   1.322   1.457
  327TIP3    H1  914   3.481   1.345   1.539
  327TIP3    H2  915   3.512   1.402   1.403
  328TIP3   OH2  916   3.415   1.231   0.960
  328TIP3    H1  917   3.363   1.149   0.970
  328TIP3    H2  918   3.480   1.198   0.896
  329TIP3   OH2  919   3.900   1.283   0.703
  329TIP3    H1  920   3.852   1.356   0.659
  329TIP3    H2  921   3.955   1.249   0.630
  330TIP3   OH2  922   4.075   1.562   1.787
  330TIP3    H1  923   4.052   1.491   1.851
  330TIP3    H2  924   4.168   1.580   1.811
  331TIP3   OH2  925   4.053   1.314   0.943
  331TIP3    H1  926   3.995   1.343   0.869
  331TIP3    H2  927   4.091   1.234   0.900
  332TIP3   OH2  928   3.352   1.373   1.654
  332TIP3    H1  929   3.379   1.440   1.718
  332TIP3    H2  930   3.328   1.298   1.713
  333TIP3   OH2  931   4.064   1.560   1.364
  333TIP3    H1  932   4.098   1.489   1.305
  333TIP3    H2  933   4.036   1.508   1.441
  334TIP3   OH2  934   3.736   1.019   1.040
  334TIP3    H1  935   3.670   1.021   1.111
  334TIP3    H2  936   3.819   1.022   1.093
  335TIP3   OH2  937   4.226   1.098   1.240
  335TIP3    H1  938   4.190   1.114   1.329
  335TIP3    H2  939   4.162   1.034   1.205
  336TIP3   OH2  940   4.398   2.789   1.460
  336TIP3    H1  941   4.397   2.812   1.366
  336TIP3    H2  942   4.479   2.835   1.491
  337TIP3   OH2  943   3.355   1.895   1.881
  337TIP3    H1  944   3.434   1.929   1.926
  337TIP3    H2  945   3.289   1.902   1.953
  338TIP3   OH2  946   3.820   1.348   1.131
  338TIP3    H1  947   3.897   1.317   1.081
  338TIP3    H2  948   3.835   1.308   1.219
  339TIP3   OH2  949   3.796   1.246   1.429
  339TIP3    H1  950   3.707   1.287   1.438
  339TIP3    H2  951   3.854   1.310   1.475
  340TIP3   OH2  952   3.528   1.628   0.532
  340TIP3    H1  953   3.434   1.608   0.534
  340TIP3    H2  954   3.536   1.672   0.621
  341TIP3   OH2  955   4.433   1.873   1.147
  341TIP3    H1  956   4.455   1.925   1.067
  341TIP3    H2  957   4.347   1.833   1.123
  342TIP3   OH2  958   3.924   1.953   1.522
  342TIP3    H1  959   3.962   1.944   1.610
  342TIP3    H2  960   3.895   2.046   1.521
  343TIP3   OH2  961   4.054   1.188   0.487
  343TIP3    H1  962   4.151   1.200   0.497
  343TIP3    H2  963   4.028   1.267   0.435
  344TIP3   OH2  964   3.219   1.651   1.191
  344TIP3    H1  965   3.268   1.631   1.108
  344TIP3    H2  966   3.274   1.607   1.258
  345TIP3   OH2  967   3.651   1.782   0.341
  345TIP3    H1  968   3.623   1.874   0.363
  345TIP3    H2  969   3.615   1.732   0.417
  346TIP3   OH2  970   3.107   1.582   1.808
  346TIP3    H1  971   3.131   1.570   1.902
  346TIP3    H2  972   3.039   1.513   1.796
  347TIP3   OH2  973   3.832   1.695   1.829
  347TIP3    H1  974   3.773   1.637   1.778
  347TIP3    H2  975   3.920   1.663   1.799
  348TIP3   OH2  976   4.092   2.207   1.421
  348TIP3    H1  977   3.995   2.217   1.427
  348TIP3    H2  978   4.121   2.265   1.495
  349TIP3   OH2  979   4.495   1.292   0.322
  349TIP3    H1  980   4.448   1.236   0.256
  349TIP3    H2  981   4.482   1.380   0.279
  350TIP3   OH2  982   4.721   2.150   1.398
  350TIP3    H1  983   4.623   2.144   1.393
  350TIP3    H2  984   4.746   2.117   1.311
  351TIP3   OH2  985   4.211   2.108   0.231
  351TIP3    H1  986   4.170   2.055   0.301
  351TIP3    H2  987   4.200   2.053   0.151
  352TIP3   OH2  988   4.199   1.737   1.067
  352TIP3    H1  989   4.105   1.715   1.079
  352TIP3    H2  990   4.231   1.658   1.021
  353TIP3   OH2  991   3.328   1.959   0.817
  353TIP3    H1  992   3.338   2.040   0.764
  353TIP3    H2  993   3.234   1.962   0.839
  354TIP3   OH2  994   3.466   1.730   0.771
  354TIP3    H1  995   3.429   1.820   0.783
  354TIP3    H2  996   3.430   1.686   0.849
  355TIP3   OH2  997   3.596   2.308   1.289
  355TIP3    H1  998   3.636   2.381   1.237
  355TIP3    H2  999   3.674   2.276   1.337
  356TIP3   OH2 1000   3.230   2.212   0.683
  356TIP3    H1 1001   3.195   2.218   0.772
  356TIP3    H2 1002   3.266   2.303   0.671
  357TIP3   OH2 1003   3.978   1.940   1.252
  357TIP3    H1 1004   3.971   1.938   1.350
  357TIP3    H2 1005   4.063   1.896   1.238
  358TIP3   OH2 1006   3.966   1.856   0.123
  358TIP3    H1 1007   4.009   1.819   0.203
  358TIP3    H2 1008   3.888   1.798   0.113
  359TIP3   OH2 1009   4.230   2.476   1.295
  359TIP3    H1 1010   4.148   2.424   1.284
  359TIP3    H2 1011   4.218   2.543   1.224
  360TIP3   OH2 1012   4.298   2.318  -0.060
  360TIP3    H1 1013   4.347   2.399  -0.085
  360TIP3    H2 1014   4.219   2.359  -0.020
  361TIP3   OH2 1015   3.287   1.171   1.813
  361TIP3    H1 1016   3.192   1.160   1.833
  361TIP3    H2 1017   3.323   1.089   1.852
  362TIP3   OH2 1018   4.113   1.747   0.336
  362TIP3    H1 1019   4.110   1.694   0.418
  362TIP3    H2 1020   4.208   1.768   0.332
  363TIP3   OH2 1021   3.043   2.162   1.450
  363TIP3    H1 1022   3.098   2.098   1.497
  363TIP3    H2 1023   3.055   2.242   1.502
  364TIP3   OH2 1024   3.273   1.826   0.405
  364TIP3    H1 1025   3.334   1.813   0.477
  364TIP3    H2 1026   3.268   1.924   0.403
  365TIP3   OH2 1027   4.153   1.157   1.500
  365TIP3    H1 1028   4.236   1.194   1.530
  365TIP3    H2 1029   4.145   1.073   1.548
  366TIP3   OH2 1030   4.023   0.931   0.653
  366TIP3    H1 1031   4.021   0.969   0.563
  366TIP3    H2 1032   4.069   1.002   0.702
  367TIP3   OH2 1033   3.533   2.019   0.379
  367TIP3    H1 1034   3.452   2.066   0.404
  367TIP3    H2 1035   3.544   2.047   0.286
  368TIP3   OH2 1036   3.711   1.087   0.756
  368TIP3    H1 1037   3.782   1.154   0.743
  368TIP3    H2 1038   3.721   1.067   0.850
  369TIP3   OH2 1039   3.991   1.398   1.572
  369TIP3    H1 1040   4.016   1.451   1.650
  369TIP3    H2 1041   4.050   1.321   1.580
  370TIP3   OH2 1042   3.933   0.846   0.900
  370TIP3    H1 1043   3.865   0.914   0.916
  370TIP3    H2 1044   3.955   0.861   0.806
  371TIP3   OH2 1045   3.266   2.097   0.421
  371TIP3    H1 1046   3.248   2.170   0.357
  371TIP3    H2 1047   3.249   2.141   0.507
  372TIP3   OH2 1048   4.632   1.303   1.545
  372TIP3    H1 1049   4.535   1.310   1.560
  372TIP3    H2 1050   4.629   1.239   1.471
  373TIP3   OH2 1051   4.283   1.494   0.942
  373TIP3    H1 1052   4.207   1.434   0.953
  373TIP3    H2 1053   4.355   1.447   0.990
  374TIP3   OH2 1054   4.249   2.452   0.894
  374TIP3    H1 1055   4.192   2.478   0.820
  374TIP3    H2 1056   4.338   2.476   0.861
  375TIP3   OH2 1057   2.873   2.019   0.744
  375TIP3    H1 1058   2.837   1.984   0.823
  375TIP3    H2 1059   2.906   1.952   0.696
  376TIP3   OH2 1060   3.025   2.485   1.871
  376TIP3    H1 1061   3.111   2.483   1.918
  376TIP3    H2 1062   3.003   2.391   1.866
  377TIP3   OH2 1063   3.503   2.441   1.917
  377TIP3    H1 1064   3.599   2.430   1.921
  377TIP3    H2 1065   3.481   2.383   1.842
  378TIP3   OH2 1066   3.492   2.026   0.103
  378TIP3    H1 1067   3.436   1.947   0.104
  378TIP3    H2 1068   3.532   2.015   0.015
  379TIP3   OH2 1069   4.145   2.352   1.648
  379TIP3    H1 1070   4.138   2.281   1.717
  379TIP3    H2 1071   4.226   2.399   1.676
  380TIP3   OH2 1072   3.935   2.070  -0.043
  380TIP3    H1 1073   3.944   1.993   0.018
  380TIP3    H2 1074   4.024   2.074  -0.078
  381TIP3   OH2 1075   3.152   1.886   2.071
  381TIP3    H1 1076   3.168   1.790   2.073
  381TIP3    H2 1077   3.065   1.890   2.026
  382TIP3   OH2 1078   3.761   1.971   1.845
  382TIP3    H1 1079   3.723   1.992   1.758
  382TIP3    H2 1080   3.794   1.879   1.833
  383TIP3   OH2 1081   3.738   1.700   0.093
  383TIP3    H1 1082   3.705   1.732   0.180
  383TIP3    H2 1083   3.658   1.665   0.053
  384TIP3   OH2 1084   4.254   1.982   1.448
  384TIP3    H1 1085   4.330   2.025   1.406
  384TIP3    H2 1086   4.186   2.051   1.437
  385TIP3   OH2 1087   3.269   1.612   2.055
  385TIP3    H1 1088   3.351   1.572   2.025
  385TIP3    H2 1089   3.296   1.650   2.141
  386TIP3   OH2 1090   3.614   1.507   1.715
  386TIP3    H1 1091   3.538   1.569   1.718
  386TIP3    H2 1092   3.662   1.539   1.635
  387TIP3   OH2 1093   4.123   1.905   1.846
  387TIP3    H1 1094   4.206   1.886   1.800
  387TIP3    H2 1095   4.125   1.840   1.919
  388TIP3   OH2 1096   4.268   1.574  -0.031
  388TIP3    H1 1097   4.282   1.533  -0.118
  388TIP3    H2 1098   4.264   1.668  -0.052
  389TIP3   OH2 1099   3.732   1.293   1.840
  389TIP3    H1 1100   3.731   1.215   1.780
  389TIP3    H2 1101   3.689   1.361   1.783
  390TIP3   OH2 1102   3.740   1.077   1.646
  390TIP3    H1 1103   3.764   1.124   1.563
  390TIP3    H2 1104   3.646   1.052   1.627
  391TIP3   OH2 1105   3.760   1.613   1.517
  391TIP3    H1 1106   3.847   1.628   1.476
  391TIP3    H2 1107   3.706   1.683   1.475
  392TIP3   OH2 1108   4.343   1.582   1.901
  392TIP3    H1 1109   4.395   1.501   1.909
  392TIP3    H2 1110   4.409   1.646   1.871
  393TIP3   OH2 1111   4.384   1.834   1.634
  393TIP3    H1 1112   4.326   1.890   1.577
  393TIP3    H2 1113   4.471   1.855   1.594
  394TIP3   OH2 1114   3.613   1.406   2.072
  394TIP3    H1 1115   3.541   1.340   2.087
  394TIP3    H2 1116   3.644   1.380   1.983
  395TIP3   OH2 1117   3.864   0.845   1.718
  395TIP3    H1 1118   3.818   0.931   1.696
  395TIP3    H2 1119   3.794   0.782   1.695
  396TIP3   OH2 1120   3.993   1.346   1.931
  396TIP3    H1 1121   3.981   1.336   2.027
  396TIP3    H2 1122   3.902   1.323   1.900
  397TIP3   OH2 1123   4.230   1.291   1.786
  397TIP3    H1 1124   4.157   1.300   1.850
  397TIP3    H2 1125   4.306   1.269   1.844
  398TIP3   OH2 1126   4.457   1.243   1.937
  398TIP3    H1 1127   4.474   1.147   1.953
  398TIP3    H2 1128   4.457   1.280   2.028
  399TIP3   OH2 1129   3.445   1.191   2.125
  399TIP3    H1 1130   3.457   1.109   2.075
  399TIP3    H2 1131   3.483   1.168   2.212
  400TIP3   OH2 1132   3.956   0.850   1.977
  400TIP3    H1 1133   4.031   0.790   1.965
  400TIP3    H2 1134   3.915   0.847   1.888
  401TIP3   OH2 1135   4.028   1.069   2.132
  401TIP3    H1 1136   4.003   0.999   2.069
  401TIP3    H2 1137   3.950   1.130   2.128
  402TIP3   OH2 1138   3.241   2.289   0.227
  402TIP3    H1 1139   3.337   2.299   0.210
  402TIP3    H2 1140   3.203   2.338   0.153
  403TIP3   OH2 1141   2.677   2.235   0.814
  403TIP3    H1 1142   2.585   2.260   0.822
  403TIP3    H2 1143   2.704   2.212   0.907
  404TIP3   OH2 1144   2.763   2.155   1.056
  404TIP3    H1 1145   2.765   2.084   1.122
  404TIP3    H2 1146   2.818   2.220   1.104
  405TIP3   OH2 1147   4.508   2.537   0.844
  405TIP3    H1 1148   4.528   2.566   0.935
  405TIP3    H2 1149   4.565   2.594   0.791
  406TIP3   OH2 1150   4.536   2.561   1.126
  406TIP3    H1 1151   4.489   2.475   1.124
  406TIP3    H2 1152   4.604   2.541   1.192
  407TIP3   OH2 1153   4.582   2.236   1.707
  407TIP3    H1 1154   4.506   2.248   1.767
  407TIP3    H2 1155   4.619   2.327   1.705
  408TIP3   OH2 1156   4.400   1.749   0.318
  408TIP3    H1 1157   4.464   1.819   0.294
  408TIP3    H2 1158   4.441   1.714   0.401
  409TIP3   OH2 1159   4.524   1.623   0.528
  409TIP3    H1 1160   4.458   1.579   0.587
  409TIP3    H2 1161   4.586   1.662   0.593
  410TIP3   OH2 1162   4.583   2.013   0.962
  410TIP3    H1 1163   4.632   1.949   0.907
  410TIP3    H2 1164   4.572   2.088   0.900
  411TIP3   OH2 1165   4.410   2.312   1.155
  411TIP3    H1 1166   4.339   2.355   1.206
  411TIP3    H2 1167   4.360   2.266   1.084
  412TIP3   OH2 1168   4.449   1.522   0.173
  412TIP3    H1 1169   4.383   1.537   0.102
  412TIP3    H2 1170   4.432   1.601   0.229
  413TIP3   OH2 1171   4.330   1.178   0.116
  413TIP3    H1 1172   4.293   1.259   0.080
  413TIP3    H2 1173   4.250   1.125   0.134
  414TIP3   OH2 1174   4.342   1.476   0.674
  414TIP3    H1 1175   4.344   1.379   0.667
  414TIP3    H2 1176   4.327   1.490   0.770
  415TIP3   OH2 1177   2.971   1.547   1.433
  415TIP3    H1 1178   2.966   1.527   1.338
  415TIP3    H2 1179   3.069   1.555   1.445
  416TIP3   OH2 1180   4.627   1.898   1.526
  416TIP3    H1 1181   4.705   1.840   1.516
  416TIP3    H2 1182   4.651   1.975   1.472
  417TIP3   OH2 1183   4.831   1.713   1.543
  417TIP3    H1 1184   4.752   1.670   1.581
  417TIP3    H2 1185   4.897   1.642   1.560
  418TIP3   OH2 1186   4.331   1.199   0.566
  418TIP3    H1 1187   4.372   1.110   0.582
  418TIP3    H2 1188   4.390   1.233   0.497
  419TIP3   OH2 1189   4.497   1.365   1.062
  419TIP3    H1 1190   4.583   1.391   1.022
  419TIP3    H2 1191   4.511   1.402   1.152
  420TIP3   OH2 1192   4.566   1.514   1.291
  420TIP3    H1 1193   4.489   1.545   1.342
  420TIP3    H2 1194   4.598   1.596   1.250
  421TIP3   OH2 1195   3.177   1.241   2.102
  421TIP3    H1 1196   3.275   1.237   2.098
  421TIP3    H2 1197   3.159   1.153   2.141
  422TIP3   OH2 1198   5.015   1.102   1.849
  422TIP3    H1 1199   5.076   1.037   1.807
  422TIP3    H2 1200   4.988   1.156   1.772
  423TIP3   OH2 1201   4.441   0.952   0.608
  423TIP3    H1 1202   4.481   0.939   0.698
  423TIP3    H2 1203   4.381   0.873   0.606
  424TIP3   OH2 1204   3.181   0.927   1.467
  424TIP3    H1 1205   3.243   0.872   1.517
  424TIP3    H2 1206   3.232   1.010   1.456
  425TIP3   OH2 1207   2.967   1.209   1.499
  425TIP3    H1 1208   3.010   1.218   1.412
  425TIP3    H2 1209   2.975   1.299   1.534
  426TIP3   OH2 1210   4.886   1.240   1.652
  426TIP3    H1 1211   4.801   1.282   1.674
  426TIP3    H2 1212   4.855   1.167   1.596
  427TIP3   OH2 1213   3.118   0.744   1.816
  427TIP3    H1 1214   3.191   0.798   1.846
  427TIP3    H2 1215   3.062   0.816   1.775
  428TIP3   OH2 1216   3.191   2.205   1.888
  428TIP3    H1 1217   3.096   2.188   1.875
  428TIP3    H2 1218   3.198   2.202   1.984
  429TIP3   OH2 1219   3.371   2.245   1.438
  429TIP3    H1 1220   3.320   2.320   1.400
  429TIP3    H2 1221   3.456   2.262   1.391
  430TIP3   OH2 1222   3.812   2.489   1.574
  430TIP3    H1 1223   3.853   2.490   1.663
  430TIP3    H2 1224   3.877   2.542   1.523
  431TIP3   OH2 1225   3.989   2.645   1.436
  431TIP3    H1 1226   4.059   2.594   1.392
  431TIP3    H2 1227   4.043   2.700   1.497
  432TIP3   OH2 1228   4.778   1.008   1.531
  432TIP3    H1 1229   4.692   1.010   1.485
  432TIP3    H2 1230   4.806   0.914   1.521
  433TIP3   OH2 1231   3.038   2.497   1.449
  433TIP3    H1 1232   2.954   2.509   1.401
  433TIP3    H2 1233   3.020   2.541   1.533
  434TIP3   OH2 1234   3.282   2.481   1.320
  434TIP3    H1 1235   3.195   2.492   1.365
  434TIP3    H2 1236   3.261   2.514   1.230
  435TIP3   OH2 1237   3.702   2.507   1.125
  435TIP3    H1 1238   3.645   2.530   1.051
  435TIP3    H2 1239   3.718   2.595   1.166
  436TIP3   OH2 1240   3.974   2.446   1.171
  436TIP3    H1 1241   3.879   2.456   1.148
  436TIP3    H2 1242   4.015   2.514   1.115
  437TIP3   OH2 1243   4.190   2.646   1.083
  437TIP3    H1 1244   4.168   2.727   1.033
  437TIP3    H2 1245   4.210   2.583   1.009
  438TIP3   OH2 1246   2.961   2.275   1.201
  438TIP3    H1 1247   2.983   2.253   1.293
  438TIP3    H2 1248   3.037   2.238   1.152
  439TIP3   OH2 1249   3.160   2.158   1.044
  439TIP3    H1 1250   3.172   2.080   1.102
  439TIP3    H2 1251   3.246   2.204   1.054
  440TIP3   OH2 1252   3.421   2.264   1.067
  440TIP3    H1 1253   3.454   2.173   1.059
  440TIP3    H2 1254   3.465   2.290   1.150
  441TIP3   OH2 1255   3.997   0.931   1.169
  441TIP3    H1 1256   3.955   0.851   1.213
  441TIP3    H2 1257   4.032   0.890   1.089
  442TIP3   OH2 1258   4.518   0.803   1.067
  442TIP3    H1 1259   4.547   0.859   0.992
  442TIP3    H2 1260   4.421   0.814   1.061
  443TIP3   OH2 1261   4.593   0.923   0.835
  443TIP3    H1 1262   4.665   0.861   0.810
  443TIP3    H2 1263   4.635   1.011   0.819
  444TIP3   OH2 1264   3.686   0.673   1.087
  444TIP3    H1 1265   3.710   0.722   1.007
  444TIP3    H2 1266   3.749   0.709   1.153
  445TIP3   OH2 1267   4.243   0.809   1.033
  445TIP3    H1 1268   4.220   0.781   0.944
  445TIP3    H2 1269   4.215   0.730   1.086
  446TIP3   OH2 1270   4.268   0.741   0.635
  446TIP3    H1 1271   4.179   0.781   0.624
  446TIP3    H2 1272   4.255   0.671   0.703
  447TIP3   OH2 1273   3.509   2.290   0.171
  447TIP3    H1 1274   3.603   2.302   0.143
  447TIP3    H2 1275   3.499   2.196   0.144
  448TIP3   OH2 1276   4.262   2.377   0.252
  448TIP3    H1 1277   4.242   2.281   0.257
  448TIP3    H2 1278   4.194   2.407   0.189
  449TIP3   OH2 1279   3.507   0.878   2.168
  449TIP3    H1 1280   3.431   0.824   2.190
  449TIP3    H2 1281   3.487   0.897   2.076
  450TIP3   OH2 1282   3.770   0.860   2.233
  450TIP3    H1 1283   3.816   0.869   2.146
  450TIP3    H2 1284   3.678   0.868   2.208
  451TIP3   OH2 1285   4.519   0.980   1.977
  451TIP3    H1 1286   4.540   0.940   2.064
  451TIP3    H2 1287   4.598   0.958   1.924
  452TIP3   OH2 1288   4.465   2.522   1.447
  452TIP3    H1 1289   4.382   2.488   1.407
  452TIP3    H2 1290   4.440   2.615   1.462
  453TIP3   OH2 1291   5.677   1.908   0.278
  453TIP3    H1 1292   5.673   1.990   0.225
  453TIP3    H2 1293   5.637   1.845   0.218
  454TIP3   OH2 1294   5.740   1.908   0.605
  454TIP3    H1 1295   5.723   1.861   0.688
  454TIP3    H2 1296   5.700   1.854   0.534
  455TIP3   OH2 1297   5.036   1.798   0.985
  455TIP3    H1 1298   5.061   1.723   1.042
  455TIP3    H2 1299   5.118   1.814   0.935
  456TIP3   OH2 1300   5.968   2.201   0.293
  456TIP3    H1 1301   5.960   2.126   0.354
  456TIP3    H2 1302   6.010   2.269   0.348
  457TIP3   OH2 1303   4.999   2.198   0.699
  457TIP3    H1 1304   4.988   2.101   0.699
  457TIP3    H2 1305   5.096   2.205   0.690
  458TIP3   OH2 1306   4.703   1.416   0.487
  458TIP3    H1 1307   4.648   1.496   0.500
  458TIP3    H2 1308   4.636   1.356   0.451
  459TIP3   OH2 1309   4.764   1.690   0.656
  459TIP3    H1 1310   4.811   1.610   0.689
  459TIP3    H2 1311   4.819   1.718   0.582
  460TIP3   OH2 1312   5.617   2.664   0.303
  460TIP3    H1 1313   5.656   2.585   0.259
  460TIP3    H2 1314   5.596   2.631   0.391
  461TIP3   OH2 1315   5.527   2.124   0.655
  461TIP3    H1 1316   5.554   2.054   0.593
  461TIP3    H2 1317   5.615   2.156   0.681
  462TIP3   OH2 1318   5.261   1.305   0.671
  462TIP3    H1 1319   5.230   1.368   0.602
  462TIP3    H2 1320   5.248   1.219   0.625
  463TIP3   OH2 1321   4.907   1.480   0.756
  463TIP3    H1 1322   4.986   1.458   0.809
  463TIP3    H2 1323   4.919   1.419   0.681
  464TIP3   OH2 1324   5.347   1.682   0.565
  464TIP3    H1 1325   5.432   1.647   0.537
  464TIP3    H2 1326   5.287   1.607   0.539
  465TIP3   OH2 1327   6.586   1.617   0.852
  465TIP3    H1 1328   6.523   1.686   0.822
  465TIP3    H2 1329   6.656   1.669   0.894
  466TIP3   OH2 1330   5.267   1.260   1.092
  466TIP3    H1 1331   5.208   1.301   1.026
  466TIP3    H2 1332   5.216   1.278   1.174
  467TIP3   OH2 1333   5.626   2.123   0.093
  467TIP3    H1 1334   5.581   2.090   0.013
  467TIP3    H2 1335   5.569   2.198   0.118
  468TIP3   OH2 1336   5.378   2.042   0.876
  468TIP3    H1 1337   5.315   2.110   0.910
  468TIP3    H2 1338   5.421   2.090   0.803
  469TIP3   OH2 1339   5.129   1.384   0.889
  469TIP3    H1 1340   5.191   1.457   0.912
  469TIP3    H2 1341   5.178   1.347   0.811
  470TIP3   OH2 1342   5.207   2.233   0.981
  470TIP3    H1 1343   5.177   2.319   0.945
  470TIP3    H2 1344   5.135   2.218   1.048
  471TIP3   OH2 1345   4.603   1.922   0.219
  471TIP3    H1 1346   4.561   1.943   0.134
  471TIP3    H2 1347   4.630   2.011   0.251
  472TIP3   OH2 1348   6.035   2.439   0.458
  472TIP3    H1 1349   5.950   2.443   0.501
  472TIP3    H2 1350   6.036   2.522   0.406
  473TIP3   OH2 1351   5.739   2.472   0.150
  473TIP3    H1 1352   5.784   2.389   0.122
  473TIP3    H2 1353   5.798   2.536   0.104
  474TIP3   OH2 1354   5.875   2.259   0.039
  474TIP3    H1 1355   5.809   2.188   0.033
  474TIP3    H2 1356   5.924   2.233   0.120
  475TIP3   OH2 1357   6.259   2.355   0.801
  475TIP3    H1 1358   6.255   2.274   0.745
  475TIP3    H2 1359   6.253   2.426   0.734
  476TIP3   OH2 1360   6.461   1.995   0.657
  476TIP3    H1 1361   6.376   2.044   0.654
  476TIP3    H2 1362   6.493   2.007   0.565
  477TIP3   OH2 1363   6.145   1.874   0.952
  477TIP3    H1 1364   6.148   1.956   1.005
  477TIP3    H2 1365   6.048   1.871   0.934
  478TIP3   OH2 1366   5.132   1.822   0.443
  478TIP3    H1 1367   5.096   1.764   0.372
  478TIP3    H2 1368   5.212   1.774   0.470
  479TIP3   OH2 1369   5.266   2.237   0.590
  479TIP3    H1 1370   5.244   2.200   0.504
  479TIP3    H2 1371   5.355   2.201   0.607
  480TIP3   OH2 1372   5.262   1.800   0.808
  480TIP3    H1 1373   5.298   1.772   0.721
  480TIP3    H2 1374   5.313   1.882   0.826
  481TIP3   OH2 1375   5.785   2.474   0.696
  481TIP3    H1 1376   5.734   2.486   0.621
  481TIP3    H2 1377   5.796   2.374   0.697
  482TIP3   OH2 1378   5.433   2.350   1.102
  482TIP3    H1 1379   5.377   2.410   1.157
  482TIP3    H2 1380   5.360   2.300   1.059
  483TIP3   OH2 1381   5.154   1.955   1.277
  483TIP3    H1 1382   5.147   2.014   1.202
  483TIP3    H2 1383   5.076   1.896   1.257
  484TIP3   OH2 1384   5.485   2.365   0.142
  484TIP3    H1 1385   5.570   2.411   0.143
  484TIP3    H2 1386   5.431   2.419   0.083
  485TIP3   OH2 1387   5.209   2.478   1.195
  485TIP3    H1 1388   5.170   2.512   1.114
  485TIP3    H2 1389   5.143   2.500   1.262
  486TIP3   OH2 1390   5.005   1.665   0.238
  486TIP3    H1 1391   4.937   1.714   0.187
  486TIP3    H2 1392   4.954   1.588   0.267
  487TIP3   OH2 1393   4.786   2.053   1.153
  487TIP3    H1 1394   4.715   2.038   1.087
  487TIP3    H2 1395   4.815   1.962   1.173
  488TIP3   OH2 1396   4.637   2.241   0.794
  488TIP3    H1 1397   4.733   2.245   0.781
  488TIP3    H2 1398   4.619   2.324   0.841
  489TIP3   OH2 1399   6.511   2.692   0.843
  489TIP3    H1 1400   6.508   2.596   0.861
  489TIP3    H2 1401   6.427   2.721   0.886
  490TIP3   OH2 1402   5.616   2.510   0.968
  490TIP3    H1 1403   5.592   2.592   1.017
  490TIP3    H2 1404   5.554   2.447   1.011
  491TIP3   OH2 1405   5.376   2.617  -0.066
  491TIP3    H1 1406   5.313   2.586  -0.132
  491TIP3    H2 1407   5.341   2.705  -0.042
  492TIP3   OH2 1408   4.809   2.459   0.316
  492TIP3    H1 1409   4.854   2.447   0.403
  492TIP3    H2 1410   4.754   2.379   0.314
  493TIP3   OH2 1411   5.608   2.504  -0.161
  493TIP3    H1 1412   5.528   2.547  -0.123
  493TIP3    H2 1413   5.673   2.521  -0.092
  494TIP3   OH2 1414   6.395   1.827   1.128
  494TIP3    H1 1415   6.317   1.833   1.071
  494TIP3    H2 1416   6.412   1.731   1.127
  495TIP3   OH2 1417   5.017   2.204   1.180
  495TIP3    H1 1418   5.000   2.274   1.243
  495TIP3    H2 1419   4.929   2.160   1.172
  496TIP3   OH2 1420   5.375   1.066   0.928
  496TIP3    H1 1421   5.286   1.031   0.906
  496TIP3    H2 1422   5.350   1.142   0.984
  497TIP3   OH2 1423   5.918   1.169   1.109
  497TIP3    H1 1424   5.988   1.153   1.176
  497TIP3    H2 1425   5.836   1.150   1.160
  498TIP3   OH2 1426   6.156   1.604   1.031
  498TIP3    H1 1427   6.116   1.591   1.121
  498TIP3    H2 1428   6.131   1.695   1.011
  499TIP3   OH2 1429   5.318   1.566   0.948
  499TIP3    H1 1430   5.285   1.595   1.034
  499TIP3    H2 1431   5.316   1.649   0.896
  500TIP3   OH2 1432   5.188   1.480   0.475
  500TIP3    H1 1433   5.101   1.435   0.473
  500TIP3    H2 1434   5.229   1.452   0.390
  501TIP3   OH2 1435   5.843   1.551   0.511
  501TIP3    H1 1436   5.833   1.610   0.433
  501TIP3    H2 1437   5.844   1.464   0.466
  502TIP3   OH2 1438   5.139   1.604   1.163
  502TIP3    H1 1439   5.183   1.650   1.236
  502TIP3    H2 1440   5.122   1.517   1.203
  503TIP3   OH2 1441   4.724   1.145   0.754
  503TIP3    H1 1442   4.807   1.163   0.803
  503TIP3    H2 1443   4.754   1.102   0.672
  504TIP3   OH2 1444   4.752   1.187   0.313
  504TIP3    H1 1445   4.793   1.252   0.255
  504TIP3    H2 1446   4.657   1.213   0.308
  505TIP3   OH2 1447   5.531   1.319   0.613
  505TIP3    H1 1448   5.436   1.325   0.638
  505TIP3    H2 1449   5.565   1.261   0.683
  506TIP3   OH2 1450   4.958   1.329   0.522
  506TIP3    H1 1451   4.863   1.351   0.506
  506TIP3    H2 1452   4.965   1.245   0.475
  507TIP3   OH2 1453   5.944   1.352   0.713
  507TIP3    H1 1454   5.948   1.343   0.811
  507TIP3    H2 1455   6.037   1.332   0.688
  508TIP3   OH2 1456   6.194   3.043   0.944
  508TIP3    H1 1457   6.193   3.070   0.850
  508TIP3    H2 1458   6.271   3.092   0.977
  509TIP3   OH2 1459   5.289   1.929  -0.005
  509TIP3    H1 1460   5.259   1.835  -0.007
  509TIP3    H2 1461   5.302   1.941   0.092
  510TIP3   OH2 1462   6.228   2.138   0.635
  510TIP3    H1 1463   6.252   2.185   0.552
  510TIP3    H2 1464   6.141   2.099   0.613
  511TIP3   OH2 1465   5.761   2.246   1.002
  511TIP3    H1 1466   5.777   2.160   1.045
  511TIP3    H2 1467   5.690   2.283   1.055
  512TIP3   OH2 1468   5.021   1.920   0.679
  512TIP3    H1 1469   5.053   1.893   0.590
  512TIP3    H2 1470   5.068   1.858   0.736
  513TIP3   OH2 1471   5.480   2.066  -0.147
  513TIP3    H1 1472   5.427   2.148  -0.155
  513TIP3    H2 1473   5.412   2.006  -0.108
  514TIP3   OH2 1474   4.891   1.825   1.300
  514TIP3    H1 1475   4.880   1.788   1.390
  514TIP3    H2 1476   4.820   1.777   1.253
  515TIP3   OH2 1477   5.634   1.946   1.306
  515TIP3    H1 1478   5.579   1.877   1.269
  515TIP3    H2 1479   5.720   1.924   1.265
  516TIP3   OH2 1480   6.514   2.404   0.889
  516TIP3    H1 1481   6.416   2.399   0.883
  516TIP3    H2 1482   6.539   2.374   0.798
  517TIP3   OH2 1483   5.987   2.020   0.553
  517TIP3    H1 1484   5.896   1.989   0.574
  517TIP3    H2 1485   6.026   1.933   0.530
  518TIP3   OH2 1486   5.121   2.223   0.312
  518TIP3    H1 1487   5.123   2.301   0.254
  518TIP3    H2 1488   5.027   2.202   0.312
  519TIP3   OH2 1489   4.703   1.516   0.044
  519TIP3    H1 1490   4.736   1.607   0.039
  519TIP3    H2 1491   4.614   1.526   0.082
  520TIP3   OH2 1492   5.269   1.991   0.265
  520TIP3    H1 1493   5.228   2.079   0.274
  520TIP3    H2 1494   5.220   1.940   0.331
  521TIP3   OH2 1495   5.387   2.566   0.774
  521TIP3    H1 1496   5.426   2.637   0.719
  521TIP3    H2 1497   5.463   2.542   0.829
  522TIP3   OH2 1498   5.039   2.462   0.158
  522TIP3    H1 1499   4.953   2.465   0.204
  522TIP3    H2 1500   5.068   2.555   0.163
  523TIP3   OH2 1501   5.792   2.204   0.730
  523TIP3    H1 1502   5.781   2.195   0.828
  523TIP3    H2 1503   5.858   2.133   0.714
  524TIP3   OH2 1504   5.109   1.345   1.302
  524TIP3    H1 1505   5.013   1.352   1.316
  524TIP3    H2 1506   5.137   1.289   1.376
  525TIP3   OH2 1507   4.828   2.434   0.927
  525TIP3    H1 1508   4.883   2.359   0.951
  525TIP3    H2 1509   4.851   2.500   0.994
  526TIP3   OH2 1510   5.169   2.013  -0.337
  526TIP3    H1 1511   5.105   1.989  -0.405
  526TIP3    H2 1512   5.112   2.024  -0.258
  527TIP3   OH2 1513   5.055   2.080  -0.084
  527TIP3    H1 1514   5.139   2.041  -0.053
  527TIP3    H2 1515   5.074   2.177  -0.083
  528TIP3   OH2 1516   4.805   1.779   0.094
  528TIP3    H1 1517   4.737   1.826   0.147
  528TIP3    H2 1518   4.821   1.846   0.024
  529TIP3   OH2 1519   5.937   1.411   0.972
  529TIP3    H1 1520   5.991   1.472   1.027
  529TIP3    H2 1521   5.927   1.335   1.035
  530TIP3   OH2 1522   5.333   2.295  -0.170
  530TIP3    H1 1523   5.243   2.315  -0.137
  530TIP3    H2 1524   5.332   2.333  -0.258
  531TIP3   OH2 1525   5.079   2.355  -0.095
  531TIP3    H1 1526   5.050   2.426  -0.157
  531TIP3    H2 1527   5.057   2.394  -0.008
  532TIP3   OH2 1528   6.427   1.558   1.066
  532TIP3    H1 1529   6.332   1.550   1.046
  532TIP3    H2 1530   6.467   1.557   0.977
  533TIP3   OH2 1531   6.064   1.765   0.497
  533TIP3    H1 1532   6.010   1.688   0.476
  533TIP3    H2 1533   6.144   1.723   0.536
  534TIP3   OH2 1534   4.791   1.999  -0.094
  534TIP3    H1 1535   4.871   2.051  -0.077
  534TIP3    H2 1536   4.832   1.934  -0.157
  535TIP3   OH2 1537   6.045   2.706   0.375
  535TIP3    H1 1538   6.003   2.759   0.304
  535TIP3    H2 1539   6.139   2.732   0.358
  536TIP3   OH2 1540   5.118   0.970   0.905
  536TIP3    H1 1541   5.092   0.924   0.824
  536TIP3    H2 1542   5.111   0.898   0.970
  537TIP3   OH2 1543   4.664   2.201   0.284
  537TIP3    H1 1544   4.593   2.226   0.345
  537TIP3    H2 1545   4.630   2.238   0.200
  538TIP3   OH2 1546   4.820   2.742   1.352
  538TIP3    H1 1547   4.901   2.747   1.408
  538TIP3    H2 1548   4.793   2.649   1.366
  539TIP3   OH2 1549   5.928   2.582   1.075
  539TIP3    H1 1550   5.918   2.527   1.157
  539TIP3    H2 1551   5.993   2.646   1.112
  540TIP3   OH2 1552   4.930   1.812  -0.229
  540TIP3    H1 1553   4.952   1.718  -0.225
  540TIP3    H2 1554   4.949   1.831  -0.323
  541TIP3   OH2 1555   5.539   2.219   1.337
  541TIP3    H1 1556   5.518   2.244   1.245
  541TIP3    H2 1557   5.590   2.136   1.326
  542TIP3   OH2 1558   6.058   2.220   0.941
  542TIP3    H1 1559   6.120   2.280   0.895
  542TIP3    H2 1560   5.973   2.266   0.939
  543TIP3   OH2 1561   5.167   1.671  -0.002
  543TIP3    H1 1562   5.111   1.673   0.077
  543TIP3    H2 1563   5.111   1.625  -0.066
  544TIP3   OH2 1564   5.393   1.754   1.203
  544TIP3    H1 1565   5.334   1.830   1.211
  544TIP3    H2 1566   5.446   1.779   1.124
  545TIP3   OH2 1567   5.921   2.163   1.331
  545TIP3    H1 1568   5.999   2.131   1.284
  545TIP3    H2 1569   5.920   2.104   1.409
  546TIP3   OH2 1570   5.523   1.550   1.333
  546TIP3    H1 1571   5.531   1.470   1.278
  546TIP3    H2 1572   5.482   1.613   1.272
  547TIP3   OH2 1573   5.523   1.341   1.134
  547TIP3    H1 1574   5.536   1.393   1.054
  547TIP3    H2 1575   5.431   1.310   1.123
  548TIP3   OH2 1576   5.536   1.852   1.004
  548TIP3    H1 1577   5.633   1.854   0.987
  548TIP3    H2 1578   5.505   1.927   0.951
  549TIP3   OH2 1579   6.163   1.844   1.414
  549TIP3    H1 1580   6.192   1.753   1.397
  549TIP3    H2 1581   6.219   1.894   1.353
  550TIP3   OH2 1582   6.188   2.091   1.133
  550TIP3    H1 1583   6.129   2.137   1.069
  550TIP3    H2 1584   6.275   2.111   1.090
  551TIP3   OH2 1585   5.403   1.667   1.556
  551TIP3    H1 1586   5.334   1.599   1.574
  551TIP3    H2 1587   5.441   1.633   1.473
  552TIP3   OH2 1588   5.663   1.105   1.204
  552TIP3    H1 1589   5.610   1.183   1.179
  552TIP3    H2 1590   5.600   1.031   1.188
  553TIP3   OH2 1591   5.797   1.604   1.408
  553TIP3    H1 1592   5.796   1.602   1.505
  553TIP3    H2 1593   5.704   1.581   1.388
  554TIP3   OH2 1594   6.033   1.547   1.264
  554TIP3    H1 1595   5.953   1.567   1.318
  554TIP3    H2 1596   6.098   1.520   1.331
  555TIP3   OH2 1597   6.260   1.497   1.428
  555TIP3    H1 1598   6.268   1.401   1.444
  555TIP3    H2 1599   6.257   1.534   1.519
  556TIP3   OH2 1600   5.249   1.440   1.611
  556TIP3    H1 1601   5.257   1.349   1.576
  556TIP3    H2 1602   5.286   1.428   1.701
  557TIP3   OH2 1603   5.743   1.112   1.466
  557TIP3    H1 1604   5.818   1.048   1.463
  557TIP3    H2 1605   5.713   1.106   1.373
  558TIP3   OH2 1606   5.821   1.324   1.622
  558TIP3    H1 1607   5.798   1.254   1.557
  558TIP3    H2 1608   5.746   1.386   1.612
  559TIP3   OH2 1609   5.061   2.546  -0.293
  559TIP3    H1 1610   5.146   2.537  -0.341
  559TIP3    H2 1611   5.011   2.602  -0.353
  560TIP3   OH2 1612   4.527   1.934  -0.053
  560TIP3    H1 1613   4.616   1.972  -0.070
  560TIP3    H2 1614   4.529   1.858  -0.113
  561TIP3   OH2 1615   4.443   2.553   0.349
  561TIP3    H1 1616   4.376   2.492   0.311
  561TIP3    H2 1617   4.484   2.493   0.415
  562TIP3   OH2 1618   4.577   2.399   0.534
  562TIP3    H1 1619   4.553   2.328   0.594
  562TIP3    H2 1620   4.624   2.459   0.594
  563TIP3   OH2 1621   6.295   2.805   0.339
  563TIP3    H1 1622   6.330   2.842   0.422
  563TIP3    H2 1623   6.372   2.815   0.279
  564TIP3   OH2 1624   6.336   2.822   0.620
  564TIP3    H1 1625   6.299   2.732   0.611
  564TIP3    H2 1626   6.415   2.801   0.673
  565TIP3   OH2 1627   6.374   2.498   1.186
  565TIP3    H1 1628   6.305   2.505   1.255
  565TIP3    H2 1629   6.418   2.585   1.194
  566TIP3   OH2 1630   6.367   2.271   0.440
  566TIP3    H1 1631   6.426   2.206   0.398
  566TIP3    H2 1632   6.375   2.348   0.380
  567TIP3   OH2 1633   6.208   2.568   0.631
  567TIP3    H1 1634   6.130   2.621   0.653
  567TIP3    H2 1635   6.174   2.514   0.557
  568TIP3   OH2 1636   4.765   1.801   0.910
  568TIP3    H1 1637   4.763   1.772   0.816
  568TIP3    H2 1638   4.862   1.811   0.924
  569TIP3   OH2 1639   6.424   2.161   1.015
  569TIP3    H1 1640   6.494   2.091   1.007
  569TIP3    H2 1641   6.458   2.230   0.956
  570TIP3   OH2 1642   6.606   1.965   1.029
  570TIP3    H1 1643   6.532   1.914   1.070
  570TIP3    H2 1644   6.679   1.901   1.044
  571TIP3   OH2 1645   6.275   1.636   0.616
  571TIP3    H1 1646   6.368   1.627   0.585
  571TIP3    H2 1647   6.293   1.686   0.699
  572TIP3   OH2 1648   6.371   1.793   0.814
  572TIP3    H1 1649   6.291   1.830   0.857
  572TIP3    H2 1650   6.406   1.869   0.764
  573TIP3   OH2 1651   4.983   1.495   1.590
  573TIP3    H1 1652   5.081   1.485   1.590
  573TIP3    H2 1653   4.957   1.407   1.623
  574TIP3   OH2 1654   6.822   1.356   1.336
  574TIP3    H1 1655   6.873   1.294   1.281
  574TIP3    H2 1656   6.783   1.416   1.268
  575TIP3   OH2 1657   4.942   1.183   0.915
  575TIP3    H1 1658   5.005   1.108   0.922
  575TIP3    H2 1659   5.003   1.259   0.915
  576TIP3   OH2 1660   4.743   1.458   0.985
  576TIP3    H1 1661   4.788   1.451   0.898
  576TIP3    H2 1662   4.773   1.545   1.014
  577TIP3   OH2 1663   6.684   1.510   1.157
  577TIP3    H1 1664   6.589   1.536   1.159
  577TIP3    H2 1665   6.680   1.432   1.100
  578TIP3   OH2 1666   4.698   0.997   0.515
  578TIP3    H1 1667   4.605   0.978   0.540
  578TIP3    H2 1668   4.687   1.065   0.447
  579TIP3   OH2 1669   5.872   2.641  -0.010
  579TIP3    H1 1670   5.910   2.600  -0.089
  579TIP3    H2 1671   5.928   2.722  -0.005
  580TIP3   OH2 1672   4.942   1.036   1.299
  580TIP3    H1 1673   4.892   1.038   1.382
  580TIP3    H2 1674   4.880   1.081   1.239
  581TIP3   OH2 1675   4.982   2.413   1.378
  581TIP3    H1 1676   4.884   2.425   1.375
  581TIP3    H2 1677   5.004   2.465   1.457
  582TIP3   OH2 1678   5.157   2.501   0.915
  582TIP3    H1 1679   5.111   2.579   0.880
  582TIP3    H2 1680   5.244   2.515   0.873
  583TIP3   OH2 1681   5.614   2.758   1.064
  583TIP3    H1 1682   5.648   2.754   1.157
  583TIP3    H2 1683   5.685   2.811   1.022
  584TIP3   OH2 1684   5.819   2.869   0.914
  584TIP3    H1 1685   5.869   2.892   0.837
  584TIP3    H2 1686   5.858   2.930   0.982
  585TIP3   OH2 1687   4.843   2.764   0.948
  585TIP3    H1 1688   4.751   2.793   0.928
  585TIP3    H2 1689   4.853   2.801   1.036
  586TIP3   OH2 1690   5.076   2.740   0.806
  586TIP3    H1 1691   4.990   2.752   0.853
  586TIP3    H2 1692   5.053   2.768   0.715
  587TIP3   OH2 1693   5.499   2.752   0.606
  587TIP3    H1 1694   5.434   2.786   0.543
  587TIP3    H2 1695   5.532   2.835   0.647
  588TIP3   OH2 1696   5.993   2.903   0.582
  588TIP3    H1 1697   5.966   2.983   0.531
  588TIP3    H2 1698   6.004   2.838   0.511
  589TIP3   OH2 1699   4.756   2.559   0.690
  589TIP3    H1 1700   4.778   2.529   0.781
  589TIP3    H2 1701   4.826   2.511   0.640
  590TIP3   OH2 1702   4.947   2.425   0.551
  590TIP3    H1 1703   4.961   2.340   0.599
  590TIP3    H2 1704   5.038   2.459   0.547
  591TIP3   OH2 1705   5.216   2.521   0.551
  591TIP3    H1 1706   5.242   2.428   0.538
  591TIP3    H2 1707   5.260   2.539   0.636
  592TIP3   OH2 1708   4.542   2.320   0.078
  592TIP3    H1 1709   4.455   2.285   0.052
  592TIP3    H2 1710   4.523   2.415   0.073
  593TIP3   OH2 1711   5.244   1.162   1.545
  593TIP3    H1 1712   5.211   1.093   1.605
  593TIP3    H2 1713   5.339   1.164   1.572
  594TIP3   OH2 1714   5.493   1.163   1.664
  594TIP3    H1 1715   5.578   1.142   1.622
  594TIP3    H2 1716   5.486   1.090   1.730
  595TIP3   OH2 1717   4.670   2.368  -0.238
  595TIP3    H1 1718   4.606   2.399  -0.172
  595TIP3    H2 1719   4.675   2.275  -0.219
  596TIP3   OH2 1720   6.304   1.224   1.460
  596TIP3    H1 1721   6.328   1.195   1.550
  596TIP3    H2 1722   6.392   1.225   1.416
  597TIP3   OH2 1723   6.271   2.778   0.941
  597TIP3    H1 1724   6.185   2.735   0.946
  597TIP3    H2 1725   6.246   2.873   0.943
  598TIP3   OH2 1726   6.836   2.064   0.467
  598TIP3    H1 1727   6.877   2.044   0.553
  598TIP3    H2 1728   6.887   2.144   0.444
  599TIP3   OH2 1729   6.787   2.457   0.202
  599TIP3    H1 1730   6.766   2.384   0.142
  599TIP3    H2 1731   6.882   2.445   0.219
  600TIP3   OH2 1732   7.068   2.303   0.304
  600TIP3    H1 1733   7.044   2.373   0.369
  600TIP3    H2 1734   7.163   2.290   0.331
  601TIP3   OH2 1735   6.994   2.502   0.478
  601TIP3    H1 1736   6.974   2.592   0.446
  601TIP3    H2 1737   6.918   2.488   0.538
  602TIP3   OH2 1738   7.209   2.609   0.623
  602TIP3    H1 1739   7.147   2.675   0.661
  602TIP3    H2 1740   7.147   2.555   0.570
  603TIP3   OH2 1741   6.952   2.179   0.706
  603TIP3    H1 1742   6.964   2.263   0.756
  603TIP3    H2 1743   6.864   2.152   0.737
  604TIP3   OH2 1744   7.002   2.779   0.698
  604TIP3    H1 1745   6.968   2.783   0.606
  604TIP3    H2 1746   6.922   2.757   0.750
  605TIP3   OH2 1747   6.579   2.302   0.646
  605TIP3    H1 1748   6.516   2.278   0.576
  605TIP3    H2 1749   6.617   2.216   0.672
  606TIP3   OH2 1750   6.442   2.494   0.287
  606TIP3    H1 1751   6.536   2.497   0.265
  606TIP3    H2 1752   6.430   2.578   0.333
  607TIP3   OH2 1753   7.402   2.729   0.464
  607TIP3    H1 1754   7.402   2.822   0.495
  607TIP3    H2 1755   7.333   2.690   0.522
  608TIP3   OH2 1756   6.778   2.493   0.641
  608TIP3    H1 1757   6.829   2.474   0.722
  608TIP3    H2 1758   6.706   2.427   0.646
  609TIP3   OH2 1759   6.952   1.879   0.713
  609TIP3    H1 1760   6.914   1.915   0.793
  609TIP3    H2 1761   6.921   1.788   0.711
  610TIP3   OH2 1762   6.946   2.415   0.855
  610TIP3    H1 1763   7.027   2.445   0.901
  610TIP3    H2 1764   6.883   2.413   0.929
  611TIP3   OH2 1765   7.509   2.448   0.560
  611TIP3    H1 1766   7.516   2.478   0.651
  611TIP3    H2 1767   7.496   2.530   0.511
  612TIP3   OH2 1768   6.700   2.092   0.785
  612TIP3    H1 1769   6.715   2.079   0.881
  612TIP3    H2 1770   6.628   2.029   0.768
  613TIP3   OH2 1771   7.418   2.206   0.801
  613TIP3    H1 1772   7.339   2.157   0.767
  613TIP3    H2 1773   7.480   2.185   0.729
  614TIP3   OH2 1774   7.185   2.833   0.304
  614TIP3    H1 1775   7.192   2.842   0.208
  614TIP3    H2 1776   7.271   2.795   0.328
  615TIP3   OH2 1777   6.625   2.684   0.435
  615TIP3    H1 1778   6.680   2.611   0.468
  615TIP3    H2 1779   6.661   2.759   0.484
  616TIP3   OH2 1780   6.618   2.995   0.844
  616TIP3    H1 1781   6.705   2.996   0.891
  616TIP3    H2 1782   6.600   2.900   0.840
  617TIP3   OH2 1783   7.099   2.953   0.892
  617TIP3    H1 1784   7.193   2.931   0.893
  617TIP3    H2 1785   7.069   2.899   0.816
  618TIP3   OH2 1786   6.746   2.401   1.044
  618TIP3    H1 1787   6.762   2.305   1.052
  618TIP3    H2 1788   6.658   2.403   1.001
  619TIP3   OH2 1789   7.369   2.485   0.815
  619TIP3    H1 1790   7.317   2.502   0.733
  619TIP3    H2 1791   7.385   2.388   0.809
  620TIP3   OH2 1792   6.870   2.132   1.025
  620TIP3    H1 1793   6.950   2.081   1.006
  620TIP3    H2 1794   6.891   2.166   1.114
  621TIP3   OH2 1795   7.214   2.065   0.689
  621TIP3    H1 1796   7.120   2.093   0.698
  621TIP3    H2 1797   7.206   1.996   0.623
  622TIP3   OH2 1798   7.170   1.944   1.053
  622TIP3    H1 1799   7.111   1.874   1.088
  622TIP3    H2 1800   7.198   1.905   0.968
  623TIP3   OH2 1801   7.030   1.716   1.119
  623TIP3    H1 1802   7.061   1.658   1.046
  623TIP3    H2 1803   7.073   1.677   1.198
  624TIP3   OH2 1804   6.354   2.653   0.033
  624TIP3    H1 1805   6.353   2.574   0.089
  624TIP3    H2 1806   6.422   2.707   0.077
  625TIP3   OH2 1807   6.564   2.071   0.409
  625TIP3    H1 1808   6.567   2.006   0.337
  625TIP3    H2 1809   6.659   2.079   0.430
  626TIP3   OH2 1810   6.769   1.753   1.061
  626TIP3    H1 1811   6.865   1.745   1.078
  626TIP3    H2 1812   6.738   1.671   1.105
  627TIP3   OH2 1813   6.785   2.728   0.865
  627TIP3    H1 1814   6.694   2.701   0.844
  627TIP3    H2 1815   6.791   2.708   0.959
  628TIP3   OH2 1816   6.950   2.767   0.419
  628TIP3    H1 1817   6.903   2.836   0.370
  628TIP3    H2 1818   7.041   2.783   0.382
  629TIP3   OH2 1819   7.409   3.003   0.549
  629TIP3    H1 1820   7.456   3.014   0.634
  629TIP3    H2 1821   7.467   3.049   0.487
  630TIP3   OH2 1822   7.574   3.138   0.339
  630TIP3    H1 1823   7.611   3.112   0.254
  630TIP3    H2 1824   7.587   3.234   0.336
  631TIP3   OH2 1825   6.633   3.008   0.452
  631TIP3    H1 1826   6.547   3.043   0.420
  631TIP3    H2 1827   6.645   3.062   0.531
  632TIP3   OH2 1828   6.851   2.995   0.285
  632TIP3    H1 1829   6.777   2.999   0.349
  632TIP3    H2 1830   6.820   3.059   0.220
  633TIP3   OH2 1831   6.533   2.795   0.197
  633TIP3    H1 1832   6.574   2.772   0.283
  633TIP3    H2 1833   6.610   2.778   0.138
  634TIP3   OH2 1834   6.750   2.693   0.065
  634TIP3    H1 1835   6.764   2.609   0.113
  634TIP3    H2 1836   6.834   2.704   0.017
  635TIP3   OH2 1837   0.877   2.669   2.052
  635TIP3    H1 1838   0.807   2.712   2.001
  635TIP3    H2 1839   0.905   2.740   2.112
  636TIP3   OH2 1840   0.350   3.489   1.652
  636TIP3    H1 1841   0.289   3.415   1.660
  636TIP3    H2 1842   0.331   3.522   1.562
  637TIP3   OH2 1843   0.513   3.399   1.986
  637TIP3    H1 1844   0.512   3.323   1.923
  637TIP3    H2 1845   0.504   3.476   1.925
  638TIP3   OH2 1846   0.725   3.023   1.827
  638TIP3    H1 1847   0.646   3.082   1.832
  638TIP3    H2 1848   0.756   3.041   1.736
  639TIP3   OH2 1849   0.439   2.905   2.147
  639TIP3    H1 1850   0.407   2.986   2.193
  639TIP3    H2 1851   0.363   2.888   2.087
  640TIP3   OH2 1852   0.755   3.742   2.026
  640TIP3    H1 1853   0.752   3.646   2.038
  640TIP3    H2 1854   0.669   3.767   2.067
  641TIP3   OH2 1855  -0.124   3.530   2.181
  641TIP3    H1 1856  -0.131   3.627   2.198
  641TIP3    H2 1857  -0.216   3.504   2.185
  642TIP3   OH2 1858   0.652   2.867   2.309
  642TIP3    H1 1859   0.573   2.883   2.253
  642TIP3    H2 1860   0.658   2.769   2.304
  643TIP3   OH2 1861   0.112   2.858   2.500
  643TIP3    H1 1862   0.118   2.771   2.540
  643TIP3    H2 1863   0.206   2.884   2.498
  644TIP3   OH2 1864   0.444   4.090   2.121
  644TIP3    H1 1865   0.440   4.114   2.027
  644TIP3    H2 1866   0.522   4.140   2.151
  645TIP3   OH2 1867   0.498   3.173   1.828
  645TIP3    H1 1868   0.502   3.203   1.734
  645TIP3    H2 1869   0.442   3.095   1.818
  646TIP3   OH2 1870   0.002   3.283   2.201
  646TIP3    H1 1871   0.026   3.286   2.294
  646TIP3    H2 1872  -0.043   3.369   2.189
  647TIP3   OH2 1873   0.130   3.529   2.073
  647TIP3    H1 1874   0.038   3.543   2.104
  647TIP3    H2 1875   0.177   3.576   2.145
  648TIP3   OH2 1876   0.763   3.453   2.076
  648TIP3    H1 1877   0.666   3.447   2.065
  648TIP3    H2 1878   0.794   3.422   1.988
  649TIP3   OH2 1879   0.272   3.780   1.963
  649TIP3    H1 1880   0.194   3.723   1.949
  649TIP3    H2 1881   0.257   3.849   1.895
  650TIP3   OH2 1882   0.659   2.598   2.230
  650TIP3    H1 1883   0.570   2.565   2.215
  650TIP3    H2 1884   0.695   2.606   2.140
  651TIP3   OH2 1885   0.292   3.793   1.573
  651TIP3    H1 1886   0.253   3.785   1.485
  651TIP3    H2 1887   0.387   3.797   1.551
  652TIP3   OH2 1888  -0.452   3.741   2.588
  652TIP3    H1 1889  -0.359   3.737   2.612
  652TIP3    H2 1890  -0.448   3.725   2.493
  653TIP3   OH2 1891   0.196   3.649   2.310
  653TIP3    H1 1892   0.185   3.581   2.380
  653TIP3    H2 1893   0.270   3.703   2.344
  654TIP3   OH2 1894  -0.183   3.285   2.520
  654TIP3    H1 1895  -0.217   3.270   2.430
  654TIP3    H2 1896  -0.122   3.211   2.531
  655TIP3   OH2 1897   0.296   3.269   2.100
  655TIP3    H1 1898   0.365   3.329   2.067
  655TIP3    H2 1899   0.218   3.328   2.106
  656TIP3   OH2 1900   0.161   3.203   2.508
  656TIP3    H1 1901   0.244   3.186   2.462
  656TIP3    H2 1902   0.168   3.142   2.584
  657TIP3   OH2 1903   0.388   2.880   2.566
  657TIP3    H1 1904   0.440   2.800   2.584
  657TIP3    H2 1905   0.455   2.939   2.527
  658TIP3   OH2 1906   0.425   3.148   2.304
  658TIP3    H1 1907   0.369   3.191   2.236
  658TIP3    H2 1908   0.514   3.163   2.264
  659TIP3   OH2 1909   0.537   2.547   2.595
  659TIP3    H1 1910   0.536   2.451   2.611
  659TIP3    H2 1911   0.517   2.584   2.684
  660TIP3   OH2 1912   0.554   3.842   1.515
  660TIP3    H1 1913   0.580   3.882   1.600
  660TIP3    H2 1914   0.606   3.895   1.452
  661TIP3   OH2 1915   0.586   3.876   1.795
  661TIP3    H1 1916   0.543   3.787   1.797
  661TIP3    H2 1917   0.664   3.855   1.848
  662TIP3   OH2 1918   0.625   3.540   2.368
  662TIP3    H1 1919   0.553   3.549   2.433
  662TIP3    H2 1920   0.667   3.629   2.371
  663TIP3   OH2 1921   0.698   3.352   1.621
  663TIP3    H1 1922   0.718   3.270   1.573
  663TIP3    H2 1923   0.680   3.416   1.549
  664TIP3   OH2 1924   0.474   3.631   1.841
  664TIP3    H1 1925   0.395   3.671   1.884
  664TIP3    H2 1926   0.433   3.585   1.764
  665TIP3   OH2 1927   0.671   3.202   2.196
  665TIP3    H1 1928   0.742   3.136   2.182
  665TIP3    H2 1929   0.696   3.273   2.134
  666TIP3   OH2 1930   0.857   3.007   2.204
  666TIP3    H1 1931   0.783   2.958   2.246
  666TIP3    H2 1932   0.932   2.948   2.227
  667TIP3   OH2 1933   0.643   2.800   1.966
  667TIP3    H1 1934   0.564   2.827   2.017
  667TIP3    H2 1935   0.661   2.883   1.916
  668TIP3   OH2 1936   1.067   2.411   2.516
  668TIP3    H1 1937   1.125   2.346   2.471
  668TIP3    H2 1938   1.029   2.460   2.440
  669TIP3   OH2 1939   0.927   2.542   2.325
  669TIP3    H1 1940   0.844   2.582   2.358
  669TIP3    H2 1941   0.902   2.520   2.234
  670TIP3   OH2 1942  -0.141   3.796   2.238
  670TIP3    H1 1943  -0.099   3.797   2.328
  670TIP3    H2 1944  -0.074   3.847   2.187
  671TIP3   OH2 1945   0.042   3.939   2.098
  671TIP3    H1 1946   0.117   3.892   2.057
  671TIP3    H2 1947   0.090   4.000   2.157
  672TIP3   OH2 1948   0.021   3.763   1.825
  672TIP3    H1 1949  -0.073   3.780   1.840
  672TIP3    H2 1950   0.054   3.850   1.797
  673TIP3   OH2 1951   0.222   3.966   1.766
  673TIP3    H1 1952   0.208   4.049   1.716
  673TIP3    H2 1953   0.247   3.904   1.693
  674TIP3   OH2 1954   0.586   2.279   2.643
  674TIP3    H1 1955   0.599   2.245   2.733
  674TIP3    H2 1956   0.664   2.244   2.596
  675TIP3   OH2 1957   0.505   3.821   2.125
  675TIP3    H1 1958   0.427   3.789   2.075
  675TIP3    H2 1959   0.486   3.917   2.127
  676TIP3   OH2 1960   1.764   3.197   0.881
  676TIP3    H1 1961   1.749   3.290   0.852
  676TIP3    H2 1962   1.684   3.181   0.931
  677TIP3   OH2 1963   1.776   3.189   1.270
  677TIP3    H1 1964   1.807   3.169   1.360
  677TIP3    H2 1965   1.731   3.106   1.246
  678TIP3   OH2 1966   1.077   3.091   1.636
  678TIP3    H1 1967   1.104   3.020   1.698
  678TIP3    H2 1968   1.158   3.143   1.633
  679TIP3   OH2 1969   2.016   3.495   0.953
  679TIP3    H1 1970   2.003   3.426   1.020
  679TIP3    H2 1971   2.044   3.571   1.007
  680TIP3   OH2 1972   1.044   3.492   1.353
  680TIP3    H1 1973   1.038   3.395   1.366
  680TIP3    H2 1974   1.141   3.502   1.344
  681TIP3   OH2 1975   1.665   3.959   0.969
  681TIP3    H1 1976   1.711   3.887   0.920
  681TIP3    H2 1977   1.654   3.920   1.056
  682TIP3   OH2 1978   1.569   3.420   1.321
  682TIP3    H1 1979   1.603   3.346   1.269
  682TIP3    H2 1980   1.654   3.463   1.345
  683TIP3   OH2 1981   1.983   2.922   1.352
  683TIP3    H1 1982   2.025   2.836   1.371
  683TIP3    H2 1983   1.951   2.906   1.261
  684TIP3   OH2 1984   2.011   2.675   0.957
  684TIP3    H1 1985   2.095   2.658   1.006
  684TIP3    H2 1986   2.046   2.695   0.868
  685TIP3   OH2 1987   1.404   2.971   1.232
  685TIP3    H1 1988   1.500   2.952   1.248
  685TIP3    H2 1989   1.393   2.931   1.145
  686TIP3   OH2 1990   2.675   2.960   1.492
  686TIP3    H1 1991   2.588   2.985   1.455
  686TIP3    H2 1992   2.656   2.961   1.586
  687TIP3   OH2 1993   1.314   2.552   1.755
  687TIP3    H1 1994   1.250   2.597   1.697
  687TIP3    H2 1995   1.270   2.570   1.841
  688TIP3   OH2 1996   1.659   3.420   0.763
  688TIP3    H1 1997   1.597   3.401   0.693
  688TIP3    H2 1998   1.626   3.508   0.791
  689TIP3   OH2 1999   1.426   3.340   1.544
  689TIP3    H1 2000   1.363   3.407   1.580
  689TIP3    H2 2001   1.468   3.389   1.471
  690TIP3   OH2 2002   2.234   2.665   1.119
  690TIP3    H1 2003   2.205   2.636   1.206
  690TIP3    H2 2004   2.281   2.748   1.139
  691TIP3   OH2 2005   1.159   2.688   1.581
  691TIP3    H1 2006   1.221   2.763   1.580
  691TIP3    H2 2007   1.178   2.642   1.498
  692TIP3   OH2 2008   1.253   3.534   1.641
  692TIP3    H1 2009   1.228   3.620   1.602
  692TIP3    H2 2010   1.175   3.519   1.698
  693TIP3   OH2 2011   2.086   3.739   1.118
  693TIP3    H1 2012   1.997   3.729   1.159
  693TIP3    H2 2013   2.077   3.825   1.074
  694TIP3   OH2 2014   2.384   2.640   1.487
  694TIP3    H1 2015   2.298   2.673   1.458
  694TIP3    H2 2016   2.440   2.654   1.409
  695TIP3   OH2 2017   1.696   2.290   1.455
  695TIP3    H1 2018   1.658   2.204   1.475
  695TIP3    H2 2019   1.617   2.347   1.462
  696TIP3   OH2 2020   1.787   3.785   0.795
  696TIP3    H1 2021   1.837   3.703   0.773
  696TIP3    H2 2022   1.848   3.851   0.753
  697TIP3   OH2 2023   1.931   3.572   0.701
  697TIP3    H1 2024   1.918   3.491   0.649
  697TIP3    H2 2025   1.964   3.535   0.786
  698TIP3   OH2 2026   2.311   3.651   1.462
  698TIP3    H1 2027   2.299   3.573   1.404
  698TIP3    H2 2028   2.294   3.725   1.401
  699TIP3   OH2 2029   2.507   3.291   1.311
  699TIP3    H1 2030   2.423   3.341   1.316
  699TIP3    H2 2031   2.534   3.310   1.219
  700TIP3   OH2 2032   1.950   3.128   0.689
  700TIP3    H1 2033   1.891   3.150   0.765
  700TIP3    H2 2034   2.031   3.101   0.736
  701TIP3   OH2 2035   2.186   3.165   1.607
  701TIP3    H1 2036   2.183   3.248   1.657
  701TIP3    H2 2037   2.100   3.170   1.560
  702TIP3   OH2 2038   1.309   3.528   1.257
  702TIP3    H1 2039   1.296   3.503   1.164
  702TIP3    H2 2040   1.399   3.494   1.275
  703TIP3   OH2 2041   1.315   3.100   1.462
  703TIP3    H1 2042   1.349   3.071   1.375
  703TIP3    H2 2043   1.363   3.184   1.478
  704TIP3   OH2 2044   1.846   3.734   1.241
  704TIP3    H1 2045   1.830   3.813   1.294
  704TIP3    H2 2046   1.830   3.660   1.303
  705TIP3   OH2 2047   1.457   3.652   1.787
  705TIP3    H1 2048   1.396   3.715   1.833
  705TIP3    H2 2049   1.392   3.599   1.736
  706TIP3   OH2 2050   1.214   3.208   1.890
  706TIP3    H1 2051   1.216   3.296   1.933
  706TIP3    H2 2052   1.119   3.186   1.901
  707TIP3   OH2 2053   1.535   3.668   0.785
  707TIP3    H1 2054   1.614   3.720   0.805
  707TIP3    H2 2055   1.470   3.737   0.763
  708TIP3   OH2 2056   1.251   3.821   1.874
  708TIP3    H1 2057   1.217   3.821   1.783
  708TIP3    H2 2058   1.171   3.799   1.927
  709TIP3   OH2 2059   2.095   3.600   0.105
  709TIP3    H1 2060   2.113   3.696   0.095
  709TIP3    H2 2061   2.186   3.563   0.103
  710TIP3   OH2 2062   0.847   3.355   1.843
  710TIP3    H1 2063   0.791   3.349   1.762
  710TIP3    H2 2064   0.879   3.263   1.855
  711TIP3   OH2 2065   0.711   3.571   1.441
  711TIP3    H1 2066   0.807   3.576   1.450
  711TIP3    H2 2067   0.683   3.645   1.496
  712TIP3   OH2 2068   2.548   3.996   1.508
  712TIP3    H1 2069   2.548   3.900   1.523
  712TIP3    H2 2070   2.464   4.020   1.555
  713TIP3   OH2 2071   1.656   3.780   1.645
  713TIP3    H1 2072   1.653   3.873   1.677
  713TIP3    H2 2073   1.583   3.740   1.698
  714TIP3   OH2 2074   1.419   3.907   0.603
  714TIP3    H1 2075   1.379   3.890   0.516
  714TIP3    H2 2076   1.387   3.996   0.624
  715TIP3   OH2 2077   0.857   3.773   0.972
  715TIP3    H1 2078   0.888   3.748   1.061
  715TIP3    H2 2079   0.808   3.692   0.945
  716TIP3   OH2 2080   1.615   3.807   0.241
  716TIP3    H1 2081   1.674   3.746   0.192
  716TIP3    H2 2082   1.658   3.814   0.329
  717TIP3   OH2 2083   1.672   3.861   0.511
  717TIP3    H1 2084   1.581   3.870   0.549
  717TIP3    H2 2085   1.718   3.818   0.585
  718TIP3   OH2 2086   2.438   3.128   1.784
  718TIP3    H1 2087   2.357   3.139   1.731
  718TIP3    H2 2088   2.457   3.033   1.771
  719TIP3   OH2 2089   1.040   3.542   1.809
  719TIP3    H1 2090   1.092   3.526   1.891
  719TIP3    H2 2091   0.968   3.477   1.821
  720TIP3   OH2 2092   1.971   2.474   1.790
  720TIP3    H1 2093   2.041   2.447   1.852
  720TIP3    H2 2094   1.888   2.454   1.839
  721TIP3   OH2 2095   2.206   2.899   1.704
  721TIP3    H1 2096   2.159   2.897   1.791
  721TIP3    H2 2097   2.184   2.988   1.670
  722TIP3   OH2 2098   1.366   2.877   1.609
  722TIP3    H1 2099   1.319   2.897   1.692
  722TIP3    H2 2100   1.348   2.958   1.557
  723TIP3   OH2 2101   1.766   2.877   0.847
  723TIP3    H1 2102   1.681   2.915   0.822
  723TIP3    H2 2103   1.815   2.879   0.764
  724TIP3   OH2 2104   1.915   3.123   1.939
  724TIP3    H1 2105   1.892   3.050   2.001
  724TIP3    H2 2106   2.009   3.136   1.961
  725TIP3   OH2 2107   1.897   2.878   1.095
  725TIP3    H1 2108   1.846   2.908   1.017
  725TIP3    H2 2109   1.933   2.795   1.057
  726TIP3   OH2 2110   1.191   2.906   1.819
  726TIP3    H1 2111   1.207   2.967   1.893
  726TIP3    H2 2112   1.170   2.823   1.864
  727TIP3   OH2 2113   1.905   3.121   1.515
  727TIP3    H1 2114   1.940   3.049   1.456
  727TIP3    H2 2115   1.877   3.067   1.592
  728TIP3   OH2 2116   2.071   2.661   1.389
  728TIP3    H1 2117   2.036   2.672   1.480
  728TIP3    H2 2118   2.009   2.596   1.353
  729TIP3   OH2 2119   2.240   4.346   1.609
  729TIP3    H1 2120   2.237   4.370   1.514
  729TIP3    H2 2121   2.319   4.395   1.638
  730TIP3   OH2 2122   1.197   3.457   2.029
  730TIP3    H1 2123   1.276   3.487   2.079
  730TIP3    H2 2124   1.131   3.455   2.102
  731TIP3   OH2 2125   1.669   2.910   1.283
  731TIP3    H1 2126   1.742   2.873   1.232
  731TIP3    H2 2127   1.677   2.863   1.368
  732TIP3   OH2 2128   1.636   2.805   1.581
  732TIP3    H1 2129   1.547   2.846   1.591
  732TIP3    H2 2130   1.695   2.868   1.628
  733TIP3   OH2 2131   2.272   3.434   1.298
  733TIP3    H1 2132   2.297   3.483   1.216
  733TIP3    H2 2133   2.187   3.392   1.272
  734TIP3   OH2 2134   1.774   3.516   1.666
  734TIP3    H1 2135   1.797   3.496   1.758
  734TIP3    H2 2136   1.733   3.604   1.673
  735TIP3   OH2 2137   1.059   3.213   1.347
  735TIP3    H1 2138   1.108   3.183   1.269
  735TIP3    H2 2139   1.101   3.160   1.418
  736TIP3   OH2 2140   0.955   3.126   1.958
  736TIP3    H1 2141   0.964   3.116   2.055
  736TIP3    H2 2142   0.880   3.066   1.939
  737TIP3   OH2 2143   1.673   3.255   1.979
  737TIP3    H1 2144   1.612   3.196   1.931
  737TIP3    H2 2145   1.760   3.220   1.950
  738TIP3   OH2 2146   1.933   3.777   1.563
  738TIP3    H1 2147   1.837   3.773   1.575
  738TIP3    H2 2148   1.959   3.829   1.642
  739TIP3   OH2 2149   2.349   2.840   0.445
  739TIP3    H1 2150   2.268   2.793   0.422
  739TIP3    H2 2151   2.331   2.930   0.408
  740TIP3   OH2 2152   2.562   3.708   1.550
  740TIP3    H1 2153   2.464   3.700   1.543
  740TIP3    H2 2154   2.588   3.676   1.461
  741TIP3   OH2 2155   2.050   3.665   0.378
  741TIP3    H1 2156   2.014   3.600   0.440
  741TIP3    H2 2157   2.050   3.617   0.293
  742TIP3   OH2 2158   2.039   3.296   1.214
  742TIP3    H1 2159   1.946   3.269   1.228
  742TIP3    H2 2160   2.075   3.216   1.171
  743TIP3   OH2 2161   1.195   3.537   0.978
  743TIP3    H1 2162   1.173   3.625   0.940
  743TIP3    H2 2163   1.106   3.498   0.991
  744TIP3   OH2 2164   1.364   3.311   0.967
  744TIP3    H1 2165   1.322   3.398   0.956
  744TIP3    H2 2166   1.286   3.253   0.974
  745TIP3   OH2 2167   1.437   3.866   1.439
  745TIP3    H1 2168   1.477   3.938   1.386
  745TIP3    H2 2169   1.514   3.832   1.486
  746TIP3   OH2 2170   1.105   3.766   0.856
  746TIP3    H1 2171   1.011   3.775   0.880
  746TIP3    H2 2172   1.126   3.858   0.831
  747TIP3   OH2 2173   1.824   3.501   1.398
  747TIP3    H1 2174   1.815   3.500   1.496
  747TIP3    H2 2175   1.904   3.448   1.386
  748TIP3   OH2 2176   1.814   3.423   0.288
  748TIP3    H1 2177   1.865   3.393   0.366
  748TIP3    H2 2178   1.731   3.375   0.300
  749TIP3   OH2 2179   2.073   4.034   1.449
  749TIP3    H1 2180   1.994   3.978   1.442
  749TIP3    H2 2181   2.057   4.098   1.376
  750TIP3   OH2 2182   2.139   3.876   0.094
  750TIP3    H1 2183   2.190   3.954   0.065
  750TIP3    H2 2184   2.060   3.921   0.131
  751TIP3   OH2 2185   1.155   2.638   1.972
  751TIP3    H1 2186   1.058   2.643   1.985
  751TIP3    H2 2187   1.184   2.592   2.052
  752TIP3   OH2 2188   1.960   3.349   0.517
  752TIP3    H1 2189   1.943   3.270   0.572
  752TIP3    H2 2190   2.053   3.333   0.492
  753TIP3   OH2 2191   0.887   3.731   1.607
  753TIP3    H1 2192   0.935   3.661   1.653
  753TIP3    H2 2193   0.907   3.808   1.661
  754TIP3   OH2 2194   1.995   2.711   1.648
  754TIP3    H1 2195   2.077   2.750   1.684
  754TIP3    H2 2196   1.984   2.630   1.704
  755TIP3   OH2 2197   1.370   3.562   0.480
  755TIP3    H1 2198   1.344   3.585   0.570
  755TIP3    H2 2199   1.388   3.650   0.441
  756TIP3   OH2 2200   1.835   2.957   1.722
  756TIP3    H1 2201   1.857   3.010   1.801
  756TIP3    H2 2202   1.890   2.878   1.733
  757TIP3   OH2 2203   2.476   2.866   1.694
  757TIP3    H1 2204   2.378   2.863   1.704
  757TIP3    H2 2205   2.486   2.808   1.618
  758TIP3   OH2 2206   2.127   3.053   1.093
  758TIP3    H1 2207   2.050   2.994   1.106
  758TIP3    H2 2208   2.198   3.006   1.141
  759TIP3   OH2 2209   2.093   4.011   1.041
  759TIP3    H1 2210   2.050   4.057   0.965
  759TIP3    H2 2211   2.188   4.028   1.019
  760TIP3   OH2 2212   0.866   4.039   2.022
  760TIP3    H1 2213   0.952   4.038   2.068
  760TIP3    H2 2214   0.844   3.944   2.020
  761TIP3   OH2 2215   1.349   4.000   2.066
  761TIP3    H1 2216   1.443   3.976   2.070
  761TIP3    H2 2217   1.319   3.943   1.992
  762TIP3   OH2 2218   1.983   3.911   1.800
  762TIP3    H1 2219   1.976   3.839   1.867
  762TIP3    H2 2220   2.062   3.959   1.829
  763TIP3   OH2 2221   1.772   3.615   0.102
  763TIP3    H1 2222   1.794   3.555   0.176
  763TIP3    H2 2223   1.858   3.626   0.059
  764TIP3   OH2 2224   0.998   3.445   2.222
  764TIP3    H1 2225   1.012   3.349   2.225
  764TIP3    H2 2226   0.908   3.449   2.181
  765TIP3   OH2 2227   1.603   3.531   1.994
  765TIP3    H1 2228   1.560   3.548   1.907
  765TIP3    H2 2229   1.634   3.438   1.985
  766TIP3   OH2 2230   2.096   3.540   1.601
  766TIP3    H1 2231   2.171   3.584   1.556
  766TIP3    H2 2232   2.025   3.605   1.587
  767TIP3   OH2 2233   1.114   3.179   2.206
  767TIP3    H1 2234   1.192   3.127   2.180
  767TIP3    H2 2235   1.141   3.212   2.294
  768TIP3   OH2 2236   1.454   3.065   1.866
  768TIP3    H1 2237   1.374   3.122   1.867
  768TIP3    H2 2238   1.501   3.098   1.786
  769TIP3   OH2 2239   1.967   3.465   1.997
  769TIP3    H1 2240   2.046   3.438   1.949
  769TIP3    H2 2241   1.964   3.399   2.069
  770TIP3   OH2 2242   1.573   2.851   1.990
  770TIP3    H1 2243   1.572   2.772   1.932
  770TIP3    H2 2244   1.530   2.919   1.933
  771TIP3   OH2 2245   1.574   2.635   1.797
  771TIP3    H1 2246   1.600   2.680   1.714
  771TIP3    H2 2247   1.481   2.609   1.777
  772TIP3   OH2 2248   1.602   3.173   1.669
  772TIP3    H1 2249   1.686   3.183   1.624
  772TIP3    H2 2250   1.546   3.240   1.625
  773TIP3   OH2 2251   2.185   3.140   2.051
  773TIP3    H1 2252   2.232   3.056   2.060
  773TIP3    H2 2253   2.255   3.197   2.015
  774TIP3   OH2 2254   2.225   3.394   1.788
  774TIP3    H1 2255   2.168   3.448   1.729
  774TIP3    H2 2256   2.313   3.413   1.749
  775TIP3   OH2 2257   1.453   2.961   2.222
  775TIP3    H1 2258   1.383   2.894   2.236
  775TIP3    H2 2259   1.486   2.937   2.133
  776TIP3   OH2 2260   1.708   2.403   1.867
  776TIP3    H1 2261   1.662   2.487   1.844
  776TIP3    H2 2262   1.638   2.337   1.846
  777TIP3   OH2 2263   1.834   2.905   2.081
  777TIP3    H1 2264   1.821   2.893   2.177
  777TIP3    H2 2265   1.744   2.881   2.050
  778TIP3   OH2 2266   2.073   2.856   1.936
  778TIP3    H1 2267   1.998   2.857   1.998
  778TIP3    H2 2268   2.147   2.826   1.993
  779TIP3   OH2 2269   2.299   2.797   2.087
  779TIP3    H1 2270   2.314   2.701   2.104
  779TIP3    H2 2271   2.298   2.834   2.178
  780TIP3   OH2 2272   1.290   2.743   2.276
  780TIP3    H1 2273   1.296   2.651   2.244
  780TIP3    H2 2274   1.326   2.733   2.366
  781TIP3   OH2 2275   1.800   2.408   2.126
  781TIP3    H1 2276   1.871   2.341   2.116
  781TIP3    H2 2277   1.761   2.405   2.036
  782TIP3   OH2 2278   1.866   2.624   2.284
  782TIP3    H1 2279   1.844   2.554   2.219
  782TIP3    H2 2280   1.789   2.685   2.276
  783TIP3   OH2 2281   0.623   3.753   1.197
  783TIP3    H1 2282   0.616   3.671   1.249
  783TIP3    H2 2283   0.682   3.805   1.255
  784TIP3   OH2 2284   2.349   4.097   0.999
  784TIP3    H1 2285   2.372   4.129   1.088
  784TIP3    H2 2286   2.407   4.150   0.942
  785TIP3   OH2 2287   2.377   4.119   1.280
  785TIP3    H1 2288   2.331   4.032   1.276
  785TIP3    H2 2289   2.449   4.096   1.340
  786TIP3   OH2 2290   2.422   3.798   1.853
  786TIP3    H1 2291   2.350   3.806   1.919
  786TIP3    H2 2292   2.464   3.886   1.859
  787TIP3   OH2 2293   2.243   3.302   0.467
  787TIP3    H1 2294   2.308   3.371   0.444
  787TIP3    H2 2295   2.282   3.266   0.550
  788TIP3   OH2 2296   2.366   3.176   0.678
  788TIP3    H1 2297   2.299   3.135   0.737
  788TIP3    H2 2298   2.429   3.215   0.742
  789TIP3   OH2 2299   2.421   3.571   1.109
  789TIP3    H1 2300   2.476   3.505   1.063
  789TIP3    H2 2301   2.412   3.641   1.042
  790TIP3   OH2 2302   2.251   3.871   1.303
  790TIP3    H1 2303   2.179   3.911   1.355
  790TIP3    H2 2304   2.201   3.822   1.233
  791TIP3   OH2 2305   2.285   3.078   0.310
  791TIP3    H1 2306   2.217   3.098   0.241
  791TIP3    H2 2307   2.268   3.154   0.371
  792TIP3   OH2 2308   2.180   3.035   0.823
  792TIP3    H1 2309   2.172   2.937   0.815
  792TIP3    H2 2310   2.168   3.048   0.919
  793TIP3   OH2 2311   0.814   3.094   1.573
  793TIP3    H1 2312   0.819   3.088   1.477
  793TIP3    H2 2313   0.910   3.097   1.596
  794TIP3   OH2 2314   2.469   3.459   1.681
  794TIP3    H1 2315   2.540   3.392   1.671
  794TIP3    H2 2316   2.496   3.526   1.617
  795TIP3   OH2 2317   2.654   3.264   1.695
  795TIP3    H1 2318   2.580   3.213   1.733
  795TIP3    H2 2319   2.728   3.201   1.713
  796TIP3   OH2 2320   2.168   2.768   0.733
  796TIP3    H1 2321   2.209   2.684   0.766
  796TIP3    H2 2322   2.232   2.792   0.665
  797TIP3   OH2 2323   2.339   2.917   1.213
  797TIP3    H1 2324   2.422   2.947   1.170
  797TIP3    H2 2325   2.353   2.957   1.301
  798TIP3   OH2 2326   2.404   3.066   1.440
  798TIP3    H1 2327   2.329   3.102   1.492
  798TIP3    H2 2328   2.442   3.147   1.400
  799TIP3   OH2 2329   1.024   2.799   2.254
  799TIP3    H1 2330   1.122   2.791   2.253
  799TIP3    H2 2331   1.000   2.715   2.299
  800TIP3   OH2 2332   2.857   2.661   1.999
  800TIP3    H1 2333   2.916   2.596   1.955
  800TIP3    H2 2334   2.829   2.716   1.922
  801TIP3   OH2 2335   2.287   2.541   0.802
  801TIP3    H1 2336   2.338   2.492   0.869
  801TIP3    H2 2337   2.263   2.473   0.736
  802TIP3   OH2 2338   2.730   2.801   1.802
  802TIP3    H1 2339   2.641   2.838   1.819
  802TIP3    H2 2340   2.704   2.723   1.749
  803TIP3   OH2 2341   1.934   3.964   0.657
  803TIP3    H1 2342   1.985   3.953   0.574
  803TIP3    H2 2343   1.984   4.035   0.702
  804TIP3   OH2 2344   1.032   3.770   2.041
  804TIP3    H1 2345   0.939   3.746   2.023
  804TIP3    H2 2346   1.039   3.753   2.136
  805TIP3   OH2 2347   1.212   3.805   1.589
  805TIP3    H1 2348   1.161   3.879   1.551
  805TIP3    H2 2349   1.296   3.820   1.542
  806TIP3   OH2 2350   1.654   4.046   1.726
  806TIP3    H1 2351   1.695   4.048   1.815
  806TIP3    H2 2352   1.719   4.097   1.674
  807TIP3   OH2 2353   1.832   4.199   1.587
  807TIP3    H1 2354   1.902   4.149   1.543
  807TIP3    H2 2355   1.885   4.257   1.646
  808TIP3   OH2 2356   2.625   2.564   1.700
  808TIP3    H1 2357   2.556   2.570   1.633
  808TIP3    H2 2358   2.668   2.479   1.674
  809TIP3   OH2 2359   0.888   4.055   1.620
  809TIP3    H1 2360   0.800   4.086   1.588
  809TIP3    H2 2361   0.896   4.107   1.700
  810TIP3   OH2 2362   1.122   4.040   1.471
  810TIP3    H1 2363   1.036   4.052   1.517
  810TIP3    H2 2364   1.101   4.073   1.381
  811TIP3   OH2 2365   1.547   4.065   1.268
  811TIP3    H1 2366   1.477   4.085   1.203
  811TIP3    H2 2367   1.559   4.153   1.310
  812TIP3   OH2 2368   1.816   4.007   1.320
  812TIP3    H1 2369   1.721   4.023   1.301
  812TIP3    H2 2370   1.857   4.083   1.276
  813TIP3   OH2 2371   2.026   4.199   1.234
  813TIP3    H1 2372   2.010   4.284   1.187
  813TIP3    H2 2373   2.050   4.139   1.160
  814TIP3   OH2 2374   0.811   3.867   1.366
  814TIP3    H1 2375   0.836   3.839   1.457
  814TIP3    H2 2376   0.879   3.818   1.314
  815TIP3   OH2 2377   0.988   3.725   1.216
  815TIP3    H1 2378   1.007   3.641   1.264
  815TIP3    H2 2379   1.077   3.763   1.206
  816TIP3   OH2 2380   1.257   3.823   1.215
  816TIP3    H1 2381   1.288   3.733   1.197
  816TIP3    H2 2382   1.301   3.840   1.300
  817TIP3   OH2 2383   1.828   2.481   1.298
  817TIP3    H1 2384   1.788   2.415   1.358
  817TIP3    H2 2385   1.906   2.434   1.264
  818TIP3   OH2 2386   2.360   2.328   1.194
  818TIP3    H1 2387   2.419   2.395   1.156
  818TIP3    H2 2388   2.284   2.380   1.224
  819TIP3   OH2 2389   2.488   2.444   0.965
  819TIP3    H1 2390   2.581   2.427   0.985
  819TIP3    H2 2391   2.489   2.542   0.967
  820TIP3   OH2 2392   2.083   2.386   1.228
  820TIP3    H1 2393   2.057   2.394   1.135
  820TIP3    H2 2394   2.068   2.291   1.243
  821TIP3   OH2 2395   1.365   3.819   0.346
  821TIP3    H1 2396   1.449   3.824   0.296
  821TIP3    H2 2397   1.303   3.787   0.278
  822TIP3   OH2 2398   2.081   3.933   0.421
  822TIP3    H1 2399   2.072   3.835   0.409
  822TIP3    H2 2400   2.031   3.966   0.344
  823TIP3   OH2 2401   1.284   2.468   2.214
  823TIP3    H1 2402   1.254   2.397   2.274
  823TIP3    H2 2403   1.380   2.468   2.236
  824TIP3   OH2 2404   1.537   2.464   2.328
  824TIP3    H1 2405   1.622   2.441   2.288
  824TIP3    H2 2406   1.526   2.393   2.394
  825TIP3   OH2 2407   2.362   2.526   2.117
  825TIP3    H1 2408   2.383   2.495   2.207
  825TIP3    H2 2409   2.449   2.521   2.072
  826TIP3   OH2 2410   2.301   4.077   1.610
  826TIP3    H1 2411   2.222   4.045   1.561
  826TIP3    H2 2412   2.281   4.172   1.614
  827TIP3   OH2 2413   3.573   3.449   0.373
  827TIP3    H1 2414   3.542   3.540   0.354
  827TIP3    H2 2415   3.494   3.398   0.349
  828TIP3   OH2 2416   3.563   3.449   0.762
  828TIP3    H1 2417   3.601   3.425   0.849
  828TIP3    H2 2418   3.525   3.364   0.734
  829TIP3   OH2 2419   2.866   3.343   1.121
  829TIP3    H1 2420   2.894   3.273   1.184
  829TIP3    H2 2421   2.944   3.401   1.124
  830TIP3   OH2 2422   3.811   3.755   0.440
  830TIP3    H1 2423   3.799   3.685   0.504
  830TIP3    H2 2424   3.842   3.829   0.495
  831TIP3   OH2 2425   2.838   3.754   0.842
  831TIP3    H1 2426   2.826   3.656   0.844
  831TIP3    H2 2427   2.933   3.760   0.859
  832TIP3   OH2 2428   2.550   2.970   0.630
  832TIP3    H1 2429   2.495   3.050   0.644
  832TIP3    H2 2430   2.481   2.903   0.620
  833TIP3   OH2 2431   2.605   3.244   0.807
  833TIP3    H1 2432   2.653   3.166   0.844
  833TIP3    H2 2433   2.666   3.273   0.738
  834TIP3   OH2 2434   3.442   4.205   0.449
  834TIP3    H1 2435   3.497   4.137   0.404
  834TIP3    H2 2436   3.452   4.178   0.542
  835TIP3   OH2 2437   3.367   3.677   0.803
  835TIP3    H1 2438   3.406   3.597   0.765
  835TIP3    H2 2439   3.451   3.722   0.828
  836TIP3   OH2 2440   4.385   2.997   0.803
  836TIP3    H1 2441   4.410   3.080   0.847
  836TIP3    H2 2442   4.398   3.019   0.710
  837TIP3   OH2 2443   3.781   3.179   0.835
  837TIP3    H1 2444   3.822   3.094   0.859
  837TIP3    H2 2445   3.749   3.159   0.745
  838TIP3   OH2 2446   3.114   2.840   0.804
  838TIP3    H1 2447   3.095   2.912   0.741
  838TIP3    H2 2448   3.059   2.768   0.766
  839TIP3   OH2 2449   3.809   2.927   0.424
  839TIP3    H1 2450   3.878   2.908   0.493
  839TIP3    H2 2451   3.866   2.959   0.352
  840TIP3   OH2 2452   2.753   3.037   0.909
  840TIP3    H1 2453   2.834   3.017   0.959
  840TIP3    H2 2454   2.766   2.977   0.832
  841TIP3   OH2 2455   3.193   3.237   0.701
  841TIP3    H1 2456   3.286   3.211   0.717
  841TIP3    H2 2457   3.153   3.152   0.673
  842TIP3   OH2 2458   4.456   3.209   0.969
  842TIP3    H1 2459   4.369   3.250   0.953
  842TIP3    H2 2460   4.461   3.215   1.065
  843TIP3   OH2 2461   3.112   2.818   1.236
  843TIP3    H1 2462   3.051   2.856   1.171
  843TIP3    H2 2463   3.060   2.833   1.318
  844TIP3   OH2 2464   3.464   3.667   0.242
  844TIP3    H1 2465   3.416   3.646   0.162
  844TIP3    H2 2466   3.419   3.751   0.269
  845TIP3   OH2 2467   3.220   3.596   1.030
  845TIP3    H1 2468   3.157   3.661   1.069
  845TIP3    H2 2469   3.264   3.648   0.961
  846TIP3   OH2 2470   4.018   2.925   0.597
  846TIP3    H1 2471   4.048   2.848   0.647
  846TIP3    H2 2472   4.069   2.998   0.636
  847TIP3   OH2 2473   2.986   2.941   1.024
  847TIP3    H1 2474   3.051   3.011   1.047
  847TIP3    H2 2475   3.035   2.897   0.950
  848TIP3   OH2 2476   3.046   3.790   1.126
  848TIP3    H1 2477   3.021   3.879   1.095
  848TIP3    H2 2478   2.969   3.771   1.184
  849TIP3   OH2 2479   2.445   3.480   0.370
  849TIP3    H1 2480   2.401   3.503   0.286
  849TIP3    H2 2481   2.473   3.567   0.403
  850TIP3   OH2 2482   3.879   3.993   0.603
  850TIP3    H1 2483   3.789   3.986   0.643
  850TIP3    H2 2484   3.874   4.081   0.562
  851TIP3   OH2 2485   4.174   2.905   0.974
  851TIP3    H1 2486   4.084   2.919   0.939
  851TIP3    H2 2487   4.230   2.923   0.897
  852TIP3   OH2 2488   3.463   2.539   0.943
  852TIP3    H1 2489   3.458   2.445   0.969
  852TIP3    H2 2490   3.389   2.576   0.995
  853TIP3   OH2 2491   3.583   4.041   0.278
  853TIP3    H1 2492   3.633   3.959   0.258
  853TIP3    H2 2493   3.648   4.107   0.243
  854TIP3   OH2 2494   3.725   3.825   0.187
  854TIP3    H1 2495   3.683   3.744   0.156
  854TIP3    H2 2496   3.764   3.795   0.272
  855TIP3   OH2 2497   4.107   3.907   0.949
  855TIP3    H1 2498   4.095   3.830   0.890
  855TIP3    H2 2499   4.090   3.982   0.888
  856TIP3   OH2 2500   3.398   3.299   0.206
  856TIP3    H1 2501   3.319   3.352   0.183
  856TIP3    H2 2502   3.446   3.296   0.122
  857TIP3   OH2 2503   3.351   3.075  -0.063
  857TIP3    H1 2504   3.423   3.133  -0.033
  857TIP3    H2 2505   3.399   2.993  -0.081
  858TIP3   OH2 2506   4.303   3.547   0.794
  858TIP3    H1 2507   4.219   3.597   0.801
  858TIP3    H2 2508   4.331   3.571   0.703
  859TIP3   OH2 2509   3.747   3.382   0.176
  859TIP3    H1 2510   3.692   3.406   0.254
  859TIP3    H2 2511   3.830   3.354   0.220
  860TIP3   OH2 2512   3.982   3.423   1.091
  860TIP3    H1 2513   3.979   3.505   1.145
  860TIP3    H2 2514   3.895   3.428   1.046
  861TIP3   OH2 2515   2.982   3.380   0.592
  861TIP3    H1 2516   2.943   3.320   0.525
  861TIP3    H2 2517   3.058   3.327   0.625
  862TIP3   OH2 2518   3.121   3.804   0.732
  862TIP3    H1 2519   3.092   3.736   0.669
  862TIP3    H2 2520   3.208   3.769   0.758
  863TIP3   OH2 2521   3.115   3.353   0.948
  863TIP3    H1 2522   3.152   3.331   0.859
  863TIP3    H2 2523   3.160   3.438   0.968
  864TIP3   OH2 2524   3.637   3.990   0.724
  864TIP3    H1 2525   3.628   4.069   0.780
  864TIP3    H2 2526   3.626   3.917   0.788
  865TIP3   OH2 2527   3.253   3.910   1.271
  865TIP3    H1 2528   3.194   3.971   1.320
  865TIP3    H2 2529   3.187   3.856   1.224
  866TIP3   OH2 2530   3.583   3.244   0.001
  866TIP3    H1 2531   3.644   3.299   0.055
  866TIP3    H2 2532   3.612   3.268  -0.090
  867TIP3   OH2 2533   3.006   3.468   1.371
  867TIP3    H1 2534   3.011   3.553   1.419
  867TIP3    H2 2535   2.912   3.445   1.387
  868TIP3   OH2 2536   3.341   3.910   0.281
  868TIP3    H1 2537   3.422   3.963   0.297
  868TIP3    H2 2538   3.272   3.976   0.276
  869TIP3   OH2 2539   3.047   4.076   1.361
  869TIP3    H1 2540   3.010   4.074   1.271
  869TIP3    H2 2541   2.967   4.056   1.416
  870TIP3   OH2 2542   4.102   2.484   0.048
  870TIP3    H1 2543   4.021   2.499   0.101
  870TIP3    H2 2544   4.110   2.568  -0.001
  871TIP3   OH2 2545   2.851   3.222   0.386
  871TIP3    H1 2546   2.778   3.267   0.340
  871TIP3    H2 2547   2.806   3.144   0.421
  872TIP3   OH2 2548   2.627   3.608   1.307
  872TIP3    H1 2549   2.560   3.585   1.240
  872TIP3    H2 2550   2.663   3.521   1.332
  873TIP3   OH2 2551   2.479   3.803   0.935
  873TIP3    H1 2552   2.576   3.798   0.935
  873TIP3    H2 2553   2.464   3.880   0.992
  874TIP3   OH2 2554   4.345   4.251   0.998
  874TIP3    H1 2555   4.343   4.155   1.015
  874TIP3    H2 2556   4.262   4.279   1.043
  875TIP3   OH2 2557   3.447   4.041   1.127
  875TIP3    H1 2558   3.448   4.132   1.163
  875TIP3    H2 2559   3.379   3.999   1.184
  876TIP3   OH2 2560   2.647   4.018   0.466
  876TIP3    H1 2561   2.697   4.007   0.549
  876TIP3    H2 2562   2.596   3.934   0.464
  877TIP3   OH2 2563   3.430   4.030  -0.235
  877TIP3    H1 2564   3.519   3.995  -0.245
  877TIP3    H2 2565   3.436   4.068  -0.145
  878TIP3   OH2 2566   3.453   4.117   0.021
  878TIP3    H1 2567   3.379   4.074   0.066
  878TIP3    H2 2568   3.526   4.098   0.083
  879TIP3   OH2 2569   4.236   3.384   1.269
  879TIP3    H1 2570   4.152   3.393   1.222
  879TIP3    H2 2571   4.252   3.288   1.260
  880TIP3   OH2 2572   2.832   3.791   1.294
  880TIP3    H1 2573   2.881   3.775   1.377
  880TIP3    H2 2574   2.758   3.727   1.302
  881TIP3   OH2 2575   3.232   2.614   1.080
  881TIP3    H1 2576   3.147   2.572   1.050
  881TIP3    H2 2577   3.196   2.691   1.128
  882TIP3   OH2 2578   3.765   2.730   1.276
  882TIP3    H1 2579   3.834   2.702   1.339
  882TIP3    H2 2580   3.682   2.709   1.324
  883TIP3   OH2 2581   4.004   3.161   1.196
  883TIP3    H1 2582   3.954   3.155   1.280
  883TIP3    H2 2583   3.976   3.247   1.160
  884TIP3   OH2 2584   3.665   3.304  -0.254
  884TIP3    H1 2585   3.673   3.256  -0.337
  884TIP3    H2 2586   3.715   3.385  -0.271
  885TIP3   OH2 2587   3.384   2.687   0.055
  885TIP3    H1 2588   3.353   2.676   0.147
  885TIP3    H2 2589   3.375   2.597   0.021
  886TIP3   OH2 2590   3.167   3.134   1.101
  886TIP3    H1 2591   3.115   3.151   1.182
  886TIP3    H2 2592   3.147   3.215   1.049
  887TIP3   OH2 2593   3.043   3.020   0.613
  887TIP3    H1 2594   2.952   2.990   0.633
  887TIP3    H2 2595   3.057   2.977   0.526
  888TIP3   OH2 2596   3.536   3.101   0.342
  888TIP3    H1 2597   3.484   3.171   0.297
  888TIP3    H2 2598   3.592   3.067   0.269
  889TIP3   OH2 2599   3.711   3.380   1.426
  889TIP3    H1 2600   3.688   3.306   1.488
  889TIP3    H2 2601   3.805   3.393   1.449
  890TIP3   OH2 2602   3.694   3.129   0.578
  890TIP3    H1 2603   3.631   3.153   0.506
  890TIP3    H2 2604   3.730   3.047   0.539
  891TIP3   OH2 2605   2.980   3.158   1.306
  891TIP3    H1 2606   3.008   3.217   1.378
  891TIP3    H2 2607   2.964   3.074   1.354
  892TIP3   OH2 2608   3.024   2.612   0.024
  892TIP3    H1 2609   3.041   2.618   0.120
  892TIP3    H2 2610   2.951   2.674   0.015
  893TIP3   OH2 2611   2.576   2.687   0.867
  893TIP3    H1 2612   2.642   2.720   0.933
  893TIP3    H2 2613   2.636   2.647   0.803
  894TIP3   OH2 2614   2.606   2.723   0.449
  894TIP3    H1 2615   2.644   2.741   0.362
  894TIP3    H2 2616   2.525   2.777   0.447
  895TIP3   OH2 2617   3.702   3.377   0.999
  895TIP3    H1 2618   3.736   3.305   0.941
  895TIP3    H2 2619   3.675   3.324   1.077
  896TIP3   OH2 2620   3.371   2.844   0.675
  896TIP3    H1 2621   3.292   2.838   0.732
  896TIP3    H2 2622   3.443   2.834   0.738
  897TIP3   OH2 2623   2.809   2.894   0.674
  897TIP3    H1 2624   2.715   2.907   0.648
  897TIP3    H2 2625   2.824   2.800   0.654
  898TIP3   OH2 2626   3.078   2.888   0.377
  898TIP3    H1 2627   3.173   2.905   0.363
  898TIP3    H2 2628   3.036   2.911   0.291
  899TIP3   OH2 2629   3.860   2.920   0.882
  899TIP3    H1 2630   3.824   2.927   0.973
  899TIP3    H2 2631   3.804   2.852   0.843
  900TIP3   OH2 2632   2.922   2.910   0.152
  900TIP3    H1 2633   2.826   2.899   0.142
  900TIP3    H2 2634   2.951   2.958   0.073
  901TIP3   OH2 2635   4.036   4.603   1.096
  901TIP3    H1 2636   4.036   4.628   1.001
  901TIP3    H2 2637   4.117   4.649   1.127
  902TIP3   OH2 2638   2.992   3.715   1.515
  902TIP3    H1 2639   3.072   3.743   1.565
  902TIP3    H2 2640   2.928   3.711   1.589
  903TIP3   OH2 2641   3.456   3.169   0.772
  903TIP3    H1 2642   3.529   3.126   0.725
  903TIP3    H2 2643   3.460   3.127   0.861
  904TIP3   OH2 2644   2.987   2.650   0.649
  904TIP3    H1 2645   3.014   2.569   0.695
  904TIP3    H2 2646   3.042   2.647   0.569
  905TIP3   OH2 2647   3.434   3.069   1.054
  905TIP3    H1 2648   3.344   3.101   1.075
  905TIP3    H2 2649   3.491   3.124   1.110
  906TIP3   OH2 2650   3.170   3.456   0.152
  906TIP3    H1 2651   3.097   3.391   0.143
  906TIP3    H2 2652   3.155   3.488   0.244
  907TIP3   OH2 2653   4.070   3.690   0.783
  907TIP3    H1 2654   4.093   3.740   0.702
  907TIP3    H2 2655   3.984   3.649   0.759
  908TIP3   OH2 2656   3.640   2.772  -0.001
  908TIP3    H1 2657   3.546   2.748   0.014
  908TIP3    H2 2658   3.646   2.862   0.035
  909TIP3   OH2 2659   3.568   3.772   1.153
  909TIP3    H1 2660   3.596   3.748   1.242
  909TIP3    H2 2661   3.530   3.860   1.165
  910TIP3   OH2 2662   3.695   3.013   0.123
  910TIP3    H1 2663   3.791   3.013   0.142
  910TIP3    H2 2664   3.684   3.092   0.068
  911TIP3   OH2 2665   2.864   3.479   0.830
  911TIP3    H1 2666   2.904   3.445   0.748
  911TIP3    H2 2667   2.900   3.417   0.897
  912TIP3   OH2 2668   3.310   3.608  -0.031
  912TIP3    H1 2669   3.267   3.696  -0.016
  912TIP3    H2 2670   3.259   3.552   0.032
  913TIP3   OH2 2671   2.743   3.396   1.445
  913TIP3    H1 2672   2.762   3.380   1.540
  913TIP3    H2 2673   2.675   3.329   1.428
  914TIP3   OH2 2674   3.469   3.512   1.464
  914TIP3    H1 2675   3.408   3.450   1.420
  914TIP3    H2 2676   3.556   3.477   1.437
  915TIP3   OH2 2677   3.727   4.034   1.047
  915TIP3    H1 2678   3.631   4.032   1.062
  915TIP3    H2 2679   3.757   4.084   1.126
  916TIP3   OH2 2680   4.134   3.102  -0.045
  916TIP3    H1 2681   4.072   3.058  -0.108
  916TIP3    H2 2682   4.131   3.192  -0.083
  917TIP3   OH2 2683   4.357   3.959   1.040
  917TIP3    H1 2684   4.259   3.955   1.032
  917TIP3    H2 2685   4.383   3.932   0.949
  918TIP3   OH2 2686   3.860   3.916  -0.144
  918TIP3    H1 2687   3.830   3.862  -0.069
  918TIP3    H2 2688   3.818   3.873  -0.220
  919TIP3   OH2 2689   3.835   3.554   0.698
  919TIP3    H1 2690   3.742   3.527   0.715
  919TIP3    H2 2691   3.869   3.472   0.657
  920TIP3   OH2 2692   2.952   3.768   0.449
  920TIP3    H1 2693   2.964   3.862   0.439
  920TIP3    H2 2694   2.858   3.760   0.473
  921TIP3   OH2 2695   2.530   3.082   0.173
  921TIP3    H1 2696   2.571   3.170   0.189
  921TIP3    H2 2697   2.445   3.092   0.221
  922TIP3   OH2 2698   3.102   3.543   0.397
  922TIP3    H1 2699   3.057   3.629   0.414
  922TIP3    H2 2700   3.069   3.491   0.473
  923TIP3   OH2 2701   3.234   4.123   0.926
  923TIP3    H1 2702   3.280   4.195   0.879
  923TIP3    H2 2703   3.307   4.085   0.978
  924TIP3   OH2 2704   3.620   3.760   0.884
  924TIP3    H1 2705   3.608   3.759   0.982
  924TIP3    H2 2706   3.700   3.706   0.875
  925TIP3   OH2 2707   3.577   3.620  -0.229
  925TIP3    H1 2708   3.642   3.611  -0.156
  925TIP3    H2 2709   3.494   3.625  -0.179
  926TIP3   OH2 2710   3.869   4.290   0.935
  926TIP3    H1 2711   3.791   4.232   0.930
  926TIP3    H2 2712   3.851   4.354   0.863
  927TIP3   OH2 2713   2.950   2.906   1.449
  927TIP3    H1 2714   2.852   2.911   1.458
  927TIP3    H2 2715   2.972   2.847   1.523
  928TIP3   OH2 2716   3.753   3.581  -0.019
  928TIP3    H1 2717   3.744   3.516   0.054
  928TIP3    H2 2718   3.851   3.583  -0.027
  929TIP3   OH2 2719   2.674   3.985   1.083
  929TIP3    H1 2720   2.723   3.911   1.123
  929TIP3    H2 2721   2.694   4.056   1.145
  930TIP3   OH2 2722   2.966   3.641  -0.227
  930TIP3    H1 2723   2.972   3.553  -0.265
  930TIP3    H2 2724   2.935   3.625  -0.136
  931TIP3   OH2 2725   2.906   3.637   0.045
  931TIP3    H1 2726   2.974   3.608   0.107
  931TIP3    H2 2727   2.915   3.735   0.050
  932TIP3   OH2 2728   2.640   3.331   0.244
  932TIP3    H1 2729   2.575   3.376   0.302
  932TIP3    H2 2730   2.652   3.401   0.176
  933TIP3   OH2 2731   3.787   2.969   1.142
  933TIP3    H1 2732   3.872   3.003   1.176
  933TIP3    H2 2733   3.776   2.886   1.193
  934TIP3   OH2 2734   3.661   2.724   0.296
  934TIP3    H1 2735   3.665   2.746   0.202
  934TIP3    H2 2736   3.709   2.798   0.338
  935TIP3   OH2 2737   3.179   3.845  -0.006
  935TIP3    H1 2738   3.090   3.872   0.024
  935TIP3    H2 2739   3.182   3.888  -0.093
  936TIP3   OH2 2740   3.354   2.900   0.403
  936TIP3    H1 2741   3.423   2.967   0.386
  936TIP3    H2 2742   3.364   2.887   0.500
  937TIP3   OH2 2743   3.632   3.215   1.208
  937TIP3    H1 2744   3.654   3.266   1.289
  937TIP3    H2 2745   3.684   3.134   1.219
  938TIP3   OH2 2746   3.502   2.622   0.501
  938TIP3    H1 2747   3.515   2.687   0.572
  938TIP3    H2 2748   3.567   2.656   0.434
  939TIP3   OH2 2749   2.914   3.912   0.058
  939TIP3    H1 2750   2.899   3.975  -0.017
  939TIP3    H2 2751   2.856   3.950   0.124
  940TIP3   OH2 2752   3.028   2.628   0.303
  940TIP3    H1 2753   3.026   2.721   0.335
  940TIP3    H2 2754   3.125   2.612   0.310
  941TIP3   OH2 2755   4.269   3.114   1.180
  941TIP3    H1 2756   4.172   3.119   1.195
  941TIP3    H2 2757   4.269   3.055   1.103
  942TIP3   OH2 2758   3.921   3.310   0.577
  942TIP3    H1 2759   3.845   3.250   0.591
  942TIP3    H2 2760   3.992   3.262   0.626
  943TIP3   OH2 2761   2.633   3.543   0.052
  943TIP3    H1 2762   2.705   3.607   0.062
  943TIP3    H2 2763   2.676   3.482  -0.012
  944TIP3   OH2 2764   2.627   2.832   0.150
  944TIP3    H1 2765   2.594   2.924   0.159
  944TIP3    H2 2766   2.544   2.784   0.132
  945TIP3   OH2 2767   3.890   4.263   0.527
  945TIP3    H1 2768   3.847   4.312   0.454
  945TIP3    H2 2769   3.984   4.284   0.509
  946TIP3   OH2 2770   2.983   2.503   1.031
  946TIP3    H1 2771   2.908   2.564   1.032
  946TIP3    H2 2772   2.960   2.445   1.108
  947TIP3   OH2 2773   2.505   3.757   0.434
  947TIP3    H1 2774   2.441   3.784   0.502
  947TIP3    H2 2775   2.468   3.798   0.353
  948TIP3   OH2 2776   2.662   4.297   1.507
  948TIP3    H1 2777   2.748   4.297   1.554
  948TIP3    H2 2778   2.642   4.202   1.506
  949TIP3   OH2 2779   3.141   4.260   1.550
  949TIP3    H1 2780   3.235   4.239   1.561
  949TIP3    H2 2781   3.118   4.198   1.478
  950TIP3   OH2 2782   3.143   3.829  -0.306
  950TIP3    H1 2783   3.063   3.776  -0.282
  950TIP3    H2 2784   3.204   3.756  -0.325
  951TIP3   OH2 2785   3.783   4.164   1.283
  951TIP3    H1 2786   3.774   4.095   1.352
  951TIP3    H2 2787   3.860   4.215   1.314
  952TIP3   OH2 2788   2.792   3.702   1.707
  952TIP3    H1 2789   2.809   3.606   1.713
  952TIP3    H2 2790   2.704   3.703   1.663
  953TIP3   OH2 2791   2.783   3.362  -0.082
  953TIP3    H1 2792   2.846   3.327  -0.016
  953TIP3    H2 2793   2.818   3.333  -0.166
  954TIP3   OH2 2794   3.399   3.787   1.481
  954TIP3    H1 2795   3.359   3.801   1.393
  954TIP3    H2 2796   3.432   3.694   1.474
  955TIP3   OH2 2797   3.258   3.540  -0.292
  955TIP3    H1 2798   3.272   3.574  -0.202
  955TIP3    H2 2799   3.281   3.447  -0.280
  956TIP3   OH2 2800   3.891   3.796   1.085
  956TIP3    H1 2801   3.967   3.841   1.043
  956TIP3    H2 2802   3.821   3.863   1.073
  957TIP3   OH2 2803   2.912   3.439   1.688
  957TIP3    H1 2804   2.983   3.377   1.668
  957TIP3    H2 2805   2.938   3.469   1.778
  958TIP3   OH2 2806   2.974   3.257   0.119
  958TIP3    H1 2807   2.947   3.227   0.208
  958TIP3    H2 2808   3.011   3.176   0.079
  959TIP3   OH2 2809   3.246   3.322   1.353
  959TIP3    H1 2810   3.168   3.381   1.353
  959TIP3    H2 2811   3.295   3.354   1.274
  960TIP3   OH2 2812   3.075   3.046  -0.043
  960TIP3    H1 2813   3.078   3.004  -0.129
  960TIP3    H2 2814   3.172   3.064  -0.031
  961TIP3   OH2 2815   3.763   3.721   1.483
  961TIP3    H1 2816   3.845   3.696   1.440
  961TIP3    H2 2817   3.758   3.657   1.556
  962TIP3   OH2 2818   3.370   3.109   1.477
  962TIP3    H1 2819   3.369   3.029   1.421
  962TIP3    H2 2820   3.325   3.175   1.419
  963TIP3   OH2 2821   3.371   2.897   1.283
  963TIP3    H1 2822   3.399   2.933   1.197
  963TIP3    H2 2823   3.278   2.871   1.265
  964TIP3   OH2 2824   3.397   3.428   1.156
  964TIP3    H1 2825   3.482   3.436   1.112
  964TIP3    H2 2826   3.343   3.496   1.111
  965TIP3   OH2 2827   3.979   3.397   1.537
  965TIP3    H1 2828   4.024   3.313   1.554
  965TIP3    H2 2829   4.051   3.452   1.505
  966TIP3   OH2 2830   4.021   3.649   1.272
  966TIP3    H1 2831   3.963   3.704   1.214
  966TIP3    H2 2832   4.109   3.670   1.233
  967TIP3   OH2 2833   3.247   3.219   1.707
  967TIP3    H1 2834   3.180   3.150   1.723
  967TIP3    H2 2835   3.283   3.193   1.620
  968TIP3   OH2 2836   3.504   2.660   1.353
  968TIP3    H1 2837   3.454   2.741   1.330
  968TIP3    H2 2838   3.435   2.591   1.341
  969TIP3   OH2 2839   3.630   3.163   1.568
  969TIP3    H1 2840   3.619   3.149   1.664
  969TIP3    H2 2841   3.540   3.137   1.538
  970TIP3   OH2 2842   3.869   3.112   1.423
  970TIP3    H1 2843   3.793   3.112   1.485
  970TIP3    H2 2844   3.942   3.080   1.480
  971TIP3   OH2 2845   4.099   3.052   1.573
  971TIP3    H1 2846   4.112   2.956   1.592
  971TIP3    H2 2847   4.093   3.091   1.662
  972TIP3   OH2 2848   3.090   2.999   1.761
  972TIP3    H1 2849   3.091   2.907   1.727
  972TIP3    H2 2850   3.125   2.984   1.851
  973TIP3   OH2 2851   3.597   2.667   1.611
  973TIP3    H1 2852   3.665   2.597   1.605
  973TIP3    H2 2853   3.558   2.662   1.522
  974TIP3   OH2 2854   3.664   2.883   1.768
  974TIP3    H1 2855   3.642   2.811   1.705
  974TIP3    H2 2856   3.586   2.941   1.762
  975TIP3   OH2 2857   2.881   4.106  -0.127
  975TIP3    H1 2858   2.974   4.116  -0.158
  975TIP3    H2 2859   2.831   4.149  -0.198
  976TIP3   OH2 2860   2.363   3.497   0.100
  976TIP3    H1 2861   2.454   3.527   0.076
  976TIP3    H2 2862   2.357   3.413   0.053
  977TIP3   OH2 2863   2.283   4.104   0.498
  977TIP3    H1 2864   2.214   4.044   0.463
  977TIP3    H2 2865   2.326   4.046   0.564
  978TIP3   OH2 2866   2.415   3.953   0.686
  978TIP3    H1 2867   2.402   3.883   0.752
  978TIP3    H2 2868   2.466   4.017   0.740
  979TIP3   OH2 2869   4.141   4.358   0.484
  979TIP3    H1 2870   4.167   4.391   0.571
  979TIP3    H2 2871   4.207   4.399   0.426
  980TIP3   OH2 2872   4.169   4.377   0.767
  980TIP3    H1 2873   4.130   4.288   0.766
  980TIP3    H2 2874   4.248   4.360   0.821
  981TIP3   OH2 2875   4.217   4.054   1.339
  981TIP3    H1 2876   4.146   4.062   1.405
  981TIP3    H2 2877   4.260   4.142   1.345
  982TIP3   OH2 2878   4.030   3.562  -0.035
  982TIP3    H1 2879   4.099   3.627  -0.059
  982TIP3    H2 2880   4.071   3.521   0.045
  983TIP3   OH2 2881   4.162   3.432   0.165
  983TIP3    H1 2882   4.096   3.389   0.225
  983TIP3    H2 2883   4.226   3.470   0.229
  984TIP3   OH2 2884   4.218   3.827   0.594
  984TIP3    H1 2885   4.272   3.764   0.543
  984TIP3    H2 2886   4.211   3.903   0.533
  985TIP3   OH2 2887   4.047   4.125   0.789
  985TIP3    H1 2888   3.977   4.168   0.843
  985TIP3    H2 2889   3.994   4.078   0.721
  986TIP3   OH2 2890   4.094   3.345  -0.189
  986TIP3    H1 2891   4.018   3.337  -0.250
  986TIP3    H2 2892   4.066   3.422  -0.135
  987TIP3   OH2 2893   3.971   3.025  -0.251
  987TIP3    H1 2894   3.965   3.041  -0.347
  987TIP3    H2 2895   3.941   2.931  -0.246
  988TIP3   OH2 2896   3.975   3.289   0.309
  988TIP3    H1 2897   3.982   3.192   0.304
  988TIP3    H2 2898   3.960   3.303   0.405
  989TIP3   OH2 2899   2.601   3.369   1.056
  989TIP3    H1 2900   2.599   3.333   0.965
  989TIP3    H2 2901   2.698   3.367   1.073
  990TIP3   OH2 2902   4.265   3.715   1.166
  990TIP3    H1 2903   4.337   3.649   1.157
  990TIP3    H2 2904   4.295   3.787   1.109
  991TIP3   OH2 2905   4.451   3.519   1.175
  991TIP3    H1 2906   4.376   3.470   1.216
  991TIP3    H2 2907   4.524   3.457   1.193
  992TIP3   OH2 2908   3.913   2.759  -0.230
  992TIP3    H1 2909   4.000   2.724  -0.201
  992TIP3    H2 2910   3.851   2.708  -0.176
  993TIP3   OH2 2911   3.971   3.004   0.202
  993TIP3    H1 2912   4.011   2.915   0.220
  993TIP3    H2 2913   4.031   3.035   0.132
  994TIP3   OH2 2914   4.134   3.183   0.698
  994TIP3    H1 2915   4.221   3.207   0.660
  994TIP3    H2 2916   4.146   3.216   0.789
  995TIP3   OH2 2917   4.203   3.325   0.930
  995TIP3    H1 2918   4.126   3.356   0.982
  995TIP3    H2 2919   4.234   3.408   0.888
  996TIP3   OH2 2920   2.825   3.061   1.753
  996TIP3    H1 2921   2.922   3.047   1.743
  996TIP3    H2 2922   2.797   2.970   1.777
  997TIP3   OH2 2923   4.650   2.917   1.484
  997TIP3    H1 2924   4.712   2.853   1.444
  997TIP3    H2 2925   4.625   2.973   1.408
  998TIP3   OH2 2926   4.080   2.755   0.243
  998TIP3    H1 2927   4.126   2.739   0.328
  998TIP3    H2 2928   4.020   2.678   0.241
  999TIP3   OH2 2929   2.797   2.724   1.019
  999TIP3    H1 2930   2.771   2.684   1.104
  999TIP3    H2 2931   2.850   2.801   1.049
 1000TIP3   OH2 2932   2.571   3.031   1.122
 1000TIP3    H1 2933   2.628   3.020   1.044
 1000TIP3    H2 2934   2.618   3.099   1.171
 1001TIP3   OH2 2935   4.526   3.058   1.287
 1001TIP3    H1 2936   4.441   3.096   1.317
 1001TIP3    H2 2937   4.493   2.983   1.233
 1002TIP3   OH2 2938   4.169   2.693  -0.142
 1002TIP3    H1 2939   4.223   2.633  -0.196
 1002TIP3    H2 2940   4.230   2.769  -0.133
 1003TIP3   OH2 2941   2.557   2.507   0.612
 1003TIP3    H1 2942   2.486   2.538   0.669
 1003TIP3    H2 2943   2.583   2.588   0.564
 1004TIP3   OH2 2944   3.728   4.221   0.142
 1004TIP3    H1 2945   3.773   4.213   0.055
 1004TIP3    H2 2946   3.777   4.294   0.182
 1005TIP3   OH2 2947   2.826   4.029   1.526
 1005TIP3    H1 2948   2.734   4.002   1.511
 1005TIP3    H2 2949   2.839   4.007   1.619
 1006TIP3   OH2 2950   3.006   4.059   1.074
 1006TIP3    H1 2951   2.957   4.135   1.036
 1006TIP3    H2 2952   3.092   4.075   1.030
 1007TIP3   OH2 2953   3.449   4.306   1.211
 1007TIP3    H1 2954   3.490   4.303   1.300
 1007TIP3    H2 2955   3.518   4.356   1.161
 1008TIP3   OH2 2956   3.631   4.457   1.070
 1008TIP3    H1 2957   3.703   4.405   1.033
 1008TIP3    H2 2958   3.680   4.515   1.132
 1009TIP3   OH2 2959   4.425   2.817   1.170
 1009TIP3    H1 2960   4.333   2.808   1.139
 1009TIP3    H2 2961   4.456   2.725   1.159
 1010TIP3   OH2 2962   2.683   4.319   1.098
 1010TIP3    H1 2963   2.593   4.350   1.076
 1010TIP3    H2 2964   2.693   4.357   1.186
 1011TIP3   OH2 2965   2.917   4.297   0.954
 1011TIP3    H1 2966   2.832   4.307   1.002
 1011TIP3    H2 2967   2.894   4.330   0.866
 1012TIP3   OH2 2968   3.348   4.329   0.747
 1012TIP3    H1 2969   3.268   4.351   0.699
 1012TIP3    H2 2970   3.362   4.409   0.803
 1013TIP3   OH2 2971   3.614   4.262   0.803
 1013TIP3    H1 2972   3.521   4.283   0.783
 1013TIP3    H2 2973   3.661   4.340   0.766
 1014TIP3   OH2 2974   3.812   4.452   0.719
 1014TIP3    H1 2975   3.804   4.539   0.672
 1014TIP3    H2 2976   3.845   4.394   0.647
 1015TIP3   OH2 2977   2.597   4.111   0.841
 1015TIP3    H1 2978   2.620   4.082   0.932
 1015TIP3    H2 2979   2.667   4.065   0.790
 1016TIP3   OH2 2980   2.792   3.981   0.697
 1016TIP3    H1 2981   2.802   3.896   0.748
 1016TIP3    H2 2982   2.883   4.016   0.702
 1017TIP3   OH2 2983   3.063   4.076   0.701
 1017TIP3    H1 2984   3.090   3.982   0.698
 1017TIP3    H2 2985   3.104   4.100   0.787
 1018TIP3   OH2 2986   3.629   2.715   0.775
 1018TIP3    H1 2987   3.582   2.656   0.838
 1018TIP3    H2 2988   3.698   2.655   0.741
 1019TIP3   OH2 2989   4.132   2.656   0.705
 1019TIP3    H1 2990   4.172   2.665   0.616
 1019TIP3    H2 2991   4.059   2.594   0.687
 1020TIP3   OH2 2992   4.248   2.720   0.457
 1020TIP3    H1 2993   4.319   2.663   0.421
 1020TIP3    H2 2994   4.285   2.809   0.441
 1021TIP3   OH2 2995   3.311   2.481   0.691
 1021TIP3    H1 2996   3.374   2.518   0.627
 1021TIP3    H2 2997   3.350   2.509   0.775
 1022TIP3   OH2 2998   3.899   2.542   0.231
 1022TIP3    H1 2999   3.811   2.579   0.247
 1022TIP3    H2 3000   3.892   2.460   0.285
 1023TIP3   OH2 3001   2.383   3.882   0.230
 1023TIP3    H1 3002   2.299   3.845   0.196
 1023TIP3    H2 3003   2.365   3.977   0.219
 1024TIP3   OH2 3004   2.785   2.498   0.266
 1024TIP3    H1 3005   2.839   2.421   0.244
 1024TIP3    H2 3006   2.854   2.562   0.290
 1025TIP3   OH2 3007   3.300   2.646   0.316
 1025TIP3    H1 3008   3.364   2.603   0.376
 1025TIP3    H2 3009   3.319   2.739   0.342
 1026TIP3   OH2 3010   3.145   4.080  -0.205
 1026TIP3    H1 3011   3.240   4.095  -0.218
 1026TIP3    H2 3012   3.134   3.997  -0.255
 1027TIP3   OH2 3013   3.865   4.187  -0.096
 1027TIP3    H1 3014   3.860   4.092  -0.121
 1027TIP3    H2 3015   3.872   4.231  -0.184
 1028TIP3   OH2 3016   3.084   2.726   1.701
 1028TIP3    H1 3017   3.051   2.651   1.754
 1028TIP3    H2 3018   3.179   2.724   1.725
 1029TIP3   OH2 3019   3.335   2.720   1.818
 1029TIP3    H1 3020   3.420   2.696   1.777
 1029TIP3    H2 3021   3.323   2.647   1.882
 1030TIP3   OH2 3022   2.462   3.926  -0.110
 1030TIP3    H1 3023   2.437   3.953  -0.022
 1030TIP3    H2 3024   2.539   3.871  -0.096
 1031TIP3   OH2 3025   4.160   2.782   1.608
 1031TIP3    H1 3026   4.179   2.752   1.700
 1031TIP3    H2 3027   4.249   2.776   1.567
 1032TIP3   OH2 3028   4.098   4.334   1.096
 1032TIP3    H1 3029   4.018   4.304   1.048
 1032TIP3    H2 3030   4.080   4.430   1.102
 1033TIP3   OH2 3031   5.342   3.699   0.247
 1033TIP3    H1 3032   5.387   3.688   0.334
 1033TIP3    H2 3033   5.314   3.609   0.228
 1034TIP3   OH2 3034   4.683   3.602   0.595
 1034TIP3    H1 3035   4.694   3.541   0.670
 1034TIP3    H2 3036   4.714   3.684   0.636
 1035TIP3   OH2 3037   4.631   4.007   0.337
 1035TIP3    H1 3038   4.625   3.910   0.340
 1035TIP3    H2 3039   4.728   4.016   0.328
 1036TIP3   OH2 3040   4.344   3.223   0.109
 1036TIP3    H1 3041   4.288   3.300   0.130
 1036TIP3    H2 3042   4.276   3.158   0.086
 1037TIP3   OH2 3043   4.400   3.503   0.293
 1037TIP3    H1 3044   4.447   3.424   0.327
 1037TIP3    H2 3045   4.466   3.541   0.234
 1038TIP3   OH2 3046   5.166   3.916   0.298
 1038TIP3    H1 3047   5.217   3.845   0.255
 1038TIP3    H2 3048   5.242   3.974   0.321
 1039TIP3   OH2 3049   6.177   3.253   0.292
 1039TIP3    H1 3050   6.198   3.329   0.352
 1039TIP3    H2 3051   6.249   3.259   0.228
 1040TIP3   OH2 3052   5.578   3.431   0.353
 1040TIP3    H1 3053   5.623   3.346   0.367
 1040TIP3    H2 3054   5.545   3.420   0.262
 1041TIP3   OH2 3055   4.914   3.089   0.297
 1041TIP3    H1 3056   4.889   3.164   0.239
 1041TIP3    H2 3057   4.868   3.015   0.251
 1042TIP3   OH2 3058   5.592   3.169  -0.040
 1042TIP3    H1 3059   5.674   3.158   0.013
 1042TIP3    H2 3060   5.631   3.179  -0.129
 1043TIP3   OH2 3061   4.547   3.297   0.395
 1043TIP3    H1 3062   4.625   3.269   0.445
 1043TIP3    H2 3063   4.551   3.235   0.319
 1044TIP3   OH2 3064   4.993   3.497   0.191
 1044TIP3    H1 3065   5.088   3.471   0.198
 1044TIP3    H2 3066   4.951   3.412   0.168
 1045TIP3   OH2 3067   6.243   3.456   0.464
 1045TIP3    H1 3068   6.161   3.508   0.449
 1045TIP3    H2 3069   6.274   3.494   0.548
 1046TIP3   OH2 3070   4.909   3.078   0.724
 1046TIP3    H1 3071   4.842   3.109   0.661
 1046TIP3    H2 3072   4.858   3.088   0.808
 1047TIP3   OH2 3073   5.030   3.839   0.554
 1047TIP3    H1 3074   4.964   3.907   0.581
 1047TIP3    H2 3075   5.080   3.889   0.485
 1048TIP3   OH2 3076   5.829   3.187   0.091
 1048TIP3    H1 3077   5.830   3.129   0.169
 1048TIP3    H2 3078   5.871   3.267   0.127
 1049TIP3   OH2 3079   4.779   3.193   0.508
 1049TIP3    H1 3080   4.840   3.266   0.522
 1049TIP3    H2 3081   4.826   3.143   0.437
 1050TIP3   OH2 3082   4.846   4.037   0.613
 1050TIP3    H1 3083   4.827   4.123   0.571
 1050TIP3    H2 3084   4.767   4.030   0.671
 1051TIP3   OH2 3085   4.227   3.732  -0.121
 1051TIP3    H1 3086   4.187   3.761  -0.204
 1051TIP3    H2 3087   4.236   3.817  -0.072
 1052TIP3   OH2 3088   5.967   3.152   0.458
 1052TIP3    H1 3089   5.879   3.182   0.430
 1052TIP3    H2 3090   6.024   3.181   0.385
 1053TIP3   OH2 3091   5.262   2.793   0.436
 1053TIP3    H1 3092   5.253   2.698   0.459
 1053TIP3    H2 3093   5.186   2.830   0.485
 1054TIP3   OH2 3094   6.109   3.790   0.319
 1054TIP3    H1 3095   6.030   3.847   0.302
 1054TIP3    H2 3096   6.143   3.777   0.227
 1055TIP3   OH2 3097   5.774   3.682   0.578
 1055TIP3    H1 3098   5.778   3.761   0.636
 1055TIP3    H2 3099   5.720   3.716   0.505
 1056TIP3   OH2 3100   4.763   3.612   0.103
 1056TIP3    H1 3101   4.735   3.556   0.029
 1056TIP3    H2 3102   4.851   3.574   0.125
 1057TIP3   OH2 3103   4.894   4.006   0.257
 1057TIP3    H1 3104   4.879   4.014   0.162
 1057TIP3    H2 3105   4.991   4.001   0.264
 1058TIP3   OH2 3106   4.950   3.615   0.426
 1058TIP3    H1 3107   4.961   3.579   0.334
 1058TIP3    H2 3108   4.929   3.708   0.407
 1059TIP3   OH2 3109   5.394   4.234   0.208
 1059TIP3    H1 3110   5.432   4.315   0.246
 1059TIP3    H2 3111   5.413   4.168   0.277
 1060TIP3   OH2 3112   5.047   4.161   0.766
 1060TIP3    H1 3113   4.989   4.226   0.811
 1060TIP3    H2 3114   4.981   4.112   0.713
 1061TIP3   OH2 3115   4.786   3.726   0.837
 1061TIP3    H1 3116   4.809   3.805   0.890
 1061TIP3    H2 3117   4.699   3.705   0.877
 1062TIP3   OH2 3118   4.843   4.332   0.846
 1062TIP3    H1 3119   4.810   4.336   0.755
 1062TIP3    H2 3120   4.762   4.312   0.898
 1063TIP3   OH2 3121   4.602   3.465  -0.093
 1063TIP3    H1 3122   4.524   3.515  -0.068
 1063TIP3    H2 3123   4.579   3.375  -0.066
 1064TIP3   OH2 3124   4.423   3.861   0.796
 1064TIP3    H1 3125   4.354   3.841   0.728
 1064TIP3    H2 3126   4.456   3.773   0.820
 1065TIP3   OH2 3127   4.279   4.059   0.425
 1065TIP3    H1 3128   4.375   4.053   0.417
 1065TIP3    H2 3129   4.270   4.136   0.483
 1066TIP3   OH2 3130   6.143   4.504   0.497
 1066TIP3    H1 3131   6.142   4.407   0.508
 1066TIP3    H2 3132   6.064   4.529   0.549
 1067TIP3   OH2 3133   5.232   4.298   0.610
 1067TIP3    H1 3134   5.237   4.390   0.645
 1067TIP3    H2 3135   5.171   4.257   0.674
 1068TIP3   OH2 3136   4.425   4.239  -0.036
 1068TIP3    H1 3137   4.501   4.251   0.026
 1068TIP3    H2 3138   4.352   4.244   0.028
 1069TIP3   OH2 3139   6.030   3.637   0.764
 1069TIP3    H1 3140   5.949   3.652   0.713
 1069TIP3    H2 3141   6.045   3.541   0.752
 1070TIP3   OH2 3142   4.630   4.043   0.779
 1070TIP3    H1 3143   4.679   4.033   0.863
 1070TIP3    H2 3144   4.554   3.984   0.791
 1071TIP3   OH2 3145   5.025   2.874   0.567
 1071TIP3    H1 3146   4.939   2.839   0.538
 1071TIP3    H2 3147   4.994   2.950   0.620
 1072TIP3   OH2 3148   5.556   2.981   0.759
 1072TIP3    H1 3149   5.616   2.968   0.835
 1072TIP3    H2 3150   5.469   2.962   0.799
 1073TIP3   OH2 3151   5.792   3.414   0.674
 1073TIP3    H1 3152   5.749   3.408   0.763
 1073TIP3    H2 3153   5.770   3.505   0.646
 1074TIP3   OH2 3154   4.998   3.447   0.632
 1074TIP3    H1 3155   4.928   3.423   0.697
 1074TIP3    H2 3156   4.945   3.461   0.551
 1075TIP3   OH2 3157   4.828   3.288   0.134
 1075TIP3    H1 3158   4.736   3.258   0.150
 1075TIP3    H2 3159   4.848   3.232   0.055
 1076TIP3   OH2 3160   5.507   3.647   0.912
 1076TIP3    H1 3161   5.485   3.564   0.960
 1076TIP3    H2 3162   5.601   3.655   0.933
 1077TIP3   OH2 3163   5.492   3.389   0.098
 1077TIP3    H1 3164   5.459   3.427   0.014
 1077TIP3    H2 3165   5.529   3.304   0.066
 1078TIP3   OH2 3166   4.792   3.411   0.805
 1078TIP3    H1 3167   4.779   3.481   0.871
 1078TIP3    H2 3168   4.769   3.331   0.856
 1079TIP3   OH2 3169   4.371   2.950   0.365
 1079TIP3    H1 3170   4.449   2.967   0.422
 1079TIP3    H2 3171   4.406   2.897   0.292
 1080TIP3   OH2 3172   4.338   2.917  -0.097
 1080TIP3    H1 3173   4.384   2.949  -0.177
 1080TIP3    H2 3174   4.276   2.991  -0.081
 1081TIP3   OH2 3175   5.454   3.621   0.498
 1081TIP3    H1 3176   5.507   3.553   0.450
 1081TIP3    H2 3177   5.503   3.631   0.579
 1082TIP3   OH2 3178   5.169   3.100   0.164
 1082TIP3    H1 3179   5.091   3.090   0.221
 1082TIP3    H2 3180   5.242   3.092   0.228
 1083TIP3   OH2 3181   4.601   3.147   0.170
 1083TIP3    H1 3182   4.507   3.153   0.142
 1083TIP3    H2 3183   4.625   3.055   0.148
 1084TIP3   OH2 3184   4.872   3.137  -0.080
 1084TIP3    H1 3185   4.968   3.118  -0.087
 1084TIP3    H2 3186   4.866   3.208  -0.146
 1085TIP3   OH2 3187   5.666   3.167   0.359
 1085TIP3    H1 3188   5.633   3.176   0.452
 1085TIP3    H2 3189   5.602   3.104   0.324
 1086TIP3   OH2 3190   5.840   4.855   0.593
 1086TIP3    H1 3191   5.827   4.874   0.498
 1086TIP3    H2 3192   5.917   4.912   0.613
 1087TIP3   OH2 3193   4.791   3.964   1.001
 1087TIP3    H1 3194   4.870   3.997   1.048
 1087TIP3    H2 3195   4.726   3.967   1.074
 1088TIP3   OH2 3196   5.252   3.423   0.255
 1088TIP3    H1 3197   5.333   3.392   0.211
 1088TIP3    H2 3198   5.259   3.380   0.343
 1089TIP3   OH2 3199   4.777   2.908   0.143
 1089TIP3    H1 3200   4.737   2.831   0.190
 1089TIP3    H2 3201   4.837   2.863   0.081
 1090TIP3   OH2 3202   5.230   3.315   0.524
 1090TIP3    H1 3203   5.157   3.351   0.578
 1090TIP3    H2 3204   5.307   3.328   0.581
 1091TIP3   OH2 3205   5.873   3.916   0.277
 1091TIP3    H1 3206   5.866   4.008   0.299
 1091TIP3    H2 3207   5.777   3.890   0.278
 1092TIP3   OH2 3208   5.347   4.018   0.660
 1092TIP3    H1 3209   5.405   4.024   0.736
 1092TIP3    H2 3210   5.333   4.113   0.639
 1093TIP3   OH2 3211   4.655   3.729   0.327
 1093TIP3    H1 3212   4.693   3.694   0.244
 1093TIP3    H2 3213   4.681   3.662   0.393
 1094TIP3   OH2 3214   4.542   3.643   0.931
 1094TIP3    H1 3215   4.559   3.635   1.027
 1094TIP3    H2 3216   4.466   3.583   0.921
 1095TIP3   OH2 3217   5.273   3.778   0.962
 1095TIP3    H1 3218   5.223   3.745   0.886
 1095TIP3    H2 3219   5.362   3.742   0.943
 1096TIP3   OH2 3220   5.510   4.258   0.567
 1096TIP3    H1 3221   5.420   4.291   0.549
 1096TIP3    H2 3222   5.542   4.327   0.629
 1097TIP3   OH2 3223   6.126   4.213   0.523
 1097TIP3    H1 3224   6.031   4.228   0.503
 1097TIP3    H2 3225   6.157   4.184   0.434
 1098TIP3   OH2 3226   5.626   3.790   0.252
 1098TIP3    H1 3227   5.535   3.799   0.220
 1098TIP3    H2 3228   5.659   3.718   0.195
 1099TIP3   OH2 3229   4.754   4.017  -0.009
 1099TIP3    H1 3230   4.799   4.100  -0.035
 1099TIP3    H2 3231   4.668   4.052   0.018
 1100TIP3   OH2 3232   4.321   3.324  -0.332
 1100TIP3    H1 3233   4.358   3.413  -0.325
 1100TIP3    H2 3234   4.242   3.331  -0.273
 1101TIP3   OH2 3235   4.837   3.773  -0.110
 1101TIP3    H1 3236   4.839   3.867  -0.081
 1101TIP3    H2 3237   4.839   3.728  -0.024
 1102TIP3   OH2 3238   5.032   4.372   0.410
 1102TIP3    H1 3239   5.071   4.447   0.360
 1102TIP3    H2 3240   5.110   4.344   0.462
 1103TIP3   OH2 3241   5.421   4.003   0.376
 1103TIP3    H1 3242   5.418   4.005   0.473
 1103TIP3    H2 3243   5.513   3.978   0.359
 1104TIP3   OH2 3244   5.672   4.565   0.434
 1104TIP3    H1 3245   5.635   4.476   0.421
 1104TIP3    H2 3246   5.646   4.606   0.351
 1105TIP3   OH2 3247   4.750   3.158   0.940
 1105TIP3    H1 3248   4.654   3.163   0.954
 1105TIP3    H2 3249   4.778   3.102   1.014
 1106TIP3   OH2 3250   4.465   4.242   0.573
 1106TIP3    H1 3251   4.524   4.175   0.611
 1106TIP3    H2 3252   4.493   4.321   0.621
 1107TIP3   OH2 3253   5.578   3.214   0.610
 1107TIP3    H1 3254   5.640   3.273   0.657
 1107TIP3    H2 3255   5.572   3.138   0.672
 1108TIP3   OH2 3256   5.147   3.142  -0.105
 1108TIP3    H1 3257   5.195   3.221  -0.133
 1108TIP3    H2 3258   5.165   3.139  -0.008
 1109TIP3   OH2 3259   5.313   2.887  -0.000
 1109TIP3    H1 3260   5.304   2.948   0.075
 1109TIP3    H2 3261   5.383   2.932  -0.050
 1110TIP3   OH2 3262   4.807   2.887  -0.228
 1110TIP3    H1 3263   4.790   2.953  -0.159
 1110TIP3    H2 3264   4.898   2.858  -0.200
 1111TIP3   OH2 3265   6.060   3.371   0.681
 1111TIP3    H1 3266   5.962   3.368   0.685
 1111TIP3    H2 3267   6.076   3.333   0.594
 1112TIP3   OH2 3268   5.713   3.568   0.111
 1112TIP3    H1 3269   5.639   3.505   0.114
 1112TIP3    H2 3270   5.786   3.515   0.150
 1113TIP3   OH2 3271   4.380   3.061  -0.327
 1113TIP3    H1 3272   4.362   3.157  -0.327
 1113TIP3    H2 3273   4.304   3.027  -0.375
 1114TIP3   OH2 3274   4.764   2.792   0.539
 1114TIP3    H1 3275   4.731   2.756   0.454
 1114TIP3    H2 3276   4.753   2.714   0.599
 1115TIP3   OH2 3277   4.269   3.995  -0.039
 1115TIP3    H1 3278   4.229   4.045   0.034
 1115TIP3    H2 3279   4.336   4.060  -0.066
 1116TIP3   OH2 3280   4.459   4.554   0.996
 1116TIP3    H1 3281   4.545   4.557   1.043
 1116TIP3    H2 3282   4.443   4.459   0.993
 1117TIP3   OH2 3283   4.935   4.513   1.041
 1117TIP3    H1 3284   5.031   4.503   1.047
 1117TIP3    H2 3285   4.915   4.455   0.965
 1118TIP3   OH2 3286   5.571   4.427   0.779
 1118TIP3    H1 3287   5.570   4.355   0.846
 1118TIP3    H2 3288   5.652   4.477   0.804
 1119TIP3   OH2 3289   4.589   3.959   1.193
 1119TIP3    H1 3290   4.604   3.864   1.202
 1119TIP3    H2 3291   4.500   3.961   1.151
 1120TIP3   OH2 3292   5.197   4.052   0.974
 1120TIP3    H1 3293   5.163   4.069   0.884
 1120TIP3    H2 3294   5.238   3.964   0.965
 1121TIP3   OH2 3295   5.692   4.054   0.554
 1121TIP3    H1 3296   5.748   4.099   0.487
 1121TIP3    H2 3297   5.624   4.124   0.565
 1122TIP3   OH2 3298   4.711   3.689   1.174
 1122TIP3    H1 3299   4.787   3.631   1.162
 1122TIP3    H2 3300   4.731   3.725   1.263
 1123TIP3   OH2 3301   5.553   3.974   0.969
 1123TIP3    H1 3302   5.638   3.957   0.926
 1123TIP3    H2 3303   5.555   3.910   1.043
 1124TIP3   OH2 3304   5.154   3.358   0.964
 1124TIP3    H1 3305   5.187   3.275   0.923
 1124TIP3    H2 3306   5.074   3.371   0.915
 1125TIP3   OH2 3307   5.167   3.149   0.766
 1125TIP3    H1 3308   5.197   3.153   0.674
 1125TIP3    H2 3309   5.073   3.124   0.757
 1126TIP3   OH2 3310   5.776   3.655   1.023
 1126TIP3    H1 3311   5.826   3.574   1.040
 1126TIP3    H2 3312   5.845   3.715   0.992
 1127TIP3   OH2 3313   5.814   3.907   0.748
 1127TIP3    H1 3314   5.762   3.966   0.688
 1127TIP3    H2 3315   5.905   3.929   0.715
 1128TIP3   OH2 3316   5.030   3.483   1.184
 1128TIP3    H1 3317   4.971   3.409   1.205
 1128TIP3    H2 3318   5.083   3.447   1.111
 1129TIP3   OH2 3319   5.298   2.912   0.833
 1129TIP3    H1 3320   5.247   2.995   0.822
 1129TIP3    H2 3321   5.227   2.844   0.826
 1130TIP3   OH2 3322   5.431   3.424   1.051
 1130TIP3    H1 3323   5.438   3.404   1.146
 1130TIP3    H2 3324   5.338   3.398   1.036
 1131TIP3   OH2 3325   5.669   3.361   0.908
 1131TIP3    H1 3326   5.592   3.369   0.968
 1131TIP3    H2 3327   5.741   3.335   0.969
 1132TIP3   OH2 3328   5.898   3.307   1.062
 1132TIP3    H1 3329   5.904   3.212   1.084
 1132TIP3    H2 3330   5.890   3.349   1.151
 1133TIP3   OH2 3331   4.888   3.253   1.246
 1133TIP3    H1 3332   4.891   3.160   1.217
 1133TIP3    H2 3333   4.925   3.244   1.337
 1134TIP3   OH2 3334   5.395   2.934   1.090
 1134TIP3    H1 3335   5.455   2.858   1.103
 1134TIP3    H2 3336   5.358   2.915   1.002
 1135TIP3   OH2 3337   5.476   3.164   1.218
 1135TIP3    H1 3338   5.451   3.076   1.182
 1135TIP3    H2 3339   5.388   3.200   1.242
 1136TIP3   OH2 3340   4.066   4.352  -0.009
 1136TIP3    H1 3341   3.998   4.292  -0.048
 1136TIP3    H2 3342   4.112   4.293   0.053
 1137TIP3   OH2 3343   4.226   4.202   0.163
 1137TIP3    H1 3344   4.206   4.141   0.236
 1137TIP3    H2 3345   4.267   4.275   0.215
 1138TIP3   OH2 3346   5.963   4.624   0.313
 1138TIP3    H1 3347   5.916   4.545   0.340
 1138TIP3    H2 3348   6.045   4.614   0.363
 1139TIP3   OH2 3349   6.016   4.308   0.830
 1139TIP3    H1 3350   5.942   4.319   0.893
 1139TIP3    H2 3351   6.057   4.397   0.831
 1140TIP3   OH2 3352   4.404   3.619   0.544
 1140TIP3    H1 3353   4.394   3.588   0.451
 1140TIP3    H2 3354   4.502   3.621   0.552
 1141TIP3   OH2 3355   6.060   3.973   0.654
 1141TIP3    H1 3356   6.133   3.909   0.640
 1141TIP3    H2 3357   6.086   4.049   0.598
 1142TIP3   OH2 3358   6.242   3.774   0.668
 1142TIP3    H1 3359   6.170   3.724   0.711
 1142TIP3    H2 3360   6.317   3.713   0.682
 1143TIP3   OH2 3361   5.934   3.429   0.191
 1143TIP3    H1 3362   6.012   3.457   0.140
 1143TIP3    H2 3363   5.953   3.470   0.278
 1144TIP3   OH2 3364   5.990   3.572   0.421
 1144TIP3    H1 3365   5.914   3.604   0.473
 1144TIP3    H2 3366   6.029   3.657   0.391
 1145TIP3   OH2 3367   4.621   3.311   1.220
 1145TIP3    H1 3368   4.719   3.302   1.225
 1145TIP3    H2 3369   4.594   3.225   1.257
 1146TIP3   OH2 3370   6.450   3.171   0.975
 1146TIP3    H1 3371   6.509   3.106   0.931
 1146TIP3    H2 3372   6.421   3.226   0.899
 1147TIP3   OH2 3373   4.579   2.998   0.541
 1147TIP3    H1 3374   4.638   2.921   0.554
 1147TIP3    H2 3375   4.641   3.072   0.545
 1148TIP3   OH2 3376   4.382   3.272   0.622
 1148TIP3    H1 3377   4.429   3.269   0.537
 1148TIP3    H2 3378   4.404   3.360   0.655
 1149TIP3   OH2 3379   6.320   3.310   0.782
 1149TIP3    H1 3380   6.235   3.352   0.807
 1149TIP3    H2 3381   6.286   3.240   0.722
 1150TIP3   OH2 3382   4.366   2.782   0.134
 1150TIP3    H1 3383   4.273   2.768   0.157
 1150TIP3    H2 3384   4.360   2.834   0.051
 1151TIP3   OH2 3385   4.584   2.856   0.936
 1151TIP3    H1 3386   4.535   2.848   1.019
 1151TIP3    H2 3387   4.516   2.895   0.878
 1152TIP3   OH2 3388   4.623   4.280   1.011
 1152TIP3    H1 3389   4.528   4.258   1.000
 1152TIP3    H2 3390   4.635   4.269   1.106
 1153TIP3   OH2 3391   4.805   4.314   0.559
 1153TIP3    H1 3392   4.758   4.391   0.520
 1153TIP3    H2 3393   4.892   4.329   0.516
 1154TIP3   OH2 3394   5.243   4.560   0.701
 1154TIP3    H1 3395   5.288   4.563   0.788
 1154TIP3    H2 3396   5.305   4.613   0.647
 1155TIP3   OH2 3397   5.416   4.721   0.566
 1155TIP3    H1 3398   5.473   4.665   0.512
 1155TIP3    H2 3399   5.481   4.771   0.620
 1156TIP3   OH2 3400   6.219   3.073   0.659
 1156TIP3    H1 3401   6.128   3.060   0.627
 1156TIP3    H2 3402   6.253   2.981   0.649
 1157TIP3   OH2 3403   4.473   4.565   0.590
 1157TIP3    H1 3404   4.385   4.602   0.566
 1157TIP3    H2 3405   4.494   4.618   0.668
 1158TIP3   OH2 3406   4.710   4.548   0.445
 1158TIP3    H1 3407   4.624   4.564   0.489
 1158TIP3    H2 3408   4.693   4.588   0.357
 1159TIP3   OH2 3409   5.133   4.575   0.252
 1159TIP3    H1 3410   5.054   4.593   0.197
 1159TIP3    H2 3411   5.153   4.665   0.287
 1160TIP3   OH2 3412   5.390   4.527   0.341
 1160TIP3    H1 3413   5.301   4.535   0.302
 1160TIP3    H2 3414   5.447   4.540   0.263
 1161TIP3   OH2 3415   4.386   4.360   0.330
 1161TIP3    H1 3416   4.414   4.338   0.421
 1161TIP3    H2 3417   4.462   4.323   0.280
 1162TIP3   OH2 3418   4.584   4.232   0.188
 1162TIP3    H1 3419   4.599   4.154   0.246
 1162TIP3    H2 3420   4.671   4.278   0.198
 1163TIP3   OH2 3421   4.833   4.338   0.210
 1163TIP3    H1 3422   4.881   4.306   0.132
 1163TIP3    H2 3423   4.902   4.340   0.280
 1164TIP3   OH2 3424   5.414   2.981   0.264
 1164TIP3    H1 3425   5.381   2.913   0.325
 1164TIP3    H2 3426   5.495   2.941   0.229
 1165TIP3   OH2 3427   5.943   2.885   0.191
 1165TIP3    H1 3428   5.979   2.897   0.100
 1165TIP3    H2 3429   5.848   2.893   0.176
 1166TIP3   OH2 3430   4.674   2.698   0.293
 1166TIP3    H1 3431   4.582   2.664   0.297
 1166TIP3    H2 3432   4.723   2.613   0.290
 1167TIP3   OH2 3433   4.447   2.564  -0.064
 1167TIP3    H1 3434   4.491   2.621  -0.132
 1167TIP3    H2 3435   4.429   2.629   0.006
 1168TIP3   OH2 3436   5.115   2.733   0.178
 1168TIP3    H1 3437   5.180   2.779   0.123
 1168TIP3    H2 3438   5.142   2.760   0.267
 1169TIP3   OH2 3439   5.659   2.879   0.151
 1169TIP3    H1 3440   5.672   2.835   0.066
 1169TIP3    H2 3441   5.649   2.801   0.211
 1170TIP3   OH2 3442   4.577   2.718  -0.254
 1170TIP3    H1 3443   4.593   2.662  -0.331
 1170TIP3    H2 3444   4.657   2.773  -0.250
 1171TIP3   OH2 3445   5.061   2.880  -0.136
 1171TIP3    H1 3446   5.132   2.827  -0.097
 1171TIP3    H2 3447   5.105   2.967  -0.139
 1172TIP3   OH2 3448   4.883   2.978   1.182
 1172TIP3    H1 3449   4.847   2.909   1.240
 1172TIP3    H2 3450   4.977   2.977   1.212
 1173TIP3   OH2 3451   5.130   2.972   1.304
 1173TIP3    H1 3452   5.223   2.965   1.274
 1173TIP3    H2 3453   5.135   2.905   1.375
 1174TIP3   OH2 3454   5.952   3.032   1.089
 1174TIP3    H1 3455   5.972   3.008   1.182
 1174TIP3    H2 3456   6.042   3.036   1.050
 1175TIP3   OH2 3457   5.893   4.585   0.599
 1175TIP3    H1 3458   5.813   4.562   0.547
 1175TIP3    H2 3459   5.884   4.683   0.598
 1176TIP3   OH2 3460   6.721   3.298   0.254
 1176TIP3    H1 3461   6.672   3.306   0.171
 1176TIP3    H2 3462   6.659   3.341   0.317
 1177TIP3   OH2 3463   6.613   3.967   0.381
 1177TIP3    H1 3464   6.616   4.056   0.423
 1177TIP3    H2 3465   6.518   3.962   0.360
 1178TIP3   OH2 3466   6.230   4.113   0.296
 1178TIP3    H1 3467   6.237   4.116   0.200
 1178TIP3    H2 3468   6.275   4.029   0.319
 1179TIP3   OH2 3469   6.455   4.282   0.294
 1179TIP3    H1 3470   6.514   4.292   0.371
 1179TIP3    H2 3471   6.379   4.235   0.332
 1180TIP3   OH2 3472   7.333   3.256   0.267
 1180TIP3    H1 3473   7.400   3.193   0.296
 1180TIP3    H2 3474   7.250   3.214   0.298
 1181TIP3   OH2 3475   7.297   3.907   0.399
 1181TIP3    H1 3476   7.270   3.823   0.443
 1181TIP3    H2 3477   7.393   3.893   0.402
 1182TIP3   OH2 3478   6.569   3.672   0.298
 1182TIP3    H1 3479   6.574   3.747   0.360
 1182TIP3    H2 3480   6.560   3.596   0.359
 1183TIP3   OH2 3481   6.602   4.205   0.524
 1183TIP3    H1 3482   6.675   4.254   0.566
 1183TIP3    H2 3483   6.527   4.230   0.582
 1184TIP3   OH2 3484   6.343   3.897   0.427
 1184TIP3    H1 3485   6.360   3.889   0.523
 1184TIP3    H2 3486   6.260   3.846   0.417
 1185TIP3   OH2 3487   7.056   4.026   0.451
 1185TIP3    H1 3488   6.991   3.959   0.421
 1185TIP3    H2 3489   7.141   3.983   0.428
 1186TIP3   OH2 3490   6.543   3.422   0.436
 1186TIP3    H1 3491   6.447   3.423   0.451
 1186TIP3    H2 3492   6.572   3.362   0.506
 1187TIP3   OH2 3493   6.230   4.781   0.507
 1187TIP3    H1 3494   6.323   4.800   0.530
 1187TIP3    H2 3495   6.231   4.686   0.490
 1188TIP3   OH2 3496   6.730   4.762   0.555
 1188TIP3    H1 3497   6.814   4.737   0.595
 1188TIP3    H2 3498   6.716   4.692   0.490
 1189TIP3   OH2 3499   6.372   4.207   0.687
 1189TIP3    H1 3500   6.388   4.111   0.680
 1189TIP3    H2 3501   6.287   4.218   0.641
 1190TIP3   OH2 3502   6.989   4.302   0.450
 1190TIP3    H1 3503   6.949   4.303   0.362
 1190TIP3    H2 3504   7.025   4.211   0.455
 1191TIP3   OH2 3505   6.499   3.934   0.674
 1191TIP3    H1 3506   6.584   3.905   0.640
 1191TIP3    H2 3507   6.526   3.979   0.757
 1192TIP3   OH2 3508   6.860   3.862   0.348
 1192TIP3    H1 3509   6.773   3.897   0.378
 1192TIP3    H2 3510   6.861   3.898   0.258
 1193TIP3   OH2 3511   7.298   4.219   0.478
 1193TIP3    H1 3512   7.365   4.289   0.485
 1193TIP3    H2 3513   7.315   4.164   0.557
 1194TIP3   OH2 3514   6.955   3.618   0.461
 1194TIP3    H1 3515   6.962   3.537   0.406
 1194TIP3    H2 3516   6.928   3.686   0.396
 1195TIP3   OH2 3517   6.970   3.401   0.289
 1195TIP3    H1 3518   7.006   3.438   0.206
 1195TIP3    H2 3519   6.881   3.367   0.263
 1196TIP3   OH2 3520   7.567   3.885   0.561
 1196TIP3    H1 3521   7.569   3.812   0.497
 1196TIP3    H2 3522   7.642   3.941   0.530
 1197TIP3   OH2 3523   6.839   3.731   0.684
 1197TIP3    H1 3524   6.768   3.666   0.699
 1197TIP3    H2 3525   6.874   3.700   0.598
 1198TIP3   OH2 3526   7.088   3.158   0.342
 1198TIP3    H1 3527   7.040   3.241   0.321
 1198TIP3    H2 3528   7.024   3.090   0.314
 1199TIP3   OH2 3529   7.211   3.686   0.539
 1199TIP3    H1 3530   7.206   3.672   0.635
 1199TIP3    H2 3531   7.123   3.652   0.513
 1200TIP3   OH2 3532   7.470   3.664   0.414
 1200TIP3    H1 3533   7.386   3.631   0.448
 1200TIP3    H2 3534   7.535   3.600   0.449
 1201TIP3   OH2 3535   7.674   3.540   0.557
 1201TIP3    H1 3536   7.713   3.457   0.586
 1201TIP3    H2 3537   7.678   3.594   0.637
 1202TIP3   OH2 3538   6.676   3.512   0.737
 1202TIP3    H1 3539   6.685   3.422   0.702
 1202TIP3    H2 3540   6.713   3.501   0.827
 1203TIP3   OH2 3541   7.187   3.176   0.594
 1203TIP3    H1 3542   7.254   3.106   0.583
 1203TIP3    H2 3543   7.145   3.173   0.505
 1204TIP3   OH2 3544   7.256   3.396   0.745
 1204TIP3    H1 3545   7.234   3.325   0.680
 1204TIP3    H2 3546   7.179   3.456   0.736
 1205TIP3   OH2 3547   6.408   3.557   0.693
 1205TIP3    H1 3548   6.506   3.558   0.702
 1205TIP3    H2 3549   6.387   3.475   0.742
 1206TIP3   OH2 3550   6.380   3.118   0.433
 1206TIP3    H1 3551   6.335   3.107   0.519
 1206TIP3    H2 3552   6.304   3.140   0.376
 1207TIP3   OH2 3553   6.423   4.482   0.541
 1207TIP3    H1 3554   6.336   4.491   0.498
 1207TIP3    H2 3555   6.424   4.556   0.602
 1208TIP3   OH2 3556   6.676   3.234   0.672
 1208TIP3    H1 3557   6.645   3.165   0.732
 1208TIP3    H2 3558   6.771   3.237   0.696
 1209TIP3   OH2 3559   6.926   3.234   0.789
 1209TIP3    H1 3560   7.010   3.210   0.746
 1209TIP3    H2 3561   6.916   3.162   0.854
 1210TIP3   OH2 3562   0.431   4.291   1.466
 1210TIP3    H1 3563   0.456   4.374   1.512
 1210TIP3    H2 3564   0.443   4.316   1.374
 1211TIP3   OH2 3565  -0.121   4.489   1.495
 1211TIP3    H1 3566  -0.099   4.395   1.519
 1211TIP3    H2 3567  -0.054   4.506   1.428
 1212TIP3   OH2 3568   0.499   4.499   1.638
 1212TIP3    H1 3569   0.414   4.545   1.619
 1212TIP3    H2 3570   0.521   4.538   1.724
 1213TIP3   OH2 3571   0.054   4.246   1.250
 1213TIP3    H1 3572   0.085   4.178   1.315
 1213TIP3    H2 3573   0.098   4.327   1.285
 1214TIP3   OH2 3574   0.221   4.211   1.639
 1214TIP3    H1 3575   0.136   4.225   1.596
 1214TIP3    H2 3576   0.283   4.229   1.564
 1215TIP3   OH2 3577   0.157   5.237   1.607
 1215TIP3    H1 3578   0.168   5.151   1.563
 1215TIP3    H2 3579   0.125   5.293   1.535
 1216TIP3   OH2 3580   0.355   4.833   1.463
 1216TIP3    H1 3581   0.281   4.897   1.472
 1216TIP3    H2 3582   0.386   4.857   1.373
 1217TIP3   OH2 3583   0.048   4.727   1.764
 1217TIP3    H1 3584   0.043   4.817   1.802
 1217TIP3    H2 3585  -0.043   4.719   1.727
 1218TIP3   OH2 3586   0.407   5.536   1.673
 1218TIP3    H1 3587   0.414   5.440   1.675
 1218TIP3    H2 3588   0.317   5.547   1.713
 1219TIP3   OH2 3589   0.275   4.682   1.935
 1219TIP3    H1 3590   0.197   4.695   1.879
 1219TIP3    H2 3591   0.293   4.587   1.923
 1220TIP3   OH2 3592  -0.184   4.036   1.938
 1220TIP3    H1 3593  -0.122   4.001   2.004
 1220TIP3    H2 3594  -0.270   4.000   1.967
 1221TIP3   OH2 3595   0.047   4.457   1.855
 1221TIP3    H1 3596   0.001   4.456   1.942
 1221TIP3    H2 3597   0.030   4.547   1.823
 1222TIP3   OH2 3598  -0.220   4.686   2.102
 1222TIP3    H1 3599  -0.248   4.609   2.156
 1222TIP3    H2 3600  -0.124   4.689   2.122
 1223TIP3   OH2 3601  -0.204   4.677   1.678
 1223TIP3    H1 3602  -0.187   4.596   1.625
 1223TIP3    H2 3603  -0.260   4.640   1.750
 1224TIP3   OH2 3604  -0.100   4.221   1.548
 1224TIP3    H1 3605  -0.135   4.236   1.638
 1224TIP3    H2 3606  -0.143   4.138   1.524
 1225TIP3   OH2 3607  -0.479   4.349   1.799
 1225TIP3    H1 3608  -0.497   4.419   1.734
 1225TIP3    H2 3609  -0.390   4.376   1.827
 1226TIP3   OH2 3610   0.148   5.010   1.460
 1226TIP3    H1 3611   0.140   5.058   1.375
 1226TIP3    H2 3612   0.055   4.995   1.485
 1227TIP3   OH2 3613  -0.454   4.781   2.200
 1227TIP3    H1 3614  -0.512   4.763   2.124
 1227TIP3    H2 3615  -0.366   4.768   2.160
 1228TIP3   OH2 3616   0.408   5.258   1.702
 1228TIP3    H1 3617   0.309   5.264   1.697
 1228TIP3    H2 3618   0.428   5.228   1.612
 1229TIP3   OH2 3619  -0.167   4.274   1.805
 1229TIP3    H1 3620  -0.081   4.307   1.835
 1229TIP3    H2 3621  -0.177   4.190   1.856
 1230TIP3   OH2 3622  -0.291   4.530   1.890
 1230TIP3    H1 3623  -0.276   4.593   1.965
 1230TIP3    H2 3624  -0.235   4.456   1.915
 1231TIP3   OH2 3625   0.315   4.417   1.857
 1231TIP3    H1 3626   0.217   4.412   1.861
 1231TIP3    H2 3627   0.329   4.378   1.770
 1232TIP3   OH2 3628  -0.181   5.544   2.084
 1232TIP3    H1 3629  -0.169   5.448   2.094
 1232TIP3    H2 3630  -0.098   5.570   2.037
 1233TIP3   OH2 3631  -0.018   5.058   1.730
 1233TIP3    H1 3632   0.033   5.140   1.712
 1233TIP3    H2 3633  -0.110   5.090   1.719
 1234TIP3   OH2 3634  -0.191   5.013   2.160
 1234TIP3    H1 3635  -0.120   4.986   2.101
 1234TIP3    H2 3636  -0.189   4.943   2.228
 1235TIP3   OH2 3637  -0.608   4.139   1.899
 1235TIP3    H1 3638  -0.551   4.211   1.867
 1235TIP3    H2 3639  -0.680   4.188   1.941
 1236TIP3   OH2 3640   0.037   4.695   2.202
 1236TIP3    H1 3641   0.084   4.611   2.210
 1236TIP3    H2 3642   0.103   4.751   2.157
 1237TIP3   OH2 3643   0.078   4.949   1.955
 1237TIP3    H1 3644   0.026   4.997   1.886
 1237TIP3    H2 3645   0.167   4.963   1.916
 1238TIP3   OH2 3646  -0.441   3.952   2.015
 1238TIP3    H1 3647  -0.493   4.029   1.980
 1238TIP3    H2 3648  -0.511   3.885   2.008
 1239TIP3   OH2 3649  -0.317   4.467   2.235
 1239TIP3    H1 3650  -0.298   4.458   2.331
 1239TIP3    H2 3651  -0.404   4.423   2.229
 1240TIP3   OH2 3652  -0.083   4.415   2.088
 1240TIP3    H1 3653  -0.158   4.411   2.150
 1240TIP3    H2 3654  -0.009   4.382   2.143
 1241TIP3   OH2 3655   0.144   4.355   2.240
 1241TIP3    H1 3656   0.156   4.259   2.255
 1241TIP3    H2 3657   0.139   4.391   2.331
 1242TIP3   OH2 3658  -0.349   3.970   2.274
 1242TIP3    H1 3659  -0.282   3.900   2.260
 1242TIP3    H2 3660  -0.396   3.968   2.187
 1243TIP3   OH2 3661  -0.278   4.183   2.423
 1243TIP3    H1 3662  -0.298   4.105   2.366
 1243TIP3    H2 3663  -0.364   4.229   2.422
 1244TIP3   OH2 3664   0.273   5.352   2.001
 1244TIP3    H1 3665   0.199   5.367   2.067
 1244TIP3    H2 3666   0.311   5.440   1.995
 1245TIP3   OH2 3667   0.313   5.016   1.829
 1245TIP3    H1 3668   0.384   4.949   1.822
 1245TIP3    H2 3669   0.347   5.088   1.771
 1246TIP3   OH2 3670   0.493   4.821   1.857
 1246TIP3    H1 3671   0.418   4.768   1.891
 1246TIP3    H2 3672   0.566   4.756   1.867
 1247TIP3   OH2 3673   0.176   4.467   1.371
 1247TIP3    H1 3674   0.255   4.500   1.322
 1247TIP3    H2 3675   0.194   4.511   1.457
 1248TIP3   OH2 3676   0.249   4.619   1.595
 1248TIP3    H1 3677   0.177   4.659   1.648
 1248TIP3    H2 3678   0.285   4.698   1.549
 1249TIP3   OH2 3679   0.701   4.219   2.151
 1249TIP3    H1 3680   0.759   4.153   2.107
 1249TIP3    H2 3681   0.670   4.273   2.075
 1250TIP3   OH2 3682   0.568   4.355   1.958
 1250TIP3    H1 3683   0.480   4.396   1.970
 1250TIP3    H2 3684   0.543   4.282   1.898
 1251TIP3   OH2 3685   0.470   4.122   1.836
 1251TIP3    H1 3686   0.378   4.113   1.804
 1251TIP3    H2 3687   0.504   4.031   1.823
 1252TIP3   OH2 3688   0.142   4.028   1.387
 1252TIP3    H1 3689   0.221   4.034   1.330
 1252TIP3    H2 3690   0.105   3.945   1.355
 1253TIP3   OH2 3691   0.324   4.025   1.169
 1253TIP3    H1 3692   0.309   3.994   1.078
 1253TIP3    H2 3693   0.353   4.117   1.147
 1254TIP3   OH2 3694   0.204   4.084   2.267
 1254TIP3    H1 3695   0.224   4.054   2.358
 1254TIP3    H2 3696   0.293   4.079   2.225
 1255TIP3   OH2 3697   0.144   5.559   1.752
 1255TIP3    H1 3698   0.048   5.554   1.754
 1255TIP3    H2 3699   0.154   5.658   1.736
 1256TIP3   OH2 3700   1.410   4.994   0.533
 1256TIP3    H1 3701   1.387   5.086   0.508
 1256TIP3    H2 3702   1.331   4.948   0.503
 1257TIP3   OH2 3703   1.412   5.009   0.908
 1257TIP3    H1 3704   1.446   4.988   0.997
 1257TIP3    H2 3705   1.367   4.927   0.884
 1258TIP3   OH2 3706   0.713   4.903   1.277
 1258TIP3    H1 3707   0.738   4.840   1.348
 1258TIP3    H2 3708   0.800   4.936   1.251
 1259TIP3   OH2 3709   1.653   5.308   0.594
 1259TIP3    H1 3710   1.640   5.239   0.661
 1259TIP3    H2 3711   1.681   5.384   0.648
 1260TIP3   OH2 3712   0.694   5.299   1.070
 1260TIP3    H1 3713   0.685   5.202   1.056
 1260TIP3    H2 3714   0.790   5.307   1.049
 1261TIP3   OH2 3715   0.533   4.808   0.945
 1261TIP3    H1 3716   0.557   4.729   0.998
 1261TIP3    H2 3717   0.513   4.768   0.859
 1262TIP3   OH2 3718   1.348   5.747   0.662
 1262TIP3    H1 3719   1.420   5.708   0.610
 1262TIP3    H2 3720   1.355   5.698   0.745
 1263TIP3   OH2 3721   1.218   5.232   0.954
 1263TIP3    H1 3722   1.257   5.153   0.913
 1263TIP3    H2 3723   1.299   5.279   0.978
 1264TIP3   OH2 3724   2.224   4.553   0.954
 1264TIP3    H1 3725   2.250   4.637   0.998
 1264TIP3    H2 3726   2.238   4.576   0.861
 1265TIP3   OH2 3727   1.619   4.729   0.986
 1265TIP3    H1 3728   1.662   4.644   1.005
 1265TIP3    H2 3729   1.589   4.714   0.894
 1266TIP3   OH2 3730   0.966   4.396   0.957
 1266TIP3    H1 3731   0.937   4.469   0.898
 1266TIP3    H2 3732   0.914   4.322   0.918
 1267TIP3   OH2 3733   1.652   4.485   0.575
 1267TIP3    H1 3734   1.725   4.469   0.639
 1267TIP3    H2 3735   1.704   4.520   0.500
 1268TIP3   OH2 3736   0.596   4.584   1.082
 1268TIP3    H1 3737   0.682   4.570   1.125
 1268TIP3    H2 3738   0.605   4.524   1.005
 1269TIP3   OH2 3739   1.038   4.803   0.844
 1269TIP3    H1 3740   1.129   4.773   0.861
 1269TIP3    H2 3741   0.992   4.719   0.823
 1270TIP3   OH2 3742   2.295   4.763   1.122
 1270TIP3    H1 3743   2.210   4.808   1.103
 1270TIP3    H2 3744   2.306   4.785   1.215
 1271TIP3   OH2 3745   0.951   4.358   1.390
 1271TIP3    H1 3746   0.901   4.411   1.326
 1271TIP3    H2 3747   0.915   4.393   1.473
 1272TIP3   OH2 3748   1.317   5.206   0.395
 1272TIP3    H1 3749   1.282   5.185   0.308
 1272TIP3    H2 3750   1.297   5.300   0.404
 1273TIP3   OH2 3751   1.064   5.141   1.187
 1273TIP3    H1 3752   1.000   5.204   1.228
 1273TIP3    H2 3753   1.095   5.192   1.110
 1274TIP3   OH2 3754   1.863   4.487   0.750
 1274TIP3    H1 3755   1.840   4.446   0.834
 1274TIP3    H2 3756   1.913   4.565   0.779
 1275TIP3   OH2 3757   0.838   4.502   1.181
 1275TIP3    H1 3758   0.885   4.586   1.196
 1275TIP3    H2 3759   0.890   4.463   1.107
 1276TIP3   OH2 3760   0.899   5.340   1.290
 1276TIP3    H1 3761   0.870   5.423   1.248
 1276TIP3    H2 3762   0.819   5.319   1.342
 1277TIP3   OH2 3763   1.719   5.548   0.758
 1277TIP3    H1 3764   1.629   5.542   0.796
 1277TIP3    H2 3765   1.713   5.634   0.712
 1278TIP3   OH2 3766   2.016   4.453   1.120
 1278TIP3    H1 3767   1.927   4.480   1.091
 1278TIP3    H2 3768   2.073   4.484   1.047
 1279TIP3   OH2 3769   1.310   4.096   1.104
 1279TIP3    H1 3770   1.294   4.001   1.121
 1279TIP3    H2 3771   1.232   4.135   1.149
 1280TIP3   OH2 3772   1.516   5.630   0.480
 1280TIP3    H1 3773   1.555   5.550   0.438
 1280TIP3    H2 3774   1.519   5.694   0.408
 1281TIP3   OH2 3775   1.562   5.395   0.348
 1281TIP3    H1 3776   1.568   5.323   0.282
 1281TIP3    H2 3777   1.592   5.347   0.428
 1282TIP3   OH2 3778   1.950   5.467   1.099
 1282TIP3    H1 3779   1.935   5.388   1.043
 1282TIP3    H2 3780   1.931   5.540   1.036
 1283TIP3   OH2 3781   1.235   4.853   0.340
 1283TIP3    H1 3782   1.153   4.897   0.314
 1283TIP3    H2 3783   1.289   4.880   0.264
 1284TIP3   OH2 3784   1.146   4.586   0.194
 1284TIP3    H1 3785   1.203   4.648   0.242
 1284TIP3    H2 3786   1.209   4.553   0.126
 1285TIP3   OH2 3787   2.145   5.104   0.945
 1285TIP3    H1 3788   2.060   5.154   0.951
 1285TIP3    H2 3789   2.173   5.128   0.854
 1286TIP3   OH2 3790   1.598   4.946   0.343
 1286TIP3    H1 3791   1.542   4.967   0.421
 1286TIP3    H2 3792   1.681   4.919   0.386
 1287TIP3   OH2 3793   1.826   4.985   1.237
 1287TIP3    H1 3794   1.818   5.068   1.287
 1287TIP3    H2 3795   1.738   4.984   1.191
 1288TIP3   OH2 3796   0.804   4.924   0.753
 1288TIP3    H1 3797   0.794   4.871   0.673
 1288TIP3    H2 3798   0.891   4.893   0.786
 1289TIP3   OH2 3799   0.940   5.289   0.938
 1289TIP3    H1 3800   0.923   5.336   0.855
 1289TIP3    H2 3801   1.038   5.285   0.938
 1290TIP3   OH2 3802   0.942   4.911   1.094
 1290TIP3    H1 3803   0.984   4.891   1.009
 1290TIP3    H2 3804   0.991   4.991   1.124
 1291TIP3   OH2 3805   1.475   5.553   0.877
 1291TIP3    H1 3806   1.475   5.626   0.941
 1291TIP3    H2 3807   1.466   5.474   0.935
 1292TIP3   OH2 3808   1.097   5.469   1.426
 1292TIP3    H1 3809   1.035   5.531   1.470
 1292TIP3    H2 3810   1.034   5.413   1.377
 1293TIP3   OH2 3811   1.456   4.822   0.148
 1293TIP3    H1 3812   1.507   4.865   0.222
 1293TIP3    H2 3813   1.450   4.897   0.087
 1294TIP3   OH2 3814   0.838   5.031   1.524
 1294TIP3    H1 3815   0.844   5.116   1.571
 1294TIP3    H2 3816   0.744   5.009   1.535
 1295TIP3   OH2 3817   0.893   5.639   1.514
 1295TIP3    H1 3818   0.860   5.637   1.422
 1295TIP3    H2 3819   0.812   5.613   1.565
 1296TIP3   OH2 3820   1.946   4.042   0.203
 1296TIP3    H1 3821   1.863   4.057   0.253
 1296TIP3    H2 3822   1.953   4.125   0.152
 1297TIP3   OH2 3823   0.466   5.161   1.455
 1297TIP3    H1 3824   0.444   5.127   1.367
 1297TIP3    H2 3825   0.507   5.082   1.497
 1298TIP3   OH2 3826   2.185   5.811   1.146
 1298TIP3    H1 3827   2.185   5.715   1.160
 1298TIP3    H2 3828   2.102   5.836   1.192
 1299TIP3   OH2 3829   1.292   5.595   1.281
 1299TIP3    H1 3830   1.289   5.688   1.313
 1299TIP3    H2 3831   1.219   5.555   1.334
 1300TIP3   OH2 3832   2.075   4.942   1.419
 1300TIP3    H1 3833   1.991   4.954   1.371
 1300TIP3    H2 3834   2.088   4.846   1.410
 1301TIP3   OH2 3835   0.677   5.345   1.453
 1301TIP3    H1 3836   0.728   5.325   1.534
 1301TIP3    H2 3837   0.603   5.281   1.459
 1302TIP3   OH2 3838   1.074   4.173   1.232
 1302TIP3    H1 3839   0.985   4.143   1.202
 1302TIP3    H2 3840   1.046   4.250   1.286
 1303TIP3   OH2 3841   1.603   4.284   1.427
 1303TIP3    H1 3842   1.670   4.259   1.493
 1303TIP3    H2 3843   1.518   4.270   1.474
 1304TIP3   OH2 3844   1.847   4.721   1.347
 1304TIP3    H1 3845   1.795   4.713   1.430
 1304TIP3    H2 3846   1.810   4.802   1.308
 1305TIP3   OH2 3847   1.228   4.273   0.208
 1305TIP3    H1 3848   1.208   4.240   0.298
 1305TIP3    H2 3849   1.192   4.201   0.153
 1306TIP3   OH2 3850   0.885   4.583   0.779
 1306TIP3    H1 3851   0.792   4.555   0.792
 1306TIP3    H2 3852   0.904   4.548   0.689
 1307TIP3   OH2 3853   1.380   4.668   0.489
 1307TIP3    H1 3854   1.326   4.737   0.444
 1307TIP3    H2 3855   1.435   4.635   0.415
 1308TIP3   OH2 3856   1.555   4.964   1.615
 1308TIP3    H1 3857   1.525   4.877   1.648
 1308TIP3    H2 3858   1.648   4.945   1.599
 1309TIP3   OH2 3859   1.534   4.687   0.728
 1309TIP3    H1 3860   1.475   4.719   0.657
 1309TIP3    H2 3861   1.568   4.606   0.683
 1310TIP3   OH2 3862   0.799   4.726   1.472
 1310TIP3    H1 3863   0.873   4.781   1.501
 1310TIP3    H2 3864   0.815   4.642   1.517
 1311TIP3   OH2 3865   0.417   4.246   1.048
 1311TIP3    H1 3866   0.493   4.276   1.102
 1311TIP3    H2 3867   0.445   4.268   0.958
 1312TIP3   OH2 3868   1.563   4.944   1.139
 1312TIP3    H1 3869   1.586   4.862   1.088
 1312TIP3    H2 3870   1.537   4.902   1.226
 1313TIP3   OH2 3871   1.219   4.396   0.825
 1313TIP3    H1 3872   1.134   4.394   0.874
 1313TIP3    H2 3873   1.283   4.390   0.897
 1314TIP3   OH2 3874   0.659   4.437   0.862
 1314TIP3    H1 3875   0.582   4.448   0.802
 1314TIP3    H2 3876   0.698   4.353   0.832
 1315TIP3   OH2 3877   0.952   4.493   0.535
 1315TIP3    H1 3878   1.046   4.468   0.524
 1315TIP3    H2 3879   0.912   4.452   0.457
 1316TIP3   OH2 3880   1.711   4.467   1.018
 1316TIP3    H1 3881   1.683   4.479   1.112
 1316TIP3    H2 3882   1.641   4.407   0.987
 1317TIP3   OH2 3883   1.877   6.162   1.246
 1317TIP3    H1 3884   1.876   6.181   1.150
 1317TIP3    H2 3885   1.958   6.208   1.275
 1318TIP3   OH2 3886   0.831   5.274   1.671
 1318TIP3    H1 3887   0.912   5.302   1.716
 1318TIP3    H2 3888   0.768   5.275   1.746
 1319TIP3   OH2 3889   1.302   4.730   0.914
 1319TIP3    H1 3890   1.372   4.688   0.860
 1319TIP3    H2 3891   1.323   4.699   1.003
 1320TIP3   OH2 3892   0.821   4.214   0.805
 1320TIP3    H1 3893   0.787   4.132   0.847
 1320TIP3    H2 3894   0.871   4.179   0.730
 1321TIP3   OH2 3895   1.911   5.247   0.935
 1321TIP3    H1 3896   1.933   5.298   0.854
 1321TIP3    H2 3897   1.825   5.206   0.911
 1322TIP3   OH2 3898   1.492   4.329   0.161
 1322TIP3    H1 3899   1.396   4.311   0.162
 1322TIP3    H2 3900   1.496   4.425   0.179
 1323TIP3   OH2 3901   1.438   5.348   1.301
 1323TIP3    H1 3902   1.410   5.279   1.362
 1323TIP3    H2 3903   1.374   5.419   1.317
 1324TIP3   OH2 3904   1.536   4.581   0.274
 1324TIP3    H1 3905   1.633   4.580   0.288
 1324TIP3    H2 3906   1.524   4.657   0.213
 1325TIP3   OH2 3907   0.700   5.045   0.982
 1325TIP3    H1 3908   0.739   5.009   0.900
 1325TIP3    H2 3909   0.727   4.976   1.045
 1326TIP3   OH2 3910   0.574   4.965   1.604
 1326TIP3    H1 3911   0.607   4.945   1.694
 1326TIP3    H2 3912   0.525   4.884   1.582
 1327TIP3   OH2 3913   1.303   5.071   1.618
 1327TIP3    H1 3914   1.252   5.017   1.555
 1327TIP3    H2 3915   1.393   5.038   1.598
 1328TIP3   OH2 3916   1.571   5.610   1.189
 1328TIP3    H1 3917   1.479   5.584   1.209
 1328TIP3    H2 3918   1.596   5.650   1.275
 1329TIP3   OH2 3919   1.982   4.661   0.110
 1329TIP3    H1 3920   1.921   4.618   0.045
 1329TIP3    H2 3921   1.980   4.751   0.070
 1330TIP3   OH2 3922   2.200   5.522   1.187
 1330TIP3    H1 3923   2.102   5.515   1.180
 1330TIP3    H2 3924   2.225   5.491   1.098
 1331TIP3   OH2 3925   1.677   5.112   0.848
 1331TIP3    H1 3926   1.584   5.085   0.866
 1331TIP3    H2 3927   1.711   5.030   0.806
 1332TIP3   OH2 3928   1.073   5.700   1.109
 1332TIP3    H1 3929   1.083   5.710   1.014
 1332TIP3    H2 3930   1.155   5.657   1.135
 1333TIP3   OH2 3931   1.470   5.320   1.032
 1333TIP3    H1 3932   1.459   5.323   1.130
 1333TIP3    H2 3933   1.542   5.255   1.025
 1334TIP3   OH2 3934   1.715   5.849   1.091
 1334TIP3    H1 3935   1.638   5.788   1.091
 1334TIP3    H2 3936   1.693   5.909   1.016
 1335TIP3   OH2 3937   0.798   4.458   1.606
 1335TIP3    H1 3938   0.702   4.466   1.612
 1335TIP3    H2 3939   0.819   4.393   1.675
 1336TIP3   OH2 3940   1.621   5.177   0.185
 1336TIP3    H1 3941   1.603   5.096   0.236
 1336TIP3    H2 3942   1.708   5.155   0.146
 1337TIP3   OH2 3943   0.560   5.535   1.285
 1337TIP3    H1 3944   0.569   5.448   1.243
 1337TIP3    H2 3945   0.617   5.521   1.362
 1338TIP3   OH2 3946   1.638   4.512   1.275
 1338TIP3    H1 3947   1.698   4.567   1.328
 1338TIP3    H2 3948   1.621   4.436   1.334
 1339TIP3   OH2 3949   1.513   4.275   0.447
 1339TIP3    H1 3950   1.498   4.298   0.353
 1339TIP3    H2 3951   1.551   4.358   0.482
 1340TIP3   OH2 3952   1.225   4.450   0.556
 1340TIP3    H1 3953   1.282   4.528   0.538
 1340TIP3    H2 3954   1.222   4.449   0.654
 1341TIP3   OH2 3955   1.501   4.794   1.359
 1341TIP3    H1 3956   1.433   4.817   1.422
 1341TIP3    H2 3957   1.503   4.698   1.367
 1342TIP3   OH2 3958   1.357   4.182   0.663
 1342TIP3    H1 3959   1.341   4.262   0.715
 1342TIP3    H2 3960   1.414   4.217   0.592
 1343TIP3   OH2 3961   0.891   4.161   0.462
 1343TIP3    H1 3962   0.855   4.248   0.434
 1343TIP3    H2 3963   0.986   4.173   0.452
 1344TIP3   OH2 3964   2.111   4.672   1.339
 1344TIP3    H1 3965   2.013   4.675   1.351
 1344TIP3    H2 3966   2.116   4.627   1.254
 1345TIP3   OH2 3967   1.762   4.866   0.730
 1345TIP3    H1 3968   1.684   4.809   0.742
 1345TIP3    H2 3969   1.831   4.818   0.780
 1346TIP3   OH2 3970   1.739   5.818   0.687
 1346TIP3    H1 3971   1.704   5.867   0.610
 1346TIP3    H2 3972   1.835   5.832   0.670
 1347TIP3   OH2 3973   0.810   4.093   1.202
 1347TIP3    H1 3974   0.775   4.057   1.118
 1347TIP3    H2 3975   0.802   4.017   1.263
 1348TIP3   OH2 3976   0.505   5.830   1.652
 1348TIP3    H1 3977   0.587   5.831   1.706
 1348TIP3    H2 3978   0.476   5.738   1.660
 1349TIP3   OH2 3979   0.987   5.813   1.706
 1349TIP3    H1 3980   1.080   5.788   1.707
 1349TIP3    H2 3981   0.954   5.757   1.633
 1350TIP3   OH2 3982   1.621   5.726   1.436
 1350TIP3    H1 3983   1.612   5.654   1.502
 1350TIP3    H2 3984   1.700   5.774   1.467
 1351TIP3   OH2 3985   0.633   5.257   1.864
 1351TIP3    H1 3986   0.652   5.162   1.862
 1351TIP3    H2 3987   0.546   5.260   1.817
 1352TIP3   OH2 3988   1.239   5.343   1.631
 1352TIP3    H1 3989   1.196   5.360   1.545
 1352TIP3    H2 3990   1.265   5.249   1.623
 1353TIP3   OH2 3991   1.737   5.346   1.240
 1353TIP3    H1 3992   1.800   5.405   1.194
 1353TIP3    H2 3993   1.654   5.396   1.235
 1354TIP3   OH2 3994   0.746   4.996   1.840
 1354TIP3    H1 3995   0.821   4.948   1.804
 1354TIP3    H2 3996   0.779   5.025   1.928
 1355TIP3   OH2 3997   1.615   5.284   1.642
 1355TIP3    H1 3998   1.675   5.248   1.577
 1355TIP3    H2 3999   1.588   5.205   1.692
 1356TIP3   OH2 4000   1.285   5.046   1.323
 1356TIP3    H1 4001   1.304   4.968   1.271
 1356TIP3    H2 4002   1.199   5.075   1.285
 1357TIP3   OH2 4003   1.836   4.954   1.700
 1357TIP3    H1 4004   1.876   4.868   1.684
 1357TIP3    H2 4005   1.896   5.014   1.654
 1358TIP3   OH2 4006   1.864   5.208   1.431
 1358TIP3    H1 4007   1.806   5.260   1.370
 1358TIP3    H2 4008   1.951   5.227   1.389
 1359TIP3   OH2 4009   1.099   4.771   1.845
 1359TIP3    H1 4010   1.028   4.704   1.850
 1359TIP3    H2 4011   1.126   4.765   1.750
 1360TIP3   OH2 4012   1.336   4.226   1.502
 1360TIP3    H1 4013   1.283   4.304   1.478
 1360TIP3    H2 4014   1.270   4.154   1.491
 1361TIP3   OH2 4015   1.481   4.715   1.713
 1361TIP3    H1 4016   1.435   4.702   1.798
 1361TIP3    H2 4017   1.402   4.708   1.653
 1362TIP3   OH2 4018   1.716   4.670   1.576
 1362TIP3    H1 4019   1.634   4.675   1.629
 1362TIP3    H2 4020   1.781   4.636   1.641
 1363TIP3   OH2 4021   1.953   4.612   1.729
 1363TIP3    H1 4022   1.958   4.515   1.744
 1363TIP3    H2 4023   1.941   4.647   1.820
 1364TIP3   OH2 4024   0.925   4.559   1.912
 1364TIP3    H1 4025   0.934   4.471   1.869
 1364TIP3    H2 4026   0.962   4.542   2.000
 1365TIP3   OH2 4027   1.439   4.225   1.758
 1365TIP3    H1 4028   1.504   4.153   1.749
 1365TIP3    H2 4029   1.396   4.224   1.670
 1366TIP3   OH2 4030   1.503   4.437   1.921
 1366TIP3    H1 4031   1.481   4.369   1.853
 1366TIP3    H2 4032   1.429   4.501   1.909
 1367TIP3   OH2 4033   1.993   5.905   0.640
 1367TIP3    H1 4034   2.015   5.942   0.727
 1367TIP3    H2 4035   2.044   5.961   0.580
 1368TIP3   OH2 4036   2.014   5.935   0.920
 1368TIP3    H1 4037   1.967   5.849   0.915
 1368TIP3    H2 4038   2.088   5.910   0.977
 1369TIP3   OH2 4039   2.061   5.612   1.491
 1369TIP3    H1 4040   1.987   5.620   1.555
 1369TIP3    H2 4041   2.101   5.701   1.496
 1370TIP3   OH2 4042   1.882   5.117   0.105
 1370TIP3    H1 4043   1.949   5.184   0.078
 1370TIP3    H2 4044   1.924   5.080   0.186
 1371TIP3   OH2 4045   2.006   4.990   0.315
 1371TIP3    H1 4046   1.940   4.947   0.374
 1371TIP3    H2 4047   2.068   5.030   0.378
 1372TIP3   OH2 4048   2.061   5.386   0.747
 1372TIP3    H1 4049   2.113   5.320   0.698
 1372TIP3    H2 4050   2.048   5.457   0.680
 1373TIP3   OH2 4051   1.888   5.685   0.939
 1373TIP3    H1 4052   1.817   5.725   0.993
 1373TIP3    H2 4053   1.836   5.637   0.871
 1374TIP3   OH2 4054   1.944   4.891  -0.038
 1374TIP3    H1 4055   1.868   4.877  -0.096
 1374TIP3    H2 4056   1.918   4.973   0.009
 1375TIP3   OH2 4057   1.819   4.583  -0.090
 1375TIP3    H1 4058   1.749   4.637  -0.131
 1375TIP3    H2 4059   1.784   4.492  -0.099
 1376TIP3   OH2 4060   1.826   4.845   0.464
 1376TIP3    H1 4061   1.827   4.748   0.457
 1376TIP3    H2 4062   1.809   4.859   0.560
 1377TIP3   OH2 4063   0.453   4.912   1.217
 1377TIP3    H1 4064   0.460   4.880   1.125
 1377TIP3    H2 4065   0.550   4.914   1.240
 1378TIP3   OH2 4066   2.107   5.273   1.319
 1378TIP3    H1 4067   2.178   5.207   1.307
 1378TIP3    H2 4068   2.130   5.341   1.254
 1379TIP3   OH2 4069   2.291   5.077   1.328
 1379TIP3    H1 4070   2.216   5.029   1.368
 1379TIP3    H2 4071   2.363   5.012   1.346
 1380TIP3   OH2 4072   1.749   4.318  -0.082
 1380TIP3    H1 4073   1.834   4.283  -0.048
 1380TIP3    H2 4074   1.684   4.271  -0.029
 1381TIP3   OH2 4075   1.813   4.564   0.354
 1381TIP3    H1 4076   1.854   4.475   0.369
 1381TIP3    H2 4077   1.870   4.597   0.283
 1382TIP3   OH2 4078   1.975   4.735   0.851
 1382TIP3    H1 4079   2.060   4.762   0.810
 1382TIP3    H2 4080   1.987   4.774   0.939
 1383TIP3   OH2 4081   2.044   4.882   1.080
 1383TIP3    H1 4082   1.967   4.915   1.132
 1383TIP3    H2 4083   2.075   4.965   1.037
 1384TIP3   OH2 4084   0.657   4.607   1.882
 1384TIP3    H1 4085   0.755   4.602   1.881
 1384TIP3    H2 4086   0.636   4.521   1.923
 1385TIP3   OH2 4087   2.495   4.475   1.637
 1385TIP3    H1 4088   2.554   4.409   1.595
 1385TIP3    H2 4089   2.466   4.529   1.561
 1386TIP3   OH2 4090   1.925   4.314   0.390
 1386TIP3    H1 4091   1.969   4.298   0.476
 1386TIP3    H2 4092   1.862   4.239   0.389
 1387TIP3   OH2 4093   0.629   4.303   1.211
 1387TIP3    H1 4094   0.692   4.229   1.220
 1387TIP3    H2 4095   0.690   4.379   1.212
 1388TIP3   OH2 4096   0.417   4.573   1.288
 1388TIP3    H1 4097   0.474   4.568   1.208
 1388TIP3    H2 4098   0.448   4.655   1.327
 1389TIP3   OH2 4099   2.365   4.612   1.442
 1389TIP3    H1 4100   2.278   4.653   1.460
 1389TIP3    H2 4101   2.337   4.539   1.384
 1390TIP3   OH2 4102   2.010   4.251   0.013
 1390TIP3    H1 4103   2.073   4.191  -0.029
 1390TIP3    H2 4104   2.063   4.333   0.019
 1391TIP3   OH2 4105   0.630   4.152   1.600
 1391TIP3    H1 4106   0.579   4.153   1.682
 1391TIP3    H2 4107   0.567   4.195   1.539
 1392TIP3   OH2 4108   0.676   5.579   1.675
 1392TIP3    H1 4109   0.583   5.557   1.659
 1392TIP3    H2 4110   0.681   5.571   1.772
 1393TIP3   OH2 4111   0.849   5.610   1.237
 1393TIP3    H1 4112   0.779   5.634   1.172
 1393TIP3    H2 4113   0.929   5.643   1.191
 1394TIP3   OH2 4114   1.294   5.862   1.365
 1394TIP3    H1 4115   1.336   5.859   1.454
 1394TIP3    H2 4116   1.360   5.911   1.313
 1395TIP3   OH2 4117   1.469   6.017   1.222
 1395TIP3    H1 4118   1.535   5.961   1.177
 1395TIP3    H2 4119   1.525   6.070   1.282
 1396TIP3   OH2 4120   2.266   4.375   1.321
 1396TIP3    H1 4121   2.175   4.369   1.288
 1396TIP3    H2 4122   2.296   4.282   1.309
 1397TIP3   OH2 4123   1.213   5.899   0.888
 1397TIP3    H1 4124   1.118   5.881   0.872
 1397TIP3    H2 4125   1.209   5.975   0.950
 1398TIP3   OH2 4126   1.464   5.825   0.961
 1398TIP3    H1 4127   1.370   5.841   0.936
 1398TIP3    H2 4128   1.508   5.895   0.910
 1399TIP3   OH2 4129   1.665   6.010   0.872
 1399TIP3    H1 4130   1.653   6.094   0.824
 1399TIP3    H2 4131   1.691   5.948   0.800
 1400TIP3   OH2 4132   1.472   4.292   0.947
 1400TIP3    H1 4133   1.426   4.222   0.997
 1400TIP3    H2 4134   1.539   4.242   0.897
 1401TIP3   OH2 4135   1.993   4.171   0.845
 1401TIP3    H1 4136   2.028   4.225   0.770
 1401TIP3    H2 4137   1.897   4.190   0.839
 1402TIP3   OH2 4138   2.089   4.271   0.609
 1402TIP3    H1 4139   2.163   4.220   0.569
 1402TIP3    H2 4140   2.121   4.363   0.595
 1403TIP3   OH2 4141   0.716   4.001   0.954
 1403TIP3    H1 4142   0.632   3.957   0.972
 1403TIP3    H2 4143   0.776   3.923   0.948
 1404TIP3   OH2 4144   1.161   4.040   0.831
 1404TIP3    H1 4145   1.228   4.088   0.780
 1404TIP3    H2 4146   1.178   4.070   0.921
 1405TIP3   OH2 4147   1.711   4.179   0.820
 1405TIP3    H1 4148   1.703   4.141   0.732
 1405TIP3    H2 4149   1.697   4.099   0.877
 1406TIP3   OH2 4150   1.742   4.101   0.385
 1406TIP3    H1 4151   1.654   4.142   0.390
 1406TIP3    H2 4152   1.725   4.016   0.431
 1407TIP3   OH2 4153   1.161   4.204   0.466
 1407TIP3    H1 4154   1.210   4.156   0.535
 1407TIP3    H2 4155   1.185   4.296   0.492
 1408TIP3   OH2 4156   0.924   4.274   1.849
 1408TIP3    H1 4157   0.893   4.205   1.909
 1408TIP3    H2 4158   1.018   4.280   1.875
 1409TIP3   OH2 4159   1.174   4.280   1.969
 1409TIP3    H1 4160   1.257   4.254   1.926
 1409TIP3    H2 4161   1.162   4.207   2.033
 1410TIP3   OH2 4162   2.001   4.340   1.755
 1410TIP3    H1 4163   2.022   4.308   1.845
 1410TIP3    H2 4164   2.089   4.336   1.711
 1411TIP3   OH2 4165   1.940   5.892   1.249
 1411TIP3    H1 4166   1.861   5.859   1.200
 1411TIP3    H2 4167   1.918   5.987   1.253
 1412TIP3   OH2 4168   3.218   5.271   0.069
 1412TIP3    H1 4169   3.197   5.360   0.032
 1412TIP3    H2 4170   3.135   5.225   0.045
 1413TIP3   OH2 4171   3.203   5.271   0.401
 1413TIP3    H1 4172   3.237   5.238   0.486
 1413TIP3    H2 4173   3.167   5.191   0.359
 1414TIP3   OH2 4174   2.505   5.157   0.758
 1414TIP3    H1 4175   2.534   5.090   0.822
 1414TIP3    H2 4176   2.580   5.217   0.757
 1415TIP3   OH2 4177   3.461   5.557   0.069
 1415TIP3    H1 4178   3.437   5.491   0.135
 1415TIP3    H2 4179   3.480   5.634   0.124
 1416TIP3   OH2 4180   2.477   5.570   0.482
 1416TIP3    H1 4181   2.468   5.472   0.485
 1416TIP3    H2 4182   2.574   5.578   0.475
 1417TIP3   OH2 4183   2.184   4.774   0.268
 1417TIP3    H1 4184   2.134   4.856   0.284
 1417TIP3    H2 4185   2.113   4.718   0.231
 1418TIP3   OH2 4186   2.242   5.061   0.444
 1418TIP3    H1 4187   2.291   4.983   0.479
 1418TIP3    H2 4188   2.300   5.091   0.372
 1419TIP3   OH2 4189   3.064   5.993   0.129
 1419TIP3    H1 4190   3.129   5.994   0.056
 1419TIP3    H2 4191   3.118   5.981   0.208
 1420TIP3   OH2 4192   3.004   5.490   0.442
 1420TIP3    H1 4193   3.045   5.412   0.400
 1420TIP3    H2 4194   3.086   5.536   0.468
 1421TIP3   OH2 4195   4.013   4.807   0.440
 1421TIP3    H1 4196   4.043   4.891   0.479
 1421TIP3    H2 4197   4.058   4.810   0.353
 1422TIP3   OH2 4198   3.407   4.988   0.477
 1422TIP3    H1 4199   3.463   4.910   0.498
 1422TIP3    H2 4200   3.388   4.972   0.383
 1423TIP3   OH2 4201   2.758   4.650   0.437
 1423TIP3    H1 4202   2.729   4.723   0.378
 1423TIP3    H2 4203   2.709   4.575   0.395
 1424TIP3   OH2 4204   3.447   4.741   0.061
 1424TIP3    H1 4205   3.523   4.727   0.123
 1424TIP3    H2 4206   3.495   4.769  -0.019
 1425TIP3   OH2 4207   2.388   4.853   0.548
 1425TIP3    H1 4208   2.470   4.832   0.596
 1425TIP3    H2 4209   2.399   4.796   0.469
 1426TIP3   OH2 4210   2.829   5.050   0.338
 1426TIP3    H1 4211   2.921   5.021   0.353
 1426TIP3    H2 4212   2.787   4.967   0.307
 1427TIP3   OH2 4213   4.088   5.013   0.614
 1427TIP3    H1 4214   4.006   5.063   0.595
 1427TIP3    H2 4215   4.115   5.053   0.699
 1428TIP3   OH2 4216   2.751   4.632   0.873
 1428TIP3    H1 4217   2.691   4.670   0.807
 1428TIP3    H2 4218   2.699   4.649   0.955
 1429TIP3   OH2 4219   3.111   5.468  -0.085
 1429TIP3    H1 4220   3.060   5.465  -0.168
 1429TIP3    H2 4221   3.083   5.553  -0.050
 1430TIP3   OH2 4222   2.857   5.410   0.668
 1430TIP3    H1 4223   2.794   5.476   0.705
 1430TIP3    H2 4224   2.899   5.460   0.595
 1431TIP3   OH2 4225   3.653   4.746   0.240
 1431TIP3    H1 4226   3.655   4.704   0.327
 1431TIP3    H2 4227   3.710   4.823   0.256
 1432TIP3   OH2 4228   2.622   4.749   0.658
 1432TIP3    H1 4229   2.683   4.823   0.682
 1432TIP3    H2 4230   2.673   4.709   0.584
 1433TIP3   OH2 4231   2.686   5.604   0.767
 1433TIP3    H1 4232   2.660   5.690   0.728
 1433TIP3    H2 4233   2.607   5.588   0.823
 1434TIP3   OH2 4234   2.081   5.287   0.005
 1434TIP3    H1 4235   2.045   5.303  -0.085
 1434TIP3    H2 4236   2.097   5.380   0.035
 1435TIP3   OH2 4237   3.519   5.798   0.242
 1435TIP3    H1 4238   3.431   5.785   0.285
 1435TIP3    H2 4239   3.509   5.890   0.212
 1436TIP3   OH2 4240   3.811   4.704   0.602
 1436TIP3    H1 4241   3.726   4.743   0.575
 1436TIP3    H2 4242   3.874   4.739   0.536
 1437TIP3   OH2 4243   3.080   4.338   0.541
 1437TIP3    H1 4244   3.085   4.248   0.581
 1437TIP3    H2 4245   3.012   4.377   0.602
 1438TIP3   OH2 4246   3.743   5.721   0.590
 1438TIP3    H1 4247   3.734   5.644   0.530
 1438TIP3    H2 4248   3.731   5.796   0.528
 1439TIP3   OH2 4249   3.050   5.138  -0.111
 1439TIP3    H1 4250   2.972   5.194  -0.134
 1439TIP3    H2 4251   3.120   5.180  -0.163
 1440TIP3   OH2 4252   3.939   5.360   0.435
 1440TIP3    H1 4253   3.857   5.413   0.441
 1440TIP3    H2 4254   3.966   5.378   0.343
 1441TIP3   OH2 4255   3.338   5.134  -0.134
 1441TIP3    H1 4256   3.310   5.188  -0.057
 1441TIP3    H2 4257   3.429   5.165  -0.145
 1442TIP3   OH2 4258   3.618   5.236   0.731
 1442TIP3    H1 4259   3.618   5.319   0.783
 1442TIP3    H2 4260   3.532   5.244   0.685
 1443TIP3   OH2 4261   2.615   5.194   0.233
 1443TIP3    H1 4262   2.574   5.136   0.165
 1443TIP3    H2 4263   2.693   5.143   0.260
 1444TIP3   OH2 4264   2.744   5.604   0.381
 1444TIP3    H1 4265   2.723   5.570   0.293
 1444TIP3    H2 4266   2.834   5.569   0.397
 1445TIP3   OH2 4267   2.756   5.166   0.587
 1445TIP3    H1 4268   2.786   5.148   0.495
 1445TIP3    H2 4269   2.796   5.253   0.606
 1446TIP3   OH2 4270   3.279   5.803   0.362
 1446TIP3    H1 4271   3.263   5.884   0.415
 1446TIP3    H2 4272   3.263   5.731   0.427
 1447TIP3   OH2 4273   2.890   5.724   0.910
 1447TIP3    H1 4274   2.830   5.786   0.957
 1447TIP3    H2 4275   2.825   5.671   0.861
 1448TIP3   OH2 4276   2.644   5.278   1.012
 1448TIP3    H1 4277   2.649   5.366   1.056
 1448TIP3    H2 4278   2.549   5.259   1.025
 1449TIP3   OH2 4279   2.979   5.734  -0.051
 1449TIP3    H1 4280   3.030   5.791   0.009
 1449TIP3    H2 4281   2.895   5.782  -0.053
 1450TIP3   OH2 4282   2.684   5.892   0.998
 1450TIP3    H1 4283   2.650   5.891   0.906
 1450TIP3    H2 4284   2.604   5.870   1.050
 1451TIP3   OH2 4285   2.484   5.033   0.040
 1451TIP3    H1 4286   2.416   5.078  -0.015
 1451TIP3    H2 4287   2.443   4.947   0.052
 1452TIP3   OH2 4288   2.264   5.423   0.944
 1452TIP3    H1 4289   2.196   5.402   0.877
 1452TIP3    H2 4290   2.300   5.334   0.967
 1453TIP3   OH2 4291   2.116   5.620   0.570
 1453TIP3    H1 4292   2.213   5.612   0.571
 1453TIP3    H2 4293   2.102   5.696   0.628
 1454TIP3   OH2 4294   3.985   6.063   0.638
 1454TIP3    H1 4295   3.981   5.967   0.652
 1454TIP3    H2 4296   3.901   6.091   0.680
 1455TIP3   OH2 4297   3.089   5.853   0.769
 1455TIP3    H1 4298   3.086   5.945   0.801
 1455TIP3    H2 4299   3.017   5.812   0.822
 1456TIP3   OH2 4300   2.271   5.810   0.114
 1456TIP3    H1 4301   2.345   5.811   0.178
 1456TIP3    H2 4302   2.199   5.782   0.173
 1457TIP3   OH2 4303   3.871   5.197   0.910
 1457TIP3    H1 4304   3.791   5.208   0.856
 1457TIP3    H2 4305   3.888   5.101   0.901
 1458TIP3   OH2 4306   2.469   5.606   0.932
 1458TIP3    H1 4307   2.518   5.588   1.015
 1458TIP3    H2 4308   2.394   5.542   0.939
 1459TIP3   OH2 4309   2.872   4.431   0.710
 1459TIP3    H1 4310   2.782   4.398   0.688
 1459TIP3    H2 4311   2.846   4.510   0.762
 1460TIP3   OH2 4312   3.403   4.539   0.912
 1460TIP3    H1 4313   3.473   4.517   0.977
 1460TIP3    H2 4314   3.321   4.524   0.964
 1461TIP3   OH2 4315   3.633   4.969   0.824
 1461TIP3    H1 4316   3.591   4.968   0.913
 1461TIP3    H2 4317   3.616   5.060   0.794
 1462TIP3   OH2 4318   3.023   4.502  -0.302
 1462TIP3    H1 4319   2.979   4.478  -0.217
 1462TIP3    H2 4320   2.983   4.439  -0.362
 1463TIP3   OH2 4321   2.801   4.944   0.736
 1463TIP3    H1 4322   2.750   4.964   0.817
 1463TIP3    H2 4323   2.785   5.025   0.683
 1464TIP3   OH2 4324   2.684   4.829   0.250
 1464TIP3    H1 4325   2.590   4.806   0.267
 1464TIP3    H2 4326   2.695   4.791   0.160
 1465TIP3   OH2 4327   3.176   4.911  -0.031
 1465TIP3    H1 4328   3.119   4.988  -0.052
 1465TIP3    H2 4329   3.254   4.937  -0.083
 1466TIP3   OH2 4330   3.348   5.193   1.062
 1466TIP3    H1 4331   3.326   5.121   1.125
 1466TIP3    H2 4332   3.441   5.208   1.085
 1467TIP3   OH2 4333   3.332   4.941   0.219
 1467TIP3    H1 4334   3.278   4.981   0.148
 1467TIP3    H2 4335   3.366   4.863   0.170
 1468TIP3   OH2 4336   2.620   4.972   0.944
 1468TIP3    H1 4337   2.643   5.037   1.012
 1468TIP3    H2 4338   2.605   4.891   0.996
 1469TIP3   OH2 4339   2.689   4.388  -0.323
 1469TIP3    H1 4340   2.663   4.425  -0.238
 1469TIP3    H2 4341   2.650   4.449  -0.387
 1470TIP3   OH2 4342   2.211   4.496   0.524
 1470TIP3    H1 4343   2.287   4.526   0.578
 1470TIP3    H2 4344   2.252   4.461   0.443
 1471TIP3   OH2 4345   2.180   4.479   0.041
 1471TIP3    H1 4346   2.231   4.517  -0.033
 1471TIP3    H2 4347   2.121   4.554   0.063
 1472TIP3   OH2 4348   3.337   5.190   0.639
 1472TIP3    H1 4349   3.372   5.118   0.582
 1472TIP3    H2 4350   3.311   5.139   0.718
 1473TIP3   OH2 4351   3.011   4.615   0.329
 1473TIP3    H1 4352   2.919   4.637   0.361
 1473TIP3    H2 4353   3.062   4.680   0.382
 1474TIP3   OH2 4354   2.444   4.711   0.317
 1474TIP3    H1 4355   2.349   4.723   0.293
 1474TIP3    H2 4356   2.458   4.617   0.297
 1475TIP3   OH2 4357   2.718   4.709   0.008
 1475TIP3    H1 4358   2.810   4.726  -0.021
 1475TIP3    H2 4359   2.666   4.738  -0.070
 1476TIP3   OH2 4360   3.512   4.733   0.514
 1476TIP3    H1 4361   3.478   4.743   0.606
 1476TIP3    H2 4362   3.446   4.675   0.475
 1477TIP3   OH2 4363   2.546   4.748  -0.197
 1477TIP3    H1 4364   2.461   4.707  -0.217
 1477TIP3    H2 4365   2.602   4.726  -0.275
 1478TIP3   OH2 4366   3.674   6.418   0.734
 1478TIP3    H1 4367   3.674   6.441   0.640
 1478TIP3    H2 4368   3.756   6.463   0.764
 1479TIP3   OH2 4369   2.630   5.527   1.153
 1479TIP3    H1 4370   2.709   5.557   1.201
 1479TIP3    H2 4371   2.565   5.525   1.225
 1480TIP3   OH2 4372   3.091   4.963   0.402
 1480TIP3    H1 4373   3.178   4.949   0.363
 1480TIP3    H2 4374   3.106   4.941   0.496
 1481TIP3   OH2 4375   2.626   4.462   0.287
 1481TIP3    H1 4376   2.585   4.386   0.334
 1481TIP3    H2 4377   2.632   4.428   0.196
 1482TIP3   OH2 4378   3.071   4.878   0.697
 1482TIP3    H1 4379   2.981   4.914   0.712
 1482TIP3    H2 4380   3.128   4.938   0.750
 1483TIP3   OH2 4381   2.827   5.259  -0.189
 1483TIP3    H1 4382   2.745   5.213  -0.217
 1483TIP3    H2 4383   2.795   5.309  -0.111
 1484TIP3   OH2 4384   3.705   5.504   0.424
 1484TIP3    H1 4385   3.731   5.551   0.342
 1484TIP3    H2 4386   3.619   5.463   0.398
 1485TIP3   OH2 4387   3.205   5.586   0.790
 1485TIP3    H1 4388   3.233   5.566   0.880
 1485TIP3    H2 4389   3.166   5.675   0.798
 1486TIP3   OH2 4390   2.500   5.292   0.469
 1486TIP3    H1 4391   2.538   5.262   0.384
 1486TIP3    H2 4392   2.538   5.229   0.532
 1487TIP3   OH2 4393   2.381   5.208   1.081
 1487TIP3    H1 4394   2.397   5.194   1.177
 1487TIP3    H2 4395   2.309   5.144   1.064
 1488TIP3   OH2 4396   3.106   5.326   1.102
 1488TIP3    H1 4397   3.046   5.266   1.055
 1488TIP3    H2 4398   3.194   5.292   1.074
 1489TIP3   OH2 4399   3.364   5.849   0.685
 1489TIP3    H1 4400   3.268   5.846   0.700
 1489TIP3    H2 4401   3.393   5.899   0.765
 1490TIP3   OH2 4402   3.994   5.774   0.678
 1490TIP3    H1 4403   3.896   5.769   0.670
 1490TIP3    H2 4404   4.020   5.746   0.588
 1491TIP3   OH2 4405   3.471   5.370   0.339
 1491TIP3    H1 4406   3.377   5.345   0.352
 1491TIP3    H2 4407   3.505   5.289   0.297
 1492TIP3   OH2 4408   2.606   5.588   0.108
 1492TIP3    H1 4409   2.601   5.666   0.048
 1492TIP3    H2 4410   2.512   5.567   0.115
 1493TIP3   OH2 4411   2.171   4.897  -0.197
 1493TIP3    H1 4412   2.212   4.984  -0.178
 1493TIP3    H2 4413   2.089   4.903  -0.144
 1494TIP3   OH2 4414   2.747   5.362   0.048
 1494TIP3    H1 4415   2.706   5.451   0.060
 1494TIP3    H2 4416   2.702   5.312   0.118
 1495TIP3   OH2 4417   2.869   5.937   0.563
 1495TIP3    H1 4418   2.908   6.010   0.512
 1495TIP3    H2 4419   2.947   5.903   0.610
 1496TIP3   OH2 4420   2.521   5.804  -0.029
 1496TIP3    H1 4421   2.427   5.821  -0.012
 1496TIP3    H2 4422   2.556   5.896  -0.030
 1497TIP3   OH2 4423   3.258   5.574   0.522
 1497TIP3    H1 4424   3.247   5.573   0.619
 1497TIP3    H2 4425   3.336   5.519   0.511
 1498TIP3   OH2 4426   3.506   6.098   0.582
 1498TIP3    H1 4427   3.430   6.038   0.575
 1498TIP3    H2 4428   3.489   6.163   0.510
 1499TIP3   OH2 4429   2.590   4.715   1.088
 1499TIP3    H1 4430   2.494   4.721   1.102
 1499TIP3    H2 4431   2.617   4.658   1.162
 1500TIP3   OH2 4432   2.309   5.799   0.721
 1500TIP3    H1 4433   2.361   5.726   0.756
 1500TIP3    H2 4434   2.335   5.872   0.779
 1501TIP3   OH2 4435   2.283   5.141  -0.113
 1501TIP3    H1 4436   2.212   5.187  -0.064
 1501TIP3    H2 4437   2.318   5.211  -0.168
 1502TIP3   OH2 4438   3.430   4.773   0.769
 1502TIP3    H1 4439   3.505   4.822   0.807
 1502TIP3    H2 4440   3.420   4.698   0.830
 1503TIP3   OH2 4441   3.292   4.537  -0.060
 1503TIP3    H1 4442   3.270   4.576  -0.143
 1503TIP3    H2 4443   3.347   4.608  -0.018
 1504TIP3   OH2 4444   3.005   4.703   0.041
 1504TIP3    H1 4445   3.066   4.774   0.012
 1504TIP3    H2 4446   3.002   4.715   0.135
 1505TIP3   OH2 4447   3.268   5.028   0.848
 1505TIP3    H1 4448   3.287   5.085   0.925
 1505TIP3    H2 4449   3.324   4.951   0.866
 1506TIP3   OH2 4450   3.140   4.438   0.171
 1506TIP3    H1 4451   3.117   4.521   0.161
 1506TIP3    H2 4452   3.200   4.423   0.087
 1507TIP3   OH2 4453   2.651   4.443  -0.048
 1507TIP3    H1 4454   2.656   4.538  -0.024
 1507TIP3    H2 4455   2.747   4.422  -0.050
 1508TIP3   OH2 4456   3.903   4.931   0.832
 1508TIP3    H1 4457   3.805   4.925   0.831
 1508TIP3    H2 4458   3.924   4.899   0.743
 1509TIP3   OH2 4459   3.554   5.127   0.226
 1509TIP3    H1 4460   3.482   5.063   0.233
 1509TIP3    H2 4461   3.628   5.080   0.272
 1510TIP3   OH2 4462   2.234   4.634  -0.190
 1510TIP3    H1 4463   2.219   4.732  -0.194
 1510TIP3    H2 4464   2.150   4.603  -0.224
 1511TIP3   OH2 4465   3.535   6.072   0.185
 1511TIP3    H1 4466   3.488   6.077   0.099
 1511TIP3    H2 4467   3.627   6.065   0.158
 1512TIP3   OH2 4468   2.609   4.347   0.689
 1512TIP3    H1 4469   2.572   4.314   0.604
 1512TIP3    H2 4470   2.595   4.270   0.748
 1513TIP3   OH2 4471   2.117   5.557   0.057
 1513TIP3    H1 4472   2.076   5.603   0.130
 1513TIP3    H2 4473   2.175   5.624   0.019
 1514TIP3   OH2 4474   2.299   6.111   1.144
 1514TIP3    H1 4475   2.386   6.110   1.191
 1514TIP3    H2 4476   2.278   6.017   1.142
 1515TIP3   OH2 4477   2.780   6.073   1.188
 1515TIP3    H1 4478   2.874   6.051   1.196
 1515TIP3    H2 4479   2.753   6.013   1.115
 1516TIP3   OH2 4480   3.417   5.980   0.922
 1516TIP3    H1 4481   3.410   5.910   0.990
 1516TIP3    H2 4482   3.496   6.030   0.952
 1517TIP3   OH2 4483   2.429   5.517   1.344
 1517TIP3    H1 4484   2.445   5.421   1.350
 1517TIP3    H2 4485   2.341   5.519   1.301
 1518TIP3   OH2 4486   3.036   5.602   1.118
 1518TIP3    H1 4487   2.995   5.618   1.031
 1518TIP3    H2 4488   3.068   5.509   1.109
 1519TIP3   OH2 4489   3.527   5.610   0.724
 1519TIP3    H1 4490   3.604   5.654   0.682
 1519TIP3    H2 4491   3.458   5.677   0.710
 1520TIP3   OH2 4492   2.549   5.252   1.327
 1520TIP3    H1 4493   2.623   5.195   1.305
 1520TIP3    H2 4494   2.574   5.284   1.416
 1521TIP3   OH2 4495   2.620   5.067  -0.235
 1521TIP3    H1 4496   2.585   5.030  -0.152
 1521TIP3    H2 4497   2.681   4.998  -0.264
 1522TIP3   OH2 4498   2.884   5.135   0.987
 1522TIP3    H1 4499   2.806   5.194   0.990
 1522TIP3    H2 4500   2.932   5.169   0.909
 1523TIP3   OH2 4501   3.400   5.535   1.120
 1523TIP3    H1 4502   3.481   5.511   1.075
 1523TIP3    H2 4503   3.397   5.471   1.193
 1524TIP3   OH2 4504   3.006   4.924   1.114
 1524TIP3    H1 4505   3.006   4.844   1.058
 1524TIP3    H2 4506   2.962   4.990   1.057
 1525TIP3   OH2 4507   3.010   4.707   0.920
 1525TIP3    H1 4508   3.035   4.753   0.837
 1525TIP3    H2 4509   2.915   4.686   0.904
 1526TIP3   OH2 4510   3.035   5.243   0.791
 1526TIP3    H1 4511   3.120   5.257   0.748
 1526TIP3    H2 4512   2.978   5.311   0.749
 1527TIP3   OH2 4513   3.617   5.210   1.174
 1527TIP3    H1 4514   3.666   5.128   1.190
 1527TIP3    H2 4515   3.687   5.268   1.140
 1528TIP3   OH2 4516   3.658   5.463   0.910
 1528TIP3    H1 4517   3.601   5.519   0.851
 1528TIP3    H2 4518   3.747   5.484   0.871
 1529TIP3   OH2 4519   2.885   5.033   1.346
 1529TIP3    H1 4520   2.816   4.965   1.361
 1529TIP3    H2 4521   2.919   5.007   1.258
 1530TIP3   OH2 4522   3.140   4.470   0.985
 1530TIP3    H1 4523   3.092   4.554   0.967
 1530TIP3    H2 4524   3.068   4.404   0.979
 1531TIP3   OH2 4525   3.268   4.977   1.205
 1531TIP3    H1 4526   3.258   4.964   1.301
 1531TIP3    H2 4527   3.177   4.952   1.176
 1532TIP3   OH2 4528   3.504   4.923   1.058
 1532TIP3    H1 4529   3.431   4.927   1.122
 1532TIP3    H2 4530   3.579   4.895   1.115
 1533TIP3   OH2 4531   3.730   4.866   1.210
 1533TIP3    H1 4532   3.747   4.771   1.229
 1533TIP3    H2 4533   3.729   4.905   1.300
 1534TIP3   OH2 4534   2.725   4.812   1.399
 1534TIP3    H1 4535   2.730   4.721   1.365
 1534TIP3    H2 4536   2.761   4.800   1.489
 1535TIP3   OH2 4537   3.235   4.484   1.244
 1535TIP3    H1 4538   3.303   4.413   1.242
 1535TIP3    H2 4539   3.195   4.474   1.156
 1536TIP3   OH2 4540   3.301   4.697   1.405
 1536TIP3    H1 4541   3.278   4.626   1.341
 1536TIP3    H2 4542   3.223   4.756   1.399
 1537TIP3   OH2 4543   2.021   5.298  -0.264
 1537TIP3    H1 4544   2.069   5.317  -0.344
 1537TIP3    H2 4545   1.961   5.227  -0.291
 1538TIP3   OH2 4546   1.921   5.901   0.126
 1538TIP3    H1 4547   1.833   5.934   0.150
 1538TIP3    H2 4548   1.950   5.855   0.208
 1539TIP3   OH2 4549   2.066   5.764   0.320
 1539TIP3    H1 4550   2.046   5.695   0.387
 1539TIP3    H2 4551   2.111   5.828   0.378
 1540TIP3   OH2 4552   3.802   6.195   0.407
 1540TIP3    H1 4553   3.770   6.103   0.401
 1540TIP3    H2 4554   3.891   6.179   0.441
 1541TIP3   OH2 4555   3.854   5.869   0.977
 1541TIP3    H1 4556   3.783   5.878   1.043
 1541TIP3    H2 4557   3.898   5.956   0.982
 1542TIP3   OH2 4558   3.854   5.633   0.232
 1542TIP3    H1 4559   3.903   5.568   0.179
 1542TIP3    H2 4560   3.819   5.694   0.166
 1543TIP3   OH2 4561   3.683   5.937   0.429
 1543TIP3    H1 4562   3.617   5.982   0.485
 1543TIP3    H2 4563   3.628   5.887   0.367
 1544TIP3   OH2 4564   3.621   5.089  -0.040
 1544TIP3    H1 4565   3.628   4.992  -0.045
 1544TIP3    H2 4566   3.607   5.106   0.055
 1545TIP3   OH2 4567   2.239   5.179   0.694
 1545TIP3    H1 4568   2.236   5.146   0.601
 1545TIP3    H2 4569   2.336   5.180   0.710
 1546TIP3   OH2 4570   3.902   5.530   0.804
 1546TIP3    H1 4571   3.974   5.463   0.795
 1546TIP3    H2 4572   3.933   5.601   0.745
 1547TIP3   OH2 4573   4.085   5.334   0.818
 1547TIP3    H1 4574   4.012   5.282   0.859
 1547TIP3    H2 4575   4.160   5.272   0.833
 1548TIP3   OH2 4576   3.605   4.813  -0.161
 1548TIP3    H1 4577   3.647   4.725  -0.144
 1548TIP3    H2 4578   3.675   4.856  -0.212
 1549TIP3   OH2 4579   3.760   4.991   0.343
 1549TIP3    H1 4580   3.846   5.019   0.302
 1549TIP3    H2 4581   3.777   5.025   0.433
 1550TIP3   OH2 4582   3.838   5.138   0.571
 1550TIP3    H1 4583   3.762   5.176   0.619
 1550TIP3    H2 4584   3.873   5.217   0.523
 1551TIP3   OH2 4585   2.458   4.865   1.370
 1551TIP3    H1 4586   2.556   4.858   1.373
 1551TIP3    H2 4587   2.433   4.780   1.410
 1552TIP3   OH2 4588   4.288   4.728   1.124
 1552TIP3    H1 4589   4.350   4.665   1.083
 1552TIP3    H2 4590   4.263   4.785   1.048
 1553TIP3   OH2 4591   3.702   4.570  -0.109
 1553TIP3    H1 4592   3.765   4.549  -0.038
 1553TIP3    H2 4593   3.653   4.485  -0.118
 1554TIP3   OH2 4594   2.421   4.555   0.693
 1554TIP3    H1 4595   2.484   4.482   0.707
 1554TIP3    H2 4596   2.481   4.632   0.692
 1555TIP3   OH2 4597   2.221   4.829   0.773
 1555TIP3    H1 4598   2.270   4.827   0.688
 1555TIP3    H2 4599   2.246   4.916   0.807
 1556TIP3   OH2 4600   4.161   4.870   0.929
 1556TIP3    H1 4601   4.074   4.909   0.949
 1556TIP3    H2 4602   4.134   4.796   0.871
 1557TIP3   OH2 4603   2.206   4.336   0.271
 1557TIP3    H1 4604   2.113   4.331   0.301
 1557TIP3    H2 4605   2.199   4.393   0.193
 1558TIP3   OH2 4606   2.425   4.412   1.086
 1558TIP3    H1 4607   2.375   4.407   1.169
 1558TIP3    H2 4608   2.358   4.453   1.027
 1559TIP3   OH2 4609   2.464   5.843   1.164
 1559TIP3    H1 4610   2.371   5.816   1.147
 1559TIP3    H2 4611   2.474   5.822   1.257
 1560TIP3   OH2 4612   2.643   5.875   0.713
 1560TIP3    H1 4613   2.595   5.951   0.674
 1560TIP3    H2 4614   2.729   5.889   0.667
 1561TIP3   OH2 4615   3.087   6.119   0.849
 1561TIP3    H1 4616   3.129   6.119   0.938
 1561TIP3    H2 4617   3.154   6.170   0.798
 1562TIP3   OH2 4618   3.268   6.270   0.708
 1562TIP3    H1 4619   3.341   6.217   0.671
 1562TIP3    H2 4620   3.318   6.329   0.769
 1563TIP3   OH2 4621   4.061   4.632   0.809
 1563TIP3    H1 4622   3.970   4.625   0.775
 1563TIP3    H2 4623   4.094   4.540   0.797
 1564TIP3   OH2 4624   2.318   6.130   0.735
 1564TIP3    H1 4625   2.229   6.165   0.712
 1564TIP3    H2 4626   2.328   6.168   0.823
 1565TIP3   OH2 4627   2.556   6.111   0.595
 1565TIP3    H1 4628   2.469   6.124   0.638
 1565TIP3    H2 4629   2.537   6.144   0.505
 1566TIP3   OH2 4630   2.980   6.137   0.401
 1566TIP3    H1 4631   2.922   6.150   0.324
 1566TIP3    H2 4632   2.987   6.228   0.437
 1567TIP3   OH2 4633   3.246   6.073   0.436
 1567TIP3    H1 4634   3.151   6.095   0.426
 1567TIP3    H2 4635   3.289   6.156   0.409
 1568TIP3   OH2 4636   3.456   6.264   0.372
 1568TIP3    H1 4637   3.436   6.345   0.320
 1568TIP3    H2 4638   3.487   6.202   0.303
 1569TIP3   OH2 4639   2.233   5.924   0.477
 1569TIP3    H1 4640   2.255   5.897   0.569
 1569TIP3    H2 4641   2.308   5.881   0.430
 1570TIP3   OH2 4642   2.427   5.796   0.335
 1570TIP3    H1 4643   2.443   5.713   0.386
 1570TIP3    H2 4644   2.517   5.835   0.333
 1571TIP3   OH2 4645   2.689   5.891   0.344
 1571TIP3    H1 4646   2.721   5.800   0.329
 1571TIP3    H2 4647   2.737   5.913   0.426
 1572TIP3   OH2 4648   3.267   4.522   0.424
 1572TIP3    H1 4649   3.286   4.495   0.515
 1572TIP3    H2 4650   3.353   4.498   0.378
 1573TIP3   OH2 4651   3.782   4.428   0.340
 1573TIP3    H1 4652   3.825   4.475   0.265
 1573TIP3    H2 4653   3.691   4.460   0.333
 1574TIP3   OH2 4654   3.879   4.515   0.102
 1574TIP3    H1 4655   3.950   4.464   0.059
 1574TIP3    H2 4656   3.915   4.606   0.085
 1575TIP3   OH2 4657   2.514   4.256   0.440
 1575TIP3    H1 4658   2.422   4.221   0.444
 1575TIP3    H2 4659   2.563   4.171   0.439
 1576TIP3   OH2 4660   2.288   4.121   0.090
 1576TIP3    H1 4661   2.335   4.175   0.022
 1576TIP3    H2 4662   2.268   4.190   0.157
 1577TIP3   OH2 4663   3.495   4.434   0.311
 1577TIP3    H1 4664   3.518   4.408   0.220
 1577TIP3    H2 4665   3.487   4.347   0.355
 1578TIP3   OH2 4666   3.533   4.357  -0.097
 1578TIP3    H1 4667   3.445   4.395  -0.114
 1578TIP3    H2 4668   3.512   4.270  -0.060
 1579TIP3   OH2 4669   2.425   4.272  -0.097
 1579TIP3    H1 4670   2.447   4.235  -0.183
 1579TIP3    H2 4671   2.498   4.335  -0.082
 1580TIP3   OH2 4672   2.928   4.455  -0.044
 1580TIP3    H1 4673   2.996   4.405   0.004
 1580TIP3    H2 4674   2.950   4.548  -0.018
 1581TIP3   OH2 4675   2.722   4.536   1.335
 1581TIP3    H1 4676   2.688   4.466   1.393
 1581TIP3    H2 4677   2.817   4.537   1.362
 1582TIP3   OH2 4678   2.971   4.534   1.454
 1582TIP3    H1 4679   3.057   4.509   1.417
 1582TIP3    H2 4680   2.958   4.464   1.521
 1583TIP3   OH2 4681   3.797   4.596   1.241
 1583TIP3    H1 4682   3.816   4.566   1.332
 1583TIP3    H2 4683   3.886   4.592   1.200
 1584TIP3   OH2 4684   3.735   6.147   0.739
 1584TIP3    H1 4685   3.656   6.117   0.689
 1584TIP3    H2 4686   3.720   6.243   0.739
 1585TIP3   OH2 4687   4.312   5.415   0.240
 1585TIP3    H1 4688   4.337   5.350   0.310
 1585TIP3    H2 4689   4.357   5.495   0.273
 1586TIP3   OH2 4690   4.190   5.053   0.099
 1586TIP3    H1 4691   4.287   5.045   0.098
 1586TIP3    H2 4692   4.172   5.110   0.021
 1587TIP3   OH2 4693   4.544   4.891   0.374
 1587TIP3    H1 4694   4.493   4.924   0.297
 1587TIP3    H2 4695   4.485   4.916   0.448
 1588TIP3   OH2 4696   4.451   4.984   0.135
 1588TIP3    H1 4697   4.506   5.064   0.145
 1588TIP3    H2 4698   4.488   4.945   0.054
 1589TIP3   OH2 4699   4.484   5.838   0.295
 1589TIP3    H1 4700   4.469   5.907   0.228
 1589TIP3    H2 4701   4.397   5.837   0.340
 1590TIP3   OH2 4702   4.887   4.599   0.132
 1590TIP3    H1 4703   4.854   4.512   0.157
 1590TIP3    H2 4704   4.807   4.654   0.147
 1591TIP3   OH2 4705   4.646   5.938   0.491
 1591TIP3    H1 4706   4.617   6.032   0.486
 1591TIP3    H2 4707   4.595   5.899   0.417
 1592TIP3   OH2 4708   4.430   5.542   0.490
 1592TIP3    H1 4709   4.440   5.630   0.533
 1592TIP3    H2 4710   4.340   5.519   0.519
 1593TIP3   OH2 4711   4.472   6.164   0.484
 1593TIP3    H1 4712   4.436   6.158   0.394
 1593TIP3    H2 4713   4.395   6.138   0.539
 1594TIP3   OH2 4714   4.054   5.675   0.434
 1594TIP3    H1 4715   3.989   5.649   0.365
 1594TIP3    H2 4716   4.093   5.589   0.461
 1595TIP3   OH2 4717   5.621   5.473   0.430
 1595TIP3    H1 4718   5.687   5.502   0.366
 1595TIP3    H2 4719   5.627   5.376   0.425
 1596TIP3   OH2 4720   4.250   5.864   0.432
 1596TIP3    H1 4721   4.305   5.849   0.511
 1596TIP3    H2 4722   4.183   5.792   0.439
 1597TIP3   OH2 4723   4.649   4.693   0.218
 1597TIP3    H1 4724   4.559   4.664   0.193
 1597TIP3    H2 4725   4.626   4.774   0.268
 1598TIP3   OH2 4726   5.199   4.802   0.393
 1598TIP3    H1 4727   5.271   4.776   0.455
 1598TIP3    H2 4728   5.119   4.779   0.444
 1599TIP3   OH2 4729   5.461   5.231   0.340
 1599TIP3    H1 4730   5.404   5.214   0.418
 1599TIP3    H2 4731   5.397   5.254   0.272
 1600TIP3   OH2 4732   4.602   5.213   0.214
 1600TIP3    H1 4733   4.550   5.229   0.295
 1600TIP3    H2 4734   4.546   5.254   0.145
 1601TIP3   OH2 4735   5.143   5.453   0.554
 1601TIP3    H1 4736   5.123   5.375   0.610
 1601TIP3    H2 4737   5.239   5.460   0.568
 1602TIP3   OH2 4738   4.408   5.230   0.429
 1602TIP3    H1 4739   4.468   5.282   0.485
 1602TIP3    H2 4740   4.400   5.147   0.480
 1603TIP3   OH2 4741   4.009   4.738   0.028
 1603TIP3    H1 4742   4.079   4.766   0.091
 1603TIP3    H2 4743   4.024   4.799  -0.046
 1604TIP3   OH2 4744   4.418   5.781   0.638
 1604TIP3    H1 4745   4.503   5.817   0.669
 1604TIP3    H2 4746   4.366   5.785   0.720
 1605TIP3   OH2 4747   4.861   5.094   0.210
 1605TIP3    H1 4748   4.783   5.148   0.189
 1605TIP3    H2 4749   4.930   5.162   0.224
 1606TIP3   OH2 4750   5.000   5.812   0.334
 1606TIP3    H1 4751   5.023   5.813   0.429
 1606TIP3    H2 4752   4.932   5.881   0.328
 1607TIP3   OH2 4753   4.175   5.470   0.573
 1607TIP3    H1 4754   4.201   5.456   0.666
 1607TIP3    H2 4755   4.110   5.398   0.560
 1608TIP3   OH2 4756   4.903   5.577   0.596
 1608TIP3    H1 4757   4.851   5.535   0.525
 1608TIP3    H2 4758   4.993   5.544   0.574
 1609TIP3   OH2 4759   4.384   4.977   0.580
 1609TIP3    H1 4760   4.288   4.976   0.593
 1609TIP3    H2 4761   4.415   4.918   0.651
 1610TIP3   OH2 4762   4.081   6.038   0.287
 1610TIP3    H1 4763   4.118   5.952   0.309
 1610TIP3    H2 4764   4.145   6.095   0.331
 1611TIP3   OH2 4765   5.200   5.063   0.295
 1611TIP3    H1 4766   5.292   5.070   0.267
 1611TIP3    H2 4767   5.197   4.970   0.327
 1612TIP3   OH2 4768   5.042   5.290   0.336
 1612TIP3    H1 4769   5.091   5.337   0.405
 1612TIP3    H2 4770   5.100   5.212   0.322
 1613TIP3   OH2 4771   4.391   4.611   0.208
 1613TIP3    H1 4772   4.360   4.578   0.120
 1613TIP3    H2 4773   4.387   4.528   0.261
 1614TIP3   OH2 4774   4.082   6.351   0.671
 1614TIP3    H1 4775   4.177   6.360   0.695
 1614TIP3    H2 4776   4.077   6.258   0.643
 1615TIP3   OH2 4777   4.575   6.333   0.677
 1615TIP3    H1 4778   4.669   6.308   0.683
 1615TIP3    H2 4779   4.548   6.279   0.601
 1616TIP3   OH2 4780   4.223   5.773   0.837
 1616TIP3    H1 4781   4.242   5.677   0.838
 1616TIP3    H2 4782   4.137   5.775   0.789
 1617TIP3   OH2 4783   4.860   5.852   0.620
 1617TIP3    H1 4784   4.788   5.872   0.556
 1617TIP3    H2 4785   4.874   5.756   0.608
 1618TIP3   OH2 4786   4.343   5.503   0.813
 1618TIP3    H1 4787   4.423   5.455   0.787
 1618TIP3    H2 4788   4.369   5.537   0.901
 1619TIP3   OH2 4789   4.648   5.376   0.483
 1619TIP3    H1 4790   4.582   5.449   0.491
 1619TIP3    H2 4791   4.710   5.416   0.419
 1620TIP3   OH2 4792   5.196   5.794   0.607
 1620TIP3    H1 4793   5.292   5.798   0.598
 1620TIP3    H2 4794   5.186   5.724   0.674
 1621TIP3   OH2 4795   4.798   5.176   0.608
 1621TIP3    H1 4796   4.806   5.095   0.553
 1621TIP3    H2 4797   4.753   5.237   0.546
 1622TIP3   OH2 4798   4.802   4.956   0.433
 1622TIP3    H1 4799   4.834   4.999   0.350
 1622TIP3    H2 4800   4.710   4.935   0.409
 1623TIP3   OH2 4801   4.824   5.508   0.325
 1623TIP3    H1 4802   4.914   5.471   0.319
 1623TIP3    H2 4803   4.831   5.580   0.260
 1624TIP3   OH2 4804   5.422   5.469   0.665
 1624TIP3    H1 4805   5.443   5.374   0.660
 1624TIP3    H2 4806   5.501   5.507   0.623
 1625TIP3   OH2 4807   4.677   5.291   0.834
 1625TIP3    H1 4808   4.611   5.220   0.846
 1625TIP3    H2 4809   4.715   5.266   0.746
 1626TIP3   OH2 4810   4.941   4.725   0.481
 1626TIP3    H1 4811   4.893   4.808   0.462
 1626TIP3    H2 4812   4.873   4.658   0.462
 1627TIP3   OH2 4813   5.059   5.234   0.693
 1627TIP3    H1 4814   5.047   5.221   0.789
 1627TIP3    H2 4815   4.971   5.208   0.661
 1628TIP3   OH2 4816   5.309   5.201   0.563
 1628TIP3    H1 4817   5.227   5.183   0.613
 1628TIP3    H2 4818   5.378   5.155   0.616
 1629TIP3   OH2 4819   5.534   5.122   0.703
 1629TIP3    H1 4820   5.548   5.026   0.718
 1629TIP3    H2 4821   5.532   5.159   0.793
 1630TIP3   OH2 4822   4.517   5.069   0.887
 1630TIP3    H1 4823   4.529   4.980   0.850
 1630TIP3    H2 4824   4.556   5.057   0.976
 1631TIP3   OH2 4825   5.027   4.735   0.739
 1631TIP3    H1 4826   5.098   4.668   0.732
 1631TIP3    H2 4827   4.992   4.732   0.648
 1632TIP3   OH2 4828   5.095   4.952   0.895
 1632TIP3    H1 4829   5.075   4.881   0.830
 1632TIP3    H2 4830   5.019   5.012   0.885
 1633TIP3   OH2 4831   4.042   5.428   0.179
 1633TIP3    H1 4832   4.053   5.415   0.084
 1633TIP3    H2 4833   4.137   5.435   0.204
 1634TIP3   OH2 4834   4.250   5.120   0.852
 1634TIP3    H1 4835   4.348   5.116   0.855
 1634TIP3    H2 4836   4.228   5.035   0.895
 1635TIP3   OH2 4837   6.101   4.987   0.622
 1635TIP3    H1 4838   6.149   4.914   0.575
 1635TIP3    H2 4839   6.087   5.049   0.547
 1636TIP3   OH2 4840   4.196   4.801   0.230
 1636TIP3    H1 4841   4.271   4.737   0.226
 1636TIP3    H2 4842   4.236   4.879   0.187
 1637TIP3   OH2 4843   3.998   5.098   0.280
 1637TIP3    H1 4844   4.063   5.068   0.211
 1637TIP3    H2 4845   4.040   5.179   0.310
 1638TIP3   OH2 4846   5.910   5.125   0.475
 1638TIP3    H1 4847   5.817   5.115   0.453
 1638TIP3    H2 4848   5.960   5.106   0.394
 1639TIP3   OH2 4849   4.219   4.669   0.574
 1639TIP3    H1 4850   4.169   4.669   0.657
 1639TIP3    H2 4851   4.155   4.709   0.513
 1640TIP3   OH2 4852   4.260   6.098   0.649
 1640TIP3    H1 4853   4.167   6.070   0.637
 1640TIP3    H2 4854   4.272   6.085   0.744
 1641TIP3   OH2 4855   5.816   4.871   0.314
 1641TIP3    H1 4856   5.734   4.836   0.275
 1641TIP3    H2 4857   5.876   4.794   0.306
 1642TIP3   OH2 4858   4.091   6.395   0.340
 1642TIP3    H1 4859   4.039   6.455   0.285
 1642TIP3    H2 4860   4.086   6.314   0.288
 1643TIP3   OH2 4861   4.301   4.492  -0.011
 1643TIP3    H1 4862   4.209   4.467  -0.034
 1643TIP3    H2 4863   4.354   4.430  -0.063
 1644TIP3   OH2 4864   4.518   4.789   0.819
 1644TIP3    H1 4865   4.486   4.720   0.880
 1644TIP3    H2 4866   4.613   4.793   0.845
 1645TIP3   OH2 4867   4.766   4.791   0.939
 1645TIP3    H1 4868   4.852   4.772   0.896
 1645TIP3    H2 4869   4.760   4.718   1.004
 1646TIP3   OH2 4870   5.598   4.855   0.731
 1646TIP3    H1 4871   5.617   4.824   0.822
 1646TIP3    H2 4872   5.687   4.849   0.689
 1647TIP3   OH2 4873   0.374   6.040   1.795
 1647TIP3    H1 4874   0.410   5.960   1.750
 1647TIP3    H2 4875   0.320   6.075   1.724
 1648TIP3   OH2 4876   1.852   6.362   0.587
 1648TIP3    H1 4877   1.891   6.447   0.615
 1648TIP3    H2 4878   1.851   6.371   0.490
 1649TIP3   OH2 4879   1.939   6.581   0.746
 1649TIP3    H1 4880   1.868   6.634   0.705
 1649TIP3    H2 4881   1.918   6.590   0.840
 1650TIP3   OH2 4882   1.672   6.273   0.778
 1650TIP3    H1 4883   1.580   6.290   0.755
 1650TIP3    H2 4884   1.721   6.297   0.696
 1651TIP3   OH2 4885   1.715   6.755   1.059
 1651TIP3    H1 4886   1.627   6.762   1.020
 1651TIP3    H2 4887   1.732   6.659   1.050
 1652TIP3   OH2 4888   1.240   6.092   1.081
 1652TIP3    H1 4889   1.313   6.059   1.139
 1652TIP3    H2 4890   1.161   6.068   1.133
 1653TIP3   OH2 4891   1.496   6.553   0.989
 1653TIP3    H1 4892   1.450   6.520   1.069
 1653TIP3    H2 4893   1.430   6.616   0.957
 1654TIP3   OH2 4894   1.186   6.783   1.248
 1654TIP3    H1 4895   1.157   6.691   1.268
 1654TIP3    H2 4896   1.279   6.779   1.279
 1655TIP3   OH2 4897   1.351   6.289   0.931
 1655TIP3    H1 4898   1.393   6.327   1.009
 1655TIP3    H2 4899   1.308   6.211   0.971
 1656TIP3   OH2 4900   1.756   6.491   0.963
 1656TIP3    H1 4901   1.659   6.500   0.975
 1656TIP3    H2 4902   1.757   6.421   0.895
 1657TIP3   OH2 4903   1.242   7.115   1.333
 1657TIP3    H1 4904   1.282   7.098   1.246
 1657TIP3    H2 4905   1.260   7.033   1.382
 1658TIP3   OH2 4906   1.460   6.768   1.321
 1658TIP3    H1 4907   1.510   6.686   1.337
 1658TIP3    H2 4908   1.531   6.830   1.297
 1659TIP3   OH2 4909   1.518   7.020   1.063
 1659TIP3    H1 4910   1.449   7.079   1.028
 1659TIP3    H2 4911   1.593   7.046   1.006
 1660TIP3   OH2 4912   0.982   6.017   1.151
 1660TIP3    H1 4913   0.956   6.062   1.068
 1660TIP3    H2 4914   0.956   5.925   1.131
 1661TIP3   OH2 4915   1.100   6.545   1.356
 1661TIP3    H1 4916   1.119   6.545   1.452
 1661TIP3    H2 4917   1.042   6.468   1.353
 1662TIP3   OH2 4918   1.356   6.478   1.205
 1662TIP3    H1 4919   1.278   6.477   1.263
 1662TIP3    H2 4920   1.427   6.451   1.267
 1663TIP3   OH2 4921   1.577   6.424   1.361
 1663TIP3    H1 4922   1.591   6.328   1.378
 1663TIP3    H2 4923   1.572   6.462   1.451
 1664TIP3   OH2 4924   1.086   6.043   1.404
 1664TIP3    H1 4925   1.148   5.967   1.397
 1664TIP3    H2 4926   1.034   6.031   1.322
 1665TIP3   OH2 4927   1.149   6.263   1.548
 1665TIP3    H1 4928   1.130   6.182   1.495
 1665TIP3    H2 4929   1.062   6.306   1.552
 1666TIP3   OH2 4930   1.705   7.445   1.133
 1666TIP3    H1 4931   1.631   7.437   1.199
 1666TIP3    H2 4932   1.742   7.531   1.159
 1667TIP3   OH2 4933   1.773   7.108   0.936
 1667TIP3    H1 4934   1.829   7.027   0.954
 1667TIP3    H2 4935   1.790   7.119   0.843
 1668TIP3   OH2 4936   1.929   6.894   0.979
 1668TIP3    H1 4937   1.855   6.840   1.013
 1668TIP3    H2 4938   2.003   6.829   0.991
 1669TIP3   OH2 4939   2.132   6.289   1.274
 1669TIP3    H1 4940   2.191   6.223   1.232
 1669TIP3    H2 4941   2.105   6.343   1.197
 1670TIP3   OH2 4942   2.005   6.428   1.078
 1670TIP3    H1 4943   1.918   6.467   1.096
 1670TIP3    H2 4944   1.978   6.353   1.020
 1671TIP3   OH2 4945   1.903   6.189   0.960
 1671TIP3    H1 4946   1.812   6.180   0.924
 1671TIP3    H2 4947   1.936   6.097   0.949
 1672TIP3   OH2 4948   1.690   5.997   0.492
 1672TIP3    H1 4949   1.711   6.068   0.431
 1672TIP3    H2 4950   1.597   5.977   0.468
 1673TIP3   OH2 4951   6.738   2.817   8.125
 1673TIP3    H1 4952   6.716   2.889   8.065
 1673TIP3    H2 4953   6.779   2.757   8.063
 1674TIP3   OH2 4954   0.828   6.093   1.658
 1674TIP3    H1 4955   0.883   6.054   1.590
 1674TIP3    H2 4956   0.787   6.014   1.697
 1675TIP3   OH2 4957   1.639   6.156   1.391
 1675TIP3    H1 4958   1.657   6.123   1.482
 1675TIP3    H2 4959   1.727   6.149   1.350
 1676TIP3   OH2 4960   2.214   6.966   0.420
 1676TIP3    H1 4961   2.215   6.898   0.490
 1676TIP3    H2 4962   2.260   7.039   0.463
 1677TIP3   OH2 4963   2.412   6.478   0.083
 1677TIP3    H1 4964   2.346   6.517   0.022
 1677TIP3    H2 4965   2.394   6.383   0.064
 1678TIP3   OH2 4966   3.716   6.824   0.255
 1678TIP3    H1 4967   3.683   6.911   0.228
 1678TIP3    H2 4968   3.779   6.849   0.326
 1679TIP3   OH2 4969   2.391   6.443   0.519
 1679TIP3    H1 4970   2.339   6.482   0.446
 1679TIP3    H2 4971   2.332   6.463   0.595
 1680TIP3   OH2 4972   2.534   7.233   0.298
 1680TIP3    H1 4973   2.441   7.254   0.322
 1680TIP3    H2 4974   2.557   7.310   0.245
 1681TIP3   OH2 4975   2.265   6.549   0.305
 1681TIP3    H1 4976   2.287   6.643   0.310
 1681TIP3    H2 4977   2.316   6.524   0.225
 1682TIP3   OH2 4978   3.414   6.492   0.233
 1682TIP3    H1 4979   3.316   6.498   0.220
 1682TIP3    H2 4980   3.439   6.581   0.199
 1683TIP3   OH2 4981   2.749   6.176   0.228
 1683TIP3    H1 4982   2.739   6.080   0.237
 1683TIP3    H2 4983   2.668   6.207   0.275
 1684TIP3   OH2 4984   3.231   7.112   0.328
 1684TIP3    H1 4985   3.246   7.151   0.417
 1684TIP3    H2 4986   3.152   7.056   0.342
 1685TIP3   OH2 4987   2.466   6.969   0.208
 1685TIP3    H1 4988   2.407   6.969   0.131
 1685TIP3    H2 4989   2.477   7.064   0.227
 1686TIP3   OH2 4990   2.545   7.436   0.551
 1686TIP3    H1 4991   2.513   7.527   0.566
 1686TIP3    H2 4992   2.484   7.404   0.483
 1687TIP3   OH2 4993   2.276   7.114   0.645
 1687TIP3    H1 4994   2.287   7.194   0.701
 1687TIP3    H2 4995   2.185   7.088   0.668
 1688TIP3   OH2 4996   3.500   7.004   0.535
 1688TIP3    H1 4997   3.434   7.005   0.465
 1688TIP3    H2 4998   3.518   6.908   0.544
 1689TIP3   OH2 4999   2.081   7.426   0.618
 1689TIP3    H1 5000   2.162   7.403   0.668
 1689TIP3    H2 5001   2.038   7.340   0.609
 1690TIP3   OH2 5002   2.508   6.244   0.355
 1690TIP3    H1 5003   2.420   6.211   0.327
 1690TIP3    H2 5004   2.480   6.325   0.402
 1691TIP3   OH2 5005   3.037   6.364   0.551
 1691TIP3    H1 5006   3.106   6.332   0.613
 1691TIP3    H2 5007   2.954   6.338   0.596
 1692TIP3   OH2 5008   3.280   6.793   0.471
 1692TIP3    H1 5009   3.235   6.781   0.558
 1692TIP3    H2 5010   3.219   6.849   0.424
 1693TIP3   OH2 5011   2.443   6.762   0.387
 1693TIP3    H1 5012   2.377   6.785   0.455
 1693TIP3    H2 5013   2.435   6.838   0.325
 1694TIP3   OH2 5014   2.992   7.006   0.699
 1694TIP3    H1 5015   2.965   6.935   0.762
 1694TIP3    H2 5016   3.084   7.020   0.726
 1695TIP3   OH2 5017   2.261   6.782   0.616
 1695TIP3    H1 5018   2.313   6.820   0.688
 1695TIP3    H2 5019   2.247   6.691   0.648
 1696TIP3   OH2 5020   3.000   6.985   0.272
 1696TIP3    H1 5021   2.962   6.927   0.205
 1696TIP3    H2 5022   2.959   6.946   0.352
 1697TIP3   OH2 5023   2.666   6.471  -0.023
 1697TIP3    H1 5024   2.578   6.497   0.012
 1697TIP3    H2 5025   2.720   6.472   0.057
 1698TIP3   OH2 5026   3.142   6.513   0.197
 1698TIP3    H1 5027   3.098   6.566   0.267
 1698TIP3    H2 5028   3.067   6.462   0.162
 1699TIP3   OH2 5029   2.275   7.345   0.797
 1699TIP3    H1 5030   2.355   7.370   0.849
 1699TIP3    H2 5031   2.208   7.336   0.867
 1700TIP3   OH2 5032   2.846   6.763   0.126
 1700TIP3    H1 5033   2.778   6.739   0.060
 1700TIP3    H2 5034   2.804   6.729   0.207
 1701TIP3   OH2 5035   2.322   6.244  -0.015
 1701TIP3    H1 5036   2.268   6.163  -0.015
 1701TIP3    H2 5037   2.346   6.259  -0.108
 1702TIP3   OH2 5038   2.704   6.690   0.352
 1702TIP3    H1 5039   2.610   6.719   0.358
 1702TIP3    H2 5040   2.751   6.755   0.408
 1703TIP3   OH2 5041   2.877   7.421   0.433
 1703TIP3    H1 5042   2.882   7.363   0.510
 1703TIP3    H2 5043   2.793   7.465   0.450
 1704TIP3   OH2 5044   2.010   7.046   0.736
 1704TIP3    H1 5045   2.042   7.023   0.826
 1704TIP3    H2 5046   1.979   6.960   0.704
 1705TIP3   OH2 5047   2.747   7.129   0.745
 1705TIP3    H1 5048   2.685   7.080   0.688
 1705TIP3    H2 5049   2.833   7.098   0.710
 1706TIP3   OH2 5050   2.227   6.528   0.732
 1706TIP3    H1 5051   2.130   6.532   0.740
 1706TIP3    H2 5052   2.251   6.464   0.802
 1707TIP3   OH2 5053   3.051   6.614   0.438
 1707TIP3    H1 5054   3.142   6.632   0.466
 1707TIP3    H2 5055   3.036   6.525   0.477
 1708TIP3   OH2 5056   2.903   6.846   0.482
 1708TIP3    H1 5057   2.928   6.889   0.566
 1708TIP3    H2 5058   2.952   6.761   0.485
 1709TIP3   OH2 5059   3.544   6.737   0.480
 1709TIP3    H1 5060   3.446   6.737   0.476
 1709TIP3    H2 5061   3.568   6.728   0.387
 1710TIP3   OH2 5062   2.247   6.158   0.328
 1710TIP3    H1 5063   2.216   6.123   0.242
 1710TIP3    H2 5064   2.236   6.081   0.387
 1711TIP3   OH2 5065   2.058   7.300   0.965
 1711TIP3    H1 5066   2.098   7.210   0.963
 1711TIP3    H2 5067   1.967   7.279   0.985
 1712TIP3   OH2 5068   2.686   7.396   0.777
 1712TIP3    H1 5069   2.643   7.405   0.689
 1712TIP3    H2 5070   2.721   7.304   0.770
 1713TIP3   OH2 5071   3.176   7.423   0.350
 1713TIP3    H1 5072   3.192   7.507   0.304
 1713TIP3    H2 5073   3.082   7.434   0.371
 1714TIP3   OH2 5074   2.192   7.061   0.962
 1714TIP3    H1 5075   2.266   7.001   0.944
 1714TIP3    H2 5076   2.215   7.091   1.053
 1715TIP3   OH2 5077   2.517   6.952   0.631
 1715TIP3    H1 5078   2.442   7.014   0.629
 1715TIP3    H2 5079   2.568   6.981   0.552
 1716TIP3   OH2 5080   3.043   7.342   0.758
 1716TIP3    H1 5081   3.124   7.317   0.712
 1716TIP3    H2 5082   3.039   7.278   0.830
 1717TIP3   OH2 5083   2.642   6.737   0.753
 1717TIP3    H1 5084   2.642   6.656   0.697
 1717TIP3    H2 5085   2.599   6.803   0.694
 1718TIP3   OH2 5086   2.646   6.521   0.568
 1718TIP3    H1 5087   2.670   6.563   0.482
 1718TIP3    H2 5088   2.552   6.496   0.550
 1719TIP3   OH2 5089   2.684   7.062   0.446
 1719TIP3    H1 5090   2.750   7.036   0.381
 1719TIP3    H2 5091   2.634   7.131   0.397
 1720TIP3   OH2 5092   3.257   7.025   0.815
 1720TIP3    H1 5093   3.303   6.940   0.819
 1720TIP3    H2 5094   3.327   7.083   0.782
 1721TIP3   OH2 5095   3.276   7.274   0.555
 1721TIP3    H1 5096   3.235   7.334   0.489
 1721TIP3    H2 5097   3.371   7.289   0.533
 1722TIP3   OH2 5098   2.519   6.849   0.981
 1722TIP3    H1 5099   2.454   6.777   0.996
 1722TIP3    H2 5100   2.556   6.823   0.894
 1723TIP3   OH2 5101   2.780   6.286   0.627
 1723TIP3    H1 5102   2.730   6.368   0.606
 1723TIP3    H2 5103   2.711   6.218   0.614
 1724TIP3   OH2 5104   2.903   6.792   0.841
 1724TIP3    H1 5105   2.890   6.778   0.937
 1724TIP3    H2 5106   2.813   6.767   0.809
 1725TIP3   OH2 5107   3.148   6.743   0.701
 1725TIP3    H1 5108   3.070   6.741   0.759
 1725TIP3    H2 5109   3.219   6.711   0.760
 1726TIP3   OH2 5110   3.372   6.681   0.850
 1726TIP3    H1 5111   3.386   6.585   0.866
 1726TIP3    H2 5112   3.370   6.718   0.941
 1727TIP3   OH2 5113   2.364   6.627   1.035
 1727TIP3    H1 5114   2.366   6.536   1.000
 1727TIP3    H2 5115   2.399   6.613   1.125
 1728TIP3   OH2 5116   2.873   6.297   0.885
 1728TIP3    H1 5117   2.939   6.226   0.879
 1728TIP3    H2 5118   2.833   6.291   0.796
 1729TIP3   OH2 5119   2.939   6.512   1.042
 1729TIP3    H1 5120   2.917   6.440   0.979
 1729TIP3    H2 5121   2.860   6.570   1.035
 1730TIP3   OH2 5122   3.510   7.699   0.579
 1730TIP3    H1 5123   3.441   7.681   0.647
 1730TIP3    H2 5124   3.559   7.771   0.621
 1731TIP3   OH2 5125   3.531   7.342   0.492
 1731TIP3    H1 5126   3.597   7.269   0.501
 1731TIP3    H2 5127   3.565   7.379   0.408
 1732TIP3   OH2 5128   3.720   7.154   0.534
 1732TIP3    H1 5129   3.648   7.087   0.527
 1732TIP3    H2 5130   3.794   7.106   0.493
 1733TIP3   OH2 5131   2.098   6.686   1.016
 1733TIP3    H1 5132   2.195   6.674   1.012
 1733TIP3    H2 5133   2.071   6.597   1.045
 1734TIP3   OH2 5134   3.923   6.546   0.767
 1734TIP3    H1 5135   3.984   6.476   0.731
 1734TIP3    H2 5136   3.908   6.600   0.687
 1735TIP3   OH2 5137   2.061   6.366   0.339
 1735TIP3    H1 5138   2.133   6.301   0.353
 1735TIP3    H2 5139   2.113   6.447   0.325
 1736TIP3   OH2 5140   3.797   6.688   0.569
 1736TIP3    H1 5141   3.705   6.721   0.577
 1736TIP3    H2 5142   3.781   6.609   0.514
 1737TIP3   OH2 5143   2.061   6.230   0.725
 1737TIP3    H1 5144   2.008   6.223   0.806
 1737TIP3    H2 5145   1.995   6.268   0.663
 1738TIP3   OH2 5146   3.697   6.443   0.450
 1738TIP3    H1 5147   3.604   6.427   0.426
 1738TIP3    H2 5148   3.734   6.351   0.441
 1739TIP3   OH2 5149   2.941   6.346   0.078
 1739TIP3    H1 5150   2.876   6.298   0.133
 1739TIP3    H2 5151   2.943   6.288   0.000
 1740TIP3   OH2 5152   2.144   6.050   0.085
 1740TIP3    H1 5153   2.059   6.001   0.089
 1740TIP3    H2 5154   2.205   5.973   0.080
 1741TIP3   OH2 5155   2.604   6.060   0.002
 1741TIP3    H1 5156   2.691   6.048  -0.041
 1741TIP3    H2 5157   2.625   6.126   0.069
 1742TIP3   OH2 5158   2.358   6.352   0.975
 1742TIP3    H1 5159   2.326   6.279   1.031
 1742TIP3    H2 5160   2.453   6.352   1.000
 1743TIP3   OH2 5161   2.609   6.350   1.091
 1743TIP3    H1 5162   2.693   6.323   1.050
 1743TIP3    H2 5163   2.596   6.279   1.158
 1744TIP3   OH2 5164   3.435   6.412   0.878
 1744TIP3    H1 5165   3.455   6.380   0.969
 1744TIP3    H2 5166   3.523   6.407   0.836
 1745TIP3   OH2 5167   3.853   7.548   0.503
 1745TIP3    H1 5168   3.884   7.459   0.478
 1745TIP3    H2 5169   3.811   7.579   0.421
 1746TIP3   OH2 5170   3.980   7.311   0.458
 1746TIP3    H1 5171   4.053   7.260   0.421
 1746TIP3    H2 5172   4.016   7.342   0.544
 1747TIP3   OH2 5173   4.319   7.099   0.454
 1747TIP3    H1 5174   4.256   7.032   0.490
 1747TIP3    H2 5175   4.372   7.041   0.396
 1748TIP3   OH2 5176   4.149   6.898   0.533
 1748TIP3    H1 5177   4.151   6.806   0.498
 1748TIP3    H2 5178   4.190   6.882   0.620
 1749TIP3   OH2 5179   4.728   6.762   0.532
 1749TIP3    H1 5180   4.710   6.706   0.454
 1749TIP3    H2 5181   4.652   6.825   0.531
 1750TIP3   OH2 5182   3.884   6.932   0.470
 1750TIP3    H1 5183   3.981   6.932   0.486
 1750TIP3    H2 5184   3.860   6.852   0.522
 1751TIP3   OH2 5185   3.821   6.500   0.208
 1751TIP3    H1 5186   3.789   6.478   0.298
 1751TIP3    H2 5187   3.795   6.592   0.200
 1752TIP3   OH2 5188   4.153   6.633   0.482
 1752TIP3    H1 5189   4.131   6.540   0.461
 1752TIP3    H2 5190   4.246   6.623   0.512
 1753TIP3   OH2 5191   4.403   6.607   0.593
 1753TIP3    H1 5192   4.493   6.593   0.559
 1753TIP3    H2 5193   4.391   6.530   0.651
 1754TIP3   OH2 5194   1.401   0.040   3.986
 1754TIP3    H1 5195   1.382  -0.008   4.067
 1754TIP3    H2 5196   1.419   0.129   4.018
 1755TIP3   OH2 5197   1.052   0.508   3.979
 1755TIP3    H1 5198   1.083   0.423   3.945
 1755TIP3    H2 5199   1.026   0.485   4.069
 1756TIP3   OH2 5200   1.995  -0.507   4.518
 1756TIP3    H1 5201   1.919  -0.447   4.499
 1756TIP3    H2 5202   2.053  -0.451   4.571
 1757TIP3   OH2 5203   1.461   0.298   4.136
 1757TIP3    H1 5204   1.368   0.295   4.169
 1757TIP3    H2 5205   1.459   0.385   4.091
 1758TIP3   OH2 5206   1.685   0.209   4.481
 1758TIP3    H1 5207   1.676   0.133   4.419
 1758TIP3    H2 5208   1.668   0.285   4.421
 1759TIP3   OH2 5209   1.880  -0.152   4.324
 1759TIP3    H1 5210   1.798  -0.099   4.328
 1759TIP3    H2 5211   1.909  -0.131   4.233
 1760TIP3   OH2 5212   1.212   0.315   4.234
 1760TIP3    H1 5213   1.196   0.395   4.287
 1760TIP3    H2 5214   1.201   0.243   4.300
 1761TIP3   OH2 5215   1.922   0.556   4.526
 1761TIP3    H1 5216   1.923   0.459   4.541
 1761TIP3    H2 5217   1.838   0.580   4.572
 1762TIP3   OH2 5218   1.062   0.368   4.628
 1762TIP3    H1 5219   1.044   0.454   4.672
 1762TIP3    H2 5220   0.985   0.316   4.662
 1763TIP3   OH2 5221   1.819  -0.323   4.798
 1763TIP3    H1 5222   1.733  -0.278   4.789
 1763TIP3    H2 5223   1.794  -0.416   4.789
 1764TIP3   OH2 5224   1.613   0.907   4.625
 1764TIP3    H1 5225   1.611   0.928   4.529
 1764TIP3    H2 5226   1.695   0.953   4.652
 1765TIP3   OH2 5227   1.647  -0.003   4.308
 1765TIP3    H1 5228   1.681   0.048   4.231
 1765TIP3    H2 5229   1.564  -0.041   4.272
 1766TIP3   OH2 5230   1.330   0.338   4.597
 1766TIP3    H1 5231   1.232   0.343   4.589
 1766TIP3    H2 5232   1.343   0.399   4.672
 1767TIP3   OH2 5233   1.937   0.271   4.565
 1767TIP3    H1 5234   1.839   0.261   4.560
 1767TIP3    H2 5235   1.961   0.241   4.474
 1768TIP3   OH2 5236   1.425  -0.153   4.218
 1768TIP3    H1 5237   1.333  -0.176   4.244
 1768TIP3    H2 5238   1.445  -0.220   4.152
 1769TIP3   OH2 5239   0.825   0.459   4.488
 1769TIP3    H1 5240   0.847   0.511   4.410
 1769TIP3    H2 5241   0.910   0.419   4.511
 1770TIP3   OH2 5242   1.245   0.102   4.411
 1770TIP3    H1 5243   1.209   0.092   4.500
 1770TIP3    H2 5244   1.339   0.088   4.426
 1771TIP3   OH2 5245   1.445   0.597   4.466
 1771TIP3    H1 5246   1.365   0.543   4.453
 1771TIP3    H2 5247   1.435   0.661   4.392
 1772TIP3   OH2 5248   1.470   0.565   4.059
 1772TIP3    H1 5249   1.424   0.615   3.988
 1772TIP3    H2 5250   1.563   0.587   4.037
 1773TIP3   OH2 5251   1.360   0.469   4.844
 1773TIP3    H1 5252   1.394   0.389   4.885
 1773TIP3    H2 5253   1.435   0.531   4.857
 1774TIP3   OH2 5254   1.470   0.106   4.622
 1774TIP3    H1 5255   1.554   0.137   4.582
 1774TIP3    H2 5256   1.418   0.188   4.616
 1775TIP3   OH2 5257   1.633  -0.063   4.789
 1775TIP3    H1 5258   1.576  -0.008   4.733
 1775TIP3    H2 5259   1.721  -0.038   4.753
 1776TIP3   OH2 5260   1.723   0.655   4.018
 1776TIP3    H1 5261   1.749   0.693   4.103
 1776TIP3    H2 5262   1.780   0.703   3.955
 1777TIP3   OH2 5263   1.751   0.680   4.301
 1777TIP3    H1 5264   1.706   0.593   4.293
 1777TIP3    H2 5265   1.826   0.655   4.356
 1778TIP3   OH2 5266   1.794   0.356   4.868
 1778TIP3    H1 5267   1.724   0.361   4.936
 1778TIP3    H2 5268   1.837   0.444   4.877
 1779TIP3   OH2 5269   1.797   0.130   4.125
 1779TIP3    H1 5270   1.849   0.065   4.074
 1779TIP3    H2 5271   1.792   0.205   4.063
 1780TIP3   OH2 5272   1.625   0.429   4.323
 1780TIP3    H1 5273   1.553   0.472   4.372
 1780TIP3    H2 5274   1.575   0.382   4.252
 1781TIP3   OH2 5275   1.864   0.025   4.684
 1781TIP3    H1 5276   1.934  -0.044   4.679
 1781TIP3    H2 5277   1.899   0.096   4.628
 1782TIP3   OH2 5278   2.032  -0.180   4.708
 1782TIP3    H1 5279   1.958  -0.232   4.745
 1782TIP3    H2 5280   2.106  -0.242   4.728
 1783TIP3   OH2 5281   1.707  -0.510   4.241
 1783TIP3    H1 5282   1.789  -0.485   4.194
 1783TIP3    H2 5283   1.724  -0.469   4.327
 1784TIP3   OH2 5284   1.763  -0.358   4.467
 1784TIP3    H1 5285   1.679  -0.321   4.498
 1784TIP3    H2 5286   1.804  -0.282   4.422
 1785TIP3   OH2 5287   1.287   0.553   3.661
 1785TIP3    H1 5288   1.326   0.489   3.600
 1785TIP3    H2 5289   1.359   0.577   3.721
 1786TIP3   OH2 5290   1.034   0.616   4.750
 1786TIP3    H1 5291   1.076   0.605   4.838
 1786TIP3    H2 5292   1.101   0.666   4.699
 1787TIP3   OH2 5293   1.215   0.758   4.605
 1787TIP3    H1 5294   1.282   0.710   4.555
 1787TIP3    H2 5295   1.270   0.816   4.662
 1788TIP3   OH2 5296   0.932   0.631   4.278
 1788TIP3    H1 5297   0.853   0.646   4.221
 1788TIP3    H2 5298   0.942   0.719   4.318
 1789TIP3   OH2 5299   1.194   0.572   4.339
 1789TIP3    H1 5300   1.098   0.585   4.321
 1789TIP3    H2 5301   1.232   0.646   4.290
 1790TIP3   OH2 5302   1.404   0.760   4.249
 1790TIP3    H1 5303   1.384   0.844   4.202
 1790TIP3    H2 5304   1.425   0.699   4.175
 1791TIP3   OH2 5305   1.675   0.636   4.626
 1791TIP3    H1 5306   1.597   0.605   4.575
 1791TIP3    H2 5307   1.655   0.732   4.630
 1792TIP3   OH2 5308   2.943   0.005   3.395
 1792TIP3    H1 5309   2.916   0.097   3.377
 1792TIP3    H2 5310   2.868  -0.043   3.356
 1793TIP3   OH2 5311   2.937   0.009   3.777
 1793TIP3    H1 5312   2.972  -0.013   3.866
 1793TIP3    H2 5313   2.900  -0.076   3.749
 1794TIP3   OH2 5314   2.238  -0.097   4.139
 1794TIP3    H1 5315   2.269  -0.167   4.200
 1794TIP3    H2 5316   2.314  -0.038   4.142
 1795TIP3   OH2 5317   3.183   0.314   3.457
 1795TIP3    H1 5318   3.176   0.245   3.525
 1795TIP3    H2 5319   3.216   0.389   3.509
 1796TIP3   OH2 5320   2.212   0.309   3.862
 1796TIP3    H1 5321   2.202   0.212   3.866
 1796TIP3    H2 5322   2.309   0.318   3.859
 1797TIP3   OH2 5323   2.002  -0.187   3.777
 1797TIP3    H1 5324   2.026  -0.265   3.832
 1797TIP3    H2 5325   2.074  -0.124   3.795
 1798TIP3   OH2 5326   2.835   0.771   3.473
 1798TIP3    H1 5327   2.881   0.699   3.424
 1798TIP3    H2 5328   2.832   0.735   3.562
 1799TIP3   OH2 5329   2.741   0.233   3.821
 1799TIP3    H1 5330   2.784   0.155   3.780
 1799TIP3    H2 5331   2.822   0.281   3.847
 1800TIP3   OH2 5332   3.158  -0.263   3.868
 1800TIP3    H1 5333   3.181  -0.353   3.896
 1800TIP3    H2 5334   3.120  -0.277   3.779
 1801TIP3   OH2 5335   2.461  -0.654   3.793
 1801TIP3    H1 5336   2.440  -0.563   3.761
 1801TIP3    H2 5337   2.399  -0.708   3.743
 1802TIP3   OH2 5338   3.150  -0.489   3.491
 1802TIP3    H1 5339   3.212  -0.535   3.551
 1802TIP3    H2 5340   3.202  -0.487   3.409
 1803TIP3   OH2 5341   2.098  -0.404   3.915
 1803TIP3    H1 5342   2.190  -0.398   3.950
 1803TIP3    H2 5343   2.107  -0.485   3.864
 1804TIP3   OH2 5344   2.563  -0.208   3.715
 1804TIP3    H1 5345   2.658  -0.226   3.735
 1804TIP3    H2 5346   2.529  -0.298   3.703
 1805TIP3   OH2 5347   3.788  -0.257   4.021
 1805TIP3    H1 5348   3.718  -0.199   3.985
 1805TIP3    H2 5349   3.852  -0.195   4.055
 1806TIP3   OH2 5350   2.833   0.228   3.262
 1806TIP3    H1 5351   2.791   0.218   3.176
 1806TIP3    H2 5352   2.792   0.313   3.293
 1807TIP3   OH2 5353   2.592   0.154   4.047
 1807TIP3    H1 5354   2.532   0.221   4.085
 1807TIP3    H2 5355   2.637   0.205   3.977
 1808TIP3   OH2 5356   2.353  -0.436   3.984
 1808TIP3    H1 5357   2.423  -0.388   4.034
 1808TIP3    H2 5358   2.380  -0.528   4.005
 1809TIP3   OH2 5359   2.421   0.349   4.145
 1809TIP3    H1 5360   2.397   0.436   4.109
 1809TIP3    H2 5361   2.343   0.333   4.203
 1810TIP3   OH2 5362   3.252   0.552   3.619
 1810TIP3    H1 5363   3.162   0.546   3.658
 1810TIP3    H2 5364   3.248   0.640   3.577
 1811TIP3   OH2 5365   2.955   0.599   3.291
 1811TIP3    H1 5366   3.009   0.518   3.273
 1811TIP3    H2 5367   3.015   0.666   3.253
 1812TIP3   OH2 5368   3.101   0.382   3.203
 1812TIP3    H1 5369   3.054   0.302   3.177
 1812TIP3    H2 5370   3.140   0.354   3.289
 1813TIP3   OH2 5371   3.480   0.465   3.968
 1813TIP3    H1 5372   3.472   0.389   3.906
 1813TIP3    H2 5373   3.464   0.541   3.907
 1814TIP3   OH2 5374   2.778  -0.141   3.219
 1814TIP3    H1 5375   2.697  -0.093   3.193
 1814TIP3    H2 5376   2.824  -0.156   3.134
 1815TIP3   OH2 5377   3.678   0.104   3.810
 1815TIP3    H1 5378   3.595   0.158   3.814
 1815TIP3    H2 5379   3.709   0.128   3.720
 1816TIP3   OH2 5380   3.123  -0.050   3.196
 1816TIP3    H1 5381   3.069  -0.030   3.276
 1816TIP3    H2 5382   3.207  -0.077   3.240
 1817TIP3   OH2 5383   3.355  -0.018   4.112
 1817TIP3    H1 5384   3.352   0.064   4.165
 1817TIP3    H2 5385   3.269  -0.011   4.066
 1818TIP3   OH2 5386   2.357  -0.061   3.610
 1818TIP3    H1 5387   2.335  -0.110   3.530
 1818TIP3    H2 5388   2.435  -0.111   3.644
 1819TIP3   OH2 5389   2.482   0.350   3.761
 1819TIP3    H1 5390   2.466   0.314   3.673
 1819TIP3    H2 5391   2.573   0.318   3.780
 1820TIP3   OH2 5392   2.487  -0.087   3.965
 1820TIP3    H1 5393   2.527  -0.111   3.880
 1820TIP3    H2 5394   2.533  -0.003   3.988
 1821TIP3   OH2 5395   3.011   0.550   3.742
 1821TIP3    H1 5396   3.000   0.630   3.796
 1821TIP3    H2 5397   2.999   0.478   3.807
 1822TIP3   OH2 5398   2.627   0.469   4.290
 1822TIP3    H1 5399   2.567   0.531   4.337
 1822TIP3    H2 5400   2.561   0.415   4.241
 1823TIP3   OH2 5401   2.971  -0.192   3.021
 1823TIP3    H1 5402   3.030  -0.136   3.076
 1823TIP3    H2 5403   2.997  -0.167   2.930
 1824TIP3   OH2 5404   2.373   0.035   4.382
 1824TIP3    H1 5405   2.380   0.118   4.434
 1824TIP3    H2 5406   2.281   0.010   4.402
 1825TIP3   OH2 5407   2.708   0.476   3.304
 1825TIP3    H1 5408   2.788   0.531   3.311
 1825TIP3    H2 5409   2.647   0.535   3.258
 1826TIP3   OH2 5410   2.421   0.636   4.377
 1826TIP3    H1 5411   2.387   0.635   4.286
 1826TIP3    H2 5412   2.340   0.615   4.430
 1827TIP3   OH2 5413   3.276   0.409   2.612
 1827TIP3    H1 5414   3.284   0.507   2.605
 1827TIP3    H2 5415   3.370   0.383   2.599
 1828TIP3   OH2 5416   2.001   0.167   4.324
 1828TIP3    H1 5417   1.936   0.144   4.254
 1828TIP3    H2 5418   2.038   0.080   4.349
 1829TIP3   OH2 5419   1.856   0.356   3.959
 1829TIP3    H1 5420   1.952   0.359   3.950
 1829TIP3    H2 5421   1.840   0.438   4.008
 1830TIP3   OH2 5422   3.720   0.812   4.016
 1830TIP3    H1 5423   3.717   0.715   4.029
 1830TIP3    H2 5424   3.635   0.838   4.060
 1831TIP3   OH2 5425   2.824   0.599   4.146
 1831TIP3    H1 5426   2.822   0.691   4.179
 1831TIP3    H2 5427   2.754   0.558   4.201
 1832TIP3   OH2 5428   2.586   0.728   3.102
 1832TIP3    H1 5429   2.544   0.711   3.016
 1832TIP3    H2 5430   2.555   0.817   3.125
 1833TIP3   OH2 5431   2.033   0.594   3.483
 1833TIP3    H1 5432   2.075   0.577   3.571
 1833TIP3    H2 5433   1.978   0.513   3.474
 1834TIP3   OH2 5434   2.788   0.627   2.743
 1834TIP3    H1 5435   2.846   0.556   2.709
 1834TIP3    H2 5436   2.820   0.636   2.836
 1835TIP3   OH2 5437   2.837   0.675   3.010
 1835TIP3    H1 5438   2.750   0.682   3.055
 1835TIP3    H2 5439   2.893   0.642   3.083
 1836TIP3   OH2 5440   3.608  -0.070   4.291
 1836TIP3    H1 5441   3.530  -0.039   4.242
 1836TIP3    H2 5442   3.603  -0.166   4.277
 1837TIP3   OH2 5443   2.205   0.351   4.312
 1837TIP3    H1 5444   2.256   0.334   4.394
 1837TIP3    H2 5445   2.132   0.286   4.320
 1838TIP3   OH2 5446   3.374  -0.278   4.230
 1838TIP3    H1 5447   3.354  -0.247   4.318
 1838TIP3    H2 5448   3.359  -0.200   4.175
 1839TIP3   OH2 5449   3.035  -0.134   2.757
 1839TIP3    H1 5450   3.039  -0.176   2.671
 1839TIP3    H2 5451   3.116  -0.081   2.754
 1840TIP3   OH2 5452   2.549  -0.303   4.128
 1840TIP3    H1 5453   2.492  -0.286   4.205
 1840TIP3    H2 5454   2.534  -0.223   4.074
 1841TIP3   OH2 5455   2.416  -0.441   3.624
 1841TIP3    H1 5456   2.322  -0.432   3.609
 1841TIP3    H2 5457   2.452  -0.455   3.535
 1842TIP3   OH2 5458   2.906  -0.344   3.353
 1842TIP3    H1 5459   2.863  -0.268   3.307
 1842TIP3    H2 5460   2.967  -0.376   3.283
 1843TIP3   OH2 5461   3.093  -0.034   4.431
 1843TIP3    H1 5462   3.068  -0.116   4.481
 1843TIP3    H2 5463   3.188  -0.027   4.455
 1844TIP3   OH2 5464   3.048  -0.275   3.616
 1844TIP3    H1 5465   2.997  -0.231   3.545
 1844TIP3    H2 5466   3.074  -0.357   3.567
 1845TIP3   OH2 5467   2.353  -0.277   4.326
 1845TIP3    H1 5468   2.380  -0.218   4.397
 1845TIP3    H2 5469   2.337  -0.361   4.372
 1846TIP3   OH2 5470   3.069  -0.059   4.018
 1846TIP3    H1 5471   3.108  -0.131   3.962
 1846TIP3    H2 5472   3.048  -0.112   4.098
 1847TIP3   OH2 5473   3.411   1.162   4.112
 1847TIP3    H1 5474   3.409   1.188   4.017
 1847TIP3    H2 5475   3.489   1.211   4.143
 1848TIP3   OH2 5476   2.366   0.274   4.533
 1848TIP3    H1 5477   2.447   0.302   4.580
 1848TIP3    H2 5478   2.303   0.271   4.607
 1849TIP3   OH2 5479   2.818  -0.272   3.789
 1849TIP3    H1 5480   2.900  -0.303   3.749
 1849TIP3    H2 5481   2.825  -0.307   3.881
 1850TIP3   OH2 5482   2.826  -0.347   4.051
 1850TIP3    H1 5483   2.736  -0.350   4.089
 1850TIP3    H2 5484   2.877  -0.306   4.123
 1851TIP3   OH2 5485   2.539   0.003   3.175
 1851TIP3    H1 5486   2.444  -0.003   3.179
 1851TIP3    H2 5487   2.552   0.046   3.263
 1852TIP3   OH2 5488   3.445   0.250   3.800
 1852TIP3    H1 5489   3.471   0.300   3.719
 1852TIP3    H2 5490   3.359   0.211   3.773
 1853TIP3   OH2 5491   2.936   0.328   4.171
 1853TIP3    H1 5492   2.972   0.311   4.259
 1853TIP3    H2 5493   2.905   0.420   4.178
 1854TIP3   OH2 5494   3.067  -0.425   3.141
 1854TIP3    H1 5495   3.164  -0.414   3.147
 1854TIP3    H2 5496   3.039  -0.351   3.085
 1855TIP3   OH2 5497   2.223   0.011   3.846
 1855TIP3    H1 5498   2.275  -0.001   3.764
 1855TIP3    H2 5499   2.282  -0.027   3.913
 1856TIP3   OH2 5500   2.681   0.160   2.981
 1856TIP3    H1 5501   2.644   0.249   3.001
 1856TIP3    H2 5502   2.630   0.106   3.044
 1857TIP3   OH2 5503   2.117  -0.044   4.463
 1857TIP3    H1 5504   2.141  -0.059   4.557
 1857TIP3    H2 5505   2.049  -0.112   4.450
 1858TIP3   OH2 5506   2.843   0.073   4.485
 1858TIP3    H1 5507   2.784   0.017   4.432
 1858TIP3    H2 5508   2.931   0.045   4.453
 1859TIP3   OH2 5509   3.101   0.586   4.069
 1859TIP3    H1 5510   3.005   0.591   4.080
 1859TIP3    H2 5511   3.130   0.641   4.145
 1860TIP3   OH2 5512   3.514  -0.341   2.963
 1860TIP3    H1 5513   3.456  -0.394   2.903
 1860TIP3    H2 5514   3.499  -0.252   2.926
 1861TIP3   OH2 5515   3.731   0.519   4.057
 1861TIP3    H1 5516   3.633   0.515   4.047
 1861TIP3    H2 5517   3.758   0.492   3.967
 1862TIP3   OH2 5518   3.194   0.482   2.876
 1862TIP3    H1 5519   3.191   0.419   2.950
 1862TIP3    H2 5520   3.227   0.430   2.802
 1863TIP3   OH2 5521   3.208   0.114   3.717
 1863TIP3    H1 5522   3.115   0.087   3.731
 1863TIP3    H2 5523   3.244   0.035   3.673
 1864TIP3   OH2 5524   2.335   0.337   3.469
 1864TIP3    H1 5525   2.336   0.421   3.419
 1864TIP3    H2 5526   2.240   0.321   3.477
 1865TIP3   OH2 5527   2.477   0.108   3.417
 1865TIP3    H1 5528   2.441   0.198   3.431
 1865TIP3    H2 5529   2.445   0.063   3.497
 1866TIP3   OH2 5530   2.607   0.682   3.942
 1866TIP3    H1 5531   2.649   0.755   3.892
 1866TIP3    H2 5532   2.684   0.647   3.991
 1867TIP3   OH2 5533   2.258   0.578   3.324
 1867TIP3    H1 5534   2.173   0.587   3.371
 1867TIP3    H2 5535   2.289   0.671   3.326
 1868TIP3   OH2 5536   2.993   0.318   3.902
 1868TIP3    H1 5537   2.982   0.315   4.000
 1868TIP3    H2 5538   3.076   0.269   3.891
 1869TIP3   OH2 5539   2.967   0.205   2.787
 1869TIP3    H1 5540   3.026   0.180   2.861
 1869TIP3    H2 5541   2.881   0.191   2.829
 1870TIP3   OH2 5542   3.242   0.850   3.952
 1870TIP3    H1 5543   3.162   0.795   3.942
 1870TIP3    H2 5544   3.229   0.915   3.880
 1871TIP3   OH2 5545   3.309   0.686   2.606
 1871TIP3    H1 5546   3.353   0.764   2.566
 1871TIP3    H2 5547   3.228   0.730   2.636
 1872TIP3   OH2 5548   3.132   0.134   2.992
 1872TIP3    H1 5549   3.122   0.075   3.070
 1872TIP3    H2 5550   3.230   0.139   2.987
 1873TIP3   OH2 5551   2.046   0.545   4.101
 1873TIP3    H1 5552   2.098   0.471   4.137
 1873TIP3    H2 5553   2.073   0.617   4.159
 1874TIP3   OH2 5554   2.299   0.199   3.035
 1874TIP3    H1 5555   2.312   0.179   3.128
 1874TIP3    H2 5556   2.289   0.297   3.040
 1875TIP3   OH2 5557   2.558   0.395   3.025
 1875TIP3    H1 5558   2.471   0.425   3.057
 1875TIP3    H2 5559   2.557   0.426   2.933
 1876TIP3   OH2 5560   2.715  -0.532   3.398
 1876TIP3    H1 5561   2.783  -0.461   3.391
 1876TIP3    H2 5562   2.759  -0.593   3.459
 1877TIP3   OH2 5563   3.015  -0.224   4.229
 1877TIP3    H1 5564   3.012  -0.164   4.305
 1877TIP3    H2 5565   3.070  -0.295   4.264
 1878TIP3   OH2 5566   2.294   0.469   3.071
 1878TIP3    H1 5567   2.259   0.539   3.012
 1878TIP3    H2 5568   2.273   0.506   3.159
 1879TIP3   OH2 5569   3.295  -0.128   3.596
 1879TIP3    H1 5570   3.217  -0.182   3.619
 1879TIP3    H2 5571   3.367  -0.174   3.645
 1880TIP3   OH2 5572   3.264   0.823   3.543
 1880TIP3    H1 5573   3.222   0.869   3.466
 1880TIP3    H2 5574   3.358   0.846   3.525
 1881TIP3   OH2 5575   1.901   0.359   3.449
 1881TIP3    H1 5576   1.825   0.305   3.475
 1881TIP3    H2 5577   1.929   0.312   3.369
 1882TIP3   OH2 5578   2.036   0.856   4.527
 1882TIP3    H1 5579   2.123   0.855   4.572
 1882TIP3    H2 5580   2.017   0.761   4.522
 1883TIP3   OH2 5581   2.514   0.817   4.569
 1883TIP3    H1 5582   2.609   0.799   4.577
 1883TIP3    H2 5583   2.491   0.757   4.495
 1884TIP3   OH2 5584   2.513   0.402   2.749
 1884TIP3    H1 5585   2.447   0.336   2.774
 1884TIP3    H2 5586   2.521   0.382   2.655
 1885TIP3   OH2 5587   3.154   0.726   4.302
 1885TIP3    H1 5588   3.147   0.655   4.370
 1885TIP3    H2 5589   3.232   0.775   4.331
 1886TIP3   OH2 5590   2.937   0.431   2.607
 1886TIP3    H1 5591   2.978   0.378   2.677
 1886TIP3    H2 5592   3.011   0.449   2.548
 1887TIP3   OH2 5593   2.166   0.263   4.725
 1887TIP3    H1 5594   2.183   0.168   4.732
 1887TIP3    H2 5595   2.079   0.265   4.680
 1888TIP3   OH2 5596   2.772   0.346   4.499
 1888TIP3    H1 5597   2.734   0.362   4.410
 1888TIP3    H2 5598   2.805   0.254   4.491
 1889TIP3   OH2 5599   2.640   0.093   2.714
 1889TIP3    H1 5600   2.641   0.134   2.802
 1889TIP3    H2 5601   2.648  -0.001   2.739
 1890TIP3   OH2 5602   3.264   0.356   4.102
 1890TIP3    H1 5603   3.341   0.398   4.059
 1890TIP3    H2 5604   3.196   0.426   4.089
 1891TIP3   OH2 5605   2.290  -0.004   4.703
 1891TIP3    H1 5606   2.368  -0.059   4.688
 1891TIP3    H2 5607   2.309   0.027   4.794
 1892TIP3   OH2 5608   2.616  -0.095   4.363
 1892TIP3    H1 5609   2.535  -0.039   4.360
 1892TIP3    H2 5610   2.664  -0.068   4.282
 1893TIP3   OH2 5611   3.138   0.283   4.501
 1893TIP3    H1 5612   3.215   0.253   4.451
 1893TIP3    H2 5613   3.131   0.214   4.570
 1894TIP3   OH2 5614   3.279  -0.054   2.641
 1894TIP3    H1 5615   3.250  -0.100   2.560
 1894TIP3    H2 5616   3.246   0.037   2.619
 1895TIP3   OH2 5617   2.708  -0.313   4.489
 1895TIP3    H1 5618   2.661  -0.374   4.431
 1895TIP3    H2 5619   2.681  -0.227   4.449
 1896TIP3   OH2 5620   2.780  -0.006   4.168
 1896TIP3    H1 5621   2.864  -0.000   4.119
 1896TIP3    H2 5622   2.725   0.061   4.123
 1897TIP3   OH2 5623   3.349  -0.043   4.531
 1897TIP3    H1 5624   3.380  -0.101   4.604
 1897TIP3    H2 5625   3.426   0.012   4.513
 1898TIP3   OH2 5626   3.396   0.209   4.287
 1898TIP3    H1 5627   3.337   0.264   4.230
 1898TIP3    H2 5628   3.483   0.233   4.247
 1899TIP3   OH2 5629   2.586  -0.185   4.713
 1899TIP3    H1 5630   2.547  -0.258   4.762
 1899TIP3    H2 5631   2.646  -0.230   4.650
 1900TIP3   OH2 5632   2.989  -0.260   4.525
 1900TIP3    H1 5633   3.015  -0.288   4.615
 1900TIP3    H2 5634   2.893  -0.274   4.530
 1901TIP3   OH2 5635   2.259   0.667   2.880
 1901TIP3    H1 5636   2.356   0.669   2.871
 1901TIP3    H2 5637   2.235   0.724   2.805
 1902TIP3   OH2 5638   1.653   0.650   3.498
 1902TIP3    H1 5639   1.575   0.595   3.488
 1902TIP3    H2 5640   1.700   0.605   3.573
 1903TIP3   OH2 5641   1.773   0.532   3.711
 1903TIP3    H1 5642   1.776   0.449   3.760
 1903TIP3    H2 5643   1.834   0.587   3.764
 1904TIP3   OH2 5644   3.513   0.921   3.498
 1904TIP3    H1 5645   3.547   0.957   3.582
 1904TIP3    H2 5646   3.588   0.936   3.438
 1905TIP3   OH2 5647   3.543   0.936   3.787
 1905TIP3    H1 5648   3.505   0.846   3.780
 1905TIP3    H2 5649   3.625   0.916   3.834
 1906TIP3   OH2 5650   3.593   0.612   4.359
 1906TIP3    H1 5651   3.520   0.622   4.423
 1906TIP3    H2 5652   3.635   0.701   4.362
 1907TIP3   OH2 5653   3.411   0.126   2.972
 1907TIP3    H1 5654   3.480   0.191   2.948
 1907TIP3    H2 5655   3.451   0.088   3.054
 1908TIP3   OH2 5656   3.533  -0.005   3.175
 1908TIP3    H1 5657   3.470  -0.043   3.240
 1908TIP3    H2 5658   3.602   0.035   3.233
 1909TIP3   OH2 5659   3.589   0.385   3.609
 1909TIP3    H1 5660   3.645   0.321   3.561
 1909TIP3    H2 5661   3.590   0.463   3.549
 1910TIP3   OH2 5662   3.420   0.682   3.808
 1910TIP3    H1 5663   3.350   0.728   3.857
 1910TIP3    H2 5664   3.371   0.637   3.737
 1911TIP3   OH2 5665   3.467  -0.105   2.829
 1911TIP3    H1 5666   3.400  -0.087   2.759
 1911TIP3    H2 5667   3.449  -0.028   2.888
 1912TIP3   OH2 5668   3.340  -0.443   2.771
 1912TIP3    H1 5669   3.323  -0.357   2.733
 1912TIP3    H2 5670   3.249  -0.475   2.786
 1913TIP3   OH2 5671   3.349  -0.140   3.326
 1913TIP3    H1 5672   3.350  -0.236   3.308
 1913TIP3    H2 5673   3.337  -0.135   3.423
 1914TIP3   OH2 5674   1.974  -0.079   4.070
 1914TIP3    H1 5675   1.973  -0.104   3.976
 1914TIP3    H2 5676   2.072  -0.078   4.088
 1915TIP3   OH2 5677   3.639   0.275   4.182
 1915TIP3    H1 5678   3.711   0.210   4.173
 1915TIP3    H2 5679   3.667   0.346   4.122
 1916TIP3   OH2 5680   3.819   0.078   4.201
 1916TIP3    H1 5681   3.747   0.023   4.238
 1916TIP3    H2 5682   3.895   0.017   4.216
 1917TIP3   OH2 5683   3.341  -0.395   3.185
 1917TIP3    H1 5684   3.367  -0.472   3.241
 1917TIP3    H2 5685   3.413  -0.391   3.120
 1918TIP3   OH2 5686   3.504  -0.254   3.721
 1918TIP3    H1 5687   3.591  -0.231   3.680
 1918TIP3    H2 5688   3.520  -0.219   3.811
 1919TIP3   OH2 5689   3.570  -0.107   3.950
 1919TIP3    H1 5690   3.492  -0.071   3.997
 1919TIP3    H2 5691   3.604  -0.028   3.903
 1920TIP3   OH2 5692   2.192  -0.396   4.742
 1920TIP3    H1 5693   2.288  -0.404   4.746
 1920TIP3    H2 5694   2.164  -0.482   4.778
 1921TIP3   OH2 5695   1.952  -0.420   4.149
 1921TIP3    H1 5696   2.001  -0.416   4.065
 1921TIP3    H2 5697   1.986  -0.344   4.197
 1922TIP3   OH2 5698   3.095   0.784   3.155
 1922TIP3    H1 5699   3.153   0.773   3.077
 1922TIP3    H2 5700   3.146   0.846   3.210
 1923TIP3   OH2 5701   2.200   0.590   4.543
 1923TIP3    H1 5702   2.108   0.561   4.527
 1923TIP3    H2 5703   2.213   0.566   4.635
 1924TIP3   OH2 5704   2.380   0.619   4.091
 1924TIP3    H1 5705   2.333   0.695   4.052
 1924TIP3    H2 5706   2.467   0.633   4.047
 1925TIP3   OH2 5707   2.823   0.864   4.229
 1925TIP3    H1 5708   2.866   0.864   4.317
 1925TIP3    H2 5709   2.890   0.914   4.177
 1926TIP3   OH2 5710   3.003   1.015   4.089
 1926TIP3    H1 5711   3.075   0.966   4.046
 1926TIP3    H2 5712   3.055   1.074   4.148
 1927TIP3   OH2 5713   2.056   0.875   4.115
 1927TIP3    H1 5714   1.966   0.908   4.092
 1927TIP3    H2 5715   2.067   0.917   4.201
 1928TIP3   OH2 5716   2.292   0.854   3.973
 1928TIP3    H1 5717   2.205   0.866   4.018
 1928TIP3    H2 5718   2.272   0.887   3.883
 1929TIP3   OH2 5719   2.717   0.883   3.771
 1929TIP3    H1 5720   2.648   0.905   3.706
 1929TIP3    H2 5721   2.732   0.969   3.815
 1930TIP3   OH2 5722   2.987   0.820   3.822
 1930TIP3    H1 5723   2.894   0.841   3.802
 1930TIP3    H2 5724   3.034   0.895   3.781
 1931TIP3   OH2 5725   3.187   1.009   3.736
 1931TIP3    H1 5726   3.178   1.096   3.690
 1931TIP3    H2 5727   3.219   0.952   3.663
 1932TIP3   OH2 5728   1.967   0.669   3.860
 1932TIP3    H1 5729   1.994   0.642   3.951
 1932TIP3    H2 5730   2.040   0.627   3.809
 1933TIP3   OH2 5731   2.163   0.542   3.720
 1933TIP3    H1 5732   2.178   0.457   3.767
 1933TIP3    H2 5733   2.254   0.578   3.717
 1934TIP3   OH2 5734   2.429   0.636   3.722
 1934TIP3    H1 5735   2.461   0.544   3.711
 1934TIP3    H2 5736   2.476   0.659   3.805
 1935TIP3   OH2 5737   1.716   0.445   3.217
 1935TIP3    H1 5738   1.639   0.420   3.267
 1935TIP3    H2 5739   1.744   0.526   3.266
 1936TIP3   OH2 5740   2.528   0.660   2.833
 1936TIP3    H1 5741   2.618   0.678   2.800
 1936TIP3    H2 5742   2.517   0.570   2.795
 1937TIP3   OH2 5743   3.243   0.748   2.925
 1937TIP3    H1 5744   3.231   0.651   2.910
 1937TIP3    H2 5745   3.203   0.783   2.843
 1938TIP3   OH2 5746   3.470   0.892   4.116
 1938TIP3    H1 5747   3.393   0.862   4.064
 1938TIP3    H2 5748   3.454   0.989   4.116
 1939TIP3   OH2 5749   4.740   0.261   2.879
 1939TIP3    H1 5750   4.714   0.354   2.863
 1939TIP3    H2 5751   4.659   0.216   2.848
 1940TIP3   OH2 5752   4.742   0.262   3.260
 1940TIP3    H1 5753   4.771   0.243   3.351
 1940TIP3    H2 5754   4.693   0.181   3.237
 1941TIP3   OH2 5755   4.034   0.161   3.629
 1941TIP3    H1 5756   4.070   0.092   3.688
 1941TIP3    H2 5757   4.111   0.219   3.620
 1942TIP3   OH2 5758   4.982   0.567   2.945
 1942TIP3    H1 5759   4.969   0.502   3.015
 1942TIP3    H2 5760   5.011   0.645   2.995
 1943TIP3   OH2 5761   3.999   0.551   3.386
 1943TIP3    H1 5762   4.001   0.455   3.371
 1943TIP3    H2 5763   4.087   0.576   3.353
 1944TIP3   OH2 5764   3.706  -0.221   3.144
 1944TIP3    H1 5765   3.659  -0.137   3.159
 1944TIP3    H2 5766   3.639  -0.272   3.096
 1945TIP3   OH2 5767   3.768   0.068   3.299
 1945TIP3    H1 5768   3.811  -0.012   3.337
 1945TIP3    H2 5769   3.843   0.116   3.261
 1946TIP3   OH2 5770   4.628   1.028   2.955
 1946TIP3    H1 5771   4.676   0.954   2.913
 1946TIP3    H2 5772   4.622   0.999   3.047
 1947TIP3   OH2 5773   4.541   0.488   3.310
 1947TIP3    H1 5774   4.582   0.413   3.263
 1947TIP3    H2 5775   4.623   0.535   3.336
 1948TIP3   OH2 5776   4.959  -0.007   3.354
 1948TIP3    H1 5777   4.971  -0.098   3.384
 1948TIP3    H2 5778   4.917  -0.018   3.267
 1949TIP3   OH2 5779   4.278  -0.390   3.270
 1949TIP3    H1 5780   4.252  -0.298   3.248
 1949TIP3    H2 5781   4.194  -0.436   3.258
 1950TIP3   OH2 5782   4.945  -0.233   2.976
 1950TIP3    H1 5783   5.006  -0.279   3.037
 1950TIP3    H2 5784   4.998  -0.230   2.896
 1951TIP3   OH2 5785   3.897  -0.147   3.405
 1951TIP3    H1 5786   3.988  -0.144   3.442
 1951TIP3    H2 5787   3.914  -0.205   3.329
 1952TIP3   OH2 5788   4.359   0.054   3.206
 1952TIP3    H1 5789   4.452   0.028   3.225
 1952TIP3    H2 5790   4.319  -0.032   3.183
 1953TIP3   OH2 5791   5.586  -0.002   3.501
 1953TIP3    H1 5792   5.514   0.057   3.471
 1953TIP3    H2 5793   5.647   0.058   3.544
 1954TIP3   OH2 5794   4.631   0.485   2.748
 1954TIP3    H1 5795   4.590   0.468   2.662
 1954TIP3    H2 5796   4.588   0.569   2.773
 1955TIP3   OH2 5797   4.390   0.409   3.535
 1955TIP3    H1 5798   4.327   0.476   3.572
 1955TIP3    H2 5799   4.428   0.459   3.461
 1956TIP3   OH2 5800   4.154  -0.183   3.470
 1956TIP3    H1 5801   4.220  -0.134   3.522
 1956TIP3    H2 5802   4.181  -0.274   3.489
 1957TIP3   OH2 5803   4.221   0.603   3.636
 1957TIP3    H1 5804   4.195   0.685   3.589
 1957TIP3    H2 5805   4.140   0.591   3.691
 1958TIP3   OH2 5806   3.612   0.294   2.865
 1958TIP3    H1 5807   3.566   0.333   2.790
 1958TIP3    H2 5808   3.640   0.377   2.913
 1959TIP3   OH2 5809   5.051   0.809   3.105
 1959TIP3    H1 5810   4.962   0.801   3.147
 1959TIP3    H2 5811   5.044   0.897   3.063
 1960TIP3   OH2 5812   4.752   0.853   2.781
 1960TIP3    H1 5813   4.805   0.773   2.760
 1960TIP3    H2 5814   4.812   0.921   2.742
 1961TIP3   OH2 5815   4.897   0.639   2.692
 1961TIP3    H1 5816   4.857   0.559   2.657
 1961TIP3    H2 5817   4.934   0.607   2.777
 1962TIP3   OH2 5818   5.277   0.723   3.453
 1962TIP3    H1 5819   5.266   0.646   3.393
 1962TIP3    H2 5820   5.259   0.798   3.393
 1963TIP3   OH2 5821   4.566   0.120   2.707
 1963TIP3    H1 5822   4.486   0.171   2.684
 1963TIP3    H2 5823   4.613   0.117   2.621
 1964TIP3   OH2 5824   4.526  -0.099   2.428
 1964TIP3    H1 5825   4.598  -0.050   2.472
 1964TIP3    H2 5826   4.576  -0.168   2.382
 1965TIP3   OH2 5827   5.473   0.358   3.294
 1965TIP3    H1 5828   5.391   0.411   3.300
 1965TIP3    H2 5829   5.504   0.386   3.205
 1966TIP3   OH2 5830   4.915   0.198   2.680
 1966TIP3    H1 5831   4.861   0.223   2.759
 1966TIP3    H2 5832   5.001   0.178   2.725
 1967TIP3   OH2 5833   5.150   0.239   3.597
 1967TIP3    H1 5834   5.148   0.320   3.651
 1967TIP3    H2 5835   5.063   0.245   3.553
 1968TIP3   OH2 5836   4.153   0.196   3.094
 1968TIP3    H1 5837   4.114   0.135   3.029
 1968TIP3    H2 5838   4.229   0.144   3.128
 1969TIP3   OH2 5839   4.263   0.564   3.265
 1969TIP3    H1 5840   4.258   0.563   3.169
 1969TIP3    H2 5841   4.360   0.561   3.279
 1970TIP3   OH2 5842   4.285   0.168   3.456
 1970TIP3    H1 5843   4.318   0.146   3.367
 1970TIP3    H2 5844   4.327   0.254   3.475
 1971TIP3   OH2 5845   4.812   0.805   3.230
 1971TIP3    H1 5846   4.797   0.886   3.281
 1971TIP3    H2 5847   4.796   0.734   3.295
 1972TIP3   OH2 5848   4.425   0.724   3.779
 1972TIP3    H1 5849   4.365   0.788   3.823
 1972TIP3    H2 5850   4.359   0.672   3.727
 1973TIP3   OH2 5851   4.757   0.056   2.508
 1973TIP3    H1 5852   4.815   0.117   2.559
 1973TIP3    H2 5853   4.783   0.079   2.415
 1974TIP3   OH2 5854   4.171   0.287   3.875
 1974TIP3    H1 5855   4.177   0.373   3.922
 1974TIP3    H2 5856   4.077   0.267   3.888
 1975TIP3   OH2 5857   4.500   0.739   2.771
 1975TIP3    H1 5858   4.584   0.784   2.794
 1975TIP3    H2 5859   4.441   0.813   2.755
 1976TIP3   OH2 5860   4.219   0.893   3.863
 1976TIP3    H1 5861   4.187   0.892   3.771
 1976TIP3    H2 5862   4.138   0.870   3.914
 1977TIP3   OH2 5863   4.020   0.034   2.895
 1977TIP3    H1 5864   3.946   0.078   2.848
 1977TIP3    H2 5865   3.979  -0.048   2.924
 1978TIP3   OH2 5866   5.071   0.665   2.105
 1978TIP3    H1 5867   5.079   0.762   2.090
 1978TIP3    H2 5868   5.165   0.637   2.094
 1979TIP3   OH2 5869   3.795   0.423   3.813
 1979TIP3    H1 5870   3.734   0.402   3.740
 1979TIP3    H2 5871   3.835   0.337   3.834
 1980TIP3   OH2 5872   3.657   0.612   3.448
 1980TIP3    H1 5873   3.752   0.604   3.427
 1980TIP3    H2 5874   3.656   0.695   3.499
 1981TIP3   OH2 5875   5.515   1.068   3.501
 1981TIP3    H1 5876   5.513   0.972   3.518
 1981TIP3    H2 5877   5.432   1.095   3.546
 1982TIP3   OH2 5878   4.626   0.852   3.638
 1982TIP3    H1 5879   4.622   0.946   3.669
 1982TIP3    H2 5880   4.551   0.813   3.689
 1983TIP3   OH2 5881   4.375   0.977   2.586
 1983TIP3    H1 5882   4.338   0.972   2.496
 1983TIP3    H2 5883   4.347   1.065   2.615
 1984TIP3   OH2 5884   4.582   0.878   2.230
 1984TIP3    H1 5885   4.643   0.811   2.191
 1984TIP3    H2 5886   4.621   0.890   2.319
 1985TIP3   OH2 5887   4.633   0.933   2.499
 1985TIP3    H1 5888   4.546   0.940   2.543
 1985TIP3    H2 5889   4.689   0.899   2.571
 1986TIP3   OH2 5890   5.406   0.186   3.777
 1986TIP3    H1 5891   5.326   0.222   3.734
 1986TIP3    H2 5892   5.391   0.090   3.765
 1987TIP3   OH2 5893   4.003   0.606   3.800
 1987TIP3    H1 5894   4.052   0.588   3.883
 1987TIP3    H2 5895   3.928   0.544   3.807
 1988TIP3   OH2 5896   5.183  -0.017   3.718
 1988TIP3    H1 5897   5.147   0.009   3.804
 1988TIP3    H2 5898   5.159   0.058   3.661
 1989TIP3   OH2 5899   4.835   0.097   2.252
 1989TIP3    H1 5900   4.800   0.078   2.164
 1989TIP3    H2 5901   4.914   0.150   2.229
 1990TIP3   OH2 5902   4.348  -0.049   3.615
 1990TIP3    H1 5903   4.289  -0.029   3.691
 1990TIP3    H2 5904   4.333   0.030   3.559
 1991TIP3   OH2 5905   4.215  -0.166   3.122
 1991TIP3    H1 5906   4.121  -0.189   3.135
 1991TIP3    H2 5907   4.231  -0.200   3.031
 1992TIP3   OH2 5908   4.699  -0.079   2.842
 1992TIP3    H1 5909   4.651  -0.006   2.799
 1992TIP3    H2 5910   4.765  -0.103   2.775
 1993TIP3   OH2 5911   4.890   0.220   3.916
 1993TIP3    H1 5912   4.864   0.140   3.967
 1993TIP3    H2 5913   4.984   0.228   3.941
 1994TIP3   OH2 5914   4.845  -0.018   3.104
 1994TIP3    H1 5915   4.792   0.028   3.037
 1994TIP3    H2 5916   4.870  -0.099   3.053
 1995TIP3   OH2 5917   4.153  -0.021   3.812
 1995TIP3    H1 5918   4.176   0.043   3.881
 1995TIP3    H2 5919   4.137  -0.102   3.863
 1996TIP3   OH2 5920   3.780  -0.424   2.940
 1996TIP3    H1 5921   3.795  -0.413   2.844
 1996TIP3    H2 5922   3.687  -0.395   2.947
 1997TIP3   OH2 5923   4.869   0.197   3.504
 1997TIP3    H1 5924   4.908   0.126   3.449
 1997TIP3    H2 5925   4.845   0.144   3.584
 1998TIP3   OH2 5926   3.966  -0.291   3.170
 1998TIP3    H1 5927   3.874  -0.261   3.154
 1998TIP3    H2 5928   3.965  -0.375   3.123
 1999TIP3   OH2 5929   4.258  -0.273   2.875
 1999TIP3    H1 5930   4.349  -0.285   2.844
 1999TIP3    H2 5931   4.205  -0.279   2.793
 2000TIP3   OH2 5932   4.089  -0.287   2.648
 2000TIP3    H1 5933   4.015  -0.305   2.587
 2000TIP3    H2 5934   4.148  -0.239   2.587
 2001TIP3   OH2 5935   5.207   1.418   3.599
 2001TIP3    H1 5936   5.206   1.444   3.506
 2001TIP3    H2 5937   5.287   1.465   3.631
 2002TIP3   OH2 5938   4.162   0.527   4.022
 2002TIP3    H1 5939   4.243   0.558   4.067
 2002TIP3    H2 5940   4.098   0.531   4.096
 2003TIP3   OH2 5941   4.615  -0.017   3.276
 2003TIP3    H1 5942   4.698  -0.047   3.238
 2003TIP3    H2 5943   4.621  -0.050   3.369
 2004TIP3   OH2 5944   4.624  -0.090   3.538
 2004TIP3    H1 5945   4.533  -0.093   3.574
 2004TIP3    H2 5946   4.674  -0.047   3.610
 2005TIP3   OH2 5947   4.334   0.271   2.654
 2005TIP3    H1 5948   4.264   0.203   2.648
 2005TIP3    H2 5949   4.321   0.303   2.747
 2006TIP3   OH2 5950   5.242   0.504   3.287
 2006TIP3    H1 5951   5.265   0.555   3.207
 2006TIP3    H2 5952   5.155   0.466   3.263
 2007TIP3   OH2 5953   4.769  -0.349   2.479
 2007TIP3    H1 5954   4.711  -0.399   2.541
 2007TIP3    H2 5955   4.808  -0.284   2.541
 2008TIP3   OH2 5956   4.738   0.588   3.657
 2008TIP3    H1 5957   4.764   0.570   3.748
 2008TIP3    H2 5958   4.700   0.677   3.663
 2009TIP3   OH2 5959   4.874  -0.157   2.639
 2009TIP3    H1 5960   4.972  -0.146   2.647
 2009TIP3    H2 5961   4.850  -0.079   2.584
 2010TIP3   OH2 5962   4.021   0.267   3.331
 2010TIP3    H1 5963   4.071   0.257   3.248
 2010TIP3    H2 5964   4.080   0.224   3.395
 2011TIP3   OH2 5965   4.483   0.422   2.480
 2011TIP3    H1 5966   4.430   0.504   2.485
 2011TIP3    H2 5967   4.431   0.363   2.540
 2012TIP3   OH2 5968   3.913   0.212   3.951
 2012TIP3    H1 5969   3.937   0.198   4.045
 2012TIP3    H2 5970   3.843   0.146   3.937
 2013TIP3   OH2 5971   4.639   0.328   3.973
 2013TIP3    H1 5972   4.580   0.275   3.917
 2013TIP3    H2 5973   4.727   0.301   3.939
 2014TIP3   OH2 5974   4.900   0.844   3.554
 2014TIP3    H1 5975   4.803   0.845   3.568
 2014TIP3    H2 5976   4.929   0.898   3.631
 2015TIP3   OH2 5977   5.310  -0.081   2.450
 2015TIP3    H1 5978   5.250  -0.132   2.391
 2015TIP3    H2 5979   5.294   0.009   2.413
 2016TIP3   OH2 5980   5.527   0.775   3.544
 2016TIP3    H1 5981   5.429   0.772   3.534
 2016TIP3    H2 5982   5.553   0.748   3.453
 2017TIP3   OH2 5983   5.005   0.740   2.368
 2017TIP3    H1 5984   4.986   0.668   2.431
 2017TIP3    H2 5985   5.023   0.692   2.285
 2018TIP3   OH2 5986   5.005   0.371   3.203
 2018TIP3    H1 5987   4.912   0.344   3.219
 2018TIP3    H2 5988   5.040   0.291   3.159
 2019TIP3   OH2 5989   4.128   0.590   2.948
 2019TIP3    H1 5990   4.129   0.679   2.909
 2019TIP3    H2 5991   4.046   0.591   2.998
 2020TIP3   OH2 5992   3.691  -0.098   2.666
 2020TIP3    H1 5993   3.742  -0.017   2.689
 2020TIP3    H2 5994   3.618  -0.092   2.731
 2021TIP3   OH2 5995   4.269   0.359   2.900
 2021TIP3    H1 5996   4.230   0.447   2.917
 2021TIP3    H2 5997   4.239   0.310   2.978
 2022TIP3   OH2 5998   4.412   0.935   3.451
 2022TIP3    H1 5999   4.439   1.001   3.386
 2022TIP3    H2 6000   4.496   0.908   3.490
 2023TIP3   OH2 6001   4.042   0.838   2.810
 2023TIP3    H1 6002   3.992   0.859   2.892
 2023TIP3    H2 6003   4.082   0.927   2.797
 2024TIP3   OH2 6004   4.792   0.573   3.389
 2024TIP3    H1 6005   4.779   0.574   3.487
 2024TIP3    H2 6006   4.875   0.525   3.381
 2025TIP3   OH2 6007   4.765   0.463   2.273
 2025TIP3    H1 6008   4.820   0.439   2.351
 2025TIP3    H2 6009   4.677   0.440   2.307
 2026TIP3   OH2 6010   5.039   1.105   3.437
 2026TIP3    H1 6011   4.959   1.050   3.430
 2026TIP3    H2 6012   5.024   1.171   3.366
 2027TIP3   OH2 6013   5.104   0.940   2.090
 2027TIP3    H1 6014   5.144   1.012   2.038
 2027TIP3    H2 6015   5.025   0.987   2.124
 2028TIP3   OH2 6016   4.926   0.396   2.486
 2028TIP3    H1 6017   4.917   0.331   2.558
 2028TIP3    H2 6018   5.023   0.397   2.474
 2029TIP3   OH2 6019   3.838   0.800   3.594
 2029TIP3    H1 6020   3.899   0.726   3.612
 2029TIP3    H2 6021   3.877   0.870   3.647
 2030TIP3   OH2 6022   4.133   0.441   2.278
 2030TIP3    H1 6023   4.147   0.353   2.241
 2030TIP3    H2 6024   4.123   0.422   2.373
 2031TIP3   OH2 6025   4.080   0.451   2.561
 2031TIP3    H1 6026   4.152   0.408   2.609
 2031TIP3    H2 6027   4.106   0.545   2.567
 2032TIP3   OH2 6028   3.808   0.141   2.748
 2032TIP3    H1 6029   3.743   0.190   2.803
 2032TIP3    H2 6030   3.846   0.211   2.694
 2033TIP3   OH2 6031   4.323   0.647   2.489
 2033TIP3    H1 6032   4.290   0.706   2.557
 2033TIP3    H2 6033   4.358   0.711   2.425
 2034TIP3   OH2 6034   4.546  -0.302   2.867
 2034TIP3    H1 6035   4.597  -0.217   2.863
 2034TIP3    H2 6036   4.547  -0.319   2.962
 2035TIP3   OH2 6037   4.813   0.033   3.716
 2035TIP3    H1 6038   4.809   0.098   3.788
 2035TIP3    H2 6039   4.861  -0.038   3.759
 2036TIP3   OH2 6040   4.004   0.733   2.555
 2036TIP3    H1 6041   4.040   0.809   2.503
 2036TIP3    H2 6042   4.018   0.766   2.647
 2037TIP3   OH2 6043   5.092   0.126   3.082
 2037TIP3    H1 6044   5.012   0.076   3.107
 2037TIP3    H2 6045   5.162   0.079   3.132
 2038TIP3   OH2 6046   3.815   0.392   2.524
 2038TIP3    H1 6047   3.902   0.413   2.562
 2038TIP3    H2 6048   3.842   0.319   2.464
 2039TIP3   OH2 6049   3.752  -0.366   2.672
 2039TIP3    H1 6050   3.740  -0.269   2.667
 2039TIP3    H2 6051   3.662  -0.399   2.662
 2040TIP3   OH2 6052   5.060   1.080   3.030
 2040TIP3    H1 6053   5.018   1.127   2.955
 2040TIP3    H2 6054   5.154   1.100   3.011
 2041TIP3   OH2 6055   3.663   0.549   2.948
 2041TIP3    H1 6056   3.639   0.607   3.022
 2041TIP3    H2 6057   3.655   0.609   2.872
 2042TIP3   OH2 6058   3.833   1.112   4.012
 2042TIP3    H1 6059   3.920   1.113   4.058
 2042TIP3    H2 6060   3.815   1.017   4.008
 2043TIP3   OH2 6061   4.310   1.073   4.056
 2043TIP3    H1 6062   4.405   1.058   4.063
 2043TIP3    H2 6063   4.287   1.014   3.982
 2044TIP3   OH2 6064   4.280   0.649   2.167
 2044TIP3    H1 6065   4.231   0.577   2.213
 2044TIP3    H2 6066   4.361   0.602   2.139
 2045TIP3   OH2 6067   4.954   0.980   3.786
 2045TIP3    H1 6068   4.945   0.912   3.856
 2045TIP3    H2 6069   5.030   1.032   3.818
 2046TIP3   OH2 6070   4.732   0.690   2.095
 2046TIP3    H1 6071   4.780   0.629   2.154
 2046TIP3    H2 6072   4.791   0.695   2.017
 2047TIP3   OH2 6073   3.961   0.516   4.213
 2047TIP3    H1 6074   3.978   0.421   4.214
 2047TIP3    H2 6075   3.874   0.520   4.167
 2048TIP3   OH2 6076   3.937   0.172   2.410
 2048TIP3    H1 6077   3.992   0.134   2.481
 2048TIP3    H2 6078   4.002   0.174   2.337
 2049TIP3   OH2 6079   4.569   0.603   3.986
 2049TIP3    H1 6080   4.527   0.622   3.899
 2049TIP3    H2 6081   4.599   0.510   3.976
 2050TIP3   OH2 6082   4.446   0.365   2.211
 2050TIP3    H1 6083   4.451   0.378   2.308
 2050TIP3    H2 6084   4.450   0.267   2.206
 2051TIP3   OH2 6085   5.061   0.611   3.589
 2051TIP3    H1 6086   5.136   0.657   3.546
 2051TIP3    H2 6087   4.991   0.678   3.578
 2052TIP3   OH2 6088   4.083   0.245   4.193
 2052TIP3    H1 6089   4.168   0.204   4.170
 2052TIP3    H2 6090   4.105   0.282   4.282
 2053TIP3   OH2 6091   4.138   0.074   2.624
 2053TIP3    H1 6092   4.120   0.036   2.712
 2053TIP3    H2 6093   4.178  -0.002   2.577
 2054TIP3   OH2 6094   4.414   0.161   3.850
 2054TIP3    H1 6095   4.332   0.216   3.849
 2054TIP3    H2 6096   4.460   0.190   3.768
 2055TIP3   OH2 6097   4.246  -0.134   2.473
 2055TIP3    H1 6098   4.219  -0.133   2.379
 2055TIP3    H2 6099   4.343  -0.129   2.464
 2056TIP3   OH2 6100   4.933   0.539   3.989
 2056TIP3    H1 6101   5.010   0.510   3.940
 2056TIP3    H2 6102   4.926   0.470   4.058
 2057TIP3   OH2 6103   5.068   0.192   2.131
 2057TIP3    H1 6104   5.051   0.149   2.045
 2057TIP3    H2 6105   5.038   0.283   2.108
 2058TIP3   OH2 6106   4.504  -0.056   3.977
 2058TIP3    H1 6107   4.458  -0.117   3.918
 2058TIP3    H2 6108   4.478   0.030   3.935
 2059TIP3   OH2 6109   4.578   0.252   3.656
 2059TIP3    H1 6110   4.659   0.262   3.604
 2059TIP3    H2 6111   4.519   0.317   3.612
 2060TIP3   OH2 6112   5.145   0.213   4.017
 2060TIP3    H1 6113   5.177   0.155   4.090
 2060TIP3    H2 6114   5.220   0.273   4.004
 2061TIP3   OH2 6115   5.193   0.464   3.772
 2061TIP3    H1 6116   5.133   0.519   3.716
 2061TIP3    H2 6117   5.280   0.489   3.732
 2062TIP3   OH2 6118   4.379   0.069   4.202
 2062TIP3    H1 6119   4.345  -0.011   4.244
 2062TIP3    H2 6120   4.442   0.033   4.137
 2063TIP3   OH2 6121   4.785  -0.006   4.012
 2063TIP3    H1 6122   4.810  -0.031   4.103
 2063TIP3    H2 6123   4.689  -0.017   4.016
 2064TIP3   OH2 6124   4.056   0.912   2.365
 2064TIP3    H1 6125   4.151   0.919   2.342
 2064TIP3    H2 6126   4.018   0.968   2.294
 2065TIP3   OH2 6127   3.537   0.316   2.569
 2065TIP3    H1 6128   3.632   0.341   2.566
 2065TIP3    H2 6129   3.540   0.222   2.540
 2066TIP3   OH2 6130   3.449   0.917   3.008
 2066TIP3    H1 6131   3.383   0.854   2.971
 2066TIP3    H2 6132   3.495   0.859   3.072
 2067TIP3   OH2 6133   3.583   0.759   3.187
 2067TIP3    H1 6134   3.576   0.697   3.261
 2067TIP3    H2 6135   3.643   0.826   3.227
 2068TIP3   OH2 6136   5.313   1.171   2.988
 2068TIP3    H1 6137   5.338   1.205   3.077
 2068TIP3    H2 6138   5.377   1.217   2.931
 2069TIP3   OH2 6139   5.341   1.192   3.270
 2069TIP3    H1 6140   5.300   1.104   3.269
 2069TIP3    H2 6141   5.418   1.174   3.327
 2070TIP3   OH2 6142   5.389   0.868   3.845
 2070TIP3    H1 6143   5.316   0.878   3.909
 2070TIP3    H2 6144   5.431   0.957   3.848
 2071TIP3   OH2 6145   5.205   0.382   2.460
 2071TIP3    H1 6146   5.272   0.448   2.432
 2071TIP3    H2 6147   5.249   0.345   2.540
 2072TIP3   OH2 6148   5.331   0.252   2.663
 2072TIP3    H1 6149   5.265   0.214   2.725
 2072TIP3    H2 6150   5.396   0.295   2.724
 2073TIP3   OH2 6151   5.387   0.642   3.099
 2073TIP3    H1 6152   5.440   0.580   3.047
 2073TIP3    H2 6153   5.381   0.719   3.038
 2074TIP3   OH2 6154   5.217   0.940   3.294
 2074TIP3    H1 6155   5.147   0.985   3.346
 2074TIP3    H2 6156   5.165   0.895   3.224
 2075TIP3   OH2 6157   5.263   0.155   2.315
 2075TIP3    H1 6158   5.194   0.164   2.245
 2075TIP3    H2 6159   5.241   0.233   2.370
 2076TIP3   OH2 6160   5.137  -0.185   2.257
 2076TIP3    H1 6161   5.118  -0.105   2.206
 2076TIP3    H2 6162   5.081  -0.250   2.212
 2077TIP3   OH2 6163   5.146   0.118   2.812
 2077TIP3    H1 6164   5.146   0.023   2.793
 2077TIP3    H2 6165   5.132   0.122   2.909
 2078TIP3   OH2 6166   3.772   0.179   3.560
 2078TIP3    H1 6167   3.771   0.154   3.466
 2078TIP3    H2 6168   3.869   0.182   3.577
 2079TIP3   OH2 6169   5.435   0.532   3.668
 2079TIP3    H1 6170   5.508   0.467   3.659
 2079TIP3    H2 6171   5.464   0.605   3.610
 2080TIP3   OH2 6172   5.616   0.334   3.683
 2080TIP3    H1 6173   5.544   0.280   3.723
 2080TIP3    H2 6174   5.691   0.273   3.699
 2081TIP3   OH2 6175   5.144  -0.135   2.679
 2081TIP3    H1 6176   5.173  -0.213   2.731
 2081TIP3    H2 6177   5.211  -0.131   2.607
 2082TIP3   OH2 6178   5.301   0.000   3.209
 2082TIP3    H1 6179   5.388   0.024   3.170
 2082TIP3    H2 6180   5.313   0.036   3.299
 2083TIP3   OH2 6181   5.366   0.148   3.437
 2083TIP3    H1 6182   5.289   0.182   3.486
 2083TIP3    H2 6183   5.398   0.228   3.391
 2084TIP3   OH2 6184   3.983  -0.138   4.234
 2084TIP3    H1 6185   4.077  -0.153   4.224
 2084TIP3    H2 6186   3.954  -0.221   4.275
 2085TIP3   OH2 6187   3.750  -0.168   3.638
 2085TIP3    H1 6188   3.797  -0.167   3.552
 2085TIP3    H2 6189   3.779  -0.085   3.676
 2086TIP3   OH2 6190   4.893   1.038   2.645
 2086TIP3    H1 6191   4.948   1.027   2.564
 2086TIP3    H2 6192   4.944   1.104   2.695
 2087TIP3   OH2 6193   3.998   0.842   4.029
 2087TIP3    H1 6194   3.905   0.817   4.013
 2087TIP3    H2 6195   4.007   0.828   4.124
 2088TIP3   OH2 6196   4.175   0.877   3.580
 2088TIP3    H1 6197   4.131   0.953   3.538
 2088TIP3    H2 6198   4.262   0.886   3.535
 2089TIP3   OH2 6199   4.620   1.120   3.715
 2089TIP3    H1 6200   4.661   1.120   3.804
 2089TIP3    H2 6201   4.686   1.172   3.664
 2090TIP3   OH2 6202   4.800   1.272   3.575
 2090TIP3    H1 6203   4.872   1.221   3.536
 2090TIP3    H2 6204   4.850   1.331   3.636
 2091TIP3   OH2 6205   3.852   1.134   3.601
 2091TIP3    H1 6206   3.761   1.164   3.579
 2091TIP3    H2 6207   3.864   1.176   3.687
 2092TIP3   OH2 6208   4.091   1.115   3.464
 2092TIP3    H1 6209   4.002   1.126   3.506
 2092TIP3    H2 6210   4.073   1.140   3.372
 2093TIP3   OH2 6211   4.520   1.142   3.252
 2093TIP3    H1 6212   4.443   1.162   3.194
 2093TIP3    H2 6213   4.530   1.227   3.300
 2094TIP3   OH2 6214   4.784   1.077   3.307
 2094TIP3    H1 6215   4.690   1.095   3.289
 2094TIP3    H2 6216   4.827   1.155   3.268
 2095TIP3   OH2 6217   4.988   1.269   3.223
 2095TIP3    H1 6218   4.976   1.355   3.177
 2095TIP3    H2 6219   5.015   1.210   3.150
 2096TIP3   OH2 6220   3.749   0.915   3.345
 2096TIP3    H1 6221   3.803   0.888   3.423
 2096TIP3    H2 6222   3.819   0.934   3.278
 2097TIP3   OH2 6223   3.566   0.694   2.725
 2097TIP3    H1 6224   3.476   0.670   2.695
 2097TIP3    H2 6225   3.558   0.790   2.726
 2098TIP3   OH2 6226   4.324   0.883   2.316
 2098TIP3    H1 6227   4.413   0.904   2.282
 2098TIP3    H2 6228   4.300   0.811   2.253
 2099TIP3   OH2 6229   5.042   1.006   2.413
 2099TIP3    H1 6230   5.032   0.909   2.400
 2099TIP3    H2 6231   4.999   1.040   2.333
 2100TIP3   OH2 6232   5.268   1.149   3.599
 2100TIP3    H1 6233   5.188   1.119   3.551
 2100TIP3    H2 6234   5.250   1.245   3.605
 2101TIP3   OH2 6235   6.528   0.516   2.376
 2101TIP3    H1 6236   6.508   0.610   2.358
 2101TIP3    H2 6237   6.452   0.474   2.332
 2102TIP3   OH2 6238   6.532   0.515   2.746
 2102TIP3    H1 6239   6.564   0.498   2.836
 2102TIP3    H2 6240   6.485   0.433   2.723
 2103TIP3   OH2 6241   5.834   0.414   3.112
 2103TIP3    H1 6242   5.865   0.348   3.177
 2103TIP3    H2 6243   5.905   0.479   3.115
 2104TIP3   OH2 6244   6.778   0.815   2.428
 2104TIP3    H1 6245   6.765   0.762   2.508
 2104TIP3    H2 6246   6.802   0.902   2.469
 2105TIP3   OH2 6247   5.804   0.823   2.834
 2105TIP3    H1 6248   5.795   0.726   2.840
 2105TIP3    H2 6249   5.901   0.833   2.829
 2106TIP3   OH2 6250   5.500   0.040   2.630
 2106TIP3    H1 6251   5.453   0.123   2.645
 2106TIP3    H2 6252   5.433  -0.008   2.577
 2107TIP3   OH2 6253   5.567   0.327   2.789
 2107TIP3    H1 6254   5.610   0.247   2.827
 2107TIP3    H2 6255   5.641   0.375   2.749
 2108TIP3   OH2 6256   6.427   1.285   2.447
 2108TIP3    H1 6257   6.471   1.212   2.397
 2108TIP3    H2 6258   6.431   1.252   2.537
 2109TIP3   OH2 6259   6.332   0.744   2.797
 2109TIP3    H1 6260   6.377   0.674   2.746
 2109TIP3    H2 6261   6.413   0.794   2.825
 2110TIP3   OH2 6262   6.751   0.242   2.838
 2110TIP3    H1 6263   6.765   0.152   2.870
 2110TIP3    H2 6264   6.718   0.228   2.747
 2111TIP3   OH2 6265   5.977  -0.153   2.777
 2111TIP3    H1 6266   6.005  -0.061   2.752
 2111TIP3    H2 6267   6.046  -0.209   2.743
 2112TIP3   OH2 6268   3.528   6.589   8.971
 2112TIP3    H1 6269   3.579   6.527   9.029
 2112TIP3    H2 6270   3.528   6.542   8.886
 2113TIP3   OH2 6271   5.689   0.103   2.891
 2113TIP3    H1 6272   5.782   0.109   2.926
 2113TIP3    H2 6273   5.703   0.065   2.803
 2114TIP3   OH2 6274   6.159   0.309   2.690
 2114TIP3    H1 6275   6.254   0.289   2.709
 2114TIP3    H2 6276   6.125   0.219   2.675
 2115TIP3   OH2 6277   6.417   0.735   2.240
 2115TIP3    H1 6278   6.391   0.729   2.147
 2115TIP3    H2 6279   6.381   0.822   2.265
 2116TIP3   OH2 6280   6.184   0.666   3.022
 2116TIP3    H1 6281   6.124   0.734   3.059
 2116TIP3    H2 6282   6.229   0.716   2.951
 2117TIP3   OH2 6283   5.945   0.074   2.959
 2117TIP3    H1 6284   6.006   0.132   3.010
 2117TIP3    H2 6285   5.984  -0.011   2.983
 2118TIP3   OH2 6286   6.013   0.861   3.117
 2118TIP3    H1 6287   5.991   0.950   3.081
 2118TIP3    H2 6288   5.935   0.848   3.174
 2119TIP3   OH2 6289   5.408   0.551   2.357
 2119TIP3    H1 6290   5.368   0.577   2.272
 2119TIP3    H2 6291   5.437   0.638   2.392
 2120TIP3   OH2 6292   6.833   1.049   2.561
 2120TIP3    H1 6293   6.755   1.048   2.621
 2120TIP3    H2 6294   6.846   1.145   2.551
 2121TIP3   OH2 6295   6.543   1.113   2.262
 2121TIP3    H1 6296   6.597   1.032   2.245
 2121TIP3    H2 6297   6.605   1.180   2.226
 2122TIP3   OH2 6298   6.690   0.897   2.181
 2122TIP3    H1 6299   6.669   0.814   2.136
 2122TIP3    H2 6300   6.728   0.864   2.265
 2123TIP3   OH2 6301   6.361   0.370   2.197
 2123TIP3    H1 6302   6.288   0.430   2.172
 2123TIP3    H2 6303   6.412   0.363   2.114
 2124TIP3   OH2 6304   6.705   0.450   2.179
 2124TIP3    H1 6305   6.660   0.480   2.262
 2124TIP3    H2 6306   6.797   0.434   2.210
 2125TIP3   OH2 6307   6.951   0.493   3.084
 2125TIP3    H1 6308   6.947   0.578   3.134
 2125TIP3    H2 6309   6.865   0.499   3.037
 2126TIP3   OH2 6310   5.945   0.449   2.588
 2126TIP3    H1 6311   5.910   0.395   2.514
 2126TIP3    H2 6312   6.027   0.402   2.614
 2127TIP3   OH2 6313   6.072   0.858   2.736
 2127TIP3    H1 6314   6.061   0.827   2.646
 2127TIP3    H2 6315   6.164   0.831   2.756
 2128TIP3   OH2 6316   6.084   0.423   2.941
 2128TIP3    H1 6317   6.119   0.406   2.851
 2128TIP3    H2 6318   6.124   0.510   2.963
 2129TIP3   OH2 6319   6.609   1.060   2.715
 2129TIP3    H1 6320   6.595   1.147   2.758
 2129TIP3    H2 6321   6.589   0.997   2.785
 2130TIP3   OH2 6322   6.215   0.973   3.275
 2130TIP3    H1 6323   6.157   1.040   3.317
 2130TIP3    H2 6324   6.150   0.925   3.219
 2131TIP3   OH2 6325   6.564   0.294   2.007
 2131TIP3    H1 6326   6.624   0.349   2.063
 2131TIP3    H2 6327   6.593   0.320   1.919
 2132TIP3   OH2 6328   5.966   0.545   3.358
 2132TIP3    H1 6329   5.974   0.630   3.406
 2132TIP3    H2 6330   5.872   0.524   3.377
 2133TIP3   OH2 6331   6.297   0.991   2.272
 2133TIP3    H1 6332   6.379   1.043   2.282
 2133TIP3    H2 6333   6.238   1.056   2.231
 2134TIP3   OH2 6334   6.013   1.147   3.350
 2134TIP3    H1 6335   5.978   1.150   3.259
 2134TIP3    H2 6336   5.933   1.127   3.403
 2135TIP3   OH2 6337   5.813   0.289   2.383
 2135TIP3    H1 6338   5.755   0.349   2.333
 2135TIP3    H2 6339   5.751   0.216   2.397
 2136TIP3   OH2 6340   6.805   0.938   1.645
 2136TIP3    H1 6341   6.840   1.027   1.620
 2136TIP3    H2 6342   6.882   0.882   1.627
 2137TIP3   OH2 6343   5.592   0.680   3.299
 2137TIP3    H1 6344   5.525   0.659   3.230
 2137TIP3    H2 6345   5.629   0.592   3.321
 2138TIP3   OH2 6346   5.448   0.872   2.932
 2138TIP3    H1 6347   5.545   0.871   2.923
 2138TIP3    H2 6348   5.436   0.952   2.986
 2139TIP3   OH2 6349   7.315   1.324   2.989
 2139TIP3    H1 6350   7.302   1.228   2.998
 2139TIP3    H2 6351   7.233   1.355   3.034
 2140TIP3   OH2 6352   6.394   1.109   3.112
 2140TIP3    H1 6353   6.415   1.198   3.146
 2140TIP3    H2 6354   6.336   1.074   3.182
 2141TIP3   OH2 6355   6.177   1.237   2.076
 2141TIP3    H1 6356   6.136   1.220   1.989
 2141TIP3    H2 6357   6.146   1.327   2.097
 2142TIP3   OH2 6358   5.615   1.089   2.458
 2142TIP3    H1 6359   5.665   1.080   2.542
 2142TIP3    H2 6360   5.556   1.012   2.464
 2143TIP3   OH2 6361   6.376   1.145   1.717
 2143TIP3    H1 6362   6.433   1.073   1.684
 2143TIP3    H2 6363   6.410   1.156   1.809
 2144TIP3   OH2 6364   6.430   1.190   1.985
 2144TIP3    H1 6365   6.342   1.198   2.028
 2144TIP3    H2 6366   6.484   1.155   2.058
 2145TIP3   OH2 6367   7.200   0.444   3.264
 2145TIP3    H1 6368   7.118   0.481   3.227
 2145TIP3    H2 6369   7.180   0.349   3.261
 2146TIP3   OH2 6370   5.799   0.862   3.283
 2146TIP3    H1 6371   5.847   0.850   3.367
 2146TIP3    H2 6372   5.723   0.800   3.294
 2147TIP3   OH2 6373   7.000   0.243   3.198
 2147TIP3    H1 6374   6.951   0.249   3.281
 2147TIP3    H2 6375   6.965   0.320   3.148
 2148TIP3   OH2 6376   6.142   0.207   3.101
 2148TIP3    H1 6377   6.088   0.229   3.179
 2148TIP3    H2 6378   6.129   0.288   3.047
 2149TIP3   OH2 6379   6.017   0.075   2.616
 2149TIP3    H1 6380   5.938   0.128   2.600
 2149TIP3    H2 6381   6.040   0.049   2.524
 2150TIP3   OH2 6382   6.500   0.173   2.319
 2150TIP3    H1 6383   6.441   0.246   2.288
 2150TIP3    H2 6384   6.573   0.184   2.257
 2151TIP3   OH2 6385   6.687   0.472   3.399
 2151TIP3    H1 6386   6.662   0.394   3.453
 2151TIP3    H2 6387   6.780   0.484   3.426
 2152TIP3   OH2 6388   6.652   0.212   2.582
 2152TIP3    H1 6389   6.596   0.250   2.512
 2152TIP3    H2 6390   6.702   0.146   2.528
 2153TIP3   OH2 6391   5.950   0.235   3.301
 2153TIP3    H1 6392   5.971   0.302   3.367
 2153TIP3    H2 6393   5.931   0.157   3.355
 2154TIP3   OH2 6394   5.578  -0.157   2.428
 2154TIP3    H1 6395   5.590  -0.152   2.331
 2154TIP3    H2 6396   5.482  -0.136   2.433
 2155TIP3   OH2 6397   6.668   0.449   2.990
 2155TIP3    H1 6398   6.706   0.378   2.933
 2155TIP3    H2 6399   6.644   0.396   3.069
 2156TIP3   OH2 6400   5.720  -0.103   2.683
 2156TIP3    H1 6401   5.632  -0.072   2.659
 2156TIP3    H2 6402   5.760  -0.109   2.604
 2157TIP3   OH2 6403   6.048  -0.015   2.364
 2157TIP3    H1 6404   6.137  -0.043   2.335
 2157TIP3    H2 6405   5.999  -0.032   2.281
 2158TIP3   OH2 6406   5.857  -0.047   2.138
 2158TIP3    H1 6407   5.761  -0.047   2.130
 2158TIP3    H2 6408   5.883   0.022   2.076
 2159TIP3   OH2 6409   7.002   1.675   3.087
 2159TIP3    H1 6410   6.998   1.699   2.993
 2159TIP3    H2 6411   7.078   1.727   3.118
 2160TIP3   OH2 6412   5.959   0.783   3.507
 2160TIP3    H1 6413   6.039   0.815   3.553
 2160TIP3    H2 6414   5.894   0.788   3.581
 2161TIP3   OH2 6415   6.416   0.230   2.758
 2161TIP3    H1 6416   6.502   0.205   2.722
 2161TIP3    H2 6417   6.422   0.200   2.852
 2162TIP3   OH2 6418   6.413   0.154   3.028
 2162TIP3    H1 6419   6.323   0.169   3.064
 2162TIP3    H2 6420   6.469   0.202   3.093
 2163TIP3   OH2 6421   6.134   0.521   2.147
 2163TIP3    H1 6422   6.051   0.472   2.134
 2163TIP3    H2 6423   6.119   0.559   2.237
 2164TIP3   OH2 6424   7.078   0.690   2.774
 2164TIP3    H1 6425   7.102   0.778   2.740
 2164TIP3    H2 6426   6.981   0.700   2.776
 2165TIP3   OH2 6427   6.535   0.847   3.146
 2165TIP3    H1 6428   6.559   0.844   3.239
 2165TIP3    H2 6429   6.499   0.938   3.137
 2166TIP3   OH2 6430   5.818   0.531   2.822
 2166TIP3    H1 6431   5.866   0.514   2.738
 2166TIP3    H2 6432   5.876   0.486   2.886
 2167TIP3   OH2 6433   6.286   0.679   1.982
 2167TIP3    H1 6434   6.238   0.765   1.985
 2167TIP3    H2 6435   6.230   0.626   2.043
 2168TIP3   OH2 6436   5.710   0.467   3.436
 2168TIP3    H1 6437   5.734   0.457   3.531
 2168TIP3    H2 6438   5.639   0.402   3.427
 2169TIP3   OH2 6439   6.436   0.581   3.460
 2169TIP3    H1 6440   6.378   0.530   3.401
 2169TIP3    H2 6441   6.525   0.558   3.426
 2170TIP3   OH2 6442   7.315   1.023   3.028
 2170TIP3    H1 6443   7.216   1.034   3.028
 2170TIP3    H2 6444   7.328   1.003   2.933
 2171TIP3   OH2 6445   6.789   1.008   1.908
 2171TIP3    H1 6446   6.782   0.942   1.978
 2171TIP3    H2 6447   6.792   0.955   1.826
 2172TIP3   OH2 6448   6.793   0.623   2.700
 2172TIP3    H1 6449   6.699   0.599   2.707
 2172TIP3    H2 6450   6.829   0.548   2.650
 2173TIP3   OH2 6451   5.931   0.851   2.444
 2173TIP3    H1 6452   5.935   0.933   2.392
 2173TIP3    H2 6453   5.836   0.843   2.458
 2174TIP3   OH2 6454   5.495   0.160   2.162
 2174TIP3    H1 6455   5.537   0.248   2.177
 2174TIP3    H2 6456   5.414   0.169   2.218
 2175TIP3   OH2 6457   6.060   0.614   2.389
 2175TIP3    H1 6458   6.031   0.706   2.403
 2175TIP3    H2 6459   6.029   0.572   2.470
 2176TIP3   OH2 6460   6.200   1.192   2.915
 2176TIP3    H1 6461   6.244   1.265   2.867
 2176TIP3    H2 6462   6.274   1.159   2.970
 2177TIP3   OH2 6463   5.850   1.091   2.300
 2177TIP3    H1 6464   5.763   1.100   2.345
 2177TIP3    H2 6465   5.882   1.184   2.303
 2178TIP3   OH2 6466   6.582   0.828   2.876
 2178TIP3    H1 6467   6.579   0.829   2.974
 2178TIP3    H2 6468   6.673   0.800   2.859
 2179TIP3   OH2 6469   6.538   0.709   1.797
 2179TIP3    H1 6470   6.580   0.716   1.885
 2179TIP3    H2 6471   6.444   0.719   1.820
 2180TIP3   OH2 6472   6.830   1.391   2.949
 2180TIP3    H1 6473   6.808   1.298   2.930
 2180TIP3    H2 6474   6.816   1.434   2.862
 2181TIP3   OH2 6475   6.893   1.192   1.577
 2181TIP3    H1 6476   6.930   1.261   1.519
 2181TIP3    H2 6477   6.817   1.243   1.613
 2182TIP3   OH2 6478   6.698   0.673   2.014
 2182TIP3    H1 6479   6.696   0.593   2.070
 2182TIP3    H2 6480   6.796   0.683   2.003
 2183TIP3   OH2 6481   5.637   1.058   3.075
 2183TIP3    H1 6482   5.693   0.989   3.113
 2183TIP3    H2 6483   5.662   1.134   3.128
 2184TIP3   OH2 6484   5.927   0.713   1.759
 2184TIP3    H1 6485   5.933   0.628   1.711
 2184TIP3    H2 6486   5.905   0.684   1.850
 2185TIP3   OH2 6487   5.873   0.705   2.037
 2185TIP3    H1 6488   5.948   0.692   2.096
 2185TIP3    H2 6489   5.870   0.804   2.032
 2186TIP3   OH2 6490   5.610   0.406   2.237
 2186TIP3    H1 6491   5.543   0.452   2.291
 2186TIP3    H2 6492   5.622   0.472   2.166
 2187TIP3   OH2 6493   6.138   0.902   1.983
 2187TIP3    H1 6494   6.051   0.934   2.016
 2187TIP3    H2 6495   6.153   0.964   1.910
 2188TIP3   OH2 6496   6.358  -0.029   2.433
 2188TIP3    H1 6497   6.401   0.040   2.378
 2188TIP3    H2 6498   6.364   0.011   2.520
 2189TIP3   OH2 6499   6.607   0.285   3.202
 2189TIP3    H1 6500   6.605   0.356   3.270
 2189TIP3    H2 6501   6.649   0.215   3.252
 2190TIP3   OH2 6502   5.880   0.978   2.046
 2190TIP3    H1 6503   5.852   1.048   1.982
 2190TIP3    H2 6504   5.866   1.024   2.132
 2191TIP3   OH2 6505   6.887   0.374   2.573
 2191TIP3    H1 6506   6.802   0.328   2.584
 2191TIP3    H2 6507   6.946   0.320   2.629
 2192TIP3   OH2 6508   5.596   0.612   2.043
 2192TIP3    H1 6509   5.664   0.682   2.048
 2192TIP3    H2 6510   5.639   0.555   1.975
 2193TIP3   OH2 6511   5.582  -0.094   2.156
 2193TIP3    H1 6512   5.545  -0.003   2.160
 2193TIP3    H2 6513   5.507  -0.146   2.124
 2194TIP3   OH2 6514   6.858   1.339   2.519
 2194TIP3    H1 6515   6.814   1.383   2.443
 2194TIP3    H2 6516   6.952   1.359   2.497
 2195TIP3   OH2 6517   5.467   0.818   2.424
 2195TIP3    H1 6518   5.403   0.854   2.487
 2195TIP3    H2 6519   5.440   0.863   2.341
 2196TIP3   OH2 6520   5.630   1.370   3.497
 2196TIP3    H1 6521   5.716   1.373   3.546
 2196TIP3    H2 6522   5.612   1.275   3.497
 2197TIP3   OH2 6523   6.105   1.329   3.544
 2197TIP3    H1 6524   6.201   1.321   3.551
 2197TIP3    H2 6525   6.086   1.270   3.469
 2198TIP3   OH2 6526   6.085   0.920   1.686
 2198TIP3    H1 6527   6.033   0.842   1.715
 2198TIP3    H2 6528   6.155   0.878   1.632
 2199TIP3   OH2 6529   6.727   1.263   3.294
 2199TIP3    H1 6530   6.732   1.176   3.339
 2199TIP3    H2 6531   6.818   1.295   3.300
 2200TIP3   OH2 6532   6.539   0.964   1.588
 2200TIP3    H1 6533   6.615   0.934   1.643
 2200TIP3    H2 6534   6.585   1.022   1.527
 2201TIP3   OH2 6535   5.758   0.773   3.698
 2201TIP3    H1 6536   5.773   0.678   3.703
 2201TIP3    H2 6537   5.670   0.777   3.655
 2202TIP3   OH2 6538   5.729   0.420   1.906
 2202TIP3    H1 6539   5.795   0.396   1.974
 2202TIP3    H2 6540   5.789   0.427   1.828
 2203TIP3   OH2 6541   6.368   0.858   3.474
 2203TIP3    H1 6542   6.324   0.880   3.389
 2203TIP3    H2 6543   6.398   0.766   3.462
 2204TIP3   OH2 6544   6.254   0.636   1.710
 2204TIP3    H1 6545   6.246   0.638   1.807
 2204TIP3    H2 6546   6.200   0.560   1.684
 2205TIP3   OH2 6547   5.881   0.501   3.679
 2205TIP3    H1 6548   5.966   0.459   3.660
 2205TIP3    H2 6549   5.900   0.539   3.768
 2206TIP3   OH2 6550   5.933   0.320   2.112
 2206TIP3    H1 6551   5.917   0.297   2.206
 2206TIP3    H2 6552   6.006   0.264   2.088
 2207TIP3   OH2 6553   6.208   0.415   3.333
 2207TIP3    H1 6554   6.128   0.473   3.334
 2207TIP3    H2 6555   6.255   0.446   3.252
 2208TIP3   OH2 6556   6.724   0.787   3.478
 2208TIP3    H1 6557   6.805   0.766   3.431
 2208TIP3    H2 6558   6.724   0.720   3.549
 2209TIP3   OH2 6559   6.302   0.202   3.463
 2209TIP3    H1 6560   6.254   0.141   3.406
 2209TIP3    H2 6561   6.274   0.287   3.423
 2210TIP3   OH2 6562   6.374   0.506   3.138
 2210TIP3    H1 6563   6.458   0.525   3.096
 2210TIP3    H2 6564   6.316   0.574   3.098
 2211TIP3   OH2 6565   6.944   0.470   3.503
 2211TIP3    H1 6566   6.974   0.412   3.576
 2211TIP3    H2 6567   7.015   0.535   3.497
 2212TIP3   OH2 6568   6.977   0.735   3.240
 2212TIP3    H1 6569   6.930   0.809   3.196
 2212TIP3    H2 6570   7.068   0.753   3.207
 2213TIP3   OH2 6571   6.173   0.326   3.687
 2213TIP3    H1 6572   6.141   0.249   3.733
 2213TIP3    H2 6573   6.238   0.288   3.625
 2214TIP3   OH2 6574   6.581   0.248   3.498
 2214TIP3    H1 6575   6.605   0.225   3.590
 2214TIP3    H2 6576   6.484   0.241   3.503
 2215TIP3   OH2 6577   5.850   1.181   1.859
 2215TIP3    H1 6578   5.946   1.180   1.843
 2215TIP3    H2 6579   5.822   1.232   1.781
 2216TIP3   OH2 6580   5.330   0.568   2.083
 2216TIP3    H1 6581   5.424   0.591   2.065
 2216TIP3    H2 6582   5.323   0.481   2.038
 2217TIP3   OH2 6583   5.246   1.176   2.491
 2217TIP3    H1 6584   5.179   1.115   2.453
 2217TIP3    H2 6585   5.291   1.118   2.555
 2218TIP3   OH2 6586   5.384   1.024   2.674
 2218TIP3    H1 6587   5.371   0.955   2.741
 2218TIP3    H2 6588   5.435   1.089   2.727
 2219TIP3   OH2 6589   7.113   1.424   2.477
 2219TIP3    H1 6590   7.137   1.468   2.561
 2219TIP3    H2 6591   7.175   1.465   2.414
 2220TIP3   OH2 6592   7.135   1.454   2.760
 2220TIP3    H1 6593   7.080   1.375   2.760
 2220TIP3    H2 6594   7.209   1.425   2.816
 2221TIP3   OH2 6595   7.197   1.121   3.342
 2221TIP3    H1 6596   7.114   1.131   3.393
 2221TIP3    H2 6597   7.228   1.213   3.336
 2222TIP3   OH2 6598   6.964   0.685   1.986
 2222TIP3    H1 6599   7.028   0.758   1.965
 2222TIP3    H2 6600   7.023   0.628   2.039
 2223TIP3   OH2 6601   7.119   0.525   2.150
 2223TIP3    H1 6602   7.057   0.465   2.197
 2223TIP3    H2 6603   7.186   0.543   2.218
 2224TIP3   OH2 6604   7.202   0.893   2.592
 2224TIP3    H1 6605   7.204   0.855   2.504
 2224TIP3    H2 6606   7.152   0.975   2.573
 2225TIP3   OH2 6607   6.946   0.368   2.305
 2225TIP3    H1 6608   6.951   0.272   2.299
 2225TIP3    H2 6609   6.927   0.383   2.399
 2226TIP3   OH2 6610   5.570   0.436   3.047
 2226TIP3    H1 6611   5.568   0.413   2.952
 2226TIP3    H2 6612   5.667   0.438   3.063
 2227TIP3   OH2 6613   7.228   0.788   3.162
 2227TIP3    H1 6614   7.308   0.733   3.151
 2227TIP3    H2 6615   7.241   0.863   3.102
 2228TIP3   OH2 6616   7.409   0.587   3.163
 2228TIP3    H1 6617   7.336   0.535   3.207
 2228TIP3    H2 6618   7.485   0.528   3.186
 2229TIP3   OH2 6619   7.110   0.256   2.699
 2229TIP3    H1 6620   7.155   0.306   2.631
 2229TIP3    H2 6621   7.127   0.311   2.779
 2230TIP3   OH2 6622   7.175   0.465   2.881
 2230TIP3    H1 6623   7.123   0.445   2.960
 2230TIP3    H2 6624   7.128   0.546   2.851
 2231TIP3   OH2 6625   5.777   0.117   3.716
 2231TIP3    H1 6626   5.873   0.110   3.721
 2231TIP3    H2 6627   5.749   0.039   3.765
 2232TIP3   OH2 6628   5.550   0.087   3.131
 2232TIP3    H1 6629   5.592   0.099   3.044
 2232TIP3    H2 6630   5.566   0.172   3.174
 2233TIP3   OH2 6631   6.690   1.297   2.132
 2233TIP3    H1 6632   6.746   1.287   2.053
 2233TIP3    H2 6633   6.742   1.361   2.185
 2234TIP3   OH2 6634   5.794   1.095   3.515
 2234TIP3    H1 6635   5.699   1.073   3.503
 2234TIP3    H2 6636   5.805   1.087   3.610
 2235TIP3   OH2 6637   5.973   1.131   3.063
 2235TIP3    H1 6638   5.927   1.209   3.025
 2235TIP3    H2 6639   6.060   1.145   3.019
 2236TIP3   OH2 6640   6.415   1.378   3.201
 2236TIP3    H1 6641   6.457   1.377   3.289
 2236TIP3    H2 6642   6.485   1.424   3.149
 2237TIP3   OH2 6643   6.596   1.528   3.056
 2237TIP3    H1 6644   6.670   1.473   3.022
 2237TIP3    H2 6645   6.646   1.585   3.119
 2238TIP3   OH2 6646   5.646   1.386   3.091
 2238TIP3    H1 6647   5.557   1.419   3.069
 2238TIP3    H2 6648   5.664   1.434   3.173
 2239TIP3   OH2 6649   5.883   1.366   2.947
 2239TIP3    H1 6650   5.796   1.379   2.991
 2239TIP3    H2 6651   5.864   1.401   2.858
 2240TIP3   OH2 6652   6.306   1.398   2.746
 2240TIP3    H1 6653   6.239   1.421   2.679
 2240TIP3    H2 6654   6.321   1.484   2.790
 2241TIP3   OH2 6655   6.574   1.328   2.779
 2241TIP3    H1 6656   6.480   1.355   2.770
 2241TIP3    H2 6657   6.621   1.411   2.760
 2242TIP3   OH2 6658   6.789   1.528   2.710
 2242TIP3    H1 6659   6.774   1.611   2.660
 2242TIP3    H2 6660   6.811   1.464   2.639
 2243TIP3   OH2 6661   5.559   1.182   2.831
 2243TIP3    H1 6662   5.586   1.157   2.923
 2243TIP3    H2 6663   5.633   1.140   2.782
 2244TIP3   OH2 6664   5.755   1.054   2.690
 2244TIP3    H1 6665   5.770   0.970   2.740
 2244TIP3    H2 6666   5.845   1.093   2.689
 2245TIP3   OH2 6667   6.019   1.149   2.698
 2245TIP3    H1 6668   6.054   1.059   2.686
 2245TIP3    H2 6669   6.067   1.174   2.779
 2246TIP3   OH2 6670   5.347   0.957   2.226
 2246TIP3    H1 6671   5.262   0.925   2.191
 2246TIP3    H2 6672   5.339   1.051   2.204
 2247TIP3   OH2 6673   6.118   1.154   1.813
 2247TIP3    H1 6674   6.206   1.174   1.774
 2247TIP3    H2 6675   6.095   1.076   1.756
 2248TIP3   OH2 6676   6.843   1.271   1.901
 2248TIP3    H1 6677   6.827   1.174   1.902
 2248TIP3    H2 6678   6.794   1.298   1.821
 2249TIP3   OH2 6679   5.424   0.978   1.862
 2249TIP3    H1 6680   5.430   1.004   1.955
 2249TIP3    H2 6681   5.511   0.935   1.847
 2250TIP3   OH2 6682   7.075   1.409   3.088
 2250TIP3    H1 6683   6.997   1.365   3.049
 2250TIP3    H2 6684   7.042   1.501   3.090
 2251TIP3   OH2 6685   7.590   1.052   2.370
 2251TIP3    H1 6686   7.551   1.002   2.297
 2251TIP3    H2 6687   7.681   1.063   2.338
 2252TIP3   OH2 6688   7.378   0.570   2.289
 2252TIP3    H1 6689   7.439   0.496   2.283
 2252TIP3    H2 6690   7.384   0.607   2.199
 2253TIP3   OH2 6691   7.167   0.856   1.938
 2253TIP3    H1 6692   7.212   0.809   1.865
 2253TIP3    H2 6693   7.216   0.941   1.939
 2254TIP3   OH2 6694   7.774   1.423   2.801
 2254TIP3    H1 6695   7.737   1.449   2.716
 2254TIP3    H2 6696   7.697   1.432   2.861
 2255TIP3   OH2 6697   7.397   0.932   2.779
 2255TIP3    H1 6698   7.321   0.930   2.714
 2255TIP3    H2 6699   7.408   0.838   2.798
 2256TIP3   OH2 6700   7.249   1.137   2.411
 2256TIP3    H1 6701   7.345   1.144   2.421
 2256TIP3    H2 6702   7.220   1.214   2.463
 2257TIP3   OH2 6703   7.393   1.352   1.942
 2257TIP3    H1 6704   7.462   1.353   2.010
 2257TIP3    H2 6705   7.361   1.261   1.948
 2258TIP3   OH2 6706   7.607   1.111   2.757
 2258TIP3    H1 6707   7.653   1.088   2.841
 2258TIP3    H2 6708   7.526   1.057   2.766
 2259TIP3   OH2 6709   7.741   1.019   2.978
 2259TIP3    H1 6710   7.809   1.087   2.994
 2259TIP3    H2 6711   7.687   1.026   3.059
 2260TIP3   OH2 6712   7.468   0.666   2.914
 2260TIP3    H1 6713   7.549   0.706   2.949
 2260TIP3    H2 6714   7.426   0.648   2.997
 2261TIP3   OH2 6715   7.433   1.314   2.562
 2261TIP3    H1 6716   7.494   1.249   2.601
 2261TIP3    H2 6717   7.456   1.395   2.607
 2262TIP3   OH2 6718   7.270   1.107   1.920
 2262TIP3    H1 6719   7.197   1.140   1.975
 2262TIP3    H2 6720   7.241   1.137   1.830
 2263TIP3   OH2 6721   7.424   1.622   2.982
 2263TIP3    H1 6722   7.507   1.618   3.032
 2263TIP3    H2 6723   7.394   1.529   2.985
 2264TIP3   OH2 6724   7.544   1.032   3.182
 2264TIP3    H1 6725   7.559   0.936   3.184
 2264TIP3    H2 6726   7.455   1.036   3.139
 2265TIP3   OH2 6727   7.663   0.762   3.162
 2265TIP3    H1 6728   7.733   0.697   3.154
 2265TIP3    H2 6729   7.685   0.802   3.249
 2266TIP3   OH2 6730   7.046   1.439   1.976
 2266TIP3    H1 6731   6.977   1.378   1.941
 2266TIP3    H2 6732   7.090   1.380   2.042
 2267TIP3   OH2 6733   7.170   1.284   2.166
 2267TIP3    H1 6734   7.166   1.212   2.231
 2267TIP3    H2 6735   7.227   1.347   2.214
 2268TIP3   OH2 6736   7.420   0.639   2.572
 2268TIP3    H1 6737   7.386   0.616   2.482
 2268TIP3    H2 6738   7.463   0.722   2.547
 2269TIP3   OH2 6739   7.589   0.386   3.217
 2269TIP3    H1 6740   7.681   0.364   3.237
 2269TIP3    H2 6741   7.545   0.301   3.237
 2270TIP3   OH2 6742   7.593   1.346   3.012
 2270TIP3    H1 6743   7.502   1.323   2.986
 2270TIP3    H2 6744   7.586   1.337   3.109
 2271TIP3   OH2 6745   7.438   1.632   2.586
 2271TIP3    H1 6746   7.352   1.668   2.555
 2271TIP3    H2 6747   7.456   1.692   2.659
 2272TIP3   OH2 6748   7.691   1.618   2.446
 2272TIP3    H1 6749   7.601   1.625   2.482
 2272TIP3    H2 6750   7.678   1.654   2.356
 2273TIP3   OH2 6751   7.349   1.445   2.321
 2273TIP3    H1 6752   7.380   1.420   2.411
 2273TIP3    H2 6753   7.421   1.403   2.268
 2274TIP3   OH2 6754   7.536   1.309   2.181
 2274TIP3    H1 6755   7.545   1.216   2.210
 2274TIP3    H2 6756   7.629   1.328   2.155
 2275TIP3   OH2 6757   7.147   1.209   1.699
 2275TIP3    H1 6758   7.059   1.177   1.674
 2275TIP3    H2 6759   7.132   1.305   1.695
 2276TIP3   OH2 6760   7.213   1.269   1.373
 2276TIP3    H1 6761   7.198   1.282   1.468
 2276TIP3    H2 6762   7.274   1.193   1.371
 2277TIP3   OH2 6763   0.785   1.575   3.541
 2277TIP3    H1 6764   0.758   1.665   3.511
 2277TIP3    H2 6765   0.701   1.542   3.573
 2278TIP3   OH2 6766   0.783   1.564   3.926
 2278TIP3    H1 6767   0.817   1.542   4.014
 2278TIP3    H2 6768   0.745   1.479   3.899
 2279TIP3   OH2 6769   0.088   1.463   4.293
 2279TIP3    H1 6770   0.127   1.398   4.353
 2279TIP3    H2 6771   0.164   1.521   4.277
 2280TIP3   OH2 6772   1.029   1.869   3.606
 2280TIP3    H1 6773   1.012   1.801   3.673
 2280TIP3    H2 6774   1.056   1.945   3.660
 2281TIP3   OH2 6775   0.057   1.867   4.015
 2281TIP3    H1 6776   0.049   1.770   4.018
 2281TIP3    H2 6777   0.154   1.877   4.005
 2282TIP3   OH2 6778   0.674   2.331   3.622
 2282TIP3    H1 6779   0.720   2.259   3.573
 2282TIP3    H2 6780   0.668   2.294   3.711
 2283TIP3   OH2 6781   0.581   1.791   3.975
 2283TIP3    H1 6782   0.620   1.716   3.927
 2283TIP3    H2 6783   0.663   1.838   3.999
 2284TIP3   OH2 6784   1.597   1.111   3.971
 2284TIP3    H1 6785   1.624   1.195   4.013
 2284TIP3    H2 6786   1.611   1.131   3.877
 2285TIP3   OH2 6787   0.999   1.294   4.005
 2285TIP3    H1 6788   1.037   1.205   4.021
 2285TIP3    H2 6789   0.960   1.281   3.916
 2286TIP3   OH2 6790   1.020   1.053   3.609
 2286TIP3    H1 6791   1.101   1.031   3.660
 2286TIP3    H2 6792   1.058   1.070   3.521
 2287TIP3   OH2 6793   0.412   1.347   3.867
 2287TIP3    H1 6794   0.508   1.342   3.886
 2287TIP3    H2 6795   0.393   1.254   3.854
 2288TIP3   OH2 6796   1.669   1.320   4.141
 2288TIP3    H1 6797   1.585   1.367   4.121
 2288TIP3    H2 6798   1.688   1.354   4.230
 2289TIP3   OH2 6799   0.352   0.933   4.399
 2289TIP3    H1 6800   0.292   0.971   4.330
 2289TIP3    H2 6801   0.292   0.928   4.475
 2290TIP3   OH2 6802   0.663   1.785   3.417
 2290TIP3    H1 6803   0.649   1.784   3.322
 2290TIP3    H2 6804   0.623   1.872   3.441
 2291TIP3   OH2 6805   0.434   1.712   4.198
 2291TIP3    H1 6806   0.373   1.780   4.235
 2291TIP3    H2 6807   0.478   1.761   4.126
 2292TIP3   OH2 6808   1.244   1.042   3.767
 2292TIP3    H1 6809   1.221   0.998   3.850
 2292TIP3    H2 6810   1.290   1.122   3.797
 2293TIP3   OH2 6811   0.204   1.042   4.202
 2293TIP3    H1 6812   0.261   1.122   4.204
 2293TIP3    H2 6813   0.220   1.007   4.113
 2294TIP3   OH2 6814   0.263   1.907   4.297
 2294TIP3    H1 6815   0.239   1.993   4.258
 2294TIP3    H2 6816   0.183   1.893   4.353
 2295TIP3   OH2 6817   1.097   2.111   3.772
 2295TIP3    H1 6818   1.007   2.103   3.811
 2295TIP3    H2 6819   1.090   2.198   3.727
 2296TIP3   OH2 6820   1.387   1.014   4.138
 2296TIP3    H1 6821   1.299   1.037   4.105
 2296TIP3    H2 6822   1.445   1.043   4.064
 2297TIP3   OH2 6823   0.702   0.671   4.126
 2297TIP3    H1 6824   0.672   0.580   4.116
 2297TIP3    H2 6825   0.618   0.713   4.155
 2298TIP3   OH2 6826   0.796   2.157   3.447
 2298TIP3    H1 6827   0.845   2.075   3.425
 2298TIP3    H2 6828   0.857   2.223   3.407
 2299TIP3   OH2 6829   0.936   1.942   3.355
 2299TIP3    H1 6830   0.938   1.862   3.300
 2299TIP3    H2 6831   0.973   1.907   3.440
 2300TIP3   OH2 6832   1.322   2.023   4.117
 2300TIP3    H1 6833   1.311   1.947   4.056
 2300TIP3    H2 6834   1.304   2.099   4.058
 2301TIP3   OH2 6835   1.517   1.661   3.962
 2301TIP3    H1 6836   1.434   1.713   3.966
 2301TIP3    H2 6837   1.548   1.685   3.872
 2302TIP3   OH2 6838   0.963   1.505   3.345
 2302TIP3    H1 6839   0.904   1.526   3.421
 2302TIP3    H2 6840   1.043   1.473   3.391
 2303TIP3   OH2 6841   1.196   1.539   4.258
 2303TIP3    H1 6842   1.193   1.625   4.304
 2303TIP3    H2 6843   1.110   1.541   4.212
 2304TIP3   OH2 6844   0.190   1.491   3.762
 2304TIP3    H1 6845   0.167   1.446   3.679
 2304TIP3    H2 6846   0.272   1.444   3.789
 2305TIP3   OH2 6847   0.322   1.903   3.910
 2305TIP3    H1 6848   0.308   1.867   3.822
 2305TIP3    H2 6849   0.412   1.872   3.930
 2306TIP3   OH2 6850   0.326   1.475   4.112
 2306TIP3    H1 6851   0.364   1.454   4.024
 2306TIP3    H2 6852   0.372   1.558   4.136
 2307TIP3   OH2 6853   0.856   2.107   3.894
 2307TIP3    H1 6854   0.841   2.188   3.945
 2307TIP3    H2 6855   0.840   2.036   3.958
 2308TIP3   OH2 6856   0.469   2.023   4.443
 2308TIP3    H1 6857   0.409   2.088   4.486
 2308TIP3    H2 6858   0.404   1.971   4.392
 2309TIP3   OH2 6859   0.240   1.589   4.535
 2309TIP3    H1 6860   0.236   1.676   4.579
 2309TIP3    H2 6861   0.147   1.560   4.541
 2310TIP3   OH2 6862   0.545   2.041   3.440
 2310TIP3    H1 6863   0.627   2.090   3.457
 2310TIP3    H2 6864   0.484   2.112   3.415
 2311TIP3   OH2 6865   0.265   2.193   4.527
 2311TIP3    H1 6866   0.229   2.196   4.437
 2311TIP3    H2 6867   0.186   2.173   4.581
 2312TIP3   OH2 6868   1.123   1.977   2.773
 2312TIP3    H1 6869   1.128   2.074   2.757
 2312TIP3    H2 6870   1.216   1.951   2.755
 2313TIP3   OH2 6871  -0.139   1.714   4.469
 2313TIP3    H1 6872  -0.204   1.698   4.399
 2313TIP3    H2 6873  -0.127   1.625   4.504
 2314TIP3   OH2 6874  -0.295   1.938   4.098
 2314TIP3    H1 6875  -0.211   1.894   4.084
 2314TIP3    H2 6876  -0.270   2.004   4.165
 2315TIP3   OH2 6877   1.561   2.370   4.166
 2315TIP3    H1 6878   1.558   2.274   4.179
 2315TIP3    H2 6879   1.477   2.397   4.210
 2316TIP3   OH2 6880   0.667   2.153   4.299
 2316TIP3    H1 6881   0.665   2.247   4.330
 2316TIP3    H2 6882   0.595   2.114   4.353
 2317TIP3   OH2 6883   0.429   2.281   3.258
 2317TIP3    H1 6884   0.389   2.264   3.170
 2317TIP3    H2 6885   0.396   2.370   3.279
 2318TIP3   OH2 6886  -0.137   2.143   3.627
 2318TIP3    H1 6887  -0.101   2.116   3.714
 2318TIP3    H2 6888  -0.189   2.063   3.601
 2319TIP3   OH2 6889   0.632   2.177   2.895
 2319TIP3    H1 6890   0.693   2.110   2.858
 2319TIP3    H2 6891   0.667   2.190   2.986
 2320TIP3   OH2 6892   0.681   2.234   3.163
 2320TIP3    H1 6893   0.592   2.243   3.205
 2320TIP3    H2 6894   0.732   2.197   3.237
 2321TIP3   OH2 6895   1.447   1.498   4.440
 2321TIP3    H1 6896   1.369   1.514   4.385
 2321TIP3    H2 6897   1.463   1.403   4.425
 2322TIP3   OH2 6898   0.046   1.913   4.467
 2322TIP3    H1 6899   0.100   1.891   4.545
 2322TIP3    H2 6900  -0.023   1.843   4.470
 2323TIP3   OH2 6901   0.450   0.760   4.204
 2323TIP3    H1 6902   0.375   0.697   4.205
 2323TIP3    H2 6903   0.426   0.819   4.277
 2324TIP3   OH2 6904   1.012   0.854   4.433
 2324TIP3    H1 6905   1.073   0.817   4.499
 2324TIP3    H2 6906   0.924   0.834   4.472
 2325TIP3   OH2 6907   1.221   1.277   4.358
 2325TIP3    H1 6908   1.170   1.275   4.441
 2325TIP3    H2 6909   1.195   1.362   4.319
 2326TIP3   OH2 6910   0.381   1.250   4.257
 2326TIP3    H1 6911   0.332   1.267   4.340
 2326TIP3    H2 6912   0.361   1.332   4.207
 2327TIP3   OH2 6913   0.772   1.255   3.499
 2327TIP3    H1 6914   0.685   1.275   3.464
 2327TIP3    H2 6915   0.824   1.245   3.419
 2328TIP3   OH2 6916   0.928   1.501   4.590
 2328TIP3    H1 6917   0.905   1.423   4.646
 2328TIP3    H2 6918   1.023   1.510   4.609
 2329TIP3   OH2 6919   0.909   1.256   3.747
 2329TIP3    H1 6920   0.855   1.284   3.670
 2329TIP3    H2 6921   0.944   1.172   3.709
 2330TIP3   OH2 6922   0.206   1.286   4.466
 2330TIP3    H1 6923   0.222   1.343   4.542
 2330TIP3    H2 6924   0.165   1.208   4.506
 2331TIP3   OH2 6925   0.921   1.493   4.168
 2331TIP3    H1 6926   0.953   1.421   4.108
 2331TIP3    H2 6927   0.888   1.439   4.243
 2332TIP3   OH2 6928   0.580   0.990   3.864
 2332TIP3    H1 6929   0.518   0.920   3.886
 2332TIP3    H2 6930   0.664   0.954   3.898
 2333TIP3   OH2 6931   1.080   1.029   4.047
 2333TIP3    H1 6932   1.040   1.043   4.135
 2333TIP3    H2 6933   1.015   0.969   4.006
 2334TIP3   OH2 6934   1.252   2.718   4.262
 2334TIP3    H1 6935   1.249   2.745   4.169
 2334TIP3    H2 6936   1.330   2.768   4.294
 2335TIP3   OH2 6937   0.207   1.829   4.682
 2335TIP3    H1 6938   0.288   1.860   4.728
 2335TIP3    H2 6939   0.143   1.834   4.756
 2336TIP3   OH2 6940   0.673   1.295   3.942
 2336TIP3    H1 6941   0.730   1.239   3.885
 2336TIP3    H2 6942   0.673   1.243   4.025
 2337TIP3   OH2 6943   0.649   1.185   4.221
 2337TIP3    H1 6944   0.558   1.217   4.238
 2337TIP3    H2 6945   0.704   1.246   4.275
 2338TIP3   OH2 6946   1.285   1.806   3.951
 2338TIP3    H1 6947   1.309   1.856   3.871
 2338TIP3    H2 6948   1.199   1.765   3.926
 2339TIP3   OH2 6949   0.781   1.888   4.322
 2339TIP3    H1 6950   0.807   1.873   4.413
 2339TIP3    H2 6951   0.745   1.978   4.323
 2340TIP3   OH2 6952   0.072   1.588   4.001
 2340TIP3    H1 6953   0.104   1.560   3.913
 2340TIP3    H2 6954   0.124   1.531   4.059
 2341TIP3   OH2 6955   0.518   1.714   3.147
 2341TIP3    H1 6956   0.488   1.807   3.142
 2341TIP3    H2 6957   0.471   1.683   3.225
 2342TIP3   OH2 6958  -0.001   1.476   4.616
 2342TIP3    H1 6959   0.030   1.501   4.705
 2342TIP3    H2 6960  -0.098   1.474   4.631
 2343TIP3   OH2 6961   0.683   1.627   4.635
 2343TIP3    H1 6962   0.620   1.569   4.588
 2343TIP3    H2 6963   0.768   1.594   4.601
 2344TIP3   OH2 6964   0.944   2.142   4.221
 2344TIP3    H1 6965   0.848   2.147   4.230
 2344TIP3    H2 6966   0.972   2.198   4.296
 2345TIP3   OH2 6967   1.356   1.211   3.096
 2345TIP3    H1 6968   1.268   1.173   3.084
 2345TIP3    H2 6969   1.342   1.303   3.065
 2346TIP3   OH2 6970   1.572   2.077   4.207
 2346TIP3    H1 6971   1.474   2.073   4.197
 2346TIP3    H2 6972   1.599   2.049   4.116
 2347TIP3   OH2 6973   1.059   2.040   3.038
 2347TIP3    H1 6974   1.023   1.969   3.093
 2347TIP3    H2 6975   1.067   1.998   2.950
 2348TIP3   OH2 6976   1.050   1.668   3.870
 2348TIP3    H1 6977   0.957   1.643   3.883
 2348TIP3    H2 6978   1.084   1.589   3.825
 2349TIP3   OH2 6979   0.173   1.896   3.624
 2349TIP3    H1 6980   0.174   1.988   3.588
 2349TIP3    H2 6981   0.086   1.894   3.666
 2350TIP3   OH2 6982   0.341   1.671   3.605
 2350TIP3    H1 6983   0.296   1.757   3.596
 2350TIP3    H2 6984   0.279   1.622   3.661
 2351TIP3   OH2 6985   0.448   2.239   4.092
 2351TIP3    H1 6986   0.486   2.313   4.042
 2351TIP3    H2 6987   0.526   2.207   4.140
 2352TIP3   OH2 6988   0.117   2.138   3.516
 2352TIP3    H1 6989   0.022   2.150   3.535
 2352TIP3    H2 6990   0.142   2.230   3.492
 2353TIP3   OH2 6991   0.834   1.875   4.052
 2353TIP3    H1 6992   0.825   1.873   4.150
 2353TIP3    H2 6993   0.914   1.823   4.039
 2354TIP3   OH2 6994   0.826   1.786   2.949
 2354TIP3    H1 6995   0.869   1.764   3.034
 2354TIP3    H2 6996   0.736   1.752   2.963
 2355TIP3   OH2 6997   1.084   2.407   4.100
 2355TIP3    H1 6998   1.003   2.354   4.091
 2355TIP3    H2 6999   1.071   2.473   4.029
 2356TIP3   OH2 7000   1.151   2.250   2.755
 2356TIP3    H1 7001   1.189   2.324   2.704
 2356TIP3    H2 7002   1.070   2.294   2.788
 2357TIP3   OH2 7003   0.972   1.724   3.175
 2357TIP3    H1 7004   0.956   1.643   3.230
 2357TIP3    H2 7005   1.063   1.704   3.146
 2358TIP3   OH2 7006  -0.122   2.100   4.257
 2358TIP3    H1 7007  -0.058   2.036   4.293
 2358TIP3    H2 7008  -0.094   2.182   4.300
 2359TIP3   OH2 7009   1.003   1.097   4.308
 2359TIP3    H1 7010   1.092   1.128   4.331
 2359TIP3    H2 7011   1.000   1.010   4.354
 2360TIP3   OH2 7012   0.397   1.953   3.149
 2360TIP3    H1 7013   0.346   1.976   3.227
 2360TIP3    H2 7014   0.398   2.038   3.100
 2361TIP3   OH2 7015   0.842   1.331   4.372
 2361TIP3    H1 7016   0.868   1.379   4.453
 2361TIP3    H2 7017   0.896   1.249   4.376
 2362TIP3   OH2 7018   1.486   1.231   4.360
 2362TIP3    H1 7019   1.388   1.231   4.364
 2362TIP3    H2 7020   1.498   1.192   4.272
 2363TIP3   OH2 7021   1.136   1.427   3.746
 2363TIP3    H1 7022   1.059   1.369   3.756
 2363TIP3    H2 7023   1.206   1.377   3.794
 2364TIP3   OH2 7024   1.105   2.382   3.694
 2364TIP3    H1 7025   1.062   2.428   3.619
 2364TIP3    H2 7026   1.199   2.401   3.674
 2365TIP3   OH2 7027  -0.099   2.425   4.650
 2365TIP3    H1 7028  -0.021   2.432   4.711
 2365TIP3    H2 7029  -0.137   2.342   4.679
 2366TIP3   OH2 7030   0.356   2.373   4.723
 2366TIP3    H1 7031   0.452   2.362   4.726
 2366TIP3    H2 7032   0.332   2.316   4.648
 2367TIP3   OH2 7033   0.996   2.283   4.452
 2367TIP3    H1 7034   0.990   2.213   4.521
 2367TIP3    H2 7035   1.073   2.335   4.481
 2368TIP3   OH2 7036   0.785   1.991   2.758
 2368TIP3    H1 7037   0.813   1.920   2.819
 2368TIP3    H2 7038   0.855   1.991   2.691
 2369TIP3   OH2 7039   0.004   1.810   4.872
 2369TIP3    H1 7040   0.033   1.717   4.867
 2369TIP3    H2 7041  -0.091   1.802   4.859
 2370TIP3   OH2 7042   0.614   1.903   4.648
 2370TIP3    H1 7043   0.573   1.924   4.561
 2370TIP3    H2 7044   0.644   1.811   4.637
 2371TIP3   OH2 7045   1.107   1.913   4.256
 2371TIP3    H1 7046   1.182   1.957   4.211
 2371TIP3    H2 7047   1.037   1.980   4.242
 2372TIP3   OH2 7048   0.110   1.554   4.860
 2372TIP3    H1 7049   0.175   1.483   4.850
 2372TIP3    H2 7050   0.129   1.578   4.953
 2373TIP3   OH2 7051   0.472   1.438   4.522
 2373TIP3    H1 7052   0.393   1.496   4.522
 2373TIP3    H2 7053   0.519   1.470   4.441
 2374TIP3   OH2 7054   0.978   1.839   4.652
 2374TIP3    H1 7055   1.054   1.816   4.599
 2374TIP3    H2 7056   0.975   1.768   4.719
 2375TIP3   OH2 7057   0.595   1.220   4.636
 2375TIP3    H1 7058   0.596   1.144   4.574
 2375TIP3    H2 7059   0.549   1.289   4.582
 2376TIP3   OH2 7060   0.605   1.019   4.448
 2376TIP3    H1 7061   0.625   1.055   4.359
 2376TIP3    H2 7062   0.515   0.982   4.434
 2377TIP3   OH2 7063   0.614   1.548   4.324
 2377TIP3    H1 7064   0.697   1.557   4.276
 2377TIP3    H2 7065   0.558   1.616   4.280
 2378TIP3   OH2 7066   1.204   1.513   4.712
 2378TIP3    H1 7067   1.248   1.430   4.689
 2378TIP3    H2 7068   1.264   1.578   4.672
 2379TIP3   OH2 7069   1.235   1.767   4.443
 2379TIP3    H1 7070   1.178   1.821   4.383
 2379TIP3    H2 7071   1.323   1.787   4.403
 2380TIP3   OH2 7072   0.503   1.322   4.874
 2380TIP3    H1 7073   0.408   1.316   4.893
 2380TIP3    H2 7074   0.512   1.285   4.784
 2381TIP3   OH2 7075   0.760   0.798   4.504
 2381TIP3    H1 7076   0.702   0.875   4.487
 2381TIP3    H2 7077   0.693   0.727   4.501
 2382TIP3   OH2 7078   0.851   1.279   4.724
 2382TIP3    H1 7079   0.844   1.282   4.821
 2382TIP3    H2 7080   0.759   1.253   4.698
 2383TIP3   OH2 7081   1.093   1.242   4.591
 2383TIP3    H1 7082   1.010   1.230   4.641
 2383TIP3    H2 7083   1.160   1.200   4.648
 2384TIP3   OH2 7084   1.310   1.169   4.749
 2384TIP3    H1 7085   1.329   1.074   4.761
 2384TIP3    H2 7086   1.310   1.204   4.841
 2385TIP3   OH2 7087   0.807   0.767   4.777
 2385TIP3    H1 7088   0.883   0.707   4.767
 2385TIP3    H2 7089   0.789   0.787   4.683
 2386TIP3   OH2 7090  -0.396   2.092   3.864
 2386TIP3    H1 7091  -0.379   2.011   3.915
 2386TIP3    H2 7092  -0.334   2.153   3.909
 2387TIP3   OH2 7093   1.360   2.469   3.652
 2387TIP3    H1 7094   1.382   2.506   3.740
 2387TIP3    H2 7095   1.418   2.520   3.594
 2388TIP3   OH2 7096   1.385   2.494   3.934
 2388TIP3    H1 7097   1.344   2.405   3.931
 2388TIP3    H2 7098   1.462   2.475   3.990
 2389TIP3   OH2 7099   1.436   2.169   4.509
 2389TIP3    H1 7100   1.361   2.179   4.572
 2389TIP3    H2 7101   1.476   2.258   4.511
 2390TIP3   OH2 7102   1.256   1.679   3.122
 2390TIP3    H1 7103   1.321   1.748   3.100
 2390TIP3    H2 7104   1.294   1.643   3.205
 2391TIP3   OH2 7105   1.378   1.546   3.329
 2391TIP3    H1 7106   1.311   1.506   3.388
 2391TIP3    H2 7107   1.440   1.587   3.393
 2392TIP3   OH2 7108   1.433   1.944   3.764
 2392TIP3    H1 7109   1.485   1.880   3.712
 2392TIP3    H2 7110   1.426   2.019   3.702
 2393TIP3   OH2 7111   1.262   2.241   3.959
 2393TIP3    H1 7112   1.191   2.287   4.009
 2393TIP3    H2 7113   1.211   2.196   3.888
 2394TIP3   OH2 7114   1.297   1.455   2.971
 2394TIP3    H1 7115   1.210   1.459   2.929
 2394TIP3    H2 7116   1.288   1.533   3.030
 2395TIP3   OH2 7117   1.193   1.406   3.476
 2395TIP3    H1 7118   1.185   1.309   3.468
 2395TIP3    H2 7119   1.177   1.420   3.572
 2396TIP3   OH2 7120  -0.177   1.471   4.242
 2396TIP3    H1 7121  -0.181   1.486   4.148
 2396TIP3    H2 7122  -0.080   1.478   4.258
 2397TIP3   OH2 7123   1.479   1.832   4.336
 2397TIP3    H1 7124   1.552   1.767   4.324
 2397TIP3    H2 7125   1.503   1.902   4.273
 2398TIP3   OH2 7126   1.663   1.635   4.348
 2398TIP3    H1 7127   1.589   1.585   4.389
 2398TIP3    H2 7128   1.736   1.572   4.364
 2399TIP3   OH2 7129   1.186   1.139   3.392
 2399TIP3    H1 7130   1.229   1.055   3.423
 2399TIP3    H2 7131   1.244   1.160   3.318
 2400TIP3   OH2 7132   1.349   1.295   3.868
 2400TIP3    H1 7133   1.434   1.322   3.827
 2400TIP3    H2 7134   1.362   1.334   3.957
 2401TIP3   OH2 7135   1.419   1.443   4.100
 2401TIP3    H1 7136   1.340   1.476   4.146
 2401TIP3    H2 7137   1.451   1.523   4.053
 2402TIP3   OH2 7138   1.869   1.034   4.655
 2402TIP3    H1 7139   1.928   0.968   4.613
 2402TIP3    H2 7140   1.840   1.087   4.578
 2403TIP3   OH2 7141   1.314   0.911   3.447
 2403TIP3    H1 7142   1.336   0.860   3.527
 2403TIP3    H2 7143   1.275   0.844   3.387
 2404TIP3   OH2 7144   1.737   1.170   4.461
 2404TIP3    H1 7145   1.649   1.211   4.468
 2404TIP3    H2 7146   1.715   1.096   4.401
 2405TIP3   OH2 7147   0.942   2.338   3.310
 2405TIP3    H1 7148   0.994   2.328   3.228
 2405TIP3    H2 7149   0.991   2.408   3.356
 2406TIP3   OH2 7150   0.050   2.139   4.700
 2406TIP3    H1 7151  -0.025   2.082   4.678
 2406TIP3    H2 7152   0.052   2.138   4.796
 2407TIP3   OH2 7153   0.221   2.177   4.240
 2407TIP3    H1 7154   0.173   2.254   4.203
 2407TIP3    H2 7155   0.307   2.191   4.195
 2408TIP3   OH2 7156   0.664   2.419   4.377
 2408TIP3    H1 7157   0.705   2.422   4.467
 2408TIP3    H2 7158   0.730   2.472   4.326
 2409TIP3   OH2 7159   0.844   2.573   4.240
 2409TIP3    H1 7160   0.916   2.525   4.197
 2409TIP3    H2 7161   0.894   2.631   4.300
 2410TIP3   OH2 7162   1.639   0.933   4.339
 2410TIP3    H1 7163   1.549   0.926   4.303
 2410TIP3    H2 7164   1.671   0.841   4.327
 2411TIP3   OH2 7165  -0.106   2.427   4.270
 2411TIP3    H1 7166  -0.196   2.456   4.247
 2411TIP3    H2 7167  -0.092   2.478   4.351
 2412TIP3   OH2 7168   0.132   2.411   4.125
 2412TIP3    H1 7169   0.045   2.424   4.169
 2412TIP3    H2 7170   0.113   2.445   4.035
 2413TIP3   OH2 7171   0.558   2.439   3.922
 2413TIP3    H1 7172   0.490   2.460   3.856
 2413TIP3    H2 7173   0.571   2.527   3.964
 2414TIP3   OH2 7174   0.828   2.378   3.973
 2414TIP3    H1 7175   0.733   2.397   3.955
 2414TIP3    H2 7176   0.871   2.454   3.931
 2415TIP3   OH2 7177   1.033   2.570   3.887
 2415TIP3    H1 7178   1.020   2.656   3.841
 2415TIP3    H2 7179   1.059   2.512   3.813
 2416TIP3   OH2 7180  -0.191   2.228   4.003
 2416TIP3    H1 7181  -0.173   2.205   4.096
 2416TIP3    H2 7182  -0.120   2.178   3.958
 2417TIP3   OH2 7183   0.001   2.091   3.864
 2417TIP3    H1 7184   0.020   2.012   3.920
 2417TIP3    H2 7185   0.089   2.134   3.860
 2418TIP3   OH2 7186   0.267   2.193   3.873
 2418TIP3    H1 7187   0.300   2.103   3.859
 2418TIP3    H2 7188   0.313   2.217   3.956
 2419TIP3   OH2 7189   0.847   0.859   3.962
 2419TIP3    H1 7190   0.802   0.790   4.015
 2419TIP3    H2 7191   0.911   0.807   3.909
 2420TIP3   OH2 7192   1.368   0.734   3.876
 2420TIP3    H1 7193   1.410   0.780   3.800
 2420TIP3    H2 7194   1.273   0.746   3.857
 2421TIP3   OH2 7195   1.488   0.826   3.647
 2421TIP3    H1 7196   1.556   0.783   3.593
 2421TIP3    H2 7197   1.503   0.920   3.623
 2422TIP3   OH2 7198   1.087   0.736   3.837
 2422TIP3    H1 7199   1.089   0.700   3.747
 2422TIP3    H2 7200   1.076   0.654   3.890
 2423TIP3   OH2 7201   0.377   2.190   3.000
 2423TIP3    H1 7202   0.461   2.194   2.950
 2423TIP3    H2 7203   0.314   2.160   2.931
 2424TIP3   OH2 7204   1.089   2.308   3.077
 2424TIP3    H1 7205   1.081   2.210   3.065
 2424TIP3    H2 7206   1.042   2.340   2.997
 2425TIP3   OH2 7207   1.379   0.903   4.775
 2425TIP3    H1 7208   1.400   0.867   4.864
 2425TIP3    H2 7209   1.466   0.896   4.730
 2426TIP3   OH2 7210   1.312   2.450   4.264
 2426TIP3    H1 7211   1.233   2.420   4.214
 2426TIP3    H2 7212   1.295   2.546   4.267
 2427TIP3   OH2 7213   2.570   1.812   3.017
 2427TIP3    H1 7214   2.565   1.909   3.006
 2427TIP3    H2 7215   2.478   1.794   3.040
 2428TIP3   OH2 7216   2.572   1.817   3.411
 2428TIP3    H1 7217   2.611   1.805   3.501
 2428TIP3    H2 7218   2.534   1.730   3.396
 2429TIP3   OH2 7219   1.880   1.717   3.775
 2429TIP3    H1 7220   1.909   1.649   3.839
 2429TIP3    H2 7221   1.954   1.778   3.777
 2430TIP3   OH2 7222   2.819   2.122   3.098
 2430TIP3    H1 7223   2.818   2.059   3.171
 2430TIP3    H2 7224   2.851   2.203   3.142
 2431TIP3   OH2 7225   1.850   2.126   3.498
 2431TIP3    H1 7226   1.841   2.029   3.502
 2431TIP3    H2 7227   1.947   2.136   3.495
 2432TIP3   OH2 7228   1.563   1.338   3.282
 2432TIP3    H1 7229   1.509   1.418   3.300
 2432TIP3    H2 7230   1.493   1.274   3.264
 2433TIP3   OH2 7231   1.614   1.619   3.459
 2433TIP3    H1 7232   1.664   1.542   3.495
 2433TIP3    H2 7233   1.680   1.661   3.403
 2434TIP3   OH2 7234   2.470   2.585   3.109
 2434TIP3    H1 7235   2.516   2.513   3.060
 2434TIP3    H2 7236   2.470   2.552   3.199
 2435TIP3   OH2 7237   2.379   2.046   3.458
 2435TIP3    H1 7238   2.424   1.970   3.418
 2435TIP3    H2 7239   2.459   2.096   3.486
 2436TIP3   OH2 7240   3.388   1.370   3.459
 2436TIP3    H1 7241   3.417   1.450   3.509
 2436TIP3    H2 7242   3.409   1.397   3.368
 2437TIP3   OH2 7243   2.787   1.551   3.491
 2437TIP3    H1 7244   2.834   1.469   3.516
 2437TIP3    H2 7245   2.759   1.529   3.400
 2438TIP3   OH2 7246   2.124   1.205   3.458
 2438TIP3    H1 7247   2.105   1.280   3.397
 2438TIP3    H2 7248   2.078   1.132   3.412
 2439TIP3   OH2 7249   2.823   1.301   3.076
 2439TIP3    H1 7250   2.892   1.286   3.145
 2439TIP3    H2 7251   2.879   1.335   3.004
 2440TIP3   OH2 7252   1.762   1.412   3.562
 2440TIP3    H1 7253   1.843   1.391   3.612
 2440TIP3    H2 7254   1.773   1.352   3.485
 2441TIP3   OH2 7255   2.207   1.611   3.350
 2441TIP3    H1 7256   2.300   1.586   3.371
 2441TIP3    H2 7257   2.166   1.524   3.331
 2442TIP3   OH2 7258   3.457   1.573   3.632
 2442TIP3    H1 7259   3.378   1.629   3.619
 2442TIP3    H2 7260   3.502   1.619   3.706
 2443TIP3   OH2 7261   2.124   1.192   3.891
 2443TIP3    H1 7262   2.065   1.231   3.824
 2443TIP3    H2 7263   2.073   1.211   3.972
 2444TIP3   OH2 7264   2.460   2.038   2.899
 2444TIP3    H1 7265   2.432   2.038   2.806
 2444TIP3    H2 7266   2.425   2.125   2.928
 2445TIP3   OH2 7267   2.229   1.968   3.684
 2445TIP3    H1 7268   2.169   2.036   3.722
 2445TIP3    H2 7269   2.276   2.018   3.615
 2446TIP3   OH2 7270   3.027   1.306   3.255
 2446TIP3    H1 7271   3.018   1.266   3.342
 2446TIP3    H2 7272   3.084   1.383   3.276
 2447TIP3   OH2 7273   1.995   1.308   3.676
 2447TIP3    H1 7274   2.056   1.382   3.699
 2447TIP3    H2 7275   2.046   1.266   3.604
 2448TIP3   OH2 7276   2.059   2.163   3.781
 2448TIP3    H1 7277   2.036   2.251   3.745
 2448TIP3    H2 7278   1.980   2.149   3.838
 2449TIP3   OH2 7279   1.458   1.854   3.020
 2449TIP3    H1 7280   1.409   1.882   2.941
 2449TIP3    H2 7281   1.485   1.940   3.057
 2450TIP3   OH2 7282   2.888   2.365   3.252
 2450TIP3    H1 7283   2.799   2.359   3.295
 2450TIP3    H2 7284   2.885   2.455   3.215
 2451TIP3   OH2 7285   3.184   1.256   3.616
 2451TIP3    H1 7286   3.102   1.304   3.596
 2451TIP3    H2 7287   3.248   1.296   3.552
 2452TIP3   OH2 7288   2.478   0.910   3.603
 2452TIP3    H1 7289   2.467   0.815   3.626
 2452TIP3    H2 7290   2.401   0.949   3.651
 2453TIP3   OH2 7291   2.591   2.413   2.929
 2453TIP3    H1 7292   2.644   2.332   2.909
 2453TIP3    H2 7293   2.651   2.481   2.892
 2454TIP3   OH2 7294   2.734   2.196   2.844
 2454TIP3    H1 7295   2.710   2.113   2.800
 2454TIP3    H2 7296   2.772   2.164   2.929
 2455TIP3   OH2 7297   3.096   2.281   3.603
 2455TIP3    H1 7298   3.120   2.204   3.549
 2455TIP3    H2 7299   3.118   2.356   3.545
 2456TIP3   OH2 7300   2.374   1.633   2.828
 2456TIP3    H1 7301   2.318   1.714   2.833
 2456TIP3    H2 7302   2.452   1.666   2.779
 2457TIP3   OH2 7303   2.397   1.428   2.636
 2457TIP3    H1 7304   2.468   1.495   2.638
 2457TIP3    H2 7305   2.429   1.374   2.561
 2458TIP3   OH2 7306   3.315   1.905   3.441
 2458TIP3    H1 7307   3.234   1.961   3.451
 2458TIP3    H2 7308   3.348   1.939   3.355
 2459TIP3   OH2 7309   2.755   1.747   2.829
 2459TIP3    H1 7310   2.702   1.775   2.908
 2459TIP3    H2 7311   2.841   1.726   2.873
 2460TIP3   OH2 7312   2.990   1.796   3.738
 2460TIP3    H1 7313   3.006   1.871   3.798
 2460TIP3    H2 7314   2.904   1.820   3.699
 2461TIP3   OH2 7315   1.991   1.750   3.248
 2461TIP3    H1 7316   1.958   1.691   3.179
 2461TIP3    H2 7317   2.071   1.702   3.281
 2462TIP3   OH2 7318   2.120   2.164   3.398
 2462TIP3    H1 7319   2.105   2.126   3.311
 2462TIP3    H2 7320   2.211   2.132   3.418
 2463TIP3   OH2 7321   2.127   1.727   3.599
 2463TIP3    H1 7322   2.166   1.711   3.511
 2463TIP3    H2 7323   2.169   1.813   3.625
 2464TIP3   OH2 7324   2.648   2.363   3.380
 2464TIP3    H1 7325   2.638   2.445   3.431
 2464TIP3    H2 7326   2.637   2.293   3.447
 2465TIP3   OH2 7327   2.265   2.282   3.929
 2465TIP3    H1 7328   2.205   2.345   3.974
 2465TIP3    H2 7329   2.199   2.229   3.879
 2466TIP3   OH2 7330   2.595   1.615   2.655
 2466TIP3    H1 7331   2.658   1.672   2.707
 2466TIP3    H2 7332   2.623   1.639   2.563
 2467TIP3   OH2 7333   2.018   1.837   4.030
 2467TIP3    H1 7334   2.024   1.925   4.071
 2467TIP3    H2 7335   1.923   1.819   4.041
 2468TIP3   OH2 7336   2.343   2.293   2.933
 2468TIP3    H1 7337   2.424   2.345   2.946
 2468TIP3    H2 7338   2.282   2.359   2.897
 2469TIP3   OH2 7339   2.059   2.448   4.014
 2469TIP3    H1 7340   2.024   2.451   3.923
 2469TIP3    H2 7341   1.979   2.427   4.067
 2470TIP3   OH2 7342   3.111   0.856   2.704
 2470TIP3    H1 7343   3.032   0.878   2.757
 2470TIP3    H2 7344   3.127   0.940   2.657
 2471TIP3   OH2 7345   1.863   1.587   3.027
 2471TIP3    H1 7346   1.791   1.640   2.986
 2471TIP3    H2 7347   1.810   1.525   3.079
 2472TIP3   OH2 7348   2.913   2.222   2.258
 2472TIP3    H1 7349   2.920   2.319   2.240
 2472TIP3    H2 7350   3.006   2.194   2.243
 2473TIP3   OH2 7351   1.636   1.982   3.962
 2473TIP3    H1 7352   1.570   1.962   3.893
 2473TIP3    H2 7353   1.673   1.893   3.983
 2474TIP3   OH2 7354   1.492   2.174   3.595
 2474TIP3    H1 7355   1.588   2.173   3.588
 2474TIP3    H2 7356   1.477   2.254   3.647
 2475TIP3   OH2 7357   3.353   2.624   3.650
 2475TIP3    H1 7358   3.340   2.528   3.650
 2475TIP3    H2 7359   3.273   2.652   3.699
 2476TIP3   OH2 7360   2.460   2.413   3.783
 2476TIP3    H1 7361   2.459   2.506   3.817
 2476TIP3    H2 7362   2.391   2.372   3.840
 2477TIP3   OH2 7363   2.222   2.538   2.738
 2477TIP3    H1 7364   2.179   2.523   2.652
 2477TIP3    H2 7365   2.192   2.627   2.762
 2478TIP3   OH2 7366   1.661   2.389   3.120
 2478TIP3    H1 7367   1.710   2.381   3.205
 2478TIP3    H2 7368   1.599   2.316   3.128
 2479TIP3   OH2 7369   2.424   2.440   2.376
 2479TIP3    H1 7370   2.482   2.371   2.338
 2479TIP3    H2 7371   2.461   2.451   2.466
 2480TIP3   OH2 7372   2.475   2.490   2.646
 2480TIP3    H1 7373   2.387   2.499   2.690
 2480TIP3    H2 7374   2.530   2.458   2.720
 2481TIP3   OH2 7375   3.204   1.741   3.961
 2481TIP3    H1 7376   3.228   1.813   3.902
 2481TIP3    H2 7377   3.260   1.668   3.930
 2482TIP3   OH2 7378   1.843   2.163   3.947
 2482TIP3    H1 7379   1.891   2.150   4.031
 2482TIP3    H2 7380   1.768   2.101   3.956
 2483TIP3   OH2 7381   2.241   0.988   3.735
 2483TIP3    H1 7382   2.152   0.957   3.710
 2483TIP3    H2 7383   2.217   1.070   3.783
 2484TIP3   OH2 7384   2.777   1.100   3.929
 2484TIP3    H1 7385   2.847   1.076   3.993
 2484TIP3    H2 7386   2.694   1.082   3.978
 2485TIP3   OH2 7387   3.007   1.525   3.835
 2485TIP3    H1 7388   2.971   1.529   3.927
 2485TIP3    H2 7389   3.006   1.620   3.810
 2486TIP3   OH2 7390   2.669   1.655   2.400
 2486TIP3    H1 7391   2.640   1.636   2.309
 2486TIP3    H2 7392   2.751   1.706   2.382
 2487TIP3   OH2 7393   2.377   1.056   2.707
 2487TIP3    H1 7394   2.354   1.043   2.801
 2487TIP3    H2 7395   2.356   0.967   2.673
 2488TIP3   OH2 7396   2.171   1.505   3.750
 2488TIP3    H1 7397   2.124   1.526   3.833
 2488TIP3    H2 7398   2.156   1.587   3.698
 2489TIP3   OH2 7399   2.056   1.391   3.269
 2489TIP3    H1 7400   1.964   1.360   3.289
 2489TIP3    H2 7401   2.068   1.359   3.179
 2490TIP3   OH2 7402   2.541   1.467   2.981
 2490TIP3    H1 7403   2.507   1.550   2.945
 2490TIP3    H2 7404   2.612   1.443   2.919
 2491TIP3   OH2 7405   2.722   1.753   4.079
 2491TIP3    H1 7406   2.703   1.679   4.142
 2491TIP3    H2 7407   2.817   1.767   4.096
 2492TIP3   OH2 7408   2.702   1.499   3.236
 2492TIP3    H1 7409   2.649   1.537   3.164
 2492TIP3    H2 7410   2.737   1.420   3.190
 2493TIP3   OH2 7411   1.992   1.533   3.961
 2493TIP3    H1 7412   2.022   1.597   4.027
 2493TIP3    H2 7413   1.981   1.452   4.015
 2494TIP3   OH2 7414   2.047   0.994   2.680
 2494TIP3    H1 7415   2.040   0.996   2.778
 2494TIP3    H2 7416   1.977   1.058   2.656
 2495TIP3   OH2 7417   1.586   1.060   3.540
 2495TIP3    H1 7418   1.664   1.084   3.595
 2495TIP3    H2 7419   1.624   1.017   3.462
 2496TIP3   OH2 7420   1.592   1.065   3.075
 2496TIP3    H1 7421   1.622   1.082   2.984
 2496TIP3    H2 7422   1.514   1.122   3.082
 2497TIP3   OH2 7423   2.695   1.749   3.651
 2497TIP3    H1 7424   2.740   1.680   3.597
 2497TIP3    H2 7425   2.679   1.698   3.733
 2498TIP3   OH2 7426   2.375   1.218   3.321
 2498TIP3    H1 7427   2.301   1.210   3.384
 2498TIP3    H2 7428   2.452   1.208   3.379
 2499TIP3   OH2 7429   1.821   1.266   3.327
 2499TIP3    H1 7430   1.726   1.281   3.305
 2499TIP3    H2 7431   1.830   1.170   3.312
 2500TIP3   OH2 7432   2.876   1.289   3.526
 2500TIP3    H1 7433   2.846   1.301   3.619
 2500TIP3    H2 7434   2.810   1.226   3.493
 2501TIP3   OH2 7435   3.046   2.979   3.749
 2501TIP3    H1 7436   3.046   3.003   3.655
 2501TIP3    H2 7437   3.127   3.024   3.781
 2502TIP3   OH2 7438   2.003   2.083   4.170
 2502TIP3    H1 7439   2.083   2.116   4.216
 2502TIP3    H2 7440   1.938   2.089   4.243
 2503TIP3   OH2 7441   2.468   1.539   3.422
 2503TIP3    H1 7442   2.546   1.503   3.378
 2503TIP3    H2 7443   2.476   1.501   3.512
 2504TIP3   OH2 7444   2.000   1.016   3.293
 2504TIP3    H1 7445   1.946   0.952   3.344
 2504TIP3    H2 7446   2.071   0.959   3.263
 2505TIP3   OH2 7447   2.444   1.438   3.716
 2505TIP3    H1 7448   2.356   1.477   3.732
 2505TIP3    H2 7449   2.504   1.496   3.766
 2506TIP3   OH2 7450   2.186   1.825   2.814
 2506TIP3    H1 7451   2.115   1.758   2.809
 2506TIP3    H2 7452   2.166   1.868   2.901
 2507TIP3   OH2 7453   3.088   2.055   3.436
 2507TIP3    H1 7454   3.111   2.111   3.358
 2507TIP3    H2 7455   2.997   2.025   3.413
 2508TIP3   OH2 7456   2.636   1.145   2.659
 2508TIP3    H1 7457   2.541   1.132   2.681
 2508TIP3    H2 7458   2.655   1.235   2.693
 2509TIP3   OH2 7459   2.566   2.140   3.811
 2509TIP3    H1 7460   2.615   2.130   3.893
 2509TIP3    H2 7461   2.541   2.234   3.811
 2510TIP3   OH2 7462   2.711   1.386   2.772
 2510TIP3    H1 7463   2.808   1.386   2.792
 2510TIP3    H2 7464   2.703   1.466   2.717
 2511TIP3   OH2 7465   1.869   1.843   3.485
 2511TIP3    H1 7466   1.913   1.818   3.402
 2511TIP3    H2 7467   1.916   1.789   3.551
 2512TIP3   OH2 7468   2.326   1.976   2.629
 2512TIP3    H1 7469   2.280   2.064   2.632
 2512TIP3    H2 7470   2.273   1.926   2.694
 2513TIP3   OH2 7471   1.755   1.768   4.099
 2513TIP3    H1 7472   1.773   1.754   4.194
 2513TIP3    H2 7473   1.684   1.703   4.083
 2514TIP3   OH2 7474   2.480   1.882   4.122
 2514TIP3    H1 7475   2.423   1.827   4.066
 2514TIP3    H2 7476   2.569   1.851   4.094
 2515TIP3   OH2 7477   2.734   2.398   3.708
 2515TIP3    H1 7478   2.638   2.408   3.720
 2515TIP3    H2 7479   2.768   2.454   3.782
 2516TIP3   OH2 7480   3.146   1.479   2.615
 2516TIP3    H1 7481   3.084   1.434   2.553
 2516TIP3    H2 7482   3.145   1.568   2.572
 2517TIP3   OH2 7483   2.845   2.298   2.518
 2517TIP3    H1 7484   2.830   2.225   2.580
 2517TIP3    H2 7485   2.865   2.253   2.434
 2518TIP3   OH2 7486   2.841   1.930   3.348
 2518TIP3    H1 7487   2.750   1.902   3.367
 2518TIP3    H2 7488   2.880   1.849   3.311
 2519TIP3   OH2 7489   1.974   2.150   3.104
 2519TIP3    H1 7490   1.976   2.235   3.055
 2519TIP3    H2 7491   1.880   2.145   3.126
 2520TIP3   OH2 7492   1.545   1.457   2.835
 2520TIP3    H1 7493   1.581   1.547   2.848
 2520TIP3    H2 7494   1.458   1.465   2.882
 2521TIP3   OH2 7495   2.108   1.916   3.054
 2521TIP3    H1 7496   2.075   2.007   3.068
 2521TIP3    H2 7497   2.073   1.872   3.133
 2522TIP3   OH2 7498   2.245   2.496   3.578
 2522TIP3    H1 7499   2.285   2.570   3.528
 2522TIP3    H2 7500   2.321   2.463   3.628
 2523TIP3   OH2 7501   1.895   2.391   2.963
 2523TIP3    H1 7502   1.808   2.400   3.008
 2523TIP3    H2 7503   1.927   2.484   2.966
 2524TIP3   OH2 7504   2.629   2.129   3.541
 2524TIP3    H1 7505   2.620   2.127   3.639
 2524TIP3    H2 7506   2.718   2.092   3.530
 2525TIP3   OH2 7507   2.606   2.014   2.424
 2525TIP3    H1 7508   2.660   1.993   2.504
 2525TIP3    H2 7509   2.517   2.005   2.460
 2526TIP3   OH2 7510   2.876   2.667   3.594
 2526TIP3    H1 7511   2.799   2.609   3.580
 2526TIP3    H2 7512   2.866   2.730   3.519
 2527TIP3   OH2 7513   2.944   2.498   2.240
 2527TIP3    H1 7514   2.982   2.569   2.186
 2527TIP3    H2 7515   2.865   2.545   2.274
 2528TIP3   OH2 7516   1.965   1.275   4.107
 2528TIP3    H1 7517   1.868   1.278   4.117
 2528TIP3    H2 7518   1.991   1.215   4.178
 2529TIP3   OH2 7519   2.767   1.954   2.642
 2529TIP3    H1 7520   2.762   1.886   2.711
 2529TIP3    H2 7521   2.864   1.956   2.625
 2530TIP3   OH2 7522   1.683   2.359   3.738
 2530TIP3    H1 7523   1.737   2.290   3.777
 2530TIP3    H2 7524   1.707   2.436   3.792
 2531TIP3   OH2 7525   1.973   2.004   2.419
 2531TIP3    H1 7526   1.990   1.911   2.394
 2531TIP3    H2 7527   1.956   1.996   2.515
 2532TIP3   OH2 7528   1.925   2.006   2.695
 2532TIP3    H1 7529   1.995   1.995   2.761
 2532TIP3    H2 7530   1.917   2.105   2.694
 2533TIP3   OH2 7531   1.655   1.710   2.895
 2533TIP3    H1 7532   1.588   1.752   2.955
 2533TIP3    H2 7533   1.661   1.781   2.827
 2534TIP3   OH2 7534   2.803   1.336   3.784
 2534TIP3    H1 7535   2.880   1.385   3.818
 2534TIP3    H2 7536   2.796   1.260   3.844
 2535TIP3   OH2 7537   2.679   1.097   2.953
 2535TIP3    H1 7538   2.679   1.122   2.859
 2535TIP3    H2 7539   2.726   1.173   2.994
 2536TIP3   OH2 7540   2.182   2.205   2.640
 2536TIP3    H1 7541   2.096   2.234   2.676
 2536TIP3    H2 7542   2.203   2.281   2.583
 2537TIP3   OH2 7543   2.354   1.282   3.050
 2537TIP3    H1 7544   2.432   1.340   3.040
 2537TIP3    H2 7545   2.359   1.262   3.147
 2538TIP3   OH2 7546   2.640   1.586   3.866
 2538TIP3    H1 7547   2.664   1.643   3.942
 2538TIP3    H2 7548   2.702   1.512   3.876
 2539TIP3   OH2 7549   2.518   0.996   3.158
 2539TIP3    H1 7550   2.534   1.059   3.231
 2539TIP3    H2 7551   2.579   1.033   3.089
 2540TIP3   OH2 7552   1.924   2.278   2.709
 2540TIP3    H1 7553   1.897   2.349   2.646
 2540TIP3    H2 7554   1.910   2.324   2.796
 2541TIP3   OH2 7555   2.039   1.012   2.952
 2541TIP3    H1 7556   2.017   1.046   3.039
 2541TIP3    H2 7557   2.136   0.993   2.962
 2542TIP3   OH2 7558   3.281   1.484   3.853
 2542TIP3    H1 7559   3.183   1.486   3.849
 2542TIP3    H2 7560   3.303   1.475   3.759
 2543TIP3   OH2 7561   2.931   1.682   3.232
 2543TIP3    H1 7562   2.859   1.622   3.254
 2543TIP3    H2 7563   3.007   1.642   3.280
 2544TIP3   OH2 7564   1.643   1.915   2.706
 2544TIP3    H1 7565   1.701   1.993   2.713
 2544TIP3    H2 7566   1.689   1.867   2.634
 2545TIP3   OH2 7567   1.621   1.191   2.805
 2545TIP3    H1 7568   1.607   1.285   2.830
 2545TIP3    H2 7569   1.530   1.163   2.787
 2546TIP3   OH2 7570   2.899   2.638   3.179
 2546TIP3    H1 7571   2.859   2.686   3.104
 2546TIP3    H2 7572   2.994   2.657   3.162
 2547TIP3   OH2 7573   1.978   0.907   3.711
 2547TIP3    H1 7574   1.945   0.875   3.624
 2547TIP3    H2 7575   1.967   0.828   3.768
 2548TIP3   OH2 7576   1.510   2.119   3.088
 2548TIP3    H1 7577   1.449   2.154   3.154
 2548TIP3    H2 7578   1.480   2.166   3.006
 2549TIP3   OH2 7579   1.674   2.671   4.161
 2549TIP3    H1 7580   1.760   2.673   4.209
 2549TIP3    H2 7581   1.655   2.576   4.161
 2550TIP3   OH2 7582   2.151   2.628   4.209
 2550TIP3    H1 7583   2.247   2.620   4.213
 2550TIP3    H2 7584   2.129   2.570   4.134
 2551TIP3   OH2 7585   2.135   2.211   2.331
 2551TIP3    H1 7586   2.084   2.135   2.368
 2551TIP3    H2 7587   2.210   2.164   2.289
 2552TIP3   OH2 7588   2.789   2.540   3.940
 2552TIP3    H1 7589   2.786   2.469   4.007
 2552TIP3    H2 7590   2.870   2.589   3.965
 2553TIP3   OH2 7591   2.569   2.248   2.242
 2553TIP3    H1 7592   2.630   2.196   2.297
 2553TIP3    H2 7593   2.618   2.253   2.157
 2554TIP3   OH2 7594   1.802   2.073   4.362
 2554TIP3    H1 7595   1.818   1.977   4.363
 2554TIP3    H2 7596   1.715   2.078   4.318
 2555TIP3   OH2 7597   1.779   1.737   2.551
 2555TIP3    H1 7598   1.840   1.718   2.622
 2555TIP3    H2 7599   1.840   1.739   2.474
 2556TIP3   OH2 7600   2.408   2.159   4.136
 2556TIP3    H1 7601   2.373   2.180   4.047
 2556TIP3    H2 7602   2.443   2.068   4.124
 2557TIP3   OH2 7603   2.287   1.919   2.362
 2557TIP3    H1 7604   2.293   1.936   2.458
 2557TIP3    H2 7605   2.283   1.821   2.359
 2558TIP3   OH2 7606   2.895   2.166   3.740
 2558TIP3    H1 7607   2.972   2.206   3.695
 2558TIP3    H2 7608   2.832   2.240   3.731
 2559TIP3   OH2 7609   1.920   1.805   4.346
 2559TIP3    H1 7610   2.001   1.762   4.316
 2559TIP3    H2 7611   1.948   1.841   4.433
 2560TIP3   OH2 7612   2.034   1.571   2.802
 2560TIP3    H1 7613   1.978   1.580   2.883
 2560TIP3    H2 7614   1.969   1.545   2.737
 2561TIP3   OH2 7615   2.255   1.690   4.002
 2561TIP3    H1 7616   2.180   1.753   4.005
 2561TIP3    H2 7617   2.307   1.725   3.925
 2562TIP3   OH2 7618   2.772   2.093   4.137
 2562TIP3    H1 7619   2.855   2.079   4.089
 2562TIP3    H2 7620   2.776   2.025   4.206
 2563TIP3   OH2 7621   2.907   1.749   2.283
 2563TIP3    H1 7622   2.888   1.708   2.197
 2563TIP3    H2 7623   2.878   1.841   2.262
 2564TIP3   OH2 7624   2.378   1.482   4.133
 2564TIP3    H1 7625   2.382   1.403   4.075
 2564TIP3    H2 7626   2.337   1.549   4.073
 2565TIP3   OH2 7627   2.383   1.268   3.938
 2565TIP3    H1 7628   2.412   1.310   3.855
 2565TIP3    H2 7629   2.290   1.246   3.919
 2566TIP3   OH2 7630   2.408   1.801   3.810
 2566TIP3    H1 7631   2.495   1.812   3.768
 2566TIP3    H2 7632   2.355   1.871   3.767
 2567TIP3   OH2 7633   3.002   1.772   4.193
 2567TIP3    H1 7634   3.046   1.686   4.184
 2567TIP3    H2 7635   3.063   1.826   4.139
 2568TIP3   OH2 7636   3.057   2.024   3.915
 2568TIP3    H1 7637   3.007   2.084   3.855
 2568TIP3    H2 7638   3.151   2.050   3.897
 2569TIP3   OH2 7639   2.259   1.591   4.364
 2569TIP3    H1 7640   2.190   1.523   4.376
 2569TIP3    H2 7641   2.293   1.569   4.276
 2570TIP3   OH2 7642   2.515   1.032   4.007
 2570TIP3    H1 7643   2.467   1.114   3.983
 2570TIP3    H2 7644   2.445   0.964   3.995
 2571TIP3   OH2 7645   2.642   1.534   4.222
 2571TIP3    H1 7646   2.630   1.523   4.318
 2571TIP3    H2 7647   2.552   1.511   4.191
 2572TIP3   OH2 7648   2.881   1.485   4.075
 2572TIP3    H1 7649   2.806   1.487   4.138
 2572TIP3    H2 7650   2.956   1.457   4.132
 2573TIP3   OH2 7651   3.100   1.425   4.232
 2573TIP3    H1 7652   3.119   1.330   4.247
 2573TIP3    H2 7653   3.105   1.463   4.322
 2574TIP3   OH2 7654   2.096   1.371   4.417
 2574TIP3    H1 7655   2.104   1.281   4.380
 2574TIP3    H2 7656   2.134   1.358   4.506
 2575TIP3   OH2 7657   2.607   1.040   4.265
 2575TIP3    H1 7658   2.676   0.971   4.259
 2575TIP3    H2 7659   2.569   1.035   4.175
 2576TIP3   OH2 7660   2.673   1.254   4.425
 2576TIP3    H1 7661   2.653   1.184   4.359
 2576TIP3    H2 7662   2.596   1.314   4.415
 2577TIP3   OH2 7663   1.897   2.478   2.520
 2577TIP3    H1 7664   1.993   2.478   2.503
 2577TIP3    H2 7665   1.867   2.532   2.445
 2578TIP3   OH2 7666   1.377   1.871   2.737
 2578TIP3    H1 7667   1.472   1.893   2.727
 2578TIP3    H2 7668   1.373   1.782   2.697
 2579TIP3   OH2 7669   1.293   2.477   3.152
 2579TIP3    H1 7670   1.224   2.417   3.116
 2579TIP3    H2 7671   1.336   2.418   3.218
 2580TIP3   OH2 7672   1.431   2.324   3.336
 2580TIP3    H1 7673   1.413   2.257   3.404
 2580TIP3    H2 7674   1.480   2.390   3.390
 2581TIP3   OH2 7675   3.152   2.731   3.139
 2581TIP3    H1 7676   3.179   2.762   3.227
 2581TIP3    H2 7677   3.218   2.773   3.082
 2582TIP3   OH2 7678   3.184   2.754   3.420
 2582TIP3    H1 7679   3.139   2.667   3.416
 2582TIP3    H2 7680   3.258   2.732   3.478
 2583TIP3   OH2 7681   3.201   2.451   3.982
 2583TIP3    H1 7682   3.148   2.443   4.063
 2583TIP3    H2 7683   3.262   2.524   4.002
 2584TIP3   OH2 7684   3.045   1.940   2.613
 2584TIP3    H1 7685   3.112   2.005   2.583
 2584TIP3    H2 7686   3.090   1.902   2.692
 2585TIP3   OH2 7687   3.173   1.807   2.816
 2585TIP3    H1 7688   3.109   1.768   2.879
 2585TIP3    H2 7689   3.242   1.844   2.875
 2586TIP3   OH2 7690   3.221   2.198   3.245
 2586TIP3    H1 7691   3.284   2.136   3.201
 2586TIP3    H2 7692   3.222   2.274   3.184
 2587TIP3   OH2 7693   3.063   2.507   3.436
 2587TIP3    H1 7694   2.994   2.532   3.500
 2587TIP3    H2 7695   3.014   2.450   3.373
 2588TIP3   OH2 7696   3.110   1.714   2.464
 2588TIP3    H1 7697   3.038   1.719   2.397
 2588TIP3    H2 7698   3.087   1.791   2.519
 2589TIP3   OH2 7699   2.973   1.389   2.426
 2589TIP3    H1 7700   2.943   1.432   2.345
 2589TIP3    H2 7701   2.951   1.295   2.408
 2590TIP3   OH2 7702   2.982   1.665   2.964
 2590TIP3    H1 7703   3.003   1.570   2.963
 2590TIP3    H2 7704   2.972   1.683   3.060
 2591TIP3   OH2 7705   1.614   1.735   3.713
 2591TIP3    H1 7706   1.610   1.705   3.619
 2591TIP3    H2 7707   1.711   1.738   3.727
 2592TIP3   OH2 7708   2.927   1.120   2.402
 2592TIP3    H1 7709   3.012   1.099   2.448
 2592TIP3    H2 7710   2.866   1.058   2.443
 2593TIP3   OH2 7711   2.980   1.377   2.853
 2593TIP3    H1 7712   3.024   1.290   2.869
 2593TIP3    H2 7713   3.041   1.415   2.788
 2594TIP3   OH2 7714   3.143   1.555   3.352
 2594TIP3    H1 7715   3.231   1.579   3.313
 2594TIP3    H2 7716   3.157   1.591   3.442
 2595TIP3   OH2 7717   3.210   1.696   3.586
 2595TIP3    H1 7718   3.135   1.733   3.638
 2595TIP3    H2 7719   3.244   1.776   3.541
 2596TIP3   OH2 7720   1.829   1.422   4.386
 2596TIP3    H1 7721   1.927   1.417   4.387
 2596TIP3    H2 7722   1.806   1.336   4.426
 2597TIP3   OH2 7723   3.667   1.288   4.145
 2597TIP3    H1 7724   3.726   1.224   4.099
 2597TIP3    H2 7725   3.634   1.342   4.071
 2598TIP3   OH2 7726   3.090   1.131   2.897
 2598TIP3    H1 7727   3.143   1.116   2.978
 2598TIP3    H2 7728   3.033   1.051   2.898
 2599TIP3   OH2 7729   1.795   1.115   3.711
 2599TIP3    H1 7730   1.857   1.041   3.725
 2599TIP3    H2 7731   1.856   1.190   3.710
 2600TIP3   OH2 7732   1.596   1.389   3.791
 2600TIP3    H1 7733   1.644   1.385   3.706
 2600TIP3    H2 7734   1.620   1.477   3.821
 2601TIP3   OH2 7735   3.530   1.423   3.957
 2601TIP3    H1 7736   3.442   1.467   3.966
 2601TIP3    H2 7737   3.506   1.355   3.891
 2602TIP3   OH2 7738   3.170   1.069   2.524
 2602TIP3    H1 7739   3.220   0.996   2.483
 2602TIP3    H2 7740   3.238   1.140   2.528
 2603TIP3   OH2 7741   1.585   0.904   3.297
 2603TIP3    H1 7742   1.491   0.903   3.326
 2603TIP3    H2 7743   1.580   0.955   3.213
 2604TIP3   OH2 7744   2.735   2.596   2.795
 2604TIP3    H1 7745   2.789   2.585   2.715
 2604TIP3    H2 7746   2.786   2.662   2.845
 2605TIP3   OH2 7747   1.799   0.973   4.105
 2605TIP3    H1 7748   1.746   0.968   4.187
 2605TIP3    H2 7749   1.733   1.012   4.044
 2606TIP3   OH2 7750   1.839   2.394   4.178
 2606TIP3    H1 7751   1.745   2.374   4.165
 2606TIP3    H2 7752   1.847   2.391   4.274
 2607TIP3   OH2 7753   2.018   2.433   3.727
 2607TIP3    H1 7754   1.970   2.510   3.690
 2607TIP3    H2 7755   2.104   2.448   3.683
 2608TIP3   OH2 7756   2.461   2.679   3.865
 2608TIP3    H1 7757   2.502   2.679   3.953
 2608TIP3    H2 7758   2.527   2.729   3.813
 2609TIP3   OH2 7759   2.641   2.829   3.724
 2609TIP3    H1 7760   2.715   2.779   3.685
 2609TIP3    H2 7761   2.691   2.887   3.786
 2610TIP3   OH2 7762   3.436   1.190   3.825
 2610TIP3    H1 7763   3.346   1.188   3.789
 2610TIP3    H2 7764   3.466   1.097   3.812
 2611TIP3   OH2 7765   1.692   2.687   3.756
 2611TIP3    H1 7766   1.602   2.719   3.732
 2611TIP3    H2 7767   1.708   2.738   3.836
 2612TIP3   OH2 7768   1.928   2.667   3.610
 2612TIP3    H1 7769   1.841   2.680   3.655
 2612TIP3    H2 7770   1.908   2.702   3.521
 2613TIP3   OH2 7771   2.354   2.697   3.408
 2613TIP3    H1 7772   2.286   2.719   3.343
 2613TIP3    H2 7773   2.368   2.784   3.452
 2614TIP3   OH2 7774   2.624   2.633   3.457
 2614TIP3    H1 7775   2.530   2.654   3.439
 2614TIP3    H2 7776   2.669   2.710   3.419
 2615TIP3   OH2 7777   2.828   2.826   3.374
 2615TIP3    H1 7778   2.816   2.911   3.327
 2615TIP3    H2 7779   2.856   2.767   3.301
 2616TIP3   OH2 7780   1.604   2.484   3.494
 2616TIP3    H1 7781   1.629   2.458   3.585
 2616TIP3    H2 7782   1.678   2.441   3.445
 2617TIP3   OH2 7783   1.800   2.355   3.353
 2617TIP3    H1 7784   1.815   2.272   3.404
 2617TIP3    H2 7785   1.890   2.393   3.352
 2618TIP3   OH2 7786   2.064   2.449   3.360
 2618TIP3    H1 7787   2.098   2.358   3.351
 2618TIP3    H2 7788   2.110   2.475   3.442
 2619TIP3   OH2 7789   2.623   1.097   3.421
 2619TIP3    H1 7790   2.593   1.033   3.488
 2619TIP3    H2 7791   2.709   1.060   3.393
 2620TIP3   OH2 7792   3.159   0.979   3.343
 2620TIP3    H1 7793   3.202   1.034   3.274
 2620TIP3    H2 7794   3.069   1.015   3.345
 2621TIP3   OH2 7795   3.258   1.088   3.111
 2621TIP3    H1 7796   3.332   1.034   3.076
 2621TIP3    H2 7797   3.294   1.178   3.096
 2622TIP3   OH2 7798   1.886   0.824   3.462
 2622TIP3    H1 7799   1.797   0.783   3.452
 2622TIP3    H2 7800   1.942   0.743   3.457
 2623TIP3   OH2 7801   1.784   0.757   3.166
 2623TIP3    H1 7802   1.718   0.711   3.110
 2623TIP3    H2 7803   1.725   0.807   3.225
 2624TIP3   OH2 7804   2.326   0.856   3.338
 2624TIP3    H1 7805   2.392   0.901   3.282
 2624TIP3    H2 7806   2.354   0.882   3.426
 2625TIP3   OH2 7807   2.867   0.994   3.327
 2625TIP3    H1 7808   2.887   0.955   3.241
 2625TIP3    H2 7809   2.860   0.914   3.384
 2626TIP3   OH2 7810   2.908   0.916   2.887
 2626TIP3    H1 7811   2.821   0.956   2.904
 2626TIP3    H2 7812   2.898   0.830   2.934
 2627TIP3   OH2 7813   1.395   2.257   2.887
 2627TIP3    H1 7814   1.308   2.228   2.854
 2627TIP3    H2 7815   1.387   2.353   2.869
 2628TIP3   OH2 7816   1.798   0.873   2.873
 2628TIP3    H1 7817   1.814   0.800   2.935
 2628TIP3    H2 7818   1.830   0.947   2.926
 2629TIP3   OH2 7819   2.311   1.021   2.974
 2629TIP3    H1 7820   2.373   0.977   3.037
 2629TIP3    H2 7821   2.326   1.114   3.000
 2630TIP3   OH2 7822   2.166   2.443   2.473
 2630TIP3    H1 7823   2.253   2.467   2.435
 2630TIP3    H2 7824   2.144   2.369   2.411
 2631TIP3   OH2 7825   2.883   2.564   2.564
 2631TIP3    H1 7826   2.872   2.467   2.550
 2631TIP3    H2 7827   2.839   2.599   2.483
 2632TIP3   OH2 7828   2.095   1.094   4.353
 2632TIP3    H1 7829   2.063   1.023   4.410
 2632TIP3    H2 7830   2.190   1.096   4.378
 2633TIP3   OH2 7831   2.345   1.094   4.470
 2633TIP3    H1 7832   2.430   1.072   4.429
 2633TIP3    H2 7833   2.336   1.022   4.536
 2634TIP3   OH2 7834   1.469   2.280   2.527
 2634TIP3    H1 7835   1.468   2.310   2.619
 2634TIP3    H2 7836   1.558   2.241   2.517
 2635TIP3   OH2 7837   3.172   1.156   4.258
 2635TIP3    H1 7838   3.193   1.125   4.348
 2635TIP3    H2 7839   3.260   1.152   4.214
 2636TIP3   OH2 7840   3.109   2.711   3.749
 2636TIP3    H1 7841   3.029   2.678   3.704
 2636TIP3    H2 7842   3.089   2.807   3.754
 2637TIP3   OH2 7843   4.344   2.064   2.890
 2637TIP3    H1 7844   4.393   2.065   2.975
 2637TIP3    H2 7845   4.314   1.971   2.890
 2638TIP3   OH2 7846   3.677   1.972   3.256
 2638TIP3    H1 7847   3.704   1.904   3.320
 2638TIP3    H2 7848   3.735   2.045   3.284
 2639TIP3   OH2 7849   4.602   2.354   2.607
 2639TIP3    H1 7850   4.629   2.310   2.689
 2639TIP3    H2 7851   4.636   2.444   2.620
 2640TIP3   OH2 7852   3.644   2.384   2.985
 2640TIP3    H1 7853   3.635   2.286   2.988
 2640TIP3    H2 7854   3.740   2.393   2.983
 2641TIP3   OH2 7855   3.353   1.586   2.770
 2641TIP3    H1 7856   3.309   1.670   2.788
 2641TIP3    H2 7857   3.280   1.535   2.730
 2642TIP3   OH2 7858   3.410   1.872   2.941
 2642TIP3    H1 7859   3.461   1.798   2.981
 2642TIP3    H2 7860   3.477   1.913   2.884
 2643TIP3   OH2 7861   4.272   2.844   2.598
 2643TIP3    H1 7862   4.316   2.773   2.548
 2643TIP3    H2 7863   4.264   2.805   2.686
 2644TIP3   OH2 7864   4.182   2.294   2.915
 2644TIP3    H1 7865   4.230   2.209   2.918
 2644TIP3    H2 7866   4.255   2.352   2.948
 2645TIP3   OH2 7867   5.186   1.626   2.943
 2645TIP3    H1 7868   5.215   1.708   2.989
 2645TIP3    H2 7869   5.212   1.646   2.851
 2646TIP3   OH2 7870   4.587   1.809   2.973
 2646TIP3    H1 7871   4.629   1.725   2.999
 2646TIP3    H2 7872   4.553   1.787   2.885
 2647TIP3   OH2 7873   3.924   1.467   2.942
 2647TIP3    H1 7874   3.904   1.539   2.879
 2647TIP3    H2 7875   3.875   1.393   2.899
 2648TIP3   OH2 7876   4.621   1.555   2.564
 2648TIP3    H1 7877   4.694   1.540   2.629
 2648TIP3    H2 7878   4.673   1.591   2.489
 2649TIP3   OH2 7879   3.557   1.669   3.051
 2649TIP3    H1 7880   3.640   1.650   3.099
 2649TIP3    H2 7881   3.572   1.613   2.971
 2650TIP3   OH2 7882   4.015   1.871   2.817
 2650TIP3    H1 7883   4.101   1.839   2.851
 2650TIP3    H2 7884   3.968   1.787   2.799
 2651TIP3   OH2 7885   5.259   1.831   3.116
 2651TIP3    H1 7886   5.176   1.880   3.099
 2651TIP3    H2 7887   5.284   1.866   3.203
 2652TIP3   OH2 7888   3.914   1.441   3.375
 2652TIP3    H1 7889   3.861   1.491   3.311
 2652TIP3    H2 7890   3.866   1.462   3.459
 2653TIP3   OH2 7891   4.219   2.276   2.441
 2653TIP3    H1 7892   4.243   2.258   2.349
 2653TIP3    H2 7893   4.194   2.372   2.436
 2654TIP3   OH2 7894   4.024   2.226   3.171
 2654TIP3    H1 7895   3.958   2.285   3.215
 2654TIP3    H2 7896   4.063   2.289   3.108
 2655TIP3   OH2 7897   4.827   1.562   2.741
 2655TIP3    H1 7898   4.814   1.518   2.826
 2655TIP3    H2 7899   4.882   1.638   2.765
 2656TIP3   OH2 7900   3.791   1.565   3.161
 2656TIP3    H1 7901   3.852   1.639   3.184
 2656TIP3    H2 7902   3.843   1.525   3.087
 2657TIP3   OH2 7903   3.854   2.418   3.270
 2657TIP3    H1 7904   3.829   2.506   3.233
 2657TIP3    H2 7905   3.776   2.404   3.328
 2658TIP3   OH2 7906   3.247   2.109   2.507
 2658TIP3    H1 7907   3.209   2.137   2.422
 2658TIP3    H2 7908   3.278   2.195   2.543
 2659TIP3   OH2 7909   4.687   2.625   2.746
 2659TIP3    H1 7910   4.597   2.617   2.784
 2659TIP3    H2 7911   4.681   2.712   2.702
 2660TIP3   OH2 7912   4.981   1.521   3.107
 2660TIP3    H1 7913   4.895   1.557   3.080
 2660TIP3    H2 7914   5.042   1.556   3.038
 2661TIP3   OH2 7915   4.288   1.180   3.095
 2661TIP3    H1 7916   4.262   1.087   3.095
 2661TIP3    H2 7917   4.209   1.219   3.140
 2662TIP3   OH2 7918   4.393   2.666   2.428
 2662TIP3    H1 7919   4.437   2.592   2.384
 2662TIP3    H2 7920   4.430   2.739   2.373
 2663TIP3   OH2 7921   4.913   2.538   3.092
 2663TIP3    H1 7922   4.905   2.461   3.030
 2663TIP3    H2 7923   4.897   2.614   3.031
 2664TIP3   OH2 7924   4.210   1.943   2.354
 2664TIP3    H1 7925   4.126   1.982   2.321
 2664TIP3    H2 7926   4.259   1.930   2.271
 2665TIP3   OH2 7927   4.165   1.717   2.064
 2665TIP3    H1 7928   4.234   1.769   2.111
 2665TIP3    H2 7929   4.222   1.653   2.017
 2666TIP3   OH2 7930   5.109   2.171   2.934
 2666TIP3    H1 7931   5.028   2.226   2.940
 2666TIP3    H2 7932   5.141   2.197   2.845
 2667TIP3   OH2 7933   4.548   2.015   2.332
 2667TIP3    H1 7934   4.526   2.073   2.405
 2667TIP3    H2 7935   4.634   1.979   2.364
 2668TIP3   OH2 7936   4.789   2.053   3.234
 2668TIP3    H1 7937   4.789   2.134   3.288
 2668TIP3    H2 7938   4.704   2.063   3.187
 2669TIP3   OH2 7939   3.778   2.000   2.746
 2669TIP3    H1 7940   3.742   1.953   2.668
 2669TIP3    H2 7941   3.863   1.955   2.759
 2670TIP3   OH2 7942   3.912   2.424   2.880
 2670TIP3    H1 7943   3.881   2.391   2.794
 2670TIP3    H2 7944   4.001   2.383   2.889
 2671TIP3   OH2 7945   3.937   1.979   3.083
 2671TIP3    H1 7946   3.964   1.976   2.990
 2671TIP3    H2 7947   3.967   2.067   3.112
 2672TIP3   OH2 7948   4.445   2.618   2.869
 2672TIP3    H1 7949   4.434   2.703   2.915
 2672TIP3    H2 7950   4.432   2.552   2.939
 2673TIP3   OH2 7951   4.060   2.538   3.414
 2673TIP3    H1 7952   4.002   2.601   3.461
 2673TIP3    H2 7953   3.993   2.486   3.365
 2674TIP3   OH2 7954   4.391   1.873   2.150
 2674TIP3    H1 7955   4.451   1.934   2.200
 2674TIP3    H2 7956   4.418   1.893   2.057
 2675TIP3   OH2 7957   3.808   2.094   3.501
 2675TIP3    H1 7958   3.818   2.178   3.551
 2675TIP3    H2 7959   3.717   2.070   3.528
 2676TIP3   OH2 7960   4.143   2.546   2.428
 2676TIP3    H1 7961   4.223   2.602   2.431
 2676TIP3    H2 7962   4.082   2.604   2.379
 2677TIP3   OH2 7963   3.855   2.705   3.501
 2677TIP3    H1 7964   3.819   2.705   3.410
 2677TIP3    H2 7965   3.775   2.685   3.555
 2678TIP3   OH2 7966   4.910   1.112   2.194
 2678TIP3    H1 7967   4.829   1.134   2.244
 2678TIP3    H2 7968   4.924   1.194   2.143
 2679TIP3   OH2 7969   3.656   1.855   2.532
 2679TIP3    H1 7970   3.585   1.899   2.482
 2679TIP3    H2 7971   3.615   1.771   2.556
 2680TIP3   OH2 7972   4.703   2.483   1.712
 2680TIP3    H1 7973   4.707   2.580   1.722
 2680TIP3    H2 7974   4.796   2.459   1.730
 2681TIP3   OH2 7975   3.446   2.239   3.435
 2681TIP3    H1 7976   3.368   2.210   3.385
 2681TIP3    H2 7977   3.472   2.159   3.485
 2682TIP3   OH2 7978   3.288   2.430   3.079
 2682TIP3    H1 7979   3.385   2.425   3.074
 2682TIP3    H2 7980   3.277   2.508   3.137
 2683TIP3   OH2 7981   5.153   2.882   3.138
 2683TIP3    H1 7982   5.151   2.786   3.154
 2683TIP3    H2 7983   5.069   2.909   3.183
 2684TIP3   OH2 7984   4.257   2.668   3.270
 2684TIP3    H1 7985   4.256   2.761   3.303
 2684TIP3    H2 7986   4.187   2.628   3.326
 2685TIP3   OH2 7987   3.991   2.786   2.233
 2685TIP3    H1 7988   3.978   2.774   2.138
 2685TIP3    H2 7989   3.983   2.883   2.245
 2686TIP3   OH2 7990   3.456   2.647   2.608
 2686TIP3    H1 7991   3.506   2.638   2.692
 2686TIP3    H2 7992   3.399   2.569   2.613
 2687TIP3   OH2 7993   4.222   2.689   1.865
 2687TIP3    H1 7994   4.267   2.620   1.812
 2687TIP3    H2 7995   4.282   2.684   1.943
 2688TIP3   OH2 7996   5.043   2.012   3.413
 2688TIP3    H1 7997   4.961   2.023   3.363
 2688TIP3    H2 7998   5.058   1.916   3.405
 2689TIP3   OH2 7999   3.641   2.425   3.437
 2689TIP3    H1 8000   3.684   2.408   3.523
 2689TIP3    H2 8001   3.567   2.360   3.440
 2690TIP3   OH2 8002   4.052   1.246   3.219
 2690TIP3    H1 8003   3.992   1.182   3.174
 2690TIP3    H2 8004   3.991   1.310   3.261
 2691TIP3   OH2 8005   4.572   1.359   3.416
 2691TIP3    H1 8006   4.640   1.332   3.481
 2691TIP3    H2 8007   4.488   1.339   3.462
 2692TIP3   OH2 8008   4.808   1.787   3.331
 2692TIP3    H1 8009   4.761   1.784   3.418
 2692TIP3    H2 8010   4.785   1.877   3.298
 2693TIP3   OH2 8011   4.469   1.907   1.891
 2693TIP3    H1 8012   4.442   1.889   1.799
 2693TIP3    H2 8013   4.524   1.986   1.880
 2694TIP3   OH2 8014   4.182   1.295   2.192
 2694TIP3    H1 8015   4.152   1.291   2.285
 2694TIP3    H2 8016   4.145   1.211   2.159
 2695TIP3   OH2 8017   3.968   1.759   3.240
 2695TIP3    H1 8018   3.918   1.782   3.322
 2695TIP3    H2 8019   3.955   1.840   3.186
 2696TIP3   OH2 8020   3.854   1.651   2.753
 2696TIP3    H1 8021   3.762   1.625   2.773
 2696TIP3    H2 8022   3.866   1.608   2.665
 2697TIP3   OH2 8023   4.346   1.737   2.484
 2697TIP3    H1 8024   4.293   1.807   2.439
 2697TIP3    H2 8025   4.401   1.703   2.410
 2698TIP3   OH2 8026   4.518   2.009   3.565
 2698TIP3    H1 8027   4.496   1.936   3.628
 2698TIP3    H2 8028   4.611   2.025   3.589
 2699TIP3   OH2 8029   4.502   1.754   2.715
 2699TIP3    H1 8030   4.438   1.770   2.643
 2699TIP3    H2 8031   4.543   1.673   2.679
 2700TIP3   OH2 8032   3.787   1.788   3.450
 2700TIP3    H1 8033   3.797   1.857   3.518
 2700TIP3    H2 8034   3.778   1.707   3.503
 2701TIP3   OH2 8035   3.836   1.262   2.158
 2701TIP3    H1 8036   3.829   1.264   2.256
 2701TIP3    H2 8037   3.760   1.319   2.133
 2702TIP3   OH2 8038   3.383   1.310   3.023
 2702TIP3    H1 8039   3.455   1.342   3.081
 2702TIP3    H2 8040   3.432   1.272   2.949
 2703TIP3   OH2 8041   3.347   1.291   2.547
 2703TIP3    H1 8042   3.395   1.329   2.470
 2703TIP3    H2 8043   3.291   1.367   2.570
 2704TIP3   OH2 8044   4.498   2.011   3.129
 2704TIP3    H1 8045   4.536   1.938   3.075
 2704TIP3    H2 8046   4.476   1.961   3.211
 2705TIP3   OH2 8047   4.181   1.473   2.815
 2705TIP3    H1 8048   4.101   1.470   2.870
 2705TIP3    H2 8049   4.252   1.459   2.880
 2706TIP3   OH2 8050   3.618   1.526   2.821
 2706TIP3    H1 8051   3.523   1.530   2.795
 2706TIP3    H2 8052   3.643   1.434   2.800
 2707TIP3   OH2 8053   3.883   1.521   2.513
 2707TIP3    H1 8054   3.977   1.536   2.491
 2707TIP3    H2 8055   3.836   1.543   2.429
 2708TIP3   OH2 8056   4.671   1.546   3.014
 2708TIP3    H1 8057   4.641   1.557   3.107
 2708TIP3    H2 8058   4.605   1.483   2.981
 2709TIP3   OH2 8059   3.729   1.554   2.289
 2709TIP3    H1 8060   3.658   1.509   2.240
 2709TIP3    H2 8061   3.781   1.591   2.214
 2710TIP3   OH2 8062   4.844   3.232   3.236
 2710TIP3    H1 8063   4.842   3.258   3.143
 2710TIP3    H2 8064   4.923   3.280   3.268
 2711TIP3   OH2 8065   3.788   2.336   3.665
 2711TIP3    H1 8066   3.867   2.372   3.712
 2711TIP3    H2 8067   3.750   2.278   3.732
 2712TIP3   OH2 8068   4.267   1.796   2.917
 2712TIP3    H1 8069   4.334   1.742   2.871
 2712TIP3    H2 8070   4.268   1.755   3.006
 2713TIP3   OH2 8071   3.785   1.285   2.789
 2713TIP3    H1 8072   3.744   1.208   2.835
 2713TIP3    H2 8073   3.841   1.240   2.726
 2714TIP3   OH2 8074   4.241   1.703   3.191
 2714TIP3    H1 8075   4.150   1.732   3.215
 2714TIP3    H2 8076   4.297   1.758   3.248
 2715TIP3   OH2 8077   3.972   2.082   2.297
 2715TIP3    H1 8078   3.905   2.013   2.273
 2715TIP3    H2 8079   3.929   2.122   2.373
 2716TIP3   OH2 8080   4.879   2.322   2.924
 2716TIP3    H1 8081   4.907   2.372   2.844
 2716TIP3    H2 8082   4.794   2.282   2.895
 2717TIP3   OH2 8083   4.435   1.396   2.163
 2717TIP3    H1 8084   4.338   1.380   2.170
 2717TIP3    H2 8085   4.444   1.491   2.186
 2718TIP3   OH2 8086   4.369   2.399   3.295
 2718TIP3    H1 8087   4.403   2.382   3.383
 2718TIP3    H2 8088   4.337   2.491   3.301
 2719TIP3   OH2 8089   4.503   1.645   2.266
 2719TIP3    H1 8090   4.600   1.650   2.279
 2719TIP3    H2 8091   4.485   1.724   2.212
 2720TIP3   OH2 8092   3.666   2.104   2.976
 2720TIP3    H1 8093   3.707   2.073   2.892
 2720TIP3    H2 8094   3.704   2.044   3.042
 2721TIP3   OH2 8095   4.123   2.229   2.112
 2721TIP3    H1 8096   4.080   2.318   2.119
 2721TIP3    H2 8097   4.067   2.177   2.173
 2722TIP3   OH2 8098   3.548   2.027   3.585
 2722TIP3    H1 8099   3.558   2.040   3.681
 2722TIP3    H2 8100   3.472   1.967   3.582
 2723TIP3   OH2 8101   4.275   2.141   3.607
 2723TIP3    H1 8102   4.214   2.079   3.563
 2723TIP3    H2 8103   4.362   2.107   3.577
 2724TIP3   OH2 8104   4.533   2.652   3.194
 2724TIP3    H1 8105   4.437   2.661   3.206
 2724TIP3    H2 8106   4.565   2.708   3.268
 2725TIP3   OH2 8107   4.947   1.733   2.098
 2725TIP3    H1 8108   4.885   1.688   2.036
 2725TIP3    H2 8109   4.942   1.822   2.057
 2726TIP3   OH2 8110   5.164   2.590   3.181
 2726TIP3    H1 8111   5.066   2.586   3.172
 2726TIP3    H2 8112   5.190   2.562   3.090
 2727TIP3   OH2 8113   4.650   2.186   2.833
 2727TIP3    H1 8114   4.564   2.155   2.865
 2727TIP3    H2 8115   4.686   2.103   2.794
 2728TIP3   OH2 8116   3.778   2.410   2.607
 2728TIP3    H1 8117   3.778   2.488   2.548
 2728TIP3    H2 8118   3.684   2.390   2.611
 2729TIP3   OH2 8119   3.333   1.715   2.300
 2729TIP3    H1 8120   3.380   1.799   2.321
 2729TIP3    H2 8121   3.257   1.721   2.362
 2730TIP3   OH2 8122   4.041   2.752   3.065
 2730TIP3    H1 8123   4.081   2.826   3.015
 2730TIP3    H2 8124   4.117   2.723   3.117
 2731TIP3   OH2 8125   3.690   2.647   2.451
 2731TIP3    H1 8126   3.604   2.657   2.496
 2731TIP3    H2 8127   3.723   2.739   2.452
 2732TIP3   OH2 8128   4.427   2.377   3.028
 2732TIP3    H1 8129   4.411   2.382   3.125
 2732TIP3    H2 8130   4.521   2.356   3.026
 2733TIP3   OH2 8131   4.392   2.257   1.904
 2733TIP3    H1 8132   4.452   2.245   1.980
 2733TIP3    H2 8133   4.307   2.266   1.949
 2734TIP3   OH2 8134   4.675   2.920   3.074
 2734TIP3    H1 8135   4.594   2.867   3.064
 2734TIP3    H2 8136   4.663   2.987   3.003
 2735TIP3   OH2 8137   4.742   2.757   1.727
 2735TIP3    H1 8138   4.782   2.835   1.685
 2735TIP3    H2 8139   4.662   2.800   1.765
 2736TIP3   OH2 8140   3.765   1.528   3.594
 2736TIP3    H1 8141   3.671   1.540   3.618
 2736TIP3    H2 8142   3.796   1.471   3.667
 2737TIP3   OH2 8143   4.559   2.187   2.109
 2737TIP3    H1 8144   4.562   2.136   2.192
 2737TIP3    H2 8145   4.652   2.213   2.099
 2738TIP3   OH2 8146   3.477   2.615   3.226
 2738TIP3    H1 8147   3.529   2.542   3.264
 2738TIP3    H2 8148   3.503   2.688   3.283
 2739TIP3   OH2 8149   3.766   2.263   1.907
 2739TIP3    H1 8150   3.785   2.172   1.879
 2739TIP3    H2 8151   3.747   2.251   2.002
 2740TIP3   OH2 8152   3.710   2.268   2.180
 2740TIP3    H1 8153   3.788   2.252   2.233
 2740TIP3    H2 8154   3.707   2.367   2.181
 2741TIP3   OH2 8155   3.446   1.959   2.384
 2741TIP3    H1 8156   3.381   2.005   2.441
 2741TIP3    H2 8157   3.460   2.028   2.316
 2742TIP3   OH2 8158   4.600   1.593   3.273
 2742TIP3    H1 8159   4.677   1.635   3.315
 2742TIP3    H2 8160   4.586   1.514   3.329
 2743TIP3   OH2 8161   4.481   1.346   2.440
 2743TIP3    H1 8162   4.467   1.370   2.346
 2743TIP3    H2 8163   4.522   1.428   2.476
 2744TIP3   OH2 8164   3.976   2.457   2.133
 2744TIP3    H1 8165   3.890   2.493   2.163
 2744TIP3    H2 8166   4.010   2.533   2.083
 2745TIP3   OH2 8167   4.167   1.528   2.542
 2745TIP3    H1 8168   4.233   1.599   2.527
 2745TIP3    H2 8169   4.172   1.518   2.640
 2746TIP3   OH2 8170   4.442   1.849   3.346
 2746TIP3    H1 8171   4.461   1.902   3.426
 2746TIP3    H2 8172   4.494   1.769   3.362
 2747TIP3   OH2 8173   4.318   1.253   2.644
 2747TIP3    H1 8174   4.320   1.327   2.707
 2747TIP3    H2 8175   4.377   1.288   2.573
 2748TIP3   OH2 8176   3.718   2.538   2.196
 2748TIP3    H1 8177   3.693   2.610   2.133
 2748TIP3    H2 8178   3.707   2.584   2.282
 2749TIP3   OH2 8179   3.827   1.254   2.434
 2749TIP3    H1 8180   3.820   1.342   2.475
 2749TIP3    H2 8181   3.923   1.239   2.445
 2750TIP3   OH2 8182   5.075   1.746   3.334
 2750TIP3    H1 8183   4.977   1.742   3.337
 2750TIP3    H2 8184   5.091   1.710   3.245
 2751TIP3   OH2 8185   4.726   1.940   2.721
 2751TIP3    H1 8186   4.654   1.876   2.734
 2751TIP3    H2 8187   4.800   1.896   2.768
 2752TIP3   OH2 8188   3.440   2.167   2.190
 2752TIP3    H1 8189   3.504   2.239   2.198
 2752TIP3    H2 8190   3.485   2.113   2.121
 2753TIP3   OH2 8191   3.387   1.446   2.325
 2753TIP3    H1 8192   3.386   1.543   2.320
 2753TIP3    H2 8193   3.311   1.422   2.271
 2754TIP3   OH2 8194   4.697   2.895   2.667
 2754TIP3    H1 8195   4.654   2.946   2.594
 2754TIP3    H2 8196   4.791   2.915   2.647
 2755TIP3   OH2 8197   3.307   2.376   2.574
 2755TIP3    H1 8198   3.245   2.412   2.638
 2755TIP3    H2 8199   3.278   2.423   2.492
 2756TIP3   OH2 8200   3.470   2.928   3.647
 2756TIP3    H1 8201   3.556   2.929   3.695
 2756TIP3    H2 8202   3.452   2.832   3.646
 2757TIP3   OH2 8203   3.947   2.887   3.695
 2757TIP3    H1 8204   4.042   2.875   3.701
 2757TIP3    H2 8205   3.925   2.827   3.620
 2758TIP3   OH2 8206   3.931   2.467   1.819
 2758TIP3    H1 8207   3.876   2.395   1.858
 2758TIP3    H2 8208   4.007   2.416   1.786
 2759TIP3   OH2 8209   4.592   2.792   3.422
 2759TIP3    H1 8210   4.583   2.725   3.493
 2759TIP3    H2 8211   4.667   2.846   3.454
 2760TIP3   OH2 8212   4.367   2.503   1.727
 2760TIP3    H1 8213   4.416   2.479   1.807
 2760TIP3    H2 8214   4.437   2.503   1.659
 2761TIP3   OH2 8215   3.575   1.980   2.041
 2761TIP3    H1 8216   3.632   1.949   2.113
 2761TIP3    H2 8217   3.641   1.986   1.969
 2762TIP3   OH2 8218   4.205   2.417   3.622
 2762TIP3    H1 8219   4.165   2.435   3.535
 2762TIP3    H2 8220   4.237   2.325   3.613
 2763TIP3   OH2 8221   4.076   2.177   1.845
 2763TIP3    H1 8222   4.090   2.193   1.941
 2763TIP3    H2 8223   4.082   2.079   1.843
 2764TIP3   OH2 8224   4.695   2.424   3.221
 2764TIP3    H1 8225   4.774   2.468   3.182
 2764TIP3    H2 8226   4.630   2.497   3.215
 2765TIP3   OH2 8227   3.742   2.063   3.807
 2765TIP3    H1 8228   3.804   1.992   3.829
 2765TIP3    H2 8229   3.716   2.094   3.895
 2766TIP3   OH2 8230   3.786   1.884   2.263
 2766TIP3    H1 8231   3.753   1.843   2.345
 2766TIP3    H2 8232   3.819   1.806   2.213
 2767TIP3   OH2 8233   4.057   1.953   3.495
 2767TIP3    H1 8234   3.975   2.008   3.494
 2767TIP3    H2 8235   4.103   1.985   3.414
 2768TIP3   OH2 8236   3.887   1.679   2.103
 2768TIP3    H1 8237   3.860   1.685   2.009
 2768TIP3    H2 8238   3.984   1.686   2.095
 2769TIP3   OH2 8239   4.569   2.350   3.623
 2769TIP3    H1 8240   4.653   2.329   3.582
 2769TIP3    H2 8241   4.566   2.286   3.697
 2770TIP3   OH2 8242   4.734   2.018   1.751
 2770TIP3    H1 8243   4.694   1.969   1.677
 2770TIP3    H2 8244   4.690   2.105   1.738
 2771TIP3   OH2 8245   4.177   1.738   3.617
 2771TIP3    H1 8246   4.175   1.660   3.559
 2771TIP3    H2 8247   4.133   1.806   3.561
 2772TIP3   OH2 8248   4.175   1.526   3.422
 2772TIP3    H1 8249   4.203   1.561   3.335
 2772TIP3    H2 8250   4.084   1.496   3.402
 2773TIP3   OH2 8251   4.204   2.057   3.294
 2773TIP3    H1 8252   4.290   2.071   3.252
 2773TIP3    H2 8253   4.148   2.126   3.251
 2774TIP3   OH2 8254   4.787   2.027   3.678
 2774TIP3    H1 8255   4.836   1.945   3.693
 2774TIP3    H2 8256   4.857   2.086   3.646
 2775TIP3   OH2 8257   4.828   2.278   3.409
 2775TIP3    H1 8258   4.770   2.334   3.351
 2775TIP3    H2 8259   4.916   2.301   3.371
 2776TIP3   OH2 8260   4.058   1.846   3.852
 2776TIP3    H1 8261   3.987   1.779   3.864
 2776TIP3    H2 8262   4.090   1.824   3.762
 2777TIP3   OH2 8263   4.311   1.291   3.493
 2777TIP3    H1 8264   4.261   1.371   3.469
 2777TIP3    H2 8265   4.243   1.222   3.482
 2778TIP3   OH2 8266   4.438   1.792   3.708
 2778TIP3    H1 8267   4.427   1.779   3.804
 2778TIP3    H2 8268   4.348   1.767   3.678
 2779TIP3   OH2 8269   4.675   1.739   3.561
 2779TIP3    H1 8270   4.601   1.742   3.624
 2779TIP3    H2 8271   4.749   1.710   3.619
 2780TIP3   OH2 8272   4.902   1.682   3.713
 2780TIP3    H1 8273   4.917   1.587   3.732
 2780TIP3    H2 8274   4.899   1.721   3.803
 2781TIP3   OH2 8275   3.889   1.631   3.905
 2781TIP3    H1 8276   3.896   1.540   3.870
 2781TIP3    H2 8277   3.926   1.618   3.994
 2782TIP3   OH2 8278   4.405   1.297   3.751
 2782TIP3    H1 8279   4.472   1.226   3.744
 2782TIP3    H2 8280   4.365   1.292   3.662
 2783TIP3   OH2 8281   4.471   1.512   3.910
 2783TIP3    H1 8282   4.449   1.441   3.845
 2783TIP3    H2 8283   4.393   1.571   3.903
 2784TIP3   OH2 8284   3.694   2.738   2.006
 2784TIP3    H1 8285   3.791   2.736   1.992
 2784TIP3    H2 8286   3.668   2.790   1.928
 2785TIP3   OH2 8287   3.172   2.122   2.226
 2785TIP3    H1 8288   3.266   2.145   2.212
 2785TIP3    H2 8289   3.167   2.034   2.182
 2786TIP3   OH2 8290   3.087   2.734   2.641
 2786TIP3    H1 8291   3.020   2.673   2.604
 2786TIP3    H2 8292   3.132   2.676   2.706
 2787TIP3   OH2 8293   3.224   2.582   2.826
 2787TIP3    H1 8294   3.213   2.512   2.893
 2787TIP3    H2 8295   3.275   2.647   2.878
 2788TIP3   OH2 8296   4.951   2.984   2.626
 2788TIP3    H1 8297   4.976   3.019   2.714
 2788TIP3    H2 8298   5.013   3.030   2.567
 2789TIP3   OH2 8299   4.979   3.007   2.909
 2789TIP3    H1 8300   4.937   2.918   2.905
 2789TIP3    H2 8301   5.055   2.988   2.965
 2790TIP3   OH2 8302   5.025   2.683   3.480
 2790TIP3    H1 8303   4.953   2.693   3.546
 2790TIP3    H2 8304   5.067   2.772   3.485
 2791TIP3   OH2 8305   4.849   2.192   2.096
 2791TIP3    H1 8306   4.915   2.259   2.070
 2791TIP3    H2 8307   4.893   2.153   2.175
 2792TIP3   OH2 8308   4.971   2.061   2.305
 2792TIP3    H1 8309   4.905   2.023   2.366
 2792TIP3    H2 8310   5.038   2.100   2.366
 2793TIP3   OH2 8311   5.022   2.455   2.734
 2793TIP3    H1 8312   5.079   2.392   2.685
 2793TIP3    H2 8313   5.021   2.532   2.673
 2794TIP3   OH2 8314   4.855   2.755   2.932
 2794TIP3    H1 8315   4.785   2.801   2.983
 2794TIP3    H2 8316   4.804   2.710   2.862
 2795TIP3   OH2 8317   4.909   1.960   1.953
 2795TIP3    H1 8318   4.848   1.972   1.877
 2795TIP3    H2 8319   4.889   2.042   2.002
 2796TIP3   OH2 8320   4.781   1.642   1.903
 2796TIP3    H1 8321   4.731   1.684   1.833
 2796TIP3    H2 8322   4.756   1.548   1.891
 2797TIP3   OH2 8323   4.778   1.920   2.451
 2797TIP3    H1 8324   4.794   1.825   2.445
 2797TIP3    H2 8325   4.770   1.934   2.548
 2798TIP3   OH2 8326   3.410   1.996   3.195
 2798TIP3    H1 8327   3.408   1.965   3.103
 2798TIP3    H2 8328   3.507   1.998   3.212
 2799TIP3   OH2 8329   5.072   2.346   3.306
 2799TIP3    H1 8330   5.145   2.280   3.297
 2799TIP3    H2 8331   5.102   2.417   3.248
 2800TIP3   OH2 8332   5.256   2.149   3.319
 2800TIP3    H1 8333   5.183   2.099   3.361
 2800TIP3    H2 8334   5.330   2.087   3.334
 2801TIP3   OH2 8335   4.721   1.377   1.888
 2801TIP3    H1 8336   4.796   1.347   1.944
 2801TIP3    H2 8337   4.648   1.318   1.915
 2802TIP3   OH2 8338   4.779   1.637   2.343
 2802TIP3    H1 8339   4.821   1.549   2.358
 2802TIP3    H2 8340   4.838   1.671   2.273
 2803TIP3   OH2 8341   4.940   1.812   2.838
 2803TIP3    H1 8342   5.027   1.837   2.798
 2803TIP3    H2 8343   4.954   1.848   2.928
 2804TIP3   OH2 8344   5.009   1.954   3.071
 2804TIP3    H1 8345   4.933   1.989   3.122
 2804TIP3    H2 8346   5.042   2.035   3.027
 2805TIP3   OH2 8347   3.620   1.657   3.835
 2805TIP3    H1 8348   3.715   1.670   3.856
 2805TIP3    H2 8349   3.596   1.589   3.901
 2806TIP3   OH2 8350   5.458   1.544   3.628
 2806TIP3    H1 8351   5.520   1.480   3.585
 2806TIP3    H2 8352   5.432   1.601   3.552
 2807TIP3   OH2 8353   4.888   1.388   2.383
 2807TIP3    H1 8354   4.937   1.371   2.466
 2807TIP3    H2 8355   4.829   1.310   2.381
 2808TIP3   OH2 8356   3.588   1.370   3.196
 2808TIP3    H1 8357   3.644   1.297   3.225
 2808TIP3    H2 8358   3.652   1.443   3.192
 2809TIP3   OH2 8359   3.389   1.643   3.274
 2809TIP3    H1 8360   3.443   1.646   3.192
 2809TIP3    H2 8361   3.410   1.728   3.315
 2810TIP3   OH2 8362   5.332   1.685   3.433
 2810TIP3    H1 8363   5.246   1.726   3.457
 2810TIP3    H2 8364   5.301   1.613   3.375
 2811TIP3   OH2 8365   4.966   1.320   2.016
 2811TIP3    H1 8366   5.008   1.249   1.962
 2811TIP3    H2 8367   5.034   1.391   2.012
 2812TIP3   OH2 8368   3.368   1.141   2.770
 2812TIP3    H1 8369   3.278   1.150   2.804
 2812TIP3    H2 8370   3.370   1.205   2.696
 2813TIP3   OH2 8371   4.512   2.869   2.287
 2813TIP3    H1 8372   4.536   2.817   2.207
 2813TIP3    H2 8373   4.594   2.916   2.307
 2814TIP3   OH2 8374   3.594   1.231   3.592
 2814TIP3    H1 8375   3.545   1.227   3.676
 2814TIP3    H2 8376   3.527   1.267   3.532
 2815TIP3   OH2 8377   3.633   2.660   3.665
 2815TIP3    H1 8378   3.541   2.630   3.650
 2815TIP3    H2 8379   3.641   2.652   3.761
 2816TIP3   OH2 8380   3.815   2.689   3.214
 2816TIP3    H1 8381   3.766   2.765   3.177
 2816TIP3    H2 8382   3.900   2.704   3.169
 2817TIP3   OH2 8383   4.256   2.934   3.350
 2817TIP3    H1 8384   4.297   2.934   3.440
 2817TIP3    H2 8385   4.323   2.986   3.300
 2818TIP3   OH2 8386   4.437   3.086   3.212
 2818TIP3    H1 8387   4.510   3.037   3.172
 2818TIP3    H2 8388   4.486   3.145   3.274
 2819TIP3   OH2 8389   5.232   1.448   3.311
 2819TIP3    H1 8390   5.140   1.441   3.279
 2819TIP3    H2 8391   5.264   1.356   3.300
 2820TIP3   OH2 8392   3.489   2.946   3.240
 2820TIP3    H1 8393   3.399   2.979   3.218
 2820TIP3    H2 8394   3.503   2.991   3.324
 2821TIP3   OH2 8395   3.725   2.924   3.097
 2821TIP3    H1 8396   3.639   2.937   3.142
 2821TIP3    H2 8397   3.705   2.958   3.008
 2822TIP3   OH2 8398   4.151   2.952   2.896
 2822TIP3    H1 8399   4.083   2.974   2.829
 2822TIP3    H2 8400   4.164   3.040   2.939
 2823TIP3   OH2 8401   4.421   2.889   2.944
 2823TIP3    H1 8402   4.326   2.909   2.927
 2823TIP3    H2 8403   4.464   2.966   2.903
 2824TIP3   OH2 8404   4.625   3.084   2.860
 2824TIP3    H1 8405   4.612   3.170   2.814
 2824TIP3    H2 8406   4.652   3.026   2.786
 2825TIP3   OH2 8407   3.399   2.740   2.983
 2825TIP3    H1 8408   3.426   2.713   3.074
 2825TIP3    H2 8409   3.472   2.698   2.932
 2826TIP3   OH2 8410   3.594   2.613   2.841
 2826TIP3    H1 8411   3.609   2.529   2.890
 2826TIP3    H2 8412   3.685   2.650   2.839
 2827TIP3   OH2 8413   3.860   2.709   2.846
 2827TIP3    H1 8414   3.891   2.617   2.834
 2827TIP3    H2 8415   3.905   2.731   2.929
 2828TIP3   OH2 8416   4.428   1.361   2.922
 2828TIP3    H1 8417   4.391   1.295   2.984
 2828TIP3    H2 8418   4.507   1.315   2.887
 2829TIP3   OH2 8419   4.958   1.239   2.833
 2829TIP3    H1 8420   4.995   1.293   2.760
 2829TIP3    H2 8421   4.864   1.265   2.831
 2830TIP3   OH2 8422   5.054   1.343   2.599
 2830TIP3    H1 8423   5.128   1.291   2.561
 2830TIP3    H2 8424   5.088   1.434   2.585
 2831TIP3   OH2 8425   3.681   1.071   2.917
 2831TIP3    H1 8426   3.604   1.021   2.948
 2831TIP3    H2 8427   3.754   1.037   2.973
 2832TIP3   OH2 8428   3.450   0.943   2.585
 2832TIP3    H1 8429   3.493   1.002   2.520
 2832TIP3    H2 8430   3.434   1.005   2.659
 2833TIP3   OH2 8431   4.130   1.095   2.808
 2833TIP3    H1 8432   4.194   1.164   2.785
 2833TIP3    H2 8433   4.101   1.118   2.897
 2834TIP3   OH2 8434   4.672   1.252   2.814
 2834TIP3    H1 8435   4.675   1.215   2.725
 2834TIP3    H2 8436   4.660   1.171   2.869
 2835TIP3   OH2 8437   4.705   1.174   2.374
 2835TIP3    H1 8438   4.620   1.218   2.388
 2835TIP3    H2 8439   4.690   1.089   2.421
 2836TIP3   OH2 8440   3.188   2.514   2.375
 2836TIP3    H1 8441   3.102   2.483   2.340
 2836TIP3    H2 8442   3.181   2.609   2.353
 2837TIP3   OH2 8443   3.592   1.109   2.365
 2837TIP3    H1 8444   3.642   1.036   2.326
 2837TIP3    H2 8445   3.664   1.165   2.400
 2838TIP3   OH2 8446   4.103   1.275   2.460
 2838TIP3    H1 8447   4.161   1.232   2.525
 2838TIP3    H2 8448   4.123   1.369   2.483
 2839TIP3   OH2 8449   3.966   2.701   1.960
 2839TIP3    H1 8450   4.058   2.717   1.928
 2839TIP3    H2 8451   3.942   2.626   1.901
 2840TIP3   OH2 8452   4.690   2.813   2.042
 2840TIP3    H1 8453   4.633   2.733   2.051
 2840TIP3    H2 8454   4.645   2.854   1.965
 2841TIP3   OH2 8455   3.892   1.353   3.838
 2841TIP3    H1 8456   3.859   1.283   3.896
 2841TIP3    H2 8457   3.987   1.354   3.864
 2842TIP3   OH2 8458   4.141   1.350   3.957
 2842TIP3    H1 8459   4.226   1.327   3.916
 2842TIP3    H2 8460   4.131   1.278   4.022
 2843TIP3   OH2 8461   3.264   2.533   2.014
 2843TIP3    H1 8462   3.269   2.564   2.105
 2843TIP3    H2 8463   3.353   2.494   2.000
 2844TIP3   OH2 8464   4.967   1.412   3.745
 2844TIP3    H1 8465   4.986   1.382   3.836
 2844TIP3    H2 8466   5.056   1.408   3.704
 2845TIP3   OH2 8467   4.905   2.963   3.236
 2845TIP3    H1 8468   4.826   2.933   3.188
 2845TIP3    H2 8469   4.887   3.059   3.242
 2846TIP3   OH2 8470   6.173   2.337   2.001
 2846TIP3    H1 8471   6.144   2.428   1.981
 2846TIP3    H2 8472   6.097   2.286   1.970
 2847TIP3   OH2 8473   6.171   2.336   2.387
 2847TIP3    H1 8474   6.205   2.311   2.475
 2847TIP3    H2 8475   6.130   2.254   2.357
 2848TIP3   OH2 8476   5.469   2.230   2.752
 2848TIP3    H1 8477   5.501   2.163   2.816
 2848TIP3    H2 8478   5.547   2.287   2.745
 2849TIP3   OH2 8479   6.416   2.640   2.067
 2849TIP3    H1 8480   6.401   2.571   2.132
 2849TIP3    H2 8481   6.444   2.715   2.122
 2850TIP3   OH2 8482   5.442   2.640   2.473
 2850TIP3    H1 8483   5.433   2.542   2.475
 2850TIP3    H2 8484   5.539   2.649   2.468
 2851TIP3   OH2 8485   5.148   1.841   2.257
 2851TIP3    H1 8486   5.103   1.926   2.274
 2851TIP3    H2 8487   5.076   1.791   2.215
 2852TIP3   OH2 8488   5.207   2.130   2.432
 2852TIP3    H1 8489   5.258   2.055   2.469
 2852TIP3    H2 8490   5.271   2.170   2.371
 2853TIP3   OH2 8491   6.065   3.101   2.083
 2853TIP3    H1 8492   6.110   3.028   2.035
 2853TIP3    H2 8493   6.057   3.064   2.171
 2854TIP3   OH2 8494   5.970   2.561   2.433
 2854TIP3    H1 8495   6.010   2.485   2.389
 2854TIP3    H2 8496   6.052   2.608   2.458
 2855TIP3   OH2 8497   6.984   1.883   2.429
 2855TIP3    H1 8498   7.012   1.965   2.473
 2855TIP3    H2 8499   7.009   1.901   2.337
 2856TIP3   OH2 8500   6.382   2.064   2.464
 2856TIP3    H1 8501   6.425   1.978   2.485
 2856TIP3    H2 8502   6.351   2.046   2.373
 2857TIP3   OH2 8503   5.720   1.723   2.431
 2857TIP3    H1 8504   5.702   1.795   2.368
 2857TIP3    H2 8505   5.671   1.650   2.386
 2858TIP3   OH2 8506   6.415   1.814   2.052
 2858TIP3    H1 8507   6.488   1.799   2.117
 2858TIP3    H2 8508   6.466   1.849   1.977
 2859TIP3   OH2 8509   5.354   1.924   2.538
 2859TIP3    H1 8510   5.437   1.906   2.586
 2859TIP3    H2 8511   5.368   1.870   2.458
 2860TIP3   OH2 8512   5.795   2.122   2.331
 2860TIP3    H1 8513   5.889   2.098   2.344
 2860TIP3    H2 8514   5.757   2.038   2.299
 2861TIP3   OH2 8515   7.057   2.090   2.599
 2861TIP3    H1 8516   6.972   2.136   2.582
 2861TIP3    H2 8517   7.072   2.115   2.692
 2862TIP3   OH2 8518   5.716   1.705   2.864
 2862TIP3    H1 8519   5.657   1.743   2.797
 2862TIP3    H2 8520   5.665   1.724   2.945
 2863TIP3   OH2 8521   6.065   2.559   1.871
 2863TIP3    H1 8522   6.020   2.538   1.788
 2863TIP3    H2 8523   6.020   2.642   1.896
 2864TIP3   OH2 8524   5.823   2.481   2.658
 2864TIP3    H1 8525   5.761   2.549   2.695
 2864TIP3    H2 8526   5.866   2.531   2.586
 2865TIP3   OH2 8527   6.624   1.817   2.227
 2865TIP3    H1 8528   6.611   1.773   2.312
 2865TIP3    H2 8529   6.677   1.895   2.253
 2866TIP3   OH2 8530   5.587   1.821   2.649
 2866TIP3    H1 8531   5.649   1.895   2.672
 2866TIP3    H2 8532   5.637   1.780   2.574
 2867TIP3   OH2 8533   5.652   2.676   2.756
 2867TIP3    H1 8534   5.627   2.763   2.719
 2867TIP3    H2 8535   5.573   2.660   2.813
 2868TIP3   OH2 8536   5.050   2.368   1.997
 2868TIP3    H1 8537   5.004   2.397   1.916
 2868TIP3    H2 8538   5.080   2.454   2.034
 2869TIP3   OH2 8539   6.485   2.881   2.232
 2869TIP3    H1 8540   6.395   2.873   2.272
 2869TIP3    H2 8541   6.476   2.969   2.188
 2870TIP3   OH2 8542   6.777   1.782   2.594
 2870TIP3    H1 8543   6.689   1.813   2.565
 2870TIP3    H2 8544   6.836   1.815   2.523
 2871TIP3   OH2 8545   6.069   1.425   2.574
 2871TIP3    H1 8546   6.060   1.331   2.597
 2871TIP3    H2 8547   5.993   1.463   2.624
 2872TIP3   OH2 8548   6.186   2.927   1.906
 2872TIP3    H1 8549   6.237   2.845   1.886
 2872TIP3    H2 8550   6.246   2.993   1.865
 2873TIP3   OH2 8551   6.331   2.712   1.814
 2873TIP3    H1 8552   6.287   2.632   1.781
 2873TIP3    H2 8553   6.368   2.680   1.899
 2874TIP3   OH2 8554   6.711   2.794   2.577
 2874TIP3    H1 8555   6.699   2.716   2.518
 2874TIP3    H2 8556   6.693   2.869   2.515
 2875TIP3   OH2 8557   6.002   2.187   1.835
 2875TIP3    H1 8558   5.923   2.239   1.811
 2875TIP3    H2 8559   6.050   2.182   1.750
 2876TIP3   OH2 8560   5.959   1.975   1.543
 2876TIP3    H1 8561   6.027   2.021   1.595
 2876TIP3    H2 8562   6.016   1.909   1.498
 2877TIP3   OH2 8563   6.907   2.432   2.422
 2877TIP3    H1 8564   6.823   2.484   2.428
 2877TIP3    H2 8565   6.935   2.455   2.331
 2878TIP3   OH2 8566   6.351   2.272   1.804
 2878TIP3    H1 8567   6.296   2.296   1.883
 2878TIP3    H2 8568   6.434   2.244   1.849
 2879TIP3   OH2 8569   6.585   2.309   2.720
 2879TIP3    H1 8570   6.583   2.391   2.772
 2879TIP3    H2 8571   6.499   2.315   2.674
 2880TIP3   OH2 8572   5.583   2.267   2.223
 2880TIP3    H1 8573   5.543   2.209   2.154
 2880TIP3    H2 8574   5.660   2.214   2.252
 2881TIP3   OH2 8575   5.711   2.678   2.371
 2881TIP3    H1 8576   5.693   2.640   2.284
 2881TIP3    H2 8577   5.801   2.645   2.389
 2882TIP3   OH2 8578   5.716   2.240   2.576
 2882TIP3    H1 8579   5.752   2.218   2.487
 2882TIP3    H2 8580   5.761   2.325   2.596
 2883TIP3   OH2 8581   6.245   2.876   2.354
 2883TIP3    H1 8582   6.230   2.957   2.407
 2883TIP3    H2 8583   6.230   2.804   2.418
 2884TIP3   OH2 8584   5.857   2.795   2.901
 2884TIP3    H1 8585   5.798   2.858   2.948
 2884TIP3    H2 8586   5.791   2.742   2.851
 2885TIP3   OH2 8587   6.187   2.131   1.633
 2885TIP3    H1 8588   6.249   2.188   1.684
 2885TIP3    H2 8589   6.214   2.153   1.541
 2886TIP3   OH2 8590   5.612   2.352   3.003
 2886TIP3    H1 8591   5.617   2.439   3.046
 2886TIP3    H2 8592   5.516   2.333   3.014
 2887TIP3   OH2 8593   5.936   2.806   1.902
 2887TIP3    H1 8594   6.015   2.859   1.920
 2887TIP3    H2 8595   5.872   2.873   1.872
 2888TIP3   OH2 8596   5.651   2.962   2.988
 2888TIP3    H1 8597   5.616   2.962   2.897
 2888TIP3    H2 8598   5.571   2.941   3.041
 2889TIP3   OH2 8599   6.705   1.365   1.680
 2889TIP3    H1 8600   6.624   1.388   1.730
 2889TIP3    H2 8601   6.719   1.448   1.629
 2890TIP3   OH2 8602   5.451   2.112   2.021
 2890TIP3    H1 8603   5.383   2.157   1.967
 2890TIP3    H2 8604   5.407   2.029   2.042
 2891TIP3   OH2 8605   6.503   2.736   1.226
 2891TIP3    H1 8606   6.514   2.834   1.215
 2891TIP3    H2 8607   6.596   2.707   1.215
 2892TIP3   OH2 8608   5.229   2.495   2.936
 2892TIP3    H1 8609   5.165   2.471   2.865
 2892TIP3    H2 8610   5.268   2.408   2.960
 2893TIP3   OH2 8611   5.085   2.685   2.571
 2893TIP3    H1 8612   5.181   2.683   2.559
 2893TIP3    H2 8613   5.074   2.766   2.623
 2894TIP3   OH2 8614   6.949   3.139   2.623
 2894TIP3    H1 8615   6.948   3.043   2.639
 2894TIP3    H2 8616   6.865   3.165   2.669
 2895TIP3   OH2 8617   6.054   2.925   2.757
 2895TIP3    H1 8618   6.053   3.018   2.790
 2895TIP3    H2 8619   5.983   2.885   2.812
 2896TIP3   OH2 8620   5.816   3.053   1.714
 2896TIP3    H1 8621   5.774   3.032   1.628
 2896TIP3    H2 8622   5.781   3.141   1.734
 2897TIP3   OH2 8623   5.247   2.904   2.095
 2897TIP3    H1 8624   5.300   2.894   2.178
 2897TIP3    H2 8625   5.195   2.822   2.098
 2898TIP3   OH2 8626   6.020   2.956   1.344
 2898TIP3    H1 8627   6.077   2.882   1.314
 2898TIP3    H2 8628   6.049   2.968   1.437
 2899TIP3   OH2 8629   6.066   3.003   1.616
 2899TIP3    H1 8630   5.977   3.013   1.657
 2899TIP3    H2 8631   6.116   2.964   1.689
 2900TIP3   OH2 8632   6.840   2.271   2.897
 2900TIP3    H1 8633   6.756   2.281   2.850
 2900TIP3    H2 8634   6.855   2.175   2.889
 2901TIP3   OH2 8635   5.436   2.676   2.921
 2901TIP3    H1 8636   5.485   2.662   3.005
 2901TIP3    H2 8637   5.361   2.614   2.931
 2902TIP3   OH2 8638   5.833   1.500   2.710
 2902TIP3    H1 8639   5.743   1.471   2.683
 2902TIP3    H2 8640   5.809   1.583   2.756
 2903TIP3   OH2 8641   6.370   1.615   2.903
 2903TIP3    H1 8642   6.441   1.588   2.964
 2903TIP3    H2 8643   6.289   1.595   2.953
 2904TIP3   OH2 8644   6.606   2.045   2.820
 2904TIP3    H1 8645   6.558   2.041   2.906
 2904TIP3    H2 8646   6.582   2.133   2.786
 2905TIP3   OH2 8647   6.267   2.182   1.380
 2905TIP3    H1 8648   6.235   2.149   1.294
 2905TIP3    H2 8649   6.352   2.222   1.353
 2906TIP3   OH2 8650   5.975   1.550   1.678
 2906TIP3    H1 8651   5.945   1.546   1.771
 2906TIP3    H2 8652   5.939   1.466   1.645
 2907TIP3   OH2 8653   5.764   2.017   2.725
 2907TIP3    H1 8654   5.717   2.039   2.808
 2907TIP3    H2 8655   5.748   2.099   2.672
 2908TIP3   OH2 8656   5.650   1.902   2.239
 2908TIP3    H1 8657   5.557   1.876   2.258
 2908TIP3    H2 8658   5.662   1.861   2.151
 2909TIP3   OH2 8659   6.139   1.987   1.969
 2909TIP3    H1 8660   6.088   2.059   1.925
 2909TIP3    H2 8661   6.195   1.956   1.895
 2910TIP3   OH2 8662   6.315   2.265   3.052
 2910TIP3    H1 8663   6.292   2.193   3.115
 2910TIP3    H2 8664   6.408   2.280   3.076
 2911TIP3   OH2 8665   6.296   2.016   2.206
 2911TIP3    H1 8666   6.235   2.044   2.135
 2911TIP3    H2 8667   6.331   1.935   2.163
 2912TIP3   OH2 8668   5.584   2.046   2.936
 2912TIP3    H1 8669   5.617   2.109   3.001
 2912TIP3    H2 8670   5.574   1.964   2.989
 2913TIP3   OH2 8671   5.632   1.521   1.644
 2913TIP3    H1 8672   5.626   1.520   1.742
 2913TIP3    H2 8673   5.554   1.574   1.621
 2914TIP3   OH2 8674   5.178   1.566   2.516
 2914TIP3    H1 8675   5.252   1.600   2.572
 2914TIP3    H2 8676   5.223   1.537   2.436
 2915TIP3   OH2 8677   5.147   1.545   2.034
 2915TIP3    H1 8678   5.195   1.582   1.958
 2915TIP3    H2 8679   5.088   1.620   2.056
 2916TIP3   OH2 8680   6.305   2.263   2.628
 2916TIP3    H1 8681   6.339   2.191   2.570
 2916TIP3    H2 8682   6.278   2.210   2.706
 2917TIP3   OH2 8683   5.977   1.725   2.301
 2917TIP3    H1 8684   5.898   1.723   2.358
 2917TIP3    H2 8685   6.049   1.720   2.366
 2918TIP3   OH2 8686   5.411   1.781   2.309
 2918TIP3    H1 8687   5.317   1.787   2.282
 2918TIP3    H2 8688   5.436   1.690   2.286
 2919TIP3   OH2 8689   5.678   1.775   1.997
 2919TIP3    H1 8690   5.773   1.790   1.981
 2919TIP3    H2 8691   5.635   1.802   1.913
 2920TIP3   OH2 8692   6.470   1.802   2.503
 2920TIP3    H1 8693   6.438   1.813   2.595
 2920TIP3    H2 8694   6.403   1.740   2.467
 2921TIP3   OH2 8695   5.518   1.814   1.771
 2921TIP3    H1 8696   5.454   1.763   1.718
 2921TIP3    H2 8697   5.575   1.850   1.700
 2922TIP3   OH2 8698   6.641   3.489   2.723
 2922TIP3    H1 8699   6.638   3.515   2.630
 2922TIP3    H2 8700   6.719   3.538   2.756
 2923TIP3   OH2 8701   5.596   2.598   3.144
 2923TIP3    H1 8702   5.676   2.629   3.191
 2923TIP3    H2 8703   5.531   2.600   3.217
 2924TIP3   OH2 8704   6.060   2.054   2.398
 2924TIP3    H1 8705   6.133   2.014   2.348
 2924TIP3    H2 8706   6.069   2.011   2.485
 2925TIP3   OH2 8707   5.579   1.541   2.278
 2925TIP3    H1 8708   5.547   1.461   2.325
 2925TIP3    H2 8709   5.633   1.503   2.208
 2926TIP3   OH2 8710   6.036   1.951   2.689
 2926TIP3    H1 8711   5.947   1.988   2.704
 2926TIP3    H2 8712   6.094   2.011   2.740
 2927TIP3   OH2 8713   5.774   2.340   1.781
 2927TIP3    H1 8714   5.699   2.279   1.769
 2927TIP3    H2 8715   5.756   2.374   1.872
 2928TIP3   OH2 8716   6.673   2.577   2.412
 2928TIP3    H1 8717   6.697   2.626   2.330
 2928TIP3    H2 8718   6.587   2.535   2.387
 2929TIP3   OH2 8719   6.232   1.646   1.657
 2929TIP3    H1 8720   6.134   1.632   1.656
 2929TIP3    H2 8721   6.240   1.743   1.665
 2930TIP3   OH2 8722   6.171   2.658   2.782
 2930TIP3    H1 8723   6.200   2.639   2.871
 2930TIP3    H2 8724   6.133   2.747   2.789
 2931TIP3   OH2 8725   6.299   1.902   1.752
 2931TIP3    H1 8726   6.396   1.907   1.764
 2931TIP3    H2 8727   6.280   1.977   1.693
 2932TIP3   OH2 8728   5.462   2.358   2.459
 2932TIP3    H1 8729   5.504   2.334   2.373
 2932TIP3    H2 8730   5.512   2.302   2.521
 2933TIP3   OH2 8731   5.910   2.494   1.595
 2933TIP3    H1 8732   5.861   2.578   1.607
 2933TIP3    H2 8733   5.862   2.436   1.658
 2934TIP3   OH2 8734   5.347   2.284   3.073
 2934TIP3    H1 8735   5.370   2.272   3.167
 2934TIP3    H2 8736   5.279   2.215   3.061
 2935TIP3   OH2 8737   6.073   2.398   3.092
 2935TIP3    H1 8738   6.016   2.339   3.042
 2935TIP3    H2 8739   6.162   2.365   3.066
 2936TIP3   OH2 8740   6.332   2.918   2.676
 2936TIP3    H1 8741   6.235   2.918   2.689
 2936TIP3    H2 8742   6.361   2.969   2.755
 2937TIP3   OH2 8743   6.742   1.990   1.585
 2937TIP3    H1 8744   6.680   1.945   1.522
 2937TIP3    H2 8745   6.739   2.079   1.544
 2938TIP3   OH2 8746   6.961   2.849   2.666
 2938TIP3    H1 8747   6.863   2.843   2.658
 2938TIP3    H2 8748   6.987   2.819   2.575
 2939TIP3   OH2 8749   6.443   2.810   1.494
 2939TIP3    H1 8750   6.417   2.743   1.559
 2939TIP3    H2 8751   6.455   2.759   1.412
 2940TIP3   OH2 8752   6.439   2.440   2.328
 2940TIP3    H1 8753   6.345   2.414   2.343
 2940TIP3    H2 8754   6.473   2.359   2.285
 2941TIP3   OH2 8755   5.568   2.662   2.087
 2941TIP3    H1 8756   5.566   2.748   2.039
 2941TIP3    H2 8757   5.474   2.648   2.099
 2942TIP3   OH2 8758   5.703   2.430   2.026
 2942TIP3    H1 8759   5.669   2.520   2.044
 2942TIP3    H2 8760   5.668   2.382   2.103
 2943TIP3   OH2 8761   5.837   3.009   2.553
 2943TIP3    H1 8762   5.878   3.082   2.503
 2943TIP3    H2 8763   5.913   2.975   2.603
 2944TIP3   OH2 8764   5.501   2.902   1.966
 2944TIP3    H1 8765   5.406   2.912   1.986
 2944TIP3    H2 8766   5.525   2.994   1.945
 2945TIP3   OH2 8767   6.223   2.645   2.513
 2945TIP3    H1 8768   6.212   2.644   2.611
 2945TIP3    H2 8769   6.303   2.593   2.502
 2946TIP3   OH2 8770   6.199   2.543   1.395
 2946TIP3    H1 8771   6.253   2.516   1.473
 2946TIP3    H2 8772   6.113   2.510   1.422
 2947TIP3   OH2 8773   6.473   3.176   2.562
 2947TIP3    H1 8774   6.393   3.120   2.557
 2947TIP3    H2 8775   6.456   3.241   2.490
 2948TIP3   OH2 8776   6.537   3.011   1.215
 2948TIP3    H1 8777   6.574   3.083   1.161
 2948TIP3    H2 8778   6.458   3.058   1.250
 2949TIP3   OH2 8779   5.559   1.788   3.080
 2949TIP3    H1 8780   5.463   1.792   3.096
 2949TIP3    H2 8781   5.589   1.732   3.154
 2950TIP3   OH2 8782   6.359   2.470   1.608
 2950TIP3    H1 8783   6.348   2.404   1.680
 2950TIP3    H2 8784   6.457   2.468   1.598
 2951TIP3   OH2 8785   5.274   2.873   2.712
 2951TIP3    H1 8786   5.329   2.801   2.747
 2951TIP3    H2 8787   5.300   2.946   2.769
 2952TIP3   OH2 8788   5.587   2.496   1.389
 2952TIP3    H1 8789   5.583   2.400   1.379
 2952TIP3    H2 8790   5.547   2.509   1.477
 2953TIP3   OH2 8791   5.509   2.515   1.656
 2953TIP3    H1 8792   5.582   2.505   1.720
 2953TIP3    H2 8793   5.503   2.612   1.647
 2954TIP3   OH2 8794   5.250   2.222   1.867
 2954TIP3    H1 8795   5.179   2.258   1.925
 2954TIP3    H2 8796   5.261   2.297   1.806
 2955TIP3   OH2 8797   6.396   1.851   2.762
 2955TIP3    H1 8798   6.475   1.891   2.802
 2955TIP3    H2 8799   6.383   1.771   2.817
 2956TIP3   OH2 8800   6.275   1.602   1.930
 2956TIP3    H1 8801   6.261   1.624   1.836
 2956TIP3    H2 8802   6.315   1.685   1.964
 2957TIP3   OH2 8803   5.762   2.723   1.615
 2957TIP3    H1 8804   5.697   2.770   1.668
 2957TIP3    H2 8805   5.785   2.793   1.551
 2958TIP3   OH2 8806   5.958   1.785   2.030
 2958TIP3    H1 8807   6.025   1.855   2.011
 2958TIP3    H2 8808   5.968   1.776   2.127
 2959TIP3   OH2 8809   6.234   2.101   2.837
 2959TIP3    H1 8810   6.256   2.155   2.916
 2959TIP3    H2 8811   6.289   2.022   2.851
 2960TIP3   OH2 8812   6.107   1.507   2.130
 2960TIP3    H1 8813   6.106   1.581   2.193
 2960TIP3    H2 8814   6.169   1.542   2.062
 2961TIP3   OH2 8815   5.620   1.509   1.921
 2961TIP3    H1 8816   5.619   1.600   1.959
 2961TIP3    H2 8817   5.715   1.490   1.929
 2962TIP3   OH2 8818   6.873   2.003   2.816
 2962TIP3    H1 8819   6.775   2.002   2.825
 2962TIP3    H2 8820   6.882   1.956   2.732
 2963TIP3   OH2 8821   6.524   2.196   2.205
 2963TIP3    H1 8822   6.448   2.137   2.218
 2963TIP3    H2 8823   6.595   2.149   2.254
 2964TIP3   OH2 8824   5.233   2.427   1.669
 2964TIP3    H1 8825   5.277   2.513   1.680
 2964TIP3    H2 8826   5.295   2.387   1.607
 2965TIP3   OH2 8827   5.178   1.699   1.807
 2965TIP3    H1 8828   5.167   1.792   1.829
 2965TIP3    H2 8829   5.091   1.674   1.773
 2966TIP3   OH2 8830   6.493   3.153   2.154
 2966TIP3    H1 8831   6.450   3.199   2.079
 2966TIP3    H2 8832   6.587   3.171   2.134
 2967TIP3   OH2 8833   5.568   1.421   2.682
 2967TIP3    H1 8834   5.538   1.388   2.595
 2967TIP3    H2 8835   5.558   1.342   2.739
 2968TIP3   OH2 8836   5.106   2.638   2.064
 2968TIP3    H1 8837   5.037   2.670   2.124
 2968TIP3    H2 8838   5.077   2.679   1.979
 2969TIP3   OH2 8839   5.267   3.184   3.134
 2969TIP3    H1 8840   5.352   3.187   3.182
 2969TIP3    H2 8841   5.248   3.089   3.134
 2970TIP3   OH2 8842   5.743   3.144   3.180
 2970TIP3    H1 8843   5.838   3.130   3.188
 2970TIP3    H2 8844   5.721   3.084   3.106
 2971TIP3   OH2 8845   5.727   2.714   1.304
 2971TIP3    H1 8846   5.656   2.661   1.346
 2971TIP3    H2 8847   5.799   2.651   1.312
 2972TIP3   OH2 8848   6.387   3.050   2.910
 2972TIP3    H1 8849   6.378   2.981   2.980
 2972TIP3    H2 8850   6.463   3.103   2.943
 2973TIP3   OH2 8851   6.157   2.749   1.210
 2973TIP3    H1 8852   6.185   2.686   1.280
 2973TIP3    H2 8853   6.240   2.764   1.162
 2974TIP3   OH2 8854   5.395   2.588   3.335
 2974TIP3    H1 8855   5.412   2.492   3.340
 2974TIP3    H2 8856   5.307   2.590   3.291
 2975TIP3   OH2 8857   5.353   2.177   1.536
 2975TIP3    H1 8858   5.415   2.189   1.612
 2975TIP3    H2 8859   5.413   2.211   1.465
 2976TIP3   OH2 8860   6.003   2.674   3.108
 2976TIP3    H1 8861   5.962   2.691   3.021
 2976TIP3    H2 8862   6.035   2.581   3.100
 2977TIP3   OH2 8863   5.894   2.445   1.318
 2977TIP3    H1 8864   5.886   2.460   1.415
 2977TIP3    H2 8865   5.894   2.346   1.319
 2978TIP3   OH2 8866   6.495   2.683   2.713
 2978TIP3    H1 8867   6.570   2.728   2.671
 2978TIP3    H2 8868   6.425   2.750   2.701
 2979TIP3   OH2 8869   5.514   2.319   3.317
 2979TIP3    H1 8870   5.593   2.270   3.294
 2979TIP3    H2 8871   5.539   2.354   3.406
 2980TIP3   OH2 8872   5.571   2.144   1.742
 2980TIP3    H1 8873   5.552   2.108   1.830
 2980TIP3    H2 8874   5.616   2.068   1.698
 2981TIP3   OH2 8875   5.846   2.203   2.975
 2981TIP3    H1 8876   5.772   2.267   2.980
 2981TIP3    H2 8877   5.898   2.238   2.899
 2982TIP3   OH2 8878   5.683   1.936   1.589
 2982TIP3    H1 8879   5.663   1.933   1.494
 2982TIP3    H2 8880   5.781   1.939   1.585
 2983TIP3   OH2 8881   6.365   2.607   3.111
 2983TIP3    H1 8882   6.448   2.583   3.067
 2983TIP3    H2 8883   6.362   2.543   3.185
 2984TIP3   OH2 8884   6.502   2.268   1.253
 2984TIP3    H1 8885   6.480   2.220   1.171
 2984TIP3    H2 8886   6.468   2.358   1.229
 2985TIP3   OH2 8887   5.970   1.995   3.105
 2985TIP3    H1 8888   5.974   1.915   3.048
 2985TIP3    H2 8889   5.928   2.061   3.046
 2986TIP3   OH2 8890   5.976   1.781   2.911
 2986TIP3    H1 8891   6.004   1.823   2.828
 2986TIP3    H2 8892   5.882   1.759   2.892
 2987TIP3   OH2 8893   6.000   2.315   2.785
 2987TIP3    H1 8894   6.086   2.326   2.741
 2987TIP3    H2 8895   5.945   2.383   2.740
 2988TIP3   OH2 8896   6.581   2.283   3.164
 2988TIP3    H1 8897   6.629   2.201   3.185
 2988TIP3    H2 8898   6.654   2.340   3.133
 2989TIP3   OH2 8899   6.625   2.536   2.899
 2989TIP3    H1 8900   6.567   2.591   2.841
 2989TIP3    H2 8901   6.713   2.557   2.860
 2990TIP3   OH2 8902   5.849   2.106   3.335
 2990TIP3    H1 8903   5.781   2.037   3.350
 2990TIP3    H2 8904   5.885   2.078   3.248
 2991TIP3   OH2 8905   6.107   1.545   2.980
 2991TIP3    H1 8906   6.060   1.627   2.957
 2991TIP3    H2 8907   6.038   1.477   2.968
 2992TIP3   OH2 8908   6.234   2.049   3.195
 2992TIP3    H1 8909   6.227   2.036   3.292
 2992TIP3    H2 8910   6.143   2.024   3.169
 2993TIP3   OH2 8911   6.472   1.996   3.048
 2993TIP3    H1 8912   6.397   1.998   3.112
 2993TIP3    H2 8913   6.546   1.967   3.105
 2994TIP3   OH2 8914   6.702   1.939   3.198
 2994TIP3    H1 8915   6.714   1.843   3.217
 2994TIP3    H2 8916   6.696   1.978   3.288
 2995TIP3   OH2 8917   5.688   1.885   3.390
 2995TIP3    H1 8918   5.699   1.794   3.356
 2995TIP3    H2 8919   5.726   1.875   3.480
 2996TIP3   OH2 8920   6.199   1.553   3.239
 2996TIP3    H1 8921   6.270   1.485   3.234
 2996TIP3    H2 8922   6.163   1.547   3.149
 2997TIP3   OH2 8923   6.266   1.769   3.397
 2997TIP3    H1 8924   6.245   1.697   3.333
 2997TIP3    H2 8925   6.188   1.828   3.389
 2998TIP3   OH2 8926   4.967   2.396   1.729
 2998TIP3    H1 8927   5.061   2.416   1.707
 2998TIP3    H2 8928   4.954   2.311   1.687
 2999TIP3   OH2 8929   4.882   2.990   2.126
 2999TIP3    H1 8930   4.818   2.925   2.088
 2999TIP3    H2 8931   4.928   2.933   2.191
 3000TIP3   OH2 8932   5.018   2.841   2.313
 3000TIP3    H1 8933   5.007   2.770   2.377
 3000TIP3    H2 8934   5.071   2.904   2.365
 3001TIP3   OH2 8935   6.748   3.241   2.113
 3001TIP3    H1 8936   6.770   3.272   2.203
 3001TIP3    H2 8937   6.807   3.294   2.058
 3002TIP3   OH2 8938   6.776   3.262   2.393
 3002TIP3    H1 8939   6.732   3.175   2.391
 3002TIP3    H2 8940   6.849   3.242   2.455
 3003TIP3   OH2 8941   6.821   2.941   2.966
 3003TIP3    H1 8942   6.749   2.948   3.032
 3003TIP3    H2 8943   6.863   3.029   2.972
 3004TIP3   OH2 8944   6.639   2.453   1.587
 3004TIP3    H1 8945   6.708   2.517   1.560
 3004TIP3    H2 8946   6.681   2.414   1.667
 3005TIP3   OH2 8947   6.766   2.322   1.792
 3005TIP3    H1 8948   6.700   2.278   1.850
 3005TIP3    H2 8949   6.829   2.358   1.856
 3006TIP3   OH2 8950   6.821   2.714   2.223
 3006TIP3    H1 8951   6.875   2.648   2.175
 3006TIP3    H2 8952   6.812   2.785   2.157
 3007TIP3   OH2 8953   6.651   3.013   2.417
 3007TIP3    H1 8954   6.580   3.055   2.470
 3007TIP3    H2 8955   6.599   2.966   2.348
 3008TIP3   OH2 8956   6.704   2.230   1.437
 3008TIP3    H1 8957   6.631   2.231   1.371
 3008TIP3    H2 8958   6.676   2.305   1.493
 3009TIP3   OH2 8959   6.577   1.904   1.388
 3009TIP3    H1 8960   6.526   1.935   1.312
 3009TIP3    H2 8961   6.552   1.808   1.388
 3010TIP3   OH2 8962   6.579   2.177   1.936
 3010TIP3    H1 8963   6.587   2.080   1.930
 3010TIP3    H2 8964   6.565   2.191   2.032
 3011TIP3   OH2 8965   5.206   2.250   2.685
 3011TIP3    H1 8966   5.204   2.219   2.592
 3011TIP3    H2 8967   5.303   2.252   2.701
 3012TIP3   OH2 8968   6.869   2.602   2.794
 3012TIP3    H1 8969   6.941   2.536   2.784
 3012TIP3    H2 8970   6.897   2.672   2.733
 3013TIP3   OH2 8971   7.055   2.407   2.805
 3013TIP3    H1 8972   6.980   2.358   2.845
 3013TIP3    H2 8973   7.127   2.343   2.822
 3014TIP3   OH2 8974   6.513   1.642   1.389
 3014TIP3    H1 8975   6.589   1.600   1.434
 3014TIP3    H2 8976   6.442   1.577   1.398
 3015TIP3   OH2 8977   6.577   1.894   1.831
 3015TIP3    H1 8978   6.617   1.806   1.847
 3015TIP3    H2 8979   6.634   1.926   1.759
 3016TIP3   OH2 8980   6.736   2.066   2.326
 3016TIP3    H1 8981   6.822   2.092   2.286
 3016TIP3    H2 8982   6.750   2.103   2.416
 3017TIP3   OH2 8983   6.806   2.211   2.557
 3017TIP3    H1 8984   6.729   2.245   2.608
 3017TIP3    H2 8985   6.838   2.293   2.514
 3018TIP3   OH2 8986   5.421   1.935   3.352
 3018TIP3    H1 8987   5.519   1.932   3.359
 3018TIP3    H2 8988   5.399   1.851   3.397
 3019TIP3   OH2 8989   7.265   1.807   3.113
 3019TIP3    H1 8990   7.317   1.738   3.066
 3019TIP3    H2 8991   7.230   1.860   3.039
 3020TIP3   OH2 8992   6.685   1.644   1.869
 3020TIP3    H1 8993   6.733   1.627   1.953
 3020TIP3    H2 8994   6.625   1.567   1.867
 3021TIP3   OH2 8995   5.384   1.630   2.691
 3021TIP3    H1 8996   5.447   1.556   2.700
 3021TIP3    H2 8997   5.446   1.705   2.683
 3022TIP3   OH2 8998   5.185   1.903   2.760
 3022TIP3    H1 8999   5.237   1.899   2.677
 3022TIP3    H2 9000   5.215   1.987   2.797
 3023TIP3   OH2 9001   7.128   1.941   2.922
 3023TIP3    H1 9002   7.043   1.982   2.947
 3023TIP3    H2 9003   7.095   1.870   2.863
 3024TIP3   OH2 9004   6.766   1.574   1.504
 3024TIP3    H1 9005   6.806   1.505   1.448
 3024TIP3    H2 9006   6.830   1.647   1.497
 3025TIP3   OH2 9007   5.170   1.402   2.262
 3025TIP3    H1 9008   5.077   1.403   2.291
 3025TIP3    H2 9009   5.167   1.462   2.184
 3026TIP3   OH2 9010   6.329   3.109   1.768
 3026TIP3    H1 9011   6.384   3.098   1.688
 3026TIP3    H2 9012   6.379   3.176   1.818
 3027TIP3   OH2 9013   5.389   1.483   3.076
 3027TIP3    H1 9014   5.341   1.482   3.160
 3027TIP3    H2 9015   5.323   1.524   3.017
 3028TIP3   OH2 9016   5.431   2.912   3.153
 3028TIP3    H1 9017   5.337   2.888   3.139
 3028TIP3    H2 9018   5.442   2.899   3.248
 3029TIP3   OH2 9019   5.609   2.946   2.701
 3029TIP3    H1 9020   5.562   3.023   2.663
 3029TIP3    H2 9021   5.695   2.960   2.657
 3030TIP3   OH2 9022   6.052   3.191   2.838
 3030TIP3    H1 9023   6.093   3.190   2.927
 3030TIP3    H2 9024   6.119   3.243   2.788
 3031TIP3   OH2 9025   6.232   3.344   2.698
 3031TIP3    H1 9026   6.304   3.292   2.660
 3031TIP3    H2 9027   6.282   3.401   2.760
 3032TIP3   OH2 9028   7.025   1.707   2.799
 3032TIP3    H1 9029   6.933   1.695   2.769
 3032TIP3    H2 9030   7.059   1.615   2.789
 3033TIP3   OH2 9031   5.285   3.203   2.727
 3033TIP3    H1 9032   5.195   3.235   2.705
 3033TIP3    H2 9033   5.299   3.247   2.811
 3034TIP3   OH2 9034   5.521   3.182   2.584
 3034TIP3    H1 9035   5.435   3.194   2.629
 3034TIP3    H2 9036   5.501   3.215   2.494
 3035TIP3   OH2 9037   5.948   3.210   2.381
 3035TIP3    H1 9038   5.877   3.230   2.317
 3035TIP3    H2 9039   5.960   3.297   2.425
 3036TIP3   OH2 9040   6.216   3.149   2.432
 3036TIP3    H1 9041   6.122   3.166   2.414
 3036TIP3    H2 9042   6.258   3.227   2.392
 3037TIP3   OH2 9043   6.424   3.342   2.348
 3037TIP3    H1 9044   6.409   3.426   2.300
 3037TIP3    H2 9045   6.449   3.282   2.275
 3038TIP3   OH2 9046   5.196   2.997   2.469
 3038TIP3    H1 9047   5.223   2.971   2.560
 3038TIP3    H2 9048   5.269   2.954   2.419
 3039TIP3   OH2 9049   5.391   2.869   2.327
 3039TIP3    H1 9050   5.407   2.785   2.376
 3039TIP3    H2 9051   5.481   2.906   2.323
 3040TIP3   OH2 9052   5.658   2.965   2.333
 3040TIP3    H1 9053   5.688   2.873   2.319
 3040TIP3    H2 9054   5.704   2.985   2.416
 3041TIP3   OH2 9055   6.228   1.618   2.412
 3041TIP3    H1 9056   6.189   1.547   2.467
 3041TIP3    H2 9057   6.306   1.573   2.372
 3042TIP3   OH2 9058   6.754   1.497   2.320
 3042TIP3    H1 9059   6.791   1.551   2.246
 3042TIP3    H2 9060   6.660   1.521   2.317
 3043TIP3   OH2 9061   6.851   1.602   2.086
 3043TIP3    H1 9062   6.925   1.550   2.048
 3043TIP3    H2 9063   6.884   1.693   2.071
 3044TIP3   OH2 9064   5.481   1.328   2.433
 3044TIP3    H1 9065   5.389   1.294   2.435
 3044TIP3    H2 9066   5.531   1.243   2.430
 3045TIP3   OH2 9067   5.267   1.198   2.084
 3045TIP3    H1 9068   5.299   1.255   2.011
 3045TIP3    H2 9069   5.239   1.263   2.150
 3046TIP3   OH2 9070   5.925   1.361   2.317
 3046TIP3    H1 9071   5.981   1.408   2.253
 3046TIP3    H2 9072   5.955   1.397   2.401
 3047TIP3   OH2 9073   6.468   1.508   2.301
 3047TIP3    H1 9074   6.471   1.469   2.212
 3047TIP3    H2 9075   6.456   1.427   2.357
 3048TIP3   OH2 9076   6.503   1.431   1.861
 3048TIP3    H1 9077   6.416   1.474   1.872
 3048TIP3    H2 9078   6.487   1.346   1.908
 3049TIP3   OH2 9079   4.985   2.766   1.861
 3049TIP3    H1 9080   4.898   2.736   1.830
 3049TIP3    H2 9081   4.977   2.862   1.845
 3050TIP3   OH2 9082   5.387   1.358   1.845
 3050TIP3    H1 9083   5.435   1.295   1.788
 3050TIP3    H2 9084   5.461   1.411   1.881
 3051TIP3   OH2 9085   5.896   1.533   1.945
 3051TIP3    H1 9086   5.959   1.488   2.004
 3051TIP3    H2 9087   5.916   1.626   1.969
 3052TIP3   OH2 9088   5.767   2.955   1.459
 3052TIP3    H1 9089   5.847   2.968   1.404
 3052TIP3    H2 9090   5.711   2.903   1.399
 3053TIP3   OH2 9091   6.479   3.077   1.536
 3053TIP3    H1 9092   6.469   2.980   1.524
 3053TIP3    H2 9093   6.431   3.110   1.458
 3054TIP3   OH2 9094   5.689   1.605   3.322
 3054TIP3    H1 9095   5.655   1.537   3.382
 3054TIP3    H2 9096   5.783   1.608   3.349
 3055TIP3   OH2 9097   5.937   1.605   3.442
 3055TIP3    H1 9098   6.024   1.585   3.403
 3055TIP3    H2 9099   5.928   1.534   3.509
 3056TIP3   OH2 9100   5.037   2.776   1.511
 3056TIP3    H1 9101   5.033   2.817   1.598
 3056TIP3    H2 9102   5.136   2.766   1.503
 3057TIP3   OH2 9103   6.760   1.669   3.231
 3057TIP3    H1 9104   6.778   1.637   3.322
 3057TIP3    H2 9105   6.848   1.660   3.190
 3058TIP3   OH2 9106   6.703   3.220   2.722
 3058TIP3    H1 9107   6.622   3.188   2.676
 3058TIP3    H2 9108   6.682   3.316   2.729
 3059TIP3   OH2 9109   7.266   2.485   2.234
 3059TIP3    H1 9110   7.290   2.416   2.299
 3059TIP3    H2 9111   7.340   2.546   2.244
 3060TIP3   OH2 9112   7.235   2.899   1.957
 3060TIP3    H1 9113   7.226   2.801   1.959
 3060TIP3    H2 9114   7.330   2.908   1.971
 3061TIP3   OH2 9115   6.944   2.103   1.744
 3061TIP3    H1 9116   6.892   2.184   1.760
 3061TIP3    H2 9117   6.875   2.046   1.706
 3062TIP3   OH2 9118   7.005   2.388   1.920
 3062TIP3    H1 9119   7.052   2.310   1.958
 3062TIP3    H2 9120   7.061   2.411   1.845
 3063TIP3   OH2 9121   7.865   3.304   1.551
 3063TIP3    H1 9122   7.962   3.288   1.551
 3063TIP3    H2 9123   7.854   3.333   1.644
 3064TIP3   OH2 9124   7.768   2.813   1.922
 3064TIP3    H1 9125   7.787   2.773   1.836
 3064TIP3    H2 9126   7.850   2.866   1.940
 3065TIP3   OH2 9127   7.492   1.981   1.928
 3065TIP3    H1 9128   7.503   2.047   1.858
 3065TIP3    H2 9129   7.457   1.905   1.877
 3066TIP3   OH2 9130   7.151   2.182   2.023
 3066TIP3    H1 9131   7.232   2.160   2.074
 3066TIP3    H2 9132   7.166   2.126   1.944
 3067TIP3   OH2 9133   7.578   2.383   1.812
 3067TIP3    H1 9134   7.669   2.349   1.827
 3067TIP3    H2 9135   7.534   2.299   1.784
 3068TIP3   OH2 9136   7.516   1.969   2.360
 3068TIP3    H1 9137   7.458   2.001   2.289
 3068TIP3    H2 9138   7.461   1.988   2.438
 3069TIP3   OH2 9139   7.623   2.736   2.154
 3069TIP3    H1 9140   7.557   2.799   2.191
 3069TIP3    H2 9141   7.665   2.792   2.086
 3070TIP3   OH2 9142   7.378   2.081   2.147
 3070TIP3    H1 9143   7.443   2.152   2.166
 3070TIP3    H2 9144   7.422   2.038   2.070
 3071TIP3   OH2 9145   7.447   2.931   2.239
 3071TIP3    H1 9146   7.423   3.020   2.208
 3071TIP3    H2 9147   7.369   2.913   2.297
 3072TIP3   OH2 9148   6.843   2.623   1.480
 3072TIP3    H1 9149   6.799   2.649   1.396
 3072TIP3    H2 9150   6.873   2.710   1.515
 3073TIP3   OH2 9151   7.372   2.527   1.705
 3073TIP3    H1 9152   7.331   2.468   1.638
 3073TIP3    H2 9153   7.447   2.473   1.737
 3074TIP3   OH2 9154   7.512   2.947   1.849
 3074TIP3    H1 9155   7.482   2.891   1.776
 3074TIP3    H2 9156   7.593   2.904   1.878
 3075TIP3   OH2 9157   7.518   2.496   2.062
 3075TIP3    H1 9158   7.545   2.474   1.970
 3075TIP3    H2 9159   7.557   2.584   2.078
 3076TIP3   OH2 9160   7.650   3.047   2.394
 3076TIP3    H1 9161   7.591   3.113   2.439
 3076TIP3    H2 9162   7.583   2.997   2.344
 3077TIP3   OH2 9163   7.401   2.618   2.483
 3077TIP3    H1 9164   7.405   2.703   2.533
 3077TIP3    H2 9165   7.309   2.592   2.502
 3078TIP3   OH2 9166   7.659   3.144   1.408
 3078TIP3    H1 9167   7.744   3.179   1.453
 3078TIP3    H2 9168   7.689   3.084   1.347
 3079TIP3   OH2 9169   7.446   3.218   2.475
 3079TIP3    H1 9170   7.409   3.218   2.385
 3079TIP3    H2 9171   7.367   3.199   2.530
 3080TIP3   OH2 9172   7.246   2.367   1.511
 3080TIP3    H1 9173   7.177   2.409   1.456
 3080TIP3    H2 9174   7.204   2.282   1.532
 3081TIP3   OH2 9175   7.027   2.752   2.421
 3081TIP3    H1 9176   6.959   2.729   2.354
 3081TIP3    H2 9177   7.063   2.664   2.447
 3082TIP3   OH2 9178   6.879   2.946   2.050
 3082TIP3    H1 9179   6.976   2.942   2.049
 3082TIP3    H2 9180   6.864   3.023   2.107
 3083TIP3   OH2 9181   7.835   3.172   2.233
 3083TIP3    H1 9182   7.847   3.263   2.267
 3083TIP3    H2 9183   7.769   3.136   2.297
 3084TIP3   OH2 9184   7.551   3.312   1.204
 3084TIP3    H1 9185   7.547   3.288   1.108
 3084TIP3    H2 9186   7.565   3.408   1.200
 3085TIP3   OH2 9187   7.063   3.151   1.571
 3085TIP3    H1 9188   7.099   3.147   1.663
 3085TIP3    H2 9189   7.001   3.076   1.573
 3086TIP3   OH2 9190   7.872   3.270   1.136
 3086TIP3    H1 9191   7.777   3.254   1.145
 3086TIP3    H2 9192   7.909   3.182   1.153
 3087TIP3   OH2 9193   7.233   2.933   2.407
 3087TIP3    H1 9194   7.281   2.920   2.491
 3087TIP3    H2 9195   7.158   2.870   2.416
 3088TIP3   OH2 9196   7.617   1.747   2.215
 3088TIP3    H1 9197   7.529   1.725   2.180
 3088TIP3    H2 9198   7.601   1.836   2.250
 3089TIP3   OH2 9199   7.557   2.277   2.215
 3089TIP3    H1 9200   7.504   2.295   2.296
 3089TIP3    H2 9201   7.538   2.358   2.162
 3090TIP3   OH2 9202   7.446   2.160   1.722
 3090TIP3    H1 9203   7.356   2.128   1.746
 3090TIP3    H2 9204   7.458   2.117   1.635
 3091TIP3   OH2 9205   7.370   2.300   2.422
 3091TIP3    H1 9206   7.418   2.355   2.486
 3091TIP3    H2 9207   7.360   2.216   2.472
 3092TIP3   OH2 9208   7.403   1.729   1.130
 3092TIP3    H1 9209   7.408   1.761   1.221
 3092TIP3    H2 9210   7.357   1.800   1.084
 3093TIP3   OH2 9211   6.975   1.825   1.999
 3093TIP3    H1 9212   7.048   1.857   2.056
 3093TIP3    H2 9213   7.020   1.787   1.923
 3094TIP3   OH2 9214   6.944   1.805   1.522
 3094TIP3    H1 9215   6.987   1.847   1.445
 3094TIP3    H2 9216   6.881   1.876   1.546
 3095TIP3   OH2 9217   7.208   2.041   1.791
 3095TIP3    H1 9218   7.112   2.045   1.767
 3095TIP3    H2 9219   7.231   1.947   1.777
 3096TIP3   OH2 9220   7.486   2.038   1.477
 3096TIP3    H1 9221   7.569   2.051   1.430
 3096TIP3    H2 9222   7.421   2.054   1.404
 3097TIP3   OH2 9223   7.323   2.062   1.263
 3097TIP3    H1 9224   7.246   2.026   1.216
 3097TIP3    H2 9225   7.374   2.100   1.188
 3098TIP3   OH2 9226   7.394   2.858   2.631
 3098TIP3    H1 9227   7.473   2.887   2.680
 3098TIP3    H2 9228   7.328   2.856   2.703
 3099TIP3   OH2 9229   7.370   1.797   1.761
 3099TIP3    H1 9230   7.336   1.724   1.818
 3099TIP3    H2 9231   7.421   1.747   1.697
 3100TIP3   OH2 9232   7.825   2.203   2.218
 3100TIP3    H1 9233   7.732   2.231   2.200
 3100TIP3    H2 9234   7.872   2.287   2.225
 3101TIP3   OH2 9235   7.537   2.627   1.269
 3101TIP3    H1 9236   7.491   2.540   1.262
 3101TIP3    H2 9237   7.546   2.637   1.366
 3102TIP3   OH2 9238   7.935   2.890   2.295
 3102TIP3    H1 9239   7.968   2.877   2.384
 3102TIP3    H2 9240   7.912   2.984   2.296
 3103TIP3   OH2 9241   7.267   2.625   1.947
 3103TIP3    H1 9242   7.300   2.589   1.863
 3103TIP3    H2 9243   7.295   2.558   2.011
 3104TIP3   OH2 9244   7.673   2.751   1.068
 3104TIP3    H1 9245   7.659   2.840   1.107
 3104TIP3    H2 9246   7.642   2.694   1.141
 3105TIP3   OH2 9247   7.143   2.540   2.559
 3105TIP3    H1 9248   7.163   2.525   2.654
 3105TIP3    H2 9249   7.075   2.473   2.543
 3106TIP3   OH2 9250   7.870   2.654   2.579
 3106TIP3    H1 9251   7.818   2.603   2.514
 3106TIP3    H2 9252   7.958   2.616   2.567
 3107TIP3   OH2 9253   7.358   2.915   1.570
 3107TIP3    H1 9254   7.354   3.000   1.523
 3107TIP3    H2 9255   7.265   2.898   1.589
 3108TIP3   OH2 9256   6.924   2.230   1.273
 3108TIP3    H1 9257   6.971   2.313   1.296
 3108TIP3    H2 9258   6.848   2.234   1.335
 3109TIP3   OH2 9259   7.519   2.693   1.537
 3109TIP3    H1 9260   7.467   2.777   1.541
 3109TIP3    H2 9261   7.468   2.637   1.598
 3110TIP3   OH2 9262   7.631   3.263   2.039
 3110TIP3    H1 9263   7.668   3.341   1.994
 3110TIP3    H2 9264   7.707   3.234   2.093
 3111TIP3   OH2 9265   7.301   3.172   1.430
 3111TIP3    H1 9266   7.214   3.150   1.470
 3111TIP3    H2 9267   7.298   3.269   1.442
 3112TIP3   OH2 9268   7.351   2.048   2.569
 3112TIP3    H1 9269   7.254   2.051   2.581
 3112TIP3    H2 9270   7.377   1.987   2.640
 3113TIP3   OH2 9271   7.073   3.128   2.198
 3113TIP3    H1 9272   7.124   3.056   2.239
 3113TIP3    H2 9273   7.091   3.201   2.258
 3114TIP3   OH2 9274   7.356   2.773   0.883
 3114TIP3    H1 9275   7.358   2.682   0.850
 3114TIP3    H2 9276   7.337   2.759   0.978
 3115TIP3   OH2 9277   7.308   2.775   1.156
 3115TIP3    H1 9278   7.386   2.739   1.202
 3115TIP3    H2 9279   7.318   2.872   1.167
 3116TIP3   OH2 9280   7.041   2.472   1.358
 3116TIP3    H1 9281   6.974   2.516   1.414
 3116TIP3    H2 9282   7.054   2.541   1.290
 3117TIP3   OH2 9283   7.590   3.005   1.137
 3117TIP3    H1 9284   7.493   3.019   1.147
 3117TIP3    H2 9285   7.602   3.040   1.047
 3118TIP3   OH2 9286   7.319   3.053   1.166
 3118TIP3    H1 9287   7.287   3.115   1.096
 3118TIP3    H2 9288   7.284   3.096   1.246
 3119TIP3   OH2 9289   7.425   1.771   1.410
 3119TIP3    H1 9290   7.406   1.855   1.456
 3119TIP3    H2 9291   7.509   1.793   1.367
 3120TIP3   OH2 9292   7.034   2.678   1.162
 3120TIP3    H1 9293   7.103   2.746   1.171
 3120TIP3    H2 9294   7.077   2.622   1.093
 3121TIP3   OH2 9295   6.980   1.963   1.304
 3121TIP3    H1 9296   6.972   2.060   1.294
 3121TIP3    H2 9297   6.905   1.931   1.253
 3122TIP3   OH2 9298   7.352   1.680   2.169
 3122TIP3    H1 9299   7.331   1.644   2.080
 3122TIP3    H2 9300   7.347   1.600   2.225
 3123TIP3   OH2 9301   6.905   2.900   1.547
 3123TIP3    H1 9302   6.842   2.927   1.616
 3123TIP3    H2 9303   6.866   2.941   1.467
 3124TIP3   OH2 9304   7.063   3.441   2.620
 3124TIP3    H1 9305   7.148   3.442   2.669
 3124TIP3    H2 9306   7.042   3.346   2.621
 3125TIP3   OH2 9307   7.540   3.403   2.665
 3125TIP3    H1 9308   7.634   3.385   2.677
 3125TIP3    H2 9309   7.518   3.342   2.591
 3126TIP3   OH2 9310   7.520   2.978   0.809
 3126TIP3    H1 9311   7.456   2.907   0.834
 3126TIP3    H2 9312   7.601   2.926   0.798
 3127TIP3   OH2 9313   7.192   2.845   2.820
 3127TIP3    H1 9314   7.208   2.749   2.828
 3127TIP3    H2 9315   7.104   2.847   2.778
 3128TIP3   OH2 9316   7.173   2.495   1.011
 3128TIP3    H1 9317   7.226   2.462   1.086
 3128TIP3    H2 9318   7.242   2.497   0.941
 3129TIP3   OH2 9319   7.814   2.931   2.591
 3129TIP3    H1 9320   7.759   2.947   2.511
 3129TIP3    H2 9321   7.829   2.834   2.588
 3130TIP3   OH2 9322   7.664   2.680   0.810
 3130TIP3    H1 9323   7.680   2.714   0.902
 3130TIP3    H2 9324   7.596   2.615   0.829
 3131TIP3   OH2 9325   7.313   2.580   2.803
 3131TIP3    H1 9326   7.385   2.518   2.785
 3131TIP3    H2 9327   7.337   2.612   2.892
 3132TIP3   OH2 9328   7.379   2.396   1.236
 3132TIP3    H1 9329   7.349   2.355   1.318
 3132TIP3    H2 9330   7.418   2.321   1.186
 3133TIP3   OH2 9331   7.611   2.446   2.482
 3133TIP3    H1 9332   7.543   2.517   2.486
 3133TIP3    H2 9333   7.671   2.483   2.414
 3134TIP3   OH2 9334   7.481   2.187   1.073
 3134TIP3    H1 9335   7.448   2.196   0.981
 3134TIP3    H2 9336   7.574   2.165   1.053
 3135TIP3   OH2 9337   7.780   2.256   2.586
 3135TIP3    H1 9338   7.776   2.170   2.541
 3135TIP3    H2 9339   7.714   2.309   2.536
 3136TIP3   OH2 9340   7.782   2.025   2.415
 3136TIP3    H1 9341   7.790   2.077   2.332
 3136TIP3    H2 9342   7.692   1.988   2.404
 3137TIP3   OH2 9343   7.774   2.568   2.310
 3137TIP3    H1 9344   7.843   2.555   2.243
 3137TIP3    H2 9345   7.718   2.635   2.265
 3138TIP3   OH2 9346   7.651   2.363   2.819
 3138TIP3    H1 9347   7.582   2.296   2.834
 3138TIP3    H2 9348   7.685   2.339   2.731
 3139TIP3   OH2 9349   7.487   2.144   2.874
 3139TIP3    H1 9350   7.492   2.054   2.839
 3139TIP3    H2 9351   7.520   2.132   2.965
 3140TIP3   OH2 9352   7.277   3.255   0.985
 3140TIP3    H1 9353   7.373   3.260   0.969
 3140TIP3    H2 9354   7.246   3.303   0.906
 3141TIP3   OH2 9355   6.764   2.637   1.198
 3141TIP3    H1 9356   6.859   2.658   1.184
 3141TIP3    H2 9357   6.758   2.548   1.157
 3142TIP3   OH2 9358   6.683   3.247   1.613
 3142TIP3    H1 9359   6.614   3.187   1.577
 3142TIP3    H2 9360   6.725   3.188   1.679
 3143TIP3   OH2 9361   6.819   3.096   1.799
 3143TIP3    H1 9362   6.803   3.026   1.865
 3143TIP3    H2 9363   6.866   3.161   1.855
 3144TIP3   OH2 9364   7.001   2.510   2.170
 3144TIP3    H1 9365   6.999   2.475   2.078
 3144TIP3    H2 9366   7.098   2.509   2.187
 3145TIP3   OH2 9367   7.218   2.193   2.846
 3145TIP3    H1 9368   7.316   2.188   2.848
 3145TIP3    H2 9369   7.195   2.108   2.887
 3146TIP3   OH2 9370   7.176   1.890   2.178
 3146TIP3    H1 9371   7.236   1.812   2.184
 3146TIP3    H2 9372   7.241   1.962   2.175
 3147TIP3   OH2 9373   6.981   2.160   2.247
 3147TIP3    H1 9374   7.032   2.153   2.164
 3147TIP3    H2 9375   7.016   2.242   2.284
 3148TIP3   OH2 9376   6.965   1.659   1.748
 3148TIP3    H1 9377   6.873   1.658   1.777
 3148TIP3    H2 9378   6.962   1.719   1.671
 3149TIP3   OH2 9379   7.185   1.744   2.565
 3149TIP3    H1 9380   7.134   1.740   2.648
 3149TIP3    H2 9381   7.119   1.783   2.504
 3150TIP3   OH2 9382   7.227   3.169   2.640
 3150TIP3    H1 9383   7.133   3.145   2.626
 3150TIP3    H2 9384   7.238   3.153   2.734
 3151TIP3   OH2 9385   7.406   3.200   2.187
 3151TIP3    H1 9386   7.356   3.276   2.150
 3151TIP3    H2 9387   7.491   3.216   2.142
 3152TIP3   OH2 9388   7.847   3.441   2.322
 3152TIP3    H1 9389   7.888   3.442   2.411
 3152TIP3    H2 9390   7.904   3.504   2.274
 3153TIP3   OH2 9391   7.998   3.621   2.160
 3153TIP3    H1 9392   8.046   3.601   2.075
 3153TIP3    H2 9393   8.044   3.705   2.184
 3154TIP3   OH2 9394   7.082   3.460   2.214
 3154TIP3    H1 9395   6.992   3.492   2.191
 3154TIP3    H2 9396   7.095   3.502   2.299
 3155TIP3   OH2 9397   7.315   3.435   2.068
 3155TIP3    H1 9398   7.230   3.448   2.116
 3155TIP3    H2 9399   7.294   3.472   1.981
 3156TIP3   OH2 9400   7.718   3.474   1.873
 3156TIP3    H1 9401   7.646   3.494   1.811
 3156TIP3    H2 9402   7.736   3.561   1.912
 3157TIP3   OH2 9403   7.966   3.371   1.844
 3157TIP3    H1 9404   7.875   3.406   1.862
 3157TIP3    H2 9405   8.020   3.447   1.873
 3158TIP3   OH2 9406   6.995   3.255   1.956
 3158TIP3    H1 9407   7.019   3.227   2.047
 3158TIP3    H2 9408   7.067   3.210   1.906
 3159TIP3   OH2 9409   7.189   3.125   1.812
 3159TIP3    H1 9410   7.200   3.041   1.863
 3159TIP3    H2 9411   7.280   3.161   1.815
 3160TIP3   OH2 9412   7.457   3.219   1.816
 3160TIP3    H1 9413   7.483   3.124   1.813
 3160TIP3    H2 9414   7.501   3.244   1.899
 3161TIP3   OH2 9415   7.274   1.592   1.914
 3161TIP3    H1 9416   7.184   1.553   1.921
 3161TIP3    H2 9417   7.327   1.508   1.913
 3162TIP3   OH2 9418   7.064   1.454   1.575
 3162TIP3    H1 9419   7.085   1.513   1.500
 3162TIP3    H2 9420   7.033   1.518   1.642
 3163TIP3   OH2 9421   6.782   3.029   1.346
 3163TIP3    H1 9422   6.696   2.994   1.313
 3163TIP3    H2 9423   6.769   3.123   1.325
 3164TIP3   OH2 9424   7.179   1.614   1.338
 3164TIP3    H1 9425   7.232   1.545   1.297
 3164TIP3    H2 9426   7.247   1.674   1.372
 3165TIP3   OH2 9427   7.547   3.221   0.943
 3165TIP3    H1 9428   7.638   3.230   0.907
 3165TIP3    H2 9429   7.517   3.148   0.885
 3166TIP3   OH2 9430   7.479   1.866   2.805
 3166TIP3    H1 9431   7.444   1.797   2.864
 3166TIP3    H2 9432   7.572   1.869   2.834
 3167TIP3   OH2 9433   7.718   1.862   2.937
 3167TIP3    H1 9434   7.797   1.824   2.892
 3167TIP3    H2 9435   7.700   1.792   3.004
 3168TIP3   OH2 9436   6.857   3.049   0.985
 3168TIP3    H1 9437   6.857   3.074   1.079
 3168TIP3    H2 9438   6.945   3.007   0.974
 3169TIP3   OH2 9439   0.423   3.381   3.178
 3169TIP3    H1 9440   0.393   3.473   3.158
 3169TIP3    H2 9441   0.344   3.331   3.149
 3170TIP3   OH2 9442   0.422   3.379   3.562
 3170TIP3    H1 9443   0.454   3.354   3.651
 3170TIP3    H2 9444   0.376   3.299   3.533
 3171TIP3   OH2 9445  -0.246   3.258   3.888
 3171TIP3    H1 9446  -0.276   3.206   3.964
 3171TIP3    H2 9447  -0.221   3.341   3.929
 3172TIP3   OH2 9448   0.665   3.684   3.244
 3172TIP3    H1 9449   0.649   3.615   3.310
 3172TIP3    H2 9450   0.693   3.759   3.299
 3173TIP3   OH2 9451  -0.302   3.667   3.589
 3173TIP3    H1 9452  -0.321   3.573   3.610
 3173TIP3    H2 9453  -0.221   3.680   3.640
 3174TIP3   OH2 9454  -0.520   3.168   3.558
 3174TIP3    H1 9455  -0.495   3.130   3.644
 3174TIP3    H2 9456  -0.470   3.250   3.558
 3175TIP3   OH2 9457   0.313   4.144   3.262
 3175TIP3    H1 9458   0.357   4.074   3.209
 3175TIP3    H2 9459   0.312   4.103   3.349
 3176TIP3   OH2 9460   0.219   3.606   3.609
 3176TIP3    H1 9461   0.257   3.529   3.564
 3176TIP3    H2 9462   0.303   3.651   3.634
 3177TIP3   OH2 9463   1.233   2.926   3.608
 3177TIP3    H1 9464   1.261   3.009   3.653
 3177TIP3    H2 9465   1.253   2.947   3.515
 3178TIP3   OH2 9466   0.632   3.107   3.641
 3178TIP3    H1 9467   0.673   3.021   3.661
 3178TIP3    H2 9468   0.600   3.092   3.550
 3179TIP3   OH2 9469  -0.026   2.764   3.604
 3179TIP3    H1 9470  -0.049   2.839   3.545
 3179TIP3    H2 9471  -0.076   2.692   3.559
 3180TIP3   OH2 9472   0.664   2.857   3.229
 3180TIP3    H1 9473   0.737   2.843   3.294
 3180TIP3    H2 9474   0.715   2.894   3.154
 3181TIP3   OH2 9475  -0.393   2.967   3.722
 3181TIP3    H1 9476  -0.309   2.958   3.771
 3181TIP3    H2 9477  -0.369   2.927   3.636
 3182TIP3   OH2 9478   0.049   3.169   3.488
 3182TIP3    H1 9479   0.139   3.141   3.515
 3182TIP3    H2 9480   0.007   3.082   3.468
 3183TIP3   OH2 9481   1.304   3.134   3.779
 3183TIP3    H1 9482   1.221   3.182   3.762
 3183TIP3    H2 9483   1.327   3.168   3.867
 3184TIP3   OH2 9484  -0.035   2.747   4.045
 3184TIP3    H1 9485  -0.089   2.792   3.977
 3184TIP3    H2 9486  -0.087   2.768   4.125
 3185TIP3   OH2 9487   0.313   3.603   3.048
 3185TIP3    H1 9488   0.269   3.583   2.964
 3185TIP3    H2 9489   0.267   3.685   3.074
 3186TIP3   OH2 9490   0.069   3.531   3.840
 3186TIP3    H1 9491   0.008   3.595   3.882
 3186TIP3    H2 9492   0.110   3.583   3.769
 3187TIP3   OH2 9493   0.873   2.861   3.404
 3187TIP3    H1 9494   0.853   2.821   3.490
 3187TIP3    H2 9495   0.925   2.939   3.430
 3188TIP3   OH2 9496  -0.153   2.864   3.825
 3188TIP3    H1 9497  -0.097   2.941   3.850
 3188TIP3    H2 9498  -0.101   2.828   3.750
 3189TIP3   OH2 9499  -0.115   3.711   3.955
 3189TIP3    H1 9500  -0.169   3.769   3.898
 3189TIP3    H2 9501  -0.186   3.672   4.009
 3190TIP3   OH2 9502   0.733   3.926   3.409
 3190TIP3    H1 9503   0.644   3.917   3.449
 3190TIP3    H2 9504   0.725   4.013   3.365
 3191TIP3   OH2 9505   1.026   2.822   3.772
 3191TIP3    H1 9506   0.939   2.854   3.744
 3191TIP3    H2 9507   1.085   2.856   3.702
 3192TIP3   OH2 9508   0.321   2.469   3.756
 3192TIP3    H1 9509   0.305   2.374   3.773
 3192TIP3    H2 9510   0.244   2.508   3.802
 3193TIP3   OH2 9511   0.433   3.973   3.082
 3193TIP3    H1 9512   0.484   3.891   3.063
 3193TIP3    H2 9513   0.494   4.039   3.041
 3194TIP3   OH2 9514   0.578   3.758   2.992
 3194TIP3    H1 9515   0.536   3.678   2.957
 3194TIP3    H2 9516   0.615   3.724   3.077
 3195TIP3   OH2 9517   0.959   3.839   3.753
 3195TIP3    H1 9518   0.948   3.761   3.695
 3195TIP3    H2 9519   0.942   3.913   3.692
 3196TIP3   OH2 9520   0.251   3.231   3.012
 3196TIP3    H1 9521   0.170   3.283   2.991
 3196TIP3    H2 9522   0.297   3.231   2.926
 3197TIP3   OH2 9523   0.212   3.025   2.732
 3197TIP3    H1 9524   0.283   3.071   2.780
 3197TIP3    H2 9525   0.264   2.956   2.687
 3198TIP3   OH2 9526   1.154   3.475   3.598
 3198TIP3    H1 9527   1.072   3.527   3.604
 3198TIP3    H2 9528   1.185   3.500   3.508
 3199TIP3   OH2 9529   0.599   3.315   2.981
 3199TIP3    H1 9530   0.544   3.340   3.059
 3199TIP3    H2 9531   0.683   3.290   3.026
 3200TIP3   OH2 9532   0.834   3.353   3.896
 3200TIP3    H1 9533   0.831   3.436   3.947
 3200TIP3    H2 9534   0.747   3.358   3.851
 3201TIP3   OH2 9535  -0.166   3.308   3.396
 3201TIP3    H1 9536  -0.207   3.248   3.330
 3201TIP3    H2 9537  -0.087   3.257   3.422
 3202TIP3   OH2 9538  -0.019   3.744   3.538
 3202TIP3    H1 9539  -0.058   3.685   3.473
 3202TIP3    H2 9540   0.066   3.700   3.558
 3203TIP3   OH2 9541   0.022   3.274   3.748
 3203TIP3    H1 9542   0.020   3.272   3.651
 3203TIP3    H2 9543   0.026   3.369   3.770
 3204TIP3   OH2 9544   0.492   3.921   3.530
 3204TIP3    H1 9545   0.481   4.001   3.585
 3204TIP3    H2 9546   0.478   3.848   3.594
 3205TIP3   OH2 9547   0.101   3.843   4.075
 3205TIP3    H1 9548   0.047   3.903   4.129
 3205TIP3    H2 9549   0.031   3.788   4.034
 3206TIP3   OH2 9550   0.440   3.173   2.810
 3206TIP3    H1 9551   0.499   3.233   2.862
 3206TIP3    H2 9552   0.466   3.197   2.718
 3207TIP3   OH2 9553  -0.153   3.396   4.184
 3207TIP3    H1 9554  -0.144   3.480   4.235
 3207TIP3    H2 9555  -0.248   3.397   4.166
 3208TIP3   OH2 9556   0.184   3.851   3.083
 3208TIP3    H1 9557   0.265   3.904   3.097
 3208TIP3    H2 9558   0.123   3.914   3.043
 3209TIP3   OH2 9559  -0.113   4.011   4.162
 3209TIP3    H1 9560  -0.136   4.013   4.067
 3209TIP3    H2 9561  -0.191   3.969   4.202
 3210TIP3   OH2 9562   0.954   2.413   2.859
 3210TIP3    H1 9563   0.872   2.434   2.908
 3210TIP3    H2 9564   0.968   2.496   2.809
 3211TIP3   OH2 9565  -0.290   3.146   3.198
 3211TIP3    H1 9566  -0.357   3.192   3.143
 3211TIP3    H2 9567  -0.339   3.068   3.227
 3212TIP3   OH2 9568   0.754   3.780   2.407
 3212TIP3    H1 9569   0.761   3.877   2.392
 3212TIP3    H2 9570   0.846   3.751   2.393
 3213TIP3   OH2 9571   1.197   4.184   3.800
 3213TIP3    H1 9572   1.196   4.088   3.815
 3213TIP3    H2 9573   1.113   4.209   3.846
 3214TIP3   OH2 9574   0.302   3.969   3.932
 3214TIP3    H1 9575   0.301   4.062   3.964
 3214TIP3    H2 9576   0.231   3.930   3.988
 3215TIP3   OH2 9577   0.063   4.097   2.887
 3215TIP3    H1 9578   0.018   4.080   2.802
 3215TIP3    H2 9579   0.033   4.187   2.909
 3216TIP3   OH2 9580   0.266   4.000   2.525
 3216TIP3    H1 9581   0.325   3.930   2.490
 3216TIP3    H2 9582   0.301   4.010   2.617
 3217TIP3   OH2 9583   0.315   4.048   2.796
 3217TIP3    H1 9584   0.227   4.057   2.838
 3217TIP3    H2 9585   0.366   4.008   2.868
 3218TIP3   OH2 9586   1.088   3.314   4.075
 3218TIP3    H1 9587   1.005   3.326   4.027
 3218TIP3    H2 9588   1.102   3.218   4.066
 3219TIP3   OH2 9589   0.083   2.544   3.887
 3219TIP3    H1 9590  -0.006   2.513   3.859
 3219TIP3    H2 9591   0.058   2.627   3.933
 3220TIP3   OH2 9592   0.616   2.659   4.079
 3220TIP3    H1 9593   0.684   2.634   4.145
 3220TIP3    H2 9594   0.532   2.641   4.126
 3221TIP3   OH2 9595   0.855   3.090   3.997
 3221TIP3    H1 9596   0.806   3.087   4.082
 3221TIP3    H2 9597   0.830   3.178   3.962
 3222TIP3   OH2 9598   0.516   3.220   2.555
 3222TIP3    H1 9599   0.481   3.198   2.466
 3222TIP3    H2 9600   0.599   3.266   2.531
 3223TIP3   OH2 9601   0.238   2.640   2.866
 3223TIP3    H1 9602   0.205   2.615   2.954
 3223TIP3    H2 9603   0.194   2.575   2.809
 3224TIP3   OH2 9604   0.017   3.058   3.908
 3224TIP3    H1 9605  -0.041   3.083   3.984
 3224TIP3    H2 9606   0.010   3.140   3.852
 3225TIP3   OH2 9607  -0.102   2.947   3.421
 3225TIP3    H1 9608  -0.197   2.927   3.435
 3225TIP3    H2 9609  -0.088   2.907   3.332
 3226TIP3   OH2 9610   0.389   3.033   3.146
 3226TIP3    H1 9611   0.336   3.104   3.103
 3226TIP3    H2 9612   0.443   3.002   3.071
 3227TIP3   OH2 9613   0.563   3.309   4.228
 3227TIP3    H1 9614   0.540   3.238   4.291
 3227TIP3    H2 9615   0.655   3.328   4.253
 3228TIP3   OH2 9616   0.546   3.060   3.383
 3228TIP3    H1 9617   0.484   3.091   3.314
 3228TIP3    H2 9618   0.579   2.979   3.339
 3229TIP3   OH2 9619  -0.157   3.080   4.121
 3229TIP3    H1 9620  -0.155   3.157   4.180
 3229TIP3    H2 9621  -0.170   3.006   4.182
 3230TIP3   OH2 9622  -0.566   2.614   3.719
 3230TIP3    H1 9623  -0.481   2.642   3.758
 3230TIP3    H2 9624  -0.543   2.596   3.627
 3231TIP3   OH2 9625   0.557   3.308   3.805
 3231TIP3    H1 9626   0.590   3.235   3.747
 3231TIP3    H2 9627   0.526   3.255   3.882
 3232TIP3   OH2 9628   0.229   2.766   3.478
 3232TIP3    H1 9629   0.146   2.765   3.529
 3232TIP3    H2 9630   0.296   2.770   3.548
 3233TIP3   OH2 9631  -0.340   2.819   3.486
 3233TIP3    H1 9632  -0.431   2.806   3.455
 3233TIP3    H2 9633  -0.297   2.734   3.465
 3234TIP3   OH2 9634  -0.064   2.823   3.183
 3234TIP3    H1 9635   0.030   2.837   3.162
 3234TIP3    H2 9636  -0.111   2.852   3.101
 3235TIP3   OH2 9637   0.718   2.843   3.676
 3235TIP3    H1 9638   0.688   2.856   3.769
 3235TIP3    H2 9639   0.648   2.784   3.643
 3236TIP3   OH2 9640  -0.219   2.872   2.968
 3236TIP3    H1 9641  -0.303   2.826   2.951
 3236TIP3    H2 9642  -0.185   2.893   2.879
 3237TIP3   OH2 9643   0.890   4.533   3.900
 3237TIP3    H1 9644   0.886   4.559   3.806
 3237TIP3    H2 9645   0.966   4.584   3.932
 3238TIP3   OH2 9646  -0.157   3.629   4.345
 3238TIP3    H1 9647  -0.079   3.664   4.392
 3238TIP3    H2 9648  -0.227   3.683   4.385
 3239TIP3   OH2 9649   0.308   3.098   3.575
 3239TIP3    H1 9650   0.383   3.058   3.528
 3239TIP3    H2 9651   0.314   3.058   3.664
 3240TIP3   OH2 9652  -0.177   2.589   3.448
 3240TIP3    H1 9653  -0.194   2.504   3.492
 3240TIP3    H2 9654  -0.140   2.561   3.362
 3241TIP3   OH2 9655   0.284   2.995   3.867
 3241TIP3    H1 9656   0.194   3.031   3.880
 3241TIP3    H2 9657   0.341   3.058   3.916
 3242TIP3   OH2 9658   0.022   3.384   2.959
 3242TIP3    H1 9659  -0.051   3.319   2.949
 3242TIP3    H2 9660   0.005   3.418   3.050
 3243TIP3   OH2 9661   0.922   3.621   3.588
 3243TIP3    H1 9662   0.946   3.671   3.507
 3243TIP3    H2 9663   0.836   3.580   3.563
 3244TIP3   OH2 9664   0.494   2.705   2.817
 3244TIP3    H1 9665   0.397   2.693   2.833
 3244TIP3    H2 9666   0.508   2.797   2.847
 3245TIP3   OH2 9667   0.424   3.705   3.957
 3245TIP3    H1 9668   0.444   3.681   4.048
 3245TIP3    H2 9669   0.382   3.792   3.966
 3246TIP3   OH2 9670   0.552   2.948   2.929
 3246TIP3    H1 9671   0.648   2.956   2.944
 3246TIP3    H2 9672   0.531   3.028   2.876
 3247TIP3   OH2 9673  -0.279   3.398   3.640
 3247TIP3    H1 9674  -0.234   3.354   3.566
 3247TIP3    H2 9675  -0.268   3.335   3.715
 3248TIP3   OH2 9676   0.166   3.535   2.781
 3248TIP3    H1 9677   0.118   3.621   2.787
 3248TIP3    H2 9678   0.112   3.480   2.842
 3249TIP3   OH2 9679   0.320   3.442   4.273
 3249TIP3    H1 9680   0.258   3.385   4.225
 3249TIP3    H2 9681   0.406   3.408   4.240
 3250TIP3   OH2 9682   0.581   3.965   3.850
 3250TIP3    H1 9683   0.484   3.962   3.865
 3250TIP3    H2 9684   0.610   4.013   3.931
 3251TIP3   OH2 9685   0.991   3.036   2.761
 3251TIP3    H1 9686   0.929   2.991   2.699
 3251TIP3    H2 9687   0.987   3.125   2.720
 3252TIP3   OH2 9688   1.209   3.893   3.842
 3252TIP3    H1 9689   1.112   3.888   3.834
 3252TIP3    H2 9690   1.236   3.864   3.752
 3253TIP3   OH2 9691   0.693   3.855   2.671
 3253TIP3    H1 9692   0.666   3.785   2.732
 3253TIP3    H2 9693   0.705   3.808   2.587
 3254TIP3   OH2 9694   0.687   3.484   3.505
 3254TIP3    H1 9695   0.594   3.458   3.520
 3254TIP3    H2 9696   0.721   3.404   3.461
 3255TIP3   OH2 9697  -0.185   3.708   3.252
 3255TIP3    H1 9698  -0.191   3.791   3.202
 3255TIP3    H2 9699  -0.267   3.707   3.302
 3256TIP3   OH2 9700   7.536   1.400   1.348
 3256TIP3    H1 9701   7.595   1.474   1.370
 3256TIP3    H2 9702   7.458   1.421   1.400
 3257TIP3   OH2 9703  -0.046   3.474   3.203
 3257TIP3    H1 9704  -0.083   3.564   3.220
 3257TIP3    H2 9705  -0.082   3.425   3.279
 3258TIP3   OH2 9706   0.091   4.057   3.731
 3258TIP3    H1 9707   0.135   4.127   3.678
 3258TIP3    H2 9708   0.166   4.020   3.779
 3259TIP3   OH2 9709  -0.268   3.955   3.117
 3259TIP3    H1 9710  -0.347   3.971   3.169
 3259TIP3    H2 9711  -0.229   4.045   3.115
 3260TIP3   OH2 9712   0.472   3.690   3.689
 3260TIP3    H1 9713   0.462   3.689   3.787
 3260TIP3    H2 9714   0.552   3.636   3.678
 3261TIP3   OH2 9715   0.447   3.582   2.573
 3261TIP3    H1 9716   0.501   3.557   2.651
 3261TIP3    H2 9717   0.359   3.556   2.604
 3262TIP3   OH2 9718   0.722   4.221   3.740
 3262TIP3    H1 9719   0.643   4.163   3.735
 3262TIP3    H2 9720   0.704   4.285   3.667
 3263TIP3   OH2 9721   0.786   4.056   2.391
 3263TIP3    H1 9722   0.820   4.127   2.334
 3263TIP3    H2 9723   0.707   4.101   2.426
 3264TIP3   OH2 9724  -0.187   2.819   4.270
 3264TIP3    H1 9725  -0.279   2.826   4.298
 3264TIP3    H2 9726  -0.148   2.765   4.341
 3265TIP3   OH2 9727   0.608   3.514   2.786
 3265TIP3    H1 9728   0.598   3.449   2.858
 3265TIP3    H2 9729   0.705   3.513   2.775
 3266TIP3   OH2 9730  -0.184   3.562   2.571
 3266TIP3    H1 9731  -0.174   3.468   2.547
 3266TIP3    H2 9732  -0.206   3.555   2.666
 3267TIP3   OH2 9733  -0.237   3.571   2.843
 3267TIP3    H1 9734  -0.167   3.541   2.904
 3267TIP3    H2 9735  -0.231   3.668   2.852
 3268TIP3   OH2 9736  -0.493   3.258   3.056
 3268TIP3    H1 9737  -0.539   3.313   3.121
 3268TIP3    H2 9738  -0.478   3.323   2.984
 3269TIP3   OH2 9739   0.648   2.893   3.935
 3269TIP3    H1 9740   0.723   2.936   3.980
 3269TIP3    H2 9741   0.632   2.814   3.991
 3270TIP3   OH2 9742   0.526   2.647   3.104
 3270TIP3    H1 9743   0.510   2.673   3.012
 3270TIP3    H2 9744   0.565   2.728   3.142
 3271TIP3   OH2 9745   0.025   3.766   2.791
 3271TIP3    H1 9746  -0.061   3.793   2.829
 3271TIP3    H2 9747   0.041   3.841   2.732
 3272TIP3   OH2 9748   0.215   2.826   3.207
 3272TIP3    H1 9749   0.278   2.899   3.189
 3272TIP3    H2 9750   0.219   2.821   3.305
 3273TIP3   OH2 9751   0.482   3.147   4.012
 3273TIP3    H1 9752   0.501   3.204   4.090
 3273TIP3    H2 9753   0.536   3.068   4.031
 3274TIP3   OH2 9754   0.359   2.554   3.311
 3274TIP3    H1 9755   0.347   2.632   3.367
 3274TIP3    H2 9756   0.419   2.590   3.242
 3275TIP3   OH2 9757  -0.231   3.842   2.862
 3275TIP3    H1 9758  -0.260   3.911   2.798
 3275TIP3    H2 9759  -0.249   3.887   2.948
 3276TIP3   OH2 9760  -0.120   2.547   3.144
 3276TIP3    H1 9761  -0.130   2.643   3.138
 3276TIP3    H2 9762  -0.026   2.537   3.121
 3277TIP3   OH2 9763   1.121   3.045   3.997
 3277TIP3    H1 9764   1.023   3.044   4.002
 3277TIP3    H2 9765   1.134   3.012   3.907
 3278TIP3   OH2 9766   0.773   3.240   3.382
 3278TIP3    H1 9767   0.696   3.182   3.395
 3278TIP3    H2 9768   0.844   3.193   3.431
 3279TIP3   OH2 9769  -0.507   3.477   2.889
 3279TIP3    H1 9770  -0.432   3.537   2.874
 3279TIP3    H2 9771  -0.492   3.418   2.811
 3280TIP3   OH2 9772   0.741   4.198   3.331
 3280TIP3    H1 9773   0.699   4.245   3.256
 3280TIP3    H2 9774   0.836   4.216   3.311
 3281TIP3   OH2 9775  -0.180   2.460   3.855
 3281TIP3    H1 9776  -0.216   2.426   3.771
 3281TIP3    H2 9777  -0.192   2.383   3.915
 3282TIP3   OH2 9778  -0.019   4.195   4.356
 3282TIP3    H1 9779   0.076   4.195   4.372
 3282TIP3    H2 9780  -0.028   4.128   4.285
 3283TIP3   OH2 9781  -0.023   3.765   2.482
 3283TIP3    H1 9782  -0.080   3.695   2.521
 3283TIP3    H2 9783   0.052   3.712   2.451
 3284TIP3   OH2 9784   0.640   4.089   4.088
 3284TIP3    H1 9785   0.632   4.025   4.163
 3284TIP3    H2 9786   0.712   4.147   4.119
 3285TIP3   OH2 9787   0.412   3.806   2.396
 3285TIP3    H1 9788   0.457   3.742   2.454
 3285TIP3    H2 9789   0.468   3.805   2.316
 3286TIP3   OH2 9790  -0.376   3.293   2.725
 3286TIP3    H1 9791  -0.314   3.257   2.790
 3286TIP3    H2 9792  -0.320   3.295   2.645
 3287TIP3   OH2 9793   0.252   3.719   4.285
 3287TIP3    H1 9794   0.209   3.732   4.198
 3287TIP3    H2 9795   0.283   3.626   4.280
 3288TIP3   OH2 9796   0.135   3.480   2.512
 3288TIP3    H1 9797   0.134   3.497   2.609
 3288TIP3    H2 9798   0.132   3.382   2.512
 3289TIP3   OH2 9799   0.744   3.726   3.891
 3289TIP3    H1 9800   0.818   3.773   3.848
 3289TIP3    H2 9801   0.672   3.790   3.879
 3290TIP3   OH2 9802  -0.235   3.342   4.518
 3290TIP3    H1 9803  -0.168   3.320   4.453
 3290TIP3    H2 9804  -0.188   3.399   4.581
 3291TIP3   OH2 9805  -0.170   3.185   2.925
 3291TIP3    H1 9806  -0.193   3.144   3.010
 3291TIP3    H2 9807  -0.136   3.108   2.875
 3292TIP3   OH2 9808   0.103   3.258   4.162
 3292TIP3    H1 9809   0.019   3.309   4.159
 3292TIP3    H2 9810   0.147   3.288   4.080
 3293TIP3   OH2 9811  -0.066   2.977   2.754
 3293TIP3    H1 9812  -0.067   2.946   2.663
 3293TIP3    H2 9813   0.031   2.992   2.765
 3294TIP3   OH2 9814   0.614   3.655   4.289
 3294TIP3    H1 9815   0.694   3.628   4.243
 3294TIP3    H2 9816   0.608   3.590   4.361
 3295TIP3   OH2 9817   0.752   3.311   2.432
 3295TIP3    H1 9818   0.730   3.265   2.349
 3295TIP3    H2 9819   0.719   3.401   2.408
 3296TIP3   OH2 9820   0.226   3.043   4.280
 3296TIP3    H1 9821   0.221   2.963   4.224
 3296TIP3    H2 9822   0.180   3.109   4.224
 3297TIP3   OH2 9823   0.225   2.823   4.087
 3297TIP3    H1 9824   0.251   2.869   4.004
 3297TIP3    H2 9825   0.131   2.803   4.070
 3298TIP3   OH2 9826   0.252   3.366   3.964
 3298TIP3    H1 9827   0.332   3.373   3.910
 3298TIP3    H2 9828   0.191   3.426   3.917
 3299TIP3   OH2 9829   0.834   3.328   4.341
 3299TIP3    H1 9830   0.884   3.246   4.352
 3299TIP3    H2 9831   0.902   3.388   4.308
 3300TIP3   OH2 9832   0.875   3.579   4.076
 3300TIP3    H1 9833   0.816   3.634   4.019
 3300TIP3    H2 9834   0.962   3.601   4.037
 3301TIP3   OH2 9835   0.102   3.160   4.510
 3301TIP3    H1 9836   0.041   3.083   4.519
 3301TIP3    H2 9837   0.135   3.147   4.420
 3302TIP3   OH2 9838   0.356   2.589   4.158
 3302TIP3    H1 9839   0.309   2.672   4.133
 3302TIP3    H2 9840   0.285   2.523   4.145
 3303TIP3   OH2 9841   0.484   3.092   4.372
 3303TIP3    H1 9842   0.470   3.083   4.467
 3303TIP3    H2 9843   0.394   3.069   4.339
 3304TIP3   OH2 9844   0.720   3.037   4.224
 3304TIP3    H1 9845   0.644   3.044   4.286
 3304TIP3    H2 9846   0.793   3.011   4.283
 3305TIP3   OH2 9847   0.950   2.984   4.378
 3305TIP3    H1 9848   0.962   2.889   4.396
 3305TIP3    H2 9849   0.945   3.023   4.467
 3306TIP3   OH2 9850  -0.037   2.931   4.561
 3306TIP3    H1 9851  -0.046   2.841   4.525
 3306TIP3    H2 9852  -0.015   2.912   4.654
 3307TIP3   OH2 9853   0.449   2.597   4.415
 3307TIP3    H1 9854   0.517   2.527   4.407
 3307TIP3    H2 9855   0.409   2.594   4.326
 3308TIP3   OH2 9856   0.514   2.811   4.576
 3308TIP3    H1 9857   0.492   2.742   4.509
 3308TIP3    H2 9858   0.438   2.873   4.567
 3309TIP3   OH2 9859  -0.261   4.035   2.669
 3309TIP3    H1 9860  -0.166   4.038   2.649
 3309TIP3    H2 9861  -0.295   4.089   2.596
 3310TIP3   OH2 9862   0.996   4.287   3.289
 3310TIP3    H1 9863   1.020   4.317   3.379
 3310TIP3    H2 9864   1.058   4.335   3.233
 3311TIP3   OH2 9865   1.025   4.307   3.570
 3311TIP3    H1 9866   0.980   4.220   3.568
 3311TIP3    H2 9867   1.098   4.286   3.631
 3312TIP3   OH2 9868   1.074   3.986   4.142
 3312TIP3    H1 9869   1.001   3.993   4.206
 3312TIP3    H2 9870   1.114   4.074   4.147
 3313TIP3   OH2 9871   0.888   3.497   2.763
 3313TIP3    H1 9872   0.955   3.562   2.735
 3313TIP3    H2 9873   0.931   3.458   2.843
 3314TIP3   OH2 9874   1.015   3.365   2.967
 3314TIP3    H1 9875   0.949   3.323   3.026
 3314TIP3    H2 9876   1.080   3.402   3.030
 3315TIP3   OH2 9877   1.070   3.758   3.400
 3315TIP3    H1 9878   1.123   3.693   3.351
 3315TIP3    H2 9879   1.062   3.831   3.335
 3316TIP3   OH2 9880   0.899   4.058   3.594
 3316TIP3    H1 9881   0.829   4.100   3.647
 3316TIP3    H2 9882   0.848   4.010   3.525
 3317TIP3   OH2 9883   0.952   3.273   2.614
 3317TIP3    H1 9884   0.880   3.276   2.547
 3317TIP3    H2 9885   0.925   3.349   2.669
 3318TIP3   OH2 9886   0.824   2.945   2.567
 3318TIP3    H1 9887   0.777   2.983   2.492
 3318TIP3    H2 9888   0.802   2.850   2.555
 3319TIP3   OH2 9889   0.828   3.222   3.113
 3319TIP3    H1 9890   0.836   3.126   3.108
 3319TIP3    H2 9891   0.814   3.237   3.209
 3320TIP3   OH2 9892   1.118   3.647   3.971
 3320TIP3    H1 9893   1.190   3.581   3.960
 3320TIP3    H2 9894   1.145   3.717   3.909
 3321TIP3   OH2 9895   1.302   3.450   3.982
 3321TIP3    H1 9896   1.228   3.401   4.023
 3321TIP3    H2 9897   1.375   3.387   3.998
 3322TIP3   OH2 9898   0.775   2.678   2.545
 3322TIP3    H1 9899   0.839   2.647   2.612
 3322TIP3    H2 9900   0.693   2.628   2.566
 3323TIP3   OH2 9901   0.825   2.939   3.008
 3323TIP3    H1 9902   0.866   2.850   3.023
 3323TIP3    H2 9903   0.883   2.972   2.937
 3324TIP3   OH2 9904   0.986   3.109   3.504
 3324TIP3    H1 9905   1.071   3.135   3.463
 3324TIP3    H2 9906   0.998   3.148   3.593
 3325TIP3   OH2 9907   1.054   3.256   3.735
 3325TIP3    H1 9908   0.977   3.290   3.785
 3325TIP3    H2 9909   1.086   3.337   3.690
 3326TIP3   OH2 9910  -0.312   2.895   4.647
 3326TIP3    H1 9911  -0.252   2.934   4.581
 3326TIP3    H2 9912  -0.396   2.931   4.616
 3327TIP3   OH2 9913   1.505   2.845   4.292
 3327TIP3    H1 9914   1.565   2.782   4.247
 3327TIP3    H2 9915   1.477   2.902   4.217
 3328TIP3   OH2 9916   0.934   2.688   3.046
 3328TIP3    H1 9917   0.981   2.672   3.130
 3328TIP3    H2 9918   0.873   2.612   3.044
 3329TIP3   OH2 9919  -0.349   2.677   3.870
 3329TIP3    H1 9920  -0.285   2.603   3.876
 3329TIP3    H2 9921  -0.287   2.752   3.855
 3330TIP3   OH2 9922   1.377   2.986   4.099
 3330TIP3    H1 9923   1.291   3.028   4.121
 3330TIP3    H2 9924   1.345   2.915   4.039
 3331TIP3   OH2 9925   1.015   2.623   2.685
 3331TIP3    H1 9926   1.052   2.553   2.628
 3331TIP3    H2 9927   1.080   2.695   2.676
 3332TIP3   OH2 9928   0.578   4.155   2.946
 3332TIP3    H1 9929   0.630   4.142   2.864
 3332TIP3    H2 9930   0.631   4.221   2.994
 3333TIP3   OH2 9931  -0.371   2.531   4.266
 3333TIP3    H1 9932  -0.406   2.556   4.353
 3333TIP3    H2 9933  -0.424   2.587   4.207
 3334TIP3   OH2 9934  -0.144   4.021   3.878
 3334TIP3    H1 9935  -0.163   4.098   3.822
 3334TIP3    H2 9936  -0.053   4.002   3.848
 3335TIP3   OH2 9937   0.299   4.234   4.008
 3335TIP3    H1 9938   0.338   4.233   4.099
 3335TIP3    H2 9939   0.366   4.288   3.961
 3336TIP3   OH2 9940   0.482   4.389   3.874
 3336TIP3    H1 9941   0.555   4.337   3.838
 3336TIP3    H2 9942   0.530   4.447   3.936
 3337TIP3   OH2 9943   1.276   2.750   3.975
 3337TIP3    H1 9944   1.185   2.746   3.940
 3337TIP3    H2 9945   1.306   2.657   3.962
 3338TIP3   OH2 9946  -0.228   4.250   3.736
 3338TIP3    H1 9947  -0.258   4.337   3.767
 3338TIP3    H2 9948  -0.279   4.239   3.654
 3339TIP3   OH2 9949   0.198   4.253   3.561
 3339TIP3    H1 9950   0.145   4.279   3.484
 3339TIP3    H2 9951   0.213   4.340   3.606
 3340TIP3   OH2 9952   0.467   4.193   3.608
 3340TIP3    H1 9953   0.372   4.211   3.592
 3340TIP3    H2 9954   0.508   4.272   3.570
 3341TIP3   OH2 9955   0.672   4.386   3.525
 3341TIP3    H1 9956   0.658   4.471   3.477
 3341TIP3    H2 9957   0.697   4.326   3.451
 3342TIP3   OH2 9958  -0.354   3.916   3.492
 3342TIP3    H1 9959  -0.349   3.826   3.533
 3342TIP3    H2 9960  -0.262   3.945   3.500
 3343TIP3   OH2 9961  -0.081   4.015   3.510
 3343TIP3    H1 9962  -0.057   3.921   3.494
 3343TIP3    H2 9963  -0.032   4.028   3.593
 3344TIP3   OH2 9964   0.484   2.665   3.597
 3344TIP3    H1 9965   0.439   2.595   3.647
 3344TIP3    H2 9966   0.555   2.617   3.551
 3345TIP3   OH2 9967   1.003   2.542   3.498
 3345TIP3    H1 9968   1.040   2.596   3.425
 3345TIP3    H2 9969   0.909   2.565   3.494
 3346TIP3   OH2 9970   1.100   2.643   3.263
 3346TIP3    H1 9971   1.174   2.593   3.223
 3346TIP3    H2 9972   1.132   2.735   3.249
 3347TIP3   OH2 9973  -0.283   2.367   3.602
 3347TIP3    H1 9974  -0.363   2.315   3.617
 3347TIP3    H2 9975  -0.216   2.294   3.602
 3348TIP3   OH2 9976   0.175   2.409   3.489
 3348TIP3    H1 9977   0.233   2.460   3.430
 3348TIP3    H2 9978   0.197   2.445   3.575
 3349TIP3   OH2 9979   0.720   2.552   3.475
 3349TIP3    H1 9980   0.716   2.516   3.386
 3349TIP3    H2 9981   0.706   2.471   3.530
 3350TIP3   OH2 9982   0.751   2.475   3.039
 3350TIP3    H1 9983   0.665   2.520   3.051
 3350TIP3    H2 9984   0.734   2.390   3.085
 3351TIP3   OH2 9985   0.155   2.575   3.120
 3351TIP3    H1 9986   0.210   2.531   3.187
 3351TIP3    H2 9987   0.170   2.668   3.147
 3352TIP3   OH2 9988   0.008   4.000   2.621
 3352TIP3    H1 9989   0.096   4.023   2.583
 3352TIP3    H2 9990  -0.015   3.926   2.561
 3353TIP3   OH2 9991   0.726   4.122   2.714
 3353TIP3    H1 9992   0.718   4.024   2.702
 3353TIP3    H2 9993   0.680   4.154   2.634
 3354TIP3   OH2 9994  -0.064   2.654   4.493
 3354TIP3    H1 9995  -0.099   2.583   4.551
 3354TIP3    H2 9996   0.029   2.655   4.525
 3355TIP3   OH2 9997   0.182   2.652   4.623
 3355TIP3    H1 9998   0.268   2.632   4.581
 3355TIP3    H2 9999   0.173   2.576   4.684
 3356TIP3   OH210000   1.012   2.713   4.408
 3356TIP3    H110001   1.032   2.683   4.500
 3356TIP3    H210002   1.101   2.710   4.367
 3357TIP3   OH210003   0.951   4.264   3.900
 3357TIP3    H110004   0.871   4.233   3.853
 3357TIP3    H210005   0.931   4.360   3.906
 3358TIP3   OH210006   2.218   3.637   2.665
 3358TIP3    H110007   2.188   3.729   2.645
 3358TIP3    H210008   2.141   3.587   2.633
 3359TIP3   OH210009   2.215   3.638   3.051
 3359TIP3    H110010   2.249   3.612   3.138
 3359TIP3    H210011   2.174   3.555   3.020
 3360TIP3   OH210012   1.515   3.531   3.413
 3360TIP3    H110013   1.545   3.463   3.477
 3360TIP3    H210014   1.592   3.589   3.411
 3361TIP3   OH210015   2.459   3.942   2.731
 3361TIP3    H110016   2.447   3.871   2.795
 3361TIP3    H210017   2.491   4.015   2.787
 3362TIP3   OH210018   1.487   3.942   3.135
 3362TIP3    H110019   1.477   3.845   3.138
 3362TIP3    H210020   1.584   3.950   3.135
 3363TIP3   OH210021   1.193   3.145   2.921
 3363TIP3    H110022   1.145   3.228   2.938
 3363TIP3    H210023   1.123   3.092   2.880
 3364TIP3   OH210024   1.252   3.432   3.096
 3364TIP3    H110025   1.302   3.356   3.133
 3364TIP3    H210026   1.313   3.465   3.029
 3365TIP3   OH210027   2.103   4.432   2.718
 3365TIP3    H110028   2.154   4.356   2.682
 3365TIP3    H210029   2.094   4.402   2.810
 3366TIP3   OH210030   2.014   3.864   3.096
 3366TIP3    H110031   2.054   3.786   3.052
 3366TIP3    H210032   2.098   3.909   3.121
 3367TIP3   OH210033   3.027   3.183   3.094
 3367TIP3    H110034   3.057   3.265   3.139
 3367TIP3    H210035   3.052   3.202   3.002
 3368TIP3   OH210036   2.426   3.365   3.128
 3368TIP3    H110037   2.470   3.280   3.149
 3368TIP3    H210038   2.396   3.347   3.036
 3369TIP3   OH210039   1.766   3.024   3.094
 3369TIP3    H110040   1.746   3.097   3.031
 3369TIP3    H210041   1.717   2.951   3.050
 3370TIP3   OH210042   2.460   3.114   2.715
 3370TIP3    H110043   2.532   3.100   2.781
 3370TIP3    H210044   2.512   3.150   2.641
 3371TIP3   OH210045   1.399   3.226   3.202
 3371TIP3    H110046   1.482   3.206   3.249
 3371TIP3    H210047   1.412   3.170   3.122
 3372TIP3   OH210048   1.839   3.424   2.993
 3372TIP3    H110049   1.933   3.398   3.007
 3372TIP3    H210050   1.800   3.340   2.962
 3373TIP3   OH210051   3.100   3.390   3.265
 3373TIP3    H110052   3.016   3.437   3.250
 3373TIP3    H210053   3.124   3.422   3.353
 3374TIP3   OH210054   1.761   3.006   3.528
 3374TIP3    H110055   1.702   3.044   3.460
 3374TIP3    H210056   1.709   3.025   3.609
 3375TIP3   OH210057   2.108   3.857   2.535
 3375TIP3    H110058   2.066   3.837   2.450
 3375TIP3    H210059   2.062   3.940   2.560
 3376TIP3   OH210060   1.868   3.783   3.321
 3376TIP3    H110061   1.806   3.849   3.359
 3376TIP3    H210062   1.911   3.834   3.250
 3377TIP3   OH210063   2.668   3.119   2.891
 3377TIP3    H110064   2.655   3.076   2.976
 3377TIP3    H210065   2.722   3.196   2.915
 3378TIP3   OH210066   1.633   3.122   3.312
 3378TIP3    H110067   1.694   3.196   3.335
 3378TIP3    H210068   1.683   3.082   3.237
 3379TIP3   OH210069   1.696   3.977   3.419
 3379TIP3    H110070   1.670   4.065   3.384
 3379TIP3    H210071   1.618   3.960   3.477
 3380TIP3   OH210072   1.090   3.668   2.657
 3380TIP3    H110073   1.048   3.693   2.573
 3380TIP3    H210074   1.120   3.754   2.691
 3381TIP3   OH210075   2.529   4.180   2.896
 3381TIP3    H110076   2.439   4.172   2.936
 3381TIP3    H210077   2.522   4.269   2.854
 3382TIP3   OH210078   2.822   3.079   3.258
 3382TIP3    H110079   2.736   3.113   3.230
 3382TIP3    H210080   2.882   3.113   3.189
 3383TIP3   OH210081   2.116   2.726   3.241
 3383TIP3    H110082   2.103   2.631   3.260
 3383TIP3    H210083   2.039   2.765   3.289
 3384TIP3   OH210084   2.227   4.236   2.567
 3384TIP3    H110085   2.277   4.151   2.552
 3384TIP3    H210086   2.290   4.298   2.526
 3385TIP3   OH210087   2.370   4.018   2.481
 3385TIP3    H110088   2.338   3.936   2.440
 3385TIP3    H210089   2.409   3.984   2.564
 3386TIP3   OH210090   2.754   4.096   3.240
 3386TIP3    H110091   2.744   4.018   3.181
 3386TIP3    H210092   2.739   4.170   3.178
 3387TIP3   OH210093   2.047   3.489   2.498
 3387TIP3    H110094   1.967   3.540   2.476
 3387TIP3    H210095   2.094   3.486   2.413
 3388TIP3   OH210096   2.006   3.275   2.212
 3388TIP3    H110097   2.074   3.325   2.262
 3388TIP3    H210098   2.063   3.211   2.165
 3389TIP3   OH210099   2.950   3.731   3.084
 3389TIP3    H110100   2.868   3.784   3.090
 3389TIP3    H210101   2.981   3.755   2.995
 3390TIP3   OH210102   2.395   3.572   2.468
 3390TIP3    H110103   2.341   3.597   2.547
 3390TIP3    H210104   2.478   3.546   2.512
 3391TIP3   OH210105   2.630   3.610   3.384
 3391TIP3    H110106   2.628   3.693   3.436
 3391TIP3    H210107   2.544   3.616   3.338
 3392TIP3   OH210108   1.628   3.569   2.886
 3392TIP3    H110109   1.587   3.510   2.819
 3392TIP3    H210110   1.704   3.515   2.916
 3393TIP3   OH210111   1.760   3.985   3.031
 3393TIP3    H110112   1.738   3.939   2.949
 3393TIP3    H210113   1.848   3.949   3.052
 3394TIP3   OH210114   1.764   3.540   3.239
 3394TIP3    H110115   1.798   3.519   3.150
 3394TIP3    H210116   1.807   3.626   3.260
 3395TIP3   OH210117   2.288   4.178   3.018
 3395TIP3    H110118   2.275   4.257   3.073
 3395TIP3    H210119   2.274   4.104   3.080
 3396TIP3   OH210120   1.901   4.098   3.562
 3396TIP3    H110121   1.842   4.159   3.611
 3396TIP3    H210122   1.835   4.044   3.515
 3397TIP3   OH210123   2.234   3.430   2.296
 3397TIP3    H110124   2.294   3.489   2.347
 3397TIP3    H210125   2.260   3.454   2.203
 3398TIP3   OH210126   1.656   3.654   3.665
 3398TIP3    H110127   1.661   3.740   3.710
 3398TIP3    H210128   1.561   3.633   3.678
 3399TIP3   OH210129   1.983   4.105   2.571
 3399TIP3    H110130   2.062   4.159   2.585
 3399TIP3    H210131   1.918   4.168   2.537
 3400TIP3   OH210132   1.695   4.264   3.652
 3400TIP3    H110133   1.660   4.262   3.561
 3400TIP3    H210134   1.616   4.243   3.706
 3401TIP3   OH210135   2.752   2.670   2.345
 3401TIP3    H110136   2.670   2.692   2.394
 3401TIP3    H210137   2.765   2.752   2.293
 3402TIP3   OH210138   1.495   3.412   2.689
 3402TIP3    H110139   1.427   3.457   2.634
 3402TIP3    H210140   1.454   3.326   2.704
 3403TIP3   OH210141   2.551   4.037   1.894
 3403TIP3    H110142   2.560   4.134   1.878
 3403TIP3    H210143   2.644   4.008   1.880
 3404TIP3   OH210144   1.275   3.796   3.598
 3404TIP3    H110145   1.208   3.774   3.530
 3404TIP3    H210146   1.312   3.709   3.622
 3405TIP3   OH210147   1.128   3.990   3.228
 3405TIP3    H110148   1.225   3.984   3.223
 3405TIP3    H210149   1.116   4.067   3.285
 3406TIP3   OH210150   2.992   4.440   3.285
 3406TIP3    H110151   2.992   4.343   3.301
 3406TIP3    H210152   2.909   4.465   3.332
 3407TIP3   OH210153   2.097   4.228   3.419
 3407TIP3    H110154   2.096   4.319   3.454
 3407TIP3    H210155   2.027   4.186   3.475
 3408TIP3   OH210156   1.860   4.367   2.366
 3408TIP3    H110157   1.825   4.316   2.289
 3408TIP3    H210158   1.793   4.435   2.374
 3409TIP3   OH210159   1.299   4.203   2.757
 3409TIP3    H110160   1.344   4.193   2.844
 3409TIP3    H210161   1.243   4.124   2.756
 3410TIP3   OH210162   2.065   4.258   2.014
 3410TIP3    H110163   2.120   4.187   1.975
 3410TIP3    H210164   2.100   4.262   2.105
 3411TIP3   OH210165   2.114   4.305   2.286
 3411TIP3    H110166   2.025   4.307   2.326
 3411TIP3    H210167   2.165   4.256   2.354
 3412TIP3   OH210168   2.883   3.571   3.562
 3412TIP3    H110169   2.801   3.581   3.512
 3412TIP3    H210170   2.899   3.475   3.555
 3413TIP3   OH210171   1.480   3.979   3.586
 3413TIP3    H110172   1.530   3.963   3.669
 3413TIP3    H210173   1.406   3.915   3.594
 3414TIP3   OH210174   1.879   2.802   3.373
 3414TIP3    H110175   1.789   2.772   3.346
 3414TIP3    H210176   1.854   2.884   3.419
 3415TIP3   OH210177   2.414   2.915   3.565
 3415TIP3    H110178   2.483   2.891   3.630
 3415TIP3    H210179   2.331   2.897   3.614
 3416TIP3   OH210180   2.648   3.345   3.482
 3416TIP3    H110181   2.602   3.342   3.568
 3416TIP3    H210182   2.626   3.434   3.449
 3417TIP3   OH210183   2.311   3.478   2.040
 3417TIP3    H110184   2.278   3.451   1.952
 3417TIP3    H210185   2.395   3.520   2.016
 3418TIP3   OH210186   2.023   2.851   2.342
 3418TIP3    H110187   1.990   2.849   2.434
 3418TIP3    H210188   1.984   2.768   2.309
 3419TIP3   OH210189   1.810   3.318   3.389
 3419TIP3    H110190   1.761   3.339   3.471
 3419TIP3    H210191   1.794   3.399   3.336
 3420TIP3   OH210192   1.694   3.204   2.903
 3420TIP3    H110193   1.601   3.178   2.922
 3420TIP3    H210194   1.707   3.163   2.815
 3421TIP3   OH210195   2.184   3.289   2.632
 3421TIP3    H110196   2.132   3.360   2.589
 3421TIP3    H210197   2.240   3.258   2.557
 3422TIP3   OH210198   2.359   3.566   3.715
 3422TIP3    H110199   2.336   3.494   3.779
 3422TIP3    H210200   2.452   3.582   3.739
 3423TIP3   OH210201   2.341   3.316   2.870
 3423TIP3    H110202   2.281   3.346   2.799
 3423TIP3    H210203   2.376   3.235   2.827
 3424TIP3   OH210204   1.629   3.347   3.599
 3424TIP3    H110205   1.659   3.410   3.666
 3424TIP3    H210206   1.618   3.265   3.651
 3425TIP3   OH210207   1.679   2.824   2.309
 3425TIP3    H110208   1.670   2.823   2.406
 3425TIP3    H210209   1.602   2.877   2.283
 3426TIP3   OH210210   1.223   2.867   3.180
 3426TIP3    H110211   1.297   2.901   3.234
 3426TIP3    H210212   1.266   2.838   3.098
 3427TIP3   OH210213   1.193   2.850   2.698
 3427TIP3    H110214   1.237   2.889   2.619
 3427TIP3    H210215   1.131   2.922   2.720
 3428TIP3   OH210216   2.350   3.564   3.291
 3428TIP3    H110217   2.384   3.492   3.233
 3428TIP3    H210218   2.322   3.511   3.369
 3429TIP3   OH210219   2.022   3.024   2.964
 3429TIP3    H110220   1.942   3.024   3.019
 3429TIP3    H210221   2.093   3.022   3.031
 3430TIP3   OH210222   1.456   3.083   2.972
 3430TIP3    H110223   1.361   3.090   2.945
 3430TIP3    H210224   1.479   2.991   2.949
 3431TIP3   OH210225   1.724   3.076   2.662
 3431TIP3    H110226   1.818   3.093   2.642
 3431TIP3    H210227   1.677   3.101   2.579
 3432TIP3   OH210228   2.514   3.102   3.165
 3432TIP3    H110229   2.482   3.114   3.258
 3432TIP3    H210230   2.446   3.042   3.131
 3433TIP3   OH210231   1.569   3.112   2.439
 3433TIP3    H110232   1.498   3.067   2.390
 3433TIP3    H210233   1.621   3.149   2.365
 3434TIP3   OH210234   2.685   4.791   3.387
 3434TIP3    H110235   2.685   4.815   3.293
 3434TIP3    H210236   2.765   4.837   3.419
 3435TIP3   OH210237   1.642   3.901   3.807
 3435TIP3    H110238   1.722   3.930   3.856
 3435TIP3    H210239   1.577   3.900   3.880
 3436TIP3   OH210240   2.104   3.354   3.061
 3436TIP3    H110241   2.179   3.316   3.013
 3436TIP3    H210242   2.113   3.313   3.149
 3437TIP3   OH210243   1.625   2.842   2.943
 3437TIP3    H110244   1.591   2.763   2.989
 3437TIP3    H210245   1.674   2.803   2.869
 3438TIP3   OH210246   2.081   3.252   3.353
 3438TIP3    H110247   1.992   3.289   3.368
 3438TIP3    H210248   2.139   3.313   3.403
 3439TIP3   OH210249   1.817   3.642   2.446
 3439TIP3    H110250   1.745   3.576   2.435
 3439TIP3    H210251   1.799   3.675   2.537
 3440TIP3   OH210252   2.718   3.879   3.075
 3440TIP3    H110253   2.743   3.927   2.993
 3440TIP3    H210254   2.633   3.837   3.049
 3441TIP3   OH210255   2.276   2.952   2.313
 3441TIP3    H110256   2.179   2.936   2.320
 3441TIP3    H210257   2.286   3.047   2.335
 3442TIP3   OH210258   2.217   3.960   3.444
 3442TIP3    H110259   2.244   3.938   3.534
 3442TIP3    H210260   2.178   4.048   3.454
 3443TIP3   OH210261   2.345   3.201   2.413
 3443TIP3    H110262   2.441   3.207   2.428
 3443TIP3    H210263   2.327   3.281   2.359
 3444TIP3   OH210264   1.510   3.664   3.122
 3444TIP3    H110265   1.550   3.635   3.038
 3444TIP3    H210266   1.552   3.604   3.186
 3445TIP3   OH210267   1.963   3.792   2.269
 3445TIP3    H110268   1.916   3.878   2.277
 3445TIP3    H210269   1.909   3.735   2.328
 3446TIP3   OH210270   1.392   3.584   3.736
 3446TIP3    H110271   1.413   3.572   3.830
 3446TIP3    H210272   1.323   3.517   3.722
 3447TIP3   OH210273   2.118   3.701   3.754
 3447TIP3    H110274   2.059   3.640   3.708
 3447TIP3    H210275   2.206   3.666   3.729
 3448TIP3   OH210276   2.376   4.224   3.337
 3448TIP3    H110277   2.280   4.219   3.352
 3448TIP3    H210278   2.405   4.272   3.417
 3449TIP3   OH210279   2.786   3.293   2.249
 3449TIP3    H110280   2.723   3.248   2.187
 3449TIP3    H210281   2.783   3.381   2.207
 3450TIP3   OH210282   3.005   4.150   3.329
 3450TIP3    H110283   2.907   4.143   3.321
 3450TIP3    H210284   3.031   4.120   3.239
 3451TIP3   OH210285   2.485   4.110   2.157
 3451TIP3    H110286   2.464   4.038   2.218
 3451TIP3    H210287   2.500   4.064   2.073
 3452TIP3   OH210288   2.483   3.741   2.991
 3452TIP3    H110289   2.390   3.715   3.006
 3452TIP3    H210290   2.518   3.661   2.948
 3453TIP3   OH210291   1.610   3.967   2.747
 3453TIP3    H110292   1.607   4.049   2.693
 3453TIP3    H210293   1.516   3.950   2.760
 3454TIP3   OH210294   1.177   3.272   2.454
 3454TIP3    H110295   1.221   3.356   2.474
 3454TIP3    H210296   1.098   3.277   2.513
 3455TIP3   OH210297   1.748   3.733   2.691
 3455TIP3    H110298   1.713   3.822   2.710
 3455TIP3    H210299   1.712   3.682   2.766
 3456TIP3   OH210300   1.882   4.311   3.216
 3456TIP3    H110301   1.925   4.382   3.167
 3456TIP3    H210302   1.956   4.274   3.267
 3457TIP3   OH210303   1.529   4.207   2.599
 3457TIP3    H110304   1.443   4.211   2.646
 3457TIP3    H210305   1.557   4.301   2.603
 3458TIP3   OH210306   2.268   3.947   3.176
 3458TIP3    H110307   2.258   3.945   3.274
 3458TIP3    H210308   2.348   3.893   3.164
 3459TIP3   OH210309   2.244   3.842   2.059
 3459TIP3    H110310   2.298   3.816   2.137
 3459TIP3    H210311   2.157   3.810   2.086
 3460TIP3   OH210312   2.517   4.478   3.229
 3460TIP3    H110313   2.440   4.418   3.224
 3460TIP3    H210314   2.498   4.541   3.155
 3461TIP3   OH210315   2.583   4.313   1.877
 3461TIP3    H110316   2.621   4.386   1.826
 3461TIP3    H210317   2.502   4.358   1.910
 3462TIP3   OH210318   1.602   3.089   3.743
 3462TIP3    H110319   1.506   3.094   3.758
 3462TIP3    H210320   1.631   3.034   3.818
 3463TIP3   OH210321   2.404   3.775   2.275
 3463TIP3    H110322   2.394   3.707   2.345
 3463TIP3    H210323   2.501   3.771   2.262
 3464TIP3   OH210324   1.320   4.174   3.375
 3464TIP3    H110325   1.372   4.100   3.410
 3464TIP3    H210326   1.343   4.243   3.437
 3465TIP3   OH210327   1.610   3.820   2.058
 3465TIP3    H110328   1.621   3.728   2.029
 3465TIP3    H210329   1.589   3.806   2.153
 3466TIP3   OH210330   1.554   3.824   2.330
 3466TIP3    H110331   1.625   3.795   2.390
 3466TIP3    H210332   1.559   3.922   2.339
 3467TIP3   OH210333   1.289   3.517   2.534
 3467TIP3    H110334   1.222   3.561   2.591
 3467TIP3    H210335   1.302   3.586   2.467
 3468TIP3   OH210336   2.441   3.152   3.424
 3468TIP3    H110337   2.519   3.194   3.464
 3468TIP3    H210338   2.428   3.072   3.480
 3469TIP3   OH210339   2.321   2.903   2.592
 3469TIP3    H110340   2.307   2.927   2.498
 3469TIP3    H210341   2.361   2.985   2.628
 3470TIP3   OH210342   1.823   4.025   2.282
 3470TIP3    H110343   1.734   4.048   2.315
 3470TIP3    H210344   1.831   4.084   2.206
 3471TIP3   OH210345   2.006   3.085   2.693
 3471TIP3    H110346   2.072   3.156   2.675
 3471TIP3    H210347   2.013   3.077   2.790
 3472TIP3   OH210348   2.279   3.402   3.500
 3472TIP3    H110349   2.300   3.457   3.579
 3472TIP3    H210350   2.334   3.324   3.515
 3473TIP3   OH210351   2.152   2.808   2.794
 3473TIP3    H110352   2.147   2.884   2.855
 3473TIP3    H210353   2.214   2.844   2.726
 3474TIP3   OH210354   1.567   4.098   2.347
 3474TIP3    H110355   1.534   4.167   2.285
 3474TIP3    H210356   1.546   4.139   2.434
 3475TIP3   OH210357   1.665   2.810   2.585
 3475TIP3    H110358   1.661   2.901   2.621
 3475TIP3    H210359   1.761   2.793   2.593
 3476TIP3   OH210360   2.916   3.304   3.483
 3476TIP3    H110361   2.818   3.301   3.488
 3476TIP3    H210362   2.931   3.265   3.396
 3477TIP3   OH210363   2.569   3.498   2.869
 3477TIP3    H110364   2.493   3.438   2.882
 3477TIP3    H210365   2.640   3.451   2.918
 3478TIP3   OH210366   1.282   3.725   2.340
 3478TIP3    H110367   1.350   3.794   2.347
 3478TIP3    H210368   1.326   3.668   2.272
 3479TIP3   OH210369   1.225   3.001   2.472
 3479TIP3    H110370   1.227   3.099   2.469
 3479TIP3    H210371   1.141   2.981   2.430
 3480TIP3   OH210372   2.541   4.452   2.824
 3480TIP3    H110373   2.502   4.496   2.745
 3480TIP3    H210374   2.636   4.471   2.806
 3481TIP3   OH210375   1.615   2.722   3.345
 3481TIP3    H110376   1.583   2.689   3.258
 3481TIP3    H210377   1.603   2.643   3.402
 3482TIP3   OH210378   1.153   3.944   2.724
 3482TIP3    H110379   1.086   3.971   2.789
 3482TIP3    H210380   1.117   3.985   2.642
 3483TIP3   OH210381   1.311   4.485   3.796
 3483TIP3    H110382   1.397   4.485   3.844
 3483TIP3    H210383   1.290   4.390   3.796
 3484TIP3   OH210384   1.790   4.448   3.840
 3484TIP3    H110385   1.884   4.426   3.852
 3484TIP3    H210386   1.766   4.387   3.768
 3485TIP3   OH210387   1.774   4.023   1.974
 3485TIP3    H110388   1.717   3.950   2.008
 3485TIP3    H210389   1.847   3.971   1.935
 3486TIP3   OH210390   2.431   4.353   3.573
 3486TIP3    H110391   2.421   4.283   3.641
 3486TIP3    H210392   2.508   4.404   3.606
 3487TIP3   OH210393   2.208   4.063   1.883
 3487TIP3    H110394   2.249   3.997   1.942
 3487TIP3    H210395   2.265   4.061   1.804
 3488TIP3   OH210396   1.440   3.891   3.998
 3488TIP3    H110397   1.457   3.795   4.006
 3488TIP3    H210398   1.352   3.892   3.954
 3489TIP3   OH210399   1.418   3.539   2.193
 3489TIP3    H110400   1.474   3.506   2.265
 3489TIP3    H210401   1.485   3.543   2.121
 3490TIP3   OH210402   2.048   3.976   3.772
 3490TIP3    H110403   2.006   3.990   3.685
 3490TIP3    H210404   2.080   3.883   3.765
 3491TIP3   OH210405   1.930   3.738   2.000
 3491TIP3    H110406   1.931   3.750   2.097
 3491TIP3    H210407   1.930   3.639   1.994
 3492TIP3   OH210408   2.540   3.984   3.377
 3492TIP3    H110409   2.615   4.028   3.334
 3492TIP3    H210410   2.469   4.049   3.364
 3493TIP3   OH210411   1.560   3.622   3.979
 3493TIP3    H110412   1.638   3.568   3.959
 3493TIP3    H210413   1.584   3.655   4.068
 3494TIP3   OH210414   1.625   3.444   2.413
 3494TIP3    H110415   1.598   3.403   2.497
 3494TIP3    H210416   1.661   3.368   2.363
 3495TIP3   OH210417   1.893   3.505   3.639
 3495TIP3    H110418   1.817   3.568   3.644
 3495TIP3    H210419   1.943   3.541   3.563
 3496TIP3   OH210420   1.727   3.238   2.254
 3496TIP3    H110421   1.700   3.242   2.160
 3496TIP3    H210422   1.825   3.243   2.246
 3497TIP3   OH210423   2.410   3.908   3.773
 3497TIP3    H110424   2.492   3.882   3.729
 3497TIP3    H210425   2.406   3.845   3.848
 3498TIP3   OH210426   2.546   3.568   1.919
 3498TIP3    H110427   2.526   3.521   1.835
 3498TIP3    H210428   2.514   3.658   1.894
 3499TIP3   OH210429   2.017   3.296   3.768
 3499TIP3    H110430   2.018   3.217   3.710
 3499TIP3    H210431   1.974   3.363   3.710
 3500TIP3   OH210432   2.021   3.081   3.574
 3500TIP3    H110433   2.048   3.124   3.490
 3500TIP3    H210434   1.927   3.060   3.556
 3501TIP3   OH210435   2.045   3.616   3.447
 3501TIP3    H110436   2.130   3.627   3.403
 3501TIP3    H210437   1.990   3.684   3.403
 3502TIP3   OH210438   2.628   3.584   3.827
 3502TIP3    H110439   2.675   3.502   3.848
 3502TIP3    H210440   2.700   3.639   3.792
 3503TIP3   OH210441   2.670   3.837   3.563
 3503TIP3    H110442   2.613   3.892   3.505
 3503TIP3    H210443   2.758   3.858   3.524
 3504TIP3   OH210444   1.892   3.407   3.995
 3504TIP3    H110445   1.825   3.338   4.012
 3504TIP3    H210446   1.930   3.377   3.910
 3505TIP3   OH210447   2.152   2.846   3.644
 3505TIP3    H110448   2.105   2.929   3.620
 3505TIP3    H210449   2.082   2.779   3.632
 3506TIP3   OH210450   2.279   3.350   3.859
 3506TIP3    H110451   2.270   3.340   3.955
 3506TIP3    H210452   2.188   3.325   3.832
 3507TIP3   OH210453   2.516   3.296   3.711
 3507TIP3    H110454   2.442   3.300   3.775
 3507TIP3    H210455   2.590   3.268   3.769
 3508TIP3   OH210456   2.743   3.238   3.861
 3508TIP3    H110457   2.758   3.144   3.882
 3508TIP3    H210458   2.740   3.279   3.951
 3509TIP3   OH210459   1.733   3.185   4.052
 3509TIP3    H110460   1.743   3.094   4.020
 3509TIP3    H210461   1.769   3.177   4.143
 3510TIP3   OH210462   2.244   2.853   3.902
 3510TIP3    H110463   2.314   2.785   3.895
 3510TIP3    H210464   2.206   2.849   3.812
 3511TIP3   OH210465   2.310   3.069   4.062
 3511TIP3    H110466   2.288   2.999   3.996
 3511TIP3    H210467   2.233   3.130   4.055
 3512TIP3   OH210468   1.538   4.308   2.166
 3512TIP3    H110469   1.631   4.298   2.137
 3512TIP3    H210470   1.501   4.350   2.086
 3513TIP3   OH210471   1.013   3.681   2.375
 3513TIP3    H110472   1.108   3.702   2.361
 3513TIP3    H210473   1.007   3.592   2.333
 3514TIP3   OH210474   0.929   4.293   2.790
 3514TIP3    H110475   0.862   4.232   2.753
 3514TIP3    H210476   0.973   4.235   2.856
 3515TIP3   OH210477   1.065   4.142   2.977
 3515TIP3    H110478   1.051   4.070   3.041
 3515TIP3    H210479   1.114   4.205   3.032
 3516TIP3   OH210480   2.790   4.550   2.776
 3516TIP3    H110481   2.819   4.579   2.865
 3516TIP3    H210482   2.860   4.585   2.719
 3517TIP3   OH210483   2.821   4.564   3.059
 3517TIP3    H110484   2.777   4.477   3.056
 3517TIP3    H210485   2.896   4.542   3.116
 3518TIP3   OH210486   2.866   4.242   3.630
 3518TIP3    H110487   2.792   4.251   3.694
 3518TIP3    H210488   2.908   4.330   3.636
 3519TIP3   OH210489   2.683   3.755   2.251
 3519TIP3    H110490   2.752   3.818   2.222
 3519TIP3    H210491   2.726   3.715   2.330
 3520TIP3   OH210492   2.810   3.623   2.454
 3520TIP3    H110493   2.745   3.580   2.514
 3520TIP3    H210494   2.877   3.658   2.516
 3521TIP3   OH210495   2.864   4.014   2.884
 3521TIP3    H110496   2.920   3.948   2.838
 3521TIP3    H210497   2.858   4.086   2.819
 3522TIP3   OH210498   2.695   4.315   3.080
 3522TIP3    H110499   2.625   4.354   3.134
 3522TIP3    H210500   2.645   4.266   3.012
 3523TIP3   OH210501   2.748   3.530   2.101
 3523TIP3    H110502   2.676   3.532   2.035
 3523TIP3    H210503   2.721   3.606   2.157
 3524TIP3   OH210504   2.615   3.205   2.057
 3524TIP3    H110505   2.578   3.238   1.974
 3524TIP3    H210506   2.594   3.109   2.049
 3525TIP3   OH210507   2.623   3.479   2.600
 3525TIP3    H110508   2.633   3.382   2.594
 3525TIP3    H210509   2.610   3.493   2.696
 3526TIP3   OH210510   1.250   3.552   3.348
 3526TIP3    H110511   1.248   3.520   3.255
 3526TIP3    H210512   1.347   3.553   3.364
 3527TIP3   OH210513   2.914   3.904   3.458
 3527TIP3    H110514   2.985   3.836   3.449
 3527TIP3    H210515   2.943   3.973   3.396
 3528TIP3   OH210516   3.098   3.708   3.472
 3528TIP3    H110517   3.024   3.656   3.511
 3528TIP3    H210518   3.172   3.645   3.486
 3529TIP3   OH210519   2.562   2.939   2.044
 3529TIP3    H110520   2.638   2.905   2.096
 3529TIP3    H210521   2.491   2.876   2.065
 3530TIP3   OH210522   2.620   3.195   2.494
 3530TIP3    H110523   2.662   3.107   2.509
 3530TIP3    H210524   2.678   3.229   2.423
 3531TIP3   OH210525   2.781   3.368   2.990
 3531TIP3    H110526   2.867   3.393   2.949
 3531TIP3    H210527   2.795   3.404   3.079
 3532TIP3   OH210528   2.850   3.512   3.222
 3532TIP3    H110529   2.774   3.547   3.272
 3532TIP3    H210530   2.883   3.593   3.177
 3533TIP3   OH210531   1.466   3.235   4.015
 3533TIP3    H110532   1.564   3.233   4.023
 3533TIP3    H210533   1.443   3.152   4.061
 3534TIP3   OH210534   3.299   3.101   3.778
 3534TIP3    H110535   3.361   3.037   3.735
 3534TIP3    H210536   3.274   3.158   3.703
 3535TIP3   OH210537   2.729   2.946   2.533
 3535TIP3    H110538   2.778   2.929   2.617
 3535TIP3    H210539   2.669   2.868   2.531
 3536TIP3   OH210540   1.430   2.931   3.352
 3536TIP3    H110541   1.493   2.857   3.362
 3536TIP3    H210542   1.491   3.006   3.346
 3537TIP3   OH210543   1.231   3.203   3.426
 3537TIP3    H110544   1.281   3.200   3.342
 3537TIP3    H210545   1.258   3.289   3.460
 3538TIP3   OH210546   3.173   3.243   3.583
 3538TIP3    H110547   3.087   3.283   3.606
 3538TIP3    H210548   3.143   3.170   3.526
 3539TIP3   OH210549   2.809   2.878   2.166
 3539TIP3    H110550   2.848   2.807   2.111
 3539TIP3    H210551   2.876   2.949   2.160
 3540TIP3   OH210552   1.216   2.705   2.925
 3540TIP3    H110553   1.123   2.703   2.953
 3540TIP3    H210554   1.212   2.764   2.848
 3541TIP3   OH210555   2.370   4.418   2.431
 3541TIP3    H110556   2.423   4.401   2.349
 3541TIP3    H210557   2.433   4.470   2.483
 3542TIP3   OH210558   1.434   2.782   3.739
 3542TIP3    H110559   1.386   2.783   3.823
 3542TIP3    H210560   1.369   2.825   3.680
 3543TIP3   OH210561   1.475   4.216   3.817
 3543TIP3    H110562   1.382   4.190   3.802
 3543TIP3    H210563   1.488   4.196   3.910
 3544TIP3   OH210564   1.654   4.248   3.365
 3544TIP3    H110565   1.606   4.324   3.327
 3544TIP3    H210566   1.740   4.262   3.321
 3545TIP3   OH210567   2.098   4.493   3.502
 3545TIP3    H110568   2.139   4.491   3.591
 3545TIP3    H210569   2.165   4.544   3.452
 3546TIP3   OH210570   2.278   4.646   3.361
 3546TIP3    H110571   2.349   4.592   3.324
 3546TIP3    H210572   2.328   4.703   3.423
 3547TIP3   OH210573   3.072   3.006   3.462
 3547TIP3    H110574   2.982   2.997   3.429
 3547TIP3    H210575   3.106   2.914   3.450
 3548TIP3   OH210576   1.331   4.507   3.388
 3548TIP3    H110577   1.240   4.539   3.367
 3548TIP3    H210578   1.341   4.543   3.477
 3549TIP3   OH210579   1.566   4.485   3.247
 3549TIP3    H110580   1.480   4.496   3.294
 3549TIP3    H210581   1.544   4.516   3.158
 3550TIP3   OH210582   1.994   4.515   3.037
 3550TIP3    H110583   1.917   4.533   2.980
 3550TIP3    H210584   2.002   4.599   3.087
 3551TIP3   OH210585   2.261   4.451   3.096
 3551TIP3    H110586   2.167   4.469   3.075
 3551TIP3    H210587   2.305   4.529   3.058
 3552TIP3   OH210588   2.465   4.642   3.011
 3552TIP3    H110589   2.456   4.727   2.962
 3552TIP3    H210590   2.496   4.581   2.941
 3553TIP3   OH210591   1.243   4.300   3.134
 3553TIP3    H110592   1.268   4.272   3.224
 3553TIP3    H210593   1.315   4.255   3.083
 3554TIP3   OH210594   1.437   4.170   2.991
 3554TIP3    H110595   1.450   4.085   3.040
 3554TIP3    H210596   1.528   4.205   2.990
 3555TIP3   OH210597   1.705   4.264   2.995
 3555TIP3    H110598   1.733   4.171   2.985
 3555TIP3    H210599   1.749   4.285   3.080
 3556TIP3   OH210600   2.275   2.920   3.078
 3556TIP3    H110601   2.235   2.850   3.132
 3556TIP3    H210602   2.351   2.875   3.037
 3557TIP3   OH210603   2.798   2.798   2.983
 3557TIP3    H110604   2.836   2.852   2.910
 3557TIP3    H210605   2.704   2.824   2.980
 3558TIP3   OH210606   2.895   2.901   2.749
 3558TIP3    H110607   2.969   2.849   2.711
 3558TIP3    H210608   2.929   2.992   2.735
 3559TIP3   OH210609   1.526   2.629   3.097
 3559TIP3    H110610   1.434   2.596   3.098
 3559TIP3    H210611   1.576   2.544   3.093
 3560TIP3   OH210612   1.317   2.500   2.746
 3560TIP3    H110613   1.343   2.559   2.673
 3560TIP3    H210614   1.285   2.565   2.812
 3561TIP3   OH210615   1.971   2.659   2.979
 3561TIP3    H110616   2.027   2.710   2.917
 3561TIP3    H210617   1.995   2.699   3.064
 3562TIP3   OH210618   2.512   2.809   2.964
 3562TIP3    H110619   2.516   2.772   2.875
 3562TIP3    H210620   2.501   2.728   3.018
 3563TIP3   OH210621   2.546   2.732   2.524
 3563TIP3    H110622   2.460   2.776   2.538
 3563TIP3    H210623   2.531   2.647   2.570
 3564TIP3   OH210624   1.030   4.073   2.523
 3564TIP3    H110625   0.944   4.039   2.490
 3564TIP3    H210626   1.019   4.167   2.499
 3565TIP3   OH210627   1.430   2.659   2.509
 3565TIP3    H110628   1.479   2.597   2.451
 3565TIP3    H210629   1.503   2.713   2.545
 3566TIP3   OH210630   1.942   2.834   2.608
 3566TIP3    H110631   2.004   2.790   2.669
 3566TIP3    H210632   1.961   2.927   2.632
 3567TIP3   OH210633   1.805   4.257   2.109
 3567TIP3    H110634   1.892   4.279   2.069
 3567TIP3    H210635   1.779   4.184   2.048
 3568TIP3   OH210636   2.518   4.377   2.202
 3568TIP3    H110637   2.511   4.279   2.189
 3568TIP3    H210638   2.477   4.409   2.119
 3569TIP3   OH210639   1.734   2.906   3.984
 3569TIP3    H110640   1.699   2.839   4.046
 3569TIP3    H210641   1.828   2.909   4.013
 3570TIP3   OH210642   1.981   2.905   4.105
 3570TIP3    H110643   2.068   2.886   4.067
 3570TIP3    H210644   1.972   2.834   4.171
 3571TIP3   OH210645   1.106   4.094   2.163
 3571TIP3    H110646   1.105   4.119   2.256
 3571TIP3    H210647   1.194   4.052   2.153
 3572TIP3   OH210648   2.807   2.969   3.895
 3572TIP3    H110649   2.828   2.939   3.986
 3572TIP3    H210650   2.896   2.967   3.853
 3573TIP3   OH210651   2.746   4.521   3.388
 3573TIP3    H110652   2.667   4.490   3.340
 3573TIP3    H210653   2.726   4.617   3.394
 3574TIP3   OH210654   4.015   3.894   2.151
 3574TIP3    H110655   3.985   3.986   2.132
 3574TIP3    H210656   3.937   3.844   2.122
 3575TIP3   OH210657   4.010   3.894   2.539
 3575TIP3    H110658   4.046   3.869   2.626
 3575TIP3    H210659   3.970   3.811   2.508
 3576TIP3   OH210660   3.309   3.787   2.902
 3576TIP3    H110661   3.340   3.720   2.966
 3576TIP3    H210662   3.388   3.843   2.896
 3577TIP3   OH210663   4.256   4.198   2.218
 3577TIP3    H110664   4.243   4.128   2.283
 3577TIP3    H210665   4.286   4.272   2.273
 3578TIP3   OH210666   3.282   4.198   2.622
 3578TIP3    H110667   3.274   4.100   2.625
 3578TIP3    H210668   3.379   4.207   2.621
 3579TIP3   OH210669   2.989   3.402   2.408
 3579TIP3    H110670   2.941   3.485   2.424
 3579TIP3    H210671   2.918   3.348   2.367
 3580TIP3   OH210672   3.048   3.688   2.583
 3580TIP3    H110673   3.097   3.611   2.620
 3580TIP3    H210674   3.110   3.721   2.517
 3581TIP3   OH210675   3.906   4.658   2.234
 3581TIP3    H110676   3.950   4.586   2.184
 3581TIP3    H210677   3.901   4.619   2.322
 3582TIP3   OH210678   3.811   4.120   2.583
 3582TIP3    H110679   3.850   4.042   2.540
 3582TIP3    H210680   3.894   4.166   2.607
 3583TIP3   OH210681   4.825   3.440   2.581
 3583TIP3    H110682   4.853   3.522   2.625
 3583TIP3    H210683   4.847   3.459   2.488
 3584TIP3   OH210684   4.224   3.622   2.614
 3584TIP3    H110685   4.266   3.536   2.636
 3584TIP3    H210686   4.192   3.604   2.524
 3585TIP3   OH210687   3.561   3.281   2.581
 3585TIP3    H110688   3.542   3.353   2.517
 3585TIP3    H210689   3.513   3.207   2.537
 3586TIP3   OH210690   4.256   3.372   2.201
 3586TIP3    H110691   4.327   3.356   2.268
 3586TIP3    H210692   4.309   3.406   2.128
 3587TIP3   OH210693   3.195   3.483   2.688
 3587TIP3    H110694   3.278   3.463   2.736
 3587TIP3    H210695   3.208   3.427   2.608
 3588TIP3   OH210696   3.635   3.681   2.481
 3588TIP3    H110697   3.729   3.656   2.495
 3588TIP3    H210698   3.597   3.596   2.450
 3589TIP3   OH210699   4.898   3.648   2.751
 3589TIP3    H110700   4.813   3.694   2.735
 3589TIP3    H210701   4.916   3.675   2.842
 3590TIP3   OH210702   3.558   3.263   3.014
 3590TIP3    H110703   3.498   3.301   2.947
 3590TIP3    H210704   3.506   3.281   3.096
 3591TIP3   OH210705   3.904   4.115   2.022
 3591TIP3    H110706   3.861   4.095   1.938
 3591TIP3    H210707   3.859   4.199   2.047
 3592TIP3   OH210708   3.664   4.039   2.808
 3592TIP3    H110709   3.602   4.106   2.845
 3592TIP3    H210710   3.708   4.090   2.737
 3593TIP3   OH210711   4.463   3.377   2.376
 3593TIP3    H110712   4.456   3.325   2.457
 3593TIP3    H210713   4.517   3.453   2.405
 3594TIP3   OH210714   3.428   3.379   2.799
 3594TIP3    H110715   3.490   3.452   2.822
 3594TIP3    H210716   3.478   3.338   2.724
 3595TIP3   OH210717   3.492   4.234   2.906
 3595TIP3    H110718   3.466   4.321   2.870
 3595TIP3    H210719   3.414   4.217   2.964
 3596TIP3   OH210720   2.886   3.924   2.144
 3596TIP3    H110721   2.845   3.951   2.059
 3596TIP3    H210722   2.918   4.010   2.179
 3597TIP3   OH210723   4.325   4.439   2.383
 3597TIP3    H110724   4.235   4.431   2.422
 3597TIP3    H210725   4.317   4.526   2.339
 3598TIP3   OH210726   4.619   3.338   2.748
 3598TIP3    H110727   4.531   3.367   2.717
 3598TIP3    H210728   4.678   3.369   2.676
 3599TIP3   OH210729   3.912   2.982   2.728
 3599TIP3    H110730   3.899   2.887   2.747
 3599TIP3    H210731   3.835   3.020   2.775
 3600TIP3   OH210732   4.025   4.486   2.054
 3600TIP3    H110733   4.076   4.403   2.036
 3600TIP3    H210734   4.086   4.551   2.014
 3601TIP3   OH210735   4.170   4.270   1.966
 3601TIP3    H110736   4.131   4.190   1.930
 3601TIP3    H210737   4.207   4.238   2.051
 3602TIP3   OH210738   4.552   4.352   2.727
 3602TIP3    H110739   4.541   4.274   2.668
 3602TIP3    H210740   4.535   4.426   2.665
 3603TIP3   OH210741   3.843   3.745   1.985
 3603TIP3    H110742   3.763   3.797   1.962
 3603TIP3    H210743   3.890   3.743   1.900
 3604TIP3   OH210744   3.801   3.533   1.698
 3604TIP3    H110745   3.869   3.581   1.749
 3604TIP3    H210746   3.857   3.468   1.651
 3605TIP3   OH210747   4.747   3.989   2.572
 3605TIP3    H110748   4.664   4.041   2.577
 3605TIP3    H210749   4.777   4.013   2.482
 3606TIP3   OH210750   4.192   3.828   1.955
 3606TIP3    H110751   4.137   3.853   2.033
 3606TIP3    H210752   4.275   3.802   1.999
 3607TIP3   OH210753   4.426   3.867   2.870
 3607TIP3    H110754   4.424   3.949   2.923
 3607TIP3    H210755   4.340   3.872   2.825
 3608TIP3   OH210756   3.424   3.826   2.373
 3608TIP3    H110757   3.383   3.767   2.306
 3608TIP3    H210758   3.501   3.772   2.403
 3609TIP3   OH210759   3.554   4.240   2.520
 3609TIP3    H110760   3.535   4.196   2.436
 3609TIP3    H210761   3.644   4.205   2.540
 3610TIP3   OH210762   3.557   3.798   2.726
 3610TIP3    H110763   3.593   3.775   2.638
 3610TIP3    H210764   3.602   3.883   2.747
 3611TIP3   OH210765   4.083   4.435   2.504
 3611TIP3    H110766   4.072   4.514   2.560
 3611TIP3    H210767   4.070   4.361   2.567
 3612TIP3   OH210768   3.698   4.355   3.049
 3612TIP3    H110769   3.638   4.416   3.098
 3612TIP3    H210770   3.632   4.301   3.002
 3613TIP3   OH210771   4.031   3.687   1.783
 3613TIP3    H110772   4.091   3.745   1.835
 3613TIP3    H210773   4.057   3.711   1.691
 3614TIP3   OH210774   3.452   3.912   3.151
 3614TIP3    H110775   3.457   3.998   3.198
 3614TIP3    H210776   3.358   3.891   3.164
 3615TIP3   OH210777   3.776   4.365   2.056
 3615TIP3    H110778   3.857   4.416   2.070
 3615TIP3    H210779   3.715   4.431   2.020
 3616TIP3   OH210780   3.491   4.522   3.138
 3616TIP3    H110781   3.456   4.519   3.047
 3616TIP3    H210782   3.411   4.501   3.192
 3617TIP3   OH210783   4.552   2.930   1.830
 3617TIP3    H110784   4.470   2.943   1.882
 3617TIP3    H210785   4.559   3.015   1.782
 3618TIP3   OH210786   3.291   3.669   2.177
 3618TIP3    H110787   3.222   3.712   2.121
 3618TIP3    H210788   3.253   3.581   2.190
 3619TIP3   OH210789   4.347   4.293   1.379
 3619TIP3    H110790   4.355   4.390   1.365
 3619TIP3    H210791   4.440   4.265   1.367
 3620TIP3   OH210792   3.070   4.053   3.085
 3620TIP3    H110793   3.006   4.028   3.016
 3620TIP3    H210794   3.109   3.967   3.111
 3621TIP3   OH210795   2.927   4.247   2.714
 3621TIP3    H110796   3.022   4.234   2.705
 3621TIP3    H210797   2.923   4.322   2.775
 3622TIP3   OH210798   4.789   4.697   2.773
 3622TIP3    H110799   4.788   4.600   2.788
 3622TIP3    H210800   4.705   4.722   2.820
 3623TIP3   OH210801   3.894   4.485   2.906
 3623TIP3    H110802   3.893   4.577   2.941
 3623TIP3    H210803   3.824   4.443   2.961
 3624TIP3   OH210804   3.656   4.611   1.861
 3624TIP3    H110805   3.610   4.593   1.777
 3624TIP3    H210806   3.624   4.700   1.884
 3625TIP3   OH210807   3.093   4.460   2.245
 3625TIP3    H110808   3.141   4.451   2.330
 3625TIP3    H210809   3.043   4.377   2.244
 3626TIP3   OH210810   3.857   4.512   1.499
 3626TIP3    H110811   3.916   4.442   1.464
 3626TIP3    H210812   3.892   4.523   1.590
 3627TIP3   OH210813   3.908   4.561   1.769
 3627TIP3    H110814   3.820   4.570   1.813
 3627TIP3    H210815   3.961   4.522   1.841
 3628TIP3   OH210816   4.680   3.828   3.048
 3628TIP3    H110817   4.597   3.838   3.000
 3628TIP3    H210818   4.696   3.732   3.041
 3629TIP3   OH210819   3.276   4.236   3.073
 3629TIP3    H110820   3.327   4.219   3.156
 3629TIP3    H210821   3.202   4.172   3.081
 3630TIP3   OH210822   3.674   3.058   2.859
 3630TIP3    H110823   3.585   3.028   2.832
 3630TIP3    H210824   3.650   3.140   2.906
 3631TIP3   OH210825   4.209   3.172   3.052
 3631TIP3    H110826   4.278   3.148   3.118
 3631TIP3    H210827   4.126   3.154   3.100
 3632TIP3   OH210828   4.446   3.603   2.970
 3632TIP3    H110829   4.398   3.599   3.056
 3632TIP3    H210830   4.422   3.691   2.937
 3633TIP3   OH210831   4.106   3.732   1.526
 3633TIP3    H110832   4.074   3.706   1.437
 3633TIP3    H210833   4.189   3.778   1.503
 3634TIP3   OH210834   3.820   3.108   1.829
 3634TIP3    H110835   3.788   3.106   1.921
 3634TIP3    H210836   3.782   3.024   1.796
 3635TIP3   OH210837   3.605   3.575   2.875
 3635TIP3    H110838   3.558   3.596   2.958
 3635TIP3    H210839   3.589   3.656   2.823
 3636TIP3   OH210840   3.490   3.461   2.390
 3636TIP3    H110841   3.397   3.434   2.409
 3636TIP3    H210842   3.503   3.420   2.302
 3637TIP3   OH210843   3.981   3.546   2.119
 3637TIP3    H110844   3.928   3.617   2.076
 3637TIP3    H210845   4.036   3.514   2.045
 3638TIP3   OH210846   4.155   3.823   3.202
 3638TIP3    H110847   4.133   3.751   3.265
 3638TIP3    H210848   4.249   3.838   3.226
 3639TIP3   OH210849   4.138   3.573   2.356
 3639TIP3    H110850   4.077   3.601   2.285
 3639TIP3    H210851   4.172   3.492   2.314
 3640TIP3   OH210852   3.424   3.603   3.086
 3640TIP3    H110853   3.460   3.664   3.153
 3640TIP3    H210854   3.414   3.521   3.138
 3641TIP3   OH210855   3.476   3.081   1.794
 3641TIP3    H110856   3.468   3.078   1.892
 3641TIP3    H210857   3.396   3.133   1.771
 3642TIP3   OH210858   3.019   3.125   2.666
 3642TIP3    H110859   3.094   3.157   2.721
 3642TIP3    H210860   3.062   3.093   2.585
 3643TIP3   OH210861   2.988   3.106   2.185
 3643TIP3    H110862   3.033   3.144   2.107
 3643TIP3    H210863   2.927   3.179   2.206
 3644TIP3   OH210864   4.146   3.821   2.778
 3644TIP3    H110865   4.180   3.749   2.720
 3644TIP3    H210866   4.119   3.768   2.856
 3645TIP3   OH210867   3.819   3.286   2.452
 3645TIP3    H110868   3.739   3.282   2.507
 3645TIP3    H210869   3.890   3.278   2.518
 3646TIP3   OH210870   3.252   3.339   2.459
 3646TIP3    H110871   3.158   3.345   2.432
 3646TIP3    H210872   3.277   3.247   2.436
 3647TIP3   OH210873   3.519   3.334   2.149
 3647TIP3    H110874   3.614   3.348   2.130
 3647TIP3    H210875   3.474   3.357   2.065
 3648TIP3   OH210876   4.310   3.359   2.653
 3648TIP3    H110877   4.277   3.371   2.745
 3648TIP3    H210878   4.245   3.298   2.618
 3649TIP3   OH210879   3.363   3.370   1.926
 3649TIP3    H110880   3.292   3.324   1.878
 3649TIP3    H210881   3.416   3.406   1.851
 3650TIP3   OH210882   4.481   5.048   2.873
 3650TIP3    H110883   4.480   5.071   2.779
 3650TIP3    H210884   4.561   5.094   2.904
 3651TIP3   OH210885   3.437   4.159   3.294
 3651TIP3    H110886   3.517   4.187   3.342
 3651TIP3    H210887   3.373   4.156   3.368
 3652TIP3   OH210888   3.901   3.613   2.549
 3652TIP3    H110889   3.973   3.571   2.500
 3652TIP3    H210890   3.908   3.570   2.636
 3653TIP3   OH210891   3.421   3.099   2.429
 3653TIP3    H110892   3.387   3.019   2.477
 3653TIP3    H210893   3.475   3.059   2.360
 3654TIP3   OH210894   3.877   3.509   2.839
 3654TIP3    H110895   3.788   3.546   2.854
 3654TIP3    H210896   3.935   3.569   2.890
 3655TIP3   OH210897   3.613   3.899   1.931
 3655TIP3    H110898   3.541   3.833   1.921
 3655TIP3    H210899   3.595   3.932   2.023
 3656TIP3   OH210900   4.514   4.135   2.562
 3656TIP3    H110901   4.539   4.184   2.480
 3656TIP3    H210902   4.429   4.094   2.536
 3657TIP3   OH210903   4.070   3.212   1.792
 3657TIP3    H110904   3.975   3.193   1.806
 3657TIP3    H210905   4.080   3.305   1.822
 3658TIP3   OH210906   4.012   4.215   2.931
 3658TIP3    H110907   4.042   4.194   3.021
 3658TIP3    H210908   3.975   4.304   2.942
 3659TIP3   OH210909   4.140   3.457   1.900
 3659TIP3    H110910   4.237   3.463   1.917
 3659TIP3    H210911   4.123   3.538   1.848
 3660TIP3   OH210912   3.305   3.920   2.609
 3660TIP3    H110913   3.346   3.892   2.524
 3660TIP3    H210914   3.350   3.861   2.672
 3661TIP3   OH210915   3.758   4.047   1.753
 3661TIP3    H110916   3.711   4.133   1.760
 3661TIP3    H210917   3.705   3.992   1.814
 3662TIP3   OH210918   3.187   3.844   3.224
 3662TIP3    H110919   3.214   3.831   3.317
 3662TIP3    H210920   3.121   3.773   3.212
 3663TIP3   OH210921   3.915   3.958   3.239
 3663TIP3    H110922   3.857   3.896   3.192
 3663TIP3    H210923   4.003   3.923   3.215
 3664TIP3   OH210924   4.172   4.479   2.825
 3664TIP3    H110925   4.076   4.476   2.839
 3664TIP3    H210926   4.200   4.529   2.905
 3665TIP3   OH210927   4.584   3.549   1.734
 3665TIP3    H110928   4.521   3.503   1.673
 3665TIP3    H210929   4.579   3.638   1.694
 3666TIP3   OH210930   4.802   4.407   2.816
 3666TIP3    H110931   4.704   4.401   2.808
 3666TIP3    H210932   4.828   4.377   2.726
 3667TIP3   OH210933   4.281   4.368   1.643
 3667TIP3    H110934   4.260   4.298   1.706
 3667TIP3    H210935   4.297   4.319   1.560
 3668TIP3   OH210936   4.279   3.998   2.478
 3668TIP3    H110937   4.186   3.972   2.493
 3668TIP3    H210938   4.314   3.917   2.435
 3669TIP3   OH210939   3.407   4.224   2.234
 3669TIP3    H110940   3.408   4.306   2.181
 3669TIP3    H210941   3.313   4.209   2.245
 3670TIP3   OH210942   2.970   3.528   1.939
 3670TIP3    H110943   3.017   3.611   1.961
 3670TIP3    H210944   2.894   3.533   2.000
 3671TIP3   OH210945   3.543   3.989   2.177
 3671TIP3    H110946   3.509   4.079   2.197
 3671TIP3    H210947   3.509   3.939   2.253
 3672TIP3   OH210948   3.677   4.567   2.703
 3672TIP3    H110949   3.720   4.639   2.653
 3672TIP3    H210950   3.753   4.532   2.753
 3673TIP3   OH210951   3.325   4.465   2.086
 3673TIP3    H110952   3.240   4.472   2.133
 3673TIP3    H210953   3.357   4.557   2.090
 3674TIP3   OH210954   4.064   4.204   2.663
 3674TIP3    H110955   4.054   4.202   2.761
 3674TIP3    H210956   4.144   4.150   2.651
 3675TIP3   OH210957   4.040   4.095   1.546
 3675TIP3    H110958   4.095   4.071   1.624
 3675TIP3    H210959   3.953   4.068   1.577
 3676TIP3   OH210960   4.313   4.736   2.714
 3676TIP3    H110961   4.235   4.677   2.709
 3676TIP3    H210962   4.296   4.799   2.641
 3677TIP3   OH210963   4.379   4.569   1.365
 3677TIP3    H110964   4.419   4.643   1.315
 3677TIP3    H210965   4.299   4.615   1.397
 3678TIP3   OH210966   3.399   3.346   3.229
 3678TIP3    H110967   3.303   3.349   3.245
 3678TIP3    H210968   3.430   3.291   3.304
 3679TIP3   OH210969   4.201   4.028   1.760
 3679TIP3    H110970   4.191   3.962   1.832
 3679TIP3    H210971   4.298   4.026   1.749
 3680TIP3   OH210972   3.113   4.430   2.863
 3680TIP3    H110973   3.167   4.356   2.896
 3680TIP3    H210974   3.142   4.501   2.922
 3681TIP3   OH210975   3.403   4.075   1.545
 3681TIP3    H110976   3.419   3.983   1.518
 3681TIP3    H210977   3.385   4.065   1.640
 3682TIP3   OH210978   3.349   4.081   1.817
 3682TIP3    H110979   3.421   4.052   1.874
 3682TIP3    H210980   3.354   4.179   1.826
 3683TIP3   OH210981   3.084   3.772   2.021
 3683TIP3    H110982   3.018   3.817   2.078
 3683TIP3    H210983   3.100   3.842   1.954
 3684TIP3   OH210984   4.236   3.409   2.912
 3684TIP3    H110985   4.315   3.450   2.952
 3684TIP3    H210986   4.223   3.329   2.967
 3685TIP3   OH210987   4.115   3.162   2.078
 3685TIP3    H110988   4.105   3.185   1.984
 3685TIP3    H210989   4.157   3.242   2.115
 3686TIP3   OH210990   3.615   4.277   1.764
 3686TIP3    H110991   3.529   4.304   1.801
 3686TIP3    H210992   3.634   4.354   1.708
 3687TIP3   OH210993   3.801   3.343   2.180
 3687TIP3    H110994   3.868   3.413   2.163
 3687TIP3    H210995   3.808   3.333   2.278
 3688TIP3   OH210996   4.075   3.659   2.987
 3688TIP3    H110997   4.097   3.713   3.066
 3688TIP3    H210998   4.129   3.580   3.001
 3689TIP3   OH210999   3.949   3.067   2.281
 3689TIP3    H111000   3.947   3.141   2.344
 3689TIP3    H211001   4.011   3.103   2.213
 3690TIP3   OH211002   3.360   4.354   1.834
 3690TIP3    H111003   3.330   4.424   1.772
 3690TIP3    H211004   3.344   4.397   1.921
 3691TIP3   OH211005   3.461   3.067   2.071
 3691TIP3    H111006   3.458   3.156   2.109
 3691TIP3    H211007   3.557   3.049   2.079
 3692TIP3   OH211008   4.713   3.560   2.968
 3692TIP3    H111009   4.615   3.559   2.976
 3692TIP3    H211010   4.723   3.518   2.882
 3693TIP3   OH211011   4.365   3.754   2.356
 3693TIP3    H111012   4.289   3.694   2.369
 3693TIP3    H211013   4.437   3.708   2.404
 3694TIP3   OH211014   3.079   3.982   1.825
 3694TIP3    H111015   3.149   4.049   1.835
 3694TIP3    H211016   3.122   3.924   1.759
 3695TIP3   OH211017   3.022   3.257   1.960
 3695TIP3    H111018   3.019   3.355   1.955
 3695TIP3    H211019   2.943   3.231   1.911
 3696TIP3   OH211020   4.333   4.711   2.305
 3696TIP3    H111021   4.291   4.759   2.229
 3696TIP3    H211022   4.428   4.731   2.285
 3697TIP3   OH211023   3.409   2.979   2.833
 3697TIP3    H111024   3.379   2.945   2.746
 3697TIP3    H211025   3.399   2.900   2.890
 3698TIP3   OH211026   2.950   4.201   2.212
 3698TIP3    H111027   2.881   4.228   2.275
 3698TIP3    H211028   2.917   4.242   2.128
 3699TIP3   OH211029   3.107   4.742   3.285
 3699TIP3    H111030   3.194   4.742   3.332
 3699TIP3    H211031   3.088   4.646   3.283
 3700TIP3   OH211032   3.586   4.705   3.327
 3700TIP3    H111033   3.680   4.682   3.338
 3700TIP3    H211034   3.562   4.644   3.254
 3701TIP3   OH211035   3.566   4.278   1.455
 3701TIP3    H111036   3.511   4.208   1.496
 3701TIP3    H211037   3.644   4.226   1.428
 3702TIP3   OH211038   4.226   4.611   3.061
 3702TIP3    H111039   4.216   4.540   3.128
 3702TIP3    H211040   4.304   4.660   3.093
 3703TIP3   OH211041   4.003   4.318   1.369
 3703TIP3    H111042   4.046   4.255   1.430
 3703TIP3    H211043   4.063   4.318   1.292
 3704TIP3   OH211044   3.236   4.148   3.485
 3704TIP3    H111045   3.254   4.052   3.495
 3704TIP3    H211046   3.148   4.147   3.440
 3705TIP3   OH211047   3.214   3.795   1.680
 3705TIP3    H111048   3.269   3.761   1.753
 3705TIP3    H211049   3.282   3.799   1.609
 3706TIP3   OH211050   3.843   4.231   3.260
 3706TIP3    H111051   3.803   4.246   3.172
 3706TIP3    H211052   3.877   4.139   3.253
 3707TIP3   OH211053   3.722   3.994   1.484
 3707TIP3    H111054   3.726   4.008   1.581
 3707TIP3    H211055   3.724   3.896   1.480
 3708TIP3   OH211056   4.336   4.241   2.864
 3708TIP3    H111057   4.411   4.285   2.821
 3708TIP3    H211058   4.266   4.307   2.851
 3709TIP3   OH211059   3.357   3.876   3.461
 3709TIP3    H111060   3.435   3.822   3.443
 3709TIP3    H211061   3.378   3.907   3.552
 3710TIP3   OH211062   3.419   3.701   1.898
 3710TIP3    H111063   3.394   3.660   1.983
 3710TIP3    H211064   3.456   3.624   1.850
 3711TIP3   OH211065   3.687   3.760   3.124
 3711TIP3    H111066   3.613   3.824   3.130
 3711TIP3    H211067   3.739   3.796   3.049
 3712TIP3   OH211068   3.523   3.495   1.740
 3712TIP3    H111069   3.497   3.498   1.646
 3712TIP3    H211070   3.621   3.500   1.733
 3713TIP3   OH211071   4.206   4.164   3.260
 3713TIP3    H111072   4.289   4.139   3.218
 3713TIP3    H211073   4.202   4.102   3.335
 3714TIP3   OH211074   4.342   3.825   1.405
 3714TIP3    H111075   4.320   3.778   1.322
 3714TIP3    H211076   4.311   3.915   1.382
 3715TIP3   OH211077   3.813   3.552   3.254
 3715TIP3    H111078   3.815   3.473   3.197
 3715TIP3    H211079   3.770   3.618   3.196
 3716TIP3   OH211080   3.817   3.338   3.061
 3716TIP3    H111081   3.845   3.380   2.977
 3716TIP3    H211082   3.723   3.316   3.042
 3717TIP3   OH211083   3.841   3.872   2.934
 3717TIP3    H111084   3.927   3.882   2.890
 3717TIP3    H211085   3.787   3.940   2.889
 3718TIP3   OH211086   4.422   3.839   3.312
 3718TIP3    H111087   4.470   3.759   3.338
 3718TIP3    H211088   4.495   3.896   3.283
 3719TIP3   OH211089   4.466   4.093   3.050
 3719TIP3    H111090   4.409   4.148   2.992
 3719TIP3    H211091   4.554   4.114   3.010
 3720TIP3   OH211092   3.684   3.665   3.477
 3720TIP3    H111093   3.619   3.594   3.497
 3720TIP3    H211094   3.724   3.631   3.394
 3721TIP3   OH211095   3.948   3.102   3.130
 3721TIP3    H111096   3.900   3.185   3.107
 3721TIP3    H211097   3.878   3.035   3.119
 3722TIP3   OH211098   4.075   3.607   3.346
 3722TIP3    H111099   4.068   3.596   3.443
 3722TIP3    H211100   3.984   3.581   3.319
 3723TIP3   OH211101   4.311   3.552   3.198
 3723TIP3    H111102   4.238   3.556   3.262
 3723TIP3    H211103   4.386   3.524   3.255
 3724TIP3   OH211104   4.542   3.493   3.345
 3724TIP3    H111105   4.555   3.399   3.367
 3724TIP3    H211106   4.536   3.536   3.434
 3725TIP3   OH211107   3.530   3.442   3.538
 3725TIP3    H111108   3.539   3.350   3.508
 3725TIP3    H211109   3.565   3.436   3.629
 3726TIP3   OH211110   4.042   3.111   3.388
 3726TIP3    H111111   4.110   3.041   3.382
 3726TIP3    H211112   4.002   3.106   3.299
 3727TIP3   OH211113   4.106   3.327   3.548
 3727TIP3    H111114   4.085   3.257   3.483
 3727TIP3    H211115   4.029   3.386   3.541
 3728TIP3   OH211116   3.330   4.557   1.646
 3728TIP3    H111117   3.426   4.550   1.627
 3728TIP3    H211118   3.302   4.607   1.567
 3729TIP3   OH211119   2.810   3.938   1.860
 3729TIP3    H111120   2.905   3.959   1.848
 3729TIP3    H211121   2.804   3.849   1.820
 3730TIP3   OH211122   2.719   4.550   2.282
 3730TIP3    H111123   2.655   4.486   2.244
 3730TIP3    H211124   2.767   4.492   2.345
 3731TIP3   OH211125   2.858   4.399   2.465
 3731TIP3    H111126   2.850   4.326   2.529
 3731TIP3    H211127   2.911   4.462   2.517
 3732TIP3   OH211128   4.586   4.804   2.263
 3732TIP3    H111129   4.615   4.834   2.351
 3732TIP3    H211130   4.654   4.842   2.205
 3733TIP3   OH211131   4.617   4.822   2.546
 3733TIP3    H111132   4.573   4.734   2.542
 3733TIP3    H211133   4.692   4.799   2.602
 3734TIP3   OH211134   4.662   4.499   3.118
 3734TIP3    H111135   4.589   4.507   3.184
 3734TIP3    H211136   4.704   4.587   3.124
 3735TIP3   OH211137   4.480   4.011   1.737
 3735TIP3    H111138   4.548   4.075   1.709
 3735TIP3    H211139   4.522   3.972   1.816
 3736TIP3   OH211140   4.606   3.879   1.941
 3736TIP3    H111141   4.541   3.836   2.001
 3736TIP3    H211142   4.673   3.915   2.003
 3737TIP3   OH211143   4.661   4.271   2.372
 3737TIP3    H111144   4.716   4.205   2.325
 3737TIP3    H211145   4.656   4.344   2.307
 3738TIP3   OH211146   4.491   4.571   2.567
 3738TIP3    H111147   4.420   4.612   2.620
 3738TIP3    H211148   4.441   4.523   2.498
 3739TIP3   OH211149   4.544   3.786   1.588
 3739TIP3    H111150   4.471   3.790   1.522
 3739TIP3    H211151   4.519   3.862   1.644
 3740TIP3   OH211152   4.415   3.458   1.540
 3740TIP3    H111153   4.369   3.495   1.464
 3740TIP3    H211154   4.393   3.363   1.532
 3741TIP3   OH211155   4.419   3.735   2.087
 3741TIP3    H111156   4.428   3.638   2.083
 3741TIP3    H211157   4.406   3.750   2.183
 3742TIP3   OH211158   3.046   3.811   2.834
 3742TIP3    H111159   3.045   3.777   2.742
 3742TIP3    H211160   3.143   3.811   2.851
 3743TIP3   OH211161   4.711   4.160   2.944
 3743TIP3    H111162   4.782   4.093   2.935
 3743TIP3    H211163   4.739   4.229   2.882
 3744TIP3   OH211164   4.895   3.965   2.957
 3744TIP3    H111165   4.821   3.914   2.997
 3744TIP3    H211166   4.968   3.901   2.973
 3745TIP3   OH211167   4.360   3.191   1.522
 3745TIP3    H111168   4.435   3.163   1.579
 3745TIP3    H211169   4.287   3.135   1.551
 3746TIP3   OH211170   4.416   3.451   1.980
 3746TIP3    H111171   4.457   3.363   1.997
 3746TIP3    H211172   4.475   3.484   1.911
 3747TIP3   OH211173   4.578   3.624   2.476
 3747TIP3    H111174   4.664   3.650   2.436
 3747TIP3    H211175   4.591   3.661   2.566
 3748TIP3   OH211176   4.647   3.769   2.708
 3748TIP3    H111177   4.570   3.803   2.759
 3748TIP3    H211178   4.679   3.850   2.664
 3749TIP3   OH211179   3.262   3.493   3.502
 3749TIP3    H111180   3.360   3.491   3.510
 3749TIP3    H211181   3.240   3.409   3.548
 3750TIP3   OH211182   5.096   3.358   3.264
 3750TIP3    H111183   5.157   3.295   3.222
 3750TIP3    H211184   5.070   3.415   3.189
 3751TIP3   OH211185   4.527   3.202   2.020
 3751TIP3    H111186   4.573   3.185   2.104
 3751TIP3    H211187   4.466   3.125   2.017
 3752TIP3   OH211188   3.225   3.188   2.840
 3752TIP3    H111189   3.288   3.113   2.850
 3752TIP3    H211190   3.287   3.262   2.833
 3753TIP3   OH211191   3.026   3.461   2.911
 3753TIP3    H111192   3.077   3.455   2.827
 3753TIP3    H211193   3.059   3.544   2.948
 3754TIP3   OH211194   4.969   3.500   3.070
 3754TIP3    H111195   4.884   3.541   3.094
 3754TIP3    H211196   4.938   3.428   3.012
 3755TIP3   OH211197   4.604   3.139   1.649
 3755TIP3    H111198   4.646   3.064   1.602
 3755TIP3    H211199   4.674   3.207   1.647
 3756TIP3   OH211200   3.011   2.962   2.413
 3756TIP3    H111201   2.918   2.961   2.440
 3756TIP3    H211202   3.009   3.021   2.335
 3757TIP3   OH211203   4.168   4.670   1.919
 3757TIP3    H111204   4.222   4.655   1.838
 3757TIP3    H211205   4.223   4.733   1.968
 3758TIP3   OH211206   3.231   3.043   3.227
 3758TIP3    H111207   3.183   3.039   3.311
 3758TIP3    H211208   3.164   3.082   3.168
 3759TIP3   OH211209   3.270   4.476   3.303
 3759TIP3    H111210   3.179   4.446   3.289
 3759TIP3    H211211   3.287   4.451   3.395
 3760TIP3   OH211212   3.450   4.505   2.852
 3760TIP3    H111213   3.404   4.582   2.813
 3760TIP3    H211214   3.536   4.517   2.808
 3761TIP3   OH211215   3.894   4.750   2.991
 3761TIP3    H111216   3.936   4.748   3.079
 3761TIP3    H211217   3.961   4.800   2.940
 3762TIP3   OH211218   4.073   4.902   2.849
 3762TIP3    H111219   4.144   4.849   2.809
 3762TIP3    H211220   4.125   4.959   2.910
 3763TIP3   OH211221   4.869   3.263   2.949
 3763TIP3    H111222   4.778   3.256   2.915
 3763TIP3    H211223   4.900   3.170   2.937
 3764TIP3   OH211224   3.126   4.762   2.875
 3764TIP3    H111225   3.036   4.796   2.854
 3764TIP3    H211226   3.139   4.800   2.963
 3765TIP3   OH211227   3.363   4.741   2.734
 3765TIP3    H111228   3.276   4.753   2.779
 3765TIP3    H211229   3.343   4.773   2.644
 3766TIP3   OH211230   3.788   4.769   2.532
 3766TIP3    H111231   3.719   4.789   2.467
 3766TIP3    H211232   3.801   4.856   2.575
 3767TIP3   OH211233   4.057   4.708   2.584
 3767TIP3    H111234   3.963   4.725   2.564
 3767TIP3    H211235   4.101   4.784   2.541
 3768TIP3   OH211236   4.263   4.899   2.498
 3768TIP3    H111237   4.250   4.984   2.450
 3768TIP3    H211238   4.290   4.839   2.425
 3769TIP3   OH211239   3.037   4.554   2.622
 3769TIP3    H111240   3.065   4.527   2.712
 3769TIP3    H211241   3.109   4.512   2.570
 3770TIP3   OH211242   3.232   4.427   2.479
 3770TIP3    H111243   3.247   4.343   2.527
 3770TIP3    H211244   3.323   4.463   2.476
 3771TIP3   OH211245   3.499   4.521   2.483
 3771TIP3    H111246   3.529   4.428   2.472
 3771TIP3    H211247   3.546   4.542   2.566
 3772TIP3   OH211248   4.070   3.176   2.563
 3772TIP3    H111249   4.031   3.105   2.618
 3772TIP3    H211250   4.146   3.131   2.521
 3773TIP3   OH211251   4.598   3.070   2.484
 3773TIP3    H111252   4.633   3.112   2.402
 3773TIP3    H211253   4.502   3.075   2.468
 3774TIP3   OH211254   4.691   3.156   2.238
 3774TIP3    H111255   4.764   3.104   2.198
 3774TIP3    H211256   4.725   3.248   2.223
 3775TIP3   OH211257   3.322   2.886   2.584
 3775TIP3    H111258   3.230   2.852   2.585
 3775TIP3    H211259   3.372   2.802   2.581
 3776TIP3   OH211260   3.111   2.756   2.234
 3776TIP3    H111261   3.140   2.813   2.160
 3776TIP3    H211262   3.082   2.821   2.300
 3777TIP3   OH211263   3.762   2.920   2.467
 3777TIP3    H111264   3.823   2.959   2.402
 3777TIP3    H211265   3.794   2.956   2.550
 3778TIP3   OH211266   4.310   3.065   2.448
 3778TIP3    H111267   4.323   3.023   2.362
 3778TIP3    H211268   4.299   2.986   2.506
 3779TIP3   OH211269   4.347   2.986   2.010
 3779TIP3    H111270   4.258   3.018   2.029
 3779TIP3    H211271   4.348   2.899   2.054
 3780TIP3   OH211272   2.825   4.329   2.010
 3780TIP3    H111273   2.740   4.295   1.976
 3780TIP3    H211274   2.816   4.423   1.988
 3781TIP3   OH211275   3.227   2.914   1.997
 3781TIP3    H111276   3.275   2.852   1.939
 3781TIP3    H211277   3.301   2.968   2.032
 3782TIP3   OH211278   3.738   3.091   2.094
 3782TIP3    H111279   3.798   3.043   2.154
 3782TIP3    H211280   3.759   3.183   2.120
 3783TIP3   OH211281   3.598   4.513   1.594
 3783TIP3    H111282   3.686   4.536   1.558
 3783TIP3    H211283   3.576   4.438   1.535
 3784TIP3   OH211284   4.316   4.634   1.687
 3784TIP3    H111285   4.307   4.537   1.674
 3784TIP3    H211286   4.272   4.667   1.606
 3785TIP3   OH211287   3.530   3.164   3.473
 3785TIP3    H111288   3.496   3.095   3.533
 3785TIP3    H211289   3.624   3.166   3.501
 3786TIP3   OH211290   3.777   3.162   3.592
 3786TIP3    H111291   3.865   3.141   3.555
 3786TIP3    H211292   3.767   3.092   3.659
 3787TIP3   OH211293   2.902   4.352   1.650
 3787TIP3    H111294   2.904   4.374   1.745
 3787TIP3    H211295   2.990   4.309   1.636
 3788TIP3   OH211296   4.604   3.224   3.382
 3788TIP3    H111297   4.623   3.196   3.474
 3788TIP3    H211298   4.693   3.222   3.341
 3789TIP3   OH211299   4.542   4.778   2.875
 3789TIP3    H111300   4.463   4.747   2.826
 3789TIP3    H211301   4.523   4.874   2.880
 3790TIP3   OH211302   5.810   4.150   1.639
 3790TIP3    H111303   5.781   4.242   1.619
 3790TIP3    H211304   5.732   4.101   1.608
 3791TIP3   OH211305   5.809   4.150   2.024
 3791TIP3    H111306   5.842   4.125   2.112
 3791TIP3    H211307   5.767   4.068   1.994
 3792TIP3   OH211308   5.106   4.044   2.388
 3792TIP3    H111309   5.137   3.976   2.452
 3792TIP3    H211310   5.185   4.100   2.382
 3793TIP3   OH211311   6.053   4.451   1.705
 3793TIP3    H111312   6.038   4.384   1.773
 3793TIP3    H211313   6.082   4.528   1.758
 3794TIP3   OH211314   5.079   4.455   2.110
 3794TIP3    H111315   5.070   4.357   2.112
 3794TIP3    H211316   5.176   4.464   2.105
 3795TIP3   OH211317   4.786   3.659   1.894
 3795TIP3    H111318   4.738   3.742   1.911
 3795TIP3    H211319   4.715   3.605   1.856
 3796TIP3   OH211320   4.844   3.945   2.069
 3796TIP3    H111321   4.893   3.868   2.106
 3796TIP3    H211322   4.907   3.980   2.005
 3797TIP3   OH211323   5.702   4.914   1.721
 3797TIP3    H111324   5.746   4.843   1.669
 3797TIP3    H211325   5.696   4.874   1.808
 3798TIP3   OH211326   5.607   4.376   2.070
 3798TIP3    H111327   5.646   4.300   2.025
 3798TIP3    H211328   5.690   4.423   2.095
 3799TIP3   OH211329   6.622   3.697   2.068
 3799TIP3    H111330   6.650   3.779   2.113
 3799TIP3    H211331   6.640   3.719   1.975
 3800TIP3   OH211332   6.021   3.878   2.101
 3800TIP3    H111333   6.062   3.792   2.122
 3800TIP3    H211334   5.988   3.861   2.011
 3801TIP3   OH211335   5.358   3.537   2.067
 3801TIP3    H111336   5.338   3.609   2.004
 3801TIP3    H211337   5.310   3.463   2.024
 3802TIP3   OH211338   6.053   3.628   1.689
 3802TIP3    H111339   6.125   3.613   1.754
 3802TIP3    H211340   6.104   3.664   1.615
 3803TIP3   OH211341   4.991   3.739   2.175
 3803TIP3    H111342   5.074   3.719   2.223
 3803TIP3    H211343   5.004   3.684   2.095
 3804TIP3   OH211344   5.431   3.937   1.968
 3804TIP3    H111345   5.525   3.912   1.982
 3804TIP3    H211346   5.393   3.853   1.937
 3805TIP3   OH211347   6.694   3.905   2.237
 3805TIP3    H111348   6.609   3.951   2.219
 3805TIP3    H211349   6.709   3.930   2.329
 3806TIP3   OH211350   5.354   3.520   2.501
 3806TIP3    H111351   5.294   3.557   2.434
 3806TIP3    H211352   5.302   3.538   2.583
 3807TIP3   OH211353   5.696   4.369   1.511
 3807TIP3    H111354   5.659   4.355   1.423
 3807TIP3    H211355   5.654   4.454   1.536
 3808TIP3   OH211356   5.460   4.296   2.295
 3808TIP3    H111357   5.398   4.363   2.332
 3808TIP3    H211358   5.503   4.346   2.223
 3809TIP3   OH211359   6.262   3.631   1.864
 3809TIP3    H111360   6.244   3.588   1.949
 3809TIP3    H211361   6.313   3.709   1.891
 3810TIP3   OH211362   5.225   3.635   2.285
 3810TIP3    H111363   5.287   3.708   2.309
 3810TIP3    H211364   5.275   3.594   2.211
 3811TIP3   OH211365   5.289   4.491   2.394
 3811TIP3    H111366   5.263   4.578   2.356
 3811TIP3    H211367   5.210   4.475   2.450
 3812TIP3   OH211368   4.682   4.181   1.631
 3812TIP3    H111369   4.642   4.209   1.546
 3812TIP3    H211370   4.714   4.266   1.667
 3813TIP3   OH211371   6.122   4.696   1.870
 3813TIP3    H111372   6.032   4.688   1.909
 3813TIP3    H211373   6.114   4.782   1.825
 3814TIP3   OH211374   6.414   3.595   2.233
 3814TIP3    H111375   6.327   3.625   2.204
 3814TIP3    H211376   6.473   3.628   2.161
 3815TIP3   OH211377   5.709   3.238   2.216
 3815TIP3    H111378   5.695   3.143   2.235
 3815TIP3    H211379   5.631   3.276   2.262
 3816TIP3   OH211380   5.821   4.742   1.542
 3816TIP3    H111381   5.872   4.660   1.522
 3816TIP3    H211382   5.882   4.808   1.502
 3817TIP3   OH211383   5.964   4.526   1.454
 3817TIP3    H111384   5.934   4.445   1.411
 3817TIP3    H211385   6.001   4.491   1.538
 3818TIP3   OH211386   6.349   4.608   2.214
 3818TIP3    H111387   6.337   4.531   2.155
 3818TIP3    H211388   6.330   4.683   2.153
 3819TIP3   OH211389   5.639   4.001   1.471
 3819TIP3    H111390   5.559   4.054   1.451
 3819TIP3    H211391   5.686   4.002   1.386
 3820TIP3   OH211392   5.598   3.790   1.187
 3820TIP3    H111393   5.667   3.838   1.236
 3820TIP3    H211394   5.653   3.726   1.138
 3821TIP3   OH211395   6.544   4.246   2.059
 3821TIP3    H111396   6.460   4.297   2.064
 3821TIP3    H211397   6.573   4.270   1.969
 3822TIP3   OH211398   5.987   4.083   1.443
 3822TIP3    H111399   5.932   4.109   1.521
 3822TIP3    H211400   6.071   4.059   1.487
 3823TIP3   OH211401   6.222   4.124   2.357
 3823TIP3    H111402   6.220   4.206   2.408
 3823TIP3    H211403   6.136   4.128   2.311
 3824TIP3   OH211404   5.219   4.081   1.860
 3824TIP3    H111405   5.180   4.023   1.792
 3824TIP3    H211406   5.297   4.029   1.890
 3825TIP3   OH211407   5.349   4.494   2.008
 3825TIP3    H111408   5.330   4.454   1.921
 3825TIP3    H211409   5.439   4.460   2.027
 3826TIP3   OH211410   5.354   4.054   2.213
 3826TIP3    H111411   5.389   4.032   2.125
 3826TIP3    H211412   5.398   4.139   2.233
 3827TIP3   OH211413   5.881   4.692   1.991
 3827TIP3    H111414   5.867   4.771   2.046
 3827TIP3    H211415   5.866   4.619   2.055
 3828TIP3   OH211416   5.494   4.610   2.538
 3828TIP3    H111417   5.434   4.672   2.584
 3828TIP3    H211418   5.428   4.557   2.488
 3829TIP3   OH211419   5.829   3.942   1.269
 3829TIP3    H111420   5.887   4.002   1.320
 3829TIP3    H211421   5.854   3.966   1.176
 3830TIP3   OH211422   5.248   4.167   2.639
 3830TIP3    H111423   5.253   4.254   2.684
 3830TIP3    H211424   5.153   4.146   2.651
 3831TIP3   OH211425   5.572   4.622   1.546
 3831TIP3    H111426   5.654   4.674   1.557
 3831TIP3    H211427   5.512   4.685   1.504
 3832TIP3   OH211428   5.288   4.778   2.625
 3832TIP3    H111429   5.253   4.777   2.534
 3832TIP3    H211430   5.208   4.757   2.678
 3833TIP3   OH211431   6.343   3.182   1.318
 3833TIP3    H111432   6.262   3.203   1.369
 3833TIP3    H211433   6.356   3.266   1.269
 3834TIP3   OH211434   5.088   3.925   1.661
 3834TIP3    H111435   5.019   3.969   1.607
 3834TIP3    H211436   5.048   3.840   1.679
 3835TIP3   OH211437   6.142   4.549   0.869
 3835TIP3    H111438   6.149   4.645   0.852
 3835TIP3    H211439   6.235   4.521   0.857
 3836TIP3   OH211440   4.867   4.309   2.572
 3836TIP3    H111441   4.801   4.285   2.503
 3836TIP3    H211442   4.905   4.222   2.597
 3837TIP3   OH211443   4.722   4.502   2.202
 3837TIP3    H111444   4.818   4.494   2.194
 3837TIP3    H211445   4.715   4.579   2.261
 3838TIP3   OH211446   6.586   4.954   2.261
 3838TIP3    H111447   6.584   4.858   2.275
 3838TIP3    H211448   6.502   4.979   2.306
 3839TIP3   OH211449   5.691   4.740   2.395
 3839TIP3    H111450   5.689   4.832   2.427
 3839TIP3    H211451   5.620   4.699   2.449
 3840TIP3   OH211452   5.451   4.865   1.349
 3840TIP3    H111453   5.409   4.847   1.263
 3840TIP3    H211454   5.420   4.955   1.369
 3841TIP3   OH211455   4.889   4.717   1.732
 3841TIP3    H111456   4.938   4.708   1.817
 3841TIP3    H211457   4.836   4.635   1.733
 3842TIP3   OH211458   5.653   4.768   0.989
 3842TIP3    H111459   5.711   4.699   0.951
 3842TIP3    H211460   5.691   4.778   1.079
 3843TIP3   OH211461   5.704   4.819   1.258
 3843TIP3    H111462   5.616   4.826   1.301
 3843TIP3    H211463   5.757   4.780   1.330
 3844TIP3   OH211464   6.477   4.085   2.534
 3844TIP3    H111465   6.393   4.096   2.488
 3844TIP3    H211466   6.491   3.989   2.527
 3845TIP3   OH211467   5.072   4.492   2.559
 3845TIP3    H111468   5.122   4.475   2.642
 3845TIP3    H211469   4.998   4.429   2.567
 3846TIP3   OH211470   5.471   3.316   2.346
 3846TIP3    H111471   5.382   3.285   2.319
 3846TIP3    H211472   5.445   3.397   2.393
 3847TIP3   OH211473   6.005   3.429   2.539
 3847TIP3    H111474   6.074   3.404   2.604
 3847TIP3    H211475   5.922   3.410   2.587
 3848TIP3   OH211476   6.244   3.860   2.458
 3848TIP3    H111477   6.195   3.856   2.544
 3848TIP3    H211478   6.219   3.948   2.423
 3849TIP3   OH211479   5.900   3.982   1.009
 3849TIP3    H111480   5.869   3.963   0.918
 3849TIP3    H211481   5.981   4.033   0.989
 3850TIP3   OH211482   5.618   3.372   1.316
 3850TIP3    H111483   5.586   3.362   1.408
 3850TIP3    H211484   5.582   3.290   1.276
 3851TIP3   OH211485   5.402   3.831   2.362
 3851TIP3    H111486   5.354   3.852   2.445
 3851TIP3    H211487   5.386   3.913   2.310
 3852TIP3   OH211488   5.286   3.718   1.877
 3852TIP3    H111489   5.194   3.690   1.896
 3852TIP3    H211490   5.299   3.676   1.789
 3853TIP3   OH211491   5.777   3.803   1.605
 3853TIP3    H111492   5.724   3.874   1.563
 3853TIP3    H211493   5.832   3.772   1.531
 3854TIP3   OH211494   5.952   4.080   2.690
 3854TIP3    H111495   5.929   4.008   2.752
 3854TIP3    H211496   6.046   4.094   2.713
 3855TIP3   OH211497   5.934   3.830   1.844
 3855TIP3    H111498   5.873   3.860   1.773
 3855TIP3    H211499   5.968   3.749   1.800
 3856TIP3   OH211500   5.221   3.860   2.572
 3856TIP3    H111501   5.253   3.921   2.640
 3856TIP3    H211502   5.210   3.777   2.624
 3857TIP3   OH211503   5.261   3.331   1.285
 3857TIP3    H111504   5.267   3.325   1.382
 3857TIP3    H211505   5.188   3.392   1.275
 3858TIP3   OH211506   4.815   3.381   2.152
 3858TIP3    H111507   4.889   3.413   2.207
 3858TIP3    H211508   4.858   3.348   2.072
 3859TIP3   OH211509   4.785   3.362   1.669
 3859TIP3    H111510   4.833   3.400   1.593
 3859TIP3    H211511   4.725   3.436   1.691
 3860TIP3   OH211512   5.944   4.077   2.265
 3860TIP3    H111513   5.977   4.005   2.207
 3860TIP3    H211514   5.915   4.024   2.343
 3861TIP3   OH211515   5.616   3.540   1.939
 3861TIP3    H111516   5.534   3.537   1.992
 3861TIP3    H211517   5.685   3.536   2.007
 3862TIP3   OH211518   5.049   3.596   1.946
 3862TIP3    H111519   4.954   3.601   1.919
 3862TIP3    H211520   5.073   3.504   1.924
 3863TIP3   OH211521   5.317   3.591   1.636
 3863TIP3    H111522   5.411   3.605   1.616
 3863TIP3    H211523   5.271   3.613   1.552
 3864TIP3   OH211524   6.106   3.614   2.138
 3864TIP3    H111525   6.075   3.627   2.231
 3864TIP3    H211526   6.038   3.554   2.105
 3865TIP3   OH211527   5.157   3.621   1.413
 3865TIP3    H111528   5.081   3.587   1.364
 3865TIP3    H211529   5.211   3.659   1.340
 3866TIP3   OH211530   6.278   5.303   2.360
 3866TIP3    H111531   6.274   5.328   2.266
 3866TIP3    H211532   6.354   5.354   2.391
 3867TIP3   OH211533   5.233   4.415   2.780
 3867TIP3    H111534   5.313   4.444   2.828
 3867TIP3    H211535   5.168   4.412   2.854
 3868TIP3   OH211536   5.697   3.869   2.036
 3868TIP3    H111537   5.769   3.827   1.988
 3868TIP3    H211538   5.704   3.826   2.124
 3869TIP3   OH211539   5.217   3.354   1.916
 3869TIP3    H111540   5.183   3.276   1.964
 3869TIP3    H211541   5.271   3.313   1.848
 3870TIP3   OH211542   5.673   3.767   2.324
 3870TIP3    H111543   5.584   3.802   2.340
 3870TIP3    H211544   5.731   3.826   2.376
 3871TIP3   OH211545   5.410   4.154   1.419
 3871TIP3    H111546   5.336   4.090   1.409
 3871TIP3    H211547   5.392   4.188   1.510
 3872TIP3   OH211548   6.310   4.391   2.049
 3872TIP3    H111549   6.335   4.440   1.968
 3872TIP3    H211550   6.225   4.350   2.024
 3873TIP3   OH211551   5.868   3.470   1.279
 3873TIP3    H111552   5.772   3.452   1.292
 3873TIP3    H211553   5.878   3.563   1.308
 3874TIP3   OH211554   5.808   4.472   2.418
 3874TIP3    H111555   5.836   4.452   2.509
 3874TIP3    H211556   5.771   4.562   2.426
 3875TIP3   OH211557   5.937   3.714   1.387
 3875TIP3    H111558   6.033   3.721   1.403
 3875TIP3    H211559   5.918   3.794   1.335
 3876TIP3   OH211560   5.101   4.176   2.096
 3876TIP3    H111561   5.141   4.149   2.011
 3876TIP3    H211562   5.146   4.117   2.158
 3877TIP3   OH211563   5.556   4.304   1.242
 3877TIP3    H111564   5.508   4.390   1.248
 3877TIP3    H211565   5.502   4.249   1.303
 3878TIP3   OH211566   4.984   4.099   2.710
 3878TIP3    H111567   5.005   4.085   2.804
 3878TIP3    H211568   4.916   4.030   2.696
 3879TIP3   OH211569   5.710   4.214   2.728
 3879TIP3    H111570   5.651   4.153   2.681
 3879TIP3    H211571   5.798   4.179   2.702
 3880TIP3   OH211572   5.969   4.732   2.315
 3880TIP3    H111573   5.873   4.732   2.326
 3880TIP3    H211574   5.997   4.784   2.393
 3881TIP3   OH211575   6.380   3.806   1.222
 3881TIP3    H111576   6.318   3.761   1.160
 3881TIP3    H211577   6.376   3.895   1.181
 3882TIP3   OH211578   6.599   4.664   2.303
 3882TIP3    H111579   6.501   4.658   2.295
 3882TIP3    H211580   6.624   4.634   2.213
 3883TIP3   OH211581   6.080   4.624   1.131
 3883TIP3    H111582   6.056   4.549   1.188
 3883TIP3    H211583   6.096   4.582   1.044
 3884TIP3   OH211584   6.075   4.254   1.966
 3884TIP3    H111585   5.982   4.228   1.980
 3884TIP3    H211586   6.110   4.174   1.922
 3885TIP3   OH211587   5.204   4.481   1.722
 3885TIP3    H111588   5.206   4.562   1.668
 3885TIP3    H211589   5.110   4.466   1.731
 3886TIP3   OH211590   4.765   3.786   1.423
 3886TIP3    H111591   4.813   3.868   1.445
 3886TIP3    H211592   4.690   3.791   1.486
 3887TIP3   OH211593   5.339   4.245   1.664
 3887TIP3    H111594   5.306   4.336   1.683
 3887TIP3    H211595   5.304   4.196   1.741
 3888TIP3   OH211596   5.473   4.824   2.190
 3888TIP3    H111597   5.515   4.897   2.139
 3888TIP3    H211598   5.550   4.789   2.238
 3889TIP3   OH211599   5.123   4.720   1.574
 3889TIP3    H111600   5.037   4.729   1.620
 3889TIP3    H211601   5.155   4.813   1.577
 3890TIP3   OH211602   5.860   4.460   2.150
 3890TIP3    H111603   5.850   4.458   2.248
 3890TIP3    H211604   5.940   4.407   2.138
 3891TIP3   OH211605   5.836   4.346   1.034
 3891TIP3    H111606   5.889   4.324   1.114
 3891TIP3    H211607   5.747   4.327   1.066
 3892TIP3   OH211608   6.110   4.992   2.200
 3892TIP3    H111609   6.030   4.936   2.193
 3892TIP3    H211610   6.094   5.056   2.127
 3893TIP3   OH211611   6.173   4.821   0.854
 3893TIP3    H111612   6.202   4.877   0.781
 3893TIP3    H211613   6.098   4.875   0.887
 3894TIP3   OH211614   5.195   3.603   2.716
 3894TIP3    H111615   5.099   3.607   2.731
 3894TIP3    H211616   5.224   3.547   2.790
 3895TIP3   OH211617   5.996   4.286   1.251
 3895TIP3    H111618   5.988   4.218   1.321
 3895TIP3    H211619   6.093   4.284   1.236
 3896TIP3   OH211620   4.910   4.687   2.350
 3896TIP3    H111621   4.964   4.613   2.383
 3896TIP3    H211622   4.939   4.758   2.408
 3897TIP3   OH211623   5.201   4.333   1.032
 3897TIP3    H111624   5.216   4.241   1.005
 3897TIP3    H211625   5.182   4.323   1.128
 3898TIP3   OH211626   5.145   4.337   1.306
 3898TIP3    H111627   5.220   4.311   1.362
 3898TIP3    H211628   5.149   4.435   1.311
 3899TIP3   OH211629   4.879   4.028   1.507
 3899TIP3    H111630   4.815   4.075   1.565
 3899TIP3    H211631   4.896   4.098   1.441
 3900TIP3   OH211632   6.035   3.664   2.397
 3900TIP3    H111633   6.111   3.705   2.441
 3900TIP3    H211634   6.019   3.585   2.453
 3901TIP3   OH211635   5.916   3.417   1.564
 3901TIP3    H111636   5.899   3.443   1.472
 3901TIP3    H211637   5.954   3.499   1.602
 3902TIP3   OH211638   5.412   4.532   1.253
 3902TIP3    H111639   5.326   4.562   1.288
 3902TIP3    H211640   5.430   4.602   1.189
 3903TIP3   OH211641   5.600   3.598   1.667
 3903TIP3    H111642   5.664   3.670   1.650
 3903TIP3    H211643   5.605   3.591   1.765
 3904TIP3   OH211644   5.872   3.916   2.474
 3904TIP3    H111645   5.892   3.970   2.553
 3904TIP3    H211646   5.925   3.837   2.490
 3905TIP3   OH211647   5.745   3.324   1.769
 3905TIP3    H111648   5.738   3.402   1.828
 3905TIP3    H211649   5.807   3.359   1.700
 3906TIP3   OH211650   5.155   4.609   1.320
 3906TIP3    H111651   5.127   4.680   1.258
 3906TIP3    H211652   5.141   4.654   1.407
 3907TIP3   OH211653   5.258   3.324   1.560
 3907TIP3    H111654   5.255   3.414   1.597
 3907TIP3    H211655   5.354   3.305   1.570
 3908TIP3   OH211656   6.510   3.816   2.454
 3908TIP3    H111657   6.412   3.816   2.464
 3908TIP3    H211658   6.518   3.773   2.368
 3909TIP3   OH211659   6.161   4.010   1.843
 3909TIP3    H111660   6.085   3.952   1.856
 3909TIP3    H211661   6.232   3.963   1.892
 3910TIP3   OH211662   4.874   4.240   1.313
 3910TIP3    H111663   4.942   4.308   1.322
 3910TIP3    H211664   4.918   4.183   1.246
 3911TIP3   OH211665   4.820   3.515   1.442
 3911TIP3    H111666   4.818   3.613   1.440
 3911TIP3    H211667   4.732   3.493   1.410
 3912TIP3   OH211668   6.130   4.967   1.792
 3912TIP3    H111669   6.087   5.015   1.717
 3912TIP3    H211670   6.224   4.986   1.771
 3913TIP3   OH211671   5.206   3.235   2.319
 3913TIP3    H111672   5.175   3.201   2.232
 3913TIP3    H211673   5.196   3.156   2.376
 3914TIP3   OH211674   4.744   4.453   1.699
 3914TIP3    H111675   4.677   4.484   1.762
 3914TIP3    H211676   4.713   4.496   1.616
 3915TIP3   OH211677   4.903   4.999   2.772
 3915TIP3    H111678   4.989   4.999   2.819
 3915TIP3    H211679   4.884   4.903   2.770
 3916TIP3   OH211680   5.380   4.960   2.816
 3916TIP3    H111681   5.475   4.943   2.825
 3916TIP3    H211682   5.358   4.899   2.742
 3917TIP3   OH211683   5.366   4.538   0.945
 3917TIP3    H111684   5.314   4.462   0.981
 3917TIP3    H211685   5.440   4.491   0.902
 3918TIP3   OH211686   6.022   4.867   2.549
 3918TIP3    H111687   6.014   4.796   2.617
 3918TIP3    H211688   6.099   4.918   2.580
 3919TIP3   OH211689   5.798   4.576   0.859
 3919TIP3    H111690   5.852   4.517   0.914
 3919TIP3    H211691   5.849   4.579   0.775
 3920TIP3   OH211692   5.032   4.403   2.972
 3920TIP3    H111693   5.050   4.308   2.978
 3920TIP3    H211694   4.945   4.405   2.928
 3921TIP3   OH211695   5.008   4.050   1.168
 3921TIP3    H111696   5.065   4.021   1.241
 3921TIP3    H211697   5.075   4.059   1.097
 3922TIP3   OH211698   5.640   4.488   2.746
 3922TIP3    H111699   5.599   4.505   2.658
 3922TIP3    H211700   5.672   4.396   2.738
 3923TIP3   OH211701   5.519   4.246   0.974
 3923TIP3    H111702   5.523   4.262   1.070
 3923TIP3    H211703   5.517   4.148   0.971
 3924TIP3   OH211704   6.132   4.497   2.352
 3924TIP3    H111705   6.207   4.542   2.308
 3924TIP3    H211706   6.062   4.563   2.338
 3925TIP3   OH211707   5.152   4.137   2.953
 3925TIP3    H111708   5.227   4.080   2.932
 3925TIP3    H211709   5.177   4.169   3.042
 3926TIP3   OH211710   5.212   3.958   1.386
 3926TIP3    H111711   5.190   3.920   1.472
 3926TIP3    H211712   5.253   3.881   1.339
 3927TIP3   OH211713   5.485   4.019   2.613
 3927TIP3    H111714   5.409   4.081   2.617
 3927TIP3    H211715   5.535   4.054   2.536
 3928TIP3   OH211716   5.321   3.749   1.235
 3928TIP3    H111717   5.295   3.757   1.141
 3928TIP3    H211718   5.419   3.756   1.227
 3929TIP3   OH211719   6.003   4.422   2.749
 3929TIP3    H111720   6.083   4.395   2.702
 3929TIP3    H211721   6.000   4.358   2.822
 3930TIP3   OH211722   6.138   4.078   0.894
 3930TIP3    H111723   6.118   4.035   0.809
 3930TIP3    H211724   6.109   4.170   0.872
 3931TIP3   OH211725   5.609   3.809   2.742
 3931TIP3    H111726   5.611   3.730   2.685
 3931TIP3    H211727   5.565   3.876   2.683
 3932TIP3   OH211728   5.613   3.595   2.548
 3932TIP3    H111729   5.640   3.636   2.463
 3932TIP3    H211730   5.519   3.573   2.530
 3933TIP3   OH211731   5.638   4.130   2.421
 3933TIP3    H111732   5.723   4.140   2.376
 3933TIP3    H211733   5.582   4.197   2.376
 3934TIP3   OH211734   6.217   4.096   2.800
 3934TIP3    H111735   6.265   4.016   2.825
 3934TIP3    H211736   6.290   4.154   2.771
 3935TIP3   OH211737   6.262   4.351   2.539
 3935TIP3    H111738   6.205   4.406   2.480
 3935TIP3    H211739   6.350   4.371   2.499
 3936TIP3   OH211740   5.486   3.921   2.971
 3936TIP3    H111741   5.419   3.852   2.988
 3936TIP3    H211742   5.523   3.892   2.885
 3937TIP3   OH211743   5.745   3.359   2.616
 3937TIP3    H111744   5.696   3.441   2.594
 3937TIP3    H211745   5.674   3.292   2.605
 3938TIP3   OH211746   5.872   3.864   2.832
 3938TIP3    H111747   5.863   3.851   2.928
 3938TIP3    H211748   5.781   3.838   2.805
 3939TIP3   OH211749   6.108   3.808   2.685
 3939TIP3    H111750   6.034   3.813   2.748
 3939TIP3    H211751   6.182   3.780   2.742
 3940TIP3   OH211752   6.342   3.751   2.832
 3940TIP3    H111753   6.353   3.656   2.853
 3940TIP3    H211754   6.333   3.792   2.921
 3941TIP3   OH211755   5.327   3.699   3.026
 3941TIP3    H111756   5.335   3.608   2.993
 3941TIP3    H211757   5.364   3.689   3.116
 3942TIP3   OH211758   5.838   3.368   2.874
 3942TIP3    H111759   5.906   3.298   2.869
 3942TIP3    H211760   5.799   3.362   2.785
 3943TIP3   OH211761   5.904   3.583   3.033
 3943TIP3    H111762   5.881   3.512   2.969
 3943TIP3    H211763   5.826   3.643   3.026
 3944TIP3   OH211764   5.126   4.811   1.133
 3944TIP3    H111765   5.222   4.806   1.115
 3944TIP3    H211766   5.098   4.862   1.054
 3945TIP3   OH211767   4.605   4.195   1.348
 3945TIP3    H111768   4.700   4.218   1.335
 3945TIP3    H211769   4.602   4.106   1.306
 3946TIP3   OH211770   4.519   4.806   1.765
 3946TIP3    H111771   4.453   4.743   1.728
 3946TIP3    H211772   4.565   4.748   1.830
 3947TIP3   OH211773   4.655   4.655   1.950
 3947TIP3    H111774   4.645   4.583   2.015
 3947TIP3    H211775   4.708   4.718   2.003
 3948TIP3   OH211776   6.385   5.055   1.750
 3948TIP3    H111777   6.410   5.090   1.837
 3948TIP3    H211778   6.445   5.101   1.690
 3949TIP3   OH211779   6.412   5.078   2.033
 3949TIP3    H111780   6.368   4.991   2.027
 3949TIP3    H211781   6.487   5.055   2.090
 3950TIP3   OH211782   6.460   4.755   2.605
 3950TIP3    H111783   6.387   4.763   2.670
 3950TIP3    H211784   6.500   4.844   2.610
 3951TIP3   OH211785   6.275   4.266   1.224
 3951TIP3    H111786   6.341   4.332   1.194
 3951TIP3    H211787   6.321   4.228   1.302
 3952TIP3   OH211788   6.404   4.133   1.427
 3952TIP3    H111789   6.338   4.093   1.487
 3952TIP3    H211790   6.468   4.173   1.491
 3953TIP3   OH211791   6.459   4.528   1.861
 3953TIP3    H111792   6.511   4.463   1.811
 3953TIP3    H211793   6.453   4.602   1.798
 3954TIP3   OH211794   6.288   4.827   2.055
 3954TIP3    H111795   6.217   4.870   2.106
 3954TIP3    H211796   6.238   4.780   1.985
 3955TIP3   OH211797   6.340   4.042   1.075
 3955TIP3    H111798   6.269   4.046   1.007
 3955TIP3    H211799   6.315   4.119   1.129
 3956TIP3   OH211800   6.212   3.713   1.029
 3956TIP3    H111801   6.169   3.757   0.955
 3956TIP3    H211802   6.187   3.620   1.014
 3957TIP3   OH211803   6.216   3.992   1.574
 3957TIP3    H111804   6.225   3.896   1.570
 3957TIP3    H211805   6.202   4.007   1.670
 3958TIP3   OH211806   4.842   4.067   2.321
 3958TIP3    H111807   4.841   4.034   2.228
 3958TIP3    H211808   4.939   4.067   2.338
 3959TIP3   OH211809   6.507   4.417   2.432
 3959TIP3    H111810   6.578   4.350   2.421
 3959TIP3    H211811   6.533   4.486   2.369
 3960TIP3   OH211812   6.692   4.221   2.442
 3960TIP3    H111813   6.617   4.172   2.483
 3960TIP3    H211814   6.764   4.157   2.459
 3961TIP3   OH211815   6.157   3.445   1.009
 3961TIP3    H111816   6.230   3.419   1.069
 3961TIP3    H211817   6.082   3.391   1.038
 3962TIP3   OH211818   6.212   3.708   1.468
 3962TIP3    H111819   6.254   3.620   1.482
 3962TIP3    H211820   6.270   3.743   1.398
 3963TIP3   OH211821   6.374   3.879   1.964
 3963TIP3    H111822   6.460   3.905   1.923
 3963TIP3    H211823   6.387   3.917   2.053
 3964TIP3   OH211824   6.443   4.025   2.194
 3964TIP3    H111825   6.366   4.059   2.245
 3964TIP3    H211826   6.475   4.107   2.151
 3965TIP3   OH211827   5.060   3.751   2.993
 3965TIP3    H111828   5.158   3.746   2.998
 3965TIP3    H211829   5.036   3.666   3.035
 3966TIP3   OH211830   6.896   3.619   2.751
 3966TIP3    H111831   6.954   3.553   2.709
 3966TIP3    H211832   6.867   3.673   2.675
 3967TIP3   OH211833   6.323   3.457   1.505
 3967TIP3    H111834   6.370   3.441   1.590
 3967TIP3    H211835   6.261   3.382   1.504
 3968TIP3   OH211836   5.022   3.444   2.326
 3968TIP3    H111837   5.084   3.369   2.336
 3968TIP3    H211838   5.084   3.518   2.320
 3969TIP3   OH211839   4.823   3.717   2.398
 3969TIP3    H111840   4.874   3.712   2.314
 3969TIP3    H211841   4.854   3.801   2.434
 3970TIP3   OH211842   6.766   3.756   2.557
 3970TIP3    H111843   6.680   3.797   2.582
 3970TIP3    H211844   6.734   3.684   2.499
 3971TIP3   OH211845   6.401   3.392   1.141
 3971TIP3    H111846   6.442   3.321   1.087
 3971TIP3    H211847   6.467   3.464   1.135
 3972TIP3   OH211848   4.808   3.220   1.899
 3972TIP3    H111849   4.715   3.217   1.928
 3972TIP3    H211850   4.803   3.279   1.821
 3973TIP3   OH211851   5.967   4.925   1.408
 3973TIP3    H111852   6.016   4.910   1.324
 3973TIP3    H211853   6.022   4.992   1.451
 3974TIP3   OH211854   5.027   3.298   2.714
 3974TIP3    H111855   4.978   3.296   2.797
 3974TIP3    H211856   4.961   3.338   2.654
 3975TIP3   OH211857   5.067   4.731   2.790
 3975TIP3    H111858   4.975   4.703   2.775
 3975TIP3    H211859   5.079   4.710   2.883
 3976TIP3   OH211860   5.246   4.762   2.339
 3976TIP3    H111861   5.200   4.838   2.300
 3976TIP3    H211862   5.333   4.775   2.294
 3977TIP3   OH211863   5.689   5.006   2.477
 3977TIP3    H111864   5.732   5.005   2.565
 3977TIP3    H211865   5.756   5.057   2.425
 3978TIP3   OH211866   5.868   5.158   2.336
 3978TIP3    H111867   5.939   5.107   2.294
 3978TIP3    H211868   5.920   5.215   2.397
 3979TIP3   OH211869   6.666   3.519   2.435
 3979TIP3    H111870   6.574   3.512   2.403
 3979TIP3    H211871   6.696   3.426   2.424
 3980TIP3   OH211872   4.922   5.018   2.363
 3980TIP3    H111873   4.832   5.052   2.341
 3980TIP3    H211874   4.935   5.058   2.449
 3981TIP3   OH211875   5.158   4.997   2.221
 3981TIP3    H111876   5.071   5.009   2.265
 3981TIP3    H211877   5.139   5.029   2.131
 3982TIP3   OH211878   5.584   5.024   2.020
 3982TIP3    H111879   5.516   5.045   1.953
 3982TIP3    H211880   5.597   5.112   2.062
 3983TIP3   OH211881   5.854   4.964   2.071
 3983TIP3    H111882   5.759   4.981   2.051
 3983TIP3    H211883   5.897   5.039   2.027
 3984TIP3   OH211884   6.060   5.156   1.984
 3984TIP3    H111885   6.046   5.241   1.937
 3984TIP3    H211886   6.086   5.096   1.911
 3985TIP3   OH211887   4.833   4.811   2.108
 3985TIP3    H111888   4.860   4.784   2.198
 3985TIP3    H211889   4.906   4.769   2.056
 3986TIP3   OH211890   5.028   4.684   1.965
 3986TIP3    H111891   5.043   4.599   2.014
 3986TIP3    H211892   5.119   4.720   1.962
 3987TIP3   OH211893   5.294   4.777   1.970
 3987TIP3    H111894   5.325   4.686   1.957
 3987TIP3    H211895   5.341   4.799   2.053
 3988TIP3   OH211896   5.868   3.433   2.055
 3988TIP3    H111897   5.826   3.364   2.108
 3988TIP3    H211898   5.942   3.385   2.012
 3989TIP3   OH211899   6.392   3.312   1.957
 3989TIP3    H111900   6.427   3.366   1.884
 3989TIP3    H211901   6.297   3.334   1.954
 3990TIP3   OH211902   6.488   3.413   1.722
 3990TIP3    H111903   6.563   3.363   1.683
 3990TIP3    H211904   6.521   3.505   1.709
 3991TIP3   OH211905   5.116   3.143   2.071
 3991TIP3    H111906   5.025   3.109   2.072
 3991TIP3    H211907   5.166   3.059   2.068
 3992TIP3   OH211908   4.898   3.012   1.716
 3992TIP3    H111909   4.935   3.072   1.648
 3992TIP3    H211910   4.874   3.075   1.787
 3993TIP3   OH211911   5.560   3.180   1.947
 3993TIP3    H111912   5.622   3.228   1.890
 3993TIP3    H211913   5.586   3.210   2.035
 3994TIP3   OH211914   6.108   3.322   1.936
 3994TIP3    H111915   6.105   3.284   1.848
 3994TIP3    H211916   6.096   3.242   1.993
 3995TIP3   OH211917   6.139   3.245   1.498
 3995TIP3    H111918   6.053   3.290   1.513
 3995TIP3    H211919   6.123   3.160   1.543
 3996TIP3   OH211920   4.621   4.585   1.498
 3996TIP3    H111921   4.536   4.552   1.464
 3996TIP3    H211922   4.612   4.679   1.478
 3997TIP3   OH211923   5.025   3.176   1.479
 3997TIP3    H111924   5.075   3.109   1.428
 3997TIP3    H211925   5.099   3.227   1.518
 3998TIP3   OH211926   5.534   3.347   1.580
 3998TIP3    H111927   5.593   3.299   1.640
 3998TIP3    H211928   5.556   3.439   1.607
 3999TIP3   OH211929   5.394   4.772   1.083
 3999TIP3    H111930   5.482   4.795   1.046
 3999TIP3    H211931   5.372   4.697   1.022
 4000TIP3   OH211932   6.111   4.891   1.176
 4000TIP3    H111933   6.105   4.794   1.161
 4000TIP3    H211934   6.070   4.925   1.094
 4001TIP3   OH211935   5.326   3.421   2.960
 4001TIP3    H111936   5.292   3.353   3.020
 4001TIP3    H211937   5.420   3.423   2.988
 4002TIP3   OH211938   5.574   3.419   3.079
 4002TIP3    H111939   5.661   3.396   3.043
 4002TIP3    H211940   5.562   3.349   3.147
 4003TIP3   OH211941   4.696   4.604   1.137
 4003TIP3    H111942   4.703   4.631   1.229
 4003TIP3    H211943   4.785   4.563   1.121
 4004TIP3   OH211944   6.400   3.481   2.869
 4004TIP3    H111945   6.419   3.452   2.961
 4004TIP3    H211946   6.489   3.477   2.829
 4005TIP3   OH211947   6.339   5.034   2.361
 4005TIP3    H111948   6.260   5.003   2.313
 4005TIP3    H211949   6.319   5.130   2.365
 4006TIP3   OH211950   7.604   4.411   1.126
 4006TIP3    H111951   7.573   4.501   1.104
 4006TIP3    H211952   7.526   4.359   1.101
 4007TIP3   OH211953   7.604   4.406   1.509
 4007TIP3    H111954   7.633   4.386   1.600
 4007TIP3    H211955   7.561   4.323   1.484
 4008TIP3   OH211956   6.904   4.300   1.874
 4008TIP3    H111957   6.934   4.233   1.937
 4008TIP3    H211958   6.981   4.358   1.869
 4009TIP3   OH211959   7.853   4.702   1.191
 4009TIP3    H111960   7.828   4.640   1.261
 4009TIP3    H211961   7.874   4.783   1.241
 4010TIP3   OH211962   6.877   4.712   1.598
 4010TIP3    H111963   6.867   4.615   1.600
 4010TIP3    H211964   6.974   4.720   1.592
 4011TIP3   OH211965   6.582   3.914   1.382
 4011TIP3    H111966   6.534   3.998   1.399
 4011TIP3    H211967   6.511   3.863   1.340
 4012TIP3   OH211968   6.641   4.203   1.557
 4012TIP3    H111969   6.691   4.126   1.593
 4012TIP3    H211970   6.700   4.236   1.489
 4013TIP3   OH211971   7.501   5.176   1.208
 4013TIP3    H111972   7.543   5.102   1.159
 4013TIP3    H211973   7.486   5.135   1.295
 4014TIP3   OH211974   7.403   4.633   1.556
 4014TIP3    H111975   7.442   4.556   1.511
 4014TIP3    H211976   7.486   4.678   1.582
 4015TIP3   OH211977   7.814   4.153   1.584
 4015TIP3    H111978   7.825   4.060   1.616
 4015TIP3    H211979   7.768   4.134   1.500
 4016TIP3   OH211980   7.151   3.794   1.557
 4016TIP3    H111981   7.134   3.866   1.493
 4016TIP3    H211982   7.104   3.720   1.510
 4017TIP3   OH211983   7.840   3.885   1.191
 4017TIP3    H111984   7.908   3.832   1.234
 4017TIP3    H211985   7.891   3.931   1.123
 4018TIP3   OH211986   6.787   3.996   1.662
 4018TIP3    H111987   6.870   3.976   1.710
 4018TIP3    H211988   6.800   3.941   1.582
 4019TIP3   OH211989   7.229   4.193   1.454
 4019TIP3    H111990   7.322   4.167   1.468
 4019TIP3    H211991   7.190   4.109   1.423
 4020TIP3   OH211992   7.150   3.776   1.988
 4020TIP3    H111993   7.090   3.815   1.921
 4020TIP3    H211994   7.098   3.794   2.070
 4021TIP3   OH211995   7.499   4.629   0.993
 4021TIP3    H111996   7.457   4.611   0.907
 4021TIP3    H211997   7.450   4.710   1.021
 4022TIP3   OH211998   7.256   4.553   1.782
 4022TIP3    H111999   7.194   4.619   1.819
 4022TIP3    H212000   7.299   4.603   1.710
 4023TIP3   OH212001   7.021   3.893   1.774
 4023TIP3    H112002   7.082   3.966   1.797
 4023TIP3    H212003   7.070   3.852   1.699
 4024TIP3   OH212004   7.085   4.747   1.881
 4024TIP3    H112005   7.059   4.834   1.843
 4024TIP3    H212006   7.007   4.731   1.937
 4025TIP3   OH212007   6.478   4.435   1.120
 4025TIP3    H112008   6.439   4.455   1.032
 4025TIP3    H212009   6.506   4.524   1.149
 4026TIP3   OH212010   7.920   4.950   1.354
 4026TIP3    H112011   7.832   4.939   1.399
 4026TIP3    H212012   7.907   5.038   1.314
 4027TIP3   OH212013   7.495   3.488   1.708
 4027TIP3    H112014   7.481   3.395   1.736
 4027TIP3    H212015   7.419   3.532   1.753
 4028TIP3   OH212016   7.620   5.001   1.032
 4028TIP3    H112017   7.665   4.916   1.010
 4028TIP3    H212018   7.682   5.064   0.990
 4029TIP3   OH212019   7.755   4.781   0.941
 4029TIP3    H112020   7.701   4.705   0.914
 4029TIP3    H212021   7.799   4.747   1.021
 4030TIP3   OH212022   8.142   4.860   1.703
 4030TIP3    H112023   8.143   4.784   1.642
 4030TIP3    H212024   8.136   4.937   1.643
 4031TIP3   OH212025   7.434   4.257   0.958
 4031TIP3    H112026   7.351   4.307   0.943
 4031TIP3    H212027   7.476   4.263   0.871
 4032TIP3   OH212028   7.390   4.054   0.679
 4032TIP3    H112029   7.464   4.092   0.730
 4032TIP3    H212030   7.437   3.977   0.638
 4033TIP3   OH212031   7.779   4.341   0.932
 4033TIP3    H112032   7.721   4.371   1.007
 4033TIP3    H212033   7.849   4.295   0.982
 4034TIP3   OH212034   8.005   4.372   1.831
 4034TIP3    H112035   8.028   4.452   1.880
 4034TIP3    H212036   7.914   4.391   1.802
 4035TIP3   OH212037   7.016   4.338   1.346
 4035TIP3    H112038   6.975   4.280   1.279
 4035TIP3    H212039   7.093   4.284   1.375
 4036TIP3   OH212040   7.146   4.752   1.494
 4036TIP3    H112041   7.125   4.711   1.408
 4036TIP3    H212042   7.235   4.716   1.512
 4037TIP3   OH212043   7.153   4.310   1.700
 4037TIP3    H112044   7.186   4.289   1.611
 4037TIP3    H212045   7.195   4.396   1.720
 4038TIP3   OH212046   7.682   4.946   1.479
 4038TIP3    H112047   7.665   5.027   1.532
 4038TIP3    H212048   7.664   4.874   1.543
 4039TIP3   OH212049   7.290   4.867   2.025
 4039TIP3    H112050   7.229   4.929   2.071
 4039TIP3    H212051   7.225   4.814   1.975
 4040TIP3   OH212052   7.628   4.201   0.753
 4040TIP3    H112053   7.680   4.258   0.814
 4040TIP3    H212054   7.668   4.222   0.667
 4041TIP3   OH212055   7.044   4.422   2.126
 4041TIP3    H112056   7.049   4.509   2.170
 4041TIP3    H212057   6.949   4.402   2.138
 4042TIP3   OH212058   7.370   4.874   1.035
 4042TIP3    H112059   7.449   4.930   1.045
 4042TIP3    H212060   7.309   4.933   0.989
 4043TIP3   OH212061   7.084   5.035   2.112
 4043TIP3    H112062   7.050   5.034   2.021
 4043TIP3    H212063   7.004   5.013   2.165
 4044TIP3   OH212064   6.884   4.182   1.147
 4044TIP3    H112065   6.816   4.229   1.094
 4044TIP3    H212066   6.839   4.098   1.163
 4045TIP3   OH212067   6.663   4.566   2.059
 4045TIP3    H112068   6.596   4.545   1.990
 4045TIP3    H212069   6.700   4.478   2.081
 4046TIP3   OH212070   6.517   4.757   1.694
 4046TIP3    H112071   6.613   4.755   1.683
 4046TIP3    H212072   6.505   4.838   1.745
 4047TIP3   OH212073   7.487   4.996   1.882
 4047TIP3    H112074   7.485   5.089   1.915
 4047TIP3    H212075   7.416   4.956   1.936
 4048TIP3   OH212076   7.254   5.134   0.828
 4048TIP3    H112077   7.185   5.111   0.765
 4048TIP3    H212078   7.222   5.219   0.863
 4049TIP3   OH212079   6.688   4.974   1.216
 4049TIP3    H112080   6.731   4.963   1.304
 4049TIP3    H212081   6.630   4.896   1.214
 4050TIP3   OH212082   7.486   5.013   0.742
 4050TIP3    H112083   7.405   5.060   0.772
 4050TIP3    H212084   7.545   5.026   0.817
 4051TIP3   OH212085   6.869   4.749   2.046
 4051TIP3    H112086   6.918   4.731   2.129
 4051TIP3    H212087   6.794   4.685   2.053
 4052TIP3   OH212088   7.265   3.573   1.832
 4052TIP3    H112089   7.174   3.543   1.807
 4052TIP3    H212090   7.242   3.656   1.878
 4053TIP3   OH212091   7.778   3.699   2.015
 4053TIP3    H112092   7.845   3.670   2.081
 4053TIP3    H212093   7.694   3.679   2.062
 4054TIP3   OH212094   8.058   4.114   1.933
 4054TIP3    H112095   8.013   4.116   2.020
 4054TIP3    H212096   8.039   4.203   1.897
 4055TIP3   OH212097   7.422   3.615   0.805
 4055TIP3    H112098   7.384   3.616   0.895
 4055TIP3    H212099   7.378   3.537   0.768
 4056TIP3   OH212100   7.198   4.088   1.850
 4056TIP3    H112101   7.149   4.109   1.932
 4056TIP3    H212102   7.183   4.169   1.797
 4057TIP3   OH212103   7.083   3.974   1.364
 4057TIP3    H112104   6.990   3.948   1.382
 4057TIP3    H212105   7.096   3.932   1.276
 4058TIP3   OH212106   7.576   4.061   1.091
 4058TIP3    H112107   7.519   4.130   1.049
 4058TIP3    H212108   7.631   4.032   1.016
 4059TIP3   OH212109   7.746   4.340   2.180
 4059TIP3    H112110   7.723   4.265   2.240
 4059TIP3    H212111   7.841   4.347   2.196
 4060TIP3   OH212112   7.719   4.094   1.331
 4060TIP3    H112113   7.659   4.111   1.255
 4060TIP3    H212114   7.754   4.006   1.301
 4061TIP3   OH212115   7.018   4.116   2.059
 4061TIP3    H112116   7.046   4.180   2.127
 4061TIP3    H212117   7.006   4.035   2.111
 4062TIP3   OH212118   7.068   3.594   0.772
 4062TIP3    H112119   7.058   3.592   0.869
 4062TIP3    H212120   6.990   3.647   0.746
 4063TIP3   OH212121   6.611   3.637   1.640
 4063TIP3    H112122   6.685   3.671   1.694
 4063TIP3    H212123   6.654   3.609   1.558
 4064TIP3   OH212124   6.581   3.620   1.158
 4064TIP3    H112125   6.624   3.659   1.080
 4064TIP3    H212126   6.519   3.692   1.181
 4065TIP3   OH212127   7.722   4.342   1.755
 4065TIP3    H112128   7.765   4.275   1.697
 4065TIP3    H212129   7.702   4.286   1.833
 4066TIP3   OH212130   7.399   3.810   1.422
 4066TIP3    H112131   7.326   3.802   1.487
 4066TIP3    H212132   7.475   3.777   1.472
 4067TIP3   OH212133   6.843   3.854   1.432
 4067TIP3    H112134   6.749   3.863   1.406
 4067TIP3    H212135   6.864   3.762   1.409
 4068TIP3   OH212136   7.111   3.844   1.123
 4068TIP3    H112137   7.205   3.864   1.104
 4068TIP3    H212138   7.065   3.870   1.040
 4069TIP3   OH212139   7.824   3.884   1.620
 4069TIP3    H112140   7.816   3.892   1.717
 4069TIP3    H212141   7.907   3.834   1.611
 4070TIP3   OH212142   6.957   3.878   0.901
 4070TIP3    H112143   6.884   3.836   0.852
 4070TIP3    H212144   7.009   3.916   0.827
 4071TIP3   OH212145   8.064   5.566   1.846
 4071TIP3    H112146   8.061   5.575   1.748
 4071TIP3    H212147   8.138   5.624   1.868
 4072TIP3   OH212148   7.029   4.670   2.267
 4072TIP3    H112149   7.108   4.701   2.315
 4072TIP3    H212150   6.964   4.669   2.340
 4073TIP3   OH212151   7.495   4.126   1.527
 4073TIP3    H112152   7.561   4.079   1.473
 4073TIP3    H212153   7.500   4.079   1.612
 4074TIP3   OH212154   7.017   3.608   1.403
 4074TIP3    H112155   6.980   3.529   1.447
 4074TIP3    H212156   7.044   3.575   1.316
 4075TIP3   OH212157   7.469   4.021   1.815
 4075TIP3    H112158   7.380   4.059   1.829
 4075TIP3    H212159   7.527   4.082   1.865
 4076TIP3   OH212160   7.206   4.408   0.911
 4076TIP3    H112161   7.132   4.344   0.898
 4076TIP3    H212162   7.186   4.442   1.002
 4077TIP3   OH212163   8.109   4.649   1.523
 4077TIP3    H112164   8.114   4.664   1.428
 4077TIP3    H212165   8.021   4.606   1.529
 4078TIP3   OH212166   7.677   3.712   0.781
 4078TIP3    H112167   7.581   3.687   0.781
 4078TIP3    H212168   7.671   3.807   0.762
 4079TIP3   OH212169   7.604   4.731   1.904
 4079TIP3    H112170   7.630   4.708   1.994
 4079TIP3    H212171   7.566   4.820   1.913
 4080TIP3   OH212172   7.761   3.983   0.862
 4080TIP3    H112173   7.849   4.022   0.856
 4080TIP3    H212174   7.709   4.046   0.808
 4081TIP3   OH212175   6.899   4.434   1.583
 4081TIP3    H112176   6.938   4.405   1.498
 4081TIP3    H212177   6.941   4.372   1.645
 4082TIP3   OH212178   7.352   4.574   0.754
 4082TIP3    H112179   7.299   4.657   0.752
 4082TIP3    H212180   7.295   4.516   0.809
 4083TIP3   OH212181   6.780   4.353   2.196
 4083TIP3    H112182   6.798   4.339   2.291
 4083TIP3    H212183   6.710   4.287   2.179
 4084TIP3   OH212184   7.504   4.470   2.216
 4084TIP3    H112185   7.445   4.410   2.168
 4084TIP3    H212186   7.592   4.435   2.189
 4085TIP3   OH212187   7.765   4.993   1.799
 4085TIP3    H112188   7.669   4.989   1.813
 4085TIP3    H212189   7.793   5.043   1.879
 4086TIP3   OH212190   7.866   4.512   1.457
 4086TIP3    H112191   7.771   4.490   1.470
 4086TIP3    H212192   7.900   4.426   1.426
 4087TIP3   OH212193   6.999   4.737   1.208
 4087TIP3    H112194   6.998   4.820   1.155
 4087TIP3    H212195   6.905   4.721   1.219
 4088TIP3   OH212196   6.567   4.042   0.915
 4088TIP3    H112197   6.610   4.129   0.933
 4088TIP3    H212198   6.488   4.049   0.972
 4089TIP3   OH212199   7.136   4.504   1.153
 4089TIP3    H112200   7.101   4.593   1.171
 4089TIP3    H212201   7.099   4.453   1.228
 4090TIP3   OH212202   7.270   5.081   1.677
 4090TIP3    H112203   7.311   5.153   1.626
 4090TIP3    H212204   7.347   5.046   1.725
 4091TIP3   OH212205   6.920   4.972   1.062
 4091TIP3    H112206   6.832   4.982   1.106
 4091TIP3    H212207   6.952   5.065   1.067
 4092TIP3   OH212208   7.657   4.715   1.637
 4092TIP3    H112209   7.644   4.715   1.734
 4092TIP3    H212210   7.739   4.664   1.629
 4093TIP3   OH212211   7.909   5.246   1.685
 4093TIP3    H112212   7.831   5.188   1.683
 4093TIP3    H212213   7.887   5.311   1.614
 4094TIP3   OH212214   6.991   3.859   2.203
 4094TIP3    H112215   6.894   3.864   2.217
 4094TIP3    H212216   7.018   3.802   2.277
 4095TIP3   OH212217   7.769   4.536   0.735
 4095TIP3    H112218   7.773   4.471   0.808
 4095TIP3    H212219   7.855   4.580   0.742
 4096TIP3   OH212220   6.709   4.944   1.835
 4096TIP3    H112221   6.760   4.869   1.870
 4096TIP3    H212222   6.735   5.015   1.896
 4097TIP3   OH212223   7.035   4.568   0.539
 4097TIP3    H112224   7.012   4.479   0.506
 4097TIP3    H212225   7.003   4.564   0.631
 4098TIP3   OH212226   6.947   4.593   0.799
 4098TIP3    H112227   7.007   4.565   0.869
 4098TIP3    H212228   6.949   4.691   0.809
 4099TIP3   OH212229   6.679   4.289   0.996
 4099TIP3    H112230   6.611   4.332   1.052
 4099TIP3    H212231   6.688   4.356   0.926
 4100TIP3   OH212232   7.827   3.940   1.889
 4100TIP3    H112233   7.914   3.972   1.920
 4100TIP3    H212234   7.814   3.858   1.942
 4101TIP3   OH212235   7.690   3.685   1.059
 4101TIP3    H112236   7.687   3.699   0.963
 4101TIP3    H212237   7.737   3.764   1.091
 4102TIP3   OH212238   7.208   4.800   0.726
 4102TIP3    H112239   7.121   4.826   0.763
 4102TIP3    H212240   7.212   4.855   0.647
 4103TIP3   OH212241   7.392   3.857   1.151
 4103TIP3    H112242   7.461   3.926   1.138
 4103TIP3    H212243   7.397   3.845   1.249
 4104TIP3   OH212244   7.666   4.171   1.960
 4104TIP3    H112245   7.691   4.221   2.041
 4104TIP3    H212246   7.727   4.094   1.963
 4105TIP3   OH212247   7.539   3.578   1.252
 4105TIP3    H112248   7.570   3.627   1.331
 4105TIP3    H212249   7.594   3.621   1.182
 4106TIP3   OH212250   6.954   4.863   0.811
 4106TIP3    H112251   6.932   4.936   0.748
 4106TIP3    H212252   6.936   4.906   0.897
 4107TIP3   OH212253   7.053   3.579   1.051
 4107TIP3    H112254   7.051   3.672   1.081
 4107TIP3    H212255   7.150   3.564   1.055
 4108TIP3   OH212256   7.954   4.252   1.364
 4108TIP3    H112257   7.868   4.213   1.338
 4108TIP3    H212258   7.964   4.212   1.450
 4109TIP3   OH212259   6.667   4.495   0.806
 4109TIP3    H112260   6.727   4.571   0.811
 4109TIP3    H212261   6.714   4.442   0.738
 4110TIP3   OH212262   6.614   3.772   0.934
 4110TIP3    H112263   6.617   3.870   0.931
 4110TIP3    H212264   6.533   3.754   0.886
 4111TIP3   OH212265   7.933   5.224   1.278
 4111TIP3    H112266   7.887   5.272   1.205
 4111TIP3    H212267   8.025   5.242   1.259
 4112TIP3   OH212268   7.004   3.490   1.804
 4112TIP3    H112269   6.970   3.457   1.718
 4112TIP3    H212270   6.992   3.413   1.863
 4113TIP3   OH212271   6.541   4.711   1.185
 4113TIP3    H112272   6.474   4.740   1.248
 4113TIP3    H212273   6.508   4.754   1.102
 4114TIP3   OH212274   6.699   5.254   2.258
 4114TIP3    H112275   6.785   5.253   2.305
 4114TIP3    H212276   6.677   5.159   2.256
 4115TIP3   OH212277   7.180   5.215   2.303
 4115TIP3    H112278   7.274   5.194   2.308
 4115TIP3    H212279   7.152   5.156   2.230
 4116TIP3   OH212280   7.815   5.124   2.037
 4116TIP3    H112281   7.809   5.053   2.104
 4116TIP3    H212282   7.893   5.174   2.066
 4117TIP3   OH212283   6.828   4.660   2.459
 4117TIP3    H112284   6.845   4.564   2.464
 4117TIP3    H212285   6.741   4.662   2.415
 4118TIP3   OH212286   6.817   4.317   0.662
 4118TIP3    H112287   6.877   4.285   0.732
 4118TIP3    H212288   6.876   4.318   0.584
 4119TIP3   OH212289   7.436   4.745   2.232
 4119TIP3    H112290   7.394   4.762   2.145
 4119TIP3    H212291   7.467   4.652   2.224
 4120TIP3   OH212292   7.341   4.494   0.493
 4120TIP3    H112293   7.331   4.522   0.586
 4120TIP3    H212294   7.261   4.440   0.480
 4121TIP3   OH212295   7.931   4.750   1.838
 4121TIP3    H112296   8.008   4.794   1.797
 4121TIP3    H212297   7.862   4.818   1.825
 4122TIP3   OH212298   6.948   4.396   2.441
 4122TIP3    H112299   7.022   4.338   2.419
 4122TIP3    H212300   6.974   4.426   2.530
 4123TIP3   OH212301   7.013   4.213   0.874
 4123TIP3    H112302   6.982   4.175   0.958
 4123TIP3    H212303   7.048   4.135   0.827
 4124TIP3   OH212304   7.283   4.277   2.101
 4124TIP3    H112305   7.205   4.337   2.104
 4124TIP3    H212306   7.332   4.311   2.024
 4125TIP3   OH212307   7.115   4.007   0.719
 4125TIP3    H112308   7.087   4.014   0.625
 4125TIP3    H212309   7.212   4.012   0.710
 4126TIP3   OH212310   7.801   4.681   2.235
 4126TIP3    H112311   7.878   4.653   2.184
 4126TIP3    H212312   7.796   4.611   2.304
 4127TIP3   OH212313   7.404   4.066   2.229
 4127TIP3    H112314   7.406   3.987   2.172
 4127TIP3    H212315   7.362   4.133   2.170
 4128TIP3   OH212316   7.408   3.851   2.035
 4128TIP3    H112317   7.437   3.895   1.952
 4128TIP3    H212318   7.314   3.831   2.016
 4129TIP3   OH212319   7.435   4.387   1.908
 4129TIP3    H112320   7.520   4.395   1.863
 4129TIP3    H212321   7.380   4.454   1.863
 4130TIP3   OH212322   8.020   4.355   2.296
 4130TIP3    H112323   8.056   4.265   2.290
 4130TIP3    H212324   8.088   4.408   2.253
 4131TIP3   OH212325   8.068   4.608   2.027
 4131TIP3    H112326   8.015   4.662   1.964
 4131TIP3    H212327   8.149   4.595   1.974
 4132TIP3   OH212328   7.284   4.176   2.460
 4132TIP3    H112329   7.216   4.108   2.475
 4132TIP3    H212330   7.319   4.150   2.373
 4133TIP3   OH212331   7.532   3.615   2.105
 4133TIP3    H112332   7.484   3.697   2.084
 4133TIP3    H212333   7.463   3.547   2.095
 4134TIP3   OH212334   7.665   4.121   2.318
 4134TIP3    H112335   7.655   4.106   2.414
 4134TIP3    H212336   7.575   4.096   2.289
 4135TIP3   OH212337   7.903   4.081   2.165
 4135TIP3    H112338   7.824   4.078   2.224
 4135TIP3    H212339   7.970   4.039   2.225
 4136TIP3   OH212340   8.085   3.991   2.338
 4136TIP3    H112341   8.155   3.932   2.303
 4136TIP3    H212342   8.122   4.021   2.422
 4137TIP3   OH212343   7.124   3.955   2.513
 4137TIP3    H112344   7.130   3.864   2.479
 4137TIP3    H212345   7.161   3.944   2.603
 4138TIP3   OH212346   7.634   3.625   2.361
 4138TIP3    H112347   7.698   3.552   2.357
 4138TIP3    H212348   7.594   3.619   2.272
 4139TIP3   OH212349   7.701   3.841   2.520
 4139TIP3    H112350   7.679   3.771   2.455
 4139TIP3    H212351   7.624   3.901   2.513
 4140TIP3   OH212352   6.938   5.058   0.623
 4140TIP3    H112353   7.013   5.063   0.561
 4140TIP3    H212354   6.871   5.111   0.577
 4141TIP3   OH212355   6.401   4.444   0.849
 4141TIP3    H112356   6.491   4.472   0.823
 4141TIP3    H212357   6.390   4.364   0.792
 4142TIP3   OH212358   6.315   5.064   1.253
 4142TIP3    H112359   6.250   5.002   1.212
 4142TIP3    H212360   6.361   5.003   1.315
 4143TIP3   OH212361   6.454   4.911   1.436
 4143TIP3    H112362   6.439   4.840   1.500
 4143TIP3    H212363   6.503   4.975   1.491
 4144TIP3   OH212364   8.251   5.309   1.515
 4144TIP3    H112365   8.195   5.227   1.507
 4144TIP3    H212366   8.233   5.332   1.606
 4145TIP3   OH212367   8.223   5.033   2.092
 4145TIP3    H112368   8.157   5.028   2.164
 4145TIP3    H212369   8.264   5.121   2.106
 4146TIP3   OH212370   8.088   5.084   1.536
 4146TIP3    H112371   8.022   5.123   1.597
 4146TIP3    H212372   8.031   5.033   1.475
 4147TIP3   OH212373   7.987   4.216   1.061
 4147TIP3    H112374   8.072   4.168   1.071
 4147TIP3    H212375   7.984   4.263   1.145
 4148TIP3   OH212376   6.639   4.321   1.809
 4148TIP3    H112377   6.636   4.289   1.716
 4148TIP3    H212378   6.736   4.322   1.824
 4149TIP3   OH212379   6.857   4.008   2.481
 4149TIP3    H112380   6.955   4.001   2.486
 4149TIP3    H212381   6.832   3.923   2.523
 4150TIP3   OH212382   6.819   3.700   1.810
 4150TIP3    H112383   6.883   3.626   1.822
 4150TIP3    H212384   6.880   3.776   1.806
 4151TIP3   OH212385   6.620   3.973   1.886
 4151TIP3    H112386   6.670   3.970   1.802
 4151TIP3    H212387   6.646   4.059   1.921
 4152TIP3   OH212388   6.605   3.475   1.385
 4152TIP3    H112389   6.512   3.473   1.415
 4152TIP3    H212390   6.600   3.535   1.308
 4153TIP3   OH212391   7.766   5.175   0.882
 4153TIP3    H112392   7.783   5.177   0.787
 4153TIP3    H212393   7.821   5.248   0.915
 4154TIP3   OH212394   6.824   3.554   2.199
 4154TIP3    H112395   6.775   3.551   2.283
 4154TIP3    H212396   6.757   3.596   2.141
 4155TIP3   OH212397   6.864   4.985   2.278
 4155TIP3    H112398   6.772   4.960   2.261
 4155TIP3    H212399   6.873   4.966   2.372
 4156TIP3   OH212400   7.044   5.019   1.827
 4156TIP3    H112401   6.994   5.094   1.788
 4156TIP3    H212402   7.129   5.033   1.781
 4157TIP3   OH212403   7.486   5.262   1.964
 4157TIP3    H112404   7.528   5.262   2.053
 4157TIP3    H212405   7.552   5.313   1.912
 4158TIP3   OH212406   7.665   5.414   1.823
 4158TIP3    H112407   7.736   5.363   1.782
 4158TIP3    H212408   7.716   5.472   1.884
 4159TIP3   OH212409   6.720   5.275   1.850
 4159TIP3    H112410   6.630   5.307   1.826
 4159TIP3    H212411   6.728   5.315   1.937
 4160TIP3   OH212412   6.955   5.254   1.708
 4160TIP3    H112413   6.869   5.266   1.753
 4160TIP3    H212414   6.934   5.286   1.618
 4161TIP3   OH212415   7.381   5.282   1.506
 4161TIP3    H112416   7.309   5.301   1.442
 4161TIP3    H212417   7.393   5.369   1.548
 4162TIP3   OH212418   7.648   5.219   1.557
 4162TIP3    H112419   7.554   5.237   1.537
 4162TIP3    H212420   7.692   5.296   1.518
 4163TIP3   OH212421   7.842   5.406   1.470
 4163TIP3    H112422   7.836   5.495   1.427
 4163TIP3    H212423   7.870   5.349   1.395
 4164TIP3   OH212424   6.630   5.069   1.594
 4164TIP3    H112425   6.656   5.041   1.685
 4164TIP3    H212426   6.702   5.026   1.543
 4165TIP3   OH212427   6.824   4.940   1.453
 4165TIP3    H112428   6.839   4.856   1.502
 4165TIP3    H212429   6.915   4.976   1.448
 4166TIP3   OH212430   7.092   5.035   1.455
 4166TIP3    H112431   7.121   4.942   1.444
 4166TIP3    H212432   7.137   5.055   1.539
 4167TIP3   OH212433   7.621   3.659   1.500
 4167TIP3    H112434   7.611   3.617   1.587
 4167TIP3    H212435   7.717   3.657   1.487
 4168TIP3   OH212436   6.917   3.393   1.555
 4168TIP3    H112437   6.824   3.362   1.559
 4168TIP3    H212438   6.964   3.307   1.551
 4169TIP3   OH212439   6.704   3.270   1.208
 4169TIP3    H112440   6.731   3.327   1.134
 4169TIP3    H212441   6.672   3.335   1.273
 4170TIP3   OH212442   7.413   3.416   1.440
 4170TIP3    H112443   7.438   3.486   1.376
 4170TIP3    H212444   7.414   3.467   1.523
 4171TIP3   OH212445   7.868   3.558   1.420
 4171TIP3    H112446   7.908   3.543   1.333
 4171TIP3    H212447   7.874   3.469   1.461
 4172TIP3   OH212448   6.416   4.846   0.990
 4172TIP3    H112449   6.333   4.811   0.952
 4172TIP3    H212450   6.409   4.937   0.955
 4173TIP3   OH212451   6.819   3.427   0.970
 4173TIP3    H112452   6.867   3.366   0.911
 4173TIP3    H212453   6.892   3.482   1.006
 4174TIP3   OH212454   7.330   3.605   1.068
 4174TIP3    H112455   7.397   3.566   1.128
 4174TIP3    H212456   7.345   3.700   1.090
 4175TIP3   OH212457   7.122   3.678   2.448
 4175TIP3    H112458   7.088   3.609   2.507
 4175TIP3    H212459   7.216   3.680   2.476
 4176TIP3   OH212460   7.370   3.677   2.568
 4176TIP3    H112461   7.457   3.653   2.532
 4176TIP3    H212462   7.358   3.607   2.635
 4177TIP3   OH212463   6.471   4.828   0.650
 4177TIP3    H112464   6.472   4.904   0.710
 4177TIP3    H212465   6.566   4.815   0.631
 4178TIP3   OH212466   8.132   5.301   1.849
 4178TIP3    H112467   8.056   5.261   1.802
 4178TIP3    H212468   8.106   5.395   1.852
 4179TIP3   OH212469   0.059   5.196   2.818
 4179TIP3    H112470   0.024   5.287   2.816
 4179TIP3    H212471  -0.011   5.150   2.767
 4180TIP3   OH212472   0.070   5.182   3.192
 4180TIP3    H112473   0.101   5.162   3.282
 4180TIP3    H212474   0.024   5.100   3.168
 4181TIP3   OH212475   0.298   5.498   2.882
 4181TIP3    H112476   0.291   5.428   2.948
 4181TIP3    H212477   0.328   5.574   2.935
 4182TIP3   OH212478   0.005   5.980   2.880
 4182TIP3    H112479   0.043   5.894   2.867
 4182TIP3    H212480  -0.066   5.957   2.948
 4183TIP3   OH212481  -0.114   5.393   3.245
 4183TIP3    H112482  -0.073   5.317   3.200
 4183TIP3    H212483  -0.034   5.444   3.270
 4184TIP3   OH212484   0.870   4.742   3.245
 4184TIP3    H112485   0.898   4.825   3.289
 4184TIP3    H212486   0.889   4.763   3.152
 4185TIP3   OH212487   0.265   4.921   3.280
 4185TIP3    H112488   0.310   4.837   3.301
 4185TIP3    H212489   0.237   4.904   3.188
 4186TIP3   OH212490   0.301   4.675   2.866
 4186TIP3    H112491   0.374   4.659   2.931
 4186TIP3    H212492   0.353   4.709   2.791
 4187TIP3   OH212493   0.942   4.951   3.413
 4187TIP3    H112494   0.857   4.996   3.396
 4187TIP3    H212495   0.954   4.972   3.506
 4188TIP3   OH212496  -0.080   5.428   2.698
 4188TIP3    H112497  -0.089   5.380   2.613
 4188TIP3    H212498  -0.008   5.488   2.678
 4189TIP3   OH212499   0.509   4.676   3.041
 4189TIP3    H112500   0.495   4.632   3.126
 4189TIP3    H212501   0.562   4.754   3.068
 4190TIP3   OH212502   0.369   5.739   3.043
 4190TIP3    H112503   0.279   5.731   3.085
 4190TIP3    H212504   0.362   5.828   3.005
 4191TIP3   OH212505   0.664   4.639   3.410
 4191TIP3    H112506   0.576   4.670   3.382
 4191TIP3    H212507   0.722   4.672   3.338
 4192TIP3   OH212508  -0.038   4.274   3.380
 4192TIP3    H112509  -0.042   4.178   3.402
 4192TIP3    H212510  -0.082   4.312   3.457
 4193TIP3   OH212511   0.062   5.767   2.709
 4193TIP3    H112512   0.118   5.682   2.689
 4193TIP3    H212513   0.128   5.831   2.674
 4194TIP3   OH212514   0.194   5.542   2.627
 4194TIP3    H112515   0.229   5.484   2.562
 4194TIP3    H212516   0.249   5.520   2.710
 4195TIP3   OH212517   0.598   5.654   3.391
 4195TIP3    H112518   0.585   5.576   3.334
 4195TIP3    H212519   0.579   5.728   3.329
 4196TIP3   OH212520  -0.107   5.064   2.649
 4196TIP3    H112521  -0.195   5.021   2.657
 4196TIP3    H212522  -0.079   5.045   2.557
 4197TIP3   OH212523  -0.135   4.832   2.372
 4197TIP3    H112524  -0.060   4.884   2.407
 4197TIP3    H212525  -0.086   4.766   2.319
 4198TIP3   OH212526   0.794   5.292   3.236
 4198TIP3    H112527   0.710   5.342   3.243
 4198TIP3    H212528   0.821   5.315   3.145
 4199TIP3   OH212529   0.237   5.126   2.621
 4199TIP3    H112530   0.184   5.153   2.700
 4199TIP3    H212531   0.321   5.101   2.663
 4200TIP3   OH212532   0.472   5.170   3.531
 4200TIP3    H112533   0.472   5.246   3.592
 4200TIP3    H212534   0.385   5.181   3.489
 4201TIP3   OH212535   0.128   5.735   3.165
 4201TIP3    H112536   0.110   5.818   3.212
 4201TIP3    H212537   0.113   5.667   3.233
 4202TIP3   OH212538   0.078   4.986   2.448
 4202TIP3    H112539   0.135   5.046   2.501
 4202TIP3    H212540   0.105   5.014   2.356
 4203TIP3   OH212541   0.593   4.227   2.496
 4203TIP3    H112542   0.511   4.248   2.545
 4203TIP3    H212543   0.605   4.310   2.444
 4204TIP3   OH212544   0.394   5.600   2.020
 4204TIP3    H112545   0.399   5.692   1.993
 4204TIP3    H212546   0.482   5.567   2.003
 4205TIP3   OH212547   0.835   6.000   3.436
 4205TIP3    H112548   0.835   5.904   3.451
 4205TIP3    H212549   0.752   6.024   3.482
 4206TIP3   OH212550  -0.044   5.842   2.160
 4206TIP3    H112551  -0.012   5.754   2.125
 4206TIP3    H212552  -0.062   5.821   2.252
 4207TIP3   OH212553  -0.054   5.861   2.444
 4207TIP3    H112554  -0.123   5.866   2.513
 4207TIP3    H212555   0.023   5.838   2.499
 4208TIP3   OH212556   0.730   5.131   3.712
 4208TIP3    H112557   0.643   5.147   3.674
 4208TIP3    H212558   0.739   5.034   3.700
 4209TIP3   OH212559   0.261   4.472   3.713
 4209TIP3    H112560   0.331   4.452   3.779
 4209TIP3    H212561   0.179   4.458   3.763
 4210TIP3   OH212562   0.493   4.908   3.636
 4210TIP3    H112563   0.444   4.897   3.721
 4210TIP3    H212564   0.464   4.996   3.606
 4211TIP3   OH212565   0.156   5.044   2.198
 4211TIP3    H112566   0.120   5.013   2.113
 4211TIP3    H212567   0.241   5.082   2.169
 4212TIP3   OH212568  -0.145   4.415   2.471
 4212TIP3    H112569  -0.160   4.414   2.568
 4212TIP3    H212570  -0.174   4.324   2.450
 4213TIP3   OH212571   0.026   4.850   2.780
 4213TIP3    H112572  -0.020   4.927   2.740
 4213TIP3    H212573   0.080   4.819   2.705
 4214TIP3   OH212574   0.245   5.096   3.831
 4214TIP3    H112575   0.185   5.076   3.906
 4214TIP3    H212576   0.305   5.159   3.873
 4215TIP3   OH212577   0.181   4.874   3.021
 4215TIP3    H112578   0.122   4.904   2.949
 4215TIP3    H212579   0.217   4.794   2.976
 4216TIP3   OH212580   0.185   5.123   3.441
 4216TIP3    H112581   0.224   5.051   3.385
 4216TIP3    H212582   0.165   5.069   3.522
 4217TIP3   OH212583  -0.127   4.587   3.111
 4217TIP3    H112584  -0.207   4.578   3.164
 4217TIP3    H212585  -0.057   4.585   3.178
 4218TIP3   OH212586   0.357   4.659   3.316
 4218TIP3    H112587   0.327   4.671   3.409
 4218TIP3    H212588   0.289   4.598   3.283
 4219TIP3   OH212589   0.528   6.345   3.538
 4219TIP3    H112590   0.524   6.370   3.444
 4219TIP3    H212591   0.601   6.400   3.571
 4220TIP3   OH212592  -0.043   4.906   3.210
 4220TIP3    H112593   0.030   4.871   3.157
 4220TIP3    H212594  -0.025   4.870   3.299
 4221TIP3   OH212595  -0.056   4.791   3.503
 4221TIP3    H112596  -0.122   4.865   3.496
 4221TIP3    H212597   0.016   4.840   3.551
 4222TIP3   OH212598   0.560   5.436   3.226
 4222TIP3    H112599   0.583   5.486   3.145
 4222TIP3    H212600   0.475   5.395   3.201
 4223TIP3   OH212601   0.114   4.509   2.467
 4223TIP3    H112602   0.017   4.495   2.466
 4223TIP3    H212603   0.124   4.604   2.487
 4224TIP3   OH212604   0.186   4.759   2.565
 4224TIP3    H112605   0.283   4.763   2.579
 4224TIP3    H212606   0.170   4.837   2.509
 4225TIP3   OH212607  -0.203   5.349   2.437
 4225TIP3    H112608  -0.257   5.427   2.420
 4225TIP3    H212609  -0.267   5.290   2.478
 4226TIP3   OH212610   0.019   5.191   3.971
 4226TIP3    H112611  -0.055   5.187   3.908
 4226TIP3    H212612   0.068   5.268   3.935
 4227TIP3   OH212613   0.210   5.776   3.485
 4227TIP3    H112614   0.116   5.771   3.508
 4227TIP3    H212615   0.245   5.825   3.563
 4228TIP3   OH212616   0.629   4.850   2.399
 4228TIP3    H112617   0.565   4.806   2.338
 4228TIP3    H212618   0.625   4.939   2.357
 4229TIP3   OH212619   0.849   5.711   3.477
 4229TIP3    H112620   0.751   5.704   3.472
 4229TIP3    H212621   0.873   5.680   3.387
 4230TIP3   OH212622   0.289   5.594   2.351
 4230TIP3    H112623   0.342   5.668   2.318
 4230TIP3    H212624   0.306   5.535   2.261
 4231TIP3   OH212625   0.326   5.300   3.137
 4231TIP3    H112626   0.234   5.272   3.153
 4231TIP3    H212627   0.362   5.219   3.096
 4232TIP3   OH212628   0.123   5.499   3.334
 4232TIP3    H112629   0.132   5.518   3.428
 4232TIP3    H212630   0.209   5.458   3.315
 4233TIP3   OH212631   0.093   5.404   2.206
 4233TIP3    H112632   0.137   5.378   2.288
 4233TIP3    H212633   0.005   5.366   2.217
 4234TIP3   OH212634   0.362   6.029   3.374
 4234TIP3    H112635   0.283   5.972   3.375
 4234TIP3    H212636   0.338   6.096   3.307
 4235TIP3   OH212637   0.417   5.882   2.031
 4235TIP3    H112638   0.447   5.936   1.961
 4235TIP3    H212639   0.343   5.938   2.064
 4236TIP3   OH212640   0.238   5.329   2.438
 4236TIP3    H112641   0.242   5.253   2.504
 4236TIP3    H212642   0.330   5.342   2.417
 4237TIP3   OH212643   0.284   4.708   3.574
 4237TIP3    H112644   0.356   4.753   3.622
 4237TIP3    H212645   0.271   4.628   3.629
 4238TIP3   OH212646   0.164   4.460   2.745
 4238TIP3    H112647   0.144   4.482   2.651
 4238TIP3    H212648   0.202   4.544   2.778
 4239TIP3   OH212649  -0.169   4.665   2.850
 4239TIP3    H112650  -0.091   4.721   2.829
 4239TIP3    H212651  -0.152   4.643   2.944
 4240TIP3   OH212652   0.123   4.950   3.643
 4240TIP3    H112653   0.152   5.010   3.716
 4240TIP3    H212654   0.179   4.873   3.661
 4241TIP3   OH212655   0.001   4.367   2.955
 4241TIP3    H112656  -0.005   4.447   3.010
 4241TIP3    H212657   0.055   4.400   2.880
 4242TIP3   OH212658   0.758   4.860   3.628
 4242TIP3    H112659   0.660   4.862   3.640
 4242TIP3    H212660   0.763   4.814   3.543
 4243TIP3   OH212661   0.410   5.055   3.019
 4243TIP3    H112662   0.333   4.997   3.033
 4243TIP3    H212663   0.481   5.007   3.068
 4244TIP3   OH212664   0.381   6.008   2.970
 4244TIP3    H112665   0.340   6.057   2.897
 4244TIP3    H212666   0.475   6.026   2.951
 4245TIP3   OH212667   0.288   5.904   3.711
 4245TIP3    H112668   0.267   5.846   3.788
 4245TIP3    H212669   0.349   5.968   3.752
 4246TIP3   OH212670   0.078   5.622   2.029
 4246TIP3    H112671   0.101   5.549   2.095
 4246TIP3    H212672   0.136   5.601   1.957
 4247TIP3   OH212673  -0.205   5.285   2.164
 4247TIP3    H112674  -0.210   5.290   2.261
 4247TIP3    H212675  -0.211   5.187   2.151
 4248TIP3   OH212676   0.380   5.529   3.522
 4248TIP3    H112677   0.454   5.580   3.484
 4248TIP3    H212678   0.316   5.600   3.539
 4249TIP3   OH212679  -0.396   4.815   2.460
 4249TIP3    H112680  -0.428   4.799   2.368
 4249TIP3    H212681  -0.300   4.815   2.444
 4250TIP3   OH212682   0.389   5.119   2.071
 4250TIP3    H112683   0.370   5.076   1.985
 4250TIP3    H212684   0.359   5.211   2.048
 4251TIP3   OH212685  -0.182   4.590   3.644
 4251TIP3    H112686  -0.127   4.655   3.594
 4251TIP3    H212687  -0.213   4.643   3.716
 4252TIP3   OH212688  -0.065   5.230   3.544
 4252TIP3    H112689   0.027   5.212   3.520
 4252TIP3    H212690  -0.083   5.311   3.503
 4253TIP3   OH212691   0.480   5.152   3.990
 4253TIP3    H112692   0.526   5.067   3.994
 4253TIP3    H212693   0.540   5.207   3.939
 4254TIP3   OH212694   0.520   5.381   3.712
 4254TIP3    H112695   0.449   5.434   3.670
 4254TIP3    H212696   0.600   5.416   3.668
 4255TIP3   OH212697   0.001   4.406   3.781
 4255TIP3    H112698  -0.059   4.478   3.753
 4255TIP3    H212699  -0.058   4.329   3.771
 4256TIP3   OH212700   0.132   4.896   4.010
 4256TIP3    H112701   0.162   4.907   4.102
 4256TIP3    H212702   0.038   4.877   4.022
 4257TIP3   OH212703   0.362   4.824   3.856
 4257TIP3    H112704   0.287   4.856   3.911
 4257TIP3    H212705   0.432   4.812   3.923
 4258TIP3   OH212706   0.599   4.801   4.017
 4258TIP3    H112707   0.603   4.705   4.036
 4258TIP3    H212708   0.585   4.839   4.107
 4259TIP3   OH212709   0.092   4.416   4.042
 4259TIP3    H112710   0.158   4.344   4.041
 4259TIP3    H212711   0.055   4.409   3.952
 4260TIP3   OH212712   0.166   4.624   4.202
 4260TIP3    H112713   0.144   4.549   4.143
 4260TIP3    H212714   0.082   4.675   4.199
 4261TIP3   OH212715   0.634   6.099   2.927
 4261TIP3    H112716   0.657   6.131   3.017
 4261TIP3    H212717   0.695   6.150   2.871
 4262TIP3   OH212718   0.666   6.122   3.208
 4262TIP3    H112719   0.616   6.037   3.204
 4262TIP3    H212720   0.734   6.097   3.272
 4263TIP3   OH212721   0.712   5.800   3.778
 4263TIP3    H112722   0.638   5.807   3.842
 4263TIP3    H212723   0.751   5.890   3.785
 4264TIP3   OH212724   0.522   5.306   2.400
 4264TIP3    H112725   0.582   5.379   2.373
 4264TIP3    H212726   0.569   5.272   2.480
 4265TIP3   OH212727   0.654   5.178   2.606
 4265TIP3    H112728   0.586   5.137   2.663
 4265TIP3    H212729   0.716   5.218   2.671
 4266TIP3   OH212730   0.707   5.574   3.036
 4266TIP3    H112731   0.761   5.507   2.988
 4266TIP3    H212732   0.699   5.645   2.971
 4267TIP3   OH212733   0.538   5.872   3.228
 4267TIP3    H112734   0.468   5.915   3.282
 4267TIP3    H212735   0.484   5.825   3.161
 4268TIP3   OH212736   0.591   5.087   2.252
 4268TIP3    H112737   0.518   5.088   2.185
 4268TIP3    H212738   0.563   5.164   2.306
 4269TIP3   OH212739   0.457   4.762   2.208
 4269TIP3    H112740   0.424   4.799   2.126
 4269TIP3    H212741   0.433   4.668   2.199
 4270TIP3   OH212742   0.465   5.036   2.750
 4270TIP3    H112743   0.473   4.939   2.743
 4270TIP3    H212744   0.451   5.049   2.846
 4271TIP3   OH212745   0.759   5.465   3.604
 4271TIP3    H112746   0.829   5.396   3.595
 4271TIP3    H212747   0.788   5.534   3.543
 4272TIP3   OH212748   0.943   5.267   3.617
 4272TIP3    H112749   0.867   5.219   3.658
 4272TIP3    H212750   1.014   5.202   3.634
 4273TIP3   OH212751   0.402   4.497   2.196
 4273TIP3    H112752   0.477   4.462   2.248
 4273TIP3    H212753   0.329   4.435   2.214
 4274TIP3   OH212754   0.462   4.753   2.644
 4274TIP3    H112755   0.503   4.664   2.659
 4274TIP3    H212756   0.519   4.786   2.573
 4275TIP3   OH212757   0.622   4.924   3.141
 4275TIP3    H112758   0.708   4.950   3.101
 4275TIP3    H212759   0.635   4.963   3.230
 4276TIP3   OH212760   0.691   5.070   3.371
 4276TIP3    H112761   0.615   5.102   3.425
 4276TIP3    H212762   0.722   5.153   3.330
 4277TIP3   OH212763   1.146   4.664   3.928
 4277TIP3    H112764   1.203   4.597   3.884
 4277TIP3    H212765   1.116   4.718   3.852
 4278TIP3   OH212766   0.570   4.503   2.684
 4278TIP3    H112767   0.618   4.486   2.768
 4278TIP3    H212768   0.509   4.426   2.681
 4279TIP3   OH212769   1.014   4.801   3.734
 4279TIP3    H112770   0.930   4.842   3.761
 4279TIP3    H212771   0.981   4.730   3.676
 4280TIP3   OH212772   0.652   4.435   2.318
 4280TIP3    H112773   0.689   4.364   2.261
 4280TIP3    H212774   0.717   4.507   2.308
 4281TIP3   OH212775   0.229   5.963   2.571
 4281TIP3    H112776   0.270   6.030   2.541
 4281TIP3    H212777   0.212   5.995   2.655
 4282TIP3   OH212778   0.115   6.197   3.517
 4282TIP3    H112779   0.178   6.130   3.490
 4282TIP3    H212780   0.172   6.255   3.572
 4283TIP3   OH212781   0.914   4.564   3.611
 4283TIP3    H112782   0.822   4.557   3.580
 4283TIP3    H212783   0.945   4.471   3.601
 4284TIP3   OH212784   0.093   6.013   3.245
 4284TIP3    H112785   0.008   6.031   3.288
 4284TIP3    H212786   0.115   6.100   3.210
 4285TIP3   OH212787   0.324   6.206   3.163
 4285TIP3    H112788   0.298   6.286   3.113
 4285TIP3    H212789   0.335   6.140   3.093
 4286TIP3   OH212790   0.118   4.478   3.230
 4286TIP3    H112791   0.077   4.402   3.275
 4286TIP3    H212792   0.193   4.436   3.183
 4287TIP3   OH212793   0.639   4.358   3.135
 4287TIP3    H112794   0.676   4.411   3.061
 4287TIP3    H212795   0.544   4.380   3.130
 4288TIP3   OH212796   0.736   4.459   2.900
 4288TIP3    H112797   0.810   4.408   2.861
 4288TIP3    H212798   0.769   4.551   2.886
 4289TIP3   OH212799  -0.175   4.218   3.135
 4289TIP3    H112800  -0.126   4.266   3.066
 4289TIP3    H212801  -0.129   4.245   3.216
 4290TIP3   OH212802   0.353   4.367   3.113
 4290TIP3    H112803   0.355   4.328   3.025
 4290TIP3    H212804   0.342   4.286   3.169
 4291TIP3   OH212805   0.388   4.290   2.675
 4291TIP3    H112806   0.301   4.334   2.689
 4291TIP3    H212807   0.372   4.204   2.720
 4292TIP3   OH212808  -0.179   4.405   2.738
 4292TIP3    H112809  -0.158   4.356   2.818
 4292TIP3    H212810  -0.193   4.495   2.773
 4293TIP3   OH212811   0.390   5.839   2.381
 4293TIP3    H112812   0.352   5.925   2.404
 4293TIP3    H212813   0.398   5.872   2.279
 4294TIP3   OH212814   0.648   4.526   4.045
 4294TIP3    H112815   0.666   4.498   4.138
 4294TIP3    H212816   0.737   4.522   4.005
 4295TIP3   OH212817   0.590   6.077   3.536
 4295TIP3    H112818   0.510   6.044   3.491
 4295TIP3    H212819   0.567   6.172   3.544
 4296TIP3   OH212820   1.853   5.448   2.306
 4296TIP3    H112821   1.825   5.540   2.285
 4296TIP3    H212822   1.779   5.400   2.264
 4297TIP3   OH212823   1.854   5.453   2.688
 4297TIP3    H112824   1.887   5.426   2.776
 4297TIP3    H212825   1.807   5.373   2.659
 4298TIP3   OH212826   1.153   5.344   3.048
 4298TIP3    H112827   1.181   5.276   3.111
 4298TIP3    H212828   1.228   5.405   3.052
 4299TIP3   OH212829   2.096   5.755   2.369
 4299TIP3    H112830   2.085   5.684   2.434
 4299TIP3    H212831   2.129   5.828   2.423
 4300TIP3   OH212832   1.127   5.759   2.773
 4300TIP3    H112833   1.113   5.662   2.775
 4300TIP3    H212834   1.224   5.762   2.773
 4301TIP3   OH212835   0.831   4.962   2.559
 4301TIP3    H112836   0.780   5.043   2.573
 4301TIP3    H212837   0.763   4.906   2.518
 4302TIP3   OH212838   0.891   5.249   2.735
 4302TIP3    H112839   0.939   5.170   2.770
 4302TIP3    H212840   0.944   5.272   2.658
 4303TIP3   OH212841   1.756   6.212   2.393
 4303TIP3    H112842   1.794   6.149   2.327
 4303TIP3    H212843   1.751   6.154   2.469
 4304TIP3   OH212844   1.651   5.681   2.734
 4304TIP3    H112845   1.686   5.605   2.684
 4304TIP3    H212846   1.737   5.722   2.758
 4305TIP3   OH212847   2.666   4.998   2.731
 4305TIP3    H112848   2.695   5.080   2.776
 4305TIP3    H212849   2.687   5.018   2.638
 4306TIP3   OH212850   2.058   5.179   2.765
 4306TIP3    H112851   2.098   5.093   2.785
 4306TIP3    H212852   2.035   5.167   2.671
 4307TIP3   OH212853   1.407   4.837   2.726
 4307TIP3    H112854   1.379   4.910   2.667
 4307TIP3    H212855   1.355   4.763   2.686
 4308TIP3   OH212856   1.036   5.041   2.839
 4308TIP3    H112857   1.119   5.019   2.886
 4308TIP3    H212858   1.046   4.984   2.759
 4309TIP3   OH212859   1.475   5.238   2.629
 4309TIP3    H112860   1.568   5.211   2.644
 4309TIP3    H212861   1.434   5.155   2.598
 4310TIP3   OH212862   2.738   5.204   2.903
 4310TIP3    H112863   2.655   5.253   2.887
 4310TIP3    H212864   2.761   5.236   2.992
 4311TIP3   OH212865   1.399   4.821   3.165
 4311TIP3    H112866   1.338   4.858   3.099
 4311TIP3    H212867   1.347   4.837   3.247
 4312TIP3   OH212868   1.744   5.670   2.175
 4312TIP3    H112869   1.705   5.651   2.088
 4312TIP3    H212870   1.697   5.752   2.199
 4313TIP3   OH212871   1.506   5.597   2.959
 4313TIP3    H112872   1.443   5.662   2.996
 4313TIP3    H212873   1.548   5.648   2.886
 4314TIP3   OH212874   1.272   4.936   2.947
 4314TIP3    H112875   1.333   5.009   2.971
 4314TIP3    H212876   1.322   4.895   2.873
 4315TIP3   OH212877   1.334   5.789   3.057
 4315TIP3    H112878   1.304   5.876   3.022
 4315TIP3    H212879   1.256   5.770   3.115
 4316TIP3   OH212880   0.731   5.480   2.294
 4316TIP3    H112881   0.681   5.501   2.210
 4316TIP3    H212882   0.753   5.567   2.327
 4317TIP3   OH212883   2.162   5.998   2.537
 4317TIP3    H112884   2.070   5.990   2.571
 4317TIP3    H212885   2.157   6.083   2.489
 4318TIP3   OH212886   2.462   4.893   2.890
 4318TIP3    H112887   2.383   4.940   2.864
 4318TIP3    H212888   2.527   4.924   2.824
 4319TIP3   OH212889   1.747   4.530   2.885
 4319TIP3    H112890   1.734   4.436   2.909
 4319TIP3    H212891   1.671   4.572   2.931
 4320TIP3   OH212892   1.863   6.047   2.203
 4320TIP3    H112893   1.913   5.963   2.185
 4320TIP3    H212894   1.926   6.110   2.162
 4321TIP3   OH212895   2.007   5.830   2.118
 4321TIP3    H112896   1.978   5.750   2.073
 4321TIP3    H212897   2.044   5.794   2.201
 4322TIP3   OH212898   2.391   5.910   2.878
 4322TIP3    H112899   2.383   5.832   2.818
 4322TIP3    H212900   2.378   5.984   2.815
 4323TIP3   OH212901   1.687   5.304   2.138
 4323TIP3    H112902   1.605   5.352   2.116
 4323TIP3    H212903   1.727   5.293   2.050
 4324TIP3   OH212904   1.647   5.082   1.873
 4324TIP3    H112905   1.723   5.137   1.897
 4324TIP3    H212906   1.689   5.021   1.809
 4325TIP3   OH212907   2.587   5.546   2.722
 4325TIP3    H112908   2.505   5.599   2.727
 4325TIP3    H212909   2.618   5.569   2.632
 4326TIP3   OH212910   2.031   5.389   2.106
 4326TIP3    H112911   1.977   5.413   2.184
 4326TIP3    H212912   2.115   5.362   2.148
 4327TIP3   OH212913   2.267   5.425   3.022
 4327TIP3    H112914   2.266   5.507   3.075
 4327TIP3    H212915   2.181   5.433   2.976
 4328TIP3   OH212916   1.263   5.384   2.523
 4328TIP3    H112917   1.220   5.326   2.456
 4328TIP3    H212918   1.340   5.330   2.550
 4329TIP3   OH212919   1.400   5.808   2.668
 4329TIP3    H112920   1.370   5.764   2.587
 4329TIP3    H212921   1.486   5.763   2.685
 4330TIP3   OH212922   1.407   5.351   2.879
 4330TIP3    H112923   1.434   5.334   2.787
 4330TIP3    H212924   1.446   5.440   2.897
 4331TIP3   OH212925   1.917   5.995   2.657
 4331TIP3    H112926   1.919   6.068   2.720
 4331TIP3    H212927   1.911   5.916   2.715
 4332TIP3   OH212928   1.537   5.916   3.196
 4332TIP3    H112929   1.477   5.972   3.250
 4332TIP3    H212930   1.471   5.858   3.151
 4333TIP3   OH212931   1.876   5.238   1.935
 4333TIP3    H112932   1.933   5.301   1.984
 4333TIP3    H212933   1.899   5.262   1.841
 4334TIP3   OH212934   1.291   5.469   3.299
 4334TIP3    H112935   1.297   5.554   3.347
 4334TIP3    H212936   1.198   5.446   3.316
 4335TIP3   OH212937   1.617   5.923   2.215
 4335TIP3    H112938   1.698   5.975   2.217
 4335TIP3    H212939   1.556   5.979   2.164
 4336TIP3   OH212940   1.330   6.079   3.290
 4336TIP3    H112941   1.290   6.071   3.202
 4336TIP3    H212942   1.253   6.058   3.348
 4337TIP3   OH212943   2.390   4.484   1.981
 4337TIP3    H112944   2.310   4.506   2.033
 4337TIP3    H212945   2.403   4.566   1.929
 4338TIP3   OH212946   1.129   5.225   2.332
 4338TIP3    H112947   1.065   5.273   2.274
 4338TIP3    H212948   1.086   5.139   2.339
 4339TIP3   OH212949   2.188   5.852   1.531
 4339TIP3    H112950   2.196   5.949   1.515
 4339TIP3    H212951   2.280   5.822   1.517
 4340TIP3   OH212952   0.913   5.610   3.234
 4340TIP3    H112953   0.844   5.588   3.168
 4340TIP3    H212954   0.949   5.522   3.259
 4341TIP3   OH212955   0.764   5.804   2.865
 4341TIP3    H112956   0.861   5.802   2.861
 4341TIP3    H212957   0.748   5.883   2.920
 4342TIP3   OH212958   2.630   6.254   2.924
 4342TIP3    H112959   2.630   6.158   2.940
 4342TIP3    H212960   2.547   6.280   2.970
 4343TIP3   OH212961   1.738   6.035   3.061
 4343TIP3    H112962   1.751   6.118   3.111
 4343TIP3    H212963   1.667   5.992   3.114
 4344TIP3   OH212964   1.500   6.169   2.010
 4344TIP3    H112965   1.450   6.145   1.929
 4344TIP3    H212966   1.463   6.256   2.033
 4345TIP3   OH212967   0.935   6.020   2.394
 4345TIP3    H112968   0.978   6.006   2.481
 4345TIP3    H212969   0.881   5.939   2.387
 4346TIP3   OH212970   1.700   6.072   1.649
 4346TIP3    H112971   1.757   6.001   1.613
 4346TIP3    H212972   1.734   6.079   1.741
 4347TIP3   OH212973   1.751   6.120   1.919
 4347TIP3    H112974   1.662   6.129   1.960
 4347TIP3    H212975   1.799   6.075   1.990
 4348TIP3   OH212976   2.521   5.386   3.201
 4348TIP3    H112977   2.440   5.396   3.149
 4348TIP3    H212978   2.537   5.290   3.192
 4349TIP3   OH212979   1.118   5.793   3.223
 4349TIP3    H112980   1.166   5.777   3.307
 4349TIP3    H212981   1.043   5.730   3.230
 4350TIP3   OH212982   1.513   4.619   3.009
 4350TIP3    H112983   1.423   4.587   2.984
 4350TIP3    H212984   1.487   4.698   3.060
 4351TIP3   OH212985   2.049   4.731   3.203
 4351TIP3    H112986   2.118   4.705   3.267
 4351TIP3    H212987   1.966   4.712   3.251
 4352TIP3   OH212988   2.286   5.160   3.118
 4352TIP3    H112989   2.240   5.157   3.205
 4352TIP3    H212990   2.264   5.250   3.086
 4353TIP3   OH212991   1.954   5.290   1.681
 4353TIP3    H112992   1.913   5.267   1.596
 4353TIP3    H212993   2.035   5.336   1.651
 4354TIP3   OH212994   1.667   4.656   1.980
 4354TIP3    H112995   1.621   4.658   2.066
 4354TIP3    H212996   1.619   4.582   1.938
 4355TIP3   OH212997   1.451   5.129   3.028
 4355TIP3    H112998   1.399   5.149   3.109
 4355TIP3    H212999   1.434   5.211   2.975
 4356TIP3   OH213000   1.332   5.018   2.539
 4356TIP3    H113001   1.239   4.994   2.556
 4356TIP3    H213002   1.343   4.980   2.448
 4357TIP3   OH213003   1.821   5.099   2.267
 4357TIP3    H113004   1.769   5.173   2.228
 4357TIP3    H213005   1.875   5.073   2.189
 4358TIP3   OH213006   1.995   5.382   3.354
 4358TIP3    H113007   1.973   5.309   3.416
 4358TIP3    H213008   2.089   5.397   3.376
 4359TIP3   OH213009   1.979   5.141   2.505
 4359TIP3    H113010   1.920   5.193   2.448
 4359TIP3    H213011   1.996   5.067   2.446
 4360TIP3   OH213012   1.268   5.159   3.235
 4360TIP3    H113013   1.289   5.222   3.305
 4360TIP3    H213014   1.253   5.077   3.285
 4361TIP3   OH213015   1.322   4.643   1.941
 4361TIP3    H113016   1.299   4.641   2.036
 4361TIP3    H213017   1.245   4.690   1.904
 4362TIP3   OH213018   0.858   4.684   2.816
 4362TIP3    H113019   0.935   4.714   2.869
 4362TIP3    H213020   0.897   4.649   2.735
 4363TIP3   OH213021   0.831   4.665   2.337
 4363TIP3    H113022   0.873   4.704   2.257
 4363TIP3    H213023   0.767   4.736   2.358
 4364TIP3   OH213024   1.983   5.379   2.930
 4364TIP3    H113025   2.019   5.308   2.872
 4364TIP3    H213026   1.959   5.326   3.009
 4365TIP3   OH213027   1.664   4.826   2.617
 4365TIP3    H113028   1.570   4.818   2.641
 4365TIP3    H213029   1.697   4.865   2.699
 4366TIP3   OH213030   1.093   4.898   2.609
 4366TIP3    H113031   0.998   4.907   2.583
 4366TIP3    H213032   1.112   4.805   2.587
 4367TIP3   OH213033   1.366   4.897   2.294
 4367TIP3    H113034   1.454   4.912   2.255
 4367TIP3    H213035   1.307   4.915   2.217
 4368TIP3   OH213036   2.117   4.904   2.797
 4368TIP3    H113037   2.123   4.934   2.890
 4368TIP3    H213038   2.054   4.834   2.807
 4369TIP3   OH213039   1.206   4.923   2.078
 4369TIP3    H113040   1.134   4.878   2.030
 4369TIP3    H213041   1.257   4.960   2.002
 4370TIP3   OH213042   2.322   6.606   3.024
 4370TIP3    H113043   2.322   6.630   2.929
 4370TIP3    H213044   2.402   6.652   3.056
 4371TIP3   OH213045   1.279   5.717   3.443
 4371TIP3    H113046   1.358   5.745   3.495
 4371TIP3    H213047   1.213   5.712   3.515
 4372TIP3   OH213048   1.738   5.164   2.700
 4372TIP3    H113049   1.822   5.134   2.662
 4372TIP3    H213050   1.745   5.133   2.793
 4373TIP3   OH213051   1.268   4.652   2.581
 4373TIP3    H113052   1.228   4.576   2.630
 4373TIP3    H213053   1.296   4.610   2.499
 4374TIP3   OH213054   1.721   5.072   2.978
 4374TIP3    H113055   1.630   5.102   3.000
 4374TIP3    H213056   1.777   5.127   3.037
 4375TIP3   OH213057   1.456   5.456   2.086
 4375TIP3    H113058   1.385   5.390   2.073
 4375TIP3    H213059   1.436   5.489   2.177
 4376TIP3   OH213060   2.355   5.693   2.712
 4376TIP3    H113061   2.381   5.742   2.631
 4376TIP3    H213062   2.270   5.652   2.686
 4377TIP3   OH213063   1.914   4.759   1.956
 4377TIP3    H113064   1.817   4.742   1.954
 4377TIP3    H213065   1.919   4.856   1.960
 4378TIP3   OH213066   1.858   5.773   3.081
 4378TIP3    H113067   1.885   5.745   3.170
 4378TIP3    H213068   1.816   5.859   3.097
 4379TIP3   OH213069   1.989   5.014   2.062
 4379TIP3    H113070   2.086   5.026   2.070
 4379TIP3    H213071   1.964   5.087   2.001
 4380TIP3   OH213072   1.153   5.484   2.762
 4380TIP3    H113073   1.187   5.450   2.676
 4380TIP3    H213074   1.181   5.416   2.824
 4381TIP3   OH213075   1.604   5.608   1.912
 4381TIP3    H113076   1.554   5.693   1.917
 4381TIP3    H213077   1.548   5.550   1.968
 4382TIP3   OH213078   1.030   5.396   3.371
 4382TIP3    H113079   1.045   5.382   3.467
 4382TIP3    H213080   0.958   5.332   3.354
 4383TIP3   OH213081   1.753   5.515   3.392
 4383TIP3    H113082   1.693   5.452   3.350
 4383TIP3    H213083   1.841   5.479   3.365
 4384TIP3   OH213084   2.013   6.043   2.969
 4384TIP3    H113085   1.920   6.029   2.990
 4384TIP3    H213086   2.044   6.089   3.050
 4385TIP3   OH213087   2.424   5.107   1.885
 4385TIP3    H113088   2.362   5.062   1.823
 4385TIP3    H213089   2.420   5.196   1.845
 4386TIP3   OH213090   2.642   5.964   2.967
 4386TIP3    H113091   2.544   5.958   2.959
 4386TIP3    H213092   2.668   5.935   2.877
 4387TIP3   OH213093   2.127   5.925   1.795
 4387TIP3    H113094   2.099   5.853   1.854
 4387TIP3    H213095   2.138   5.880   1.709
 4388TIP3   OH213096   2.119   5.558   2.630
 4388TIP3    H113097   2.026   5.530   2.643
 4388TIP3    H213098   2.155   5.478   2.585
 4389TIP3   OH213099   1.248   5.785   2.392
 4389TIP3    H113100   1.247   5.863   2.333
 4389TIP3    H213101   1.155   5.761   2.392
 4390TIP3   OH213102   0.815   5.086   2.091
 4390TIP3    H113103   0.859   5.171   2.110
 4390TIP3    H213104   0.736   5.091   2.149
 4391TIP3   OH213105   1.386   5.549   2.332
 4391TIP3    H113106   1.352   5.639   2.350
 4391TIP3    H213107   1.346   5.498   2.404
 4392TIP3   OH213108   1.550   6.159   2.891
 4392TIP3    H113109   1.557   6.158   2.795
 4392TIP3    H213110   1.605   6.084   2.917
 4393TIP3   OH213111   1.168   6.020   2.240
 4393TIP3    H113112   1.081   6.028   2.283
 4393TIP3    H213113   1.198   6.113   2.239
 4394TIP3   OH213114   1.907   5.763   2.812
 4394TIP3    H113115   1.898   5.758   2.910
 4394TIP3    H213116   1.986   5.707   2.798
 4395TIP3   OH213117   1.881   5.657   1.695
 4395TIP3    H113118   1.932   5.631   1.775
 4395TIP3    H213119   1.793   5.623   1.718
 4396TIP3   OH213120   2.154   6.295   2.866
 4396TIP3    H113121   2.078   6.235   2.862
 4396TIP3    H213122   2.136   6.356   2.790
 4397TIP3   OH213123   2.220   6.128   1.515
 4397TIP3    H113124   2.258   6.201   1.464
 4397TIP3    H213125   2.139   6.172   1.548
 4398TIP3   OH213126   1.239   4.904   3.379
 4398TIP3    H113127   1.142   4.909   3.394
 4398TIP3    H213128   1.266   4.847   3.453
 4399TIP3   OH213129   2.042   5.593   1.915
 4399TIP3    H113130   2.030   5.523   1.982
 4399TIP3    H213131   2.138   5.586   1.900
 4400TIP3   OH213132   0.960   5.988   3.011
 4400TIP3    H113133   1.008   5.913   3.049
 4400TIP3    H213134   0.974   6.055   3.078
 4401TIP3   OH213135   1.247   5.634   1.696
 4401TIP3    H113136   1.257   5.542   1.663
 4401TIP3    H213137   1.225   5.619   1.790
 4402TIP3   OH213138   1.191   5.639   1.968
 4402TIP3    H113139   1.264   5.611   2.025
 4402TIP3    H213140   1.195   5.737   1.975
 4403TIP3   OH213141   0.929   5.332   2.172
 4403TIP3    H113142   0.861   5.376   2.227
 4403TIP3    H213143   0.941   5.401   2.103
 4404TIP3   OH213144   2.091   4.960   3.056
 4404TIP3    H113145   2.161   5.009   3.103
 4404TIP3    H213146   2.074   4.884   3.116
 4405TIP3   OH213147   1.965   4.753   2.223
 4405TIP3    H113148   1.932   4.730   2.134
 4405TIP3    H213149   2.002   4.840   2.201
 4406TIP3   OH213150   1.460   5.838   1.921
 4406TIP3    H113151   1.372   5.864   1.953
 4406TIP3    H213152   1.470   5.899   1.846
 4407TIP3   OH213153   1.670   4.881   2.339
 4407TIP3    H113154   1.718   4.961   2.309
 4407TIP3    H213155   1.652   4.901   2.432
 4408TIP3   OH213156   1.918   5.216   3.140
 4408TIP3    H113157   1.933   5.276   3.217
 4408TIP3    H213158   1.973   5.141   3.165
 4409TIP3   OH213159   1.865   4.685   2.468
 4409TIP3    H113160   1.790   4.738   2.505
 4409TIP3    H213161   1.865   4.720   2.376
 4410TIP3   OH213162   1.205   5.912   1.985
 4410TIP3    H113163   1.173   5.981   1.922
 4410TIP3    H213164   1.185   5.954   2.071
 4411TIP3   OH213165   1.296   4.624   2.224
 4411TIP3    H113166   1.294   4.716   2.255
 4411TIP3    H213167   1.393   4.609   2.221
 4412TIP3   OH213168   2.554   5.119   3.121
 4412TIP3    H113169   2.455   5.116   3.124
 4412TIP3    H213170   2.570   5.081   3.034
 4413TIP3   OH213171   2.205   5.318   2.505
 4413TIP3    H113172   2.134   5.254   2.521
 4413TIP3    H213173   2.281   5.276   2.553
 4414TIP3   OH213174   0.921   5.538   1.977
 4414TIP3    H113175   0.989   5.608   1.982
 4414TIP3    H213176   0.963   5.481   1.909
 4415TIP3   OH213177   0.865   4.816   2.114
 4415TIP3    H113178   0.860   4.914   2.108
 4415TIP3    H213179   0.794   4.789   2.055
 4416TIP3   OH213180   2.174   6.268   2.455
 4416TIP3    H113181   2.133   6.316   2.380
 4416TIP3    H213182   2.269   6.287   2.436
 4417TIP3   OH213183   1.252   4.535   2.981
 4417TIP3    H113184   1.218   4.501   2.896
 4417TIP3    H213185   1.241   4.458   3.040
 4418TIP3   OH213186   0.793   5.766   2.364
 4418TIP3    H113187   0.721   5.785   2.422
 4418TIP3    H213188   0.759   5.800   2.277
 4419TIP3   OH213189   0.948   6.298   3.431
 4419TIP3    H113190   1.031   6.295   3.482
 4419TIP3    H213191   0.922   6.204   3.433
 4420TIP3   OH213192   1.435   6.274   3.460
 4420TIP3    H113193   1.523   6.240   3.483
 4420TIP3    H213194   1.404   6.204   3.399
 4421TIP3   OH213195   1.412   5.836   1.612
 4421TIP3    H113196   1.354   5.764   1.647
 4421TIP3    H213197   1.485   5.783   1.575
 4422TIP3   OH213198   2.065   6.166   3.210
 4422TIP3    H113199   2.057   6.097   3.281
 4422TIP3    H213200   2.143   6.216   3.240
 4423TIP3   OH213201   1.846   5.878   1.521
 4423TIP3    H113202   1.885   5.810   1.579
 4423TIP3    H213203   1.903   5.874   1.442
 4424TIP3   OH213204   1.079   5.705   3.634
 4424TIP3    H113205   1.094   5.609   3.643
 4424TIP3    H213206   0.990   5.707   3.592
 4425TIP3   OH213207   1.055   5.354   1.829
 4425TIP3    H113208   1.111   5.318   1.899
 4425TIP3    H213209   1.120   5.356   1.755
 4426TIP3   OH213210   1.686   5.789   3.407
 4426TIP3    H113211   1.643   5.799   3.321
 4426TIP3    H213212   1.719   5.696   3.404
 4427TIP3   OH213213   1.572   5.556   1.640
 4427TIP3    H113214   1.569   5.566   1.737
 4427TIP3    H213215   1.572   5.458   1.632
 4428TIP3   OH213216   2.177   5.798   3.014
 4428TIP3    H113217   2.253   5.841   2.971
 4428TIP3    H213218   2.107   5.864   2.999
 4429TIP3   OH213219   1.200   5.442   3.616
 4429TIP3    H113220   1.269   5.376   3.601
 4429TIP3    H213221   1.224   5.472   3.706
 4430TIP3   OH213222   1.267   5.257   2.053
 4430TIP3    H113223   1.234   5.210   2.131
 4430TIP3    H213224   1.301   5.184   1.997
 4431TIP3   OH213225   1.534   5.325   3.280
 4431TIP3    H113226   1.454   5.382   3.281
 4431TIP3    H213227   1.581   5.358   3.200
 4432TIP3   OH213228   1.362   5.052   1.892
 4432TIP3    H113229   1.333   5.051   1.798
 4432TIP3    H213230   1.459   5.055   1.882
 4433TIP3   OH213231   2.048   5.723   3.410
 4433TIP3    H113232   2.132   5.699   3.369
 4433TIP3    H213233   2.043   5.660   3.484
 4434TIP3   OH213234   2.186   5.383   1.555
 4434TIP3    H113235   2.163   5.336   1.472
 4434TIP3    H213236   2.153   5.473   1.531
 4435TIP3   OH213237   1.655   5.111   3.405
 4435TIP3    H113238   1.654   5.031   3.349
 4435TIP3    H213239   1.611   5.178   3.348
 4436TIP3   OH213240   1.657   4.898   3.210
 4436TIP3    H113241   1.682   4.936   3.124
 4436TIP3    H213242   1.563   4.874   3.195
 4437TIP3   OH213243   1.685   5.431   3.082
 4437TIP3    H113244   1.769   5.442   3.036
 4437TIP3    H213245   1.628   5.497   3.039
 4438TIP3   OH213246   2.264   5.398   3.465
 4438TIP3    H113247   2.312   5.316   3.485
 4438TIP3    H213248   2.336   5.454   3.432
 4439TIP3   OH213249   2.308   5.650   3.199
 4439TIP3    H113250   2.250   5.706   3.141
 4439TIP3    H213251   2.396   5.671   3.161
 4440TIP3   OH213252   1.533   5.221   3.635
 4440TIP3    H113253   1.464   5.153   3.652
 4440TIP3    H213254   1.568   5.192   3.549
 4441TIP3   OH213255   1.789   4.660   3.278
 4441TIP3    H113256   1.739   4.742   3.258
 4441TIP3    H213257   1.719   4.592   3.269
 4442TIP3   OH213258   1.916   5.165   3.496
 4442TIP3    H113259   1.906   5.151   3.592
 4442TIP3    H213260   1.825   5.140   3.467
 4443TIP3   OH213261   2.151   5.109   3.347
 4443TIP3    H113262   2.078   5.113   3.411
 4443TIP3    H213263   2.226   5.081   3.404
 4444TIP3   OH213264   2.380   5.054   3.499
 4444TIP3    H113265   2.395   4.959   3.518
 4444TIP3    H213266   2.377   5.093   3.589
 4445TIP3   OH213267   1.374   5.000   3.689
 4445TIP3    H113268   1.378   4.908   3.657
 4445TIP3    H213269   1.410   4.989   3.780
 4446TIP3   OH213270   1.884   4.672   3.536
 4446TIP3    H113271   1.951   4.601   3.533
 4446TIP3    H213272   1.844   4.663   3.448
 4447TIP3   OH213273   1.950   4.886   3.695
 4447TIP3    H113274   1.928   4.814   3.632
 4447TIP3    H213275   1.871   4.944   3.690
 4448TIP3   OH213276   1.175   6.120   1.805
 4448TIP3    H113277   1.267   6.115   1.773
 4448TIP3    H213278   1.130   6.153   1.726
 4449TIP3   OH213279   0.654   5.492   2.012
 4449TIP3    H113280   0.747   5.513   2.001
 4449TIP3    H213281   0.647   5.403   1.975
 4450TIP3   OH213282   0.564   6.113   2.437
 4450TIP3    H113283   0.524   6.043   2.386
 4450TIP3    H213284   0.618   6.061   2.500
 4451TIP3   OH213285   0.702   5.962   2.615
 4451TIP3    H113286   0.690   5.886   2.674
 4451TIP3    H213287   0.753   6.021   2.675
 4452TIP3   OH213288   2.427   6.361   2.413
 4452TIP3    H113289   2.455   6.394   2.501
 4452TIP3    H213290   2.493   6.401   2.354
 4453TIP3   OH213291   2.455   6.380   2.696
 4453TIP3    H113292   2.415   6.291   2.692
 4453TIP3    H213293   2.533   6.361   2.751
 4454TIP3   OH213294   2.502   6.057   3.267
 4454TIP3    H113295   2.431   6.065   3.334
 4454TIP3    H213296   2.545   6.144   3.273
 4455TIP3   OH213297   2.320   5.569   1.887
 4455TIP3    H113298   2.389   5.633   1.859
 4455TIP3    H213299   2.364   5.529   1.966
 4456TIP3   OH213300   2.449   5.437   2.091
 4456TIP3    H113301   2.383   5.394   2.150
 4456TIP3    H213302   2.514   5.473   2.154
 4457TIP3   OH213303   2.501   5.828   2.521
 4457TIP3    H113304   2.556   5.763   2.475
 4457TIP3    H213305   2.498   5.902   2.458
 4458TIP3   OH213306   2.333   6.128   2.717
 4458TIP3    H113307   2.263   6.169   2.771
 4458TIP3    H213308   2.282   6.080   2.649
 4459TIP3   OH213309   2.386   5.344   1.739
 4459TIP3    H113310   2.314   5.346   1.671
 4459TIP3    H213311   2.358   5.420   1.794
 4460TIP3   OH213312   2.259   5.017   1.691
 4460TIP3    H113313   2.211   5.056   1.617
 4460TIP3    H213314   2.233   4.922   1.682
 4461TIP3   OH213315   2.260   5.294   2.235
 4461TIP3    H113316   2.268   5.197   2.225
 4461TIP3    H213317   2.249   5.305   2.332
 4462TIP3   OH213318   0.887   5.368   2.984
 4462TIP3    H113319   0.884   5.335   2.892
 4462TIP3    H213320   0.985   5.367   3.000
 4463TIP3   OH213321   2.551   5.718   3.094
 4463TIP3    H113322   2.623   5.651   3.085
 4463TIP3    H213323   2.581   5.788   3.034
 4464TIP3   OH213324   2.735   5.522   3.108
 4464TIP3    H113325   2.661   5.472   3.148
 4464TIP3    H213326   2.809   5.459   3.123
 4465TIP3   OH213327   2.199   4.752   1.677
 4465TIP3    H113328   2.271   4.717   1.733
 4465TIP3    H213329   2.124   4.694   1.698
 4466TIP3   OH213330   2.263   5.018   2.122
 4466TIP3    H113331   2.299   4.929   2.145
 4466TIP3    H213332   2.324   5.043   2.051
 4467TIP3   OH213333   2.415   5.202   2.631
 4467TIP3    H113334   2.502   5.214   2.588
 4467TIP3    H213335   2.436   5.232   2.721
 4468TIP3   OH213336   2.491   5.330   2.866
 4468TIP3    H113337   2.412   5.364   2.912
 4468TIP3    H213338   2.522   5.410   2.818
 4469TIP3   OH213339   1.107   5.053   3.658
 4469TIP3    H113340   1.205   5.046   3.663
 4469TIP3    H213341   1.081   4.969   3.699
 4470TIP3   OH213342   2.938   4.918   3.415
 4470TIP3    H113343   2.998   4.852   3.374
 4470TIP3    H213344   2.912   4.973   3.338
 4471TIP3   OH213345   2.363   4.761   2.172
 4471TIP3    H113346   2.417   4.743   2.252
 4471TIP3    H213347   2.306   4.682   2.170
 4472TIP3   OH213348   1.068   4.744   2.986
 4472TIP3    H113349   1.130   4.669   2.999
 4472TIP3    H213350   1.130   4.819   2.982
 4473TIP3   OH213351   0.868   5.017   3.063
 4473TIP3    H113352   0.918   5.014   2.978
 4473TIP3    H213353   0.896   5.102   3.098
 4474TIP3   OH213354   2.811   5.058   3.219
 4474TIP3    H113355   2.724   5.097   3.243
 4474TIP3    H213356   2.781   4.984   3.162
 4475TIP3   OH213357   2.446   4.692   1.805
 4475TIP3    H113358   2.486   4.621   1.750
 4475TIP3    H213359   2.512   4.764   1.798
 4476TIP3   OH213360   0.854   4.526   2.567
 4476TIP3    H113361   0.760   4.519   2.591
 4476TIP3    H213362   0.850   4.582   2.487
 4477TIP3   OH213363   2.012   6.228   2.070
 4477TIP3    H113364   2.062   6.212   1.988
 4477TIP3    H213365   2.068   6.292   2.116
 4478TIP3   OH213366   1.073   4.601   3.377
 4478TIP3    H113367   1.023   4.596   3.461
 4478TIP3    H213368   1.005   4.641   3.318
 4479TIP3   OH213369   1.114   6.030   3.457
 4479TIP3    H113370   1.021   6.005   3.439
 4479TIP3    H213371   1.122   6.008   3.550
 4480TIP3   OH213372   1.294   6.057   3.003
 4480TIP3    H113373   1.236   6.126   2.963
 4480TIP3    H213374   1.381   6.090   2.974
 4481TIP3   OH213375   1.720   6.323   3.113
 4481TIP3    H113376   1.743   6.315   3.209
 4481TIP3    H213377   1.805   6.366   3.084
 4482TIP3   OH213378   1.926   6.449   3.002
 4482TIP3    H113379   2.001   6.406   2.958
 4482TIP3    H213380   1.974   6.513   3.060
 4483TIP3   OH213381   2.710   4.818   3.099
 4483TIP3    H113382   2.619   4.807   3.069
 4483TIP3    H213383   2.745   4.727   3.089
 4484TIP3   OH213384   0.971   6.323   3.027
 4484TIP3    H113385   0.881   6.354   3.002
 4484TIP3    H213386   0.976   6.357   3.117
 4485TIP3   OH213387   1.199   6.277   2.877
 4485TIP3    H113388   1.117   6.300   2.926
 4485TIP3    H213389   1.188   6.331   2.797
 4486TIP3   OH213390   1.619   6.372   2.709
 4486TIP3    H113391   1.547   6.356   2.645
 4486TIP3    H213392   1.658   6.451   2.670
 4487TIP3   OH213393   1.894   6.269   2.737
 4487TIP3    H113394   1.806   6.293   2.704
 4487TIP3    H213395   1.951   6.335   2.693
 4488TIP3   OH213396   2.093   6.451   2.646
 4488TIP3    H113397   2.086   6.539   2.601
 4488TIP3    H213398   2.128   6.395   2.573
 4489TIP3   OH213399   0.880   6.116   2.772
 4489TIP3    H113400   0.906   6.087   2.862
 4489TIP3    H213401   0.950   6.071   2.720
 4490TIP3   OH213402   1.071   5.985   2.630
 4490TIP3    H113403   1.085   5.899   2.677
 4490TIP3    H213404   1.163   6.013   2.613
 4491TIP3   OH213405   1.349   6.083   2.626
 4491TIP3    H113406   1.377   5.989   2.616
 4491TIP3    H213407   1.330   6.088   2.720
 4492TIP3   OH213408   2.452   4.607   2.621
 4492TIP3    H113409   2.496   4.659   2.550
 4492TIP3    H213410   2.368   4.653   2.629
 4493TIP3   OH213411   2.531   4.720   2.388
 4493TIP3    H113412   2.602   4.664   2.350
 4493TIP3    H213413   2.568   4.809   2.371
 4494TIP3   OH213414   1.163   4.443   2.733
 4494TIP3    H113415   1.070   4.411   2.735
 4494TIP3    H213416   1.211   4.357   2.731
 4495TIP3   OH213417   0.956   4.314   2.385
 4495TIP3    H113418   0.981   4.370   2.309
 4495TIP3    H213419   0.923   4.380   2.449
 4496TIP3   OH213420   1.612   4.478   2.617
 4496TIP3    H113421   1.690   4.528   2.595
 4496TIP3    H213422   1.602   4.501   2.711
 4497TIP3   OH213423   2.189   4.543   2.166
 4497TIP3    H113424   2.098   4.569   2.146
 4497TIP3    H213425   2.175   4.456   2.209
 4498TIP3   OH213426   0.668   5.890   2.162
 4498TIP3    H113427   0.583   5.854   2.131
 4498TIP3    H213428   0.658   5.983   2.127
 4499TIP3   OH213429   1.066   4.469   2.149
 4499TIP3    H113430   1.113   4.408   2.089
 4499TIP3    H213431   1.139   4.524   2.182
 4500TIP3   OH213432   1.572   4.646   2.240
 4500TIP3    H113433   1.596   4.586   2.311
 4500TIP3    H213434   1.606   4.733   2.273
 4501TIP3   OH213435   1.439   6.075   1.740
 4501TIP3    H113436   1.528   6.095   1.705
 4501TIP3    H213437   1.417   5.998   1.683
 4502TIP3   OH213438   2.158   6.192   1.838
 4502TIP3    H113439   2.150   6.094   1.826
 4502TIP3    H213440   2.113   6.224   1.757
 4503TIP3   OH213441   1.371   4.725   3.626
 4503TIP3    H113442   1.336   4.655   3.683
 4503TIP3    H213443   1.466   4.725   3.653
 4504TIP3   OH213444   1.620   4.721   3.745
 4504TIP3    H113445   1.706   4.694   3.708
 4504TIP3    H213446   1.606   4.651   3.812
 4505TIP3   OH213447   0.735   5.884   1.815
 4505TIP3    H113448   0.740   5.930   1.900
 4505TIP3    H213449   0.826   5.851   1.803
 4506TIP3   OH213450   2.445   4.785   3.532
 4506TIP3    H113451   2.463   4.754   3.623
 4506TIP3    H213452   2.534   4.779   3.491
 4507TIP3   OH213453   2.384   6.337   3.025
 4507TIP3    H113454   2.305   6.307   2.976
 4507TIP3    H213455   2.366   6.433   3.030
 4508TIP3   OH213456   3.651   5.709   1.789
 4508TIP3    H113457   3.621   5.800   1.769
 4508TIP3    H213458   3.575   5.658   1.758
 4509TIP3   OH213459   3.647   5.709   2.176
 4509TIP3    H113460   3.682   5.682   2.262
 4509TIP3    H213461   3.608   5.627   2.143
 4510TIP3   OH213462   2.947   5.602   2.539
 4510TIP3    H113463   2.978   5.535   2.602
 4510TIP3    H213464   3.026   5.656   2.530
 4511TIP3   OH213465   3.892   6.013   1.855
 4511TIP3    H113466   3.879   5.939   1.916
 4511TIP3    H213467   3.925   6.083   1.914
 4512TIP3   OH213468   2.920   6.013   2.259
 4512TIP3    H113469   2.911   5.915   2.262
 4512TIP3    H213470   3.017   6.022   2.258
 4513TIP3   OH213471   2.626   5.216   2.045
 4513TIP3    H113472   2.578   5.299   2.061
 4513TIP3    H213473   2.556   5.163   2.004
 4514TIP3   OH213474   2.685   5.503   2.221
 4514TIP3    H113475   2.735   5.426   2.257
 4514TIP3    H213476   2.746   5.536   2.153
 4515TIP3   OH213477   3.548   6.487   1.868
 4515TIP3    H113478   3.588   6.410   1.821
 4515TIP3    H213479   3.529   6.448   1.955
 4516TIP3   OH213480   3.448   5.934   2.220
 4516TIP3    H113481   3.487   5.856   2.177
 4516TIP3    H213482   3.531   5.980   2.244
 4517TIP3   OH213483   4.461   5.254   2.217
 4517TIP3    H113484   4.491   5.336   2.261
 4517TIP3    H213485   4.487   5.271   2.125
 4518TIP3   OH213486   3.860   5.436   2.251
 4518TIP3    H113487   3.903   5.351   2.273
 4518TIP3    H213488   3.829   5.419   2.161
 4519TIP3   OH213489   3.198   5.095   2.218
 4519TIP3    H113490   3.179   5.168   2.154
 4519TIP3    H213491   3.150   5.022   2.174
 4520TIP3   OH213492   3.893   5.186   1.838
 4520TIP3    H113493   3.965   5.171   1.904
 4520TIP3    H213494   3.946   5.221   1.764
 4521TIP3   OH213495   2.832   5.297   2.325
 4521TIP3    H113496   2.915   5.277   2.373
 4521TIP3    H213497   2.845   5.241   2.245
 4522TIP3   OH213498   3.272   5.495   2.119
 4522TIP3    H113499   3.366   5.470   2.132
 4522TIP3    H213500   3.234   5.411   2.087
 4523TIP3   OH213501   4.535   5.461   2.388
 4523TIP3    H113502   4.450   5.508   2.371
 4523TIP3    H213503   4.554   5.489   2.478
 4524TIP3   OH213504   3.195   5.078   2.652
 4524TIP3    H113505   3.135   5.115   2.584
 4524TIP3    H213506   3.143   5.095   2.733
 4525TIP3   OH213507   3.539   5.928   1.660
 4525TIP3    H113508   3.500   5.908   1.575
 4525TIP3    H213509   3.495   6.013   1.683
 4526TIP3   OH213510   3.301   5.854   2.445
 4526TIP3    H113511   3.239   5.921   2.482
 4526TIP3    H213512   3.345   5.904   2.373
 4527TIP3   OH213513   4.100   5.191   2.014
 4527TIP3    H113514   4.092   5.143   2.097
 4527TIP3    H213515   4.155   5.267   2.039
 4528TIP3   OH213516   3.066   5.193   2.436
 4528TIP3    H113517   3.128   5.266   2.459
 4528TIP3    H213518   3.115   5.152   2.361
 4529TIP3   OH213519   3.130   6.049   2.544
 4529TIP3    H113520   3.104   6.137   2.508
 4529TIP3    H213521   3.051   6.032   2.600
 4530TIP3   OH213522   2.523   5.739   1.781
 4530TIP3    H113523   2.482   5.764   1.696
 4530TIP3    H213524   2.554   5.825   1.815
 4531TIP3   OH213525   3.963   6.250   2.025
 4531TIP3    H113526   3.874   6.235   2.066
 4531TIP3    H213527   3.950   6.339   1.989
 4532TIP3   OH213528   4.255   5.153   2.383
 4532TIP3    H113529   4.168   5.184   2.353
 4532TIP3    H213530   4.315   5.185   2.312
 4533TIP3   OH213531   3.549   4.795   2.364
 4533TIP3    H113532   3.538   4.701   2.386
 4533TIP3    H213533   3.472   4.833   2.413
 4534TIP3   OH213534   3.667   6.307   1.696
 4534TIP3    H113535   3.713   6.222   1.677
 4534TIP3    H213536   3.731   6.370   1.655
 4535TIP3   OH213537   3.804   6.089   1.605
 4535TIP3    H113538   3.776   6.008   1.559
 4535TIP3    H213539   3.841   6.052   1.688
 4536TIP3   OH213540   4.188   6.167   2.364
 4536TIP3    H113541   4.178   6.088   2.306
 4536TIP3    H213542   4.175   6.241   2.301
 4537TIP3   OH213543   3.481   5.560   1.622
 4537TIP3    H113544   3.400   5.611   1.599
 4537TIP3    H213545   3.528   5.558   1.537
 4538TIP3   OH213546   3.439   5.347   1.335
 4538TIP3    H113547   3.507   5.396   1.386
 4538TIP3    H213548   3.496   5.282   1.289
 4539TIP3   OH213549   4.383   5.803   2.209
 4539TIP3    H113550   4.301   5.856   2.214
 4539TIP3    H213551   4.414   5.826   2.119
 4540TIP3   OH213552   3.828   5.643   1.592
 4540TIP3    H113553   3.774   5.667   1.671
 4540TIP3    H213554   3.912   5.616   1.635
 4541TIP3   OH213555   4.063   5.681   2.508
 4541TIP3    H113556   4.061   5.764   2.559
 4541TIP3    H213557   3.977   5.686   2.462
 4542TIP3   OH213558   3.061   5.640   2.010
 4542TIP3    H113559   3.020   5.581   1.943
 4542TIP3    H213560   3.138   5.586   2.040
 4543TIP3   OH213561   3.192   6.054   2.156
 4543TIP3    H113562   3.171   6.010   2.073
 4543TIP3    H213563   3.281   6.019   2.176
 4544TIP3   OH213564   3.194   5.612   2.364
 4544TIP3    H113565   3.229   5.589   2.276
 4544TIP3    H213566   3.239   5.697   2.384
 4545TIP3   OH213567   3.722   6.248   2.142
 4545TIP3    H113568   3.707   6.328   2.196
 4545TIP3    H213569   3.706   6.175   2.205
 4546TIP3   OH213570   3.334   6.169   2.689
 4546TIP3    H113571   3.275   6.232   2.735
 4546TIP3    H213572   3.269   6.116   2.640
 4547TIP3   OH213573   3.667   5.502   1.419
 4547TIP3    H113574   3.728   5.560   1.471
 4547TIP3    H213575   3.694   5.525   1.327
 4548TIP3   OH213576   3.090   5.725   2.790
 4548TIP3    H113577   3.094   5.812   2.835
 4548TIP3    H213578   2.995   5.704   2.800
 4549TIP3   OH213579   3.415   6.179   1.691
 4549TIP3    H113580   3.492   6.235   1.711
 4549TIP3    H213581   3.351   6.241   1.654
 4550TIP3   OH213582   3.129   6.338   2.778
 4550TIP3    H113583   3.094   6.339   2.687
 4550TIP3    H213584   3.049   6.316   2.831
 4551TIP3   OH213585   4.184   4.741   1.467
 4551TIP3    H113586   4.103   4.762   1.519
 4551TIP3    H213587   4.197   4.824   1.418
 4552TIP3   OH213588   2.928   5.483   1.814
 4552TIP3    H113589   2.859   5.527   1.759
 4552TIP3    H213590   2.889   5.396   1.827
 4553TIP3   OH213591   3.985   6.107   1.020
 4553TIP3    H113592   3.993   6.203   1.001
 4553TIP3    H213593   4.077   6.077   1.005
 4554TIP3   OH213594   2.707   5.867   2.723
 4554TIP3    H113595   2.643   5.843   2.653
 4554TIP3    H213596   2.746   5.781   2.748
 4555TIP3   OH213597   2.563   6.059   2.355
 4555TIP3    H113598   2.659   6.051   2.344
 4555TIP3    H213599   2.557   6.138   2.412
 4556TIP3   OH213600   4.426   6.510   2.409
 4556TIP3    H113601   4.426   6.414   2.426
 4556TIP3    H213602   4.343   6.536   2.456
 4557TIP3   OH213603   3.532   6.299   2.545
 4557TIP3    H113604   3.533   6.390   2.581
 4557TIP3    H213605   3.461   6.259   2.600
 4558TIP3   OH213606   3.296   6.428   1.495
 4558TIP3    H113607   3.247   6.405   1.414
 4558TIP3    H213608   3.259   6.514   1.520
 4559TIP3   OH213609   2.731   6.274   1.881
 4559TIP3    H113610   2.778   6.265   1.968
 4559TIP3    H213611   2.679   6.193   1.881
 4560TIP3   OH213612   3.496   6.328   1.138
 4560TIP3    H113613   3.553   6.257   1.099
 4560TIP3    H213614   3.533   6.335   1.229
 4561TIP3   OH213615   3.549   6.377   1.412
 4561TIP3    H113616   3.459   6.389   1.448
 4561TIP3    H213617   3.586   6.316   1.478
 4562TIP3   OH213618   4.315   5.642   2.686
 4562TIP3    H113619   4.234   5.652   2.634
 4562TIP3    H213620   4.333   5.546   2.677
 4563TIP3   OH213621   2.913   6.050   2.709
 4563TIP3    H113622   2.963   6.033   2.792
 4563TIP3    H213623   2.839   5.986   2.718
 4564TIP3   OH213624   3.311   4.873   2.495
 4564TIP3    H113625   3.222   4.843   2.469
 4564TIP3    H213626   3.286   4.955   2.543
 4565TIP3   OH213627   3.847   4.988   2.690
 4565TIP3    H113628   3.916   4.960   2.753
 4565TIP3    H213629   3.764   4.967   2.738
 4566TIP3   OH213630   4.082   5.416   2.606
 4566TIP3    H113631   4.035   5.413   2.693
 4566TIP3    H213632   4.060   5.504   2.572
 4567TIP3   OH213633   3.743   5.547   1.163
 4567TIP3    H113634   3.711   5.521   1.074
 4567TIP3    H213635   3.828   5.590   1.140
 4568TIP3   OH213636   3.456   4.923   1.466
 4568TIP3    H113637   3.425   4.920   1.558
 4568TIP3    H213638   3.419   4.839   1.433
 4569TIP3   OH213639   3.243   5.389   2.513
 4569TIP3    H113640   3.194   5.410   2.595
 4569TIP3    H213641   3.226   5.471   2.460
 4570TIP3   OH213642   3.127   5.276   2.027
 4570TIP3    H113643   3.035   5.249   2.046
 4570TIP3    H213644   3.140   5.234   1.939
 4571TIP3   OH213645   3.618   5.360   1.756
 4571TIP3    H113646   3.566   5.432   1.713
 4571TIP3    H213647   3.673   5.329   1.682
 4572TIP3   OH213648   3.793   5.639   2.842
 4572TIP3    H113649   3.770   5.565   2.903
 4572TIP3    H213650   3.887   5.651   2.863
 4573TIP3   OH213651   3.775   5.388   1.993
 4573TIP3    H113652   3.714   5.416   1.922
 4573TIP3    H213653   3.810   5.307   1.951
 4574TIP3   OH213654   3.062   5.418   2.723
 4574TIP3    H113655   3.095   5.479   2.790
 4574TIP3    H213656   3.051   5.335   2.774
 4575TIP3   OH213657   3.112   4.895   1.432
 4575TIP3    H113658   3.105   4.893   1.529
 4575TIP3    H213659   3.034   4.948   1.408
 4576TIP3   OH213660   2.657   4.940   2.303
 4576TIP3    H113661   2.731   4.972   2.358
 4576TIP3    H213662   2.700   4.909   2.222
 4577TIP3   OH213663   2.626   4.921   1.821
 4577TIP3    H113664   2.670   4.959   1.743
 4577TIP3    H213665   2.565   4.994   1.843
 4578TIP3   OH213666   3.784   5.635   2.415
 4578TIP3    H113667   3.818   5.563   2.357
 4578TIP3    H213668   3.756   5.582   2.493
 4579TIP3   OH213669   3.456   5.099   2.089
 4579TIP3    H113670   3.376   5.096   2.145
 4579TIP3    H213671   3.527   5.091   2.154
 4580TIP3   OH213672   2.889   5.153   2.096
 4580TIP3    H113673   2.795   5.159   2.069
 4580TIP3    H213674   2.914   5.062   2.073
 4581TIP3   OH213675   3.157   5.148   1.786
 4581TIP3    H113676   3.251   5.163   1.766
 4581TIP3    H213677   3.111   5.172   1.703
 4582TIP3   OH213678   3.947   5.174   2.292
 4582TIP3    H113679   3.913   5.185   2.383
 4582TIP3    H213680   3.882   5.112   2.255
 4583TIP3   OH213681   3.001   5.184   1.563
 4583TIP3    H113682   2.930   5.138   1.515
 4583TIP3    H213683   3.053   5.220   1.488
 4584TIP3   OH213684   4.119   6.862   2.512
 4584TIP3    H113685   4.119   6.888   2.418
 4584TIP3    H213686   4.199   6.908   2.545
 4585TIP3   OH213687   3.074   5.972   2.931
 4585TIP3    H113688   3.154   6.002   2.978
 4585TIP3    H213689   3.009   5.971   3.004
 4586TIP3   OH213690   3.538   5.427   2.186
 4586TIP3    H113691   3.610   5.386   2.136
 4586TIP3    H213692   3.545   5.383   2.273
 4587TIP3   OH213693   3.058   4.913   2.066
 4587TIP3    H113694   3.024   4.833   2.114
 4587TIP3    H213695   3.111   4.873   1.996
 4588TIP3   OH213696   3.514   5.324   2.474
 4588TIP3    H113697   3.425   5.359   2.491
 4588TIP3    H213698   3.572   5.383   2.526
 4589TIP3   OH213699   3.250   5.713   1.569
 4589TIP3    H113700   3.178   5.647   1.559
 4589TIP3    H213701   3.232   5.746   1.661
 4590TIP3   OH213702   4.151   5.950   2.199
 4590TIP3    H113703   4.176   5.998   2.117
 4590TIP3    H213704   4.066   5.908   2.173
 4591TIP3   OH213705   3.708   5.025   1.432
 4591TIP3    H113706   3.612   5.008   1.443
 4591TIP3    H213707   3.718   5.119   1.459
 4592TIP3   OH213708   3.650   6.032   2.567
 4592TIP3    H113709   3.677   6.010   2.657
 4592TIP3    H213710   3.610   6.120   2.576
 4593TIP3   OH213711   3.778   5.272   1.537
 4593TIP3    H113712   3.874   5.277   1.553
 4593TIP3    H213713   3.761   5.352   1.484
 4594TIP3   OH213714   2.943   5.735   2.246
 4594TIP3    H113715   2.982   5.707   2.160
 4594TIP3    H213716   2.987   5.675   2.308
 4595TIP3   OH213717   3.396   5.862   1.392
 4595TIP3    H113718   3.349   5.948   1.399
 4595TIP3    H213719   3.342   5.806   1.452
 4596TIP3   OH213720   2.824   5.657   2.861
 4596TIP3    H113721   2.847   5.643   2.955
 4596TIP3    H213722   2.757   5.588   2.846
 4597TIP3   OH213723   3.551   5.771   2.879
 4597TIP3    H113724   3.492   5.711   2.830
 4597TIP3    H213725   3.639   5.736   2.853
 4598TIP3   OH213726   3.809   6.297   2.462
 4598TIP3    H113727   3.713   6.291   2.476
 4598TIP3    H213728   3.837   6.345   2.542
 4599TIP3   OH213729   4.219   5.364   1.374
 4599TIP3    H113730   4.156   5.319   1.312
 4599TIP3    H213731   4.217   5.452   1.331
 4600TIP3   OH213732   4.439   6.222   2.453
 4600TIP3    H113733   4.341   6.215   2.446
 4600TIP3    H213734   4.465   6.191   2.364
 4601TIP3   OH213735   3.917   6.178   1.281
 4601TIP3    H113736   3.900   6.102   1.338
 4601TIP3    H213737   3.935   6.136   1.195
 4602TIP3   OH213738   3.916   5.812   2.115
 4602TIP3    H113739   3.824   5.786   2.130
 4602TIP3    H213740   3.952   5.732   2.073
 4603TIP3   OH213741   3.044   6.039   1.871
 4603TIP3    H113742   3.043   6.120   1.818
 4603TIP3    H213743   2.950   6.022   1.883
 4604TIP3   OH213744   2.609   5.343   1.577
 4604TIP3    H113745   2.654   5.427   1.598
 4604TIP3    H213746   2.531   5.348   1.637
 4605TIP3   OH213747   3.181   5.804   1.815
 4605TIP3    H113748   3.146   5.893   1.834
 4605TIP3    H213749   3.146   5.753   1.890
 4606TIP3   OH213750   3.314   6.381   2.341
 4606TIP3    H113751   3.355   6.456   2.294
 4606TIP3    H213752   3.390   6.347   2.391
 4607TIP3   OH213753   2.963   6.278   1.724
 4607TIP3    H113754   2.877   6.285   1.770
 4607TIP3    H213755   2.994   6.372   1.728
 4608TIP3   OH213756   3.702   6.018   2.299
 4608TIP3    H113757   3.691   6.016   2.397
 4608TIP3    H213758   3.780   5.962   2.288
 4609TIP3   OH213759   3.677   5.911   1.184
 4609TIP3    H113760   3.731   5.887   1.263
 4609TIP3    H213761   3.590   5.881   1.213
 4610TIP3   OH213762   3.950   6.547   2.354
 4610TIP3    H113763   3.872   6.488   2.349
 4610TIP3    H213764   3.931   6.612   2.283
 4611TIP3   OH213765   4.014   6.381   1.004
 4611TIP3    H113766   4.052   6.442   0.939
 4611TIP3    H213767   3.936   6.434   1.031
 4612TIP3   OH213768   3.037   5.161   2.867
 4612TIP3    H113769   2.940   5.162   2.881
 4612TIP3    H213770   3.066   5.103   2.939
 4613TIP3   OH213771   3.838   5.848   1.402
 4613TIP3    H113772   3.827   5.779   1.470
 4613TIP3    H213773   3.935   5.842   1.387
 4614TIP3   OH213774   2.750   6.245   2.500
 4614TIP3    H113775   2.805   6.173   2.536
 4614TIP3    H213776   2.779   6.319   2.555
 4615TIP3   OH213777   3.042   5.890   1.182
 4615TIP3    H113778   3.055   5.798   1.154
 4615TIP3    H213779   3.022   5.878   1.277
 4616TIP3   OH213780   2.987   5.895   1.455
 4616TIP3    H113781   3.059   5.866   1.512
 4616TIP3    H213782   2.992   5.993   1.463
 4617TIP3   OH213783   2.722   5.587   1.658
 4617TIP3    H113784   2.656   5.632   1.715
 4617TIP3    H213785   2.736   5.657   1.591
 4618TIP3   OH213786   3.871   5.225   2.551
 4618TIP3    H113787   3.953   5.264   2.588
 4618TIP3    H213788   3.860   5.144   2.605
 4619TIP3   OH213789   3.753   4.976   1.715
 4619TIP3    H113790   3.741   5.000   1.622
 4619TIP3    H213791   3.794   5.057   1.752
 4620TIP3   OH213792   3.254   6.093   1.403
 4620TIP3    H113793   3.167   6.119   1.439
 4620TIP3    H213794   3.268   6.163   1.338
 4621TIP3   OH213795   3.439   5.157   1.817
 4621TIP3    H113796   3.505   5.228   1.800
 4621TIP3    H213797   3.446   5.148   1.915
 4622TIP3   OH213798   3.712   5.473   2.624
 4622TIP3    H113799   3.735   5.525   2.704
 4622TIP3    H213800   3.766   5.393   2.635
 4623TIP3   OH213801   3.585   4.880   1.918
 4623TIP3    H113802   3.584   4.954   1.981
 4623TIP3    H213803   3.647   4.915   1.849
 4624TIP3   OH213804   2.998   6.169   1.471
 4624TIP3    H113805   2.968   6.238   1.409
 4624TIP3    H213806   2.981   6.211   1.558
 4625TIP3   OH213807   3.098   4.881   1.708
 4625TIP3    H113808   3.095   4.971   1.746
 4625TIP3    H213809   3.194   4.863   1.717
 4626TIP3   OH213810   4.350   5.376   2.606
 4626TIP3    H113811   4.252   5.373   2.612
 4626TIP3    H213812   4.363   5.332   2.521
 4627TIP3   OH213813   4.002   5.570   1.994
 4627TIP3    H113814   3.927   5.509   2.006
 4627TIP3    H213815   4.074   5.523   2.041
 4628TIP3   OH213816   2.716   5.796   1.463
 4628TIP3    H113817   2.785   5.864   1.472
 4628TIP3    H213818   2.759   5.739   1.396
 4629TIP3   OH213819   2.659   5.072   1.595
 4629TIP3    H113820   2.658   5.170   1.593
 4629TIP3    H213821   2.575   5.051   1.552
 4630TIP3   OH213822   3.962   6.535   1.942
 4630TIP3    H113823   3.934   6.494   1.860
 4630TIP3    H213824   4.056   6.560   1.922
 4631TIP3   OH213825   3.046   4.793   2.470
 4631TIP3    H113826   3.016   4.758   2.383
 4631TIP3    H213827   3.036   4.714   2.528
 4632TIP3   OH213828   2.586   6.015   1.849
 4632TIP3    H113829   2.518   6.042   1.911
 4632TIP3    H213830   2.554   6.056   1.766
 4633TIP3   OH213831   2.743   6.555   2.924
 4633TIP3    H113832   2.831   6.556   2.969
 4633TIP3    H213833   2.725   6.459   2.921
 4634TIP3   OH213834   3.238   6.513   2.980
 4634TIP3    H113835   3.329   6.479   2.974
 4634TIP3    H213836   3.201   6.473   2.899
 4635TIP3   OH213837   3.206   6.093   1.095
 4635TIP3    H113838   3.150   6.021   1.133
 4635TIP3    H213839   3.281   6.041   1.061
 4636TIP3   OH213840   3.861   6.425   2.700
 4636TIP3    H113841   3.853   6.355   2.768
 4636TIP3    H213842   3.939   6.475   2.731
 4637TIP3   OH213843   3.640   6.134   1.007
 4637TIP3    H113844   3.685   6.069   1.065
 4637TIP3    H213845   3.696   6.133   0.927
 4638TIP3   OH213846   2.873   5.960   3.122
 4638TIP3    H113847   2.890   5.865   3.128
 4638TIP3    H213848   2.785   5.962   3.078
 4639TIP3   OH213849   2.851   5.610   1.317
 4639TIP3    H113850   2.906   5.577   1.390
 4639TIP3    H213851   2.918   5.614   1.245
 4640TIP3   OH213852   3.480   6.046   2.896
 4640TIP3    H113853   3.439   6.062   2.809
 4640TIP3    H213854   3.513   5.953   2.887
 4641TIP3   OH213855   3.361   5.808   1.123
 4641TIP3    H113856   3.364   5.821   1.220
 4641TIP3    H213857   3.362   5.710   1.118
 4642TIP3   OH213858   3.973   6.055   2.502
 4642TIP3    H113859   4.048   6.100   2.458
 4642TIP3    H213860   3.902   6.121   2.488
 4643TIP3   OH213861   2.992   5.695   3.104
 4643TIP3    H113862   3.068   5.639   3.082
 4643TIP3    H213863   3.018   5.727   3.193
 4644TIP3   OH213864   3.057   5.515   1.536
 4644TIP3    H113865   3.031   5.474   1.620
 4644TIP3    H213866   3.094   5.439   1.487
 4645TIP3   OH213867   3.325   5.577   2.764
 4645TIP3    H113868   3.249   5.639   2.767
 4645TIP3    H213869   3.376   5.611   2.687
 4646TIP3   OH213870   3.160   5.309   1.378
 4646TIP3    H113871   3.134   5.313   1.283
 4646TIP3    H213872   3.258   5.315   1.370
 4647TIP3   OH213873   3.845   5.980   2.899
 4647TIP3    H113874   3.925   5.954   2.852
 4647TIP3    H213875   3.841   5.914   2.971
 4648TIP3   OH213876   3.977   5.638   1.044
 4648TIP3    H113877   3.959   5.592   0.959
 4648TIP3    H213878   3.947   5.729   1.019
 4649TIP3   OH213879   3.450   5.367   2.893
 4649TIP3    H113880   3.452   5.287   2.836
 4649TIP3    H213881   3.406   5.433   2.834
 4650TIP3   OH213882   3.454   5.155   2.699
 4650TIP3    H113883   3.482   5.194   2.614
 4650TIP3    H213884   3.360   5.131   2.680
 4651TIP3   OH213885   3.479   5.688   2.573
 4651TIP3    H113886   3.563   5.696   2.527
 4651TIP3    H213887   3.424   5.756   2.527
 4652TIP3   OH213888   4.062   5.655   2.953
 4652TIP3    H113889   4.108   5.571   2.966
 4652TIP3    H213890   4.133   5.711   2.917
 4653TIP3   OH213891   4.103   5.909   2.689
 4653TIP3    H113892   4.046   5.964   2.629
 4653TIP3    H213893   4.191   5.929   2.649
 4654TIP3   OH213894   3.328   5.478   3.122
 4654TIP3    H113895   3.260   5.409   3.138
 4654TIP3    H213896   3.364   5.451   3.036
 4655TIP3   OH213897   3.586   4.917   2.767
 4655TIP3    H113898   3.537   4.999   2.744
 4655TIP3    H213899   3.516   4.849   2.756
 4656TIP3   OH213900   3.711   5.422   2.983
 4656TIP3    H113901   3.701   5.407   3.079
 4656TIP3    H213902   3.621   5.396   2.953
 4657TIP3   OH213903   3.951   5.372   2.838
 4657TIP3    H113904   3.876   5.371   2.900
 4657TIP3    H213905   4.025   5.340   2.894
 4658TIP3   OH213906   4.178   5.311   2.988
 4658TIP3    H113907   4.192   5.216   3.005
 4658TIP3    H213908   4.175   5.349   3.079
 4659TIP3   OH213909   3.167   5.257   3.177
 4659TIP3    H113910   3.174   5.166   3.143
 4659TIP3    H213911   3.205   5.246   3.267
 4660TIP3   OH213912   3.679   4.928   3.025
 4660TIP3    H113913   3.747   4.857   3.021
 4660TIP3    H213914   3.641   4.920   2.935
 4661TIP3   OH213915   3.746   5.142   3.183
 4661TIP3    H113916   3.724   5.070   3.119
 4661TIP3    H213917   3.667   5.200   3.176
 4662TIP3   OH213918   2.969   6.373   1.285
 4662TIP3    H113919   3.063   6.366   1.263
 4662TIP3    H213920   2.937   6.421   1.205
 4663TIP3   OH213921   2.447   5.752   1.499
 4663TIP3    H113922   2.542   5.773   1.485
 4663TIP3    H213923   2.441   5.663   1.457
 4664TIP3   OH213924   2.361   6.364   1.915
 4664TIP3    H113925   2.294   6.302   1.878
 4664TIP3    H213926   2.406   6.306   1.980
 4665TIP3   OH213927   2.496   6.214   2.101
 4665TIP3    H113928   2.485   6.141   2.165
 4665TIP3    H213929   2.549   6.276   2.154
 4666TIP3   OH213930   4.206   6.645   1.888
 4666TIP3    H113931   4.240   6.659   1.978
 4666TIP3    H213932   4.288   6.652   1.835
 4667TIP3   OH213933   4.253   6.634   2.174
 4667TIP3    H113934   4.210   6.546   2.177
 4667TIP3    H213935   4.330   6.616   2.230
 4668TIP3   OH213936   4.299   6.314   2.753
 4668TIP3    H113937   4.228   6.321   2.820
 4668TIP3    H213938   4.342   6.401   2.760
 4669TIP3   OH213939   4.115   5.826   1.375
 4669TIP3    H113940   4.184   5.889   1.344
 4669TIP3    H213941   4.159   5.787   1.453
 4670TIP3   OH213942   4.243   5.695   1.578
 4670TIP3    H113943   4.179   5.651   1.638
 4670TIP3    H213944   4.311   5.729   1.640
 4671TIP3   OH213945   4.296   6.084   2.007
 4671TIP3    H113946   4.353   6.018   1.963
 4671TIP3    H213947   4.293   6.156   1.942
 4672TIP3   OH213948   4.129   6.387   2.204
 4672TIP3    H113949   4.059   6.423   2.261
 4672TIP3    H213950   4.078   6.332   2.140
 4673TIP3   OH213951   4.181   5.601   1.225
 4673TIP3    H113952   4.109   5.604   1.158
 4673TIP3    H213953   4.155   5.677   1.280
 4674TIP3   OH213954   4.048   5.275   1.181
 4674TIP3    H113955   4.012   5.311   1.100
 4674TIP3    H213956   4.026   5.179   1.172
 4675TIP3   OH213957   4.056   5.550   1.724
 4675TIP3    H113958   4.067   5.453   1.718
 4675TIP3    H213959   4.043   5.564   1.820
 4676TIP3   OH213960   2.683   5.625   2.472
 4676TIP3    H113961   2.681   5.591   2.380
 4676TIP3    H213962   2.780   5.625   2.489
 4677TIP3   OH213963   4.347   5.975   2.581
 4677TIP3    H113964   4.418   5.907   2.573
 4677TIP3    H213965   4.377   6.044   2.520
 4678TIP3   OH213966   4.531   5.778   2.596
 4678TIP3    H113967   4.457   5.727   2.636
 4678TIP3    H213968   4.604   5.715   2.611
 4679TIP3   OH213969   3.996   5.008   1.165
 4679TIP3    H113970   4.073   4.978   1.217
 4679TIP3    H213971   3.926   4.947   1.191
 4680TIP3   OH213972   4.053   5.266   1.617
 4680TIP3    H113973   4.095   5.178   1.633
 4680TIP3    H213974   4.112   5.299   1.547
 4681TIP3   OH213975   4.214   5.440   2.113
 4681TIP3    H113976   4.301   5.465   2.073
 4681TIP3    H213977   4.229   5.475   2.203
 4682TIP3   OH213978   4.284   5.583   2.346
 4682TIP3    H113979   4.207   5.618   2.395
 4682TIP3    H213980   4.317   5.664   2.301
 4683TIP3   OH213981   2.901   5.309   3.143
 4683TIP3    H113982   2.999   5.303   3.148
 4683TIP3    H213983   2.877   5.224   3.185
 4684TIP3   OH213984   4.734   5.174   2.902
 4684TIP3    H113985   4.794   5.109   2.860
 4684TIP3    H213986   4.708   5.230   2.825
 4685TIP3   OH213987   4.162   5.016   1.658
 4685TIP3    H113988   4.211   5.000   1.740
 4685TIP3    H213989   4.102   4.939   1.656
 4686TIP3   OH213990   2.863   5.002   2.477
 4686TIP3    H113991   2.925   4.927   2.487
 4686TIP3    H213992   2.925   5.076   2.470
 4687TIP3   OH213993   2.666   5.273   2.549
 4687TIP3    H113994   2.715   5.268   2.465
 4687TIP3    H213995   2.696   5.358   2.583
 4688TIP3   OH213996   4.606   5.314   2.706
 4688TIP3    H113997   4.519   5.353   2.726
 4688TIP3    H213998   4.578   5.240   2.649
 4689TIP3   OH213999   4.241   4.950   1.289
 4689TIP3    H114000   4.284   4.878   1.238
 4689TIP3    H214001   4.309   5.021   1.286
 4690TIP3   OH214002   2.649   4.779   2.049
 4690TIP3    H114003   2.555   4.778   2.074
 4690TIP3    H214004   2.648   4.837   1.970
 4691TIP3   OH214005   3.835   6.487   1.564
 4691TIP3    H114006   3.829   6.449   1.475
 4691TIP3    H214007   3.925   6.520   1.558
 4692TIP3   OH214008   2.870   4.861   2.866
 4692TIP3    H114009   2.819   4.854   2.949
 4692TIP3    H214010   2.803   4.897   2.806
 4693TIP3   OH214011   2.908   6.287   2.942
 4693TIP3    H114012   2.816   6.260   2.925
 4693TIP3    H214013   2.917   6.267   3.036
 4694TIP3   OH214014   3.087   6.319   2.490
 4694TIP3    H114015   3.040   6.396   2.452
 4694TIP3    H214016   3.173   6.332   2.445
 4695TIP3   OH214017   3.540   6.563   2.634
 4695TIP3    H114018   3.579   6.572   2.723
 4695TIP3    H214019   3.603   6.615   2.580
 4696TIP3   OH214020   3.715   6.715   2.484
 4696TIP3    H114021   3.789   6.661   2.454
 4696TIP3    H214022   3.761   6.775   2.547
 4697TIP3   OH214023   4.506   5.075   2.586
 4697TIP3    H114024   4.415   5.066   2.554
 4697TIP3    H214025   4.540   4.983   2.575
 4698TIP3   OH214026   2.763   6.574   2.516
 4698TIP3    H114027   2.673   6.606   2.494
 4698TIP3    H214028   2.781   6.627   2.596
 4699TIP3   OH214029   2.999   6.553   2.371
 4699TIP3    H114030   2.913   6.566   2.416
 4699TIP3    H214031   2.980   6.588   2.282
 4700TIP3   OH214032   3.426   6.583   2.167
 4700TIP3    H114033   3.353   6.606   2.106
 4700TIP3    H214034   3.438   6.669   2.214
 4701TIP3   OH214035   3.694   6.523   2.215
 4701TIP3    H114036   3.598   6.537   2.199
 4701TIP3    H214037   3.730   6.609   2.189
 4702TIP3   OH214038   3.906   6.721   2.141
 4702TIP3    H114039   3.887   6.798   2.084
 4702TIP3    H214040   3.926   6.652   2.074
 4703TIP3   OH214041   2.674   6.369   2.258
 4703TIP3    H114042   2.701   6.343   2.348
 4703TIP3    H214043   2.747   6.327   2.207
 4704TIP3   OH214044   2.869   6.242   2.116
 4704TIP3    H114045   2.884   6.157   2.164
 4704TIP3    H214046   2.961   6.278   2.113
 4705TIP3   OH214047   3.137   6.335   2.118
 4705TIP3    H114048   3.166   6.242   2.109
 4705TIP3    H214049   3.181   6.357   2.203
 4706TIP3   OH214050   3.706   4.989   2.200
 4706TIP3    H114051   3.667   4.919   2.255
 4706TIP3    H214052   3.783   4.945   2.160
 4707TIP3   OH214053   4.232   4.872   2.109
 4707TIP3    H114054   4.269   4.924   2.034
 4707TIP3    H214055   4.137   4.893   2.103
 4708TIP3   OH214056   4.328   4.972   1.873
 4708TIP3    H114057   4.401   4.920   1.835
 4708TIP3    H214058   4.363   5.063   1.859
 4709TIP3   OH214059   2.958   4.699   2.221
 4709TIP3    H114060   2.867   4.666   2.223
 4709TIP3    H214061   3.008   4.614   2.219
 4710TIP3   OH214062   2.747   4.570   1.871
 4710TIP3    H114063   2.777   4.627   1.797
 4710TIP3    H214064   2.718   4.636   1.937
 4711TIP3   OH214065   3.402   4.735   2.103
 4711TIP3    H114066   3.461   4.782   2.042
 4711TIP3    H214067   3.431   4.768   2.189
 4712TIP3   OH214068   3.946   4.880   2.087
 4712TIP3    H114069   3.951   4.840   1.999
 4712TIP3    H214070   3.935   4.800   2.144
 4713TIP3   OH214071   3.979   4.803   1.648
 4713TIP3    H114072   3.893   4.845   1.663
 4713TIP3    H214073   3.966   4.717   1.694
 4714TIP3   OH214074   2.463   6.143   1.647
 4714TIP3    H114075   2.378   6.109   1.614
 4714TIP3    H214076   2.452   6.237   1.626
 4715TIP3   OH214077   2.864   4.730   1.632
 4715TIP3    H114078   2.913   4.667   1.576
 4715TIP3    H214079   2.937   4.784   1.669
 4716TIP3   OH214080   3.375   4.906   1.731
 4716TIP3    H114081   3.435   4.860   1.792
 4716TIP3    H214082   3.395   4.999   1.756
 4717TIP3   OH214083   3.235   6.329   1.230
 4717TIP3    H114084   3.324   6.351   1.193
 4717TIP3    H214085   3.213   6.253   1.171
 4718TIP3   OH214086   3.948   6.444   1.319
 4718TIP3    H114087   3.944   6.346   1.304
 4718TIP3    H214088   3.910   6.476   1.235
 4719TIP3   OH214089   3.167   4.981   3.113
 4719TIP3    H114090   3.134   4.910   3.170
 4719TIP3    H214091   3.261   4.982   3.139
 4720TIP3   OH214092   3.416   4.979   3.231
 4720TIP3    H114093   3.501   4.953   3.192
 4720TIP3    H214094   3.404   4.909   3.298
 4721TIP3   OH214095   2.540   6.167   1.287
 4721TIP3    H114096   2.541   6.187   1.382
 4721TIP3    H214097   2.628   6.124   1.274
 4722TIP3   OH214098   4.241   5.042   3.019
 4722TIP3    H114099   4.260   5.010   3.110
 4722TIP3    H214100   4.330   5.036   2.977
 4723TIP3   OH214101   4.180   6.593   2.511
 4723TIP3    H114102   4.100   6.561   2.465
 4723TIP3    H214103   4.160   6.688   2.518
 4724TIP3   OH214104   5.447   5.965   1.277
 4724TIP3    H114105   5.417   6.056   1.255
 4724TIP3    H214106   5.371   5.914   1.242
 4725TIP3   OH214107   5.442   5.967   1.663
 4725TIP3    H114108   5.478   5.939   1.749
 4725TIP3    H214109   5.404   5.884   1.629
 4726TIP3   OH214110   4.742   5.860   2.028
 4726TIP3    H114111   4.773   5.792   2.091
 4726TIP3    H214112   4.823   5.910   2.012
 4727TIP3   OH214113   5.689   6.269   1.341
 4727TIP3    H114114   5.677   6.199   1.407
 4727TIP3    H214115   5.721   6.343   1.396
 4728TIP3   OH214116   4.715   6.269   1.748
 4728TIP3    H114117   4.708   6.171   1.749
 4728TIP3    H214118   4.811   6.279   1.741
 4729TIP3   OH214119   4.421   5.472   1.533
 4729TIP3    H114120   4.374   5.556   1.547
 4729TIP3    H214121   4.351   5.419   1.491
 4730TIP3   OH214122   4.481   5.759   1.707
 4730TIP3    H114123   4.530   5.682   1.743
 4730TIP3    H214124   4.543   5.792   1.640
 4731TIP3   OH214125   5.340   6.727   1.357
 4731TIP3    H114126   5.383   6.657   1.304
 4731TIP3    H214127   5.337   6.686   1.444
 4732TIP3   OH214128   5.243   6.191   1.708
 4732TIP3    H114129   5.283   6.114   1.664
 4732TIP3    H214130   5.327   6.237   1.732
 4733TIP3   OH214131   6.259   5.510   1.705
 4733TIP3    H114132   6.287   5.594   1.748
 4733TIP3    H214133   6.279   5.528   1.612
 4734TIP3   OH214134   5.655   5.692   1.739
 4734TIP3    H114135   5.700   5.607   1.759
 4734TIP3    H214136   5.625   5.675   1.647
 4735TIP3   OH214137   4.994   5.352   1.705
 4735TIP3    H114138   4.976   5.424   1.641
 4735TIP3    H214139   4.947   5.278   1.660
 4736TIP3   OH214140   5.689   5.444   1.326
 4736TIP3    H114141   5.762   5.429   1.390
 4736TIP3    H214142   5.740   5.477   1.250
 4737TIP3   OH214143   4.628   5.553   1.812
 4737TIP3    H114144   4.711   5.534   1.859
 4737TIP3    H214145   4.641   5.498   1.732
 4738TIP3   OH214146   5.068   5.751   1.609
 4738TIP3    H114147   5.162   5.727   1.619
 4738TIP3    H214148   5.030   5.667   1.574
 4739TIP3   OH214149   6.332   5.719   1.875
 4739TIP3    H114150   6.248   5.766   1.857
 4739TIP3    H214151   6.351   5.751   1.965
 4740TIP3   OH214152   4.991   5.335   2.138
 4740TIP3    H114153   4.932   5.371   2.070
 4740TIP3    H214154   4.939   5.353   2.219
 4741TIP3   OH214155   5.333   6.184   1.149
 4741TIP3    H114156   5.298   6.168   1.060
 4741TIP3    H214157   5.288   6.268   1.173
 4742TIP3   OH214158   5.097   6.110   1.932
 4742TIP3    H114159   5.036   6.178   1.968
 4742TIP3    H214160   5.142   6.159   1.860
 4743TIP3   OH214161   5.897   5.447   1.501
 4743TIP3    H114162   5.889   5.399   1.584
 4743TIP3    H214163   5.952   5.524   1.527
 4744TIP3   OH214164   4.862   5.450   1.923
 4744TIP3    H114165   4.924   5.523   1.945
 4744TIP3    H214166   4.911   5.409   1.848
 4745TIP3   OH214167   4.926   6.306   2.031
 4745TIP3    H114168   4.900   6.392   1.993
 4745TIP3    H214169   4.847   6.289   2.088
 4746TIP3   OH214170   4.317   5.994   1.268
 4746TIP3    H114171   4.281   6.018   1.180
 4746TIP3    H214172   4.350   6.080   1.301
 4747TIP3   OH214173   5.756   6.510   1.506
 4747TIP3    H114174   5.666   6.502   1.545
 4747TIP3    H214175   5.749   6.597   1.462
 4748TIP3   OH214176   6.052   5.409   1.870
 4748TIP3    H114177   5.964   5.439   1.840
 4748TIP3    H214178   6.111   5.441   1.799
 4749TIP3   OH214179   5.345   5.052   1.852
 4749TIP3    H114180   5.333   4.957   1.871
 4749TIP3    H214181   5.268   5.090   1.899
 4750TIP3   OH214182   5.457   6.557   1.175
 4750TIP3    H114183   5.507   6.473   1.157
 4750TIP3    H214184   5.524   6.621   1.141
 4751TIP3   OH214185   5.602   6.341   1.089
 4751TIP3    H114186   5.573   6.259   1.045
 4751TIP3    H214187   5.638   6.306   1.173
 4752TIP3   OH214188   5.982   6.426   1.852
 4752TIP3    H114189   5.979   6.348   1.792
 4752TIP3    H214190   5.974   6.500   1.788
 4753TIP3   OH214191   5.277   5.818   1.109
 4753TIP3    H114192   5.197   5.869   1.085
 4753TIP3    H214193   5.324   5.812   1.024
 4754TIP3   OH214194   5.236   5.602   0.824
 4754TIP3    H114195   5.305   5.651   0.872
 4754TIP3    H214196   5.293   5.540   0.773
 4755TIP3   OH214197   6.180   6.057   1.695
 4755TIP3    H114198   6.099   6.112   1.703
 4755TIP3    H214199   6.210   6.084   1.606
 4756TIP3   OH214200   5.625   5.899   1.079
 4756TIP3    H114201   5.570   5.923   1.158
 4756TIP3    H214202   5.708   5.871   1.124
 4757TIP3   OH214203   5.860   5.937   1.995
 4757TIP3    H114204   5.859   6.020   2.046
 4757TIP3    H214205   5.774   5.944   1.948
 4758TIP3   OH214206   4.856   5.897   1.499
 4758TIP3    H114207   4.815   5.839   1.431
 4758TIP3    H214208   4.933   5.844   1.528
 4759TIP3   OH214209   4.984   6.307   1.646
 4759TIP3    H114210   4.966   6.270   1.558
 4759TIP3    H214211   5.074   6.273   1.664
 4760TIP3   OH214212   4.986   5.870   1.851
 4760TIP3    H114213   5.023   5.845   1.764
 4760TIP3    H214214   5.034   5.954   1.871
 4761TIP3   OH214215   5.515   6.507   1.628
 4761TIP3    H114216   5.505   6.585   1.686
 4761TIP3    H214217   5.503   6.432   1.691
 4762TIP3   OH214218   5.131   6.426   2.175
 4762TIP3    H114219   5.071   6.487   2.222
 4762TIP3    H214220   5.066   6.372   2.126
 4763TIP3   OH214221   5.462   5.759   0.905
 4763TIP3    H114222   5.524   5.817   0.955
 4763TIP3    H214223   5.483   5.783   0.812
 4764TIP3   OH214224   4.887   5.981   2.279
 4764TIP3    H114225   4.890   6.069   2.322
 4764TIP3    H214226   4.791   5.962   2.287
 4765TIP3   OH214227   5.206   6.437   1.189
 4765TIP3    H114228   5.288   6.488   1.196
 4765TIP3    H214229   5.147   6.496   1.140
 4766TIP3   OH214230   4.924   6.593   2.262
 4766TIP3    H114231   4.890   6.591   2.170
 4766TIP3    H214232   4.844   6.572   2.315
 4767TIP3   OH214233   5.984   4.999   0.957
 4767TIP3    H114234   5.901   5.022   1.003
 4767TIP3    H214235   5.996   5.079   0.900
 4768TIP3   OH214236   4.721   5.741   1.306
 4768TIP3    H114237   4.656   5.783   1.246
 4768TIP3    H214238   4.686   5.651   1.311
 4769TIP3   OH214239   4.503   6.124   2.209
 4769TIP3    H114240   4.440   6.098   2.139
 4769TIP3    H214241   4.543   6.038   2.236
 4770TIP3   OH214242   4.364   6.320   1.842
 4770TIP3    H114243   4.455   6.295   1.820
 4770TIP3    H214244   4.380   6.389   1.908
 4771TIP3   OH214245   6.206   6.801   1.877
 4771TIP3    H114246   6.255   6.717   1.886
 4771TIP3    H214247   6.133   6.789   1.940
 4772TIP3   OH214248   5.328   6.556   2.031
 4772TIP3    H114249   5.326   6.648   2.065
 4772TIP3    H214250   5.258   6.514   2.086
 4773TIP3   OH214251   5.080   6.679   0.990
 4773TIP3    H114252   5.043   6.660   0.902
 4773TIP3    H214253   5.055   6.772   1.005
 4774TIP3   OH214254   4.524   6.531   1.370
 4774TIP3    H114255   4.574   6.522   1.454
 4774TIP3    H214256   4.478   6.445   1.367
 4775TIP3   OH214257   5.303   6.548   0.667
 4775TIP3    H114258   5.394   6.527   0.643
 4775TIP3    H214259   5.314   6.566   0.763
 4776TIP3   OH214260   5.336   6.615   0.926
 4776TIP3    H114261   5.247   6.632   0.964
 4776TIP3    H214262   5.386   6.588   1.005
 4777TIP3   OH214263   6.111   5.896   2.176
 4777TIP3    H114264   6.031   5.910   2.124
 4777TIP3    H214265   6.127   5.800   2.164
 4778TIP3   OH214266   4.708   6.308   2.197
 4778TIP3    H114267   4.759   6.290   2.279
 4778TIP3    H214268   4.635   6.243   2.205
 4779TIP3   OH214269   5.107   5.129   1.983
 4779TIP3    H114270   5.018   5.099   1.956
 4779TIP3    H214271   5.083   5.211   2.029
 4780TIP3   OH214272   5.643   5.244   2.176
 4780TIP3    H114273   5.712   5.218   2.241
 4780TIP3    H214274   5.560   5.224   2.224
 4781TIP3   OH214275   5.880   5.673   2.093
 4781TIP3    H114276   5.832   5.671   2.179
 4781TIP3    H214277   5.858   5.762   2.059
 4782TIP3   OH214278   5.520   5.806   0.640
 4782TIP3    H114279   5.522   5.762   0.554
 4782TIP3    H214280   5.607   5.851   0.635
 4783TIP3   OH214281   5.249   5.180   0.953
 4783TIP3    H114282   5.218   5.175   1.045
 4783TIP3    H214283   5.214   5.095   0.919
 4784TIP3   OH214284   5.038   5.646   1.999
 4784TIP3    H114285   4.991   5.668   2.082
 4784TIP3    H214286   5.022   5.728   1.946
 4785TIP3   OH214287   4.924   5.532   1.514
 4785TIP3    H114288   4.831   5.505   1.532
 4785TIP3    H214289   4.937   5.491   1.426
 4786TIP3   OH214290   5.413   5.617   1.243
 4786TIP3    H114291   5.362   5.688   1.199
 4786TIP3    H214292   5.470   5.585   1.169
 4787TIP3   OH214293   5.589   5.895   2.328
 4787TIP3    H114294   5.568   5.822   2.389
 4787TIP3    H214295   5.683   5.909   2.349
 4788TIP3   OH214296   5.570   5.645   1.480
 4788TIP3    H114297   5.510   5.673   1.408
 4788TIP3    H214298   5.606   5.564   1.437
 4789TIP3   OH214299   4.857   5.675   2.210
 4789TIP3    H114300   4.895   5.735   2.276
 4789TIP3    H214301   4.848   5.592   2.261
 4790TIP3   OH214302   4.907   5.150   0.920
 4790TIP3    H114303   4.899   5.150   1.017
 4790TIP3    H214304   4.830   5.205   0.895
 4791TIP3   OH214305   4.452   5.196   1.790
 4791TIP3    H114306   4.527   5.228   1.845
 4791TIP3    H214307   4.495   5.164   1.710
 4792TIP3   OH214308   4.420   5.175   1.309
 4792TIP3    H114309   4.466   5.213   1.231
 4792TIP3    H214310   4.361   5.250   1.331
 4793TIP3   OH214311   5.578   5.891   1.902
 4793TIP3    H114312   5.613   5.819   1.844
 4793TIP3    H214313   5.551   5.838   1.980
 4794TIP3   OH214314   5.253   5.354   1.576
 4794TIP3    H114315   5.173   5.352   1.632
 4794TIP3    H214316   5.324   5.349   1.642
 4795TIP3   OH214317   4.685   5.410   1.584
 4795TIP3    H114318   4.591   5.415   1.556
 4795TIP3    H214319   4.711   5.319   1.560
 4796TIP3   OH214320   4.952   5.405   1.273
 4796TIP3    H114321   5.047   5.419   1.253
 4796TIP3    H214322   4.908   5.429   1.188
 4797TIP3   OH214323   5.745   5.430   1.779
 4797TIP3    H114324   5.709   5.442   1.870
 4797TIP3    H214325   5.679   5.369   1.742
 4798TIP3   OH214326   4.796   5.440   1.049
 4798TIP3    H114327   4.728   5.394   0.996
 4798TIP3    H214328   4.850   5.478   0.977
 4799TIP3   OH214329   5.913   7.121   1.996
 4799TIP3    H114330   5.914   7.139   1.901
 4799TIP3    H214331   5.996   7.165   2.025
 4800TIP3   OH214332   4.869   6.230   2.417
 4800TIP3    H114333   4.950   6.258   2.465
 4800TIP3    H214334   4.806   6.228   2.492
 4801TIP3   OH214335   5.334   5.683   1.672
 4801TIP3    H114336   5.407   5.644   1.620
 4801TIP3    H214337   5.345   5.639   1.758
 4802TIP3   OH214338   4.854   5.170   1.553
 4802TIP3    H114339   4.822   5.090   1.599
 4802TIP3    H214340   4.906   5.132   1.481
 4803TIP3   OH214341   5.310   5.578   1.965
 4803TIP3    H114342   5.221   5.616   1.978
 4803TIP3    H214343   5.369   5.639   2.014
 4804TIP3   OH214344   5.046   5.970   1.055
 4804TIP3    H114345   4.973   5.905   1.044
 4804TIP3    H214346   5.028   6.003   1.147
 4805TIP3   OH214347   5.949   6.206   1.686
 4805TIP3    H114348   5.974   6.255   1.604
 4805TIP3    H214349   5.863   6.165   1.661
 4806TIP3   OH214350   5.505   5.276   0.931
 4806TIP3    H114351   5.408   5.263   0.931
 4806TIP3    H214352   5.515   5.373   0.942
 4807TIP3   OH214353   5.441   6.284   2.056
 4807TIP3    H114354   5.478   6.267   2.144
 4807TIP3    H214355   5.409   6.375   2.063
 4808TIP3   OH214356   5.574   5.531   1.027
 4808TIP3    H114357   5.671   5.533   1.038
 4808TIP3    H214358   5.556   5.607   0.968
 4809TIP3   OH214359   4.737   5.990   1.733
 4809TIP3    H114360   4.776   5.964   1.647
 4809TIP3    H214361   4.786   5.932   1.793
 4810TIP3   OH214362   5.197   6.119   0.878
 4810TIP3    H114363   5.149   6.204   0.886
 4810TIP3    H214364   5.142   6.062   0.937
 4811TIP3   OH214365   4.619   5.915   2.349
 4811TIP3    H114366   4.643   5.900   2.442
 4811TIP3    H214367   4.554   5.845   2.334
 4812TIP3   OH214368   5.348   6.026   2.368
 4812TIP3    H114369   5.291   5.969   2.315
 4812TIP3    H214370   5.436   5.994   2.341
 4813TIP3   OH214371   5.605   6.549   1.951
 4813TIP3    H114372   5.508   6.548   1.964
 4813TIP3    H214373   5.633   6.600   2.030
 4814TIP3   OH214374   6.013   5.617   0.863
 4814TIP3    H114375   5.952   5.573   0.798
 4814TIP3    H214376   6.011   5.706   0.822
 4815TIP3   OH214377   6.237   6.468   1.945
 4815TIP3    H114378   6.140   6.474   1.933
 4815TIP3    H214379   6.264   6.447   1.853
 4816TIP3   OH214380   5.744   6.429   0.754
 4816TIP3    H114381   5.706   6.376   0.827
 4816TIP3    H214382   5.690   6.401   0.679
 4817TIP3   OH214383   5.712   6.069   1.603
 4817TIP3    H114384   5.619   6.043   1.616
 4817TIP3    H214385   5.747   5.988   1.560
 4818TIP3   OH214386   4.843   6.298   1.364
 4818TIP3    H114387   4.847   6.376   1.307
 4818TIP3    H214388   4.748   6.277   1.362
 4819TIP3   OH214389   4.403   5.599   1.060
 4819TIP3    H114390   4.452   5.682   1.081
 4819TIP3    H214391   4.328   5.606   1.123
 4820TIP3   OH214392   4.975   6.060   1.302
 4820TIP3    H114393   4.945   6.150   1.322
 4820TIP3    H214394   4.941   6.010   1.378
 4821TIP3   OH214395   5.110   6.638   1.827
 4821TIP3    H114396   5.152   6.710   1.776
 4821TIP3    H214397   5.187   6.602   1.875
 4822TIP3   OH214398   4.759   6.536   1.212
 4822TIP3    H114399   4.673   6.546   1.257
 4822TIP3    H214400   4.792   6.628   1.214
 4823TIP3   OH214401   5.498   6.275   1.787
 4823TIP3    H114402   5.488   6.271   1.884
 4823TIP3    H214403   5.577   6.222   1.773
 4824TIP3   OH214404   5.456   6.147   0.675
 4824TIP3    H114405   5.518   6.131   0.748
 4824TIP3    H214406   5.371   6.140   0.719
 4825TIP3   OH214407   5.743   6.810   1.840
 4825TIP3    H114408   5.666   6.751   1.830
 4825TIP3    H214409   5.730   6.871   1.764
 4826TIP3   OH214410   4.832   5.419   2.354
 4826TIP3    H114411   4.736   5.420   2.367
 4826TIP3    H214412   4.861   5.359   2.426
 4827TIP3   OH214413   5.632   6.104   0.891
 4827TIP3    H114414   5.624   6.034   0.959
 4827TIP3    H214415   5.728   6.101   0.874
 4828TIP3   OH214416   4.542   6.499   1.990
 4828TIP3    H114417   4.601   6.427   2.019
 4828TIP3    H214418   4.575   6.572   2.046
 4829TIP3   OH214419   4.826   6.151   0.671
 4829TIP3    H114420   4.864   6.067   0.639
 4829TIP3    H214421   4.813   6.132   0.766
 4830TIP3   OH214422   4.781   6.151   0.948
 4830TIP3    H114423   4.861   6.125   0.995
 4830TIP3    H214424   4.788   6.250   0.950
 4831TIP3   OH214425   4.518   5.842   1.144
 4831TIP3    H114426   4.452   5.889   1.200
 4831TIP3    H214427   4.536   5.910   1.077
 4832TIP3   OH214428   5.668   5.482   2.038
 4832TIP3    H114429   5.749   5.521   2.075
 4832TIP3    H214430   5.656   5.401   2.092
 4833TIP3   OH214431   5.546   5.233   1.205
 4833TIP3    H114432   5.534   5.253   1.109
 4833TIP3    H214433   5.588   5.315   1.237
 4834TIP3   OH214434   5.051   6.346   0.897
 4834TIP3    H114435   4.965   6.381   0.925
 4834TIP3    H214436   5.066   6.399   0.817
 4835TIP3   OH214437   5.234   5.414   1.304
 4835TIP3    H114438   5.300   5.483   1.285
 4835TIP3    H214439   5.243   5.405   1.402
 4836TIP3   OH214440   5.507   5.729   2.112
 4836TIP3    H114441   5.532   5.783   2.190
 4836TIP3    H214442   5.563   5.650   2.122
 4837TIP3   OH214443   5.381   5.136   1.405
 4837TIP3    H114444   5.377   5.213   1.465
 4837TIP3    H214445   5.442   5.171   1.336
 4838TIP3   OH214446   4.793   6.425   0.956
 4838TIP3    H114447   4.764   6.495   0.893
 4838TIP3    H214448   4.779   6.470   1.042
 4839TIP3   OH214449   4.893   5.138   1.197
 4839TIP3    H114450   4.892   5.229   1.232
 4839TIP3    H214451   4.989   5.119   1.203
 4840TIP3   OH214452   6.147   5.630   2.092
 4840TIP3    H114453   6.049   5.628   2.099
 4840TIP3    H214454   6.158   5.592   2.004
 4841TIP3   OH214455   5.798   5.825   1.481
 4841TIP3    H114456   5.723   5.765   1.492
 4841TIP3    H214457   5.870   5.778   1.528
 4842TIP3   OH214458   4.512   6.053   0.949
 4842TIP3    H114459   4.584   6.118   0.957
 4842TIP3    H214460   4.554   5.994   0.882
 4843TIP3   OH214461   4.453   5.329   1.087
 4843TIP3    H114462   4.457   5.427   1.080
 4843TIP3    H214463   4.376   5.308   1.034
 4844TIP3   OH214464   5.765   6.783   1.429
 4844TIP3    H114465   5.722   6.833   1.356
 4844TIP3    H214466   5.859   6.803   1.409
 4845TIP3   OH214467   4.841   5.050   1.957
 4845TIP3    H114468   4.812   5.016   1.870
 4845TIP3    H214469   4.832   4.971   2.014
 4846TIP3   OH214470   4.385   6.276   1.337
 4846TIP3    H114471   4.308   6.302   1.390
 4846TIP3    H214472   4.361   6.314   1.250
 4847TIP3   OH214473   4.541   6.813   2.409
 4847TIP3    H114474   4.627   6.814   2.456
 4847TIP3    H214475   4.523   6.717   2.407
 4848TIP3   OH214476   5.018   6.775   2.452
 4848TIP3    H114477   5.113   6.755   2.462
 4848TIP3    H214478   4.995   6.714   2.379
 4849TIP3   OH214479   5.008   6.345   0.599
 4849TIP3    H114480   4.934   6.283   0.619
 4849TIP3    H214481   5.076   6.280   0.576
 4850TIP3   OH214482   5.656   6.683   2.188
 4850TIP3    H114483   5.649   6.610   2.255
 4850TIP3    H214484   5.736   6.730   2.218
 4851TIP3   OH214485   4.669   6.217   2.609
 4851TIP3    H114486   4.687   6.121   2.615
 4851TIP3    H214487   4.582   6.218   2.565
 4852TIP3   OH214488   4.648   5.867   0.804
 4852TIP3    H114489   4.709   5.833   0.872
 4852TIP3    H214490   4.712   5.880   0.731
 4853TIP3   OH214491   5.275   6.301   2.383
 4853TIP3    H114492   5.238   6.318   2.295
 4853TIP3    H214493   5.310   6.210   2.375
 4854TIP3   OH214494   5.126   6.067   0.612
 4854TIP3    H114495   5.153   6.079   0.704
 4854TIP3    H214496   5.138   5.971   0.601
 4855TIP3   OH214497   5.768   6.313   1.988
 4855TIP3    H114498   5.846   6.354   1.944
 4855TIP3    H214499   5.701   6.382   1.972
 4856TIP3   OH214500   4.788   5.951   2.591
 4856TIP3    H114501   4.865   5.898   2.566
 4856TIP3    H214502   4.815   5.983   2.680
 4857TIP3   OH214503   4.852   5.771   1.022
 4857TIP3    H114504   4.831   5.727   1.106
 4857TIP3    H214505   4.892   5.698   0.970
 4858TIP3   OH214506   5.120   5.831   2.249
 4858TIP3    H114507   5.046   5.896   2.254
 4858TIP3    H214508   5.172   5.867   2.174
 4859TIP3   OH214509   4.958   5.566   0.868
 4859TIP3    H114510   4.931   5.567   0.774
 4859TIP3    H214511   5.055   5.570   0.859
 4860TIP3   OH214512   5.640   6.236   2.385
 4860TIP3    H114513   5.722   6.212   2.340
 4860TIP3    H214514   5.639   6.172   2.459
 4861TIP3   OH214515   5.775   5.860   0.537
 4861TIP3    H114516   5.797   5.799   0.464
 4861TIP3    H214517   5.775   5.947   0.490
 4862TIP3   OH214518   5.245   5.624   2.380
 4862TIP3    H114519   5.248   5.544   2.323
 4862TIP3    H214520   5.203   5.689   2.320
 4863TIP3   OH214521   5.250   5.410   2.187
 4863TIP3    H114522   5.279   5.451   2.103
 4863TIP3    H214523   5.157   5.387   2.167
 4864TIP3   OH214524   5.275   5.944   2.061
 4864TIP3    H114525   5.360   5.952   2.016
 4864TIP3    H214526   5.221   6.012   2.014
 4865TIP3   OH214527   5.855   5.913   2.438
 4865TIP3    H114528   5.904   5.832   2.458
 4865TIP3    H214529   5.925   5.972   2.407
 4866TIP3   OH214530   5.899   6.165   2.174
 4866TIP3    H114531   5.842   6.221   2.115
 4866TIP3    H214532   5.987   6.186   2.135
 4867TIP3   OH214533   5.124   5.735   2.610
 4867TIP3    H114534   5.056   5.665   2.625
 4867TIP3    H214535   5.160   5.709   2.523
 4868TIP3   OH214536   5.382   5.174   2.254
 4868TIP3    H114537   5.333   5.256   2.231
 4868TIP3    H214538   5.312   5.106   2.242
 4869TIP3   OH214539   5.508   5.678   2.469
 4869TIP3    H114540   5.500   5.665   2.566
 4869TIP3    H214541   5.418   5.652   2.441
 4870TIP3   OH214542   5.746   5.625   2.323
 4870TIP3    H114543   5.672   5.627   2.386
 4870TIP3    H214544   5.821   5.595   2.379
 4871TIP3   OH214545   5.977   5.564   2.469
 4871TIP3    H114546   5.989   5.470   2.490
 4871TIP3    H214547   5.970   5.605   2.558
 4872TIP3   OH214548   4.963   5.514   2.664
 4872TIP3    H114549   4.971   5.423   2.629
 4872TIP3    H214550   5.001   5.502   2.754
 4873TIP3   OH214551   5.475   5.183   2.512
 4873TIP3    H114552   5.543   5.113   2.506
 4873TIP3    H214553   5.436   5.177   2.423
 4874TIP3   OH214554   5.540   5.397   2.670
 4874TIP3    H114555   5.519   5.326   2.606
 4874TIP3    H214556   5.463   5.456   2.662
 4875TIP3   OH214557   4.761   6.629   0.771
 4875TIP3    H114558   4.857   6.624   0.753
 4875TIP3    H214559   4.733   6.676   0.690
 4876TIP3   OH214560   4.244   6.008   0.989
 4876TIP3    H114561   4.338   6.031   0.972
 4876TIP3    H214562   4.238   5.920   0.946
 4877TIP3   OH214563   4.114   6.629   1.438
 4877TIP3    H114564   4.071   6.563   1.380
 4877TIP3    H214565   4.179   6.573   1.485
 4878TIP3   OH214566   4.284   6.475   1.592
 4878TIP3    H114567   4.288   6.396   1.648
 4878TIP3    H214568   4.344   6.534   1.641
 4879TIP3   OH214569   6.019   6.877   1.387
 4879TIP3    H114570   6.049   6.899   1.477
 4879TIP3    H214571   6.091   6.911   1.332
 4880TIP3   OH214572   6.052   6.893   1.668
 4880TIP3    H114573   6.008   6.805   1.663
 4880TIP3    H214574   6.122   6.870   1.732
 4881TIP3   OH214575   6.094   6.569   2.244
 4881TIP3    H114576   6.023   6.578   2.311
 4881TIP3    H214577   6.137   6.657   2.248
 4882TIP3   OH214578   5.913   6.082   0.867
 4882TIP3    H114579   5.987   6.141   0.847
 4882TIP3    H214580   5.950   6.036   0.946
 4883TIP3   OH214581   6.040   5.950   1.068
 4883TIP3    H114582   5.975   5.905   1.126
 4883TIP3    H214583   6.105   5.986   1.131
 4884TIP3   OH214584   6.085   6.337   1.487
 4884TIP3    H114585   6.145   6.275   1.441
 4884TIP3    H214586   6.082   6.413   1.426
 4885TIP3   OH214587   5.924   6.644   1.688
 4885TIP3    H114588   5.854   6.680   1.744
 4885TIP3    H214589   5.874   6.593   1.621
 4886TIP3   OH214590   5.977   5.854   0.723
 4886TIP3    H114591   5.901   5.842   0.661
 4886TIP3    H214592   5.947   5.933   0.771
 4887TIP3   OH214593   5.848   5.542   0.659
 4887TIP3    H114594   5.828   5.562   0.566
 4887TIP3    H214595   5.816   5.450   0.666
 4888TIP3   OH214596   5.853   5.806   1.210
 4888TIP3    H114597   5.861   5.709   1.203
 4888TIP3    H214598   5.840   5.818   1.307
 4889TIP3   OH214599   4.479   5.884   1.957
 4889TIP3    H114600   4.478   5.849   1.866
 4889TIP3    H214601   4.576   5.884   1.975
 4890TIP3   OH214602   6.142   6.231   2.068
 4890TIP3    H114603   6.214   6.165   2.057
 4890TIP3    H214604   6.173   6.305   2.012
 4891TIP3   OH214605   6.323   6.033   2.078
 4891TIP3    H114606   6.251   5.983   2.122
 4891TIP3    H214607   6.399   5.973   2.096
 4892TIP3   OH214608   5.775   5.284   0.683
 4892TIP3    H114609   5.860   5.238   0.697
 4892TIP3    H214610   5.711   5.211   0.687
 4893TIP3   OH214611   5.851   5.524   1.105
 4893TIP3    H114612   5.891   5.435   1.121
 4893TIP3    H214613   5.908   5.554   1.031
 4894TIP3   OH214614   6.011   5.695   1.601
 4894TIP3    H114615   6.097   5.720   1.560
 4894TIP3    H214616   6.025   5.733   1.690
 4895TIP3   OH214617   6.081   5.839   1.833
 4895TIP3    H114618   6.004   5.874   1.882
 4895TIP3    H214619   6.113   5.920   1.788
 4896TIP3   OH214620   4.697   5.566   2.632
 4896TIP3    H114621   4.795   5.560   2.635
 4896TIP3    H214622   4.673   5.480   2.673
 4897TIP3   OH214623   6.536   5.434   2.390
 4897TIP3    H114624   6.592   5.367   2.345
 4897TIP3    H214625   6.504   5.487   2.314
 4898TIP3   OH214626   5.956   5.274   1.147
 4898TIP3    H114627   6.005   5.255   1.230
 4898TIP3    H214628   5.897   5.196   1.142
 4899TIP3   OH214629   4.658   5.259   1.966
 4899TIP3    H114630   4.720   5.184   1.974
 4899TIP3    H214631   4.721   5.333   1.957
 4900TIP3   OH214632   4.459   5.533   2.035
 4900TIP3    H114633   4.510   5.525   1.951
 4900TIP3    H214634   4.495   5.615   2.071
 4901TIP3   OH214635   6.402   5.569   2.197
 4901TIP3    H114636   6.317   5.611   2.219
 4901TIP3    H214637   6.370   5.499   2.136
 4902TIP3   OH214638   6.042   5.204   0.778
 4902TIP3    H114639   6.073   5.132   0.719
 4902TIP3    H214640   6.108   5.273   0.762
 4903TIP3   OH214641   4.445   5.034   1.537
 4903TIP3    H114642   4.352   5.032   1.565
 4903TIP3    H214643   4.442   5.092   1.459
 4904TIP3   OH214644   5.616   6.736   1.051
 4904TIP3    H114645   5.650   6.721   0.960
 4904TIP3    H214646   5.664   6.816   1.076
 4905TIP3   OH214647   4.665   5.117   2.353
 4905TIP3    H114648   4.614   5.110   2.435
 4905TIP3    H214649   4.598   5.153   2.292
 4906TIP3   OH214650   4.703   6.546   2.427
 4906TIP3    H114651   4.612   6.516   2.413
 4906TIP3    H214652   4.718   6.524   2.520
 4907TIP3   OH214653   4.882   6.577   1.976
 4907TIP3    H114654   4.838   6.655   1.937
 4907TIP3    H214655   4.970   6.587   1.932
 4908TIP3   OH214656   5.326   6.822   2.115
 4908TIP3    H114657   5.370   6.819   2.203
 4908TIP3    H214658   5.394   6.871   2.063
 4909TIP3   OH214659   5.506   6.973   1.972
 4909TIP3    H114660   5.576   6.920   1.930
 4909TIP3    H214661   5.559   7.029   2.033
 4910TIP3   OH214662   6.302   5.333   2.073
 4910TIP3    H114663   6.211   5.327   2.038
 4910TIP3    H214664   6.333   5.241   2.061
 4911TIP3   OH214665   4.558   6.830   2.000
 4911TIP3    H114666   4.469   6.866   1.980
 4911TIP3    H214667   4.575   6.872   2.085
 4912TIP3   OH214668   4.796   6.812   1.859
 4912TIP3    H114669   4.708   6.823   1.902
 4912TIP3    H214670   4.777   6.843   1.768
 4913TIP3   OH214671   5.220   6.838   1.658
 4913TIP3    H114672   5.155   6.859   1.589
 4913TIP3    H214673   5.234   6.926   1.699
 4914TIP3   OH214674   5.490   6.780   1.709
 4914TIP3    H114675   5.396   6.795   1.688
 4914TIP3    H214676   5.534   6.853   1.662
 4915TIP3   OH214677   5.699   6.973   1.621
 4915TIP3    H114678   5.683   7.056   1.572
 4915TIP3    H214679   5.724   6.912   1.548
 4916TIP3   OH214680   4.466   6.623   1.749
 4916TIP3    H114681   4.497   6.598   1.838
 4916TIP3    H214682   4.539   6.583   1.696
 4917TIP3   OH214683   4.663   6.500   1.605
 4917TIP3    H114684   4.680   6.414   1.651
 4917TIP3    H214685   4.754   6.536   1.600
 4918TIP3   OH214686   4.930   6.592   1.608
 4918TIP3    H114687   4.961   6.501   1.592
 4918TIP3    H214688   4.979   6.612   1.690
 4919TIP3   OH214689   5.504   5.248   1.690
 4919TIP3    H114690   5.464   5.176   1.742
 4919TIP3    H214691   5.579   5.203   1.647
 4920TIP3   OH214692   6.028   5.132   1.599
 4920TIP3    H114693   6.066   5.181   1.523
 4920TIP3    H214694   5.933   5.150   1.590
 4921TIP3   OH214695   6.124   5.229   1.363
 4921TIP3    H114696   6.197   5.177   1.322
 4921TIP3    H214697   6.157   5.321   1.347
 4922TIP3   OH214698   4.755   4.956   1.708
 4922TIP3    H114699   4.663   4.922   1.710
 4922TIP3    H214700   4.805   4.872   1.705
 4923TIP3   OH214701   4.539   4.827   1.355
 4923TIP3    H114702   4.573   4.884   1.284
 4923TIP3    H214703   4.514   4.893   1.423
 4924TIP3   OH214704   5.199   4.990   1.590
 4924TIP3    H114705   5.256   5.037   1.527
 4924TIP3    H214706   5.229   5.026   1.674
 4925TIP3   OH214707   5.743   5.137   1.573
 4925TIP3    H114708   5.746   5.100   1.484
 4925TIP3    H214709   5.732   5.056   1.628
 4926TIP3   OH214710   5.776   5.060   1.136
 4926TIP3    H114711   5.688   5.101   1.145
 4926TIP3    H214712   5.761   4.974   1.181
 4927TIP3   OH214713   4.255   6.404   1.139
 4927TIP3    H114714   4.171   6.368   1.104
 4927TIP3    H214715   4.248   6.495   1.103
 4928TIP3   OH214716   4.660   4.985   1.120
 4928TIP3    H114717   4.709   4.923   1.062
 4928TIP3    H214718   4.734   5.040   1.155
 4929TIP3   OH214719   5.169   5.162   1.220
 4929TIP3    H114720   5.232   5.116   1.278
 4929TIP3    H214721   5.191   5.255   1.243
 4930TIP3   OH214722   5.030   6.590   0.718
 4930TIP3    H114723   5.122   6.601   0.689
 4930TIP3    H214724   5.008   6.512   0.662
 4931TIP3   OH214725   5.749   6.702   0.810
 4931TIP3    H114726   5.741   6.608   0.784
 4931TIP3    H214727   5.747   6.747   0.722
 4932TIP3   OH214728   4.962   5.237   2.599
 4932TIP3    H114729   4.930   5.166   2.657
 4932TIP3    H214730   5.057   5.238   2.626
 4933TIP3   OH214731   5.211   5.235   2.718
 4933TIP3    H114732   5.297   5.211   2.678
 4933TIP3    H214733   5.200   5.164   2.784
 4934TIP3   OH214734   4.337   6.413   0.779
 4934TIP3    H114735   4.349   6.446   0.869
 4934TIP3    H214736   4.425   6.374   0.759
 4935TIP3   OH214737   6.037   5.295   2.506
 4935TIP3    H114738   6.057   5.266   2.597
 4935TIP3    H214739   6.126   5.291   2.465
 4936TIP3   OH214740   5.961   6.847   2.011
 4936TIP3    H114741   5.887   6.817   1.955
 4936TIP3    H214742   5.949   6.944   2.007
 4937TIP3   OH214743   7.232   6.211   1.147
 4937TIP3    H114744   7.273   6.194   1.235
 4937TIP3    H214745   7.187   6.127   1.131
 4938TIP3   OH214746   6.542   6.113   1.507
 4938TIP3    H114747   6.570   6.045   1.570
 4938TIP3    H214748   6.611   6.179   1.520
 4939TIP3   OH214749   6.506   6.525   1.229
 4939TIP3    H114750   6.505   6.427   1.231
 4939TIP3    H214751   6.602   6.542   1.235
 4940TIP3   OH214752   6.220   5.733   1.017
 4940TIP3    H114753   6.166   5.812   1.033
 4940TIP3    H214754   6.152   5.673   0.981
 4941TIP3   OH214755   6.279   6.017   1.195
 4941TIP3    H114756   6.327   5.939   1.231
 4941TIP3    H214757   6.336   6.043   1.121
 4942TIP3   OH214758   7.040   6.446   1.194
 4942TIP3    H114759   7.077   6.369   1.147
 4942TIP3    H214760   7.123   6.492   1.217
 4943TIP3   OH214761   8.045   5.773   1.194
 4943TIP3    H114762   8.072   5.851   1.243
 4943TIP3    H214763   8.068   5.795   1.104
 4944TIP3   OH214764   7.457   5.950   1.234
 4944TIP3    H114765   7.494   5.862   1.251
 4944TIP3    H214766   7.424   5.939   1.143
 4945TIP3   OH214767   6.796   5.608   1.189
 4945TIP3    H114768   6.771   5.680   1.126
 4945TIP3    H214769   6.748   5.533   1.147
 4946TIP3   OH214770   7.461   5.699   0.849
 4946TIP3    H114771   7.548   5.682   0.893
 4946TIP3    H214772   7.491   5.719   0.758
 4947TIP3   OH214773   6.424   5.810   1.299
 4947TIP3    H114774   6.507   5.789   1.346
 4947TIP3    H214775   6.435   5.753   1.219
 4948TIP3   OH214776   6.863   6.007   1.090
 4948TIP3    H114777   6.956   5.980   1.105
 4948TIP3    H214778   6.823   5.924   1.057
 4949TIP3   OH214779   6.788   5.592   1.626
 4949TIP3    H114780   6.728   5.628   1.558
 4949TIP3    H214781   6.735   5.609   1.707
 4950TIP3   OH214782   6.891   6.372   1.422
 4950TIP3    H114783   6.823   6.432   1.455
 4950TIP3    H214784   6.930   6.423   1.348
 4951TIP3   OH214785   7.705   5.698   0.984
 4951TIP3    H114786   7.677   5.654   1.065
 4951TIP3    H214787   7.744   5.781   1.019
 4952TIP3   OH214788   6.660   5.706   1.408
 4952TIP3    H114789   6.721   5.779   1.431
 4952TIP3    H214790   6.709   5.665   1.333
 4953TIP3   OH214791   6.118   6.244   0.754
 4953TIP3    H114792   6.034   6.272   0.717
 4953TIP3    H214793   6.150   6.328   0.796
 4954TIP3   OH214794   7.848   5.661   1.359
 4954TIP3    H114795   7.760   5.694   1.334
 4954TIP3    H214796   7.905   5.696   1.288
 4955TIP3   OH214797   7.144   5.311   1.343
 4955TIP3    H114798   7.129   5.216   1.358
 4955TIP3    H214799   7.066   5.349   1.389
 4956TIP3   OH214800   8.010   6.300   1.215
 4956TIP3    H114801   7.917   6.333   1.225
 4956TIP3    H214802   8.027   6.333   1.126
 4957TIP3   OH214803   7.654   6.192   1.482
 4957TIP3    H114804   7.649   6.275   1.532
 4957TIP3    H214805   7.568   6.194   1.436
 4958TIP3   OH214806   6.655   6.157   0.986
 4958TIP3    H114807   6.609   6.096   0.925
 4958TIP3    H214808   6.732   6.102   1.013
 4959TIP3   OH214809   6.784   6.564   1.138
 4959TIP3    H114810   6.755   6.535   1.050
 4959TIP3    H214811   6.874   6.527   1.146
 4960TIP3   OH214812   6.799   6.122   1.339
 4960TIP3    H114813   6.825   6.103   1.246
 4960TIP3    H214814   6.836   6.211   1.355
 4961TIP3   OH214815   7.308   6.748   1.100
 4961TIP3    H114816   7.295   6.827   1.154
 4961TIP3    H214817   7.299   6.675   1.164
 4962TIP3   OH214818   6.892   6.690   1.662
 4962TIP3    H114819   6.834   6.739   1.723
 4962TIP3    H214820   6.821   6.654   1.606
 4963TIP3   OH214821   6.682   6.231   1.755
 4963TIP3    H114822   6.692   6.314   1.809
 4963TIP3    H214823   6.586   6.216   1.770
 4964TIP3   OH214824   6.511   5.994   0.819
 4964TIP3    H114825   6.451   6.034   0.753
 4964TIP3    H214826   6.480   5.903   0.821
 4965TIP3   OH214827   6.283   6.372   1.699
 4965TIP3    H114828   6.229   6.346   1.622
 4965TIP3    H214829   6.338   6.293   1.717
 4966TIP3   OH214830   6.156   6.576   1.325
 4966TIP3    H114831   6.252   6.564   1.320
 4966TIP3    H214832   6.148   6.647   1.390
 4967TIP3   OH214833   7.113   6.804   1.526
 4967TIP3    H114834   7.111   6.899   1.552
 4967TIP3    H214835   7.034   6.770   1.572
 4968TIP3   OH214836   6.299   6.774   0.867
 4968TIP3    H114837   6.370   6.774   0.934
 4968TIP3    H214838   6.222   6.757   0.924
 4969TIP3   OH214839   7.919   6.168   1.663
 4969TIP3    H114840   7.845   6.178   1.601
 4969TIP3    H214841   7.948   6.076   1.643
 4970TIP3   OH214842   6.904   5.387   1.469
 4970TIP3    H114843   6.816   5.355   1.442
 4970TIP3    H214844   6.877   5.468   1.517
 4971TIP3   OH214845   7.438   5.502   1.664
 4971TIP3    H114846   7.506   5.473   1.728
 4971TIP3    H214847   7.354   5.481   1.710
 4972TIP3   OH214848   7.673   5.926   1.579
 4972TIP3    H114849   7.628   5.925   1.667
 4972TIP3    H214850   7.655   6.016   1.547
 4973TIP3   OH214851   6.838   5.901   1.489
 4973TIP3    H114852   6.785   5.920   1.569
 4973TIP3    H214853   6.822   5.982   1.436
 4974TIP3   OH214854   6.719   5.786   0.999
 4974TIP3    H114855   6.627   5.760   1.018
 4974TIP3    H214856   6.729   5.752   0.907
 4975TIP3   OH214857   7.385   6.153   1.816
 4975TIP3    H114858   7.362   6.079   1.877
 4975TIP3    H214859   7.479   6.163   1.836
 4976TIP3   OH214860   7.368   5.915   0.979
 4976TIP3    H114861   7.315   5.952   0.908
 4976TIP3    H214862   7.396   5.829   0.939
 4977TIP3   OH214863   6.657   5.930   1.696
 4977TIP3    H114864   6.667   5.998   1.764
 4977TIP3    H214865   6.644   5.849   1.749
 4978TIP3   OH214866   6.244   5.457   1.281
 4978TIP3    H114867   6.325   5.483   1.329
 4978TIP3    H214868   6.276   5.418   1.198
 4979TIP3   OH214869   6.223   5.437   0.809
 4979TIP3    H114870   6.263   5.472   0.726
 4979TIP3    H214871   6.156   5.505   0.825
 4980TIP3   OH214872   7.376   6.152   1.391
 4980TIP3    H114873   7.412   6.080   1.333
 4980TIP3    H214874   7.347   6.098   1.468
 4981TIP3   OH214875   7.055   5.602   1.064
 4981TIP3    H114876   6.969   5.605   1.111
 4981TIP3    H214877   7.117   5.606   1.139
 4982TIP3   OH214878   6.481   5.666   1.068
 4982TIP3    H114879   6.387   5.674   1.042
 4982TIP3    H214880   6.502   5.573   1.047
 4983TIP3   OH214881   6.750   5.673   0.743
 4983TIP3    H114882   6.847   5.676   0.761
 4983TIP3    H214883   6.747   5.709   0.654
 4984TIP3   OH214884   7.537   5.684   1.260
 4984TIP3    H114885   7.507   5.696   1.353
 4984TIP3    H214886   7.468   5.623   1.228
 4985TIP3   OH214887   6.685   6.451   1.918
 4985TIP3    H114888   6.748   6.516   1.955
 4985TIP3    H214889   6.603   6.502   1.924
 4986TIP3   OH214890   7.130   5.941   1.165
 4986TIP3    H114891   7.204   5.895   1.121
 4986TIP3    H214892   7.130   5.899   1.254
 4987TIP3   OH214893   6.659   5.424   1.040
 4987TIP3    H114894   6.620   5.346   1.083
 4987TIP3    H214895   6.701   5.385   0.962
 4988TIP3   OH214896   7.107   5.841   1.443
 4988TIP3    H114897   7.016   5.871   1.463
 4988TIP3    H214898   7.162   5.898   1.498
 4989TIP3   OH214899   7.752   6.377   1.160
 4989TIP3    H114900   7.733   6.466   1.127
 4989TIP3    H214901   7.660   6.341   1.166
 4990TIP3   OH214902   7.250   6.540   1.546
 4990TIP3    H114903   7.254   6.511   1.638
 4990TIP3    H214904   7.201   6.624   1.553
 4991TIP3   OH214905   6.540   6.250   1.223
 4991TIP3    H114906   6.579   6.218   1.139
 4991TIP3    H214907   6.571   6.184   1.287
 4992TIP3   OH214908   6.424   6.161   1.830
 4992TIP3    H114909   6.442   6.155   1.926
 4992TIP3    H214910   6.347   6.103   1.820
 4993TIP3   OH214911   7.141   6.285   1.854
 4993TIP3    H114912   7.077   6.224   1.812
 4993TIP3    H214913   7.226   6.247   1.824
 4994TIP3   OH214914   7.390   6.788   1.461
 4994TIP3    H114915   7.293   6.786   1.450
 4994TIP3    H214916   7.398   6.840   1.544
 4995TIP3   OH214917   7.493   6.309   1.117
 4995TIP3    H114918   7.397   6.291   1.111
 4995TIP3    H214919   7.528   6.236   1.060
 4996TIP3   OH214920   6.644   6.563   0.884
 4996TIP3    H114921   6.655   6.612   0.800
 4996TIP3    H214922   6.549   6.571   0.897
 4997TIP3   OH214923   6.189   5.858   0.555
 4997TIP3    H114924   6.240   5.930   0.598
 4997TIP3    H214925   6.114   5.849   0.618
 4998TIP3   OH214926   6.783   6.338   0.816
 4998TIP3    H114927   6.743   6.421   0.846
 4998TIP3    H214928   6.748   6.273   0.879
 4999TIP3   OH214929   6.920   6.900   1.312
 4999TIP3    H114930   6.964   6.962   1.250
 4999TIP3    H214931   6.996   6.860   1.356
 5000TIP3   OH214932   7.295   6.524   1.274
 5000TIP3    H114933   7.286   6.521   1.372
 5000TIP3    H214934   7.370   6.464   1.259
 5001TIP3   OH214935   6.627   5.673   1.841
 5001TIP3    H114936   6.530   5.678   1.853
 5001TIP3    H214937   6.653   5.614   1.913
 5002TIP3   OH214938   6.358   6.766   1.489
 5002TIP3    H114939   6.410   6.685   1.486
 5002TIP3    H214940   6.395   6.803   1.571
 5003TIP3   OH214941   6.322   6.093   0.647
 5003TIP3    H114942   6.253   6.137   0.702
 5003TIP3    H214943   6.330   6.159   0.577
 5004TIP3   OH214944   7.467   5.736   1.519
 5004TIP3    H114945   7.546   5.777   1.558
 5004TIP3    H214946   7.454   5.656   1.576
 5005TIP3   OH214947   7.014   5.698   0.806
 5005TIP3    H114948   7.102   5.710   0.769
 5005TIP3    H214949   7.031   5.664   0.896
 5006TIP3   OH214950   7.304   5.988   1.597
 5006TIP3    H114951   7.325   6.040   1.677
 5006TIP3    H214952   7.359   5.908   1.610
 5007TIP3   OH214953   7.190   5.406   0.900
 5007TIP3    H114954   7.163   5.474   0.965
 5007TIP3    H214955   7.253   5.456   0.846
 5008TIP3   OH214956   6.679   5.402   0.692
 5008TIP3    H114957   6.681   5.496   0.721
 5008TIP3    H214958   6.767   5.373   0.725
 5009TIP3   OH214959   7.945   5.908   1.564
 5009TIP3    H114960   7.847   5.902   1.575
 5009TIP3    H214961   7.959   5.843   1.495
 5010TIP3   OH214962   7.593   6.092   0.981
 5010TIP3    H114963   7.520   6.027   0.979
 5010TIP3    H214964   7.666   6.037   1.015
 5011TIP3   OH214965   6.245   5.585   0.583
 5011TIP3    H114966   6.237   5.681   0.566
 5011TIP3    H214967   6.180   5.549   0.521
 5012TIP3   OH214968   6.642   5.306   1.442
 5012TIP3    H114969   6.609   5.273   1.356
 5012TIP3    H214970   6.629   5.227   1.499
 5013TIP3   OH214971   6.168   6.498   0.837
 5013TIP3    H114972   6.113   6.548   0.899
 5013TIP3    H214973   6.228   6.567   0.805
 5014TIP3   OH214974   6.329   7.060   1.895
 5014TIP3    H114975   6.418   7.047   1.932
 5014TIP3    H214976   6.301   6.967   1.882
 5015TIP3   OH214977   6.824   7.032   1.937
 5015TIP3    H114978   6.913   6.994   1.944
 5015TIP3    H214979   6.783   6.975   1.871
 5016TIP3   OH214980   7.446   6.932   1.686
 5016TIP3    H114981   7.436   6.860   1.752
 5016TIP3    H214982   7.534   6.967   1.708
 5017TIP3   OH214983   6.456   6.477   2.110
 5017TIP3    H114984   6.490   6.389   2.090
 5017TIP3    H214985   6.375   6.480   2.055
 5018TIP3   OH214986   7.073   6.560   1.859
 5018TIP3    H114987   7.017   6.569   1.781
 5018TIP3    H214988   7.100   6.466   1.857
 5019TIP3   OH214989   7.565   6.565   1.473
 5019TIP3    H114990   7.610   6.637   1.428
 5019TIP3    H214991   7.475   6.602   1.480
 5020TIP3   OH214992   6.582   6.193   2.082
 5020TIP3    H114993   6.667   6.160   2.054
 5020TIP3    H214994   6.604   6.237   2.167
 5021TIP3   OH214995   6.926   6.098   1.745
 5021TIP3    H114996   6.842   6.150   1.744
 5021TIP3    H214997   6.970   6.130   1.663
 5022TIP3   OH214998   7.445   6.493   1.872
 5022TIP3    H114999   7.516   6.458   1.817
 5022TIP3    H215000   7.436   6.425   1.941
 5023TIP3   OH215001   7.045   5.881   1.864
 5023TIP3    H115002   7.043   5.802   1.807
 5023TIP3    H215003   7.000   5.948   1.808
 5024TIP3   OH215004   7.046   5.668   1.671
 5024TIP3    H115005   7.072   5.707   1.585
 5024TIP3    H215006   6.953   5.644   1.654
 5025TIP3   OH215007   7.072   6.205   1.544
 5025TIP3    H115008   7.154   6.212   1.494
 5025TIP3    H215009   7.014   6.271   1.500
 5026TIP3   OH215010   7.659   6.168   1.928
 5026TIP3    H115011   7.702   6.082   1.935
 5026TIP3    H215012   7.729   6.222   1.889
 5027TIP3   OH215013   7.672   6.425   1.680
 5027TIP3    H115014   7.621   6.476   1.613
 5027TIP3    H215015   7.760   6.430   1.637
 5028TIP3   OH215016   6.926   5.988   2.099
 5028TIP3    H115017   6.854   5.923   2.113
 5028TIP3    H215018   6.956   5.965   2.009
 5029TIP3   OH215019   7.178   5.431   1.741
 5029TIP3    H115020   7.129   5.513   1.717
 5029TIP3    H215021   7.108   5.363   1.729
 5030TIP3   OH215022   7.303   5.935   1.956
 5030TIP3    H115023   7.287   5.920   2.052
 5030TIP3    H215024   7.214   5.910   1.922
 5031TIP3   OH215025   7.544   5.887   1.814
 5031TIP3    H115026   7.467   5.885   1.874
 5031TIP3    H215027   7.616   5.853   1.871
 5032TIP3   OH215028   7.776   5.827   1.963
 5032TIP3    H115029   7.786   5.731   1.979
 5032TIP3    H215030   7.771   5.863   2.054
 5033TIP3   OH215031   6.760   5.771   2.150
 5033TIP3    H115032   6.764   5.680   2.115
 5033TIP3    H215033   6.795   5.758   2.240
 5034TIP3   OH215034   7.272   5.440   1.999
 5034TIP3    H115035   7.339   5.369   1.992
 5034TIP3    H215036   7.232   5.435   1.910
 5035TIP3   OH215037   7.339   5.655   2.157
 5035TIP3    H115038   7.316   5.583   2.093
 5035TIP3    H215039   7.260   5.713   2.150
 5036TIP3   OH215040   5.951   6.877   0.892
 5036TIP3    H115041   5.882   6.821   0.851
 5036TIP3    H215042   5.993   6.814   0.953
 5037TIP3   OH215043   6.107   6.720   1.064
 5037TIP3    H115044   6.085   6.651   1.129
 5037TIP3    H215045   6.145   6.786   1.126
 5038TIP3   OH215046   6.276   6.138   1.445
 5038TIP3    H115047   6.273   6.105   1.353
 5038TIP3    H215048   6.373   6.137   1.461
 5039TIP3   OH215049   7.897   6.467   1.538
 5039TIP3    H115050   7.983   6.426   1.560
 5039TIP3    H215051   7.923   6.530   1.469
 5040TIP3   OH215052   7.810   5.945   1.077
 5040TIP3    H115053   7.890   5.986   1.041
 5040TIP3    H215054   7.812   5.982   1.168
 5041TIP3   OH215055   7.852   6.083   1.305
 5041TIP3    H115056   7.785   6.120   1.366
 5041TIP3    H215057   7.915   6.157   1.297
 5042TIP3   OH215058   6.492   5.820   2.117
 5042TIP3    H115059   6.590   5.816   2.121
 5042TIP3    H215060   6.469   5.736   2.160
 5043TIP3   OH215061   6.457   5.514   1.451
 5043TIP3    H115062   6.519   5.439   1.460
 5043TIP3    H215063   6.519   5.589   1.444
 5044TIP3   OH215064   6.257   5.787   1.524
 5044TIP3    H115065   6.307   5.782   1.440
 5044TIP3    H215066   6.283   5.874   1.557
 5045TIP3   OH215067   6.241   5.302   1.040
 5045TIP3    H115068   6.146   5.287   1.052
 5045TIP3    H215069   6.243   5.351   0.955
 5046TIP3   OH215070   6.462   5.371   1.839
 5046TIP3    H115071   6.411   5.367   1.921
 5046TIP3    H215072   6.396   5.410   1.778
 5047TIP3   OH215073   6.687   6.799   1.409
 5047TIP3    H115074   6.637   6.876   1.439
 5047TIP3    H215075   6.772   6.840   1.386
 5048TIP3   OH215076   7.137   7.083   1.599
 5048TIP3    H115077   7.170   7.079   1.691
 5048TIP3    H215078   7.213   7.123   1.553
 5049TIP3   OH215079   8.082   5.570   1.575
 5049TIP3    H115080   8.004   5.592   1.522
 5049TIP3    H215081   8.130   5.510   1.517
 5050TIP3   OH215082   6.358   7.109   1.475
 5050TIP3    H115083   6.265   7.141   1.468
 5050TIP3    H215084   6.359   7.074   1.565
 5051TIP3   OH215085   6.592   7.076   1.343
 5051TIP3    H115086   6.505   7.083   1.389
 5051TIP3    H215087   6.565   7.089   1.250
 5052TIP3   OH215088   7.021   7.084   1.142
 5052TIP3    H115089   6.946   7.107   1.085
 5052TIP3    H215090   7.031   7.164   1.197
 5053TIP3   OH215091   6.268   6.880   1.239
 5053TIP3    H115092   6.299   6.858   1.330
 5053TIP3    H215093   6.341   6.839   1.188
 5054TIP3   OH215094   6.461   6.756   1.088
 5054TIP3    H115095   6.474   6.672   1.139
 5054TIP3    H215096   6.552   6.792   1.089
 5055TIP3   OH215097   6.727   6.846   1.093
 5055TIP3    H115098   6.756   6.753   1.088
 5055TIP3    H215099   6.767   6.870   1.179
 5056TIP3   OH215100   7.307   5.504   1.185
 5056TIP3    H115101   7.261   5.435   1.236
 5056TIP3    H215102   7.374   5.453   1.136
 5057TIP3   OH215103   7.831   5.387   1.090
 5057TIP3    H115104   7.870   5.436   1.015
 5057TIP3    H215105   7.736   5.403   1.078
 5058TIP3   OH215106   6.309   3.844   9.039
 5058TIP3    H115107   6.354   3.799   8.967
 5058TIP3    H215108   6.302   3.934   9.008
 5059TIP3   OH215109   6.551   5.214   1.196
 5059TIP3    H115110   6.459   5.183   1.193
 5059TIP3    H215111   6.599   5.128   1.190
 5060TIP3   OH215112   6.355   5.078   0.855
 5060TIP3    H115113   6.384   5.132   0.777
 5060TIP3    H215114   6.311   5.145   0.909
 5061TIP3   OH215115   7.000   5.236   1.084
 5061TIP3    H115116   7.040   5.298   1.021
 5061TIP3    H215117   7.016   5.280   1.168
 5062TIP3   OH215118   7.550   5.392   1.056
 5062TIP3    H115119   7.539   5.350   0.970
 5062TIP3    H215120   7.535   5.315   1.117
 5063TIP3   OH215121   6.461   5.225   0.649
 5063TIP3    H115122   6.474   5.195   0.559
 5063TIP3    H215123   6.533   5.290   0.661
 5064TIP3   OH215124   6.934   5.390   0.781
 5064TIP3    H115125   7.021   5.364   0.817
 5064TIP3    H215126   6.963   5.447   0.707
 5065TIP3   OH215127   6.759   5.495   2.087
 5065TIP3    H115128   6.725   5.424   2.144
 5065TIP3    H215129   6.853   5.496   2.114
 5066TIP3   OH215130   7.009   5.493   2.206
 5066TIP3    H115131   7.093   5.465   2.165
 5066TIP3    H215132   6.995   5.421   2.272
 5067TIP3   OH215133   7.830   5.556   1.994
 5067TIP3    H115134   7.851   5.524   2.084
 5067TIP3    H215135   7.917   5.551   1.950
 5068TIP3   OH215136   0.508   6.556   2.881
 5068TIP3    H115137   0.534   6.638   2.928
 5068TIP3    H215138   0.528   6.578   2.789
 5069TIP3   OH215139  -0.054   6.448   2.494
 5069TIP3    H115140   0.011   6.468   2.565
 5069TIP3    H215141  -0.049   6.527   2.439
 5070TIP3   OH215142   0.574   6.764   3.053
 5070TIP3    H115143   0.489   6.812   3.040
 5070TIP3    H215144   0.597   6.794   3.143
 5071TIP3   OH215145   0.149   6.500   2.669
 5071TIP3    H115146   0.149   6.426   2.730
 5071TIP3    H215147   0.204   6.568   2.713
 5072TIP3   OH215148   0.304   6.464   3.049
 5072TIP3    H115149   0.222   6.504   3.019
 5072TIP3    H215150   0.368   6.489   2.979
 5073TIP3   OH215151   0.227   7.483   3.030
 5073TIP3    H115152   0.208   7.395   2.992
 5073TIP3    H215153   0.257   7.534   2.953
 5074TIP3   OH215154   0.431   7.104   2.872
 5074TIP3    H115155   0.349   7.156   2.882
 5074TIP3    H215156   0.458   7.129   2.781
 5075TIP3   OH215157   0.257   6.076   2.142
 5075TIP3    H115158   0.167   6.082   2.177
 5075TIP3    H215159   0.300   6.151   2.184
 5076TIP3   OH215160   0.377   6.946   3.351
 5076TIP3    H115161   0.294   6.969   3.308
 5076TIP3    H215162   0.378   6.848   3.341
 5077TIP3   OH215163   0.200   7.253   2.872
 5077TIP3    H115164   0.231   7.301   2.792
 5077TIP3    H215165   0.109   7.230   2.849
 5078TIP3   OH215166   0.478   7.511   3.125
 5078TIP3    H115167   0.381   7.515   3.108
 5078TIP3    H215168   0.509   7.492   3.034
 5079TIP3   OH215169   0.375   6.679   3.270
 5079TIP3    H115170   0.293   6.637   3.300
 5079TIP3    H215171   0.389   6.636   3.185
 5080TIP3   OH215172   0.047   6.852   2.649
 5080TIP3    H115173  -0.024   6.792   2.673
 5080TIP3    H215174   0.123   6.815   2.698
 5081TIP3   OH215175   0.301   6.598   3.691
 5081TIP3    H115176   0.294   6.501   3.687
 5081TIP3    H215177   0.206   6.621   3.696
 5082TIP3   OH215178   0.295   7.003   2.226
 5082TIP3    H115179   0.227   6.958   2.282
 5082TIP3    H215180   0.358   7.034   2.293
 5083TIP3   OH215181   0.331   7.381   2.674
 5083TIP3    H115182   0.395   7.324   2.627
 5083TIP3    H215183   0.331   7.463   2.624
 5084TIP3   OH215184   0.137   6.847   2.387
 5084TIP3    H115185   0.125   6.750   2.379
 5084TIP3    H215186   0.103   6.862   2.478
 5085TIP3   OH215187   0.387   7.271   3.247
 5085TIP3    H115188   0.460   7.206   3.238
 5085TIP3    H215189   0.413   7.341   3.186
 5086TIP3   OH215190   0.584   7.083   3.252
 5086TIP3    H115191   0.510   7.036   3.297
 5086TIP3    H215192   0.655   7.018   3.269
 5087TIP3   OH215193   0.137   6.578   2.295
 5087TIP3    H115194   0.146   6.495   2.348
 5087TIP3    H215195   0.143   6.543   2.209
 5088TIP3   OH215196   0.262   6.739   2.784
 5088TIP3    H115197   0.346   6.765   2.739
 5088TIP3    H215198   0.276   6.783   2.870
 5089TIP3   OH215199   0.319   6.887   3.010
 5089TIP3    H115200   0.237   6.918   3.053
 5089TIP3    H215201   0.354   6.970   2.970
 5090TIP3   OH215202   0.786   6.481   3.563
 5090TIP3    H115203   0.840   6.411   3.520
 5090TIP3    H215204   0.754   6.533   3.487
 5091TIP3   OH215205   0.217   6.308   2.327
 5091TIP3    H115206   0.255   6.302   2.416
 5091TIP3    H215207   0.142   6.246   2.333
 5092TIP3   OH215208   0.648   6.616   3.369
 5092TIP3    H115209   0.568   6.656   3.407
 5092TIP3    H215210   0.610   6.545   3.314
 5093TIP3   OH215211   0.357   6.304   1.888
 5093TIP3    H115212   0.370   6.206   1.875
 5093TIP3    H215213   0.280   6.303   1.944
 5094TIP3   OH215214   0.550   6.376   3.249
 5094TIP3    H115215   0.458   6.359   3.220
 5094TIP3    H215216   0.587   6.285   3.241
 5095TIP3   OH215217   0.293   6.166   2.772
 5095TIP3    H115218   0.332   6.221   2.700
 5095TIP3    H215219   0.200   6.195   2.769
 5096TIP3   OH215220   0.380   6.285   2.544
 5096TIP3    H115221   0.455   6.232   2.508
 5096TIP3    H215222   0.411   6.376   2.524
 5097TIP3   OH215223   0.035   6.211   2.742
 5097TIP3    H115224  -0.038   6.215   2.676
 5097TIP3    H215225   0.009   6.133   2.795
 5098TIP3   OH215226   0.037   6.099   2.309
 5098TIP3    H115227  -0.046   6.128   2.271
 5098TIP3    H215228   0.011   6.011   2.345
 5099TIP3   OH215229   0.288   6.327   3.681
 5099TIP3    H115230   0.304   6.302   3.776
 5099TIP3    H215231   0.378   6.320   3.644
 5100TIP3   OH215232   1.494   7.257   1.945
 5100TIP3    H115233   1.450   7.343   1.929
 5100TIP3    H215234   1.425   7.198   1.912
 5101TIP3   OH215235   1.491   7.264   2.323
 5101TIP3    H115236   1.524   7.242   2.411
 5101TIP3    H215237   1.448   7.181   2.296
 5102TIP3   OH215238   0.788   7.160   2.686
 5102TIP3    H115239   0.819   7.092   2.749
 5102TIP3    H215240   0.862   7.222   2.691
 5103TIP3   OH215241   1.712   7.568   2.009
 5103TIP3    H115242   1.710   7.495   2.074
 5103TIP3    H215243   1.766   7.633   2.056
 5104TIP3   OH215244   0.815   7.519   2.483
 5104TIP3    H115245   0.788   7.431   2.452
 5104TIP3    H215246   0.897   7.533   2.429
 5105TIP3   OH215247   0.462   6.780   2.195
 5105TIP3    H115248   0.408   6.862   2.195
 5105TIP3    H215249   0.412   6.724   2.255
 5106TIP3   OH215250   0.527   7.062   2.371
 5106TIP3    H115251   0.571   6.982   2.408
 5106TIP3    H215252   0.601   7.103   2.323
 5107TIP3   OH215253   1.303   7.483   2.365
 5107TIP3    H115254   1.350   7.405   2.329
 5107TIP3    H215255   1.382   7.535   2.392
 5108TIP3   OH215256   2.301   6.811   2.369
 5108TIP3    H115257   2.330   6.893   2.414
 5108TIP3    H215258   2.326   6.831   2.277
 5109TIP3   OH215259   1.701   6.992   2.403
 5109TIP3    H115260   1.746   6.907   2.419
 5109TIP3    H215261   1.669   6.978   2.311
 5110TIP3   OH215262   1.043   6.653   2.366
 5110TIP3    H115263   1.018   6.726   2.305
 5110TIP3    H215264   0.994   6.579   2.323
 5111TIP3   OH215265   1.735   6.744   1.989
 5111TIP3    H115266   1.807   6.729   2.055
 5111TIP3    H215267   1.787   6.778   1.915
 5112TIP3   OH215268   0.672   6.852   2.475
 5112TIP3    H115269   0.755   6.833   2.522
 5112TIP3    H215270   0.685   6.797   2.394
 5113TIP3   OH215271   1.114   7.054   2.267
 5113TIP3    H115272   1.207   7.027   2.281
 5113TIP3    H215273   1.073   6.969   2.239
 5114TIP3   OH215274   2.372   7.016   2.543
 5114TIP3    H115275   2.290   7.067   2.527
 5114TIP3    H215276   2.403   7.056   2.626
 5115TIP3   OH215277   1.041   6.634   2.803
 5115TIP3    H115278   0.981   6.672   2.736
 5115TIP3    H215279   0.989   6.652   2.884
 5116TIP3   OH215280   1.356   7.467   1.828
 5116TIP3    H115281   1.345   7.446   1.733
 5116TIP3    H215282   1.398   7.554   1.826
 5117TIP3   OH215283   1.139   7.415   2.597
 5117TIP3    H115284   1.075   7.479   2.631
 5117TIP3    H215285   1.177   7.464   2.521
 5118TIP3   OH215286   1.943   6.749   2.163
 5118TIP3    H115287   1.933   6.701   2.247
 5118TIP3    H215288   1.997   6.825   2.190
 5119TIP3   OH215289   0.908   6.750   2.587
 5119TIP3    H115290   0.969   6.824   2.609
 5119TIP3    H215291   0.958   6.709   2.512
 5120TIP3   OH215292   0.969   7.627   2.700
 5120TIP3    H115293   0.923   7.624   2.615
 5120TIP3    H215294   0.891   7.620   2.761
 5121TIP3   OH215295   2.097   6.706   2.533
 5121TIP3    H115296   2.011   6.740   2.502
 5121TIP3    H215297   2.158   6.740   2.464
 5122TIP3   OH215298   1.400   6.352   2.531
 5122TIP3    H115299   1.380   6.256   2.536
 5122TIP3    H215300   1.317   6.389   2.569
 5123TIP3   OH215301   1.734   7.582   1.728
 5123TIP3    H115302   1.700   7.501   1.685
 5123TIP3    H215303   1.744   7.555   1.822
 5124TIP3   OH215304   2.021   7.724   2.517
 5124TIP3    H115305   2.013   7.645   2.459
 5124TIP3    H215306   2.052   7.792   2.453
 5125TIP3   OH215307   1.333   7.110   1.775
 5125TIP3    H115308   1.256   7.170   1.762
 5125TIP3    H215309   1.375   7.113   1.687
 5126TIP3   OH215310   1.297   6.895   1.508
 5126TIP3    H115311   1.366   6.950   1.549
 5126TIP3    H215312   1.352   6.833   1.456
 5127TIP3   OH215313   2.226   7.357   2.358
 5127TIP3    H115314   2.144   7.411   2.366
 5127TIP3    H215315   2.256   7.384   2.269
 5128TIP3   OH215316   1.671   7.196   1.748
 5128TIP3    H115317   1.616   7.219   1.826
 5128TIP3    H215318   1.754   7.168   1.792
 5129TIP3   OH215319   1.904   7.237   2.660
 5129TIP3    H115320   1.905   7.320   2.712
 5129TIP3    H215321   1.819   7.245   2.614
 5130TIP3   OH215322   0.909   7.197   2.151
 5130TIP3    H115323   0.863   7.132   2.093
 5130TIP3    H215324   0.984   7.145   2.186
 5131TIP3   OH215325   1.042   7.569   2.350
 5131TIP3    H115326   1.019   7.542   2.260
 5131TIP3    H215327   1.139   7.576   2.346
 5132TIP3   OH215328   1.037   7.172   2.511
 5132TIP3    H115329   1.074   7.151   2.423
 5132TIP3    H215330   1.079   7.258   2.532
 5133TIP3   OH215331   1.214   7.630   2.837
 5133TIP3    H115332   1.182   7.718   2.864
 5133TIP3    H215333   1.137   7.601   2.784
 5134TIP3   OH215334   1.515   7.054   1.572
 5134TIP3    H115335   1.572   7.116   1.622
 5134TIP3    H215336   1.538   7.078   1.479
 5135TIP3   OH215337   0.929   7.282   2.936
 5135TIP3    H115338   0.937   7.368   2.982
 5135TIP3    H215339   0.836   7.260   2.955
 5136TIP3   OH215340   2.026   6.299   1.619
 5136TIP3    H115341   1.944   6.319   1.669
 5136TIP3    H215342   2.038   6.382   1.568
 5137TIP3   OH215343   0.762   7.034   1.970
 5137TIP3    H115344   0.706   7.079   1.906
 5137TIP3    H215345   0.723   6.945   1.969
 5138TIP3   OH215346   0.563   7.425   2.880
 5138TIP3    H115347   0.495   7.405   2.814
 5138TIP3    H215348   0.597   7.337   2.904
 5139TIP3   OH215349   2.159   7.199   2.838
 5139TIP3    H115350   2.078   7.212   2.786
 5139TIP3    H215351   2.173   7.103   2.828
 5140TIP3   OH215352   0.756   7.624   2.873
 5140TIP3    H115353   0.809   7.588   2.948
 5140TIP3    H215354   0.683   7.558   2.869
 5141TIP3   OH215355   1.156   6.431   2.647
 5141TIP3    H115356   1.067   6.399   2.622
 5141TIP3    H215357   1.130   6.512   2.696
 5142TIP3   OH215358   1.913   6.970   2.750
 5142TIP3    H115359   1.875   6.970   2.841
 5142TIP3    H215360   1.901   7.063   2.722
 5143TIP3   OH215361   1.590   7.093   1.317
 5143TIP3    H115362   1.556   7.071   1.228
 5143TIP3    H215363   1.660   7.157   1.295
 5144TIP3   OH215364   1.292   6.488   1.610
 5144TIP3    H115365   1.266   6.482   1.705
 5144TIP3    H215366   1.258   6.400   1.580
 5145TIP3   OH215367   1.085   6.948   2.661
 5145TIP3    H115368   1.035   6.967   2.744
 5145TIP3    H215369   1.067   7.030   2.610
 5146TIP3   OH215370   0.965   6.836   2.182
 5146TIP3    H115371   0.872   6.808   2.197
 5146TIP3    H215372   0.980   6.797   2.093
 5147TIP3   OH215373   1.464   6.914   1.909
 5147TIP3    H115374   1.411   6.983   1.863
 5147TIP3    H215375   1.519   6.881   1.835
 5148TIP3   OH215376   1.636   7.192   2.988
 5148TIP3    H115377   1.613   7.123   3.053
 5148TIP3    H215378   1.728   7.213   3.013
 5149TIP3   OH215379   1.617   6.946   2.145
 5149TIP3    H115380   1.556   6.973   2.074
 5149TIP3    H215381   1.652   6.865   2.102
 5150TIP3   OH215382   0.905   6.974   2.871
 5150TIP3    H115383   0.926   7.038   2.941
 5150TIP3    H215384   0.892   6.892   2.923
 5151TIP3   OH215385   0.943   6.444   1.574
 5151TIP3    H115386   0.949   6.446   1.672
 5151TIP3    H215387   0.847   6.455   1.563
 5152TIP3   OH215388   0.502   6.506   2.441
 5152TIP3    H115389   0.574   6.534   2.503
 5152TIP3    H215390   0.551   6.460   2.371
 5153TIP3   OH215391   0.510   6.535   2.008
 5153TIP3    H115392   0.542   6.486   1.932
 5153TIP3    H215393   0.418   6.553   1.985
 5154TIP3   OH215394   1.623   7.193   2.564
 5154TIP3    H115395   1.658   7.121   2.507
 5154TIP3    H215396   1.596   7.140   2.643
 5155TIP3   OH215397   1.299   6.653   2.240
 5155TIP3    H115398   1.214   6.652   2.290
 5155TIP3    H215399   1.364   6.657   2.312
 5156TIP3   OH215400   0.728   6.709   2.243
 5156TIP3    H115401   0.637   6.716   2.205
 5156TIP3    H215402   0.754   6.618   2.219
 5157TIP3   OH215403   1.008   6.715   1.942
 5157TIP3    H115404   1.104   6.720   1.925
 5157TIP3    H215405   0.968   6.719   1.852
 5158TIP3   OH215406   1.788   6.730   2.436
 5158TIP3    H115407   1.760   6.736   2.530
 5158TIP3    H215408   1.719   6.670   2.401
 5159TIP3   OH215409   0.871   6.709   1.711
 5159TIP3    H115410   0.776   6.692   1.699
 5159TIP3    H215411   0.895   6.753   1.628
 5160TIP3   OH215412   0.919   7.530   3.079
 5160TIP3    H115413   0.998   7.557   3.131
 5160TIP3    H215414   0.854   7.517   3.151
 5161TIP3   OH215415   1.379   6.984   2.335
 5161TIP3    H115416   1.452   6.944   2.287
 5161TIP3    H215417   1.386   6.943   2.424
 5162TIP3   OH215418   0.902   6.470   2.217
 5162TIP3    H115419   0.866   6.392   2.266
 5162TIP3    H215420   0.944   6.426   2.141
 5163TIP3   OH215421   1.356   6.882   2.625
 5163TIP3    H115422   1.265   6.913   2.641
 5163TIP3    H215423   1.410   6.943   2.679
 5164TIP3   OH215424   1.114   7.269   1.745
 5164TIP3    H115425   1.050   7.195   1.751
 5164TIP3    H215426   1.092   7.320   1.826
 5165TIP3   OH215427   1.993   7.503   2.352
 5165TIP3    H115428   2.021   7.551   2.271
 5165TIP3    H215429   1.908   7.463   2.325
 5166TIP3   OH215430   1.547   6.585   1.582
 5166TIP3    H115431   1.450   6.568   1.593
 5166TIP3    H215432   1.557   6.677   1.611
 5167TIP3   OH215433   1.501   7.608   2.719
 5167TIP3    H115434   1.532   7.559   2.797
 5167TIP3    H215435   1.421   7.651   2.753
 5168TIP3   OH215436   1.620   6.828   1.690
 5168TIP3    H115437   1.717   6.833   1.704
 5168TIP3    H215438   1.602   6.909   1.638
 5169TIP3   OH215439   0.769   7.256   2.389
 5169TIP3    H115440   0.824   7.245   2.309
 5169TIP3    H215441   0.821   7.209   2.456
 5170TIP3   OH215442   1.297   7.389   1.568
 5170TIP3    H115443   1.240   7.451   1.517
 5170TIP3    H215444   1.227   7.338   1.614
 5171TIP3   OH215445   0.669   7.205   3.010
 5171TIP3    H115446   0.682   7.191   3.106
 5171TIP3    H215447   0.597   7.142   2.992
 5172TIP3   OH215448   1.394   7.318   3.035
 5172TIP3    H115449   1.331   7.265   2.984
 5172TIP3    H215450   1.480   7.286   3.001
 5173TIP3   OH215451   2.060   6.921   1.524
 5173TIP3    H115452   1.998   6.875   1.462
 5173TIP3    H215453   2.058   7.009   1.482
 5174TIP3   OH215454   2.279   7.759   2.608
 5174TIP3    H115455   2.182   7.772   2.598
 5174TIP3    H215456   2.304   7.746   2.514
 5175TIP3   OH215457   1.756   7.374   2.256
 5175TIP3    H115458   1.665   7.347   2.278
 5175TIP3    H215459   1.791   7.291   2.219
 5176TIP3   OH215460   1.022   7.383   1.977
 5176TIP3    H115461   0.999   7.463   2.025
 5176TIP3    H215462   0.990   7.315   2.041
 5177TIP3   OH215463   1.546   7.573   2.447
 5177TIP3    H115464   1.535   7.585   2.544
 5177TIP3    H215465   1.632   7.532   2.442
 5178TIP3   OH215466   1.516   7.422   1.336
 5178TIP3    H115467   1.572   7.412   1.416
 5178TIP3    H215468   1.429   7.402   1.375
 5179TIP3   OH215469   0.877   6.717   3.016
 5179TIP3    H115470   0.781   6.722   3.031
 5179TIP3    H215471   0.905   6.660   3.089
 5180TIP3   OH215472   1.681   7.378   1.548
 5180TIP3    H115473   1.675   7.307   1.615
 5180TIP3    H215474   1.778   7.381   1.532
 5181TIP3   OH215475   1.731   6.762   2.702
 5181TIP3    H115476   1.800   6.831   2.717
 5181TIP3    H215477   1.704   6.743   2.792
 5182TIP3   OH215478   1.592   6.535   1.866
 5182TIP3    H115479   1.581   6.558   1.772
 5182TIP3    H215480   1.634   6.616   1.903
 5183TIP3   OH215481   1.285   6.713   1.970
 5183TIP3    H115482   1.351   6.785   1.952
 5183TIP3    H215483   1.290   6.707   2.067
 5184TIP3   OH215484   1.555   7.033   2.776
 5184TIP3    H115485   1.569   7.096   2.850
 5184TIP3    H215486   1.612   6.960   2.804
 5185TIP3   OH215487   1.426   6.440   2.073
 5185TIP3    H115488   1.413   6.521   2.126
 5185TIP3    H215489   1.488   6.474   2.004
 5186TIP3   OH215490   0.949   6.438   1.855
 5186TIP3    H115491   0.941   6.528   1.892
 5186TIP3    H215492   1.045   6.423   1.864
 5187TIP3   OH215493   2.185   6.933   2.759
 5187TIP3    H115494   2.088   6.925   2.758
 5187TIP3    H215495   2.208   6.901   2.671
 5188TIP3   OH215496   1.842   7.127   2.145
 5188TIP3    H115497   1.767   7.066   2.157
 5188TIP3    H215498   1.915   7.081   2.193
 5189TIP3   OH215499   0.891   6.351   2.619
 5189TIP3    H115500   0.860   6.317   2.533
 5189TIP3    H215501   0.880   6.273   2.678
 5190TIP3   OH215502   0.716   7.499   3.258
 5190TIP3    H115503   0.738   7.405   3.270
 5190TIP3    H215504   0.625   7.493   3.223
 5191TIP3   OH215505   1.338   7.583   3.073
 5191TIP3    H115506   1.301   7.595   2.982
 5191TIP3    H215507   1.372   7.492   3.066
 5192TIP3   OH215508   1.811   7.603   2.648
 5192TIP3    H115509   1.880   7.658   2.606
 5192TIP3    H215510   1.736   7.664   2.647
 5193TIP3   OH215511   0.841   7.250   3.255
 5193TIP3    H115512   0.911   7.185   3.241
 5193TIP3    H215513   0.864   7.282   3.345
 5194TIP3   OH215514   0.939   7.062   1.730
 5194TIP3    H115515   0.898   7.020   1.808
 5194TIP3    H215516   0.958   6.986   1.673
 5195TIP3   OH215517   1.171   7.138   2.916
 5195TIP3    H115518   1.092   7.196   2.919
 5195TIP3    H215519   1.218   7.172   2.837
 5196TIP3   OH215520   1.018   6.862   1.516
 5196TIP3    H115521   1.030   6.808   1.438
 5196TIP3    H215522   1.112   6.888   1.530
 5197TIP3   OH215523   1.688   7.528   3.047
 5197TIP3    H115524   1.774   7.514   3.007
 5197TIP3    H215525   1.689   7.466   3.123
 5198TIP3   OH215526   1.829   7.205   1.188
 5198TIP3    H115527   1.805   7.161   1.104
 5198TIP3    H215528   1.795   7.296   1.172
 5199TIP3   OH215529   1.295   6.926   3.041
 5199TIP3    H115530   1.294   6.846   2.983
 5199TIP3    H215531   1.249   6.992   2.985
 5200TIP3   OH215532   1.300   6.717   2.856
 5200TIP3    H115533   1.324   6.748   2.767
 5200TIP3    H215534   1.211   6.680   2.841
 5201TIP3   OH215535   1.320   7.249   2.720
 5201TIP3    H115536   1.402   7.258   2.670
 5201TIP3    H215537   1.262   7.316   2.678
 5202TIP3   OH215538   1.902   7.212   3.101
 5202TIP3    H115539   1.957   7.135   3.121
 5202TIP3    H215540   1.970   7.276   3.071
 5203TIP3   OH215541   1.944   7.462   2.836
 5203TIP3    H115542   1.887   7.517   2.777
 5203TIP3    H215543   2.032   7.484   2.798
 5204TIP3   OH215544   1.174   7.033   3.273
 5204TIP3    H115545   1.103   6.967   3.289
 5204TIP3    H215546   1.205   7.006   3.184
 5205TIP3   OH215547   1.554   6.977   3.133
 5205TIP3    H115548   1.541   6.970   3.230
 5205TIP3    H215549   1.463   6.956   3.103
 5206TIP3   OH215550   1.783   6.913   2.983
 5206TIP3    H115551   1.714   6.930   3.049
 5206TIP3    H215552   1.861   6.893   3.040
 5207TIP3   OH215553   2.010   6.867   3.136
 5207TIP3    H115554   2.030   6.773   3.156
 5207TIP3    H215555   2.011   6.908   3.225
 5208TIP3   OH215556   1.009   6.815   3.325
 5208TIP3    H115557   1.012   6.723   3.294
 5208TIP3    H215558   1.044   6.805   3.416
 5209TIP3   OH215559   1.574   6.693   3.330
 5209TIP3    H115560   1.546   6.654   3.247
 5209TIP3    H215561   1.506   6.765   3.341
 5210TIP3   OH215562   2.164   7.892   2.880
 5210TIP3    H115563   2.092   7.873   2.945
 5210TIP3    H215564   2.213   7.961   2.927
 5211TIP3   OH215565   1.952   7.376   1.529
 5211TIP3    H115566   2.025   7.434   1.500
 5211TIP3    H215567   1.994   7.336   1.609
 5212TIP3   OH215568   2.083   7.249   1.729
 5212TIP3    H115569   2.021   7.205   1.792
 5212TIP3    H215570   2.154   7.284   1.787
 5213TIP3   OH215571   2.121   7.635   2.153
 5213TIP3    H115572   2.189   7.581   2.109
 5213TIP3    H215573   2.129   7.721   2.109
 5214TIP3   OH215574   2.024   7.157   1.377
 5214TIP3    H115575   1.953   7.161   1.310
 5214TIP3    H215576   1.998   7.232   1.434
 5215TIP3   OH215577   1.892   6.832   1.330
 5215TIP3    H115578   1.849   6.867   1.251
 5215TIP3    H215579   1.870   6.737   1.323
 5216TIP3   OH215580   1.898   7.105   1.877
 5216TIP3    H115581   1.908   7.009   1.870
 5216TIP3    H215582   1.885   7.119   1.973
 5217TIP3   OH215583   0.524   7.189   2.620
 5217TIP3    H115584   0.522   7.153   2.529
 5217TIP3    H215585   0.621   7.187   2.637
 5218TIP3   OH215586   2.186   7.528   2.733
 5218TIP3    H115587   2.259   7.464   2.723
 5218TIP3    H215588   2.215   7.601   2.675
 5219TIP3   OH215589   2.373   7.336   2.746
 5219TIP3    H115590   2.300   7.286   2.788
 5219TIP3    H215591   2.447   7.273   2.760
 5220TIP3   OH215592   1.836   6.566   1.315
 5220TIP3    H115593   1.912   6.535   1.368
 5220TIP3    H215594   1.765   6.505   1.339
 5221TIP3   OH215595   1.895   6.824   1.768
 5221TIP3    H115596   1.936   6.735   1.784
 5221TIP3    H215597   1.954   6.856   1.698
 5222TIP3   OH215598   2.055   6.998   2.264
 5222TIP3    H115599   2.141   7.023   2.223
 5222TIP3    H215600   2.070   7.034   2.354
 5223TIP3   OH215601   2.124   7.141   2.497
 5223TIP3    H115602   2.048   7.177   2.546
 5223TIP3    H215603   2.158   7.221   2.451
 5224TIP3   OH215604   0.743   6.866   3.290
 5224TIP3    H115605   0.840   6.861   3.298
 5224TIP3    H215606   0.717   6.782   3.334
 5225TIP3   OH215607   2.575   6.731   3.053
 5225TIP3    H115608   2.635   6.666   3.010
 5225TIP3    H215609   2.548   6.787   2.977
 5226TIP3   OH215610   2.003   6.574   1.808
 5226TIP3    H115611   2.052   6.557   1.891
 5226TIP3    H215612   1.943   6.497   1.806
 5227TIP3   OH215613   0.703   6.558   2.624
 5227TIP3    H115614   0.766   6.484   2.636
 5227TIP3    H215615   0.765   6.633   2.620
 5228TIP3   OH215616   0.506   6.831   2.700
 5228TIP3    H115617   0.555   6.827   2.616
 5228TIP3    H215618   0.535   6.915   2.736
 5229TIP3   OH215619   2.445   6.871   2.859
 5229TIP3    H115620   2.359   6.911   2.881
 5229TIP3    H215621   2.416   6.799   2.800
 5230TIP3   OH215622   2.082   6.508   1.439
 5230TIP3    H115623   2.122   6.435   1.386
 5230TIP3    H215624   2.151   6.577   1.434
 5231TIP3   OH215625   0.483   6.334   2.195
 5231TIP3    H115626   0.397   6.353   2.233
 5231TIP3    H215627   0.496   6.408   2.132
 5232TIP3   OH215628   0.711   6.415   3.015
 5232TIP3    H115629   0.660   6.410   3.098
 5232TIP3    H215630   0.644   6.455   2.955
 5233TIP3   OH215631   2.346   6.635   2.737
 5233TIP3    H115632   2.256   6.629   2.700
 5233TIP3    H215633   2.379   6.543   2.725
 5234TIP3   OH215634   1.559   6.549   2.365
 5234TIP3    H115635   1.512   6.476   2.408
 5234TIP3    H215636   1.626   6.503   2.311
 5235TIP3   OH215637   2.073   6.432   2.262
 5235TIP3    H115638   2.111   6.483   2.186
 5235TIP3    H215639   1.978   6.451   2.253
 5236TIP3   OH215640   2.169   6.530   2.025
 5236TIP3    H115641   2.242   6.477   1.986
 5236TIP3    H215642   2.203   6.621   2.010
 5237TIP3   OH215643   0.802   6.260   2.371
 5237TIP3    H115644   0.711   6.226   2.372
 5237TIP3    H215645   0.853   6.176   2.366
 5238TIP3   OH215646   0.610   6.128   2.035
 5238TIP3    H115647   0.633   6.178   1.954
 5238TIP3    H215648   0.565   6.196   2.087
 5239TIP3   OH215649   1.245   6.290   2.249
 5239TIP3    H115650   1.305   6.338   2.191
 5239TIP3    H215651   1.257   6.334   2.333
 5240TIP3   OH215652   1.786   6.434   2.236
 5240TIP3    H115653   1.791   6.395   2.148
 5240TIP3    H215654   1.778   6.354   2.293
 5241TIP3   OH215655   1.821   6.361   1.799
 5241TIP3    H115656   1.733   6.401   1.811
 5241TIP3    H215657   1.808   6.274   1.844
 5242TIP3   OH215658   0.715   6.284   1.824
 5242TIP3    H115659   0.744   6.220   1.755
 5242TIP3    H215660   0.798   6.333   1.837
 5243TIP3   OH215661   1.222   6.466   1.877
 5243TIP3    H115662   1.275   6.412   1.938
 5243TIP3    H215663   1.246   6.556   1.907
 5244TIP3   OH215664   1.008   6.541   3.264
 5244TIP3    H115665   0.971   6.470   3.320
 5244TIP3    H215666   1.102   6.538   3.292
 5245TIP3   OH215667   1.257   6.530   3.389
 5245TIP3    H115668   1.346   6.496   3.378
 5245TIP3    H215669   1.224   6.468   3.458
 5246TIP3   OH215670   2.083   6.600   3.170
 5246TIP3    H115671   2.102   6.568   3.261
 5246TIP3    H215672   2.172   6.596   3.128
 5247TIP3   OH215673   3.291   7.507   1.434
 5247TIP3    H115674   3.255   7.595   1.409
 5247TIP3    H215675   3.217   7.452   1.402
 5248TIP3   OH215676   3.291   7.519   1.809
 5248TIP3    H115677   3.322   7.498   1.899
 5248TIP3    H215678   3.244   7.437   1.784
 5249TIP3   OH215679   2.584   7.415   2.176
 5249TIP3    H115680   2.615   7.349   2.240
 5249TIP3    H215681   2.657   7.478   2.177
 5250TIP3   OH215682   3.507   7.824   1.498
 5250TIP3    H115683   3.506   7.751   1.563
 5250TIP3    H215684   3.557   7.892   1.546
 5251TIP3   OH215685   2.610   7.768   1.972
 5251TIP3    H115686   2.582   7.681   1.940
 5251TIP3    H215687   2.696   7.780   1.925
 5252TIP3   OH215688   2.265   7.028   1.682
 5252TIP3    H115689   2.220   7.113   1.698
 5252TIP3    H215690   2.192   6.977   1.642
 5253TIP3   OH215691   2.320   7.317   1.855
 5253TIP3    H115692   2.369   7.239   1.892
 5253TIP3    H215693   2.392   7.369   1.818
 5254TIP3   OH215694   3.102   7.739   1.848
 5254TIP3    H115695   3.148   7.662   1.812
 5254TIP3    H215696   3.180   7.791   1.878
 5255TIP3   OH215697   4.096   7.068   1.846
 5255TIP3    H115698   4.124   7.146   1.898
 5255TIP3    H215699   4.135   7.090   1.759
 5256TIP3   OH215700   3.502   7.253   1.887
 5256TIP3    H115701   3.534   7.164   1.910
 5256TIP3    H215702   3.465   7.237   1.798
 5257TIP3   OH215703   2.839   6.909   1.852
 5257TIP3    H115704   2.815   6.982   1.791
 5257TIP3    H215705   2.788   6.836   1.811
 5258TIP3   OH215706   3.539   7.004   1.481
 5258TIP3    H115707   3.611   6.962   1.531
 5258TIP3    H215708   3.586   7.038   1.403
 5259TIP3   OH215709   2.468   7.112   1.962
 5259TIP3    H115710   2.551   7.092   2.010
 5259TIP3    H215711   2.482   7.057   1.882
 5260TIP3   OH215712   2.909   7.310   1.753
 5260TIP3    H115713   3.003   7.284   1.769
 5260TIP3    H215714   2.870   7.225   1.724
 5261TIP3   OH215715   4.161   7.267   2.030
 5261TIP3    H115716   4.083   7.323   2.011
 5261TIP3    H215717   4.197   7.309   2.110
 5262TIP3   OH215718   2.832   6.892   2.288
 5262TIP3    H115719   2.771   6.930   2.223
 5262TIP3    H215720   2.782   6.911   2.371
 5263TIP3   OH215721   3.171   7.709   1.296
 5263TIP3    H115722   3.124   7.708   1.212
 5263TIP3    H215723   3.192   7.804   1.307
 5264TIP3   OH215724   2.934   7.673   2.083
 5264TIP3    H115725   2.869   7.736   2.119
 5264TIP3    H215726   2.968   7.723   2.006
 5265TIP3   OH215727   3.772   6.981   1.699
 5265TIP3    H115728   3.700   6.984   1.760
 5265TIP3    H215729   3.801   7.074   1.696
 5266TIP3   OH215730   2.703   7.008   2.072
 5266TIP3    H115731   2.764   7.081   2.096
 5266TIP3    H215732   2.755   6.967   1.999
 5267TIP3   OH215733   2.765   7.884   2.189
 5267TIP3    H115734   2.721   7.885   2.103
 5267TIP3    H215735   2.686   7.877   2.248
 5268TIP3   OH215736   2.165   7.518   1.432
 5268TIP3    H115737   2.131   7.551   1.346
 5268TIP3    H215738   2.184   7.604   1.473
 5269TIP3   OH215739   3.883   6.940   1.972
 5269TIP3    H115740   3.807   6.998   1.989
 5269TIP3    H215741   3.950   7.001   1.938
 5270TIP3   OH215742   3.186   6.613   2.003
 5270TIP3    H115743   3.174   6.518   2.022
 5270TIP3    H215744   3.109   6.650   2.051
 5271TIP3   OH215745   3.538   7.840   1.219
 5271TIP3    H115746   3.500   7.761   1.176
 5271TIP3    H215747   3.542   7.814   1.313
 5272TIP3   OH215748   3.818   7.980   2.003
 5272TIP3    H115749   3.808   7.902   1.946
 5272TIP3    H215750   3.842   8.050   1.939
 5273TIP3   OH215751   3.119   7.368   1.264
 5273TIP3    H115752   3.038   7.419   1.246
 5273TIP3    H215753   3.163   7.368   1.177
 5274TIP3   OH215754   3.077   7.159   0.975
 5274TIP3    H115755   3.145   7.210   1.023
 5274TIP3    H215756   3.134   7.095   0.927
 5275TIP3   OH215757   4.022   7.614   1.844
 5275TIP3    H115758   3.939   7.667   1.853
 5275TIP3    H215759   4.050   7.641   1.754
 5276TIP3   OH215760   3.467   7.450   1.234
 5276TIP3    H115761   3.411   7.472   1.313
 5276TIP3    H215762   3.551   7.425   1.278
 5277TIP3   OH215763   3.700   7.496   2.144
 5277TIP3    H115764   3.701   7.578   2.196
 5277TIP3    H215765   3.613   7.502   2.101
 5278TIP3   OH215766   2.704   7.454   1.639
 5278TIP3    H115767   2.662   7.393   1.574
 5278TIP3    H215768   2.780   7.401   1.671
 5279TIP3   OH215769   2.836   7.819   1.842
 5279TIP3    H115770   2.799   7.819   1.752
 5279TIP3    H215771   2.933   7.821   1.826
 5280TIP3   OH215772   2.830   7.430   1.998
 5280TIP3    H115773   2.868   7.409   1.910
 5280TIP3    H215774   2.874   7.515   2.020
 5281TIP3   OH215775   3.012   7.887   2.323
 5281TIP3    H115776   2.979   7.976   2.350
 5281TIP3    H215777   2.934   7.858   2.271
 5282TIP3   OH215778   3.303   7.313   1.060
 5282TIP3    H115779   3.364   7.372   1.110
 5282TIP3    H215780   3.331   7.332   0.967
 5283TIP3   OH215781   2.725   7.543   2.420
 5283TIP3    H115782   2.732   7.628   2.468
 5283TIP3    H215783   2.632   7.519   2.439
 5284TIP3   OH215784   3.821   6.558   1.104
 5284TIP3    H115785   3.738   6.579   1.151
 5284TIP3    H215786   3.834   6.638   1.049
 5285TIP3   OH215787   2.568   7.295   1.449
 5285TIP3    H115788   2.500   7.337   1.392
 5285TIP3    H215789   2.526   7.211   1.470
 5286TIP3   OH215790   2.361   7.681   2.360
 5286TIP3    H115791   2.295   7.656   2.294
 5286TIP3    H215792   2.395   7.594   2.390
 5287TIP3   OH215793   3.955   7.456   2.324
 5287TIP3    H115794   3.871   7.467   2.277
 5287TIP3    H215795   3.968   7.360   2.321
 5288TIP3   OH215796   2.551   7.883   2.363
 5288TIP3    H115797   2.605   7.845   2.435
 5288TIP3    H215798   2.480   7.815   2.355
 5289TIP3   OH215799   2.949   6.688   2.132
 5289TIP3    H115800   2.859   6.659   2.108
 5289TIP3    H215801   2.926   6.769   2.183
 5290TIP3   OH215802   3.484   6.802   2.325
 5290TIP3    H115803   3.551   6.780   2.393
 5290TIP3    H215804   3.400   6.787   2.373
 5291TIP3   OH215805   3.724   7.234   2.239
 5291TIP3    H115806   3.676   7.224   2.324
 5291TIP3    H215807   3.695   7.322   2.209
 5292TIP3   OH215808   3.382   7.348   0.806
 5292TIP3    H115809   3.345   7.331   0.717
 5292TIP3    H215810   3.453   7.412   0.785
 5293TIP3   OH215811   3.094   6.736   1.103
 5293TIP3    H115812   3.060   6.733   1.194
 5293TIP3    H215813   3.055   6.653   1.069
 5294TIP3   OH215814   2.880   7.205   2.147
 5294TIP3    H115815   2.835   7.225   2.232
 5294TIP3    H215816   2.862   7.287   2.097
 5295TIP3   OH215817   2.764   7.090   1.664
 5295TIP3    H115818   2.672   7.063   1.683
 5295TIP3    H215819   2.776   7.049   1.575
 5296TIP3   OH215820   3.257   7.171   1.394
 5296TIP3    H115821   3.203   7.241   1.351
 5296TIP3    H215822   3.312   7.141   1.318
 5297TIP3   OH215823   3.421   7.427   2.494
 5297TIP3    H115824   3.410   7.357   2.562
 5297TIP3    H215825   3.514   7.451   2.507
 5298TIP3   OH215826   3.414   7.203   1.632
 5298TIP3    H115827   3.351   7.236   1.564
 5298TIP3    H215828   3.446   7.124   1.585
 5299TIP3   OH215829   2.702   7.232   2.362
 5299TIP3    H115830   2.743   7.291   2.427
 5299TIP3    H215831   2.693   7.149   2.412
 5300TIP3   OH215832   2.751   6.711   1.069
 5300TIP3    H115833   2.741   6.708   1.166
 5300TIP3    H215834   2.671   6.761   1.044
 5301TIP3   OH215835   2.292   6.754   1.941
 5301TIP3    H115836   2.368   6.786   1.995
 5301TIP3    H215837   2.335   6.721   1.860
 5302TIP3   OH215838   2.262   6.734   1.459
 5302TIP3    H115839   2.308   6.773   1.381
 5302TIP3    H215840   2.203   6.807   1.481
 5303TIP3   OH215841   3.422   7.450   2.053
 5303TIP3    H115842   3.457   7.379   1.994
 5303TIP3    H215843   3.394   7.397   2.130
 5304TIP3   OH215844   3.095   6.909   1.727
 5304TIP3    H115845   3.010   6.907   1.775
 5304TIP3    H215846   3.159   6.913   1.800
 5305TIP3   OH215847   2.527   6.968   1.733
 5305TIP3    H115848   2.432   6.975   1.707
 5305TIP3    H215849   2.550   6.876   1.711
 5306TIP3   OH215850   2.794   6.963   1.422
 5306TIP3    H115851   2.888   6.978   1.399
 5306TIP3    H215852   2.747   6.986   1.339
 5307TIP3   OH215853   3.575   6.984   1.907
 5307TIP3    H115854   3.558   6.995   2.004
 5307TIP3    H215855   3.502   6.921   1.885
 5308TIP3   OH215856   2.637   6.998   1.200
 5308TIP3    H115857   2.566   6.952   1.152
 5308TIP3    H215858   2.690   7.034   1.126
 5309TIP3   OH215859   2.714   7.786   2.567
 5309TIP3    H115860   2.794   7.813   2.618
 5309TIP3    H215861   2.650   7.775   2.640
 5310TIP3   OH215862   3.173   7.242   1.825
 5310TIP3    H115863   3.245   7.196   1.781
 5310TIP3    H215864   3.176   7.202   1.915
 5311TIP3   OH215865   2.696   6.726   1.705
 5311TIP3    H115866   2.660   6.648   1.753
 5311TIP3    H215867   2.744   6.684   1.632
 5312TIP3   OH215868   3.151   7.147   2.102
 5312TIP3    H115869   3.061   7.177   2.124
 5312TIP3    H215870   3.207   7.201   2.161
 5313TIP3   OH215871   2.890   7.513   1.215
 5313TIP3    H115872   2.811   7.455   1.201
 5313TIP3    H215873   2.866   7.558   1.299
 5314TIP3   OH215874   3.789   7.759   1.837
 5314TIP3    H115875   3.812   7.806   1.754
 5314TIP3    H215876   3.702   7.720   1.815
 5315TIP3   OH215877   3.347   6.836   1.078
 5315TIP3    H115878   3.250   6.819   1.081
 5315TIP3    H215879   3.354   6.932   1.095
 5316TIP3   OH215880   3.299   7.867   2.206
 5316TIP3    H115881   3.326   7.815   2.283
 5316TIP3    H215882   3.217   7.907   2.238
 5317TIP3   OH215883   3.416   7.087   1.176
 5317TIP3    H115884   3.513   7.094   1.186
 5317TIP3    H215885   3.395   7.165   1.121
 5318TIP3   OH215886   2.560   7.506   1.872
 5318TIP3    H115887   2.615   7.497   1.792
 5318TIP3    H215888   2.617   7.465   1.940
 5319TIP3   OH215889   2.999   7.698   1.047
 5319TIP3    H115890   2.959   7.768   1.103
 5319TIP3    H215891   2.964   7.619   1.095
 5320TIP3   OH215892   2.465   7.466   2.500
 5320TIP3    H115893   2.488   7.451   2.593
 5320TIP3    H215894   2.397   7.398   2.486
 5321TIP3   OH215895   3.187   7.574   2.522
 5321TIP3    H115896   3.122   7.518   2.477
 5321TIP3    H215897   3.272   7.532   2.495
 5322TIP3   OH215898   3.855   7.178   1.012
 5322TIP3    H115899   3.792   7.134   0.950
 5322TIP3    H215900   3.854   7.267   0.969
 5323TIP3   OH215901   4.074   8.013   2.096
 5323TIP3    H115902   3.978   8.027   2.086
 5323TIP3    H215903   4.100   8.004   2.001
 5324TIP3   OH215904   3.552   7.631   1.743
 5324TIP3    H115905   3.461   7.604   1.765
 5324TIP3    H215906   3.587   7.548   1.705
 5325TIP3   OH215907   2.243   7.158   1.210
 5325TIP3    H115908   2.293   7.239   1.233
 5325TIP3    H215909   2.169   7.163   1.275
 5326TIP3   OH215910   2.817   7.633   1.455
 5326TIP3    H115911   2.779   7.713   1.494
 5326TIP3    H215912   2.789   7.568   1.523
 5327TIP3   OH215913   3.344   7.829   1.935
 5327TIP3    H115914   3.330   7.843   2.031
 5327TIP3    H215915   3.430   7.787   1.932
 5328TIP3   OH215916   3.348   7.666   0.790
 5328TIP3    H115917   3.380   7.654   0.882
 5328TIP3    H215918   3.264   7.714   0.806
 5329TIP3   OH215919   2.674   6.973   2.504
 5329TIP3    H115920   2.578   6.976   2.522
 5329TIP3    H215921   2.706   6.919   2.578
 5330TIP3   OH215922   3.470   7.639   1.038
 5330TIP3    H115923   3.466   7.566   1.104
 5330TIP3    H215924   3.566   7.640   1.018
 5331TIP3   OH215925   2.660   7.658   0.863
 5331TIP3    H115926   2.699   7.572   0.835
 5331TIP3    H215927   2.697   7.669   0.951
 5332TIP3   OH215928   2.365   7.396   1.290
 5332TIP3    H115929   2.300   7.435   1.354
 5332TIP3    H215930   2.374   7.471   1.227
 5333TIP3   OH215931   3.527   7.027   2.171
 5333TIP3    H115932   3.586   7.078   2.227
 5333TIP3    H215933   3.501   6.952   2.230
 5334TIP3   OH215934   3.390   6.792   1.354
 5334TIP3    H115935   3.373   6.809   1.258
 5334TIP3    H215936   3.425   6.878   1.383
 5335TIP3   OH215937   3.080   6.969   1.455
 5335TIP3    H115938   3.143   7.041   1.437
 5335TIP3    H215939   3.083   6.964   1.553
 5336TIP3   OH215940   3.354   7.288   2.263
 5336TIP3    H115941   3.364   7.343   2.344
 5336TIP3    H215942   3.401   7.208   2.289
 5337TIP3   OH215943   3.223   6.698   1.560
 5337TIP3    H115944   3.205   6.778   1.612
 5337TIP3    H215945   3.283   6.734   1.490
 5338TIP3   OH215946   2.734   6.695   1.345
 5338TIP3    H115947   2.732   6.785   1.383
 5338TIP3    H215948   2.831   6.677   1.353
 5339TIP3   OH215949   3.987   7.186   2.252
 5339TIP3    H115950   3.889   7.186   2.250
 5339TIP3    H215951   4.009   7.174   2.158
 5340TIP3   OH215952   3.639   7.383   1.629
 5340TIP3    H115953   3.561   7.328   1.645
 5340TIP3    H215954   3.709   7.337   1.680
 5341TIP3   OH215955   2.353   7.612   1.106
 5341TIP3    H115956   2.383   7.705   1.098
 5341TIP3    H215957   2.411   7.567   1.041
 5342TIP3   OH215958   2.297   6.888   1.235
 5342TIP3    H115959   2.293   6.985   1.230
 5342TIP3    H215960   2.216   6.862   1.190
 5343TIP3   OH215961   2.684   6.607   2.106
 5343TIP3    H115962   2.653   6.573   2.020
 5343TIP3    H215963   2.674   6.529   2.164
 5344TIP3   OH215964   2.512   7.753   2.746
 5344TIP3    H115965   2.533   7.657   2.754
 5344TIP3    H215966   2.422   7.750   2.708
 5345TIP3   OH215967   2.489   7.418   0.962
 5345TIP3    H115968   2.542   7.382   1.035
 5345TIP3    H215969   2.557   7.422   0.892
 5346TIP3   OH215970   3.134   7.840   2.559
 5346TIP3    H115971   3.098   7.852   2.469
 5346TIP3    H215972   3.167   7.748   2.553
 5347TIP3   OH215973   2.935   7.597   0.771
 5347TIP3    H115974   2.973   7.617   0.858
 5347TIP3    H215975   2.968   7.506   0.756
 5348TIP3   OH215976   3.607   7.857   2.134
 5348TIP3    H115977   3.674   7.917   2.093
 5348TIP3    H215978   3.530   7.916   2.137
 5349TIP3   OH215979   2.638   7.498   2.741
 5349TIP3    H115980   2.719   7.450   2.719
 5349TIP3    H215981   2.661   7.534   2.829
 5350TIP3   OH215982   2.685   7.327   1.169
 5350TIP3    H115983   2.663   7.286   1.255
 5350TIP3    H215984   2.727   7.252   1.121
 5351TIP3   OH215985   2.965   7.399   2.394
 5351TIP3    H115986   2.888   7.459   2.399
 5351TIP3    H215987   3.015   7.435   2.317
 5352TIP3   OH215988   2.798   7.123   1.017
 5352TIP3    H115989   2.772   7.122   0.922
 5352TIP3    H215990   2.896   7.129   1.008
 5353TIP3   OH215991   3.484   7.783   2.534
 5353TIP3    H115992   3.572   7.770   2.496
 5353TIP3    H215993   3.484   7.721   2.609
 5354TIP3   OH215994   3.615   7.475   0.709
 5354TIP3    H115995   3.597   7.413   0.634
 5354TIP3    H215996   3.601   7.559   0.661
 5355TIP3   OH215997   3.032   7.171   2.543
 5355TIP3    H115998   3.101   7.112   2.508
 5355TIP3    H215999   3.025   7.241   2.475
 5356TIP3   OH216000   3.098   6.955   2.318
 5356TIP3    H116001   3.116   7.007   2.238
 5356TIP3    H216002   3.001   6.945   2.315
 5357TIP3   OH216003   3.118   7.507   2.200
 5357TIP3    H116004   3.201   7.519   2.152
 5357TIP3    H216005   3.061   7.576   2.160
 5358TIP3   OH216006   3.701   7.470   2.594
 5358TIP3    H116007   3.750   7.386   2.593
 5358TIP3    H216008   3.767   7.533   2.561
 5359TIP3   OH216009   3.740   7.718   2.323
 5359TIP3    H116010   3.683   7.773   2.264
 5359TIP3    H216011   3.828   7.740   2.284
 5360TIP3   OH216012   2.931   7.317   2.756
 5360TIP3    H116013   2.883   7.237   2.783
 5360TIP3    H216014   2.985   7.278   2.683
 5361TIP3   OH216015   3.228   6.731   2.406
 5361TIP3    H116016   3.181   6.814   2.380
 5361TIP3    H216017   3.157   6.665   2.400
 5362TIP3   OH216018   3.598   7.172   2.462
 5362TIP3    H116019   3.525   7.153   2.525
 5362TIP3    H216020   3.673   7.150   2.520
 5363TIP3   OH216021   3.825   7.128   2.623
 5363TIP3    H116022   3.831   7.031   2.638
 5363TIP3    H216023   3.816   7.162   2.715
 5364TIP3   OH216024   2.800   7.077   2.820
 5364TIP3    H116025   2.828   6.997   2.772
 5364TIP3    H216026   2.841   7.061   2.908
 5365TIP3   OH216027   3.286   6.699   2.680
 5365TIP3    H116028   3.370   6.652   2.669
 5365TIP3    H216029   3.268   6.727   2.589
 5366TIP3   OH216030   2.079   7.532   1.109
 5366TIP3    H116031   2.169   7.569   1.106
 5366TIP3    H216032   2.091   7.443   1.071
 5367TIP3   OH216033   3.962   8.146   2.368
 5367TIP3    H116034   3.889   8.128   2.431
 5367TIP3    H216035   4.006   8.221   2.411
 5368TIP3   OH216036   3.749   7.639   1.020
 5368TIP3    H116037   3.817   7.707   1.007
 5368TIP3    H216038   3.788   7.593   1.098
 5369TIP3   OH216039   3.880   7.510   1.219
 5369TIP3    H116040   3.817   7.464   1.279
 5369TIP3    H216041   3.949   7.541   1.280
 5370TIP3   OH216042   3.909   7.890   1.634
 5370TIP3    H116043   3.985   7.840   1.598
 5370TIP3    H216044   3.928   7.982   1.610
 5371TIP3   OH216045   3.825   7.417   0.870
 5371TIP3    H116046   3.752   7.419   0.803
 5371TIP3    H216047   3.796   7.491   0.925
 5372TIP3   OH216048   3.684   7.094   0.821
 5372TIP3    H116049   3.674   7.126   0.730
 5372TIP3    H216050   3.658   7.000   0.812
 5373TIP3   OH216051   3.696   7.363   1.361
 5373TIP3    H116052   3.704   7.267   1.352
 5373TIP3    H216053   3.682   7.375   1.458
 5374TIP3   OH216054   2.320   7.444   2.108
 5374TIP3    H116055   2.319   7.410   2.017
 5374TIP3    H216056   2.418   7.443   2.126
 5375TIP3   OH216057   3.982   7.784   2.220
 5375TIP3    H116058   4.056   7.720   2.210
 5375TIP3    H216059   4.011   7.858   2.164
 5376TIP3   OH216060   4.169   7.591   2.228
 5376TIP3    H116061   4.096   7.543   2.272
 5376TIP3    H216062   4.243   7.528   2.245
 5377TIP3   OH216063   3.629   6.829   0.809
 5377TIP3    H116064   3.708   6.792   0.854
 5377TIP3    H216065   3.561   6.761   0.823
 5378TIP3   OH216066   3.693   7.084   1.257
 5378TIP3    H116067   3.734   6.995   1.271
 5378TIP3    H216068   3.749   7.116   1.184
 5379TIP3   OH216069   3.848   7.246   1.750
 5379TIP3    H116070   3.935   7.274   1.709
 5379TIP3    H216071   3.861   7.288   1.838
 5380TIP3   OH216072   3.917   7.396   1.981
 5380TIP3    H116073   3.842   7.431   2.033
 5380TIP3    H216074   3.951   7.477   1.937
 5381TIP3   OH216075   2.534   7.119   2.774
 5381TIP3    H116076   2.632   7.118   2.782
 5381TIP3    H216077   2.513   7.036   2.821
 5382TIP3   OH216078   4.371   6.987   2.540
 5382TIP3    H116079   4.432   6.923   2.498
 5382TIP3    H216080   4.346   7.043   2.463
 5383TIP3   OH216081   3.796   6.831   1.304
 5383TIP3    H116082   3.873   6.792   1.347
 5383TIP3    H216083   3.735   6.754   1.296
 5384TIP3   OH216084   2.500   6.816   2.114
 5384TIP3    H116085   2.562   6.742   2.125
 5384TIP3    H216086   2.562   6.891   2.107
 5385TIP3   OH216087   2.300   7.090   2.185
 5385TIP3    H116088   2.351   7.085   2.102
 5385TIP3    H216089   2.333   7.172   2.223
 5386TIP3   OH216090   4.244   7.128   2.345
 5386TIP3    H116091   4.158   7.167   2.369
 5386TIP3    H216092   4.214   7.056   2.286
 5387TIP3   OH216093   3.880   6.765   0.929
 5387TIP3    H116094   3.915   6.692   0.872
 5387TIP3    H216095   3.948   6.833   0.919
 5388TIP3   OH216096   2.286   6.593   1.688
 5388TIP3    H116097   2.193   6.589   1.715
 5388TIP3    H216098   2.283   6.651   1.609
 5389TIP3   OH216099   2.505   6.670   2.500
 5389TIP3    H116100   2.457   6.669   2.585
 5389TIP3    H216101   2.438   6.710   2.441
 5390TIP3   OH216102   4.144   6.886   2.222
 5390TIP3    H116103   4.051   6.866   2.203
 5390TIP3    H216104   4.183   6.796   2.211
 5391TIP3   OH216105   3.354   6.803   1.850
 5391TIP3    H116106   3.300   6.744   1.906
 5391TIP3    H216107   3.404   6.739   1.798
 5392TIP3   OH216108   2.596   6.514   1.857
 5392TIP3    H116109   2.504   6.480   1.859
 5392TIP3    H216110   2.645   6.429   1.855
 5393TIP3   OH216111   2.383   6.385   1.508
 5393TIP3    H116112   2.413   6.442   1.435
 5393TIP3    H216113   2.355   6.451   1.575
 5394TIP3   OH216114   3.041   6.548   1.739
 5394TIP3    H116115   3.101   6.598   1.682
 5394TIP3    H216116   3.062   6.583   1.827
 5395TIP3   OH216117   3.644   6.694   1.716
 5395TIP3    H116118   3.607   6.655   1.635
 5395TIP3    H216119   3.614   6.626   1.781
 5396TIP3   OH216120   3.617   6.618   1.288
 5396TIP3    H116121   3.529   6.659   1.297
 5396TIP3    H216122   3.601   6.531   1.331
 5397TIP3   OH216123   2.501   6.545   1.269
 5397TIP3    H116124   2.548   6.480   1.213
 5397TIP3    H216125   2.575   6.597   1.305
 5398TIP3   OH216126   3.012   6.720   1.368
 5398TIP3    H116127   3.069   6.670   1.429
 5398TIP3    H216128   3.034   6.812   1.394
 5399TIP3   OH216129   2.804   6.785   2.741
 5399TIP3    H116130   2.771   6.721   2.806
 5399TIP3    H216131   2.897   6.794   2.770
 5400TIP3   OH216132   3.053   6.798   2.864
 5400TIP3    H116133   3.136   6.781   2.814
 5400TIP3    H216134   3.050   6.721   2.924
 5401TIP3   OH216135   3.877   6.857   2.657
 5401TIP3    H116136   3.893   6.827   2.749
 5401TIP3    H216137   3.967   6.850   2.619
 5402TIP3   OH216138   5.072   7.776   0.929
 5402TIP3    H116139   5.050   7.862   0.888
 5402TIP3    H216140   5.012   7.718   0.879
 5403TIP3   OH216141   5.079   7.784   1.301
 5403TIP3    H116142   5.116   7.748   1.384
 5403TIP3    H216143   5.047   7.703   1.257
 5404TIP3   OH216144   4.378   7.674   1.661
 5404TIP3    H116145   4.407   7.607   1.725
 5404TIP3    H216146   4.457   7.730   1.657
 5405TIP3   OH216147   5.302   8.082   0.985
 5405TIP3    H116148   5.311   7.996   1.028
 5405TIP3    H216149   5.349   8.140   1.046
 5406TIP3   OH216150   4.407   8.032   1.447
 5406TIP3    H116151   4.390   7.938   1.431
 5406TIP3    H216152   4.493   8.045   1.400
 5407TIP3   OH216153   4.056   7.287   1.171
 5407TIP3    H116154   4.007   7.370   1.181
 5407TIP3    H216155   3.988   7.232   1.128
 5408TIP3   OH216156   4.120   7.574   1.344
 5408TIP3    H116157   4.161   7.494   1.383
 5408TIP3    H216158   4.186   7.599   1.279
 5409TIP3   OH216159   4.894   7.997   1.343
 5409TIP3    H116160   4.941   7.918   1.309
 5409TIP3    H216161   4.973   8.052   1.365
 5410TIP3   OH216162   5.893   7.325   1.341
 5410TIP3    H116163   5.925   7.410   1.376
 5410TIP3    H216164   5.915   7.334   1.246
 5411TIP3   OH216165   5.290   7.505   1.378
 5411TIP3    H116166   5.338   7.422   1.397
 5411TIP3    H216167   5.265   7.490   1.285
 5412TIP3   OH216168   4.629   7.167   1.343
 5412TIP3    H116169   4.614   7.239   1.278
 5412TIP3    H216170   4.585   7.092   1.297
 5413TIP3   OH216171   5.323   7.265   0.958
 5413TIP3    H116172   5.394   7.243   1.023
 5413TIP3    H216173   5.378   7.287   0.881
 5414TIP3   OH216174   4.263   7.368   1.450
 5414TIP3    H116175   4.347   7.349   1.496
 5414TIP3    H216176   4.276   7.313   1.369
 5415TIP3   OH216177   4.703   7.569   1.243
 5415TIP3    H116178   4.798   7.544   1.255
 5415TIP3    H216179   4.666   7.484   1.211
 5416TIP3   OH216180   5.973   7.539   1.509
 5416TIP3    H116181   5.887   7.581   1.488
 5416TIP3    H216182   5.967   7.537   1.605
 5417TIP3   OH216183   4.628   7.150   1.775
 5417TIP3    H116184   4.567   7.186   1.707
 5417TIP3    H216185   4.576   7.167   1.856
 5418TIP3   OH216186   4.963   7.977   0.754
 5418TIP3    H116187   4.880   7.932   0.740
 5418TIP3    H216188   4.932   8.062   0.791
 5419TIP3   OH216189   4.729   7.927   1.566
 5419TIP3    H116190   4.671   7.995   1.606
 5419TIP3    H216191   4.775   7.977   1.496
 5420TIP3   OH216192   5.524   7.265   1.142
 5420TIP3    H116193   5.545   7.197   1.207
 5420TIP3    H216194   5.590   7.334   1.160
 5421TIP3   OH216195   4.496   7.265   1.560
 5421TIP3    H116196   4.559   7.337   1.583
 5421TIP3    H216197   4.545   7.223   1.486
 5422TIP3   OH216198   4.563   8.139   1.673
 5422TIP3    H116199   4.515   8.148   1.590
 5422TIP3    H216200   4.486   8.133   1.736
 5423TIP3   OH216201   3.968   7.791   0.927
 5423TIP3    H116202   3.917   7.762   0.850
 5423TIP3    H216203   3.972   7.887   0.906
 5424TIP3   OH216204   5.687   7.231   1.511
 5424TIP3    H116205   5.598   7.251   1.476
 5424TIP3    H216206   5.745   7.258   1.437
 5425TIP3   OH216207   4.982   6.865   1.487
 5425TIP3    H116208   4.971   6.770   1.508
 5425TIP3    H216209   4.905   6.903   1.536
 5426TIP3   OH216210   5.620   8.248   1.484
 5426TIP3    H116211   5.613   8.163   1.436
 5426TIP3    H216212   5.564   8.306   1.431
 5427TIP3   OH216213   4.922   7.635   0.739
 5427TIP3    H116214   4.837   7.681   0.723
 5427TIP3    H216215   4.957   7.632   0.649
 5428TIP3   OH216216   5.816   7.878   1.336
 5428TIP3    H116217   5.732   7.929   1.343
 5428TIP3    H216218   5.838   7.893   1.242
 5429TIP3   OH216219   5.259   7.724   0.730
 5429TIP3    H116220   5.209   7.743   0.811
 5429TIP3    H216221   5.344   7.691   0.767
 5430TIP3   OH216222   5.497   7.752   1.630
 5430TIP3    H116223   5.493   7.835   1.681
 5430TIP3    H216224   5.410   7.755   1.585
 5431TIP3   OH216225   4.497   7.719   1.128
 5431TIP3    H116226   4.454   7.656   1.065
 5431TIP3    H216227   4.573   7.665   1.159
 5432TIP3   OH216228   4.625   8.080   1.297
 5432TIP3    H116229   4.660   8.030   1.223
 5432TIP3    H216230   4.707   8.120   1.331
 5433TIP3   OH216231   4.620   7.688   1.483
 5433TIP3    H116232   4.662   7.660   1.399
 5433TIP3    H216233   4.670   7.770   1.505
 5434TIP3   OH216234   4.808   8.143   1.809
 5434TIP3    H116235   4.779   8.232   1.838
 5434TIP3    H216236   4.728   8.116   1.760
 5435TIP3   OH216237   4.522   7.797   1.910
 5435TIP3    H116238   4.529   7.883   1.956
 5435TIP3    H216239   4.429   7.775   1.927
 5436TIP3   OH216240   4.352   7.556   0.953
 5436TIP3    H116241   4.291   7.590   0.884
 5436TIP3    H216242   4.332   7.461   0.950
 5437TIP3   OH216243   4.160   7.936   1.847
 5437TIP3    H116244   4.090   7.907   1.787
 5437TIP3    H216245   4.195   7.851   1.882
 5438TIP3   OH216246   5.753   7.716   1.806
 5438TIP3    H116247   5.669   7.726   1.758
 5438TIP3    H216248   5.769   7.620   1.796
 5439TIP3   OH216249   4.351   8.137   1.846
 5439TIP3    H116250   4.402   8.103   1.922
 5439TIP3    H216251   4.277   8.071   1.842
 5440TIP3   OH216252   4.744   6.943   1.621
 5440TIP3    H116253   4.655   6.913   1.593
 5440TIP3    H216254   4.719   7.026   1.667
 5441TIP3   OH216255   5.280   7.060   1.814
 5441TIP3    H116256   5.350   7.031   1.876
 5441TIP3    H216257   5.198   7.037   1.862
 5442TIP3   OH216258   5.521   7.490   1.735
 5442TIP3    H116259   5.470   7.485   1.819
 5442TIP3    H216260   5.493   7.576   1.698
 5443TIP3   OH216261   4.893   7.008   0.590
 5443TIP3    H116262   4.862   6.989   0.680
 5443TIP3    H216263   4.871   6.925   0.544
 5444TIP3   OH216264   4.673   7.463   1.634
 5444TIP3    H116265   4.628   7.484   1.718
 5444TIP3    H216266   4.655   7.545   1.582
 5445TIP3   OH216267   4.558   7.349   1.152
 5445TIP3    H116268   4.467   7.317   1.169
 5445TIP3    H216269   4.575   7.307   1.064
 5446TIP3   OH216270   5.047   7.436   0.881
 5446TIP3    H116271   4.993   7.505   0.835
 5446TIP3    H216272   5.120   7.425   0.819
 5447TIP3   OH216273   5.229   7.707   1.964
 5447TIP3    H116274   5.205   7.635   2.026
 5447TIP3    H216275   5.323   7.721   1.987
 5448TIP3   OH216276   5.209   7.462   1.117
 5448TIP3    H116277   5.148   7.486   1.045
 5448TIP3    H216278   5.249   7.382   1.075
 5449TIP3   OH216279   4.492   7.490   1.847
 5449TIP3    H116280   4.530   7.551   1.912
 5449TIP3    H216281   4.486   7.407   1.898
 5450TIP3   OH216282   4.524   6.935   0.575
 5450TIP3    H116283   4.528   6.948   0.672
 5450TIP3    H216284   4.496   7.022   0.544
 5451TIP3   OH216285   4.072   6.995   1.445
 5451TIP3    H116286   4.152   7.030   1.488
 5451TIP3    H216287   4.107   6.958   1.362
 5452TIP3   OH216288   4.060   6.992   0.947
 5452TIP3    H116289   4.107   7.027   0.869
 5452TIP3    H216290   3.999   7.066   0.965
 5453TIP3   OH216291   5.220   7.706   1.540
 5453TIP3    H116292   5.252   7.634   1.482
 5453TIP3    H216293   5.191   7.653   1.618
 5454TIP3   OH216294   4.890   7.175   1.215
 5454TIP3    H116295   4.812   7.166   1.274
 5454TIP3    H216296   4.964   7.159   1.276
 5455TIP3   OH216297   4.322   7.224   1.222
 5455TIP3    H116298   4.228   7.226   1.193
 5455TIP3    H216299   4.349   7.133   1.199
 5456TIP3   OH216300   4.591   7.224   0.910
 5456TIP3    H116301   4.688   7.231   0.898
 5456TIP3    H216302   4.555   7.252   0.824
 5457TIP3   OH216303   5.385   7.248   1.427
 5457TIP3    H116304   5.339   7.255   1.513
 5457TIP3    H216305   5.328   7.186   1.379
 5458TIP3   OH216306   4.413   7.277   0.694
 5458TIP3    H116307   4.341   7.221   0.662
 5458TIP3    H216308   4.483   7.255   0.628
 5459TIP3   OH216309   4.511   8.043   2.053
 5459TIP3    H116310   4.590   8.070   2.105
 5459TIP3    H216311   4.446   8.032   2.125
 5460TIP3   OH216312   4.970   7.499   1.309
 5460TIP3    H116313   5.041   7.459   1.255
 5460TIP3    H216314   4.981   7.452   1.394
 5461TIP3   OH216315   4.492   6.986   1.188
 5461TIP3    H116316   4.463   6.905   1.235
 5461TIP3    H216317   4.542   6.949   1.114
 5462TIP3   OH216318   4.946   7.393   1.602
 5462TIP3    H116319   4.857   7.431   1.615
 5462TIP3    H216320   5.005   7.453   1.651
 5463TIP3   OH216321   4.698   7.785   0.700
 5463TIP3    H116322   4.625   7.722   0.683
 5463TIP3    H216323   4.671   7.821   0.787
 5464TIP3   OH216324   5.582   8.022   1.328
 5464TIP3    H116325   5.610   8.064   1.244
 5464TIP3    H216326   5.500   7.975   1.302
 5465TIP3   OH216327   5.098   8.124   1.693
 5465TIP3    H116328   5.125   8.071   1.769
 5465TIP3    H216329   5.016   8.163   1.726
 5466TIP3   OH216330   4.357   7.780   1.356
 5466TIP3    H116331   4.410   7.755   1.278
 5466TIP3    H216332   4.400   7.726   1.425
 5467TIP3   OH216333   4.261   7.722   1.986
 5467TIP3    H116334   4.283   7.710   2.081
 5467TIP3    H216335   4.191   7.655   1.975
 5468TIP3   OH216336   4.988   7.831   2.008
 5468TIP3    H116337   4.928   7.779   1.952
 5468TIP3    H216338   5.076   7.798   1.978
 5469TIP3   OH216339   5.875   8.279   1.581
 5469TIP3    H116340   5.778   8.288   1.569
 5469TIP3    H216341   5.901   8.261   1.488
 5470TIP3   OH216342   5.351   7.887   1.238
 5470TIP3    H116343   5.259   7.860   1.254
 5470TIP3    H216344   5.387   7.803   1.199
 5471TIP3   OH216345   4.050   7.407   0.707
 5471TIP3    H116346   4.093   7.493   0.725
 5471TIP3    H216347   3.969   7.415   0.761
 5472TIP3   OH216348   4.631   7.878   0.944
 5472TIP3    H116349   4.599   7.968   0.948
 5472TIP3    H216350   4.586   7.829   1.015
 5473TIP3   OH216351   5.139   8.093   1.419
 5473TIP3    H116352   5.128   8.099   1.516
 5473TIP3    H216353   5.215   8.034   1.410
 5474TIP3   OH216354   4.472   7.232   1.993
 5474TIP3    H116355   4.377   7.231   2.010
 5474TIP3    H216356   4.506   7.174   2.064
 5475TIP3   OH216357   4.159   7.656   0.782
 5475TIP3    H116358   4.107   7.702   0.850
 5475TIP3    H216359   4.177   7.728   0.719
 5476TIP3   OH216360   5.298   7.303   1.685
 5476TIP3    H116361   5.386   7.333   1.712
 5476TIP3    H216362   5.289   7.218   1.733
 5477TIP3   OH216363   5.160   7.064   0.844
 5477TIP3    H116364   5.160   7.081   0.749
 5477TIP3    H216365   5.228   7.127   0.877
 5478TIP3   OH216366   4.867   7.231   0.943
 5478TIP3    H116367   4.937   7.296   0.922
 5478TIP3    H216368   4.880   7.219   1.040
 5479TIP3   OH216369   5.143   7.544   1.747
 5479TIP3    H116370   5.171   7.592   1.827
 5479TIP3    H216371   5.197   7.463   1.751
 5480TIP3   OH216372   5.017   6.950   1.044
 5480TIP3    H116373   5.022   7.023   1.107
 5480TIP3    H216374   5.073   6.988   0.971
 5481TIP3   OH216375   4.530   6.956   0.849
 5481TIP3    H116376   4.535   7.048   0.882
 5481TIP3    H216377   4.625   6.933   0.849
 5482TIP3   OH216378   5.787   7.446   1.719
 5482TIP3    H116379   5.689   7.450   1.734
 5482TIP3    H216380   5.787   7.386   1.643
 5483TIP3   OH216381   5.435   7.645   1.130
 5483TIP3    H116382   5.363   7.580   1.126
 5483TIP3    H216383   5.508   7.592   1.170
 5484TIP3   OH216384   4.162   7.869   0.602
 5484TIP3    H116385   4.187   7.964   0.611
 5484TIP3    H216386   4.162   7.861   0.507
 5485TIP3   OH216387   4.099   7.140   0.721
 5485TIP3    H116388   4.093   7.238   0.722
 5485TIP3    H216389   4.021   7.116   0.671
 5486TIP3   OH216390   4.476   6.865   1.597
 5486TIP3    H116391   4.450   6.831   1.508
 5486TIP3    H216392   4.468   6.785   1.653
 5487TIP3   OH216393   4.309   8.009   2.231
 5487TIP3    H116394   4.329   7.914   2.241
 5487TIP3    H216395   4.218   8.007   2.196
 5488TIP3   OH216396   4.931   8.096   2.046
 5488TIP3    H116397   4.895   8.108   1.955
 5488TIP3    H216398   4.965   8.005   2.040
 5489TIP3   OH216399   5.408   8.115   1.624
 5489TIP3    H116400   5.469   8.179   1.586
 5489TIP3    H216401   5.324   8.163   1.624
 5490TIP3   OH216402   4.430   7.756   2.229
 5490TIP3    H116403   4.509   7.704   2.210
 5490TIP3    H216404   4.454   7.793   2.318
 5491TIP3   OH216405   4.508   7.583   0.676
 5491TIP3    H116406   4.471   7.526   0.746
 5491TIP3    H216407   4.536   7.517   0.610
 5492TIP3   OH216408   4.755   7.645   1.884
 5492TIP3    H116409   4.682   7.710   1.891
 5492TIP3    H216410   4.809   7.682   1.811
 5493TIP3   OH216411   5.281   8.041   2.021
 5493TIP3    H116412   5.366   8.021   1.979
 5493TIP3    H216413   5.280   7.978   2.095
 5494TIP3   OH216414   4.882   7.438   2.016
 5494TIP3    H116415   4.886   7.358   1.960
 5494TIP3    H216416   4.839   7.503   1.957
 5495TIP3   OH216417   4.886   7.225   1.824
 5495TIP3    H116418   4.916   7.265   1.740
 5495TIP3    H216419   4.794   7.201   1.804
 5496TIP3   OH216420   4.909   7.763   1.698
 5496TIP3    H116421   4.992   7.763   1.649
 5496TIP3    H216422   4.856   7.831   1.651
 5497TIP3   OH216423   5.495   7.727   2.077
 5497TIP3    H116424   5.541   7.642   2.086
 5497TIP3    H216425   5.566   7.785   2.045
 5498TIP3   OH216426   5.538   7.977   1.815
 5498TIP3    H116427   5.482   8.030   1.754
 5498TIP3    H216428   5.626   7.996   1.774
 5499TIP3   OH216429   4.760   7.549   2.245
 5499TIP3    H116430   4.693   7.480   2.261
 5499TIP3    H216431   4.797   7.521   2.159
 5500TIP3   OH216432   5.020   6.989   1.892
 5500TIP3    H116433   4.971   7.071   1.869
 5500TIP3    H216434   4.951   6.920   1.879
 5501TIP3   OH216435   5.144   7.493   2.107
 5501TIP3    H116436   5.133   7.479   2.203
 5501TIP3    H216437   5.054   7.467   2.077
 5502TIP3   OH216438   5.386   7.445   1.964
 5502TIP3    H116439   5.309   7.442   2.025
 5502TIP3    H216440   5.459   7.411   2.020
 5503TIP3   OH216441   5.617   7.384   2.113
 5503TIP3    H116442   5.628   7.288   2.129
 5503TIP3    H216443   5.611   7.420   2.203
 5504TIP3   OH216444   4.600   7.328   2.301
 5504TIP3    H116445   4.608   7.237   2.268
 5504TIP3    H216446   4.637   7.318   2.391
 5505TIP3   OH216447   5.112   6.998   2.150
 5505TIP3    H116448   5.180   6.928   2.145
 5505TIP3    H216449   5.074   6.992   2.060
 5506TIP3   OH216450   5.179   7.213   2.307
 5506TIP3    H116451   5.158   7.141   2.243
 5506TIP3    H216452   5.100   7.271   2.300
 5507TIP3   OH216453   3.883   7.795   0.604
 5507TIP3    H116454   3.979   7.810   0.610
 5507TIP3    H216455   3.878   7.699   0.586
 5508TIP3   OH216456   5.755   8.403   1.853
 5508TIP3    H116457   5.684   8.386   1.920
 5508TIP3    H216458   5.804   8.475   1.895
 5509TIP3   OH216459   5.724   8.146   1.128
 5509TIP3    H116460   5.787   8.083   1.087
 5509TIP3    H216461   5.693   8.197   1.053
 5510TIP3   OH216462   5.470   7.608   0.851
 5510TIP3    H116463   5.496   7.516   0.832
 5510TIP3    H216464   5.483   7.617   0.946
 5511TIP3   OH216465   4.117   7.711   1.591
 5511TIP3    H116466   4.117   7.668   1.504
 5511TIP3    H216467   4.213   7.706   1.614
 5512TIP3   OH216468   5.779   8.043   1.705
 5512TIP3    H116469   5.852   7.978   1.697
 5512TIP3    H216470   5.810   8.116   1.649
 5513TIP3   OH216471   5.971   7.852   1.720
 5513TIP3    H116472   5.894   7.804   1.757
 5513TIP3    H216473   6.041   7.784   1.738
 5514TIP3   OH216474   5.483   7.328   0.734
 5514TIP3    H116475   5.510   7.239   0.768
 5514TIP3    H216476   5.566   7.345   0.685
 5515TIP3   OH216477   5.650   7.514   1.239
 5515TIP3    H116478   5.737   7.538   1.199
 5515TIP3    H216479   5.665   7.545   1.330
 5516TIP3   OH216480   5.720   7.655   1.472
 5516TIP3    H116481   5.641   7.687   1.521
 5516TIP3    H216482   5.750   7.736   1.427
 5517TIP3   OH216483   4.333   7.375   2.258
 5517TIP3    H116484   4.430   7.373   2.267
 5517TIP3    H216485   4.310   7.293   2.306
 5518TIP3   OH216486   6.173   7.247   2.025
 5518TIP3    H116487   6.229   7.177   1.983
 5518TIP3    H216488   6.146   7.299   1.946
 5519TIP3   OH216489   5.546   7.090   0.830
 5519TIP3    H116490   5.632   7.069   0.868
 5519TIP3    H216491   5.511   7.001   0.808
 5520TIP3   OH216492   4.291   7.074   1.611
 5520TIP3    H116493   4.354   6.998   1.614
 5520TIP3    H216494   4.354   7.147   1.596
 5521TIP3   OH216495   4.093   7.345   1.671
 5521TIP3    H116496   4.145   7.339   1.589
 5521TIP3    H216497   4.130   7.423   1.713
 5522TIP3   OH216498   6.041   7.386   1.827
 5522TIP3    H116499   5.952   7.422   1.847
 5522TIP3    H216500   6.015   7.310   1.772
 5523TIP3   OH216501   4.082   6.855   1.178
 5523TIP3    H116502   3.986   6.852   1.188
 5523TIP3    H216503   4.090   6.910   1.097
 5524TIP3   OH216504   4.304   6.937   1.992
 5524TIP3    H116505   4.252   6.927   2.074
 5524TIP3    H216506   4.237   6.969   1.930
 5525TIP3   OH216507   5.940   7.143   1.711
 5525TIP3    H116508   5.850   7.129   1.678
 5525TIP3    H216509   5.977   7.053   1.701
 5526TIP3   OH216510   5.135   7.060   1.321
 5526TIP3    H116511   5.101   6.988   1.376
 5526TIP3    H216512   5.215   7.020   1.281
 5527TIP3   OH216513   5.661   6.959   1.247
 5527TIP3    H116514   5.702   6.997   1.166
 5527TIP3    H216515   5.566   6.964   1.227
 5528TIP3   OH216516   5.766   7.039   1.010
 5528TIP3    H116517   5.837   6.992   0.963
 5528TIP3    H216518   5.792   7.133   0.991
 5529TIP3   OH216519   4.392   6.772   1.348
 5529TIP3    H116520   4.299   6.745   1.343
 5529TIP3    H216521   4.439   6.686   1.344
 5530TIP3   OH216522   4.187   6.641   0.997
 5530TIP3    H116523   4.215   6.693   0.919
 5530TIP3    H216524   4.156   6.710   1.058
 5531TIP3   OH216525   4.834   6.808   1.229
 5531TIP3    H116526   4.891   6.850   1.163
 5531TIP3    H216527   4.873   6.840   1.312
 5532TIP3   OH216528   5.378   6.952   1.209
 5532TIP3    H116529   5.384   6.920   1.118
 5532TIP3    H216530   5.367   6.868   1.260
 5533TIP3   OH216531   5.406   6.859   0.822
 5533TIP3    H116532   5.335   6.875   0.759
 5533TIP3    H216533   5.392   6.766   0.849
 5534TIP3   OH216534   4.295   6.802   0.764
 5534TIP3    H116535   4.339   6.740   0.702
 5534TIP3    H216536   4.372   6.853   0.797
 5535TIP3   OH216537   4.806   6.976   0.858
 5535TIP3    H116538   4.870   6.929   0.914
 5535TIP3    H216539   4.831   7.068   0.879
 5536TIP3   OH216540   4.600   7.051   2.235
 5536TIP3    H116541   4.567   6.981   2.293
 5536TIP3    H216542   4.695   7.052   2.261
 5537TIP3   OH216543   4.849   7.049   2.354
 5537TIP3    H116544   4.934   7.025   2.315
 5537TIP3    H216545   4.838   6.979   2.421
 5538TIP3   OH216546   5.674   7.113   2.143
 5538TIP3    H116547   5.694   7.081   2.234
 5538TIP3    H216548   5.762   7.107   2.101
 5539TIP3   OH216549   6.171   7.932   1.144
 5539TIP3    H116550   6.222   7.880   1.208
 5539TIP3    H216551   6.240   7.961   1.081
 5540TIP3   OH216552   6.056   7.626   0.946
 5540TIP3    H116553   6.143   7.591   0.972
 5540TIP3    H216554   6.031   7.570   0.872
 5541TIP3   OH216555   6.416   7.403   1.269
 5541TIP3    H116556   6.354   7.435   1.201
 5541TIP3    H216557   6.360   7.413   1.349
 5542TIP3   OH216558   6.302   7.513   1.033
 5542TIP3    H116559   6.359   7.588   1.061
 5542TIP3    H216560   6.358   7.470   0.967
 5543TIP3   OH216561   6.784   7.124   0.999
 5543TIP3    H116562   6.765   7.028   1.002
 5543TIP3    H216563   6.697   7.160   1.026
 5544TIP3   OH216564   6.283   8.061   1.402
 5544TIP3    H116565   6.271   8.138   1.459
 5544TIP3    H216566   6.192   8.025   1.407
 5545TIP3   OH216567   5.930   8.196   1.332
 5545TIP3    H116568   5.868   8.172   1.261
 5545TIP3    H216569   5.970   8.111   1.357
 5546TIP3   OH216570   6.534   7.214   1.100
 5546TIP3    H116571   6.448   7.173   1.077
 5546TIP3    H216572   6.503   7.280   1.165
 5547TIP3   OH216573   7.048   7.285   1.329
 5547TIP3    H116574   7.083   7.308   1.415
 5547TIP3    H216575   6.952   7.275   1.349
 5548TIP3   OH216576   6.462   7.713   1.125
 5548TIP3    H116577   6.411   7.738   1.205
 5548TIP3    H216578   6.480   7.798   1.083
 5549TIP3   OH216579   6.309   7.751   1.347
 5549TIP3    H116580   6.285   7.812   1.418
 5549TIP3    H216581   6.287   7.664   1.388
 5550TIP3   OH216582   5.867   7.277   0.937
 5550TIP3    H116583   5.960   7.295   0.953
 5550TIP3    H216584   5.855   7.283   0.840
 5551TIP3   OH216585   6.036   7.975   1.475
 5551TIP3    H116586   6.041   7.949   1.570
 5551TIP3    H216587   5.961   7.919   1.445
 5552TIP3   OH216588   6.261   7.491   1.481
 5552TIP3    H116589   6.164   7.493   1.491
 5552TIP3    H216590   6.286   7.426   1.549
 5553TIP3   OH216591   6.278   7.123   1.091
 5553TIP3    H116592   6.244   7.090   1.004
 5553TIP3    H216593   6.266   7.043   1.147
 5554TIP3   OH216594   6.119   8.272   1.705
 5554TIP3    H116595   6.147   8.178   1.701
 5554TIP3    H216596   6.027   8.267   1.671
 5555TIP3   OH216597   6.237   8.023   1.711
 5555TIP3    H116598   6.287   7.941   1.707
 5555TIP3    H216599   6.250   8.050   1.804
 5556TIP3   OH216600   6.658   7.711   1.496
 5556TIP3    H116601   6.691   7.621   1.478
 5556TIP3    H216602   6.590   7.721   1.429
 5557TIP3   OH216603   6.664   7.502   1.285
 5557TIP3    H116604   6.640   7.533   1.196
 5557TIP3    H216605   6.578   7.459   1.307
 5558TIP3   OH216606   6.562   7.804   1.737
 5558TIP3    H116607   6.493   7.735   1.751
 5558TIP3    H216608   6.598   7.778   1.649
 5559TIP3   OH216609   6.787   7.255   1.391
 5559TIP3    H116610   6.732   7.326   1.355
 5559TIP3    H216611   6.728   7.176   1.377
 5560TIP3   OH216612   6.403   7.587   1.786
 5560TIP3    H116613   6.400   7.494   1.753
 5560TIP3    H216614   6.436   7.571   1.877
 5561TIP3   OH216615   6.915   7.256   1.635
 5561TIP3    H116616   6.980   7.183   1.625
 5561TIP3    H216617   6.861   7.245   1.554
 5562TIP3   OH216618   6.993   7.468   1.792
 5562TIP3    H116619   6.965   7.398   1.729
 5562TIP3    H216620   6.917   7.530   1.788
 5563TIP3   OH216621   5.911   7.952   1.074
 5563TIP3    H116622   5.919   7.898   0.994
 5563TIP3    H216623   6.006   7.954   1.102
 5564TIP3   OH216624   6.138   7.644   1.771
 5564TIP3    H116625   6.234   7.630   1.765
 5564TIP3    H216626   6.109   7.555   1.799
 5565TIP3   OH216627   6.099   7.334   1.099
 5565TIP3    H116628   6.154   7.253   1.105
 5565TIP3    H216629   6.166   7.402   1.083
 5566TIP3   OH216630   5.895   7.608   1.168
 5566TIP3    H116631   5.940   7.592   1.083
 5566TIP3    H216632   5.938   7.690   1.195
 5567TIP3   OH216633   6.099   7.197   1.481
 5567TIP3    H116634   6.046   7.179   1.560
 5567TIP3    H216635   6.030   7.226   1.418
 5568TIP3   OH216636   6.186   7.031   0.856
 5568TIP3    H116637   6.093   7.005   0.839
 5568TIP3    H216638   6.232   6.949   0.832
 5569TIP3   OH216639   6.394   7.320   1.732
 5569TIP3    H116640   6.360   7.238   1.771
 5569TIP3    H216641   6.489   7.312   1.756
 5570TIP3   OH216642   6.647   7.309   1.844
 5570TIP3    H116643   6.730   7.277   1.805
 5570TIP3    H216644   6.630   7.241   1.912
 5571TIP3   OH216645   1.842   0.502   5.748
 5571TIP3    H116646   1.816   0.438   5.814
 5571TIP3    H216647   1.866   0.579   5.802
 5572TIP3   OH216648   1.483   0.969   5.767
 5572TIP3    H116649   1.538   0.909   5.712
 5572TIP3    H216650   1.481   0.923   5.851
 5573TIP3   OH216651   2.437  -0.065   6.296
 5573TIP3    H116652   2.363  -0.002   6.278
 5573TIP3    H216653   2.501  -0.011   6.343
 5574TIP3   OH216654   1.527   0.433   5.520
 5574TIP3    H116655   1.456   0.370   5.497
 5574TIP3    H216656   1.474   0.498   5.569
 5575TIP3   OH216657   1.901   0.738   5.921
 5575TIP3    H116658   1.807   0.734   5.951
 5575TIP3    H216659   1.898   0.819   5.867
 5576TIP3   OH216660   1.656   0.804   5.627
 5576TIP3    H116661   1.686   0.719   5.587
 5576TIP3    H216662   1.684   0.867   5.558
 5577TIP3   OH216663   1.758   0.583   5.493
 5577TIP3    H116664   1.691   0.516   5.469
 5577TIP3    H216665   1.797   0.540   5.572
 5578TIP3   OH216666   2.127   0.655   6.258
 5578TIP3    H116667   2.122   0.577   6.197
 5578TIP3    H216668   2.117   0.729   6.195
 5579TIP3   OH216669   2.323   0.292   6.103
 5579TIP3    H116670   2.242   0.348   6.105
 5579TIP3    H216671   2.356   0.310   6.012
 5580TIP3   OH216672   1.765   0.155   5.496
 5580TIP3    H116673   1.701   0.141   5.567
 5580TIP3    H216674   1.843   0.106   5.527
 5581TIP3   OH216675   1.651   0.759   6.017
 5581TIP3    H116676   1.638   0.840   6.070
 5581TIP3    H216677   1.644   0.687   6.083
 5582TIP3   OH216678   1.378   0.745   5.537
 5582TIP3    H116679   1.425   0.739   5.621
 5582TIP3    H216680   1.305   0.683   5.551
 5583TIP3   OH216681   1.925   0.595   4.910
 5583TIP3    H116682   1.934   0.692   4.895
 5583TIP3    H216683   2.017   0.565   4.897
 5584TIP3   OH216684   2.363   0.999   6.300
 5584TIP3    H116685   2.368   0.903   6.316
 5584TIP3    H216686   2.282   1.021   6.351
 5585TIP3   OH216687   1.504   0.816   6.404
 5585TIP3    H116688   1.489   0.899   6.454
 5585TIP3    H216689   1.429   0.761   6.438
 5586TIP3   OH216690   1.197   0.922   5.371
 5586TIP3    H116691   1.178   0.922   5.277
 5586TIP3    H216692   1.193   1.015   5.399
 5587TIP3   OH216693   1.436   0.813   5.032
 5587TIP3    H116694   1.495   0.743   4.997
 5587TIP3    H216695   1.468   0.822   5.124
 5588TIP3   OH216696   1.477   0.867   5.305
 5588TIP3    H116697   1.392   0.872   5.356
 5588TIP3    H216698   1.521   0.803   5.363
 5589TIP3   OH216699   2.264   0.119   6.578
 5589TIP3    H116700   2.177   0.158   6.563
 5589TIP3    H216701   2.247   0.025   6.564
 5590TIP3   OH216702   1.670   0.060   5.045
 5590TIP3    H116703   1.651   0.007   4.966
 5590TIP3    H216704   1.762   0.087   5.031
 5591TIP3   OH216705   2.057   1.353   6.404
 5591TIP3    H116706   2.057   1.375   6.309
 5591TIP3    H216707   2.140   1.396   6.433
 5592TIP3   OH216708   2.090   0.445   6.085
 5592TIP3    H116709   2.126   0.493   6.007
 5592TIP3    H216710   2.009   0.405   6.047
 5593TIP3   OH216711   1.385   0.405   5.220
 5593TIP3    H116712   1.323   0.477   5.247
 5593TIP3    H216713   1.375   0.346   5.297
 5594TIP3   OH216714   1.773   0.785   6.372
 5594TIP3    H116715   1.674   0.789   6.366
 5594TIP3    H216716   1.787   0.844   6.448
 5595TIP3   OH216717   2.171  -0.141   5.253
 5595TIP3    H116718   2.107  -0.197   5.204
 5595TIP3    H216719   2.149  -0.055   5.212
 5596TIP3   OH216720   2.380   0.717   6.342
 5596TIP3    H116721   2.283   0.704   6.339
 5596TIP3    H216722   2.405   0.685   6.252
 5597TIP3   OH216723   1.862   0.666   5.177
 5597TIP3    H116724   1.835   0.595   5.237
 5597TIP3    H216725   1.873   0.619   5.092
 5598TIP3   OH216726   1.868   0.293   5.996
 5598TIP3    H116727   1.777   0.267   6.018
 5598TIP3    H216728   1.896   0.222   5.937
 5599TIP3   OH216729   1.271   0.894   6.256
 5599TIP3    H116730   1.298   0.958   6.186
 5599TIP3    H216731   1.357   0.868   6.293
 5600TIP3   OH216732   1.689   0.546   6.190
 5600TIP3    H116733   1.662   0.528   6.281
 5600TIP3    H216734   1.784   0.535   6.195
 5601TIP3   OH216735   1.616   0.408   5.072
 5601TIP3    H116736   1.674   0.373   5.143
 5601TIP3    H216737   1.530   0.403   5.120
 5602TIP3   OH216738   1.887   1.043   6.249
 5602TIP3    H116739   1.810   0.985   6.235
 5602TIP3    H216740   1.877   1.106   6.174
 5603TIP3   OH216741   1.956   0.871   4.894
 5603TIP3    H116742   1.993   0.941   4.837
 5603TIP3    H216743   1.876   0.918   4.926
 5604TIP3   OH216744   1.780   0.335   5.279
 5604TIP3    H116745   1.760   0.274   5.353
 5604TIP3    H216746   1.877   0.327   5.276
 5605TIP3   OH216747   1.202   0.600   5.289
 5605TIP3    H116748   1.135   0.606   5.358
 5605TIP3    H216749   1.211   0.692   5.263
 5606TIP3   OH216750   1.906   1.026   5.837
 5606TIP3    H116751   1.870   0.991   5.755
 5606TIP3    H216752   1.999   1.049   5.813
 5607TIP3   OH216753   1.150   0.563   5.001
 5607TIP3    H116754   1.152   0.511   5.084
 5607TIP3    H216755   1.226   0.523   4.953
 5608TIP3   OH216756   1.803   0.914   6.624
 5608TIP3    H116757   1.840   0.832   6.660
 5608TIP3    H216758   1.878   0.975   6.634
 5609TIP3   OH216759   1.583   0.624   4.899
 5609TIP3    H116760   1.620   0.555   4.958
 5609TIP3    H216761   1.643   0.619   4.822
 5610TIP3   OH216762   1.913   0.551   6.399
 5610TIP3    H116763   1.997   0.580   6.359
 5610TIP3    H216764   1.862   0.635   6.392
 5611TIP3   OH216765   1.922   0.126   4.930
 5611TIP3    H116766   1.902   0.082   4.845
 5611TIP3    H216767   1.886   0.215   4.910
 5612TIP3   OH216768   2.077   0.381   6.567
 5612TIP3    H116769   2.022   0.437   6.509
 5612TIP3    H216770   2.166   0.405   6.533
 5613TIP3   OH216771   0.902   0.896   5.122
 5613TIP3    H116772   0.997   0.873   5.131
 5613TIP3    H216773   0.882   0.860   5.036
 5614TIP3   OH216774   2.155   1.125   5.786
 5614TIP3    H116775   2.191   1.142   5.875
 5614TIP3    H216776   2.234   1.137   5.731
 5615TIP3   OH216777   2.196   1.122   6.074
 5615TIP3    H116778   2.152   1.034   6.072
 5615TIP3    H216779   2.273   1.100   6.129
 5616TIP3   OH216780   2.235   0.803   6.643
 5616TIP3    H116781   2.168   0.807   6.714
 5616TIP3    H216782   2.281   0.889   6.654
 5617TIP3   OH216783   2.059   0.316   5.265
 5617TIP3    H116784   2.129   0.378   5.237
 5617TIP3    H216785   2.099   0.276   5.345
 5618TIP3   OH216786   2.180   0.186   5.470
 5618TIP3    H116787   2.116   0.143   5.530
 5618TIP3    H216788   2.248   0.220   5.531
 5619TIP3   OH216789   2.236   0.573   5.897
 5619TIP3    H116790   2.294   0.507   5.855
 5619TIP3    H216791   2.236   0.645   5.832
 5620TIP3   OH216792   2.068   0.875   6.098
 5620TIP3    H116793   1.997   0.911   6.153
 5620TIP3    H216794   2.019   0.822   6.031
 5621TIP3   OH216795   2.117   0.093   5.116
 5621TIP3    H116796   2.046   0.097   5.048
 5621TIP3    H216797   2.090   0.168   5.172
 5622TIP3   OH216798   1.999  -0.246   5.064
 5622TIP3    H116799   1.950  -0.183   5.010
 5622TIP3    H216800   1.948  -0.327   5.050
 5623TIP3   OH216801   1.999   0.033   5.625
 5623TIP3    H116802   2.018  -0.059   5.601
 5623TIP3    H216803   2.013   0.033   5.720
 5624TIP3   OH216804   2.308   0.470   6.462
 5624TIP3    H116805   2.377   0.399   6.458
 5624TIP3    H216806   2.346   0.538   6.405
 5625TIP3   OH216807   2.476   0.265   6.490
 5625TIP3    H116808   2.403   0.210   6.526
 5625TIP3    H216809   2.551   0.204   6.508
 5626TIP3   OH216810   2.141  -0.048   6.008
 5626TIP3    H116811   2.228  -0.032   5.965
 5626TIP3    H216812   2.163  -0.020   6.099
 5627TIP3   OH216813   2.206   0.087   6.245
 5627TIP3    H116814   2.123   0.127   6.275
 5627TIP3    H216815   2.250   0.161   6.199
 5628TIP3   OH216816   1.766   0.991   5.454
 5628TIP3    H116817   1.773   0.951   5.365
 5628TIP3    H216818   1.857   1.019   5.465
 5629TIP3   OH216819   1.480   1.060   6.534
 5629TIP3    H116820   1.523   1.055   6.621
 5629TIP3    H216821   1.546   1.110   6.480
 5630TIP3   OH216822   1.659   1.201   6.384
 5630TIP3    H116823   1.727   1.152   6.336
 5630TIP3    H216824   1.712   1.263   6.438
 5631TIP3   OH216825   1.371   1.073   6.062
 5631TIP3    H116826   1.300   1.088   5.996
 5631TIP3    H216827   1.381   1.163   6.098
 5632TIP3   OH216828   1.636   1.018   6.117
 5632TIP3    H116829   1.540   1.028   6.099
 5632TIP3    H216830   1.672   1.095   6.072
 5633TIP3   OH216831   1.850   1.211   6.032
 5633TIP3    H116832   1.826   1.287   5.975
 5633TIP3    H216833   1.871   1.143   5.964
 5634TIP3   OH216834   1.170   0.823   5.105
 5634TIP3    H116835   1.264   0.834   5.078
 5634TIP3    H216836   1.154   0.734   5.065
 5635TIP3   OH216837   1.891   0.932   5.215
 5635TIP3    H116838   1.886   0.834   5.203
 5635TIP3    H216839   1.849   0.963   5.132
 5636TIP3   OH216840   2.116   1.082   6.409
 5636TIP3    H116841   2.040   1.051   6.356
 5636TIP3    H216842   2.100   1.178   6.409
 5637TIP3   OH216843   3.387   0.450   5.171
 5637TIP3    H116844   3.359   0.542   5.152
 5637TIP3    H216845   3.310   0.402   5.135
 5638TIP3   OH216846   3.383   0.455   5.555
 5638TIP3    H116847   3.417   0.428   5.643
 5638TIP3    H216848   3.344   0.372   5.524
 5639TIP3   OH216849   2.680   0.349   5.921
 5639TIP3    H116850   2.712   0.280   5.982
 5639TIP3    H216851   2.764   0.393   5.900
 5640TIP3   OH216852   3.628   0.757   5.235
 5640TIP3    H116853   3.619   0.686   5.301
 5640TIP3    H216854   3.661   0.830   5.289
 5641TIP3   OH216855   2.656   0.757   5.641
 5641TIP3    H116856   2.649   0.659   5.642
 5641TIP3    H216857   2.752   0.766   5.636
 5642TIP3   OH216858   2.349  -0.033   5.442
 5642TIP3    H116859   2.297   0.050   5.441
 5642TIP3    H216860   2.293  -0.089   5.385
 5643TIP3   OH216861   2.415   0.256   5.599
 5643TIP3    H116862   2.457   0.174   5.632
 5643TIP3    H216863   2.480   0.285   5.533
 5644TIP3   OH216864   3.281   1.217   5.253
 5644TIP3    H116865   3.323   1.147   5.198
 5644TIP3    H216866   3.279   1.174   5.339
 5645TIP3   OH216867   3.184   0.680   5.601
 5645TIP3    H116868   3.223   0.601   5.558
 5645TIP3    H216869   3.268   0.725   5.624
 5646TIP3   OH216870   3.603   0.182   5.646
 5646TIP3    H116871   3.623   0.092   5.674
 5646TIP3    H216872   3.565   0.169   5.557
 5647TIP3   OH216873   2.928  -0.201   5.560
 5647TIP3    H116874   2.899  -0.110   5.536
 5647TIP3    H216875   2.845  -0.250   5.553
 5648TIP3   OH216876   3.592  -0.045   5.269
 5648TIP3    H116877   3.653  -0.092   5.331
 5648TIP3    H216878   3.648  -0.044   5.189
 5649TIP3   OH216879   2.545   0.040   5.696
 5649TIP3    H116880   2.638   0.042   5.730
 5649TIP3    H216881   2.559  -0.020   5.620
 5650TIP3   OH216882   3.005   0.243   5.503
 5650TIP3    H116883   3.099   0.217   5.517
 5650TIP3    H216884   2.965   0.157   5.476
 5651TIP3   OH216885   4.233   0.187   5.796
 5651TIP3    H116886   4.161   0.245   5.761
 5651TIP3    H216887   4.295   0.251   5.833
 5652TIP3   OH216888   3.275   0.671   5.042
 5652TIP3    H116889   3.237   0.654   4.954
 5652TIP3    H216890   3.231   0.755   5.066
 5653TIP3   OH216891   3.039   0.598   5.824
 5653TIP3    H116892   2.977   0.665   5.862
 5653TIP3    H216893   3.082   0.648   5.752
 5654TIP3   OH216894   2.801   0.008   5.762
 5654TIP3    H116895   2.872   0.053   5.812
 5654TIP3    H216896   2.824  -0.085   5.782
 5655TIP3   OH216897   2.866   0.794   5.925
 5655TIP3    H116898   2.839   0.880   5.887
 5655TIP3    H216899   2.788   0.775   5.981
 5656TIP3   OH216900   2.261   0.483   5.160
 5656TIP3    H116901   2.220   0.507   5.075
 5656TIP3    H216902   2.293   0.569   5.194
 5657TIP3   OH216903   3.698   0.999   5.401
 5657TIP3    H116904   3.607   0.990   5.438
 5657TIP3    H216905   3.691   1.085   5.356
 5658TIP3   OH216906   3.397   1.046   5.069
 5658TIP3    H116907   3.447   0.963   5.052
 5658TIP3    H216908   3.459   1.111   5.031
 5659TIP3   OH216909   3.541   0.830   4.984
 5659TIP3    H116910   3.513   0.748   4.941
 5659TIP3    H216911   3.578   0.796   5.068
 5660TIP3   OH216912   3.925   0.911   5.744
 5660TIP3    H116913   3.916   0.834   5.685
 5660TIP3    H216914   3.911   0.986   5.681
 5661TIP3   OH216915   3.217   0.309   4.998
 5661TIP3    H116916   3.136   0.359   4.976
 5661TIP3    H216917   3.262   0.304   4.912
 5662TIP3   OH216918   3.174   0.089   4.719
 5662TIP3    H116919   3.247   0.138   4.762
 5662TIP3    H216920   3.224   0.019   4.673
 5663TIP3   OH216921   4.122   0.550   5.589
 5663TIP3    H116922   4.039   0.603   5.592
 5663TIP3    H216923   4.152   0.572   5.498
 5664TIP3   OH216924   3.563   0.388   4.971
 5664TIP3    H116925   3.509   0.411   5.050
 5664TIP3    H216926   3.648   0.364   5.014
 5665TIP3   OH216927   3.798   0.428   5.888
 5665TIP3    H116928   3.794   0.510   5.942
 5665TIP3    H216929   3.712   0.432   5.843
 5666TIP3   OH216930   2.797   0.386   5.389
 5666TIP3    H116931   2.757   0.326   5.323
 5666TIP3    H216932   2.874   0.333   5.421
 5667TIP3   OH216933   2.926   0.798   5.538
 5667TIP3    H116934   2.908   0.756   5.453
 5667TIP3    H216935   3.016   0.763   5.558
 5668TIP3   OH216936   2.927   0.356   5.749
 5668TIP3    H116937   2.961   0.327   5.662
 5668TIP3    H216938   2.976   0.439   5.765
 5669TIP3   OH216939   3.455   0.995   5.521
 5669TIP3    H116940   3.446   1.072   5.579
 5669TIP3    H216941   3.444   0.920   5.582
 5670TIP3   OH216942   3.072   0.915   6.066
 5670TIP3    H116943   3.012   0.975   6.115
 5670TIP3    H216944   3.007   0.860   6.019
 5671TIP3   OH216945   3.405   0.245   4.798
 5671TIP3    H116946   3.463   0.305   4.850
 5671TIP3    H216947   3.431   0.268   4.706
 5672TIP3   OH216948   2.820   0.483   6.162
 5672TIP3    H116949   2.824   0.564   6.217
 5672TIP3    H216950   2.727   0.456   6.176
 5673TIP3   OH216951   3.148   0.925   5.077
 5673TIP3    H116952   3.232   0.975   5.085
 5673TIP3    H216953   3.090   0.990   5.033
 5674TIP3   OH216954   2.864   1.083   6.154
 5674TIP3    H116955   2.831   1.078   6.063
 5674TIP3    H216956   2.784   1.061   6.207
 5675TIP3   OH216957   2.663   0.228   5.196
 5675TIP3    H116958   2.596   0.270   5.138
 5675TIP3    H216959   2.627   0.139   5.206
 5676TIP3   OH216960   3.721   0.852   4.398
 5676TIP3    H116961   3.729   0.949   4.382
 5676TIP3    H216962   3.814   0.823   4.384
 5677TIP3   OH216963   2.444   0.612   6.101
 5677TIP3    H116964   2.387   0.583   6.028
 5677TIP3    H216965   2.485   0.527   6.131
 5678TIP3   OH216966   2.303   0.807   5.735
 5678TIP3    H116967   2.395   0.783   5.716
 5678TIP3    H216968   2.315   0.879   5.799
 5679TIP3   OH216969   4.160   1.255   5.789
 5679TIP3    H116970   4.161   1.158   5.804
 5679TIP3    H216971   4.078   1.279   5.837
 5680TIP3   OH216972   3.267   1.045   5.923
 5680TIP3    H116973   3.266   1.137   5.958
 5680TIP3    H216974   3.198   1.003   5.978
 5681TIP3   OH216975   3.028   1.168   4.879
 5681TIP3    H116976   2.986   1.148   4.793
 5681TIP3    H216977   2.997   1.258   4.897
 5682TIP3   OH216978   2.465   1.019   5.263
 5682TIP3    H116979   2.515   1.009   5.347
 5682TIP3    H216980   2.420   0.933   5.258
 5683TIP3   OH216981   3.231   1.071   4.517
 5683TIP3    H116982   3.289   1.001   4.479
 5683TIP3    H216983   3.268   1.080   4.607
 5684TIP3   OH216984   3.282   1.121   4.788
 5684TIP3    H116985   3.194   1.128   4.832
 5684TIP3    H216986   3.335   1.080   4.858
 5685TIP3   OH216987   4.052   0.374   6.067
 5685TIP3    H116988   3.973   0.403   6.018
 5685TIP3    H216989   4.043   0.277   6.058
 5686TIP3   OH216990   2.648   0.798   6.092
 5686TIP3    H116991   2.701   0.778   6.172
 5686TIP3    H216992   2.577   0.731   6.098
 5687TIP3   OH216993   3.832   0.170   6.008
 5687TIP3    H116994   3.795   0.192   6.094
 5687TIP3    H216995   3.807   0.247   5.953
 5688TIP3   OH216996   3.483   0.286   4.542
 5688TIP3    H116997   3.447   0.265   4.454
 5688TIP3    H216998   3.563   0.337   4.518
 5689TIP3   OH216999   2.994   0.140   5.908
 5689TIP3    H117000   2.935   0.159   5.983
 5689TIP3    H217001   2.979   0.219   5.852
 5690TIP3   OH217002   2.860   0.024   5.413
 5690TIP3    H117003   2.767  -0.002   5.424
 5690TIP3    H217004   2.879  -0.010   5.322
 5691TIP3   OH217005   3.348   0.110   5.134
 5691TIP3    H117006   3.300   0.182   5.089
 5691TIP3    H217007   3.414   0.084   5.067
 5692TIP3   OH217008   3.537   0.415   6.213
 5692TIP3    H117009   3.512   0.332   6.261
 5692TIP3    H217010   3.633   0.418   6.235
 5693TIP3   OH217011   3.494   0.171   5.393
 5693TIP3    H117012   3.440   0.214   5.324
 5693TIP3    H217013   3.520   0.089   5.345
 5694TIP3   OH217014   2.796   0.167   6.105
 5694TIP3    H117015   2.834   0.221   6.176
 5694TIP3    H217016   2.786   0.081   6.149
 5695TIP3   OH217017   2.433  -0.223   5.235
 5695TIP3    H117018   2.444  -0.239   5.140
 5695TIP3    H217019   2.337  -0.203   5.239
 5696TIP3   OH217020   3.516   0.385   5.797
 5696TIP3    H117021   3.554   0.314   5.741
 5696TIP3    H217022   3.495   0.332   5.877
 5697TIP3   OH217023   2.612  -0.103   5.461
 5697TIP3    H117024   2.518  -0.076   5.443
 5697TIP3    H217025   2.613  -0.187   5.415
 5698TIP3   OH217026   2.906  -0.081   5.166
 5698TIP3    H117027   2.998  -0.097   5.136
 5698TIP3    H217028   2.854  -0.091   5.084
 5699TIP3   OH217029   2.737  -0.098   4.940
 5699TIP3    H117030   2.661  -0.114   4.881
 5699TIP3    H217031   2.796  -0.052   4.876
 5700TIP3   OH217032   3.854   1.608   5.890
 5700TIP3    H117033   3.855   1.629   5.795
 5700TIP3    H217034   3.936   1.652   5.920
 5701TIP3   OH217035   2.809   0.723   6.311
 5701TIP3    H117036   2.891   0.747   6.358
 5701TIP3    H217037   2.747   0.716   6.387
 5702TIP3   OH217038   3.263   0.173   5.565
 5702TIP3    H117039   3.345   0.140   5.527
 5702TIP3    H217040   3.269   0.140   5.659
 5703TIP3   OH217041   3.271   0.104   5.827
 5703TIP3    H117042   3.183   0.091   5.865
 5703TIP3    H217043   3.322   0.141   5.902
 5704TIP3   OH217044   2.985   0.459   4.947
 5704TIP3    H117045   2.913   0.392   4.938
 5704TIP3    H217046   2.968   0.491   5.039
 5705TIP3   OH217047   3.888   0.695   5.578
 5705TIP3    H117048   3.914   0.743   5.497
 5705TIP3    H217049   3.803   0.653   5.552
 5706TIP3   OH217050   3.419  -0.161   4.770
 5706TIP3    H117051   3.361  -0.211   4.831
 5706TIP3    H217052   3.458  -0.096   4.832
 5707TIP3   OH217053   3.386   0.775   5.946
 5707TIP3    H117054   3.415   0.750   6.035
 5707TIP3    H217055   3.350   0.864   5.959
 5708TIP3   OH217056   3.523   0.031   4.930
 5708TIP3    H117057   3.620   0.040   4.939
 5708TIP3    H217058   3.500   0.108   4.875
 5709TIP3   OH217059   2.680   0.479   5.625
 5709TIP3    H117060   2.719   0.452   5.539
 5709TIP3    H217061   2.726   0.420   5.685
 5710TIP3   OH217062   3.134   0.607   4.772
 5710TIP3    H117063   3.086   0.693   4.778
 5710TIP3    H217064   3.080   0.551   4.832
 5711TIP3   OH217065   2.559   0.407   6.244
 5711TIP3    H117066   2.591   0.390   6.335
 5711TIP3    H217067   2.498   0.333   6.230
 5712TIP3   OH217068   3.286   0.519   6.261
 5712TIP3    H117069   3.228   0.461   6.209
 5712TIP3    H217070   3.375   0.490   6.232
 5713TIP3   OH217071   3.546   1.040   5.842
 5713TIP3    H117072   3.450   1.035   5.856
 5713TIP3    H217073   3.574   1.089   5.922
 5714TIP3   OH217074   3.956   0.106   4.741
 5714TIP3    H117075   3.895   0.056   4.682
 5714TIP3    H217076   3.944   0.196   4.703
 5715TIP3   OH217077   4.175   0.966   5.833
 5715TIP3    H117078   4.077   0.960   5.824
 5715TIP3    H217079   4.202   0.937   5.743
 5716TIP3   OH217080   3.654   0.926   4.660
 5716TIP3    H117081   3.635   0.853   4.720
 5716TIP3    H217082   3.671   0.882   4.575
 5717TIP3   OH217083   3.652   0.559   5.495
 5717TIP3    H117084   3.560   0.531   5.509
 5717TIP3    H217085   3.689   0.479   5.452
 5718TIP3   OH217086   2.782   0.785   5.255
 5718TIP3    H117087   2.784   0.864   5.199
 5718TIP3    H217088   2.688   0.764   5.256
 5719TIP3   OH217089   2.340   0.088   4.956
 5719TIP3    H117090   2.389   0.170   4.977
 5719TIP3    H217091   2.264   0.095   5.018
 5720TIP3   OH217092   2.916   0.549   5.193
 5720TIP3    H117093   2.885   0.638   5.216
 5720TIP3    H217094   2.883   0.497   5.269
 5721TIP3   OH217095   3.051   1.126   5.721
 5721TIP3    H117096   3.094   1.197   5.669
 5721TIP3    H217097   3.127   1.089   5.769
 5722TIP3   OH217098   2.699   1.024   5.104
 5722TIP3    H117099   2.613   1.033   5.150
 5722TIP3    H217100   2.731   1.117   5.107
 5723TIP3   OH217101   3.439   0.764   5.678
 5723TIP3    H117102   3.429   0.760   5.776
 5723TIP3    H217103   3.517   0.708   5.665
 5724TIP3   OH217104   3.414   0.653   4.564
 5724TIP3    H117105   3.468   0.630   4.643
 5724TIP3    H217106   3.326   0.627   4.595
 5725TIP3   OH217107   3.686   1.297   5.733
 5725TIP3    H117108   3.609   1.237   5.726
 5725TIP3    H217109   3.670   1.358   5.658
 5726TIP3   OH217110   3.752   1.127   4.382
 5726TIP3    H117111   3.789   1.197   4.325
 5726TIP3    H217112   3.673   1.175   4.415
 5727TIP3   OH217113   3.575   0.590   4.780
 5727TIP3    H117114   3.565   0.521   4.850
 5727TIP3    H217115   3.672   0.586   4.766
 5728TIP3   OH217116   2.484   0.988   5.883
 5728TIP3    H117117   2.540   0.914   5.909
 5728TIP3    H217118   2.520   1.058   5.939
 5729TIP3   OH217119   2.777   0.635   4.563
 5729TIP3    H117120   2.793   0.543   4.534
 5729TIP3    H217121   2.758   0.622   4.657
 5730TIP3   OH217122   2.722   0.639   4.836
 5730TIP3    H117123   2.798   0.611   4.889
 5730TIP3    H217124   2.729   0.737   4.843
 5731TIP3   OH217125   2.459   0.331   5.037
 5731TIP3    H117126   2.393   0.377   5.094
 5731TIP3    H217127   2.476   0.400   4.970
 5732TIP3   OH217128   2.990   0.836   4.783
 5732TIP3    H117129   2.903   0.865   4.818
 5732TIP3    H217130   3.008   0.907   4.720
 5733TIP3   OH217131   3.194  -0.113   5.157
 5733TIP3    H117132   3.245  -0.029   5.155
 5733TIP3    H217133   3.199  -0.136   5.251
 5734TIP3   OH217134   3.463   0.221   6.008
 5734TIP3    H117135   3.457   0.278   6.087
 5734TIP3    H217136   3.509   0.145   6.045
 5735TIP3   OH217137   2.734   0.913   4.851
 5735TIP3    H117138   2.705   0.983   4.788
 5735TIP3    H217139   2.719   0.957   4.937
 5736TIP3   OH217140   3.740   0.318   5.374
 5736TIP3    H117141   3.662   0.264   5.395
 5736TIP3    H217142   3.812   0.270   5.423
 5737TIP3   OH217143   2.453   0.542   4.842
 5737TIP3    H117144   2.525   0.607   4.850
 5737TIP3    H217145   2.495   0.483   4.776
 5738TIP3   OH217146   2.397  -0.183   4.948
 5738TIP3    H117147   2.385  -0.087   4.955
 5738TIP3    H217148   2.308  -0.217   4.961
 5739TIP3   OH217149   3.707   1.271   5.322
 5739TIP3    H117150   3.665   1.319   5.247
 5739TIP3    H217151   3.802   1.291   5.303
 5740TIP3   OH217152   2.327   0.767   5.230
 5740TIP3    H117153   2.250   0.787   5.285
 5740TIP3    H217154   2.297   0.804   5.144
 5741TIP3   OH217155   2.481   1.300   6.304
 5741TIP3    H117156   2.568   1.300   6.349
 5741TIP3    H217157   2.464   1.205   6.299
 5742TIP3   OH217158   2.959   1.264   6.344
 5742TIP3    H117159   3.053   1.242   6.356
 5742TIP3    H217160   2.936   1.203   6.271
 5743TIP3   OH217161   2.942   0.838   4.474
 5743TIP3    H117162   2.887   0.765   4.512
 5743TIP3    H217163   3.018   0.788   4.440
 5744TIP3   OH217164   3.597   1.171   6.081
 5744TIP3    H117165   3.590   1.099   6.148
 5744TIP3    H217166   3.677   1.219   6.109
 5745TIP3   OH217167   3.377   0.878   4.386
 5745TIP3    H117168   3.424   0.816   4.444
 5745TIP3    H217169   3.432   0.879   4.305
 5746TIP3   OH217170   2.610   0.707   6.503
 5746TIP3    H117171   2.630   0.612   6.511
 5746TIP3    H217172   2.524   0.706   6.457
 5747TIP3   OH217173   2.587   0.354   4.697
 5747TIP3    H117174   2.643   0.320   4.769
 5747TIP3    H217175   2.654   0.359   4.625
 5748TIP3   OH217176   3.216   0.790   6.276
 5748TIP3    H117177   3.178   0.804   6.188
 5748TIP3    H217178   3.249   0.698   6.271
 5749TIP3   OH217179   3.096   0.554   4.503
 5749TIP3    H117180   3.100   0.567   4.600
 5749TIP3    H217181   3.099   0.456   4.498
 5750TIP3   OH217182   3.709   0.801   5.882
 5750TIP3    H117183   3.785   0.843   5.837
 5750TIP3    H217184   3.640   0.867   5.865
 5751TIP3   OH217185   2.735   0.441   6.480
 5751TIP3    H117186   2.811   0.384   6.464
 5751TIP3    H217187   2.754   0.470   6.572
 5752TIP3   OH217188   2.792   0.260   4.916
 5752TIP3    H117189   2.772   0.220   5.003
 5752TIP3    H217190   2.830   0.185   4.867
 5753TIP3   OH217191   3.059   0.348   6.141
 5753TIP3    H117192   2.979   0.406   6.138
 5753TIP3    H217193   3.108   0.376   6.061
 5754TIP3   OH217194   2.895   0.053   4.764
 5754TIP3    H117195   2.868   0.055   4.670
 5754TIP3    H217196   2.992   0.058   4.755
 5755TIP3   OH217197   3.585   0.728   6.279
 5755TIP3    H117198   3.659   0.695   6.227
 5755TIP3    H217199   3.575   0.658   6.346
 5756TIP3   OH217200   3.716   0.382   4.421
 5756TIP3    H117201   3.695   0.339   4.336
 5756TIP3    H217202   3.686   0.473   4.399
 5757TIP3   OH217203   3.151   0.131   6.268
 5757TIP3    H117204   3.107   0.068   6.209
 5757TIP3    H217205   3.124   0.216   6.226
 5758TIP3   OH217206   3.226   0.440   5.949
 5758TIP3    H117207   3.307   0.439   5.896
 5758TIP3    H217208   3.170   0.505   5.901
 5759TIP3   OH217209   3.793   0.402   6.309
 5759TIP3    H117210   3.824   0.344   6.381
 5759TIP3    H217211   3.873   0.453   6.289
 5760TIP3   OH217212   3.841   0.656   6.067
 5760TIP3    H117213   3.783   0.709   6.009
 5760TIP3    H217214   3.928   0.677   6.027
 5761TIP3   OH217215   3.030   0.260   6.490
 5761TIP3    H117216   2.994   0.188   6.542
 5761TIP3    H217217   3.089   0.214   6.427
 5762TIP3   OH217218   3.434   0.187   6.303
 5762TIP3    H117219   3.462   0.158   6.392
 5762TIP3    H217220   3.338   0.167   6.308
 5763TIP3   OH217221   2.705   1.117   4.665
 5763TIP3    H117222   2.800   1.109   4.645
 5763TIP3    H217223   2.676   1.165   4.585
 5764TIP3   OH217224   2.184   0.498   4.879
 5764TIP3    H117225   2.279   0.519   4.865
 5764TIP3    H217226   2.178   0.409   4.838
 5765TIP3   OH217227   2.063   1.116   5.324
 5765TIP3    H117228   2.017   1.048   5.268
 5765TIP3    H217229   2.127   1.058   5.372
 5766TIP3   OH217230   2.226   0.964   5.483
 5766TIP3    H117231   2.227   0.884   5.538
 5766TIP3    H217232   2.286   1.021   5.535
 5767TIP3   OH217233   3.958   1.368   5.279
 5767TIP3    H117234   3.992   1.395   5.366
 5767TIP3    H217235   4.029   1.396   5.220
 5768TIP3   OH217236   3.991   1.381   5.564
 5768TIP3    H117237   3.947   1.293   5.559
 5768TIP3    H217238   4.068   1.358   5.618
 5769TIP3   OH217239   4.036   1.058   6.136
 5769TIP3    H117240   3.964   1.067   6.201
 5769TIP3    H217241   4.079   1.145   6.140
 5770TIP3   OH217242   3.853   0.570   4.751
 5770TIP3    H117243   3.921   0.635   4.723
 5770TIP3    H217244   3.896   0.532   4.831
 5771TIP3   OH217245   3.978   0.442   4.955
 5771TIP3    H117246   3.914   0.402   5.018
 5771TIP3    H217247   4.046   0.480   5.015
 5772TIP3   OH217248   4.033   0.829   5.387
 5772TIP3    H117249   4.089   0.764   5.341
 5772TIP3    H217250   4.031   0.903   5.323
 5773TIP3   OH217251   3.866   1.130   5.584
 5773TIP3    H117252   3.794   1.169   5.637
 5773TIP3    H217253   3.816   1.081   5.514
 5774TIP3   OH217254   3.912   0.343   4.605
 5774TIP3    H117255   3.843   0.354   4.536
 5774TIP3    H217256   3.891   0.420   4.662
 5775TIP3   OH217257   3.783   0.005   4.548
 5775TIP3    H117258   3.763   0.084   4.496
 5775TIP3    H217259   3.734  -0.063   4.500
 5776TIP3   OH217260   3.792   0.306   5.103
 5776TIP3    H117261   3.798   0.211   5.083
 5776TIP3    H217262   3.781   0.309   5.200
 5777TIP3   OH217263   2.419   0.375   5.851
 5777TIP3    H117264   2.418   0.340   5.759
 5777TIP3    H217265   2.516   0.373   5.869
 5778TIP3   OH217266   4.084   0.720   5.960
 5778TIP3    H117267   4.156   0.653   5.952
 5778TIP3    H217268   4.113   0.789   5.898
 5779TIP3   OH217269   4.264   0.522   5.982
 5779TIP3    H117270   4.191   0.466   6.016
 5779TIP3    H217271   4.340   0.462   5.997
 5780TIP3   OH217272   3.793   0.053   4.969
 5780TIP3    H117273   3.821  -0.025   5.022
 5780TIP3    H217274   3.860   0.057   4.899
 5781TIP3   OH217275   3.949   0.191   5.499
 5781TIP3    H117276   4.035   0.214   5.458
 5781TIP3    H217277   3.965   0.224   5.589
 5782TIP3   OH217278   4.015   0.337   5.727
 5782TIP3    H117279   3.937   0.372   5.776
 5782TIP3    H217280   4.048   0.417   5.681
 5783TIP3   OH217281   2.636   0.048   6.520
 5783TIP3    H117282   2.732   0.041   6.519
 5783TIP3    H217283   2.611  -0.040   6.555
 5784TIP3   OH217284   2.391   0.026   5.923
 5784TIP3    H117285   2.441   0.020   5.839
 5784TIP3    H217286   2.442   0.092   5.970
 5785TIP3   OH217287   3.543   1.231   4.937
 5785TIP3    H117288   3.592   1.213   4.854
 5785TIP3    H217289   3.604   1.291   4.982
 5786TIP3   OH217290   2.642   1.040   6.322
 5786TIP3    H117291   2.554   1.003   6.305
 5786TIP3    H217292   2.661   1.008   6.411
 5787TIP3   OH217293   2.822   1.065   5.869
 5787TIP3    H117294   2.779   1.144   5.829
 5787TIP3    H217295   2.910   1.075   5.826
 5788TIP3   OH217296   3.267   1.311   6.008
 5788TIP3    H117297   3.311   1.307   6.096
 5788TIP3    H217298   3.335   1.359   5.956
 5789TIP3   OH217299   3.447   1.461   5.865
 5789TIP3    H117300   3.517   1.408   5.824
 5789TIP3    H217301   3.500   1.517   5.926
 5790TIP3   OH217302   2.499   1.320   5.891
 5790TIP3    H117303   2.410   1.356   5.871
 5790TIP3    H217304   2.514   1.357   5.979
 5791TIP3   OH217305   2.737   1.301   5.752
 5791TIP3    H117306   2.649   1.312   5.795
 5791TIP3    H217307   2.718   1.331   5.661
 5792TIP3   OH217308   3.161   1.327   5.550
 5792TIP3    H117309   3.094   1.348   5.483
 5792TIP3    H217310   3.176   1.414   5.593
 5793TIP3   OH217311   3.431   1.268   5.602
 5793TIP3    H117312   3.338   1.284   5.580
 5793TIP3    H217313   3.476   1.341   5.556
 5794TIP3   OH217314   3.635   1.458   5.514
 5794TIP3    H117315   3.624   1.543   5.465
 5794TIP3    H217316   3.665   1.398   5.442
 5795TIP3   OH217317   2.408   1.111   5.641
 5795TIP3    H117318   2.440   1.086   5.731
 5795TIP3    H217319   2.481   1.071   5.588
 5796TIP3   OH217320   2.605   0.987   5.498
 5796TIP3    H117321   2.621   0.902   5.543
 5796TIP3    H217322   2.696   1.023   5.492
 5797TIP3   OH217323   2.872   1.080   5.500
 5797TIP3    H117324   2.902   0.989   5.486
 5797TIP3    H217325   2.921   1.100   5.583
 5798TIP3   OH217326   2.197   0.891   5.029
 5798TIP3    H117327   2.113   0.854   4.996
 5798TIP3    H217328   2.188   0.982   4.995
 5799TIP3   OH217329   2.972   1.073   4.612
 5799TIP3    H117330   3.060   1.095   4.575
 5799TIP3    H217331   2.950   0.998   4.552
 5800TIP3   OH217332   3.687   1.192   4.706
 5800TIP3    H117333   3.680   1.095   4.691
 5800TIP3    H217334   3.646   1.226   4.623
 5801TIP3   OH217335   2.277   0.909   4.667
 5801TIP3    H117336   2.284   0.933   4.760
 5801TIP3    H217337   2.364   0.866   4.650
 5802TIP3   OH217338   3.914   1.337   5.894
 5802TIP3    H117339   3.836   1.306   5.843
 5802TIP3    H217340   3.896   1.433   5.897
 5803TIP3   OH217341   5.183   0.704   4.658
 5803TIP3    H117342   5.159   0.798   4.642
 5803TIP3    H217343   5.103   0.661   4.623
 5804TIP3   OH217344   5.176   0.709   5.038
 5804TIP3    H117345   5.209   0.692   5.128
 5804TIP3    H217346   5.135   0.624   5.016
 5805TIP3   OH217347   4.478   0.607   5.406
 5805TIP3    H117348   4.511   0.537   5.466
 5805TIP3    H217349   4.560   0.655   5.389
 5806TIP3   OH217350   5.424   1.013   4.724
 5806TIP3    H117351   5.419   0.945   4.793
 5806TIP3    H217352   5.457   1.089   4.774
 5807TIP3   OH217353   4.452   1.012   5.127
 5807TIP3    H117354   4.445   0.915   5.129
 5807TIP3    H217355   4.549   1.023   5.123
 5808TIP3   OH217356   4.149   0.225   4.926
 5808TIP3    H117357   4.096   0.307   4.935
 5808TIP3    H217358   4.089   0.171   4.872
 5809TIP3   OH217359   4.212   0.514   5.082
 5809TIP3    H117360   4.255   0.432   5.117
 5809TIP3    H217361   4.282   0.549   5.025
 5810TIP3   OH217362   5.075   1.471   4.738
 5810TIP3    H117363   5.120   1.400   4.687
 5810TIP3    H217364   5.075   1.435   4.827
 5811TIP3   OH217365   4.981   0.934   5.088
 5811TIP3    H117366   5.023   0.858   5.044
 5811TIP3    H217367   5.063   0.982   5.112
 5812TIP3   OH217368   5.401   0.439   5.133
 5812TIP3    H117369   5.422   0.350   5.162
 5812TIP3    H217370   5.361   0.425   5.045
 5813TIP3   OH217371   4.716   0.058   5.057
 5813TIP3    H117372   4.692   0.147   5.024
 5813TIP3    H217373   4.638   0.007   5.032
 5814TIP3   OH217374   5.387   0.210   4.754
 5814TIP3    H117375   5.451   0.166   4.815
 5814TIP3    H217376   5.442   0.218   4.675
 5815TIP3   OH217377   4.341   0.297   5.183
 5815TIP3    H117378   4.432   0.299   5.220
 5815TIP3    H217379   4.357   0.238   5.107
 5816TIP3   OH217380   4.802   0.498   4.987
 5816TIP3    H117381   4.896   0.473   5.003
 5816TIP3    H217382   4.763   0.412   4.961
 5817TIP3   OH217383   5.074   0.929   4.525
 5817TIP3    H117384   5.032   0.913   4.440
 5817TIP3    H217385   5.031   1.013   4.552
 5818TIP3   OH217386   4.833   0.854   5.312
 5818TIP3    H117387   4.773   0.922   5.349
 5818TIP3    H217388   4.879   0.904   5.241
 5819TIP3   OH217389   4.596   0.263   5.251
 5819TIP3    H117390   4.665   0.306   5.304
 5819TIP3    H217391   4.629   0.172   5.250
 5820TIP3   OH217392   4.661   1.050   5.410
 5820TIP3    H117393   4.637   1.137   5.372
 5820TIP3    H217394   4.582   1.035   5.467
 5821TIP3   OH217395   4.055   0.740   4.648
 5821TIP3    H117396   4.017   0.767   4.562
 5821TIP3    H217397   4.087   0.825   4.683
 5822TIP3   OH217398   5.491   1.256   4.883
 5822TIP3    H117399   5.402   1.247   4.923
 5822TIP3    H217400   5.485   1.345   4.843
 5823TIP3   OH217401   5.194   1.300   4.556
 5823TIP3    H117402   5.247   1.219   4.538
 5823TIP3    H217403   5.255   1.367   4.517
 5824TIP3   OH217404   5.341   1.084   4.470
 5824TIP3    H117405   5.298   1.004   4.438
 5824TIP3    H217406   5.378   1.054   4.556
 5825TIP3   OH217407   5.725   1.171   5.237
 5825TIP3    H117408   5.709   1.093   5.178
 5825TIP3    H217409   5.708   1.244   5.175
 5826TIP3   OH217410   5.011   0.563   4.485
 5826TIP3    H117411   4.931   0.615   4.464
 5826TIP3    H217412   5.057   0.563   4.399
 5827TIP3   OH217413   4.970   0.346   4.205
 5827TIP3    H117414   5.041   0.395   4.251
 5827TIP3    H217415   5.022   0.276   4.161
 5828TIP3   OH217416   5.359   0.643   4.458
 5828TIP3    H117417   5.305   0.668   4.537
 5828TIP3    H217418   5.444   0.621   4.501
 5829TIP3   OH217419   5.591   0.674   5.390
 5829TIP3    H117420   5.594   0.762   5.433
 5829TIP3    H217421   5.524   0.690   5.321
 5830TIP3   OH217422   4.593   0.641   4.876
 5830TIP3    H117423   4.555   0.582   4.809
 5830TIP3    H217424   4.671   0.589   4.908
 5831TIP3   OH217425   4.723   1.052   5.025
 5831TIP3    H117426   4.707   1.011   4.939
 5831TIP3    H217427   4.813   1.019   5.046
 5832TIP3   OH217428   4.726   0.612   5.235
 5832TIP3    H117429   4.760   0.587   5.147
 5832TIP3    H217430   4.772   0.697   5.253
 5833TIP3   OH217431   5.250   1.251   5.007
 5833TIP3    H117432   5.242   1.330   5.062
 5833TIP3    H217433   5.240   1.178   5.071
 5834TIP3   OH217434   4.871   1.166   5.554
 5834TIP3    H117435   4.819   1.230   5.608
 5834TIP3    H217436   4.800   1.118   5.508
 5835TIP3   OH217437   5.202   0.500   4.285
 5835TIP3    H117438   5.259   0.561   4.337
 5835TIP3    H217439   5.228   0.524   4.193
 5836TIP3   OH217440   4.616   0.734   5.654
 5836TIP3    H117441   4.621   0.819   5.701
 5836TIP3    H217442   4.521   0.712   5.664
 5837TIP3   OH217443   4.945   1.180   4.561
 5837TIP3    H117444   5.028   1.231   4.573
 5837TIP3    H217445   4.886   1.247   4.523
 5838TIP3   OH217446   4.660   1.337   5.640
 5838TIP3    H117447   4.628   1.334   5.548
 5838TIP3    H217448   4.579   1.317   5.692
 5839TIP3   OH217449   4.461   0.482   4.678
 5839TIP3    H117450   4.394   0.529   4.624
 5839TIP3    H217451   4.419   0.397   4.694
 5840TIP3   OH217452   5.517   1.109   3.881
 5840TIP3    H117453   5.524   1.206   3.869
 5840TIP3    H217454   5.610   1.081   3.870
 5841TIP3   OH217455   4.239   0.869   5.589
 5841TIP3    H117456   4.177   0.844   5.518
 5841TIP3    H217457   4.279   0.782   5.614
 5842TIP3   OH217458   4.098   1.060   5.221
 5842TIP3    H117459   4.192   1.048   5.207
 5842TIP3    H217460   4.097   1.137   5.280
 5843TIP3   OH217461   5.960   1.515   5.277
 5843TIP3    H117462   5.962   1.417   5.289
 5843TIP3    H217463   5.876   1.537   5.323
 5844TIP3   OH217464   5.062   1.302   5.409
 5844TIP3    H117465   5.064   1.392   5.448
 5844TIP3    H217466   4.995   1.258   5.465
 5845TIP3   OH217467   4.825   1.425   4.365
 5845TIP3    H117468   4.781   1.409   4.280
 5845TIP3    H217469   4.795   1.515   4.388
 5846TIP3   OH217470   4.263   1.275   4.749
 5846TIP3    H117471   4.313   1.267   4.834
 5846TIP3    H217472   4.211   1.193   4.749
 5847TIP3   OH217473   5.027   1.328   4.003
 5847TIP3    H117474   5.086   1.258   3.968
 5847TIP3    H217475   5.062   1.338   4.094
 5848TIP3   OH217476   5.078   1.377   4.273
 5848TIP3    H117477   4.990   1.385   4.317
 5848TIP3    H217478   5.132   1.341   4.345
 5849TIP3   OH217479   5.843   0.636   5.552
 5849TIP3    H117480   5.776   0.665   5.487
 5849TIP3    H217481   5.859   0.545   5.526
 5850TIP3   OH217482   4.444   1.053   5.577
 5850TIP3    H117483   4.497   1.035   5.658
 5850TIP3    H217484   4.372   0.988   5.585
 5851TIP3   OH217485   5.612   0.416   5.488
 5851TIP3    H117486   5.612   0.451   5.577
 5851TIP3    H217487   5.599   0.498   5.435
 5852TIP3   OH217488   5.279   0.538   4.028
 5852TIP3    H117489   5.244   0.520   3.938
 5852TIP3    H217490   5.356   0.595   4.006
 5853TIP3   OH217491   4.792   0.395   5.394
 5853TIP3    H117492   4.733   0.415   5.469
 5853TIP3    H217493   4.778   0.473   5.337
 5854TIP3   OH217494   4.660   0.276   4.901
 5854TIP3    H117495   4.565   0.256   4.911
 5854TIP3    H217496   4.676   0.245   4.808
 5855TIP3   OH217497   5.143   0.364   4.619
 5855TIP3    H117498   5.095   0.438   4.576
 5855TIP3    H217499   5.210   0.341   4.552
 5856TIP3   OH217500   5.333   0.666   5.696
 5856TIP3    H117501   5.310   0.584   5.746
 5856TIP3    H217502   5.428   0.675   5.718
 5857TIP3   OH217503   5.287   0.425   4.883
 5857TIP3    H117504   5.239   0.474   4.814
 5857TIP3    H217505   5.312   0.344   4.831
 5858TIP3   OH217506   4.594   0.425   5.590
 5858TIP3    H117507   4.626   0.486   5.658
 5858TIP3    H217508   4.581   0.342   5.639
 5859TIP3   OH217509   4.226   0.030   4.723
 5859TIP3    H117510   4.241   0.031   4.626
 5859TIP3    H217511   4.130   0.049   4.725
 5860TIP3   OH217512   5.292   0.639   5.278
 5860TIP3    H117513   5.340   0.572   5.225
 5860TIP3    H217514   5.281   0.590   5.362
 5861TIP3   OH217515   4.409   0.154   4.948
 5861TIP3    H117516   4.316   0.183   4.932
 5861TIP3    H217517   4.409   0.071   4.897
 5862TIP3   OH217518   4.702   0.171   4.653
 5862TIP3    H117519   4.794   0.160   4.622
 5862TIP3    H217520   4.650   0.165   4.571
 5863TIP3   OH217521   4.533   0.156   4.426
 5863TIP3    H117522   4.458   0.141   4.366
 5863TIP3    H217523   4.593   0.204   4.364
 5864TIP3   OH217524   5.651   1.861   5.376
 5864TIP3    H117525   5.649   1.888   5.282
 5864TIP3    H217526   5.725   1.916   5.410
 5865TIP3   OH217527   4.604   0.975   5.798
 5865TIP3    H117528   4.687   1.003   5.842
 5865TIP3    H217529   4.543   0.976   5.874
 5866TIP3   OH217530   5.058   0.424   5.053
 5866TIP3    H117531   5.143   0.400   5.013
 5866TIP3    H217532   5.068   0.391   5.146
 5867TIP3   OH217533   5.068   0.352   5.317
 5867TIP3    H117534   4.978   0.352   5.355
 5867TIP3    H217535   5.120   0.395   5.387
 5868TIP3   OH217536   4.782   0.714   4.435
 5868TIP3    H117537   4.709   0.650   4.424
 5868TIP3    H217538   4.765   0.748   4.526
 5869TIP3   OH217539   5.664   0.968   5.073
 5869TIP3    H117540   5.716   0.993   4.994
 5869TIP3    H217541   5.593   0.912   5.036
 5870TIP3   OH217542   5.216   0.094   4.256
 5870TIP3    H117543   5.158   0.046   4.318
 5870TIP3    H217544   5.255   0.160   4.318
 5871TIP3   OH217545   5.175   1.028   5.436
 5871TIP3    H117546   5.216   1.015   5.522
 5871TIP3    H217547   5.145   1.121   5.441
 5872TIP3   OH217548   5.319   0.287   4.416
 5872TIP3    H117549   5.417   0.297   4.424
 5872TIP3    H217550   5.295   0.366   4.363
 5873TIP3   OH217551   4.474   0.732   5.112
 5873TIP3    H117552   4.515   0.707   5.026
 5873TIP3    H217553   4.524   0.675   5.173
 5874TIP3   OH217554   4.930   0.863   4.258
 5874TIP3    H117555   4.882   0.949   4.264
 5874TIP3    H217556   4.875   0.808   4.318
 5875TIP3   OH217557   4.355   0.660   5.730
 5875TIP3    H117558   4.380   0.643   5.823
 5875TIP3    H217559   4.288   0.591   5.714
 5876TIP3   OH217560   5.083   0.766   5.751
 5876TIP3    H117561   5.027   0.716   5.690
 5876TIP3    H217562   5.173   0.742   5.719
 5877TIP3   OH217563   5.340   1.287   5.326
 5877TIP3    H117564   5.244   1.293   5.340
 5877TIP3    H217565   5.374   1.338   5.403
 5878TIP3   OH217566   5.754   0.363   4.228
 5878TIP3    H117567   5.693   0.313   4.169
 5878TIP3    H217568   5.741   0.453   4.192
 5879TIP3   OH217569   5.978   1.231   5.311
 5879TIP3    H117570   5.880   1.220   5.309
 5879TIP3    H217571   6.002   1.183   5.229
 5880TIP3   OH217572   5.449   1.184   4.146
 5880TIP3    H117573   5.430   1.115   4.211
 5880TIP3    H217574   5.466   1.134   4.064
 5881TIP3   OH217575   5.445   0.814   4.975
 5881TIP3    H117576   5.353   0.786   4.990
 5881TIP3    H217577   5.483   0.734   4.934
 5882TIP3   OH217578   4.578   1.040   4.737
 5882TIP3    H117579   4.581   1.121   4.684
 5882TIP3    H217580   4.483   1.026   4.747
 5883TIP3   OH217581   4.138   0.344   4.443
 5883TIP3    H117582   4.186   0.427   4.462
 5883TIP3    H217583   4.062   0.352   4.505
 5884TIP3   OH217584   4.712   0.804   4.680
 5884TIP3    H117585   4.680   0.894   4.699
 5884TIP3    H217586   4.679   0.755   4.757
 5885TIP3   OH217587   4.848   1.382   5.207
 5885TIP3    H117588   4.891   1.454   5.156
 5885TIP3    H217589   4.924   1.348   5.257
 5886TIP3   OH217590   4.496   1.280   4.590
 5886TIP3    H117591   4.411   1.289   4.636
 5886TIP3    H217592   4.529   1.373   4.594
 5887TIP3   OH217593   5.234   1.018   5.166
 5887TIP3    H117594   5.224   1.014   5.264
 5887TIP3    H217595   5.319   0.974   5.154
 5888TIP3   OH217596   5.210   0.908   4.049
 5888TIP3    H117597   5.264   0.884   4.128
 5888TIP3    H217598   5.122   0.886   4.081
 5889TIP3   OH217599   5.484   1.550   5.217
 5889TIP3    H117600   5.404   1.494   5.211
 5889TIP3    H217601   5.468   1.614   5.145
 5890TIP3   OH217602   5.549   1.385   3.868
 5890TIP3    H117603   5.590   1.460   3.821
 5890TIP3    H217604   5.469   1.431   3.901
 5891TIP3   OH217605   5.371   0.839   4.261
 5891TIP3    H117606   5.361   0.776   4.336
 5891TIP3    H217607   5.468   0.841   4.252
 5892TIP3   OH217608   4.282   1.246   5.368
 5892TIP3    H117609   4.337   1.172   5.397
 5892TIP3    H217610   4.319   1.317   5.423
 5893TIP3   OH217611   4.575   0.892   4.049
 5893TIP3    H117612   4.589   0.800   4.021
 5893TIP3    H217613   4.556   0.880   4.144
 5894TIP3   OH217614   4.519   0.896   4.322
 5894TIP3    H117615   4.593   0.870   4.379
 5894TIP3    H217616   4.523   0.994   4.328
 5895TIP3   OH217617   4.254   0.588   4.525
 5895TIP3    H117618   4.189   0.635   4.582
 5895TIP3    H217619   4.271   0.656   4.458
 5896TIP3   OH217620   4.785   1.092   4.268
 5896TIP3    H117621   4.699   1.120   4.305
 5896TIP3    H217622   4.805   1.168   4.211
 5897TIP3   OH217623   4.990   0.143   4.644
 5897TIP3    H117624   5.041   0.227   4.639
 5897TIP3    H217625   4.995   0.125   4.740
 5898TIP3   OH217626   5.255   0.476   5.494
 5898TIP3    H117627   5.255   0.538   5.569
 5898TIP3    H217628   5.323   0.414   5.522
 5899TIP3   OH217629   4.529   1.169   4.338
 5899TIP3    H117630   4.501   1.239   4.275
 5899TIP3    H217631   4.515   1.213   4.424
 5900TIP3   OH217632   5.536   0.569   4.858
 5900TIP3    H117633   5.459   0.518   4.887
 5900TIP3    H217634   5.609   0.528   4.911
 5901TIP3   OH217635   4.248   0.797   4.330
 5901TIP3    H117636   4.317   0.867   4.339
 5901TIP3    H217637   4.292   0.741   4.263
 5902TIP3   OH217638   4.195   0.074   4.450
 5902TIP3    H117639   4.187   0.172   4.445
 5902TIP3    H217640   4.104   0.046   4.436
 5903TIP3   OH217641   5.503   1.527   4.808
 5903TIP3    H117642   5.462   1.573   4.731
 5903TIP3    H217643   5.598   1.546   4.789
 5904TIP3   OH217644   4.118   1.013   4.715
 5904TIP3    H117645   4.050   1.044   4.776
 5904TIP3    H217646   4.089   1.055   4.631
 5905TIP3   OH217647   4.278   1.558   5.791
 5905TIP3    H117648   4.365   1.559   5.837
 5905TIP3    H217649   4.262   1.462   5.786
 5906TIP3   OH217650   4.752   1.524   5.829
 5906TIP3    H117651   4.845   1.504   5.847
 5906TIP3    H217652   4.736   1.458   5.759
 5907TIP3   OH217653   4.738   1.095   3.959
 5907TIP3    H117654   4.682   1.024   3.999
 5907TIP3    H217655   4.814   1.042   3.929
 5908TIP3   OH217656   5.398   1.421   5.555
 5908TIP3    H117657   5.374   1.363   5.631
 5908TIP3    H217658   5.468   1.477   5.593
 5909TIP3   OH217659   5.174   1.134   3.872
 5909TIP3    H117660   5.220   1.073   3.933
 5909TIP3    H217661   5.232   1.135   3.794
 5910TIP3   OH217662   4.405   0.961   5.991
 5910TIP3    H117663   4.423   0.865   5.992
 5910TIP3    H217664   4.318   0.964   5.944
 5911TIP3   OH217665   4.384   0.610   4.184
 5911TIP3    H117666   4.441   0.580   4.257
 5911TIP3    H217667   4.450   0.616   4.112
 5912TIP3   OH217668   5.013   1.038   5.762
 5912TIP3    H117669   4.978   1.058   5.674
 5912TIP3    H217670   5.044   0.945   5.753
 5913TIP3   OH217671   4.894   0.811   3.989
 5913TIP3    H117672   4.897   0.825   4.086
 5913TIP3    H217673   4.895   0.713   3.985
 5914TIP3   OH217674   5.504   1.058   5.370
 5914TIP3    H117675   5.581   1.095   5.323
 5914TIP3    H217676   5.438   1.128   5.352
 5915TIP3   OH217677   4.528   0.692   5.971
 5915TIP3    H117678   4.611   0.650   5.946
 5915TIP3    H217679   4.551   0.726   6.060
 5916TIP3   OH217680   4.586   0.517   4.402
 5916TIP3    H117681   4.567   0.479   4.490
 5916TIP3    H217682   4.625   0.441   4.354
 5917TIP3   OH217683   4.855   0.603   5.626
 5917TIP3    H117684   4.776   0.661   5.624
 5917TIP3    H217685   4.904   0.632   5.545
 5918TIP3   OH217686   4.691   0.308   4.251
 5918TIP3    H117687   4.664   0.312   4.157
 5918TIP3    H217688   4.788   0.315   4.242
 5919TIP3   OH217689   5.381   0.983   5.767
 5919TIP3    H117690   5.454   0.955   5.710
 5919TIP3    H217691   5.376   0.909   5.831
 5920TIP3   OH217692   5.514   0.638   3.906
 5920TIP3    H117693   5.490   0.596   3.822
 5920TIP3    H217694   5.483   0.730   3.887
 5921TIP3   OH217695   4.948   0.389   5.755
 5921TIP3    H117696   4.904   0.327   5.696
 5921TIP3    H217697   4.923   0.474   5.712
 5922TIP3   OH217698   5.022   0.695   5.435
 5922TIP3    H117699   5.104   0.697   5.383
 5922TIP3    H217700   4.968   0.763   5.389
 5923TIP3   OH217701   5.587   0.665   5.800
 5923TIP3    H117702   5.626   0.608   5.869
 5923TIP3    H217703   5.666   0.706   5.761
 5924TIP3   OH217704   5.637   0.914   5.558
 5924TIP3    H117705   5.580   0.968   5.497
 5924TIP3    H217706   5.725   0.933   5.518
 5925TIP3   OH217707   4.825   0.511   5.984
 5925TIP3    H117708   4.790   0.428   6.015
 5925TIP3    H217709   4.889   0.482   5.916
 5926TIP3   OH217710   5.231   0.440   5.793
 5926TIP3    H117711   5.257   0.412   5.883
 5926TIP3    H217712   5.134   0.427   5.797
 5927TIP3   OH217713   4.500   1.370   4.149
 5927TIP3    H117714   4.596   1.365   4.131
 5927TIP3    H217715   4.471   1.421   4.071
 5928TIP3   OH217716   3.980   0.753   4.366
 5928TIP3    H117717   4.075   0.776   4.352
 5928TIP3    H217718   3.975   0.665   4.323
 5929TIP3   OH217719   3.890   1.365   4.784
 5929TIP3    H117720   3.827   1.301   4.745
 5929TIP3    H217721   3.938   1.306   4.847
 5930TIP3   OH217722   4.029   1.214   4.967
 5930TIP3    H117723   4.021   1.141   5.032
 5930TIP3    H217724   4.083   1.277   5.019
 5931TIP3   OH217725   5.756   1.620   4.765
 5931TIP3    H117726   5.783   1.648   4.855
 5931TIP3    H217727   5.823   1.661   4.709
 5932TIP3   OH217728   5.786   1.635   5.047
 5932TIP3    H117729   5.743   1.546   5.044
 5932TIP3    H217730   5.861   1.614   5.106
 5933TIP3   OH217731   5.835   1.315   5.621
 5933TIP3    H117732   5.762   1.322   5.685
 5933TIP3    H217733   5.876   1.403   5.627
 5934TIP3   OH217734   5.651   0.826   4.237
 5934TIP3    H117735   5.718   0.892   4.212
 5934TIP3    H217736   5.692   0.788   4.318
 5935TIP3   OH217737   5.774   0.696   4.440
 5935TIP3    H117738   5.710   0.659   4.505
 5935TIP3    H217739   5.842   0.737   4.499
 5936TIP3   OH217740   5.834   1.090   4.884
 5936TIP3    H117741   5.894   1.023   4.842
 5936TIP3    H217742   5.823   1.154   4.812
 5937TIP3   OH217743   5.662   1.385   5.070
 5937TIP3    H117744   5.590   1.425   5.122
 5937TIP3    H217745   5.613   1.334   5.002
 5938TIP3   OH217746   5.709   0.598   4.092
 5938TIP3    H117747   5.639   0.611   4.023
 5938TIP3    H217748   5.689   0.676   4.149
 5939TIP3   OH217749   5.581   0.260   4.033
 5939TIP3    H117750   5.559   0.343   3.989
 5939TIP3    H217751   5.526   0.197   3.984
 5940TIP3   OH217752   5.587   0.562   4.589
 5940TIP3    H117753   5.595   0.467   4.573
 5940TIP3    H217754   5.576   0.568   4.686
 5941TIP3   OH217755   4.216   0.628   5.338
 5941TIP3    H117756   4.214   0.596   5.245
 5941TIP3    H217757   4.313   0.628   5.355
 5942TIP3   OH217758   5.881   0.971   5.445
 5942TIP3    H117759   5.952   0.906   5.430
 5942TIP3    H217760   5.891   1.031   5.370
 5943TIP3   OH217761   6.071   0.790   5.543
 5943TIP3    H117762   5.990   0.737   5.533
 5943TIP3    H217763   6.135   0.734   5.494
 5944TIP3   OH217764   5.589   0.306   4.454
 5944TIP3    H117765   5.619   0.229   4.507
 5944TIP3    H217766   5.658   0.313   4.385
 5945TIP3   OH217767   5.745   0.453   4.996
 5945TIP3    H117768   5.830   0.471   4.949
 5945TIP3    H217769   5.760   0.504   5.076
 5946TIP3   OH217770   4.430   0.308   6.015
 5946TIP3    H117771   4.521   0.285   5.992
 5946TIP3    H217772   4.397   0.224   6.052
 5947TIP3   OH217773   4.194   0.277   5.415
 5947TIP3    H117774   4.240   0.276   5.329
 5947TIP3    H217775   4.229   0.358   5.455
 5948TIP3   OH217776   5.337   1.484   4.421
 5948TIP3    H117777   5.393   1.472   4.342
 5948TIP3    H217778   5.389   1.548   4.473
 5949TIP3   OH217779   4.438   1.293   5.806
 5949TIP3    H117780   4.347   1.261   5.793
 5949TIP3    H217781   4.456   1.270   5.898
 5950TIP3   OH217782   4.619   1.320   5.353
 5950TIP3    H117783   4.575   1.399   5.315
 5950TIP3    H217784   4.707   1.331   5.312
 5951TIP3   OH217785   5.070   1.565   5.506
 5951TIP3    H117786   5.120   1.558   5.589
 5951TIP3    H217787   5.133   1.615   5.450
 5952TIP3   OH217788   5.242   1.716   5.354
 5952TIP3    H117789   5.314   1.666   5.313
 5952TIP3    H217790   5.294   1.775   5.413
 5953TIP3   OH217791   4.294   1.575   5.378
 5953TIP3    H117792   4.206   1.613   5.358
 5953TIP3    H217793   4.309   1.613   5.466
 5954TIP3   OH217794   4.532   1.555   5.238
 5954TIP3    H117795   4.445   1.568   5.281
 5954TIP3    H217796   4.514   1.588   5.147
 5955TIP3   OH217797   4.957   1.584   5.037
 5955TIP3    H117798   4.891   1.607   4.969
 5955TIP3    H217799   4.973   1.670   5.080
 5956TIP3   OH217800   5.228   1.523   5.087
 5956TIP3    H117801   5.134   1.541   5.067
 5956TIP3    H217802   5.273   1.598   5.046
 5957TIP3   OH217803   5.430   1.712   5.001
 5957TIP3    H117804   5.420   1.798   4.955
 5957TIP3    H217805   5.459   1.653   4.929
 5958TIP3   OH217806   4.205   1.368   5.125
 5958TIP3    H117807   4.235   1.344   5.216
 5958TIP3    H217808   4.279   1.328   5.074
 5959TIP3   OH217809   4.402   1.243   4.983
 5959TIP3    H117810   4.418   1.158   5.031
 5959TIP3    H217811   4.493   1.280   4.980
 5960TIP3   OH217812   4.668   1.336   4.988
 5960TIP3    H117813   4.700   1.244   4.976
 5960TIP3    H217814   4.716   1.359   5.070
 5961TIP3   OH217815   3.994   1.145   4.516
 5961TIP3    H117816   3.909   1.113   4.481
 5961TIP3    H217817   3.987   1.239   4.491
 5962TIP3   OH217818   4.768   1.329   4.099
 5962TIP3    H117819   4.856   1.352   4.062
 5962TIP3    H217820   4.746   1.254   4.039
 5963TIP3   OH217821   5.487   1.450   4.191
 5963TIP3    H117822   5.477   1.353   4.178
 5963TIP3    H217823   5.443   1.484   4.110
 5964TIP3   OH217824   4.071   1.164   4.153
 5964TIP3    H117825   4.077   1.193   4.245
 5964TIP3    H217826   4.159   1.123   4.138
 5965TIP3   OH217827   5.713   1.593   5.379
 5965TIP3    H117828   5.634   1.561   5.331
 5965TIP3    H217829   5.694   1.689   5.382
 5966TIP3   OH217830   6.979   0.965   4.143
 5966TIP3    H117831   6.953   1.057   4.124
 5966TIP3    H217832   6.900   0.919   4.111
 5967TIP3   OH217833   6.985   0.963   4.523
 5967TIP3    H117834   7.011   0.941   4.615
 5967TIP3    H217835   6.934   0.885   4.497
 5968TIP3   OH217836   6.278   0.862   4.880
 5968TIP3    H117837   6.295   0.791   4.945
 5968TIP3    H217838   6.361   0.911   4.883
 5969TIP3   OH217839   7.227   1.265   4.207
 5969TIP3    H117840   7.205   1.204   4.278
 5969TIP3    H217841   7.249   1.346   4.257
 5970TIP3   OH217842   6.250   1.273   4.614
 5970TIP3    H117843   6.240   1.175   4.617
 5970TIP3    H217844   6.347   1.280   4.607
 5971TIP3   OH217845   5.949   0.482   4.411
 5971TIP3    H117846   5.900   0.565   4.425
 5971TIP3    H217847   5.883   0.431   4.360
 5972TIP3   OH217848   6.009   0.767   4.560
 5972TIP3    H117849   6.052   0.689   4.604
 5972TIP3    H217850   6.082   0.804   4.509
 5973TIP3   OH217851   6.834   1.701   4.225
 5973TIP3    H117852   6.901   1.660   4.168
 5973TIP3    H217853   6.875   1.699   4.312
 5974TIP3   OH217854   6.776   1.191   4.574
 5974TIP3    H117855   6.814   1.118   4.524
 5974TIP3    H217856   6.859   1.236   4.600
 5975TIP3   OH217857   7.201   0.693   4.619
 5975TIP3    H117858   7.208   0.601   4.647
 5975TIP3    H217859   7.158   0.686   4.531
 5976TIP3   OH217860   6.518   0.311   4.532
 5976TIP3    H117861   6.495   0.404   4.509
 5976TIP3    H217862   6.431   0.270   4.529
 5977TIP3   OH217863   7.186   0.471   4.243
 5977TIP3    H117864   7.247   0.422   4.301
 5977TIP3    H217865   7.236   0.472   4.160
 5978TIP3   OH217866   6.142   0.559   4.671
 5978TIP3    H117867   6.233   0.560   4.708
 5978TIP3    H217868   6.156   0.496   4.599
 5979TIP3   OH217869   6.600   0.756   4.469
 5979TIP3    H117870   6.692   0.728   4.489
 5979TIP3    H217871   6.559   0.670   4.446
 5980TIP3   OH217872   7.825   0.701   4.765
 5980TIP3    H117873   7.752   0.759   4.735
 5980TIP3    H217874   7.886   0.763   4.807
 5981TIP3   OH217875   6.877   1.191   4.009
 5981TIP3    H117876   6.829   1.173   3.927
 5981TIP3    H217877   6.832   1.274   4.037
 5982TIP3   OH217878   6.632   1.112   4.802
 5982TIP3    H117879   6.568   1.177   4.838
 5982TIP3    H217880   6.671   1.162   4.727
 5983TIP3   OH217881   6.400   0.518   4.733
 5983TIP3    H117882   6.463   0.566   4.789
 5983TIP3    H217883   6.425   0.426   4.754
 5984TIP3   OH217884   6.459   1.306   4.900
 5984TIP3    H117885   6.433   1.392   4.861
 5984TIP3    H217886   6.379   1.288   4.953
 5985TIP3   OH217887   5.853   0.996   4.134
 5985TIP3    H117888   5.813   1.026   4.051
 5985TIP3    H217889   5.884   1.081   4.172
 5986TIP3   OH217890   7.296   1.512   4.369
 5986TIP3    H117891   7.208   1.503   4.412
 5986TIP3    H217892   7.284   1.599   4.324
 5987TIP3   OH217893   7.001   1.557   4.055
 5987TIP3    H117894   7.049   1.476   4.027
 5987TIP3    H217895   7.058   1.625   4.012
 5988TIP3   OH217896   7.141   1.336   3.952
 5988TIP3    H117897   7.079   1.265   3.931
 5988TIP3    H217898   7.178   1.306   4.038
 5989TIP3   OH217899   7.521   1.423   4.718
 5989TIP3    H117900   7.505   1.347   4.659
 5989TIP3    H217901   7.499   1.499   4.660
 5990TIP3   OH217902   6.809   0.819   3.972
 5990TIP3    H117903   6.726   0.871   3.955
 5990TIP3    H217904   6.851   0.823   3.884
 5991TIP3   OH217905   6.768   0.601   3.692
 5991TIP3    H117906   6.838   0.651   3.738
 5991TIP3    H217907   6.819   0.531   3.650
 5992TIP3   OH217908   7.707   1.055   4.557
 5992TIP3    H117909   7.627   1.111   4.564
 5992TIP3    H217910   7.742   1.085   4.471
 5993TIP3   OH217911   7.156   0.899   3.946
 5993TIP3    H117912   7.100   0.925   4.023
 5993TIP3    H217913   7.240   0.878   3.992
 5994TIP3   OH217914   7.390   0.941   4.860
 5994TIP3    H117915   7.386   1.024   4.911
 5994TIP3    H217916   7.302   0.944   4.816
 5995TIP3   OH217917   6.390   0.895   4.361
 5995TIP3    H117918   6.352   0.836   4.293
 5995TIP3    H217919   6.468   0.844   4.391
 5996TIP3   OH217920   6.519   1.307   4.512
 5996TIP3    H117921   6.499   1.269   4.426
 5996TIP3    H217922   6.609   1.274   4.530
 5997TIP3   OH217923   6.538   0.863   4.725
 5997TIP3    H117924   6.561   0.845   4.632
 5997TIP3    H217925   6.573   0.953   4.740
 5998TIP3   OH217926   7.061   1.506   4.498
 5998TIP3    H117927   7.037   1.588   4.545
 5998TIP3    H217928   7.037   1.435   4.561
 5999TIP3   OH217929   6.664   1.424   5.046
 5999TIP3    H117930   6.603   1.487   5.089
 5999TIP3    H217931   6.599   1.371   4.994
 6000TIP3   OH217932   7.001   0.754   3.770
 6000TIP3    H117933   7.056   0.818   3.822
 6000TIP3    H217934   7.026   0.779   3.678
 6001TIP3   OH217935   6.409   0.986   5.137
 6001TIP3    H117936   6.414   1.067   5.192
 6001TIP3    H217937   6.313   0.976   5.129
 6002TIP3   OH217938   6.744   1.435   4.046
 6002TIP3    H117939   6.816   1.494   4.078
 6002TIP3    H217940   6.681   1.500   4.011
 6003TIP3   OH217941   6.459   1.593   5.129
 6003TIP3    H117942   6.424   1.594   5.038
 6003TIP3    H217943   6.378   1.571   5.182
 6004TIP3   OH217944   6.259   0.737   4.160
 6004TIP3    H117945   6.191   0.786   4.109
 6004TIP3    H217946   6.211   0.657   4.184
 6005TIP3   OH217947   7.307   1.370   3.367
 6005TIP3    H117948   7.315   1.467   3.355
 6005TIP3    H217949   7.400   1.341   3.358
 6006TIP3   OH217950   6.038   1.089   5.084
 6006TIP3    H117951   5.971   1.097   5.013
 6006TIP3    H217952   6.042   0.992   5.093
 6007TIP3   OH217953   5.891   1.323   4.697
 6007TIP3    H117954   5.986   1.308   4.697
 6007TIP3    H217955   5.883   1.395   4.761
 6008TIP3   OH217956   7.763   1.772   4.769
 6008TIP3    H117957   7.758   1.676   4.782
 6008TIP3    H217958   7.678   1.799   4.810
 6009TIP3   OH217959   6.863   1.553   4.901
 6009TIP3    H117960   6.861   1.646   4.931
 6009TIP3    H217961   6.790   1.514   4.954
 6010TIP3   OH217962   6.620   1.680   3.850
 6010TIP3    H117963   6.577   1.668   3.764
 6010TIP3    H217964   6.595   1.770   3.875
 6011TIP3   OH217965   6.059   1.533   4.235
 6011TIP3    H117966   6.109   1.525   4.320
 6011TIP3    H217967   6.003   1.454   4.240
 6012TIP3   OH217968   6.822   1.584   3.490
 6012TIP3    H117969   6.882   1.515   3.454
 6012TIP3    H217970   6.856   1.595   3.581
 6013TIP3   OH217971   6.875   1.632   3.761
 6013TIP3    H117972   6.787   1.643   3.804
 6013TIP3    H217973   6.929   1.608   3.837
 6014TIP3   OH217974   7.644   0.886   5.042
 6014TIP3    H117975   7.567   0.925   4.998
 6014TIP3    H217976   7.624   0.791   5.029
 6015TIP3   OH217977   6.234   1.298   5.060
 6015TIP3    H117978   6.286   1.288   5.143
 6015TIP3    H217979   6.167   1.228   5.071
 6016TIP3   OH217980   7.436   0.688   4.984
 6016TIP3    H117981   7.384   0.703   5.064
 6016TIP3    H217982   7.404   0.759   4.925
 6017TIP3   OH217983   7.073   0.788   3.507
 6017TIP3    H117984   7.039   0.779   3.417
 6017TIP3    H217985   7.141   0.857   3.494
 6018TIP3   OH217986   6.592   0.649   4.886
 6018TIP3    H117987   6.531   0.666   4.961
 6018TIP3    H217988   6.576   0.727   4.829
 6019TIP3   OH217989   6.456   0.536   4.386
 6019TIP3    H117990   6.363   0.512   4.400
 6019TIP3    H217991   6.471   0.501   4.295
 6020TIP3   OH217992   6.941   0.623   4.108
 6020TIP3    H117993   6.892   0.695   4.064
 6020TIP3    H217994   7.006   0.599   4.040
 6021TIP3   OH217995   7.129   0.925   5.187
 6021TIP3    H117996   7.104   0.842   5.233
 6021TIP3    H217997   7.225   0.930   5.209
 6022TIP3   OH217998   7.086   0.686   4.369
 6022TIP3    H117999   7.031   0.730   4.302
 6022TIP3    H218000   7.111   0.605   4.318
 6023TIP3   OH218001   6.401   0.680   5.081
 6023TIP3    H118002   6.381   0.750   5.145
 6023TIP3    H218003   6.336   0.613   5.109
 6024TIP3   OH218004   6.022   0.283   4.207
 6024TIP3    H118005   6.035   0.287   4.110
 6024TIP3    H218006   5.928   0.307   4.213
 6025TIP3   OH218007   7.113   0.898   4.770
 6025TIP3    H118008   7.151   0.826   4.713
 6025TIP3    H218009   7.089   0.845   4.849
 6026TIP3   OH218010   6.208   0.406   4.435
 6026TIP3    H118011   6.115   0.439   4.422
 6026TIP3    H218012   6.203   0.328   4.378
 6027TIP3   OH218013   6.500   0.427   4.139
 6027TIP3    H118014   6.590   0.417   4.104
 6027TIP3    H218015   6.444   0.422   4.059
 6028TIP3   OH218016   6.331   0.410   3.913
 6028TIP3    H118017   6.253   0.399   3.854
 6028TIP3    H218018   6.389   0.460   3.852
 6029TIP3   OH218019   7.448   2.117   4.864
 6029TIP3    H118020   7.446   2.146   4.771
 6029TIP3    H218021   7.524   2.169   4.899
 6030TIP3   OH218022   6.397   1.232   5.279
 6030TIP3    H118023   6.474   1.272   5.324
 6030TIP3    H218024   6.335   1.224   5.354
 6031TIP3   OH218025   6.855   0.684   4.541
 6031TIP3    H118026   6.938   0.654   4.503
 6031TIP3    H218027   6.861   0.651   4.635
 6032TIP3   OH218028   6.864   0.610   4.803
 6032TIP3    H118029   6.773   0.606   4.838
 6032TIP3    H218030   6.913   0.655   4.875
 6033TIP3   OH218031   6.580   0.968   3.925
 6033TIP3    H118032   6.505   0.907   3.913
 6033TIP3    H218033   6.561   1.004   4.015
 6034TIP3   OH218034   7.479   1.206   4.554
 6034TIP3    H118035   7.502   1.256   4.473
 6034TIP3    H218036   7.392   1.166   4.529
 6035TIP3   OH218037   7.012   0.353   3.743
 6035TIP3    H118038   6.953   0.302   3.803
 6035TIP3    H218039   7.051   0.417   3.806
 6036TIP3   OH218040   6.979   1.290   4.921
 6036TIP3    H118041   7.000   1.271   5.014
 6036TIP3    H218042   6.942   1.380   4.925
 6037TIP3   OH218043   7.117   0.543   3.904
 6037TIP3    H118044   7.214   0.555   3.912
 6037TIP3    H218045   7.091   0.621   3.851
 6038TIP3   OH218046   6.276   0.996   4.597
 6038TIP3    H118047   6.319   0.961   4.516
 6038TIP3    H218048   6.303   0.932   4.665
 6039TIP3   OH218049   6.727   1.118   3.747
 6039TIP3    H118050   6.680   1.205   3.750
 6039TIP3    H218051   6.672   1.065   3.807
 6040TIP3   OH218052   6.876   1.028   5.250
 6040TIP3    H118053   6.812   0.976   5.198
 6040TIP3    H218054   6.962   0.999   5.211
 6041TIP3   OH218055   7.141   1.541   4.822
 6041TIP3    H118056   7.045   1.546   4.831
 6041TIP3    H218057   7.169   1.598   4.897
 6042TIP3   OH218058   7.553   0.617   3.715
 6042TIP3    H118059   7.491   0.568   3.655
 6042TIP3    H218060   7.539   0.708   3.680
 6043TIP3   OH218061   7.771   1.479   4.805
 6043TIP3    H118062   7.673   1.473   4.795
 6043TIP3    H218063   7.799   1.452   4.715
 6044TIP3   OH218064   7.261   1.440   3.637
 6044TIP3    H118065   7.219   1.378   3.699
 6044TIP3    H218066   7.259   1.392   3.553
 6045TIP3   OH218067   7.246   1.070   4.471
 6045TIP3    H118068   7.153   1.044   4.485
 6045TIP3    H218069   7.280   0.991   4.424
 6046TIP3   OH218070   6.375   1.295   4.223
 6046TIP3    H118071   6.376   1.378   4.170
 6046TIP3    H218072   6.281   1.285   4.238
 6047TIP3   OH218073   5.933   0.601   3.929
 6047TIP3    H118074   5.982   0.684   3.948
 6047TIP3    H218075   5.858   0.609   3.991
 6048TIP3   OH218076   6.511   1.061   4.169
 6048TIP3    H118077   6.476   1.151   4.185
 6048TIP3    H218078   6.474   1.012   4.244
 6049TIP3   OH218079   6.643   1.640   4.693
 6049TIP3    H118080   6.682   1.713   4.640
 6049TIP3    H218081   6.721   1.608   4.740
 6050TIP3   OH218082   6.293   1.536   4.077
 6050TIP3    H118083   6.208   1.545   4.123
 6050TIP3    H218084   6.327   1.628   4.081
 6051TIP3   OH218085   7.029   1.272   4.653
 6051TIP3    H118086   7.019   1.273   4.751
 6051TIP3    H218087   7.112   1.223   4.643
 6052TIP3   OH218088   7.003   1.164   3.532
 6052TIP3    H118089   7.054   1.139   3.612
 6052TIP3    H218090   6.913   1.148   3.563
 6053TIP3   OH218091   7.281   1.806   4.699
 6053TIP3    H118092   7.199   1.755   4.690
 6053TIP3    H218093   7.267   1.874   4.629
 6054TIP3   OH218094   7.346   1.645   3.354
 6054TIP3    H118095   7.375   1.720   3.301
 6054TIP3    H218096   7.265   1.685   3.392
 6055TIP3   OH218097   7.164   1.089   3.743
 6055TIP3    H118098   7.156   1.032   3.822
 6055TIP3    H218099   7.261   1.098   3.736
 6056TIP3   OH218100   6.080   1.502   4.852
 6056TIP3    H118101   6.134   1.429   4.887
 6056TIP3    H218102   6.106   1.574   4.911
 6057TIP3   OH218103   6.371   1.146   3.534
 6057TIP3    H118104   6.388   1.054   3.509
 6057TIP3    H218105   6.353   1.137   3.630
 6058TIP3   OH218106   6.316   1.152   3.808
 6058TIP3    H118107   6.389   1.130   3.868
 6058TIP3    H218108   6.318   1.251   3.813
 6059TIP3   OH218109   6.050   0.845   4.011
 6059TIP3    H118110   5.985   0.891   4.069
 6059TIP3    H218111   6.066   0.914   3.945
 6060TIP3   OH218112   6.581   1.346   3.755
 6060TIP3    H118113   6.496   1.377   3.792
 6060TIP3    H218114   6.603   1.420   3.697
 6061TIP3   OH218115   6.792   0.398   4.131
 6061TIP3    H118116   6.842   0.483   4.128
 6061TIP3    H218117   6.782   0.385   4.226
 6062TIP3   OH218118   7.057   0.734   4.981
 6062TIP3    H118119   7.045   0.800   5.052
 6062TIP3    H218120   7.096   0.661   5.031
 6063TIP3   OH218121   6.324   1.424   3.824
 6063TIP3    H118122   6.297   1.495   3.761
 6063TIP3    H218123   6.311   1.469   3.911
 6064TIP3   OH218124   7.334   0.826   4.346
 6064TIP3    H118125   7.253   0.778   4.369
 6064TIP3    H218126   7.402   0.779   4.398
 6065TIP3   OH218127   6.044   1.054   3.817
 6065TIP3    H118128   6.109   1.125   3.827
 6065TIP3    H218129   6.090   1.000   3.749
 6066TIP3   OH218130   5.991   0.332   3.933
 6066TIP3    H118131   5.983   0.430   3.930
 6066TIP3    H218132   5.899   0.304   3.929
 6067TIP3   OH218133   7.294   1.785   4.289
 6067TIP3    H118134   7.248   1.829   4.214
 6067TIP3    H218135   7.388   1.806   4.267
 6068TIP3   OH218136   5.912   1.264   4.202
 6068TIP3    H118137   5.850   1.298   4.268
 6068TIP3    H218138   5.881   1.310   4.120
 6069TIP3   OH218139   6.072   1.813   5.275
 6069TIP3    H118140   6.158   1.812   5.322
 6069TIP3    H218141   6.051   1.718   5.273
 6070TIP3   OH218142   6.553   1.771   5.324
 6070TIP3    H118143   6.649   1.758   5.323
 6070TIP3    H218144   6.526   1.713   5.249
 6071TIP3   OH218145   6.528   1.358   3.450
 6071TIP3    H118146   6.482   1.278   3.485
 6071TIP3    H218147   6.605   1.318   3.404
 6072TIP3   OH218148   7.192   1.683   5.052
 6072TIP3    H118149   7.185   1.614   5.122
 6072TIP3    H218150   7.269   1.735   5.082
 6073TIP3   OH218151   6.977   1.396   3.358
 6073TIP3    H118152   7.018   1.327   3.414
 6073TIP3    H218153   7.033   1.395   3.278
 6074TIP3   OH218154   6.200   1.222   5.477
 6074TIP3    H118155   6.224   1.127   5.475
 6074TIP3    H218156   6.114   1.221   5.430
 6075TIP3   OH218157   6.179   0.866   3.669
 6075TIP3    H118158   6.236   0.838   3.743
 6075TIP3    H218159   6.247   0.873   3.598
 6076TIP3   OH218160   6.811   1.302   5.249
 6076TIP3    H118161   6.768   1.322   5.163
 6076TIP3    H218162   6.839   1.209   5.239
 6077TIP3   OH218163   6.688   1.058   3.476
 6077TIP3    H118164   6.690   1.078   3.572
 6077TIP3    H218165   6.685   0.960   3.477
 6078TIP3   OH218166   7.303   1.312   4.855
 6078TIP3    H118167   7.377   1.359   4.812
 6078TIP3    H218168   7.231   1.378   4.844
 6079TIP3   OH218169   6.328   0.979   5.454
 6079TIP3    H118170   6.342   0.885   5.439
 6079TIP3    H218171   6.353   0.991   5.548
 6080TIP3   OH218172   6.382   0.774   3.890
 6080TIP3    H118173   6.361   0.737   3.978
 6080TIP3    H218174   6.420   0.696   3.843
 6081TIP3   OH218175   6.664   0.875   5.124
 6081TIP3    H118176   6.574   0.914   5.119
 6081TIP3    H218177   6.701   0.895   5.036
 6082TIP3   OH218178   6.487   0.563   3.738
 6082TIP3    H118179   6.459   0.569   3.644
 6082TIP3    H218180   6.584   0.573   3.728
 6083TIP3   OH218181   7.177   1.241   5.255
 6083TIP3    H118182   7.247   1.211   5.197
 6083TIP3    H218183   7.167   1.166   5.317
 6084TIP3   OH218184   7.320   0.891   3.392
 6084TIP3    H118185   7.284   0.852   3.311
 6084TIP3    H218186   7.289   0.984   3.378
 6085TIP3   OH218187   6.743   0.646   5.240
 6085TIP3    H118188   6.689   0.587   5.186
 6085TIP3    H218189   6.718   0.733   5.200
 6086TIP3   OH218190   6.824   0.954   4.918
 6086TIP3    H118191   6.902   0.964   4.862
 6086TIP3    H218192   6.762   1.018   4.877
 6087TIP3   OH218193   7.384   0.918   5.287
 6087TIP3    H118194   7.419   0.859   5.356
 6087TIP3    H218195   7.461   0.974   5.266
 6088TIP3   OH218196   7.434   1.167   5.040
 6088TIP3    H118197   7.374   1.221   4.982
 6088TIP3    H218198   7.521   1.191   4.999
 6089TIP3   OH218199   6.661   0.750   5.487
 6089TIP3    H118200   6.574   0.711   5.497
 6089TIP3    H218201   6.693   0.712   5.402
 6090TIP3   OH218202   7.025   0.697   5.277
 6090TIP3    H118203   7.049   0.674   5.368
 6090TIP3    H218204   6.928   0.683   5.278
 6091TIP3   OH218205   6.295   1.624   3.634
 6091TIP3    H118206   6.391   1.620   3.619
 6091TIP3    H218207   6.269   1.678   3.557
 6092TIP3   OH218208   5.775   1.011   3.850
 6092TIP3    H118209   5.870   1.033   3.839
 6092TIP3    H218210   5.772   0.922   3.809
 6093TIP3   OH218211   5.691   1.620   4.269
 6093TIP3    H118212   5.624   1.559   4.232
 6093TIP3    H218213   5.736   1.562   4.334
 6094TIP3   OH218214   5.827   1.468   4.453
 6094TIP3    H118215   5.818   1.399   4.521
 6094TIP3    H218216   5.878   1.534   4.505
 6095TIP3   OH218217   7.555   1.864   4.252
 6095TIP3    H118218   7.574   1.904   4.340
 6095TIP3    H218219   7.610   1.918   4.194
 6096TIP3   OH218220   7.579   1.894   4.533
 6096TIP3    H118221   7.538   1.805   4.532
 6096TIP3    H218222   7.656   1.877   4.589
 6097TIP3   OH218223   7.632   1.567   5.110
 6097TIP3    H118224   7.556   1.577   5.172
 6097TIP3    H218225   7.669   1.657   5.109
 6098TIP3   OH218226   7.447   1.082   3.723
 6098TIP3    H118227   7.512   1.150   3.698
 6098TIP3    H218228   7.488   1.047   3.805
 6099TIP3   OH218229   7.569   0.962   3.935
 6099TIP3    H118230   7.499   0.916   3.987
 6099TIP3    H218231   7.620   1.006   4.005
 6100TIP3   OH218232   7.630   1.343   4.366
 6100TIP3    H118233   7.673   1.286   4.302
 6100TIP3    H218234   7.616   1.425   4.314
 6101TIP3   OH218235   7.457   1.640   4.560
 6101TIP3    H118236   7.388   1.688   4.610
 6101TIP3    H218237   7.405   1.597   4.489
 6102TIP3   OH218238   7.508   0.855   3.580
 6102TIP3    H118239   7.439   0.863   3.510
 6102TIP3    H218240   7.484   0.933   3.634
 6103TIP3   OH218241   7.377   0.519   3.523
 6103TIP3    H118242   7.351   0.601   3.479
 6103TIP3    H218243   7.324   0.454   3.474
 6104TIP3   OH218244   7.388   0.819   4.076
 6104TIP3    H118245   7.388   0.723   4.055
 6104TIP3    H218246   7.373   0.821   4.173
 6105TIP3   OH218247   6.018   0.918   4.796
 6105TIP3    H118248   6.017   0.867   4.713
 6105TIP3    H218249   6.107   0.896   4.832
 6106TIP3   OH218250   7.677   1.232   4.934
 6106TIP3    H118251   7.750   1.168   4.924
 6106TIP3    H218252   7.702   1.303   4.872
 6107TIP3   OH218253   7.856   1.032   4.954
 6107TIP3    H118254   7.781   0.979   4.991
 6107TIP3    H218255   7.930   0.969   4.969
 6108TIP3   OH218256   7.388   0.567   3.943
 6108TIP3    H118257   7.415   0.488   3.995
 6108TIP3    H218258   7.455   0.570   3.873
 6109TIP3   OH218259   7.545   0.701   4.473
 6109TIP3    H118260   7.630   0.728   4.431
 6109TIP3    H218261   7.558   0.738   4.563
 6110TIP3   OH218262   7.605   0.848   4.702
 6110TIP3    H118263   7.527   0.883   4.751
 6110TIP3    H218264   7.636   0.928   4.655
 6111TIP3   OH218265   6.260   0.570   5.527
 6111TIP3    H118266   6.320   0.530   5.464
 6111TIP3    H218267   6.199   0.496   5.545
 6112TIP3   OH218268   5.989   0.527   4.910
 6112TIP3    H118269   6.042   0.552   4.832
 6112TIP3    H218270   6.016   0.595   4.976
 6113TIP3   OH218271   7.145   1.729   3.910
 6113TIP3    H118272   7.200   1.732   3.830
 6113TIP3    H218273   7.163   1.814   3.954
 6114TIP3   OH218274   6.239   1.542   5.295
 6114TIP3    H118275   6.146   1.517   5.276
 6114TIP3    H218276   6.245   1.524   5.389
 6115TIP3   OH218277   6.418   1.577   4.844
 6115TIP3    H118278   6.369   1.653   4.805
 6115TIP3    H218279   6.503   1.592   4.797
 6116TIP3   OH218280   6.860   1.819   4.979
 6116TIP3    H118281   6.901   1.822   5.068
 6116TIP3    H218282   6.925   1.872   4.927
 6117TIP3   OH218283   7.039   1.973   4.841
 6117TIP3    H118284   7.111   1.926   4.797
 6117TIP3    H218285   7.090   2.031   4.901
 6118TIP3   OH218286   6.092   1.832   4.868
 6118TIP3    H118287   6.003   1.866   4.843
 6118TIP3    H218288   6.104   1.875   4.953
 6119TIP3   OH218289   6.329   1.812   4.725
 6119TIP3    H118290   6.242   1.824   4.769
 6119TIP3    H218291   6.310   1.845   4.635
 6120TIP3   OH218292   6.756   1.837   4.525
 6120TIP3    H118293   6.689   1.853   4.455
 6120TIP3    H218294   6.765   1.927   4.563
 6121TIP3   OH218295   7.024   1.778   4.573
 6121TIP3    H118296   6.929   1.796   4.557
 6121TIP3    H218297   7.065   1.854   4.530
 6122TIP3   OH218298   7.230   1.972   4.487
 6122TIP3    H118299   7.213   2.059   4.443
 6122TIP3    H218300   7.252   1.915   4.411
 6123TIP3   OH218301   6.003   1.627   4.610
 6123TIP3    H118302   6.029   1.599   4.701
 6123TIP3    H218303   6.076   1.584   4.559
 6124TIP3   OH218304   6.197   1.499   4.468
 6124TIP3    H118305   6.212   1.415   4.519
 6124TIP3    H218306   6.288   1.536   4.466
 6125TIP3   OH218307   6.461   1.592   4.474
 6125TIP3    H118308   6.496   1.502   4.461
 6125TIP3    H218309   6.509   1.616   4.556
 6126TIP3   OH218310   5.792   1.399   4.001
 6126TIP3    H118311   5.706   1.369   3.967
 6126TIP3    H218312   5.784   1.495   3.985
 6127TIP3   OH218313   6.563   1.590   3.585
 6127TIP3    H118314   6.651   1.611   3.548
 6127TIP3    H218315   6.541   1.513   3.528
 6128TIP3   OH218316   7.291   1.709   3.673
 6128TIP3    H118317   7.281   1.612   3.664
 6128TIP3    H218318   7.238   1.741   3.598
 6129TIP3   OH218319   5.866   1.420   3.640
 6129TIP3    H118320   5.871   1.448   3.733
 6129TIP3    H218321   5.955   1.380   3.626
 6130TIP3   OH218322   7.512   1.850   4.860
 6130TIP3    H118323   7.432   1.819   4.813
 6130TIP3    H218324   7.493   1.946   4.866
 6131TIP3   OH218325   8.032   1.526   4.117
 6131TIP3    H118326   8.026   1.445   4.064
 6131TIP3    H218327   8.128   1.534   4.131
 6132TIP3   OH218328   7.752   0.759   3.916
 6132TIP3    H118329   7.682   0.826   3.907
 6132TIP3    H218330   7.717   0.687   3.863
 6133TIP3   OH218331   7.833   1.018   4.059
 6133TIP3    H118332   7.840   0.923   4.044
 6133TIP3    H218333   7.865   1.054   3.974
 6134TIP3   OH218334   7.652   1.249   3.618
 6134TIP3    H118335   7.600   1.277   3.540
 6134TIP3    H218336   7.675   1.336   3.657
 6135TIP3   OH218337   8.216   1.866   4.575
 6135TIP3    H118338   8.179   1.899   4.493
 6135TIP3    H218339   8.143   1.878   4.639
 6136TIP3   OH218340   7.838   1.387   4.557
 6136TIP3    H118341   7.765   1.361   4.498
 6136TIP3    H218342   7.870   1.301   4.593
 6137TIP3   OH218343   7.689   1.576   4.201
 6137TIP3    H118344   7.785   1.591   4.203
 6137TIP3    H218345   7.657   1.656   4.246
 6138TIP3   OH218346   7.836   1.782   3.718
 6138TIP3    H118347   7.910   1.783   3.781
 6138TIP3    H218348   7.771   1.731   3.768
 6139TIP3   OH218349   8.054   1.553   4.529
 6139TIP3    H118350   8.100   1.530   4.612
 6139TIP3    H218351   7.972   1.500   4.539
 6140TIP3   OH218352   7.815   0.533   3.683
 6140TIP3    H118353   7.825   0.552   3.588
 6140TIP3    H218354   7.720   0.555   3.696
 6141TIP3   OH218355   8.188   1.465   4.754
 6141TIP3    H118356   8.253   1.536   4.770
 6141TIP3    H218357   8.135   1.468   4.836
 6142TIP3   OH218358   7.933   1.175   4.700
 6142TIP3    H118359   7.975   1.168   4.788
 6142TIP3    H218360   7.872   1.100   4.699
 6143TIP3   OH218361   7.728   0.855   3.413
 6143TIP3    H118362   7.779   0.936   3.435
 6143TIP3    H218363   7.653   0.863   3.476
 6144TIP3   OH218364   7.881   1.759   4.339
 6144TIP3    H118365   7.935   1.697   4.391
 6144TIP3    H218366   7.899   1.844   4.381
 6145TIP3   OH218367   7.846   1.104   3.488
 6145TIP3    H118368   7.776   1.142   3.546
 6145TIP3    H218369   7.838   1.163   3.410
 6146TIP3   OH218370   7.834   1.290   3.285
 6146TIP3    H118371   7.899   1.357   3.314
 6146TIP3    H218372   7.860   1.279   3.191
 6147TIP3   OH218373   7.792   0.589   3.411
 6147TIP3    H118374   7.776   0.686   3.412
 6147TIP3    H218375   7.702   0.553   3.406
 6148TIP3   OH218376   7.698   1.507   3.691
 6148TIP3    H118377   7.640   1.549   3.755
 6148TIP3    H218378   7.684   1.564   3.613
 6149TIP3   OH218379   7.871   2.066   4.756
 6149TIP3    H118380   7.953   2.065   4.810
 6149TIP3    H218381   7.842   1.973   4.763
 6150TIP3   OH218382   7.997   1.472   4.965
 6150TIP3    H118383   8.014   1.376   4.961
 6150TIP3    H218384   7.911   1.478   4.918
 6151TIP3   OH218385   8.106   1.209   4.947
 6151TIP3    H118386   8.172   1.141   4.932
 6151TIP3    H218387   8.134   1.245   5.034
 6152TIP3   OH218388   7.564   1.264   3.339
 6152TIP3    H118389   7.659   1.279   3.322
 6152TIP3    H218390   7.551   1.176   3.297
 6153TIP3   OH218391   7.495   1.877   3.747
 6153TIP3    H118392   7.422   1.820   3.713
 6153TIP3    H218393   7.534   1.818   3.815
 6154TIP3   OH218394   7.633   1.723   3.931
 6154TIP3    H118395   7.605   1.660   4.000
 6154TIP3    H218396   7.678   1.789   3.987
 6155TIP3   OH218397   7.822   1.124   4.313
 6155TIP3    H118398   7.817   1.090   4.220
 6155TIP3    H218399   7.912   1.161   4.315
 6156TIP3   OH218400   8.023   0.820   4.989
 6156TIP3    H118401   8.118   0.801   4.992
 6156TIP3    H218402   7.986   0.738   5.026
 6157TIP3   OH218403   7.791   0.788   4.380
 6157TIP3    H118404   7.857   0.777   4.312
 6157TIP3    H218405   7.808   0.877   4.413
 6158TIP3   OH218406   8.041   1.789   4.790
 6158TIP3    H118407   7.948   1.770   4.765
 6158TIP3    H218408   8.035   1.782   4.886
 6159TIP3   OH218409   7.881   2.074   4.367
 6159TIP3    H118410   7.794   2.110   4.337
 6159TIP3    H218411   7.902   2.137   4.436
 6160TIP3   OH218412   8.125   2.049   4.221
 6160TIP3    H118413   8.037   2.067   4.258
 6160TIP3    H218414   8.118   2.091   4.133
 6161TIP3   OH218415   7.796   1.886   4.093
 6161TIP3    H118416   7.824   1.866   4.185
 6161TIP3    H218417   7.871   1.846   4.045
 6162TIP3   OH218418   7.987   1.745   3.956
 6162TIP3    H118419   7.994   1.671   4.020
 6162TIP3    H218420   8.082   1.765   3.942
 6163TIP3   OH218421   7.597   1.651   3.479
 6163TIP3    H118422   7.508   1.625   3.450
 6163TIP3    H218423   7.587   1.748   3.478
 6164TIP3   OH218424   7.661   1.687   3.140
 6164TIP3    H118425   7.624   1.728   3.221
 6164TIP3    H218426   7.738   1.640   3.175
 6165TIP3   OH218427   1.227   2.008   5.321
 6165TIP3    H118428   1.201   2.101   5.301
 6165TIP3    H218429   1.149   1.962   5.286
 6166TIP3   OH218430   1.235   2.006   5.699
 6166TIP3    H118431   1.260   1.984   5.790
 6166TIP3    H218432   1.182   1.928   5.673
 6167TIP3   OH218433   0.533   1.907   6.065
 6167TIP3    H118434   0.577   1.846   6.127
 6167TIP3    H218435   0.605   1.970   6.048
 6168TIP3   OH218436   1.473   2.310   5.385
 6168TIP3    H118437   1.455   2.249   5.458
 6168TIP3    H218438   1.501   2.391   5.433
 6169TIP3   OH218439   0.501   2.318   5.793
 6169TIP3    H118440   0.494   2.220   5.795
 6169TIP3    H218441   0.597   2.328   5.783
 6170TIP3   OH218442   0.267   1.822   5.761
 6170TIP3    H118443   0.324   1.752   5.799
 6170TIP3    H218444   0.305   1.835   5.674
 6171TIP3   OH218445   1.117   2.772   5.398
 6171TIP3    H118446   1.164   2.701   5.351
 6171TIP3    H218447   1.114   2.739   5.488
 6172TIP3   OH218448   1.024   2.235   5.752
 6172TIP3    H118449   1.062   2.165   5.697
 6172TIP3    H218450   1.107   2.280   5.778
 6173TIP3   OH218451   2.037   1.557   5.741
 6173TIP3    H118452   2.063   1.636   5.792
 6173TIP3    H218453   2.073   1.581   5.653
 6174TIP3   OH218454   1.441   1.737   5.782
 6174TIP3    H118455   1.475   1.647   5.800
 6174TIP3    H218456   1.404   1.725   5.693
 6175TIP3   OH218457   0.797   1.407   5.733
 6175TIP3    H118458   0.769   1.477   5.670
 6175TIP3    H218459   0.744   1.331   5.700
 6176TIP3   OH218460   1.465   1.495   5.360
 6176TIP3    H118461   1.543   1.498   5.416
 6176TIP3    H218462   1.499   1.531   5.276
 6177TIP3   OH218463   0.417   1.618   5.867
 6177TIP3    H118464   0.496   1.573   5.904
 6177TIP3    H218465   0.388   1.556   5.799
 6178TIP3   OH218466   0.852   1.802   5.647
 6178TIP3    H118467   0.945   1.775   5.663
 6178TIP3    H218468   0.813   1.719   5.612
 6179TIP3   OH218469   2.102   1.755   5.927
 6179TIP3    H118470   2.027   1.814   5.903
 6179TIP3    H218471   2.141   1.804   6.002
 6180TIP3   OH218472   0.791   1.376   6.172
 6180TIP3    H118473   0.736   1.419   6.104
 6180TIP3    H218474   0.731   1.376   6.248
 6181TIP3   OH218475   1.117   2.229   5.191
 6181TIP3    H118476   1.078   2.216   5.103
 6181TIP3    H218477   1.076   2.314   5.217
 6182TIP3   OH218478   0.880   2.157   5.978
 6182TIP3    H118479   0.817   2.224   6.014
 6182TIP3    H218480   0.921   2.206   5.904
 6183TIP3   OH218481   0.662   1.493   5.956
 6183TIP3    H118482   0.708   1.574   5.987
 6183TIP3    H218483   0.723   1.469   5.882
 6184TIP3   OH218484   0.709   2.350   6.075
 6184TIP3    H118485   0.685   2.437   6.035
 6184TIP3    H218486   0.629   2.337   6.130
 6185TIP3   OH218487   0.117   2.037   5.311
 6185TIP3    H118488   0.063   2.059   5.233
 6185TIP3    H218489   0.136   2.125   5.348
 6186TIP3   OH218490   1.541   2.553   5.547
 6186TIP3    H118491   1.451   2.548   5.587
 6186TIP3    H218492   1.536   2.641   5.503
 6187TIP3   OH218493   1.820   1.432   5.858
 6187TIP3    H118494   1.748   1.494   5.880
 6187TIP3    H218495   1.893   1.492   5.834
 6188TIP3   OH218496   1.145   1.127   5.898
 6188TIP3    H118497   1.119   1.033   5.888
 6188TIP3    H218498   1.061   1.163   5.935
 6189TIP3   OH218499   1.243   2.600   5.224
 6189TIP3    H118500   1.294   2.519   5.201
 6189TIP3    H218501   1.302   2.668   5.184
 6190TIP3   OH218502   1.385   2.385   5.133
 6190TIP3    H118503   1.349   2.305   5.092
 6190TIP3    H218504   1.422   2.350   5.217
 6191TIP3   OH218505   1.766   2.466   5.896
 6191TIP3    H118506   1.756   2.392   5.834
 6191TIP3    H218507   1.747   2.543   5.838
 6192TIP3   OH218508   1.058   1.860   5.153
 6192TIP3    H118509   0.977   1.913   5.135
 6192TIP3    H218510   1.103   1.864   5.067
 6193TIP3   OH218511   1.021   1.641   4.872
 6193TIP3    H118512   1.085   1.698   4.917
 6193TIP3    H218513   1.081   1.586   4.818
 6194TIP3   OH218514   1.962   2.102   5.739
 6194TIP3    H118515   1.880   2.156   5.744
 6194TIP3    H218516   1.994   2.128   5.650
 6195TIP3   OH218517   1.404   1.943   5.123
 6195TIP3    H118518   1.349   1.970   5.200
 6195TIP3    H218519   1.489   1.923   5.167
 6196TIP3   OH218520   1.641   1.983   6.036
 6196TIP3    H118521   1.640   2.068   6.084
 6196TIP3    H218522   1.554   1.988   5.991
 6197TIP3   OH218523   0.636   1.941   5.540
 6197TIP3    H118524   0.598   1.883   5.470
 6197TIP3    H218525   0.714   1.890   5.568
 6198TIP3   OH218526   0.766   2.353   5.689
 6198TIP3    H118527   0.747   2.316   5.601
 6198TIP3    H218528   0.856   2.319   5.706
 6199TIP3   OH218529   0.785   1.911   5.898
 6199TIP3    H118530   0.809   1.896   5.804
 6199TIP3    H218531   0.820   2.001   5.914
 6200TIP3   OH218532   1.302   2.551   5.671
 6200TIP3    H118533   1.285   2.635   5.719
 6200TIP3    H218534   1.283   2.482   5.738
 6201TIP3   OH218535   0.913   2.464   6.225
 6201TIP3    H118536   0.853   2.531   6.266
 6201TIP3    H218537   0.848   2.414   6.171
 6202TIP3   OH218538   1.248   1.797   4.950
 6202TIP3    H118539   1.305   1.860   5.001
 6202TIP3    H218540   1.273   1.822   4.857
 6203TIP3   OH218541   0.683   2.030   6.314
 6203TIP3    H118542   0.681   2.118   6.357
 6203TIP3    H218543   0.589   2.005   6.318
 6204TIP3   OH218544   0.992   2.480   5.226
 6204TIP3    H118545   1.072   2.535   5.238
 6204TIP3    H218546   0.930   2.543   5.185
 6205TIP3   OH218547   0.712   2.636   6.305
 6205TIP3    H118548   0.674   2.640   6.215
 6205TIP3    H218549   0.634   2.612   6.360
 6206TIP3   OH218550   1.762   1.044   4.999
 6206TIP3    H118551   1.679   1.063   5.046
 6206TIP3    H218552   1.774   1.125   4.944
 6207TIP3   OH218553   0.509   1.784   5.338
 6207TIP3    H118554   0.441   1.830   5.285
 6207TIP3    H218555   0.462   1.702   5.361
 6208TIP3   OH218556   1.561   2.411   4.547
 6208TIP3    H118557   1.569   2.508   4.532
 6208TIP3    H218558   1.654   2.383   4.534
 6209TIP3   OH218559   0.305   2.157   6.246
 6209TIP3    H118560   0.241   2.151   6.174
 6209TIP3    H218561   0.304   2.066   6.279
 6210TIP3   OH218562   0.145   2.383   5.867
 6210TIP3    H118563   0.232   2.343   5.858
 6210TIP3    H218564   0.162   2.448   5.938
 6211TIP3   OH218565   2.007   2.816   5.946
 6211TIP3    H118566   2.002   2.719   5.958
 6211TIP3    H218567   1.922   2.843   5.987
 6212TIP3   OH218568   1.112   2.595   6.078
 6212TIP3    H118569   1.111   2.690   6.106
 6212TIP3    H218570   1.039   2.559   6.133
 6213TIP3   OH218571   0.871   2.726   5.029
 6213TIP3    H118572   0.827   2.710   4.944
 6213TIP3    H218573   0.841   2.816   5.052
 6214TIP3   OH218574   0.304   2.597   5.414
 6214TIP3    H118575   0.353   2.579   5.498
 6214TIP3    H218576   0.249   2.518   5.409
 6215TIP3   OH218577   1.072   2.629   4.666
 6215TIP3    H118578   1.131   2.559   4.630
 6215TIP3    H218579   1.108   2.640   4.757
 6216TIP3   OH218580   1.123   2.678   4.936
 6216TIP3    H118581   1.035   2.687   4.979
 6216TIP3    H218582   1.177   2.644   5.009
 6217TIP3   OH218583   1.895   1.943   6.218
 6217TIP3    H118584   1.813   1.958   6.167
 6217TIP3    H218585   1.906   1.847   6.212
 6218TIP3   OH218586   0.492   2.356   6.241
 6218TIP3    H118587   0.541   2.339   6.323
 6218TIP3    H218588   0.421   2.287   6.246
 6219TIP3   OH218589   0.895   1.189   5.995
 6219TIP3    H118590   0.811   1.141   5.982
 6219TIP3    H218591   0.868   1.258   6.058
 6220TIP3   OH218592   1.456   1.298   6.211
 6220TIP3    H118593   1.517   1.263   6.279
 6220TIP3    H218594   1.368   1.279   6.251
 6221TIP3   OH218595   1.662   1.719   6.133
 6221TIP3    H118596   1.614   1.719   6.219
 6221TIP3    H218597   1.640   1.807   6.098
 6222TIP3   OH218598   1.323   1.844   4.694
 6222TIP3    H118599   1.288   1.824   4.605
 6222TIP3    H218600   1.403   1.895   4.671
 6223TIP3   OH218601   0.962   1.211   4.992
 6223TIP3    H118602   0.988   1.220   5.085
 6223TIP3    H218603   1.028   1.150   4.958
 6224TIP3   OH218604   0.830   1.691   6.045
 6224TIP3    H118605   0.782   1.713   6.128
 6224TIP3    H218606   0.814   1.773   5.992
 6225TIP3   OH218607   0.716   1.584   5.547
 6225TIP3    H118608   0.624   1.552   5.559
 6225TIP3    H218609   0.734   1.543   5.459
 6226TIP3   OH218610   1.196   1.661   5.281
 6226TIP3    H118611   1.143   1.735   5.244
 6226TIP3    H218612   1.251   1.636   5.205
 6227TIP3   OH218613   1.378   1.957   6.397
 6227TIP3    H118614   1.350   1.877   6.447
 6227TIP3    H218615   1.475   1.954   6.415
 6228TIP3   OH218616   1.351   1.694   5.526
 6228TIP3    H118617   1.293   1.740   5.462
 6228TIP3    H218618   1.368   1.613   5.475
 6229TIP3   OH218619   0.652   1.728   6.249
 6229TIP3    H118620   0.650   1.793   6.322
 6229TIP3    H218621   0.570   1.679   6.263
 6230TIP3   OH218622   1.365   1.936   5.947
 6230TIP3    H118623   1.398   1.866   5.887
 6230TIP3    H218624   1.333   1.882   6.023
 6231TIP3   OH218625   1.048   1.400   5.614
 6231TIP3    H118626   0.961   1.398   5.660
 6231TIP3    H218627   1.108   1.401   5.690
 6232TIP3   OH218628   0.492   1.439   5.584
 6232TIP3    H118629   0.396   1.443   5.606
 6232TIP3    H218630   0.519   1.355   5.624
 6233TIP3   OH218631   0.750   1.455   5.312
 6233TIP3    H118632   0.838   1.481   5.281
 6233TIP3    H218633   0.691   1.471   5.235
 6234TIP3   OH218634   1.512   1.465   5.804
 6234TIP3    H118635   1.489   1.480   5.898
 6234TIP3    H218636   1.440   1.403   5.779
 6235TIP3   OH218637   0.595   1.457   5.096
 6235TIP3    H118638   0.511   1.426   5.058
 6235TIP3    H218639   0.632   1.503   5.017
 6236TIP3   OH218640   1.697   3.162   6.040
 6236TIP3    H118641   1.691   3.190   5.947
 6236TIP3    H218642   1.772   3.216   6.071
 6237TIP3   OH218643   0.652   2.269   6.460
 6237TIP3    H118644   0.731   2.306   6.506
 6237TIP3    H218645   0.585   2.280   6.530
 6238TIP3   OH218646   1.114   1.728   5.719
 6238TIP3    H118647   1.186   1.684   5.671
 6238TIP3    H218648   1.119   1.687   5.808
 6239TIP3   OH218649   0.700   1.201   5.554
 6239TIP3    H118650   0.685   1.120   5.605
 6239TIP3    H218651   0.794   1.189   5.533
 6240TIP3   OH218652   1.096   1.630   5.997
 6240TIP3    H118653   1.004   1.660   6.014
 6240TIP3    H218654   1.149   1.690   6.052
 6241TIP3   OH218655   0.831   2.012   5.103
 6241TIP3    H118656   0.756   1.950   5.089
 6241TIP3    H218657   0.811   2.048   5.193
 6242TIP3   OH218658   1.731   2.249   5.729
 6242TIP3    H118659   1.755   2.301   5.649
 6242TIP3    H218660   1.644   2.212   5.703
 6243TIP3   OH218661   1.263   1.329   4.976
 6243TIP3    H118662   1.177   1.356   4.944
 6243TIP3    H218663   1.307   1.417   4.986
 6244TIP3   OH218664   1.225   2.334   6.100
 6244TIP3    H118665   1.231   2.321   6.195
 6244TIP3    H218666   1.190   2.425   6.093
 6245TIP3   OH218667   1.363   1.572   5.061
 6245TIP3    H118668   1.459   1.588   5.070
 6245TIP3    H218669   1.334   1.651   5.010
 6246TIP3   OH218670   0.530   2.044   5.779
 6246TIP3    H118671   0.562   2.013   5.692
 6246TIP3    H218672   0.549   1.968   5.836
 6247TIP3   OH218673   0.976   2.165   4.925
 6247TIP3    H118674   0.927   2.251   4.928
 6247TIP3    H218675   0.920   2.110   4.985
 6248TIP3   OH218676   0.447   1.904   6.398
 6248TIP3    H118677   0.475   1.940   6.485
 6248TIP3    H218678   0.350   1.912   6.407
 6249TIP3   OH218679   1.118   2.071   6.401
 6249TIP3    H118680   1.055   2.010   6.360
 6249TIP3    H218681   1.203   2.034   6.373
 6250TIP3   OH218682   1.389   2.582   6.001
 6250TIP3    H118683   1.293   2.591   6.008
 6250TIP3    H218684   1.418   2.641   6.074
 6251TIP3   OH218685   1.797   1.667   4.904
 6251TIP3    H118686   1.736   1.622   4.841
 6251TIP3    H218687   1.793   1.756   4.862
 6252TIP3   OH218688   2.016   2.519   5.986
 6252TIP3    H118689   1.919   2.517   5.976
 6252TIP3    H218690   2.043   2.493   5.895
 6253TIP3   OH218691   1.498   2.484   4.810
 6253TIP3    H118692   1.473   2.413   4.870
 6253TIP3    H218693   1.512   2.439   4.725
 6254TIP3   OH218694   1.495   2.114   5.649
 6254TIP3    H118695   1.401   2.088   5.662
 6254TIP3    H218696   1.528   2.036   5.600
 6255TIP3   OH218697   0.623   2.340   5.401
 6255TIP3    H118698   0.623   2.423   5.348
 6255TIP3    H218699   0.529   2.328   5.415
 6256TIP3   OH218700   0.168   1.649   5.123
 6256TIP3    H118701   0.234   1.721   5.123
 6256TIP3    H218702   0.106   1.686   5.187
 6257TIP3   OH218703   0.759   2.105   5.346
 6257TIP3    H118704   0.725   2.196   5.362
 6257TIP3    H218705   0.720   2.058   5.422
 6258TIP3   OH218706   0.893   2.684   5.869
 6258TIP3    H118707   0.930   2.759   5.818
 6258TIP3    H218708   0.971   2.654   5.917
 6259TIP3   OH218709   0.540   2.581   5.257
 6259TIP3    H118710   0.454   2.593   5.302
 6259TIP3    H218711   0.575   2.673   5.260
 6260TIP3   OH218712   1.277   2.316   5.831
 6260TIP3    H118713   1.271   2.317   5.929
 6260TIP3    H218714   1.362   2.272   5.817
 6261TIP3   OH218715   1.255   2.209   4.713
 6261TIP3    H118716   1.307   2.185   4.793
 6261TIP3    H218717   1.165   2.187   4.742
 6262TIP3   OH218718   1.529   2.850   5.876
 6262TIP3    H118719   1.445   2.801   5.864
 6262TIP3    H218720   1.518   2.919   5.806
 6263TIP3   OH218721   1.594   2.686   4.532
 6263TIP3    H118722   1.633   2.759   4.481
 6263TIP3    H218723   1.514   2.733   4.565
 6264TIP3   OH218724   1.415   2.144   4.930
 6264TIP3    H118725   1.407   2.077   5.000
 6264TIP3    H218726   1.512   2.144   4.916
 6265TIP3   OH218727   0.325   2.543   6.035
 6265TIP3    H118728   0.390   2.479   6.068
 6265TIP3    H218729   0.350   2.623   6.082
 6266TIP3   OH218730   0.622   2.192   4.712
 6266TIP3    H118731   0.634   2.099   4.684
 6266TIP3    H218732   0.602   2.181   4.807
 6267TIP3   OH218733   0.567   2.197   4.984
 6267TIP3    H118734   0.638   2.175   5.046
 6267TIP3    H218735   0.567   2.295   4.989
 6268TIP3   OH218736   0.304   1.887   5.182
 6268TIP3    H118737   0.240   1.933   5.241
 6268TIP3    H218738   0.319   1.957   5.116
 6269TIP3   OH218739   1.463   1.527   6.064
 6269TIP3    H118740   1.535   1.575   6.107
 6269TIP3    H218741   1.454   1.447   6.122
 6270TIP3   OH218742   1.329   1.276   5.243
 6270TIP3    H118743   1.306   1.299   5.150
 6270TIP3    H218744   1.365   1.360   5.277
 6271TIP3   OH218745   0.831   2.394   4.933
 6271TIP3    H118746   0.744   2.421   4.968
 6271TIP3    H218747   0.850   2.468   4.874
 6272TIP3   OH218748   1.030   1.451   5.342
 6272TIP3    H118749   1.089   1.528   5.324
 6272TIP3    H218750   1.031   1.451   5.441
 6273TIP3   OH218751   1.291   1.775   6.157
 6273TIP3    H118752   1.305   1.828   6.237
 6273TIP3    H218753   1.346   1.697   6.173
 6274TIP3   OH218754   1.162   1.191   5.450
 6274TIP3    H118755   1.141   1.271   5.502
 6274TIP3    H218756   1.226   1.227   5.384
 6275TIP3   OH218757   0.574   2.469   5.002
 6275TIP3    H118758   0.546   2.538   4.938
 6275TIP3    H218759   0.558   2.514   5.087
 6276TIP3   OH218760   1.928   1.673   6.146
 6276TIP3    H118761   1.830   1.673   6.140
 6276TIP3    H218762   1.954   1.670   6.052
 6277TIP3   OH218763   1.581   1.869   5.521
 6277TIP3    H118764   1.503   1.815   5.541
 6277TIP3    H218765   1.651   1.825   5.574
 6278TIP3   OH218766   0.295   2.099   4.992
 6278TIP3    H118767   0.359   2.172   5.001
 6278TIP3    H218768   0.341   2.046   4.924
 6279TIP3   OH218769   0.291   1.410   5.043
 6279TIP3    H118770   0.264   1.490   5.090
 6279TIP3    H218771   0.235   1.343   5.086
 6280TIP3   OH218772   1.550   2.823   5.471
 6280TIP3    H118773   1.507   2.870   5.396
 6280TIP3    H218774   1.644   2.845   5.451
 6281TIP3   OH218775   0.165   2.318   5.380
 6281TIP3    H118776   0.102   2.351   5.445
 6281TIP3    H218777   0.132   2.361   5.297
 6282TIP3   OH218778   0.351   2.860   6.420
 6282TIP3    H118779   0.423   2.870   6.487
 6282TIP3    H218780   0.288   2.805   6.467
 6283TIP3   OH218781   0.799   2.814   6.506
 6283TIP3    H118782   0.896   2.815   6.501
 6283TIP3    H218783   0.777   2.760   6.428
 6284TIP3   OH218784   0.783   2.397   4.623
 6284TIP3    H118785   0.729   2.324   4.661
 6284TIP3    H218786   0.858   2.346   4.587
 6285TIP3   OH218787   1.440   2.726   6.232
 6285TIP3    H118788   1.439   2.656   6.300
 6285TIP3    H218789   1.518   2.780   6.258
 6286TIP3   OH218790   1.219   2.435   4.535
 6286TIP3    H118791   1.268   2.375   4.593
 6286TIP3    H218792   1.274   2.438   4.454
 6287TIP3   OH218793   0.448   2.255   6.650
 6287TIP3    H118794   0.474   2.161   6.644
 6287TIP3    H218795   0.352   2.250   6.637
 6288TIP3   OH218796   0.429   1.910   4.845
 6288TIP3    H118797   0.487   1.883   4.918
 6288TIP3    H218798   0.495   1.916   4.773
 6289TIP3   OH218799   1.064   2.347   6.422
 6289TIP3    H118800   1.014   2.372   6.341
 6289TIP3    H218801   1.081   2.252   6.409
 6290TIP3   OH218802   0.942   2.112   4.655
 6290TIP3    H118803   0.942   2.126   4.751
 6290TIP3    H218804   0.939   2.014   4.650
 6291TIP3   OH218805   1.552   2.357   6.034
 6291TIP3    H118806   1.626   2.401   5.988
 6291TIP3    H218807   1.482   2.425   6.021
 6292TIP3   OH218808   0.553   1.997   6.639
 6292TIP3    H118809   0.617   1.925   6.632
 6292TIP3    H218810   0.571   2.025   6.731
 6293TIP3   OH218811   0.635   1.816   5.066
 6293TIP3    H118812   0.609   1.779   5.152
 6293TIP3    H218813   0.671   1.738   5.019
 6294TIP3   OH218814   0.921   1.889   6.299
 6294TIP3    H118815   0.837   1.940   6.300
 6294TIP3    H218816   0.962   1.920   6.215
 6295TIP3   OH218817   0.739   1.607   4.910
 6295TIP3    H118818   0.708   1.612   4.816
 6295TIP3    H218819   0.835   1.618   4.897
 6296TIP3   OH218820   1.438   2.255   6.457
 6296TIP3    H118821   1.498   2.294   6.390
 6296TIP3    H218822   1.429   2.166   6.426
 6297TIP3   OH218823   1.559   1.939   4.574
 6297TIP3    H118824   1.537   1.895   4.489
 6297TIP3    H218825   1.528   2.030   4.551
 6298TIP3   OH218826   1.036   1.665   6.408
 6298TIP3    H118827   1.035   1.589   6.347
 6298TIP3    H218828   0.990   1.735   6.356
 6299TIP3   OH218829   1.046   1.461   6.222
 6299TIP3    H118830   1.066   1.501   6.135
 6299TIP3    H218831   0.955   1.427   6.208
 6300TIP3   OH218832   1.064   1.993   6.097
 6300TIP3    H118833   1.144   2.010   6.047
 6300TIP3    H218834   1.002   2.059   6.058
 6301TIP3   OH218835   1.643   1.960   6.474
 6301TIP3    H118836   1.698   1.882   6.486
 6301TIP3    H218837   1.708   2.029   6.452
 6302TIP3   OH218838   1.680   2.213   6.221
 6302TIP3    H118839   1.623   2.266   6.160
 6302TIP3    H218840   1.768   2.233   6.182
 6303TIP3   OH218841   0.944   1.778   6.646
 6303TIP3    H118842   0.851   1.772   6.675
 6303TIP3    H218843   0.945   1.737   6.557
 6304TIP3   OH218844   1.201   1.241   6.277
 6304TIP3    H118845   1.148   1.322   6.258
 6304TIP3    H218846   1.128   1.176   6.281
 6305TIP3   OH218847   1.285   1.725   6.511
 6305TIP3    H118848   1.261   1.710   6.605
 6305TIP3    H218849   1.199   1.700   6.470
 6306TIP3   OH218850   1.525   1.676   6.364
 6306TIP3    H118851   1.451   1.677   6.427
 6306TIP3    H218852   1.600   1.649   6.422
 6307TIP3   OH218853   1.754   1.617   6.517
 6307TIP3    H118854   1.768   1.522   6.533
 6307TIP3    H218855   1.754   1.655   6.608
 6308TIP3   OH218856   1.254   1.219   6.544
 6308TIP3    H118857   1.328   1.155   6.542
 6308TIP3    H218858   1.235   1.228   6.449
 6309TIP3   OH218859   1.322   1.440   6.698
 6309TIP3    H118860   1.289   1.369   6.639
 6309TIP3    H218861   1.245   1.501   6.701
 6310TIP3   OH218862   0.545   2.669   4.813
 6310TIP3    H118863   0.640   2.667   4.794
 6310TIP3    H218864   0.514   2.720   4.736
 6311TIP3   OH218865   0.033   2.041   5.034
 6311TIP3    H118866   0.125   2.070   5.020
 6311TIP3    H218867   0.029   1.958   4.984
 6312TIP3   OH218868  -0.065   2.668   5.444
 6312TIP3    H118869  -0.123   2.604   5.403
 6312TIP3    H218870  -0.020   2.613   5.513
 6313TIP3   OH218871   0.068   2.520   5.635
 6313TIP3    H118872   0.075   2.453   5.705
 6313TIP3    H218873   0.121   2.591   5.679
 6314TIP3   OH218874   1.805   2.911   5.431
 6314TIP3    H118875   1.826   2.955   5.515
 6314TIP3    H218876   1.858   2.963   5.368
 6315TIP3   OH218877   1.826   2.939   5.713
 6315TIP3    H118878   1.789   2.848   5.709
 6315TIP3    H218879   1.907   2.922   5.764
 6316TIP3   OH218880   1.881   2.612   6.287
 6316TIP3    H118881   1.806   2.623   6.349
 6316TIP3    H218882   1.920   2.702   6.288
 6317TIP3   OH218883   1.695   2.127   4.903
 6317TIP3    H118884   1.760   2.194   4.873
 6317TIP3    H218885   1.741   2.090   4.981
 6318TIP3   OH218886   1.825   1.993   5.106
 6318TIP3    H118887   1.757   1.956   5.165
 6318TIP3    H218888   1.888   2.035   5.168
 6319TIP3   OH218889   1.878   2.388   5.542
 6319TIP3    H118890   1.928   2.326   5.486
 6319TIP3    H218891   1.872   2.466   5.484
 6320TIP3   OH218892   1.706   2.683   5.739
 6320TIP3    H118893   1.636   2.733   5.786
 6320TIP3    H218894   1.656   2.641   5.666
 6321TIP3   OH218895   1.759   1.902   4.756
 6321TIP3    H118896   1.688   1.905   4.688
 6321TIP3    H218897   1.733   1.980   4.809
 6322TIP3   OH218898   1.630   1.577   4.713
 6322TIP3    H118899   1.590   1.619   4.635
 6322TIP3    H218900   1.603   1.483   4.700
 6323TIP3   OH218901   1.635   1.856   5.253
 6323TIP3    H118902   1.644   1.760   5.245
 6323TIP3    H218903   1.621   1.870   5.349
 6324TIP3   OH218904   0.264   1.920   6.024
 6324TIP3    H118905   0.252   1.906   5.927
 6324TIP3    H218906   0.361   1.928   6.029
 6325TIP3   OH218907   1.923   2.275   6.113
 6325TIP3    H118908   1.997   2.212   6.100
 6325TIP3    H218909   1.946   2.348   6.053
 6326TIP3   OH218910   2.108   2.079   6.123
 6326TIP3    H118911   2.034   2.031   6.166
 6326TIP3    H218912   2.181   2.017   6.139
 6327TIP3   OH218913   1.570   1.313   4.703
 6327TIP3    H118914   1.648   1.276   4.750
 6327TIP3    H218915   1.502   1.245   4.714
 6328TIP3   OH218916   1.636   1.573   5.149
 6328TIP3    H118917   1.674   1.483   5.160
 6328TIP3    H218918   1.692   1.608   5.078
 6329TIP3   OH218919   1.792   1.744   5.648
 6329TIP3    H118920   1.878   1.768   5.606
 6329TIP3    H218921   1.806   1.786   5.735
 6330TIP3   OH218922   1.861   1.887   5.879
 6330TIP3    H118923   1.783   1.923   5.925
 6330TIP3    H218924   1.894   1.967   5.831
 6331TIP3   OH218925   2.309   1.474   6.433
 6331TIP3    H118926   2.371   1.410   6.392
 6331TIP3    H218927   2.284   1.530   6.356
 6332TIP3   OH218928   1.732   1.317   5.194
 6332TIP3    H118929   1.795   1.280   5.258
 6332TIP3    H218930   1.669   1.242   5.184
 6333TIP3   OH218931   2.184   1.614   6.238
 6333TIP3    H118932   2.096   1.655   6.253
 6333TIP3    H218933   2.158   1.542   6.178
 6334TIP3   OH218934   1.822   1.251   4.823
 6334TIP3    H118935   1.860   1.181   4.765
 6334TIP3    H218936   1.886   1.323   4.811
 6335TIP3   OH218937   1.385   2.782   5.087
 6335TIP3    H118938   1.438   2.773   5.005
 6335TIP3    H218939   1.433   2.853   5.133
 6336TIP3   OH218940   0.505   2.566   6.481
 6336TIP3    H118941   0.416   2.546   6.451
 6336TIP3    H218942   0.494   2.587   6.574
 6337TIP3   OH218943   0.668   2.619   6.019
 6337TIP3    H118944   0.618   2.696   5.983
 6337TIP3    H218945   0.752   2.635   5.972
 6338TIP3   OH218946   1.110   2.861   6.154
 6338TIP3    H118947   1.149   2.868   6.243
 6338TIP3    H218948   1.173   2.915   6.102
 6339TIP3   OH218949   1.289   3.015   6.019
 6339TIP3    H118950   1.362   2.972   5.973
 6339TIP3    H218951   1.338   3.076   6.079
 6340TIP3   OH218952   2.085   1.373   6.117
 6340TIP3    H118953   1.993   1.354   6.091
 6340TIP3    H218954   2.125   1.283   6.105
 6341TIP3   OH218955   0.340   2.877   6.046
 6341TIP3    H118956   0.249   2.905   6.022
 6341TIP3    H218957   0.353   2.926   6.128
 6342TIP3   OH218958   0.579   2.852   5.907
 6342TIP3    H118959   0.492   2.868   5.950
 6342TIP3    H218960   0.564   2.892   5.818
 6343TIP3   OH218961   1.003   2.882   5.699
 6343TIP3    H118962   0.938   2.906   5.631
 6343TIP3    H218963   1.017   2.969   5.743
 6344TIP3   OH218964   1.273   2.821   5.750
 6344TIP3    H118965   1.178   2.842   5.733
 6344TIP3    H218966   1.316   2.898   5.709
 6345TIP3   OH218967   1.476   3.013   5.664
 6345TIP3    H118968   1.463   3.100   5.621
 6345TIP3    H218969   1.503   2.957   5.588
 6346TIP3   OH218970   0.249   2.669   5.782
 6346TIP3    H118971   0.271   2.649   5.875
 6346TIP3    H218972   0.325   2.629   5.736
 6347TIP3   OH218973   0.449   2.542   5.641
 6347TIP3    H118974   0.462   2.460   5.695
 6347TIP3    H218975   0.539   2.580   5.642
 6348TIP3   OH218976   0.714   2.639   5.650
 6348TIP3    H118977   0.745   2.548   5.637
 6348TIP3    H218978   0.759   2.661   5.733
 6349TIP3   OH218979   1.307   1.284   5.738
 6349TIP3    H118980   1.252   1.237   5.803
 6349TIP3    H218981   1.333   1.210   5.681
 6350TIP3   OH218982   1.897   1.294   5.445
 6350TIP3    H118983   1.955   1.224   5.405
 6350TIP3    H218984   1.940   1.371   5.397
 6351TIP3   OH218985   0.948   1.073   5.601
 6351TIP3    H118986   1.037   1.098   5.571
 6351TIP3    H218987   0.966   1.035   5.688
 6352TIP3   OH218988   1.554   1.104   5.180
 6352TIP3    H118989   1.468   1.147   5.194
 6352TIP3    H218990   1.540   1.020   5.227
 6353TIP3   OH218991   0.034   2.446   5.182
 6353TIP3    H118992  -0.038   2.401   5.136
 6353TIP3    H218993   0.027   2.536   5.143
 6354TIP3   OH218994   0.923   1.212   5.257
 6354TIP3    H118995   0.977   1.155   5.314
 6354TIP3    H218996   0.956   1.299   5.289
 6355TIP3   OH218997   0.814   2.630   4.763
 6355TIP3    H118998   0.901   2.655   4.726
 6355TIP3    H218999   0.791   2.556   4.702
 6356TIP3   OH219000   1.531   2.751   4.855
 6356TIP3    H119001   1.521   2.654   4.840
 6356TIP3    H219002   1.487   2.786   4.774
 6357TIP3   OH219003   0.115   2.463   4.820
 6357TIP3    H119004   0.119   2.507   4.907
 6357TIP3    H219005   0.205   2.425   4.810
 6358TIP3   OH219006   1.823   1.349   6.551
 6358TIP3    H119007   1.845   1.310   6.637
 6358TIP3    H219008   1.909   1.346   6.504
 6359TIP3   OH219009   1.756   2.894   6.042
 6359TIP3    H119010   1.678   2.865   5.990
 6359TIP3    H219011   1.741   2.991   6.043
 6360TIP3   OH219012   2.327   2.160   5.550
 6360TIP3    H119013   2.357   2.095   5.616
 6360TIP3    H219014   2.396   2.227   5.558
 6361TIP3   OH219015   3.266   2.558   4.880
 6361TIP3    H119016   3.269   2.504   4.961
 6361TIP3    H219017   3.293   2.645   4.914
 6362TIP3   OH219018   2.294   2.572   5.281
 6362TIP3    H119019   2.286   2.474   5.282
 6362TIP3    H219020   2.390   2.582   5.268
 6363TIP3   OH219021   1.998   1.770   5.066
 6363TIP3    H119022   1.953   1.855   5.081
 6363TIP3    H219023   1.929   1.723   5.016
 6364TIP3   OH219024   2.060   2.063   5.237
 6364TIP3    H119025   2.111   1.987   5.271
 6364TIP3    H219026   2.118   2.098   5.168
 6365TIP3   OH219027   2.913   3.029   4.886
 6365TIP3    H119028   2.959   2.957   4.838
 6365TIP3    H219029   2.911   2.996   4.976
 6366TIP3   OH219030   2.817   2.497   5.240
 6366TIP3    H119031   2.847   2.478   5.151
 6366TIP3    H219032   2.902   2.531   5.279
 6367TIP3   OH219033   3.832   1.813   5.231
 6367TIP3    H119034   3.864   1.895   5.275
 6367TIP3    H219035   3.865   1.826   5.140
 6368TIP3   OH219036   3.225   1.995   5.264
 6368TIP3    H119037   3.272   1.914   5.293
 6368TIP3    H219038   3.207   1.973   5.172
 6369TIP3   OH219039   2.573   1.655   5.233
 6369TIP3    H119040   2.552   1.726   5.169
 6369TIP3    H219041   2.526   1.580   5.190
 6370TIP3   OH219042   3.267   1.752   4.857
 6370TIP3    H119043   3.341   1.733   4.920
 6370TIP3    H219044   3.319   1.780   4.779
 6371TIP3   OH219045   2.205   1.854   5.343
 6371TIP3    H119046   2.288   1.835   5.389
 6371TIP3    H219047   2.219   1.801   5.261
 6372TIP3   OH219048   2.666   2.048   5.107
 6372TIP3    H119049   2.726   2.001   5.168
 6372TIP3    H219050   2.604   1.975   5.084
 6373TIP3   OH219051   3.907   2.018   5.404
 6373TIP3    H119052   3.824   2.066   5.387
 6373TIP3    H219053   3.927   2.045   5.495
 6374TIP3   OH219054   2.569   1.637   5.669
 6374TIP3    H119055   2.510   1.674   5.601
 6374TIP3    H219056   2.518   1.656   5.750
 6375TIP3   OH219057   2.909   2.475   4.686
 6375TIP3    H119058   2.879   2.463   4.596
 6375TIP3    H219059   2.873   2.563   4.708
 6376TIP3   OH219060   2.670   2.411   5.464
 6376TIP3    H119061   2.610   2.479   5.501
 6376TIP3    H219062   2.715   2.462   5.394
 6377TIP3   OH219063   3.471   1.754   5.033
 6377TIP3    H119064   3.482   1.694   5.108
 6377TIP3    H219065   3.535   1.824   5.054
 6378TIP3   OH219066   2.439   1.750   5.453
 6378TIP3    H119067   2.500   1.824   5.476
 6378TIP3    H219068   2.489   1.710   5.378
 6379TIP3   OH219069   2.505   2.608   5.560
 6379TIP3    H119070   2.481   2.695   5.521
 6379TIP3    H219071   2.425   2.594   5.616
 6380TIP3   OH219072   1.896   2.296   4.798
 6380TIP3    H119073   1.856   2.322   4.713
 6380TIP3    H219074   1.925   2.383   4.833
 6381TIP3   OH219075   3.334   2.809   5.034
 6381TIP3    H119076   3.244   2.805   5.073
 6381TIP3    H219077   3.331   2.897   4.990
 6382TIP3   OH219078   3.630   1.713   5.399
 6382TIP3    H119079   3.544   1.746   5.368
 6382TIP3    H219080   3.691   1.744   5.330
 6383TIP3   OH219081   2.922   1.354   5.380
 6383TIP3    H119082   2.913   1.259   5.401
 6383TIP3    H219083   2.845   1.391   5.429
 6384TIP3   OH219084   3.038   2.856   4.713
 6384TIP3    H119085   3.088   2.775   4.688
 6384TIP3    H219086   3.096   2.923   4.672
 6385TIP3   OH219087   3.176   2.639   4.624
 6385TIP3    H119088   3.161   2.562   4.568
 6385TIP3    H219089   3.210   2.598   4.707
 6386TIP3   OH219090   3.562   2.723   5.384
 6386TIP3    H119091   3.554   2.649   5.320
 6386TIP3    H219092   3.544   2.801   5.326
 6387TIP3   OH219093   2.851   2.112   4.635
 6387TIP3    H119094   2.776   2.173   4.618
 6387TIP3    H219095   2.900   2.117   4.551
 6388TIP3   OH219096   2.816   1.900   4.354
 6388TIP3    H119097   2.883   1.955   4.398
 6388TIP3    H219098   2.875   1.839   4.305
 6389TIP3   OH219099   3.760   2.363   5.228
 6389TIP3    H119100   3.676   2.415   5.229
 6389TIP3    H219101   3.790   2.383   5.136
 6390TIP3   OH219102   3.196   2.203   4.611
 6390TIP3    H119103   3.160   2.259   4.681
 6390TIP3    H219104   3.280   2.173   4.651
 6391TIP3   OH219105   3.441   2.241   5.527
 6391TIP3    H119106   3.438   2.325   5.577
 6391TIP3    H219107   3.352   2.242   5.486
 6392TIP3   OH219108   2.431   2.193   5.032
 6392TIP3    H119109   2.384   2.142   4.961
 6392TIP3    H219110   2.513   2.142   5.042
 6393TIP3   OH219111   2.554   2.605   5.178
 6393TIP3    H119112   2.540   2.578   5.086
 6393TIP3    H219113   2.645   2.577   5.197
 6394TIP3   OH219114   2.583   2.167   5.376
 6394TIP3    H119115   2.600   2.171   5.281
 6394TIP3    H219116   2.612   2.256   5.407
 6395TIP3   OH219117   3.095   2.807   5.161
 6395TIP3    H119118   3.081   2.894   5.203
 6395TIP3    H219119   3.076   2.744   5.233
 6396TIP3   OH219120   2.709   2.724   5.709
 6396TIP3    H119121   2.649   2.789   5.752
 6396TIP3    H219122   2.644   2.674   5.656
 6397TIP3   OH219123   3.041   2.059   4.430
 6397TIP3    H119124   3.100   2.118   4.481
 6397TIP3    H219125   3.068   2.081   4.337
 6398TIP3   OH219126   2.463   2.280   5.808
 6398TIP3    H119127   2.468   2.369   5.848
 6398TIP3    H219128   2.367   2.262   5.819
 6399TIP3   OH219129   2.786   2.738   4.719
 6399TIP3    H119130   2.868   2.791   4.726
 6399TIP3    H219131   2.726   2.800   4.673
 6400TIP3   OH219132   2.504   2.892   5.792
 6400TIP3    H119133   2.470   2.897   5.701
 6400TIP3    H219134   2.424   2.869   5.843
 6401TIP3   OH219135   3.559   1.299   4.485
 6401TIP3    H119136   3.478   1.323   4.534
 6401TIP3    H219137   3.574   1.381   4.433
 6402TIP3   OH219138   2.298   2.043   4.836
 6402TIP3    H119139   2.235   2.092   4.778
 6402TIP3    H219140   2.257   1.956   4.838
 6403TIP3   OH219141   3.361   2.670   4.042
 6403TIP3    H119142   3.366   2.766   4.022
 6403TIP3    H219143   3.453   2.641   4.024
 6404TIP3   OH219144   2.080   2.426   5.740
 6404TIP3    H119145   2.014   2.408   5.670
 6404TIP3    H219146   2.117   2.337   5.759
 6405TIP3   OH219147   1.936   2.616   5.380
 6405TIP3    H119148   2.032   2.620   5.365
 6405TIP3    H219149   1.920   2.700   5.425
 6406TIP3   OH219150   3.803   3.072   5.433
 6406TIP3    H119151   3.798   2.976   5.444
 6406TIP3    H219152   3.718   3.099   5.474
 6407TIP3   OH219153   2.907   2.854   5.563
 6407TIP3    H119154   2.906   2.948   5.594
 6407TIP3    H219155   2.835   2.816   5.618
 6408TIP3   OH219156   2.668   2.982   4.516
 6408TIP3    H119157   2.623   2.967   4.430
 6408TIP3    H219158   2.638   3.072   4.540
 6409TIP3   OH219159   2.105   2.831   4.897
 6409TIP3    H119160   2.154   2.824   4.982
 6409TIP3    H219161   2.041   2.760   4.906
 6410TIP3   OH219162   2.869   2.884   4.152
 6410TIP3    H119163   2.928   2.815   4.116
 6410TIP3    H219164   2.905   2.895   4.243
 6411TIP3   OH219165   2.919   2.935   4.422
 6411TIP3    H119166   2.832   2.945   4.466
 6411TIP3    H219167   2.974   2.903   4.495
 6412TIP3   OH219168   3.701   2.209   5.694
 6412TIP3    H119169   3.615   2.218   5.649
 6412TIP3    H219170   3.714   2.112   5.690
 6413TIP3   OH219171   2.288   2.606   5.723
 6413TIP3    H119172   2.334   2.594   5.809
 6413TIP3    H219173   2.211   2.546   5.733
 6414TIP3   OH219174   2.684   1.432   5.513
 6414TIP3    H119175   2.596   1.402   5.485
 6414TIP3    H219176   2.659   1.513   5.561
 6415TIP3   OH219177   3.221   1.547   5.707
 6415TIP3    H119178   3.292   1.519   5.769
 6415TIP3    H219179   3.139   1.525   5.756
 6416TIP3   OH219180   3.454   1.974   5.621
 6416TIP3    H119181   3.409   1.972   5.708
 6416TIP3    H219182   3.436   2.064   5.589
 6417TIP3   OH219183   3.118   2.114   4.172
 6417TIP3    H119184   3.099   2.069   4.087
 6417TIP3    H219185   3.186   2.174   4.141
 6418TIP3   OH219186   2.829   1.480   4.482
 6418TIP3    H119187   2.795   1.477   4.574
 6418TIP3    H219188   2.793   1.397   4.447
 6419TIP3   OH219189   2.616   1.946   5.530
 6419TIP3    H119190   2.566   1.968   5.612
 6419TIP3    H219191   2.603   2.028   5.477
 6420TIP3   OH219192   2.501   1.839   5.045
 6420TIP3    H119193   2.408   1.813   5.062
 6420TIP3    H219194   2.514   1.798   4.956
 6421TIP3   OH219195   2.992   1.931   4.774
 6421TIP3    H119196   2.937   1.994   4.720
 6421TIP3    H219197   3.048   1.893   4.702
 6422TIP3   OH219198   3.167   2.197   5.856
 6422TIP3    H119199   3.146   2.123   5.918
 6422TIP3    H219200   3.260   2.212   5.878
 6423TIP3   OH219201   3.139   1.952   4.996
 6423TIP3    H119202   3.093   1.951   4.908
 6423TIP3    H219203   3.192   1.871   4.979
 6424TIP3   OH219204   2.438   1.977   5.740
 6424TIP3    H119205   2.465   2.043   5.805
 6424TIP3    H219206   2.429   1.896   5.794
 6425TIP3   OH219207   2.486   1.453   4.450
 6425TIP3    H119208   2.476   1.452   4.547
 6425TIP3    H219209   2.409   1.507   4.423
 6426TIP3   OH219210   2.027   1.492   5.328
 6426TIP3    H119211   2.105   1.531   5.374
 6426TIP3    H219212   2.062   1.472   5.239
 6427TIP3   OH219213   2.001   1.480   4.840
 6427TIP3    H119214   2.043   1.517   4.760
 6427TIP3    H219215   1.939   1.554   4.860
 6428TIP3   OH219216   3.178   2.198   5.436
 6428TIP3    H119217   3.193   2.125   5.373
 6428TIP3    H219218   3.138   2.148   5.510
 6429TIP3   OH219219   2.835   1.681   5.113
 6429TIP3    H119220   2.753   1.661   5.163
 6429TIP3    H219221   2.904   1.644   5.170
 6430TIP3   OH219222   2.263   1.713   5.114
 6430TIP3    H119223   2.169   1.719   5.085
 6430TIP3    H219224   2.289   1.623   5.086
 6431TIP3   OH219225   2.530   1.712   4.804
 6431TIP3    H119226   2.624   1.723   4.780
 6431TIP3    H219227   2.483   1.732   4.720
 6432TIP3   OH219228   3.318   1.739   5.310
 6432TIP3    H119229   3.283   1.745   5.402
 6432TIP3    H219230   3.263   1.668   5.274
 6433TIP3   OH219231   2.377   1.741   4.580
 6433TIP3    H119232   2.307   1.696   4.528
 6433TIP3    H219233   2.430   1.779   4.507
 6434TIP3   OH219234   3.493   3.419   5.527
 6434TIP3    H119235   3.488   3.446   5.433
 6434TIP3    H219236   3.570   3.471   5.557
 6435TIP3   OH219237   2.445   2.524   5.947
 6435TIP3    H119238   2.523   2.565   5.990
 6435TIP3    H219239   2.380   2.533   6.019
 6436TIP3   OH219240   2.929   1.992   5.188
 6436TIP3    H119241   2.985   1.915   5.167
 6436TIP3    H219242   2.925   1.980   5.285
 6437TIP3   OH219243   2.434   1.472   5.082
 6437TIP3    H119244   2.403   1.391   5.128
 6437TIP3    H219245   2.482   1.435   5.007
 6438TIP3   OH219246   2.888   1.893   5.482
 6438TIP3    H119247   2.798   1.922   5.509
 6438TIP3    H219248   2.946   1.945   5.541
 6439TIP3   OH219249   2.625   2.274   4.592
 6439TIP3    H119250   2.552   2.209   4.579
 6439TIP3    H219251   2.608   2.306   4.684
 6440TIP3   OH219252   3.527   2.510   5.212
 6440TIP3    H119253   3.559   2.562   5.134
 6440TIP3    H219254   3.442   2.475   5.180
 6441TIP3   OH219255   3.085   1.579   4.463
 6441TIP3    H119256   2.987   1.564   4.459
 6441TIP3    H219257   3.092   1.676   4.468
 6442TIP3   OH219258   3.013   2.585   5.588
 6442TIP3    H119259   3.055   2.577   5.674
 6442TIP3    H219260   2.985   2.679   5.587
 6443TIP3   OH219261   3.150   1.837   4.564
 6443TIP3    H119262   3.248   1.838   4.567
 6443TIP3    H219263   3.131   1.908   4.499
 6444TIP3   OH219264   2.317   2.292   5.266
 6444TIP3    H119265   2.353   2.263   5.180
 6444TIP3    H219266   2.354   2.227   5.328
 6445TIP3   OH219267   2.772   2.420   4.410
 6445TIP3    H119268   2.726   2.507   4.414
 6445TIP3    H219269   2.717   2.367   4.471
 6446TIP3   OH219270   2.201   2.210   5.875
 6446TIP3    H119271   2.218   2.200   5.971
 6446TIP3    H219272   2.127   2.148   5.862
 6447TIP3   OH219273   2.924   2.326   5.903
 6447TIP3    H119274   2.867   2.270   5.848
 6447TIP3    H219275   3.013   2.296   5.874
 6448TIP3   OH219276   3.181   2.834   5.489
 6448TIP3    H119277   3.085   2.849   5.498
 6448TIP3    H219278   3.214   2.894   5.559
 6449TIP3   OH219279   3.590   1.923   4.388
 6449TIP3    H119280   3.528   1.878   4.324
 6449TIP3    H219281   3.588   2.011   4.344
 6450TIP3   OH219282   3.813   2.773   5.474
 6450TIP3    H119283   3.715   2.774   5.463
 6450TIP3    H219284   3.839   2.750   5.382
 6451TIP3   OH219285   3.294   2.741   4.300
 6451TIP3    H119286   3.269   2.664   4.354
 6451TIP3    H219287   3.309   2.702   4.212
 6452TIP3   OH219288   3.295   2.371   5.131
 6452TIP3    H119289   3.251   2.332   5.206
 6452TIP3    H219290   3.329   2.292   5.083
 6453TIP3   OH219291   2.422   2.596   4.889
 6453TIP3    H119292   2.426   2.677   4.835
 6453TIP3    H219293   2.327   2.586   4.898
 6454TIP3   OH219294   1.984   1.902   4.594
 6454TIP3    H119295   2.029   1.988   4.612
 6454TIP3    H219296   1.906   1.909   4.653
 6455TIP3   OH219297   2.564   2.360   4.846
 6455TIP3    H119298   2.530   2.452   4.851
 6455TIP3    H219299   2.509   2.317   4.915
 6456TIP3   OH219300   2.689   2.940   5.355
 6456TIP3    H119301   2.726   3.015   5.304
 6456TIP3    H219302   2.768   2.913   5.406
 6457TIP3   OH219303   2.342   2.833   4.744
 6457TIP3    H119304   2.254   2.845   4.786
 6457TIP3    H219305   2.375   2.926   4.746
 6458TIP3   OH219306   3.073   2.561   5.321
 6458TIP3    H119307   3.062   2.566   5.419
 6458TIP3    H219308   3.168   2.550   5.314
 6459TIP3   OH219309   3.048   2.469   4.210
 6459TIP3    H119310   3.101   2.446   4.289
 6459TIP3    H219311   2.959   2.443   4.238
 6460TIP3   OH219312   3.323   3.108   5.362
 6460TIP3    H119313   3.240   3.060   5.349
 6460TIP3    H219314   3.315   3.177   5.293
 6461TIP3   OH219315   3.390   2.945   4.019
 6461TIP3    H119316   3.431   3.018   3.970
 6461TIP3    H219317   3.310   2.990   4.050
 6462TIP3   OH219318   2.412   1.719   5.887
 6462TIP3    H119319   2.316   1.717   5.899
 6462TIP3    H219320   2.442   1.659   5.956
 6463TIP3   OH219321   3.213   2.410   4.425
 6463TIP3    H119322   3.204   2.332   4.483
 6463TIP3    H219323   3.309   2.406   4.404
 6464TIP3   OH219324   2.126   2.805   5.516
 6464TIP3    H119325   2.184   2.738   5.556
 6464TIP3    H219326   2.152   2.885   5.566
 6465TIP3   OH219327   2.416   2.449   4.198
 6465TIP3    H119328   2.432   2.357   4.171
 6465TIP3    H219329   2.396   2.438   4.293
 6466TIP3   OH219330   2.362   2.453   4.472
 6466TIP3    H119331   2.439   2.433   4.525
 6466TIP3    H219332   2.362   2.552   4.476
 6467TIP3   OH219333   2.097   2.148   4.676
 6467TIP3    H119334   2.030   2.194   4.731
 6467TIP3    H219335   2.111   2.216   4.607
 6468TIP3   OH219336   3.243   1.785   5.570
 6468TIP3    H119337   3.326   1.824   5.602
 6468TIP3    H219338   3.235   1.704   5.624
 6469TIP3   OH219339   3.121   1.539   4.736
 6469TIP3    H119340   3.110   1.555   4.640
 6469TIP3    H219341   3.167   1.620   4.765
 6470TIP3   OH219342   2.627   2.649   4.421
 6470TIP3    H119343   2.540   2.679   4.454
 6470TIP3    H219344   2.647   2.723   4.361
 6471TIP3   OH219345   2.814   1.717   4.835
 6471TIP3    H119346   2.882   1.784   4.812
 6471TIP3    H219347   2.824   1.710   4.932
 6472TIP3   OH219348   3.086   2.033   5.638
 6472TIP3    H119349   3.109   2.086   5.717
 6472TIP3    H219350   3.142   1.955   5.648
 6473TIP3   OH219351   2.959   1.440   4.935
 6473TIP3    H119352   2.973   1.509   5.001
 6473TIP3    H219353   3.018   1.473   4.863
 6474TIP3   OH219354   2.369   2.725   4.488
 6474TIP3    H119355   2.342   2.795   4.424
 6474TIP3    H219356   2.356   2.771   4.574
 6475TIP3   OH219357   2.470   1.440   4.728
 6475TIP3    H119358   2.468   1.532   4.761
 6475TIP3    H219359   2.566   1.422   4.733
 6476TIP3   OH219360   3.723   1.937   5.623
 6476TIP3    H119361   3.625   1.932   5.627
 6476TIP3    H219362   3.739   1.892   5.539
 6477TIP3   OH219363   3.374   2.129   5.015
 6477TIP3    H119364   3.310   2.057   5.017
 6477TIP3    H219365   3.452   2.087   5.059
 6478TIP3   OH219366   2.088   2.354   4.481
 6478TIP3    H119367   2.152   2.427   4.489
 6478TIP3    H219368   2.134   2.301   4.413
 6479TIP3   OH219369   2.029   1.631   4.617
 6479TIP3    H119370   2.033   1.729   4.612
 6479TIP3    H219371   1.955   1.611   4.560
 6480TIP3   OH219372   3.346   3.078   4.958
 6480TIP3    H119373   3.303   3.125   4.883
 6480TIP3    H219374   3.440   3.101   4.939
 6481TIP3   OH219375   2.418   1.352   5.489
 6481TIP3    H119376   2.391   1.319   5.401
 6481TIP3    H219377   2.410   1.273   5.545
 6482TIP3   OH219378   1.954   2.561   4.866
 6482TIP3    H119379   1.891   2.599   4.928
 6482TIP3    H219380   1.930   2.608   4.783
 6483TIP3   OH219381   2.118   3.114   5.940
 6483TIP3    H119382   2.204   3.117   5.988
 6483TIP3    H219383   2.098   3.020   5.939
 6484TIP3   OH219384   2.595   3.070   5.991
 6484TIP3    H119385   2.692   3.068   5.989
 6484TIP3    H219386   2.573   3.014   5.913
 6485TIP3   OH219387   2.579   2.653   4.109
 6485TIP3    H119388   2.526   2.580   4.148
 6485TIP3    H219389   2.655   2.604   4.073
 6486TIP3   OH219390   3.239   2.981   5.715
 6486TIP3    H119391   3.232   2.913   5.785
 6486TIP3    H219392   3.315   3.035   5.745
 6487TIP3   OH219393   3.016   2.691   4.020
 6487TIP3    H119394   3.060   2.624   4.075
 6487TIP3    H219395   3.071   2.690   3.939
 6488TIP3   OH219396   2.246   2.517   6.140
 6488TIP3    H119397   2.261   2.421   6.140
 6488TIP3    H219398   2.159   2.524   6.096
 6489TIP3   OH219399   2.224   2.167   4.333
 6489TIP3    H119400   2.282   2.140   4.405
 6489TIP3    H219401   2.289   2.173   4.259
 6490TIP3   OH219402   2.855   2.603   5.913
 6490TIP3    H119403   2.816   2.626   5.826
 6490TIP3    H219404   2.888   2.512   5.900
 6491TIP3   OH219405   2.732   2.366   4.140
 6491TIP3    H119406   2.737   2.380   4.237
 6491TIP3    H219407   2.734   2.268   4.136
 6492TIP3   OH219408   3.344   2.612   5.512
 6492TIP3    H119409   3.422   2.655   5.471
 6492TIP3    H219410   3.279   2.685   5.506
 6493TIP3   OH219411   2.364   2.248   6.125
 6493TIP3    H119412   2.445   2.207   6.095
 6493TIP3    H219413   2.391   2.286   6.211
 6494TIP3   OH219414   2.434   2.073   4.555
 6494TIP3    H119415   2.405   2.026   4.634
 6494TIP3    H219416   2.471   2.001   4.500
 6495TIP3   OH219417   2.701   2.136   5.782
 6495TIP3    H119418   2.624   2.198   5.784
 6495TIP3    H219419   2.751   2.170   5.704
 6496TIP3   OH219420   2.536   1.868   4.396
 6496TIP3    H119421   2.508   1.872   4.302
 6496TIP3    H219422   2.633   1.873   4.387
 6497TIP3   OH219423   3.216   2.536   5.916
 6497TIP3    H119424   3.299   2.518   5.870
 6497TIP3    H219425   3.218   2.471   5.988
 6498TIP3   OH219426   2.821   1.927   5.912
 6498TIP3    H119427   2.825   1.848   5.854
 6498TIP3    H219428   2.780   1.993   5.853
 6499TIP3   OH219429   2.827   1.716   5.714
 6499TIP3    H119430   2.856   1.752   5.628
 6499TIP3    H219431   2.734   1.691   5.696
 6500TIP3   OH219432   2.851   2.245   5.587
 6500TIP3    H119433   2.938   2.263   5.548
 6500TIP3    H219434   2.796   2.315   5.545
 6501TIP3   OH219435   3.435   2.216   5.970
 6501TIP3    H119436   3.484   2.132   5.980
 6501TIP3    H219437   3.504   2.276   5.938
 6502TIP3   OH219438   3.476   2.469   5.701
 6502TIP3    H119439   3.418   2.523   5.642
 6502TIP3    H219440   3.564   2.489   5.662
 6503TIP3   OH219441   2.706   2.038   6.149
 6503TIP3    H119442   2.636   1.970   6.158
 6503TIP3    H219443   2.740   2.018   6.059
 6504TIP3   OH219444   2.959   1.478   5.785
 6504TIP3    H119445   2.910   1.559   5.761
 6504TIP3    H219446   2.891   1.409   5.772
 6505TIP3   OH219447   3.086   1.979   5.998
 6505TIP3    H119448   3.075   1.968   6.094
 6505TIP3    H219449   2.996   1.955   5.969
 6506TIP3   OH219450   3.326   1.931   5.854
 6506TIP3    H119451   3.250   1.930   5.916
 6506TIP3    H219452   3.400   1.900   5.910
 6507TIP3   OH219453   3.550   1.870   6.006
 6507TIP3    H119454   3.567   1.774   6.022
 6507TIP3    H219455   3.550   1.907   6.096
 6508TIP3   OH219456   2.540   1.818   6.195
 6508TIP3    H119457   2.547   1.728   6.157
 6508TIP3    H219458   2.579   1.802   6.284
 6509TIP3   OH219459   3.052   1.486   6.043
 6509TIP3    H119460   3.121   1.417   6.038
 6509TIP3    H219461   3.015   1.479   5.952
 6510TIP3   OH219462   3.119   1.699   6.201
 6510TIP3    H119463   3.099   1.628   6.136
 6510TIP3    H219464   3.043   1.760   6.188
 6511TIP3   OH219465   2.341   2.922   4.297
 6511TIP3    H119466   2.437   2.922   4.281
 6511TIP3    H219467   2.311   2.978   4.223
 6512TIP3   OH219468   1.820   2.309   4.518
 6512TIP3    H119469   1.915   2.332   4.503
 6512TIP3    H219470   1.815   2.222   4.474
 6513TIP3   OH219471   1.736   2.920   4.930
 6513TIP3    H119472   1.668   2.860   4.893
 6513TIP3    H219473   1.780   2.861   4.995
 6514TIP3   OH219474   1.875   2.768   5.113
 6514TIP3    H119475   1.857   2.702   5.181
 6514TIP3    H219476   1.924   2.834   5.165
 6515TIP3   OH219477   3.599   3.171   4.918
 6515TIP3    H119478   3.625   3.215   5.001
 6515TIP3    H219479   3.656   3.215   4.853
 6516TIP3   OH219480   3.623   3.196   5.202
 6516TIP3    H119481   3.587   3.106   5.195
 6516TIP3    H219482   3.705   3.179   5.250
 6517TIP3   OH219483   3.677   2.868   5.775
 6517TIP3    H119484   3.603   2.879   5.838
 6517TIP3    H219485   3.717   2.957   5.776
 6518TIP3   OH219486   3.488   2.384   4.389
 6518TIP3    H119487   3.555   2.449   4.359
 6518TIP3    H219488   3.536   2.343   4.465
 6519TIP3   OH219489   3.617   2.252   4.594
 6519TIP3    H119490   3.553   2.213   4.656
 6519TIP3    H219491   3.686   2.289   4.653
 6520TIP3   OH219492   3.673   2.643   5.025
 6520TIP3    H119493   3.726   2.580   4.973
 6520TIP3    H219494   3.671   2.721   4.966
 6521TIP3   OH219495   3.502   2.939   5.226
 6521TIP3    H119496   3.432   2.990   5.271
 6521TIP3    H219497   3.453   2.898   5.152
 6522TIP3   OH219498   3.552   2.158   4.234
 6522TIP3    H119499   3.488   2.145   4.162
 6522TIP3    H219500   3.516   2.236   4.280
 6523TIP3   OH219501   3.422   1.839   4.193
 6523TIP3    H119502   3.393   1.882   4.110
 6523TIP3    H219503   3.393   1.747   4.179
 6524TIP3   OH219504   3.423   2.109   4.741
 6524TIP3    H119505   3.442   2.014   4.729
 6524TIP3    H219506   3.422   2.119   4.838
 6525TIP3   OH219507   2.059   2.173   5.492
 6525TIP3    H119508   2.055   2.148   5.397
 6525TIP3    H219509   2.157   2.179   5.504
 6526TIP3   OH219510   3.722   2.530   5.598
 6526TIP3    H119511   3.798   2.471   5.584
 6526TIP3    H219512   3.742   2.605   5.539
 6527TIP3   OH219513   3.929   2.348   5.625
 6527TIP3    H119514   3.845   2.308   5.656
 6527TIP3    H219515   3.986   2.268   5.634
 6528TIP3   OH219516   3.371   1.570   4.190
 6528TIP3    H119517   3.448   1.535   4.240
 6528TIP3    H219518   3.301   1.505   4.205
 6529TIP3   OH219519   3.430   1.827   4.636
 6529TIP3    H119520   3.471   1.738   4.650
 6529TIP3    H219521   3.485   1.858   4.561
 6530TIP3   OH219522   3.589   2.005   5.129
 6530TIP3    H119523   3.676   2.027   5.088
 6530TIP3    H219524   3.607   2.037   5.220
 6531TIP3   OH219525   3.659   2.143   5.363
 6531TIP3    H119526   3.583   2.179   5.413
 6531TIP3    H219527   3.692   2.223   5.317
 6532TIP3   OH219528   2.272   1.863   6.153
 6532TIP3    H119529   2.370   1.861   6.160
 6532TIP3    H219530   2.250   1.780   6.200
 6533TIP3   OH219531   4.106   1.732   5.917
 6533TIP3    H119532   4.169   1.667   5.878
 6533TIP3    H219533   4.083   1.788   5.840
 6534TIP3   OH219534   3.533   1.576   4.678
 6534TIP3    H119535   3.586   1.557   4.758
 6534TIP3    H219536   3.476   1.497   4.673
 6535TIP3   OH219537   2.234   1.561   5.502
 6535TIP3    H119538   2.298   1.487   5.506
 6535TIP3    H219539   2.296   1.636   5.490
 6536TIP3   OH219540   2.040   1.833   5.568
 6536TIP3    H119541   2.089   1.830   5.483
 6536TIP3    H219542   2.058   1.923   5.597
 6537TIP3   OH219543   3.979   1.873   5.721
 6537TIP3    H119544   3.890   1.910   5.739
 6537TIP3    H219545   3.955   1.798   5.665
 6538TIP3   OH219546   3.620   1.506   4.311
 6538TIP3    H119547   3.659   1.437   4.254
 6538TIP3    H219548   3.683   1.580   4.301
 6539TIP3   OH219549   2.021   1.345   5.071
 6539TIP3    H119550   1.925   1.337   5.081
 6539TIP3    H219551   2.027   1.400   4.990
 6540TIP3   OH219552   3.180   3.037   4.575
 6540TIP3    H119553   3.233   3.029   4.493
 6540TIP3    H219554   3.226   3.109   4.622
 6541TIP3   OH219555   2.245   1.425   5.886
 6541TIP3    H119556   2.191   1.415   5.966
 6541TIP3    H219557   2.178   1.457   5.822
 6542TIP3   OH219558   2.286   2.832   5.958
 6542TIP3    H119559   2.191   2.818   5.942
 6542TIP3    H219560   2.289   2.839   6.054
 6543TIP3   OH219561   2.464   2.878   5.505
 6543TIP3    H119562   2.413   2.953   5.468
 6543TIP3    H219563   2.548   2.894   5.459
 6544TIP3   OH219564   2.905   3.119   5.641
 6544TIP3    H119565   2.946   3.124   5.730
 6544TIP3    H219566   2.970   3.172   5.590
 6545TIP3   OH219567   3.085   3.272   5.506
 6545TIP3    H119568   3.159   3.229   5.460
 6545TIP3    H219569   3.135   3.332   5.566
 6546TIP3   OH219570   3.879   1.634   5.604
 6546TIP3    H119571   3.789   1.622   5.570
 6546TIP3    H219572   3.915   1.542   5.593
 6547TIP3   OH219573   2.137   3.128   5.538
 6547TIP3    H119574   2.048   3.159   5.509
 6547TIP3    H219575   2.152   3.187   5.613
 6548TIP3   OH219576   2.371   3.109   5.388
 6548TIP3    H119577   2.285   3.124   5.432
 6548TIP3    H219578   2.353   3.147   5.299
 6549TIP3   OH219579   2.799   3.138   5.187
 6549TIP3    H119580   2.731   3.159   5.121
 6549TIP3    H219581   2.813   3.227   5.228
 6550TIP3   OH219582   3.069   3.076   5.235
 6550TIP3    H119583   2.975   3.098   5.219
 6550TIP3    H219584   3.113   3.152   5.193
 6551TIP3   OH219585   3.271   3.270   5.151
 6551TIP3    H119586   3.257   3.357   5.108
 6551TIP3    H219587   3.299   3.215   5.074
 6552TIP3   OH219588   2.046   2.926   5.271
 6552TIP3    H119589   2.073   2.902   5.363
 6552TIP3    H219590   2.121   2.887   5.221
 6553TIP3   OH219591   2.242   2.799   5.132
 6553TIP3    H119592   2.259   2.717   5.183
 6553TIP3    H219593   2.331   2.840   5.128
 6554TIP3   OH219594   2.504   2.895   5.137
 6554TIP3    H119595   2.540   2.806   5.125
 6554TIP3    H219596   2.550   2.922   5.219
 6555TIP3   OH219597   3.070   1.545   5.208
 6555TIP3    H119598   3.039   1.475   5.269
 6555TIP3    H219599   3.152   1.505   5.172
 6556TIP3   OH219600   3.604   1.437   5.131
 6556TIP3    H119601   3.644   1.482   5.053
 6556TIP3    H219602   3.509   1.452   5.117
 6557TIP3   OH219603   3.701   1.530   4.893
 6557TIP3    H119604   3.773   1.476   4.854
 6557TIP3    H219605   3.737   1.621   4.877
 6558TIP3   OH219606   2.333   1.259   5.241
 6558TIP3    H119607   2.240   1.231   5.235
 6558TIP3    H219608   2.380   1.173   5.237
 6559TIP3   OH219609   2.126   1.129   4.888
 6559TIP3    H119610   2.155   1.182   4.812
 6559TIP3    H219611   2.094   1.198   4.949
 6560TIP3   OH219612   2.775   1.296   5.121
 6560TIP3    H119613   2.834   1.338   5.056
 6560TIP3    H219614   2.813   1.326   5.205
 6561TIP3   OH219615   3.315   1.440   5.104
 6561TIP3    H119616   3.326   1.400   5.016
 6561TIP3    H219617   3.307   1.359   5.160
 6562TIP3   OH219618   3.354   1.361   4.666
 6562TIP3    H119619   3.266   1.400   4.672
 6562TIP3    H219620   3.341   1.275   4.711
 6563TIP3   OH219621   1.837   2.702   4.668
 6563TIP3    H119622   1.751   2.672   4.633
 6563TIP3    H219623   1.830   2.797   4.647
 6564TIP3   OH219624   2.238   1.285   4.653
 6564TIP3    H119625   2.285   1.224   4.593
 6564TIP3    H219626   2.311   1.341   4.686
 6565TIP3   OH219627   2.746   1.466   4.749
 6565TIP3    H119628   2.808   1.419   4.807
 6565TIP3    H219629   2.770   1.558   4.773
 6566TIP3   OH219630   2.610   2.886   4.250
 6566TIP3    H119631   2.698   2.910   4.213
 6566TIP3    H219632   2.588   2.812   4.189
 6567TIP3   OH219633   3.325   3.008   4.342
 6567TIP3    H119634   3.316   2.910   4.328
 6567TIP3    H219635   3.283   3.042   4.260
 6568TIP3   OH219636   2.540   1.540   6.131
 6568TIP3    H119637   2.509   1.468   6.187
 6568TIP3    H219638   2.635   1.541   6.155
 6569TIP3   OH219639   2.790   1.539   6.248
 6569TIP3    H119640   2.875   1.514   6.207
 6569TIP3    H219641   2.780   1.468   6.315
 6570TIP3   OH219642   1.910   2.719   4.304
 6570TIP3    H119643   1.914   2.755   4.393
 6570TIP3    H219644   2.000   2.681   4.292
 6571TIP3   OH219645   3.616   1.601   6.036
 6571TIP3    H119646   3.636   1.569   6.126
 6571TIP3    H219647   3.704   1.596   5.993
 6572TIP3   OH219648   3.552   3.150   5.529
 6572TIP3    H119649   3.474   3.121   5.477
 6572TIP3    H219650   3.536   3.247   5.531
 6573TIP3   OH219651   4.820   2.523   4.293
 6573TIP3    H119652   4.792   2.615   4.273
 6573TIP3    H219653   4.743   2.474   4.260
 6574TIP3   OH219654   4.815   2.525   4.679
 6574TIP3    H119655   4.851   2.501   4.766
 6574TIP3    H219656   4.779   2.441   4.648
 6575TIP3   OH219657   4.117   2.424   5.052
 6575TIP3    H119658   4.152   2.353   5.109
 6575TIP3    H219659   4.199   2.464   5.020
 6576TIP3   OH219660   5.063   2.826   4.359
 6576TIP3    H119661   5.051   2.758   4.426
 6576TIP3    H219662   5.093   2.902   4.411
 6577TIP3   OH219663   4.092   2.826   4.767
 6577TIP3    H119664   4.084   2.729   4.768
 6577TIP3    H219665   4.188   2.836   4.755
 6578TIP3   OH219666   3.793   2.027   4.550
 6578TIP3    H119667   3.748   2.113   4.562
 6578TIP3    H219668   3.723   1.977   4.504
 6579TIP3   OH219669   3.854   2.318   4.723
 6579TIP3    H119670   3.905   2.242   4.758
 6579TIP3    H219671   3.916   2.357   4.661
 6580TIP3   OH219672   4.712   3.289   4.371
 6580TIP3    H119673   4.757   3.216   4.323
 6580TIP3    H219674   4.703   3.253   4.459
 6581TIP3   OH219675   4.618   2.748   4.726
 6581TIP3    H119676   4.660   2.672   4.681
 6581TIP3    H219677   4.700   2.796   4.750
 6582TIP3   OH219678   5.631   2.071   4.722
 6582TIP3    H119679   5.660   2.153   4.767
 6582TIP3    H219680   5.655   2.091   4.630
 6583TIP3   OH219681   5.026   2.252   4.755
 6583TIP3    H119682   5.073   2.169   4.778
 6583TIP3    H219683   4.999   2.234   4.664
 6584TIP3   OH219684   4.367   1.910   4.723
 6584TIP3    H119685   4.350   1.983   4.659
 6584TIP3    H219686   4.320   1.837   4.677
 6585TIP3   OH219687   5.064   2.001   4.343
 6585TIP3    H119688   5.135   1.986   4.409
 6585TIP3    H219689   5.116   2.037   4.269
 6586TIP3   OH219690   4.002   2.111   4.829
 6586TIP3    H119691   4.086   2.092   4.875
 6586TIP3    H219692   4.015   2.058   4.748
 6587TIP3   OH219693   4.441   2.309   4.628
 6587TIP3    H119694   4.536   2.286   4.637
 6587TIP3    H219695   4.404   2.226   4.592
 6588TIP3   OH219696   5.704   2.279   4.890
 6588TIP3    H119697   5.620   2.326   4.873
 6588TIP3    H219698   5.716   2.300   4.984
 6589TIP3   OH219699   4.365   1.894   5.156
 6589TIP3    H119700   4.306   1.931   5.087
 6589TIP3    H219701   4.313   1.914   5.236
 6590TIP3   OH219702   4.709   2.744   4.164
 6590TIP3    H119703   4.670   2.729   4.077
 6590TIP3    H219704   4.667   2.829   4.189
 6591TIP3   OH219705   4.470   2.668   4.949
 6591TIP3    H119706   4.411   2.738   4.984
 6591TIP3    H219707   4.517   2.716   4.877
 6592TIP3   OH219708   5.271   2.006   4.519
 6592TIP3    H119709   5.258   1.964   4.605
 6592TIP3    H219710   5.325   2.083   4.543
 6593TIP3   OH219711   4.235   2.008   4.940
 6593TIP3    H119712   4.298   2.081   4.962
 6593TIP3    H219713   4.284   1.967   4.865
 6594TIP3   OH219714   4.301   2.865   5.048
 6594TIP3    H119715   4.277   2.951   5.007
 6594TIP3    H219716   4.221   2.851   5.102
 6595TIP3   OH219717   3.690   2.555   4.285
 6595TIP3    H119718   3.652   2.585   4.201
 6595TIP3    H219719   3.722   2.640   4.322
 6596TIP3   OH219720   5.133   3.069   4.523
 6596TIP3    H119721   5.043   3.061   4.562
 6596TIP3    H219722   5.125   3.156   4.478
 6597TIP3   OH219723   5.426   1.963   4.882
 6597TIP3    H119724   5.341   2.002   4.858
 6597TIP3    H219725   5.486   1.998   4.813
 6598TIP3   OH219726   4.718   1.611   4.866
 6598TIP3    H119727   4.709   1.516   4.888
 6598TIP3    H219728   4.642   1.648   4.915
 6599TIP3   OH219729   4.833   3.114   4.196
 6599TIP3    H119730   4.885   3.032   4.175
 6599TIP3    H219731   4.894   3.181   4.157
 6600TIP3   OH219732   4.978   2.899   4.106
 6600TIP3    H119733   4.940   2.818   4.068
 6600TIP3    H219734   5.014   2.866   4.191
 6601TIP3   OH219735   5.359   2.982   4.868
 6601TIP3    H119736   5.349   2.904   4.809
 6601TIP3    H219737   5.343   3.056   4.806
 6602TIP3   OH219738   4.650   2.374   4.125
 6602TIP3    H119739   4.570   2.427   4.104
 6602TIP3    H219740   4.698   2.375   4.041
 6603TIP3   OH219741   4.609   2.162   3.839
 6603TIP3    H119742   4.676   2.212   3.890
 6603TIP3    H219743   4.666   2.099   3.792
 6604TIP3   OH219744   5.554   2.619   4.713
 6604TIP3    H119745   5.471   2.671   4.718
 6604TIP3    H219746   5.584   2.643   4.622
 6605TIP3   OH219747   4.998   2.457   4.096
 6605TIP3    H119748   4.944   2.483   4.175
 6605TIP3    H219749   5.082   2.432   4.140
 6606TIP3   OH219750   5.230   2.492   5.003
 6606TIP3    H119751   5.240   2.566   5.066
 6606TIP3    H219752   5.144   2.512   4.963
 6607TIP3   OH219753   4.230   2.455   4.515
 6607TIP3    H119754   4.190   2.397   4.447
 6607TIP3    H219755   4.307   2.402   4.544
 6608TIP3   OH219756   4.357   2.859   4.665
 6608TIP3    H119757   4.341   2.829   4.574
 6608TIP3    H219758   4.448   2.829   4.681
 6609TIP3   OH219759   4.356   2.431   4.868
 6609TIP3    H119760   4.394   2.404   4.782
 6609TIP3    H219761   4.406   2.513   4.888
 6610TIP3   OH219762   4.892   3.065   4.646
 6610TIP3    H119763   4.878   3.145   4.699
 6610TIP3    H219764   4.878   2.992   4.709
 6611TIP3   OH219765   4.505   2.984   5.194
 6611TIP3    H119766   4.445   3.047   5.237
 6611TIP3    H219767   4.441   2.931   5.141
 6612TIP3   OH219768   4.839   2.316   3.923
 6612TIP3    H119769   4.898   2.375   3.975
 6612TIP3    H219770   4.865   2.340   3.831
 6613TIP3   OH219771   4.261   2.536   5.309
 6613TIP3    H119772   4.264   2.629   5.340
 6613TIP3    H219773   4.166   2.524   5.291
 6614TIP3   OH219774   4.583   2.995   4.198
 6614TIP3    H119775   4.664   3.047   4.211
 6614TIP3    H219776   4.522   3.061   4.160
 6615TIP3   OH219777   4.299   3.150   5.278
 6615TIP3    H119778   4.266   3.153   5.186
 6615TIP3    H219779   4.218   3.128   5.329
 6616TIP3   OH219780   5.354   1.556   3.971
 6616TIP3    H119781   5.273   1.577   4.023
 6616TIP3    H219782   5.367   1.640   3.922
 6617TIP3   OH219783   4.096   2.299   4.319
 6617TIP3    H119784   4.030   2.345   4.263
 6617TIP3    H219785   4.058   2.211   4.325
 6618TIP3   OH219786   5.154   2.923   3.519
 6618TIP3    H119787   5.162   3.021   3.506
 6618TIP3    H219788   5.247   2.895   3.507
 6619TIP3   OH219789   3.875   2.685   5.227
 6619TIP3    H119790   3.814   2.665   5.153
 6619TIP3    H219791   3.913   2.597   5.247
 6620TIP3   OH219792   3.733   2.870   4.868
 6620TIP3    H119793   3.828   2.871   4.849
 6620TIP3    H219794   3.723   2.956   4.914
 6621TIP3   OH219795   5.596   3.327   4.914
 6621TIP3    H119796   5.596   3.231   4.928
 6621TIP3    H219797   5.512   3.351   4.960
 6622TIP3   OH219798   4.704   3.113   5.050
 6622TIP3    H119799   4.701   3.206   5.082
 6622TIP3    H219800   4.632   3.072   5.104
 6623TIP3   OH219801   4.465   3.244   4.002
 6623TIP3    H119802   4.417   3.227   3.918
 6623TIP3    H219803   4.431   3.332   4.028
 6624TIP3   OH219804   3.903   3.085   4.383
 6624TIP3    H119805   3.951   3.080   4.469
 6624TIP3    H219806   3.842   3.010   4.392
 6625TIP3   OH219807   4.664   3.142   3.640
 6625TIP3    H119808   4.724   3.072   3.605
 6625TIP3    H219809   4.699   3.153   3.731
 6626TIP3   OH219810   4.716   3.191   3.909
 6626TIP3    H119811   4.628   3.203   3.952
 6626TIP3    H219812   4.768   3.155   3.983
 6627TIP3   OH219813   4.084   2.864   5.212
 6627TIP3    H119814   4.132   2.851   5.296
 6627TIP3    H219815   4.007   2.804   5.220
 6628TIP3   OH219816   4.480   1.687   5.000
 6628TIP3    H119817   4.391   1.659   4.973
 6628TIP3    H219818   4.458   1.771   5.045
 6629TIP3   OH219819   5.019   1.803   5.193
 6629TIP3    H119820   5.089   1.777   5.256
 6629TIP3    H219821   4.937   1.784   5.242
 6630TIP3   OH219822   5.257   2.230   5.106
 6630TIP3    H119823   5.211   2.232   5.192
 6630TIP3    H219824   5.247   2.322   5.074
 6631TIP3   OH219825   4.912   2.359   3.664
 6631TIP3    H119826   4.882   2.336   3.575
 6631TIP3    H219827   4.995   2.407   3.644
 6632TIP3   OH219828   4.627   1.737   3.970
 6632TIP3    H119829   4.594   1.735   4.062
 6632TIP3    H219830   4.589   1.654   3.937
 6633TIP3   OH219831   4.411   2.205   5.014
 6633TIP3    H119832   4.367   2.229   5.098
 6633TIP3    H219833   4.396   2.287   4.961
 6634TIP3   OH219834   4.298   2.090   4.531
 6634TIP3    H119835   4.205   2.065   4.548
 6634TIP3    H219836   4.312   2.050   4.443
 6635TIP3   OH219837   4.787   2.175   4.258
 6635TIP3    H119838   4.735   2.247   4.216
 6635TIP3    H219839   4.843   2.145   4.184
 6636TIP3   OH219840   4.965   2.458   5.346
 6636TIP3    H119841   4.947   2.383   5.406
 6636TIP3    H219842   5.061   2.471   5.362
 6637TIP3   OH219843   4.943   2.203   4.497
 6637TIP3    H119844   4.884   2.232   4.425
 6637TIP3    H219845   4.979   2.122   4.454
 6638TIP3   OH219846   4.230   2.236   5.229
 6638TIP3    H119847   4.280   2.294   5.288
 6638TIP3    H219848   4.225   2.153   5.280
 6639TIP3   OH219849   4.284   1.710   3.936
 6639TIP3    H119850   4.274   1.709   4.033
 6639TIP3    H219851   4.206   1.763   3.910
 6640TIP3   OH219852   3.825   1.754   4.812
 6640TIP3    H119853   3.902   1.787   4.862
 6640TIP3    H219854   3.863   1.727   4.727
 6641TIP3   OH219855   3.795   1.737   4.325
 6641TIP3    H119856   3.839   1.774   4.246
 6641TIP3    H219857   3.733   1.810   4.345
 6642TIP3   OH219858   4.940   2.449   4.918
 6642TIP3    H119859   4.982   2.381   4.861
 6642TIP3    H219860   4.923   2.396   4.999
 6643TIP3   OH219861   4.625   1.913   4.592
 6643TIP3    H119862   4.547   1.911   4.650
 6643TIP3    H219863   4.698   1.907   4.656
 6644TIP3   OH219864   4.058   1.968   4.602
 6644TIP3    H119865   3.964   1.972   4.572
 6644TIP3    H219866   4.085   1.878   4.576
 6645TIP3   OH219867   4.327   1.963   4.290
 6645TIP3    H119868   4.421   1.979   4.270
 6645TIP3    H219869   4.281   1.987   4.206
 6646TIP3   OH219870   5.116   1.990   4.793
 6646TIP3    H119871   5.085   2.002   4.885
 6646TIP3    H219872   5.049   1.929   4.759
 6647TIP3   OH219873   4.172   1.999   4.067
 6647TIP3    H119874   4.102   1.953   4.017
 6647TIP3    H219875   4.225   2.037   3.993
 6648TIP3   OH219876   5.288   3.678   5.013
 6648TIP3    H119877   5.286   3.701   4.919
 6648TIP3    H219878   5.368   3.726   5.043
 6649TIP3   OH219879   4.244   2.783   5.437
 6649TIP3    H119880   4.326   2.818   5.477
 6649TIP3    H219881   4.179   2.804   5.507
 6650TIP3   OH219882   4.708   2.240   4.687
 6650TIP3    H119883   4.782   2.205   4.636
 6650TIP3    H219884   4.722   2.199   4.774
 6651TIP3   OH219885   4.228   1.729   4.569
 6651TIP3    H119886   4.196   1.649   4.615
 6651TIP3    H219887   4.280   1.692   4.496
 6652TIP3   OH219888   4.685   2.135   4.985
 6652TIP3    H119889   4.598   2.176   4.996
 6652TIP3    H219890   4.746   2.196   5.032
 6653TIP3   OH219891   4.421   2.528   4.073
 6653TIP3    H119892   4.348   2.464   4.062
 6653TIP3    H219893   4.403   2.562   4.164
 6654TIP3   OH219894   5.321   2.766   4.702
 6654TIP3    H119895   5.347   2.814   4.621
 6654TIP3    H219896   5.236   2.724   4.677
 6655TIP3   OH219897   4.879   1.841   3.935
 6655TIP3    H119898   4.782   1.824   3.946
 6655TIP3    H219899   4.889   1.935   3.962
 6656TIP3   OH219900   4.811   2.842   5.075
 6656TIP3    H119901   4.857   2.830   5.159
 6656TIP3    H219902   4.783   2.935   5.078
 6657TIP3   OH219903   4.948   2.087   4.040
 6657TIP3    H119904   5.045   2.093   4.057
 6657TIP3    H219905   4.930   2.168   3.988
 6658TIP3   OH219906   4.110   2.543   4.750
 6658TIP3    H119907   4.147   2.523   4.661
 6658TIP3    H219908   4.168   2.490   4.806
 6659TIP3   OH219909   4.566   2.678   3.894
 6659TIP3    H119910   4.518   2.764   3.900
 6659TIP3    H219911   4.512   2.623   3.955
 6660TIP3   OH219912   3.985   2.469   5.368
 6660TIP3    H119913   3.990   2.432   5.457
 6660TIP3    H219914   3.921   2.408   5.326
 6661TIP3   OH219915   4.721   2.582   5.389
 6661TIP3    H119916   4.671   2.531   5.323
 6661TIP3    H219917   4.813   2.553   5.366
 6662TIP3   OH219918   4.980   3.104   4.971
 6662TIP3    H119919   4.883   3.107   4.981
 6662TIP3    H219920   5.007   3.159   5.048
 6663TIP3   OH219921   5.389   2.179   3.876
 6663TIP3    H119922   5.327   2.134   3.814
 6663TIP3    H219923   5.386   2.268   3.835
 6664TIP3   OH219924   5.610   3.039   4.956
 6664TIP3    H119925   5.512   3.030   4.950
 6664TIP3    H219926   5.635   3.007   4.866
 6665TIP3   OH219927   5.089   2.997   3.783
 6665TIP3    H119928   5.067   2.927   3.846
 6665TIP3    H219929   5.104   2.949   3.700
 6666TIP3   OH219930   5.086   2.628   4.619
 6666TIP3    H119931   4.993   2.602   4.632
 6666TIP3    H219932   5.121   2.548   4.577
 6667TIP3   OH219933   4.216   2.855   4.377
 6667TIP3    H119934   4.220   2.937   4.323
 6667TIP3    H219935   4.121   2.843   4.384
 6668TIP3   OH219936   3.778   2.158   4.077
 6668TIP3    H119937   3.826   2.241   4.100
 6668TIP3    H219938   3.700   2.163   4.136
 6669TIP3   OH219939   4.349   2.619   4.318
 6669TIP3    H119940   4.317   2.710   4.336
 6669TIP3    H219941   4.314   2.571   4.395
 6670TIP3   OH219942   4.484   3.197   4.844
 6670TIP3    H119943   4.522   3.271   4.792
 6670TIP3    H219944   4.563   3.165   4.889
 6671TIP3   OH219945   4.138   3.092   4.229
 6671TIP3    H119946   4.051   3.102   4.272
 6671TIP3    H219947   4.171   3.185   4.232
 6672TIP3   OH219948   4.871   2.834   4.805
 6672TIP3    H119949   4.861   2.828   4.902
 6672TIP3    H219950   4.952   2.783   4.791
 6673TIP3   OH219951   4.848   2.723   3.687
 6673TIP3    H119952   4.902   2.699   3.766
 6673TIP3    H219953   4.759   2.700   3.718
 6674TIP3   OH219954   5.119   3.367   4.854
 6674TIP3    H119955   5.040   3.311   4.844
 6674TIP3    H219956   5.106   3.431   4.781
 6675TIP3   OH219957   5.186   3.200   3.505
 6675TIP3    H119958   5.226   3.274   3.457
 6675TIP3    H219959   5.105   3.245   3.539
 6676TIP3   OH219960   4.207   1.978   5.373
 6676TIP3    H119961   4.110   1.977   5.382
 6676TIP3    H219962   4.234   1.913   5.440
 6677TIP3   OH219963   5.008   2.657   3.902
 6677TIP3    H119964   4.999   2.591   3.974
 6677TIP3    H219965   5.105   2.656   3.890
 6678TIP3   OH219966   3.920   3.062   5.005
 6678TIP3    H119967   3.979   2.993   5.039
 6678TIP3    H219968   3.953   3.140   5.052
 6679TIP3   OH219969   4.213   2.704   3.686
 6679TIP3    H119970   4.226   2.611   3.659
 6679TIP3    H219971   4.193   2.695   3.781
 6680TIP3   OH219972   4.157   2.710   3.958
 6680TIP3    H119973   4.231   2.685   4.015
 6680TIP3    H219974   4.159   2.809   3.965
 6681TIP3   OH219975   3.891   2.404   4.163
 6681TIP3    H119976   3.826   2.451   4.219
 6681TIP3    H219977   3.909   2.473   4.096
 6682TIP3   OH219978   5.044   2.042   5.052
 6682TIP3    H119979   5.123   2.084   5.088
 6682TIP3    H219980   5.035   1.962   5.109
 6683TIP3   OH219981   4.924   1.791   4.219
 6683TIP3    H119982   4.912   1.816   4.125
 6683TIP3    H219983   4.965   1.872   4.256
 6684TIP3   OH219984   4.422   2.908   3.905
 6684TIP3    H119985   4.336   2.934   3.941
 6684TIP3    H219986   4.442   2.985   3.851
 6685TIP3   OH219987   4.609   1.972   4.320
 6685TIP3    H119988   4.674   2.043   4.303
 6685TIP3    H219989   4.616   1.963   4.418
 6686TIP3   OH219990   4.881   2.288   5.132
 6686TIP3    H119991   4.908   2.341   5.209
 6686TIP3    H219992   4.941   2.211   5.140
 6687TIP3   OH219993   4.756   1.695   4.421
 6687TIP3    H119994   4.755   1.768   4.484
 6687TIP3    H219995   4.817   1.731   4.352
 6688TIP3   OH219996   4.166   2.982   3.975
 6688TIP3    H119997   4.138   3.052   3.912
 6688TIP3    H219998   4.152   3.027   4.061
 6689TIP3   OH219999   4.268   1.697   4.213
 6689TIP3    H120000   4.266   1.788   4.248
 6689TIP3    H220001   4.364   1.679   4.220
 6690TIP3   OH220002   5.527   2.173   5.106
 6690TIP3    H120003   5.433   2.194   5.124
 6690TIP3    H220004   5.520   2.146   5.013
 6691TIP3   OH220005   5.172   2.385   4.497
 6691TIP3    H120006   5.097   2.324   4.511
 6691TIP3    H220007   5.244   2.339   4.545
 6692TIP3   OH220008   3.885   2.611   3.967
 6692TIP3    H120009   3.950   2.683   3.975
 6692TIP3    H220010   3.931   2.556   3.900
 6693TIP3   OH220011   3.825   1.889   4.099
 6693TIP3    H120012   3.828   1.987   4.093
 6693TIP3    H220013   3.742   1.870   4.053
 6694TIP3   OH220014   5.141   3.342   4.447
 6694TIP3    H120015   5.099   3.390   4.372
 6694TIP3    H220016   5.235   3.361   4.426
 6695TIP3   OH220017   4.213   1.609   4.974
 6695TIP3    H120018   4.186   1.576   4.887
 6695TIP3    H220019   4.205   1.530   5.031
 6696TIP3   OH220020   3.751   2.820   4.354
 6696TIP3    H120021   3.684   2.857   4.413
 6696TIP3    H220022   3.728   2.865   4.269
 6697TIP3   OH220023   3.914   3.372   5.428
 6697TIP3    H120024   4.001   3.373   5.474
 6697TIP3    H220025   3.895   3.276   5.424
 6698TIP3   OH220026   4.392   3.329   5.474
 6698TIP3    H120027   4.488   3.316   5.477
 6698TIP3    H220028   4.369   3.273   5.397
 6699TIP3   OH220029   4.374   2.908   3.595
 6699TIP3    H120030   4.319   2.838   3.636
 6699TIP3    H220031   4.451   2.856   3.567
 6700TIP3   OH220032   5.030   3.242   5.206
 6700TIP3    H120033   5.024   3.170   5.273
 6700TIP3    H220034   5.110   3.290   5.234
 6701TIP3   OH220035   4.811   2.948   3.509
 6701TIP3    H120036   4.856   2.886   3.569
 6701TIP3    H220037   4.869   2.949   3.431
 6702TIP3   OH220038   4.046   2.780   5.627
 6702TIP3    H120039   4.069   2.686   5.630
 6702TIP3    H220040   3.958   2.779   5.584
 6703TIP3   OH220041   4.018   2.423   3.821
 6703TIP3    H120042   4.076   2.392   3.893
 6703TIP3    H220043   4.084   2.429   3.748
 6704TIP3   OH220044   4.645   2.858   5.402
 6704TIP3    H120045   4.614   2.879   5.312
 6704TIP3    H220046   4.684   2.769   5.390
 6705TIP3   OH220047   4.532   2.624   3.625
 6705TIP3    H120048   4.534   2.638   3.722
 6705TIP3    H220049   4.530   2.526   3.622
 6706TIP3   OH220050   5.141   2.873   5.003
 6706TIP3    H120051   5.220   2.913   4.961
 6706TIP3    H220052   5.076   2.944   4.987
 6707TIP3   OH220053   4.185   2.504   5.672
 6707TIP3    H120054   4.229   2.462   5.594
 6707TIP3    H220055   4.099   2.458   5.668
 6708TIP3   OH220056   4.226   2.330   4.039
 6708TIP3    H120057   4.203   2.288   4.123
 6708TIP3    H220058   4.264   2.255   3.989
 6709TIP3   OH220059   4.490   2.385   5.264
 6709TIP3    H120060   4.421   2.455   5.272
 6709TIP3    H220061   4.546   2.422   5.192
 6710TIP3   OH220062   4.331   2.124   3.882
 6710TIP3    H120063   4.304   2.129   3.788
 6710TIP3    H220064   4.428   2.131   3.873
 6711TIP3   OH220065   5.015   2.794   5.400
 6711TIP3    H120066   5.097   2.774   5.353
 6711TIP3    H220067   5.017   2.728   5.471
 6712TIP3   OH220068   5.149   2.453   3.546
 6712TIP3    H120069   5.129   2.409   3.462
 6712TIP3    H220070   5.118   2.544   3.523
 6713TIP3   OH220071   4.611   2.183   5.407
 6713TIP3    H120072   4.620   2.104   5.350
 6713TIP3    H220073   4.574   2.248   5.344
 6714TIP3   OH220074   4.623   1.970   5.207
 6714TIP3    H120075   4.654   2.011   5.124
 6714TIP3    H220076   4.531   1.947   5.184
 6715TIP3   OH220077   4.648   2.504   5.082
 6715TIP3    H120078   4.733   2.507   5.036
 6715TIP3    H220079   4.597   2.572   5.033
 6716TIP3   OH220080   5.245   2.471   5.464
 6716TIP3    H120081   5.282   2.382   5.461
 6716TIP3    H220082   5.330   2.521   5.457
 6717TIP3   OH220083   5.268   2.723   5.191
 6717TIP3    H120084   5.214   2.778   5.129
 6717TIP3    H220085   5.358   2.742   5.156
 6718TIP3   OH220086   4.466   2.312   5.632
 6718TIP3    H120087   4.420   2.226   5.639
 6718TIP3    H220088   4.518   2.300   5.551
 6719TIP3   OH220089   4.756   1.733   5.270
 6719TIP3    H120090   4.708   1.815   5.248
 6719TIP3    H220091   4.687   1.665   5.258
 6720TIP3   OH220092   4.881   2.240   5.485
 6720TIP3    H120093   4.884   2.225   5.582
 6720TIP3    H220094   4.789   2.212   5.466
 6721TIP3   OH220095   5.113   2.189   5.333
 6721TIP3    H120096   5.040   2.189   5.396
 6721TIP3    H220097   5.187   2.157   5.390
 6722TIP3   OH220098   5.316   2.118   5.496
 6722TIP3    H120099   5.351   2.027   5.508
 6722TIP3    H220100   5.348   2.162   5.577
 6723TIP3   OH220101   4.338   2.070   5.684
 6723TIP3    H120102   4.343   1.983   5.641
 6723TIP3    H220103   4.382   2.050   5.769
 6724TIP3   OH220104   4.847   1.739   5.529
 6724TIP3    H120105   4.916   1.670   5.528
 6724TIP3    H220106   4.812   1.732   5.438
 6725TIP3   OH220107   4.920   1.956   5.679
 6725TIP3    H120108   4.896   1.883   5.618
 6725TIP3    H220109   4.841   2.013   5.674
 6726TIP3   OH220110   4.137   3.180   3.784
 6726TIP3    H120111   4.233   3.179   3.768
 6726TIP3    H220112   4.108   3.235   3.709
 6727TIP3   OH220113   3.617   2.572   4.005
 6727TIP3    H120114   3.712   2.593   3.989
 6727TIP3    H220115   3.611   2.481   3.975
 6728TIP3   OH220116   3.527   3.178   4.420
 6728TIP3    H120117   3.461   3.116   4.381
 6728TIP3    H220118   3.574   3.119   4.483
 6729TIP3   OH220119   3.670   3.026   4.600
 6729TIP3    H120120   3.655   2.958   4.667
 6729TIP3    H220121   3.721   3.091   4.651
 6730TIP3   OH220122   5.394   3.434   4.404
 6730TIP3    H120123   5.424   3.466   4.490
 6730TIP3    H220124   5.461   3.469   4.343
 6731TIP3   OH220125   5.424   3.452   4.688
 6731TIP3    H120126   5.379   3.365   4.681
 6731TIP3    H220127   5.500   3.426   4.743
 6732TIP3   OH220128   5.467   3.131   5.255
 6732TIP3    H120129   5.398   3.135   5.323
 6732TIP3    H220130   5.510   3.218   5.264
 6733TIP3   OH220131   5.287   2.641   3.877
 6733TIP3    H120132   5.355   2.706   3.849
 6733TIP3    H220133   5.331   2.602   3.957
 6734TIP3   OH220134   5.414   2.508   4.081
 6734TIP3    H120135   5.349   2.467   4.142
 6734TIP3    H220136   5.481   2.545   4.143
 6735TIP3   OH220137   5.469   2.901   4.513
 6735TIP3    H120138   5.523   2.835   4.465
 6735TIP3    H220139   5.464   2.975   4.449
 6736TIP3   OH220140   5.299   3.201   4.708
 6736TIP3    H120141   5.227   3.242   4.759
 6736TIP3    H220142   5.250   3.153   4.638
 6737TIP3   OH220143   5.351   2.416   3.729
 6737TIP3    H120144   5.279   2.420   3.662
 6737TIP3    H220145   5.326   2.492   3.784
 6738TIP3   OH220146   5.222   2.088   3.683
 6738TIP3    H120147   5.179   2.128   3.606
 6738TIP3    H220148   5.198   1.994   3.672
 6739TIP3   OH220149   5.226   2.365   4.228
 6739TIP3    H120150   5.237   2.269   4.224
 6739TIP3    H220151   5.213   2.381   4.324
 6740TIP3   OH220152   3.854   2.434   4.978
 6740TIP3    H120153   3.853   2.406   4.884
 6740TIP3    H220154   3.951   2.441   4.993
 6741TIP3   OH220155   5.515   2.789   5.088
 6741TIP3    H120156   5.578   2.713   5.078
 6741TIP3    H220157   5.549   2.853   5.025
 6742TIP3   OH220158   5.681   2.577   5.111
 6742TIP3    H120159   5.642   2.555   5.196
 6742TIP3    H220160   5.758   2.517   5.111
 6743TIP3   OH220161   5.168   1.821   3.664
 6743TIP3    H120162   5.243   1.793   3.720
 6743TIP3    H220163   5.095   1.764   3.693
 6744TIP3   OH220164   5.223   2.081   4.121
 6744TIP3    H120165   5.265   1.993   4.136
 6744TIP3    H220166   5.282   2.116   4.052
 6745TIP3   OH220167   5.384   2.254   4.617
 6745TIP3    H120168   5.470   2.280   4.577
 6745TIP3    H220169   5.397   2.292   4.706
 6746TIP3   OH220170   5.453   2.396   4.848
 6746TIP3    H120171   5.380   2.428   4.905
 6746TIP3    H220172   5.485   2.480   4.808
 6747TIP3   OH220173   4.071   2.122   5.646
 6747TIP3    H120174   4.169   2.116   5.652
 6747TIP3    H220175   4.046   2.037   5.688
 6748TIP3   OH220176   5.909   1.994   5.405
 6748TIP3    H120177   5.964   1.928   5.359
 6748TIP3    H220178   5.875   2.048   5.330
 6749TIP3   OH220179   5.333   1.832   4.160
 6749TIP3    H120180   5.382   1.816   4.243
 6749TIP3    H220181   5.273   1.754   4.159
 6750TIP3   OH220182   4.031   1.819   4.989
 6750TIP3    H120183   4.093   1.743   4.993
 6750TIP3    H220184   4.094   1.892   4.976
 6751TIP3   OH220185   3.834   2.094   5.051
 6751TIP3    H120186   3.884   2.082   4.968
 6751TIP3    H220187   3.868   2.178   5.081
 6752TIP3   OH220188   5.774   2.131   5.213
 6752TIP3    H120189   5.684   2.170   5.217
 6752TIP3    H220190   5.753   2.056   5.153
 6753TIP3   OH220191   5.411   1.766   3.792
 6753TIP3    H120192   5.455   1.695   3.742
 6753TIP3    H220193   5.479   1.837   3.790
 6754TIP3   OH220194   3.819   1.598   4.556
 6754TIP3    H120195   3.724   1.592   4.577
 6754TIP3    H220196   3.818   1.654   4.476
 6755TIP3   OH220197   4.981   3.295   4.062
 6755TIP3    H120198   5.031   3.282   3.979
 6755TIP3    H220199   5.032   3.367   4.103
 6756TIP3   OH220200   4.040   1.682   5.372
 6756TIP3    H120201   3.987   1.671   5.453
 6756TIP3    H220202   3.973   1.713   5.309
 6757TIP3   OH220203   4.081   3.092   5.446
 6757TIP3    H120204   3.986   3.076   5.430
 6757TIP3    H220205   4.085   3.094   5.542
 6758TIP3   OH220206   4.258   3.136   4.994
 6758TIP3    H120207   4.211   3.212   4.954
 6758TIP3    H220208   4.344   3.149   4.947
 6759TIP3   OH220209   4.701   3.379   5.131
 6759TIP3    H120210   4.744   3.380   5.219
 6759TIP3    H220211   4.766   3.429   5.078
 6760TIP3   OH220212   4.880   3.530   4.992
 6760TIP3    H120213   4.951   3.480   4.947
 6760TIP3    H220214   4.933   3.588   5.051
 6761TIP3   OH220215   5.681   1.892   5.089
 6761TIP3    H120216   5.588   1.891   5.058
 6761TIP3    H220217   5.706   1.797   5.076
 6762TIP3   OH220218   3.932   3.383   5.024
 6762TIP3    H120219   3.845   3.417   4.994
 6762TIP3    H220220   3.946   3.439   5.101
 6763TIP3   OH220221   4.168   3.368   4.875
 6763TIP3    H120222   4.081   3.383   4.918
 6763TIP3    H220223   4.151   3.404   4.785
 6764TIP3   OH220224   4.595   3.397   4.674
 6764TIP3    H120225   4.528   3.416   4.605
 6764TIP3    H220226   4.608   3.487   4.711
 6765TIP3   OH220227   4.864   3.338   4.726
 6765TIP3    H120228   4.769   3.354   4.706
 6765TIP3    H220229   4.905   3.412   4.679
 6766TIP3   OH220230   5.076   3.532   4.638
 6766TIP3    H120231   5.057   3.615   4.589
 6766TIP3    H220232   5.099   3.470   4.566
 6767TIP3   OH220233   3.841   3.182   4.760
 6767TIP3    H120234   3.870   3.159   4.851
 6767TIP3    H220235   3.916   3.143   4.709
 6768TIP3   OH220236   4.038   3.056   4.620
 6768TIP3    H120237   4.057   2.973   4.668
 6768TIP3    H220238   4.128   3.095   4.615
 6769TIP3   OH220239   4.302   3.148   4.624
 6769TIP3    H120240   4.338   3.059   4.612
 6769TIP3    H220241   4.349   3.175   4.705
 6770TIP3   OH220242   4.874   1.805   4.701
 6770TIP3    H120243   4.837   1.734   4.757
 6770TIP3    H220244   4.954   1.762   4.662
 6771TIP3   OH220245   5.401   1.683   4.609
 6771TIP3    H120246   5.440   1.738   4.537
 6771TIP3    H220247   5.308   1.712   4.608
 6772TIP3   OH220248   5.499   1.788   4.376
 6772TIP3    H120249   5.573   1.736   4.338
 6772TIP3    H220250   5.534   1.879   4.362
 6773TIP3   OH220251   4.129   1.515   4.726
 6773TIP3    H120252   4.037   1.482   4.725
 6773TIP3    H220253   4.179   1.430   4.722
 6774TIP3   OH220254   3.920   1.386   4.375
 6774TIP3    H120255   3.949   1.441   4.300
 6774TIP3    H220256   3.890   1.453   4.439
 6775TIP3   OH220257   4.573   1.550   4.608
 6775TIP3    H120258   4.629   1.597   4.544
 6775TIP3    H220259   4.605   1.584   4.692
 6776TIP3   OH220260   5.113   1.696   4.592
 6776TIP3    H120261   5.122   1.657   4.504
 6776TIP3    H220262   5.103   1.615   4.648
 6777TIP3   OH220263   5.150   1.618   4.151
 6777TIP3    H120264   5.064   1.662   4.167
 6777TIP3    H220265   5.136   1.533   4.198
 6778TIP3   OH220266   3.633   2.959   4.154
 6778TIP3    H120267   3.548   2.928   4.119
 6778TIP3    H220268   3.626   3.054   4.133
 6779TIP3   OH220269   4.034   1.543   4.139
 6779TIP3    H120270   4.082   1.482   4.080
 6779TIP3    H220271   4.107   1.598   4.173
 6780TIP3   OH220272   4.545   1.721   4.235
 6780TIP3    H120273   4.607   1.676   4.295
 6780TIP3    H220274   4.565   1.814   4.260
 6781TIP3   OH220275   4.406   3.142   3.736
 6781TIP3    H120276   4.493   3.167   3.699
 6781TIP3    H220277   4.384   3.068   3.675
 6782TIP3   OH220278   5.123   3.264   3.827
 6782TIP3    H120279   5.114   3.166   3.813
 6782TIP3    H220280   5.078   3.298   3.747
 6783TIP3   OH220281   4.335   1.795   5.617
 6783TIP3    H120282   4.305   1.723   5.674
 6783TIP3    H220283   4.431   1.797   5.642
 6784TIP3   OH220284   4.584   1.797   5.736
 6784TIP3    H120285   4.670   1.778   5.695
 6784TIP3    H220286   4.579   1.724   5.801
 6785TIP3   OH220287   3.707   2.978   3.790
 6785TIP3    H120288   3.711   3.011   3.881
 6785TIP3    H220289   3.796   2.939   3.778
 6786TIP3   OH220290   5.412   1.856   5.522
 6786TIP3    H120291   5.435   1.837   5.615
 6786TIP3    H220292   5.500   1.854   5.479
 6787TIP3   OH220293   5.348   3.408   5.016
 6787TIP3    H120294   5.271   3.376   4.966
 6787TIP3    H220295   5.329   3.504   5.019
 6788TIP3   OH220296   6.618   2.784   3.778
 6788TIP3    H120297   6.586   2.874   3.757
 6788TIP3    H220298   6.541   2.731   3.750
 6789TIP3   OH220299   6.612   2.783   4.167
 6789TIP3    H120300   6.648   2.752   4.252
 6789TIP3    H220301   6.576   2.701   4.130
 6790TIP3   OH220302   5.913   2.675   4.530
 6790TIP3    H120303   5.944   2.607   4.592
 6790TIP3    H220304   5.994   2.727   4.518
 6791TIP3   OH220305   6.860   3.084   3.844
 6791TIP3    H120306   6.846   3.012   3.907
 6791TIP3    H220307   6.889   3.157   3.901
 6792TIP3   OH220308   5.888   3.085   4.252
 6792TIP3    H120309   5.878   2.987   4.254
 6792TIP3    H220310   5.984   3.093   4.244
 6793TIP3   OH220311   5.592   2.287   4.035
 6793TIP3    H120312   5.546   2.371   4.052
 6793TIP3    H220313   5.521   2.235   3.995
 6794TIP3   OH220314   5.651   2.574   4.209
 6794TIP3    H120315   5.701   2.498   4.246
 6794TIP3    H220316   5.714   2.610   4.145
 6795TIP3   OH220317   6.511   3.547   3.858
 6795TIP3    H120318   6.555   3.474   3.810
 6795TIP3    H220319   6.497   3.508   3.945
 6796TIP3   OH220320   6.414   3.006   4.211
 6796TIP3    H120321   6.454   2.927   4.169
 6796TIP3    H220322   6.497   3.052   4.234
 6797TIP3   OH220323   7.432   2.326   4.209
 6797TIP3    H120324   7.459   2.410   4.251
 6797TIP3    H220325   7.442   2.348   4.115
 6798TIP3   OH220326   6.826   2.507   4.247
 6798TIP3    H120327   6.880   2.429   4.269
 6798TIP3    H220328   6.801   2.486   4.154
 6799TIP3   OH220329   6.160   2.167   4.211
 6799TIP3    H120330   6.148   2.239   4.146
 6799TIP3    H220331   6.114   2.094   4.164
 6800TIP3   OH220332   5.799   2.369   4.315
 6800TIP3    H120333   5.882   2.350   4.363
 6800TIP3    H220334   5.813   2.314   4.236
 6801TIP3   OH220335   6.239   2.567   4.111
 6801TIP3    H120336   6.333   2.542   4.123
 6801TIP3    H220337   6.201   2.482   4.078
 6802TIP3   OH220338   7.505   2.535   4.379
 6802TIP3    H120339   7.421   2.582   4.361
 6802TIP3    H220340   7.517   2.557   4.473
 6803TIP3   OH220341   6.161   2.151   4.643
 6803TIP3    H120342   6.102   2.187   4.574
 6803TIP3    H220343   6.108   2.169   4.723
 6804TIP3   OH220344   6.508   3.004   3.649
 6804TIP3    H120345   6.464   2.983   3.565
 6804TIP3    H220346   6.462   3.087   3.674
 6805TIP3   OH220347   6.268   2.926   4.435
 6805TIP3    H120348   6.206   2.994   4.471
 6805TIP3    H220349   6.311   2.975   4.362
 6806TIP3   OH220350   6.031   2.266   4.428
 6806TIP3    H120351   6.094   2.339   4.450
 6806TIP3    H220352   6.080   2.225   4.353
 6807TIP3   OH220353   6.097   3.121   4.536
 6807TIP3    H120354   6.070   3.207   4.496
 6807TIP3    H220355   6.018   3.105   4.591
 6808TIP3   OH220356   5.489   2.811   3.771
 6808TIP3    H120357   5.449   2.838   3.687
 6808TIP3    H220358   5.520   2.896   3.808
 6809TIP3   OH220359   6.930   3.327   4.012
 6809TIP3    H120360   6.840   3.317   4.051
 6809TIP3    H220361   6.921   3.413   3.966
 6810TIP3   OH220362   7.217   2.224   4.374
 6810TIP3    H120363   7.125   2.246   4.345
 6810TIP3    H220364   7.270   2.256   4.298
 6811TIP3   OH220365   6.517   1.862   4.362
 6811TIP3    H120366   6.502   1.767   4.377
 6811TIP3    H220367   6.439   1.902   4.406
 6812TIP3   OH220368   6.630   3.371   3.683
 6812TIP3    H120369   6.681   3.289   3.663
 6812TIP3    H220370   6.691   3.437   3.644
 6813TIP3   OH220371   6.775   3.156   3.591
 6813TIP3    H120372   6.732   3.076   3.558
 6813TIP3    H220373   6.812   3.124   3.677
 6814TIP3   OH220374   7.156   3.239   4.354
 6814TIP3    H120375   7.144   3.161   4.296
 6814TIP3    H220376   7.139   3.313   4.292
 6815TIP3   OH220377   6.447   2.630   3.614
 6815TIP3    H120378   6.368   2.682   3.591
 6815TIP3    H220379   6.495   2.628   3.529
 6816TIP3   OH220380   6.405   2.420   3.326
 6816TIP3    H120381   6.472   2.468   3.378
 6816TIP3    H220382   6.462   2.355   3.279
 6817TIP3   OH220383   7.351   2.879   4.201
 6817TIP3    H120384   7.266   2.928   4.205
 6817TIP3    H220385   7.378   2.899   4.109
 6818TIP3   OH220386   6.795   2.715   3.583
 6818TIP3    H120387   6.741   2.740   3.662
 6818TIP3    H220388   6.878   2.687   3.627
 6819TIP3   OH220389   7.029   2.754   4.496
 6819TIP3    H120390   7.024   2.837   4.545
 6819TIP3    H220391   6.942   2.755   4.450
 6820TIP3   OH220392   6.028   2.712   4.001
 6820TIP3    H120393   5.987   2.653   3.933
 6820TIP3    H220394   6.104   2.658   4.031
 6821TIP3   OH220395   6.156   3.122   4.149
 6821TIP3    H120396   6.137   3.084   4.062
 6821TIP3    H220397   6.246   3.088   4.167
 6822TIP3   OH220398   6.159   2.685   4.354
 6822TIP3    H120399   6.195   2.660   4.267
 6822TIP3    H220400   6.206   2.769   4.373
 6823TIP3   OH220401   6.690   3.323   4.133
 6823TIP3    H120402   6.674   3.400   4.189
 6823TIP3    H220403   6.675   3.247   4.194
 6824TIP3   OH220404   6.301   3.241   4.679
 6824TIP3    H120405   6.240   3.303   4.725
 6824TIP3    H220406   6.236   3.187   4.629
 6825TIP3   OH220407   6.634   2.574   3.411
 6825TIP3    H120408   6.694   2.632   3.463
 6825TIP3    H220409   6.661   2.598   3.319
 6826TIP3   OH220410   6.056   2.796   4.782
 6826TIP3    H120411   6.059   2.883   4.825
 6826TIP3    H220412   5.960   2.776   4.790
 6827TIP3   OH220413   6.379   3.252   3.684
 6827TIP3    H120414   6.460   3.304   3.698
 6827TIP3    H220415   6.318   3.317   3.648
 6828TIP3   OH220416   6.095   3.410   4.766
 6828TIP3    H120417   6.062   3.408   4.674
 6828TIP3    H220418   6.014   3.387   4.818
 6829TIP3   OH220419   7.150   1.812   3.458
 6829TIP3    H120420   7.068   1.831   3.510
 6829TIP3    H220421   7.162   1.897   3.411
 6830TIP3   OH220422   5.895   2.556   3.803
 6830TIP3    H120423   5.826   2.599   3.748
 6830TIP3    H220424   5.856   2.469   3.818
 6831TIP3   OH220425   6.950   3.180   3.005
 6831TIP3    H120426   6.958   3.277   2.993
 6831TIP3    H220427   7.043   3.152   2.993
 6832TIP3   OH220428   5.674   2.939   4.712
 6832TIP3    H120429   5.609   2.916   4.644
 6832TIP3    H220430   5.711   2.852   4.737
 6833TIP3   OH220431   5.529   3.131   4.345
 6833TIP3    H120432   5.625   3.124   4.333
 6833TIP3    H220433   5.522   3.210   4.401
 6834TIP3   OH220434   7.391   3.584   4.400
 6834TIP3    H120435   7.392   3.487   4.413
 6834TIP3    H220436   7.307   3.607   4.447
 6835TIP3   OH220437   6.500   3.369   4.537
 6835TIP3    H120438   6.496   3.462   4.569
 6835TIP3    H220439   6.427   3.329   4.590
 6836TIP3   OH220440   6.262   3.504   3.487
 6836TIP3    H120441   6.213   3.484   3.405
 6836TIP3    H220442   6.222   3.588   3.515
 6837TIP3   OH220443   5.698   3.344   3.871
 6837TIP3    H120444   5.746   3.337   3.956
 6837TIP3    H220445   5.641   3.266   3.875
 6838TIP3   OH220446   6.461   3.400   3.126
 6838TIP3    H120447   6.520   3.329   3.092
 6838TIP3    H220448   6.495   3.410   3.218
 6839TIP3   OH220449   6.512   3.448   3.396
 6839TIP3    H120450   6.424   3.460   3.437
 6839TIP3    H220451   6.563   3.409   3.469
 6840TIP3   OH220452   7.282   2.715   4.674
 6840TIP3    H120453   7.202   2.723   4.620
 6840TIP3    H220454   7.299   2.619   4.668
 6841TIP3   OH220455   5.879   3.123   4.701
 6841TIP3    H120456   5.929   3.104   4.783
 6841TIP3    H220457   5.805   3.059   4.708
 6842TIP3   OH220458   6.277   1.943   4.488
 6842TIP3    H120459   6.188   1.915   4.461
 6842TIP3    H220460   6.254   2.027   4.532
 6843TIP3   OH220461   6.813   2.060   4.679
 6843TIP3    H120462   6.882   2.034   4.744
 6843TIP3    H220463   6.730   2.040   4.725
 6844TIP3   OH220464   7.053   2.490   4.600
 6844TIP3    H120465   7.001   2.485   4.683
 6844TIP3    H220466   7.025   2.576   4.562
 6845TIP3   OH220467   6.710   2.618   3.153
 6845TIP3    H120468   6.678   2.593   3.064
 6845TIP3    H220469   6.793   2.665   3.131
 6846TIP3   OH220470   6.422   1.995   3.456
 6846TIP3    H120471   6.393   1.993   3.550
 6846TIP3    H220472   6.386   1.910   3.425
 6847TIP3   OH220473   6.209   2.462   4.504
 6847TIP3    H120474   6.159   2.482   4.585
 6847TIP3    H220475   6.192   2.543   4.451
 6848TIP3   OH220476   6.093   2.348   4.018
 6848TIP3    H120477   6.001   2.320   4.037
 6848TIP3    H220478   6.107   2.306   3.930
 6849TIP3   OH220479   6.591   2.429   3.748
 6849TIP3    H120480   6.537   2.501   3.709
 6849TIP3    H220481   6.642   2.399   3.671
 6850TIP3   OH220482   6.760   2.713   4.836
 6850TIP3    H120483   6.737   2.637   4.894
 6850TIP3    H220484   6.855   2.720   4.853
 6851TIP3   OH220485   6.754   2.448   3.985
 6851TIP3    H120486   6.697   2.456   3.906
 6851TIP3    H220487   6.792   2.358   3.974
 6852TIP3   OH220488   6.028   2.490   4.713
 6852TIP3    H120489   6.058   2.552   4.781
 6852TIP3    H220490   6.017   2.407   4.764
 6853TIP3   OH220491   6.076   1.966   3.422
 6853TIP3    H120492   6.072   1.965   3.520
 6853TIP3    H220493   6.000   2.022   3.400
 6854TIP3   OH220494   5.624   2.011   4.292
 6854TIP3    H120495   5.696   2.045   4.349
 6854TIP3    H220496   5.670   1.981   4.213
 6855TIP3   OH220497   5.590   1.991   3.811
 6855TIP3    H120498   5.637   2.030   3.734
 6855TIP3    H220499   5.531   2.066   3.834
 6856TIP3   OH220500   6.752   2.708   4.407
 6856TIP3    H120501   6.784   2.635   4.348
 6856TIP3    H220502   6.722   2.655   4.484
 6857TIP3   OH220503   6.415   2.184   4.078
 6857TIP3    H120504   6.344   2.172   4.143
 6857TIP3    H220505   6.493   2.151   4.128
 6858TIP3   OH220506   5.856   2.226   4.087
 6858TIP3    H120507   5.761   2.231   4.059
 6858TIP3    H220508   5.881   2.134   4.063
 6859TIP3   OH220509   6.122   2.219   3.777
 6859TIP3    H120510   6.217   2.235   3.761
 6859TIP3    H220511   6.079   2.244   3.693
 6860TIP3   OH220512   6.940   2.257   4.301
 6860TIP3    H120513   6.860   2.238   4.351
 6860TIP3    H220514   6.923   2.213   4.214
 6861TIP3   OH220515   5.966   2.256   3.552
 6861TIP3    H120516   5.896   2.211   3.502
 6861TIP3    H220517   6.020   2.293   3.479
 6862TIP3   OH220518   7.084   3.935   4.501
 6862TIP3    H120519   7.082   3.955   4.405
 6862TIP3    H220520   7.165   3.981   4.529
 6863TIP3   OH220521   6.040   3.044   4.921
 6863TIP3    H120522   6.119   3.074   4.969
 6863TIP3    H220523   5.975   3.042   4.994
 6864TIP3   OH220524   6.507   2.501   4.176
 6864TIP3    H120525   6.575   2.457   4.123
 6864TIP3    H220526   6.513   2.453   4.261
 6865TIP3   OH220527   6.022   1.985   4.055
 6865TIP3    H120528   5.991   1.906   4.103
 6865TIP3    H220529   6.081   1.948   3.988
 6866TIP3   OH220530   6.479   2.393   4.470
 6866TIP3    H120531   6.390   2.431   4.482
 6866TIP3    H220532   6.538   2.454   4.518
 6867TIP3   OH220533   6.217   2.785   3.560
 6867TIP3    H120534   6.144   2.720   3.549
 6867TIP3    H220535   6.199   2.818   3.651
 6868TIP3   OH220536   7.116   3.022   4.190
 6868TIP3    H120537   7.140   3.070   4.108
 6868TIP3    H220538   7.032   2.978   4.165
 6869TIP3   OH220539   6.673   2.102   3.414
 6869TIP3    H120540   6.578   2.082   3.433
 6869TIP3    H220541   6.684   2.193   3.448
 6870TIP3   OH220542   6.619   3.104   4.558
 6870TIP3    H120543   6.641   3.081   4.648
 6870TIP3    H220544   6.578   3.192   4.567
 6871TIP3   OH220545   6.746   2.342   3.529
 6871TIP3    H120546   6.842   2.347   3.550
 6871TIP3    H220547   6.732   2.423   3.477
 6872TIP3   OH220548   5.909   2.806   4.236
 6872TIP3    H120549   5.949   2.779   4.150
 6872TIP3    H220550   5.955   2.747   4.298
 6873TIP3   OH220551   6.362   2.934   3.381
 6873TIP3    H120552   6.314   3.021   3.387
 6873TIP3    H220553   6.308   2.879   3.442
 6874TIP3   OH220554   5.789   2.727   4.852
 6874TIP3    H120555   5.812   2.714   4.946
 6874TIP3    H220556   5.721   2.659   4.837
 6875TIP3   OH220557   6.517   2.843   4.870
 6875TIP3    H120558   6.458   2.784   4.820
 6875TIP3    H220559   6.604   2.808   4.844
 6876TIP3   OH220560   6.777   3.368   4.453
 6876TIP3    H120561   6.681   3.361   4.466
 6876TIP3    H220562   6.803   3.418   4.534
 6877TIP3   OH220563   7.190   2.433   3.359
 6877TIP3    H120564   7.125   2.390   3.299
 6877TIP3    H220565   7.185   2.523   3.321
 6878TIP3   OH220566   7.406   3.297   4.442
 6878TIP3    H120567   7.308   3.288   4.434
 6878TIP3    H220568   7.432   3.264   4.353
 6879TIP3   OH220569   6.889   3.254   3.272
 6879TIP3    H120570   6.862   3.187   3.335
 6879TIP3    H220571   6.899   3.205   3.189
 6880TIP3   OH220572   6.883   2.884   4.108
 6880TIP3    H120573   6.790   2.857   4.121
 6880TIP3    H220574   6.917   2.804   4.063
 6881TIP3   OH220575   6.011   3.112   3.863
 6881TIP3    H120576   6.012   3.193   3.809
 6881TIP3    H220577   5.917   3.097   3.872
 6882TIP3   OH220578   5.574   2.415   3.565
 6882TIP3    H120579   5.621   2.499   3.587
 6882TIP3    H220580   5.498   2.421   3.627
 6883TIP3   OH220581   6.146   2.876   3.804
 6883TIP3    H120582   6.112   2.966   3.824
 6883TIP3    H220583   6.112   2.826   3.881
 6884TIP3   OH220584   6.280   3.455   4.330
 6884TIP3    H120585   6.320   3.528   4.278
 6884TIP3    H220586   6.359   3.420   4.376
 6885TIP3   OH220587   5.933   3.349   3.715
 6885TIP3    H120588   5.846   3.359   3.759
 6885TIP3    H220589   5.966   3.442   3.718
 6886TIP3   OH220590   6.669   3.091   4.289
 6886TIP3    H120591   6.659   3.087   4.387
 6886TIP3    H220592   6.745   3.033   4.275
 6887TIP3   OH220593   6.644   2.983   3.173
 6887TIP3    H120594   6.698   2.957   3.251
 6887TIP3    H220595   6.556   2.956   3.203
 6888TIP3   OH220596   6.916   3.624   4.343
 6888TIP3    H120597   6.839   3.565   4.336
 6888TIP3    H220598   6.900   3.686   4.268
 6889TIP3   OH220599   6.982   3.456   2.991
 6889TIP3    H120600   7.020   3.531   2.942
 6889TIP3    H220601   6.902   3.501   3.026
 6890TIP3   OH220602   6.001   2.234   4.857
 6890TIP3    H120603   5.904   2.239   4.872
 6890TIP3    H220604   6.029   2.175   4.929
 6891TIP3   OH220605   6.804   2.913   3.387
 6891TIP3    H120606   6.794   2.848   3.460
 6891TIP3    H220607   6.901   2.912   3.377
 6892TIP3   OH220608   5.717   3.317   4.491
 6892TIP3    H120609   5.770   3.242   4.523
 6892TIP3    H220610   5.749   3.388   4.547
 6893TIP3   OH220611   6.009   2.962   3.172
 6893TIP3    H120612   6.023   2.869   3.146
 6893TIP3    H220613   5.989   2.952   3.268
 6894TIP3   OH220614   5.953   2.967   3.444
 6894TIP3    H120615   6.025   2.940   3.503
 6894TIP3    H220616   5.957   3.065   3.452
 6895TIP3   OH220617   5.687   2.659   3.648
 6895TIP3    H120618   5.622   2.705   3.705
 6895TIP3    H220619   5.703   2.728   3.581
 6896TIP3   OH220620   6.818   2.315   4.568
 6896TIP3    H120621   6.913   2.335   4.566
 6896TIP3    H220622   6.817   2.225   4.607
 6897TIP3   OH220623   6.726   2.045   3.701
 6897TIP3    H120624   6.715   2.082   3.612
 6897TIP3    H220625   6.777   2.113   3.748
 6898TIP3   OH220626   6.219   3.165   3.392
 6898TIP3    H120627   6.132   3.190   3.429
 6898TIP3    H220628   6.237   3.242   3.336
 6899TIP3   OH220629   6.401   2.232   3.807
 6899TIP3    H120630   6.471   2.299   3.791
 6899TIP3    H220631   6.410   2.219   3.904
 6900TIP3   OH220632   6.675   2.546   4.613
 6900TIP3    H120633   6.705   2.590   4.695
 6900TIP3    H220634   6.727   2.463   4.612
 6901TIP3   OH220635   6.553   1.951   3.906
 6901TIP3    H120636   6.572   2.010   3.982
 6901TIP3    H220637   6.619   1.986   3.841
 6902TIP3   OH220638   5.963   3.239   3.462
 6902TIP3    H120639   5.934   3.309   3.399
 6902TIP3    H220640   5.948   3.284   3.548
 6903TIP3   OH220641   6.065   1.953   3.698
 6903TIP3    H120642   6.062   2.043   3.736
 6903TIP3    H220643   6.161   1.935   3.708
 6904TIP3   OH220644   7.318   2.444   4.593
 6904TIP3    H120645   7.220   2.446   4.603
 6904TIP3    H220646   7.324   2.403   4.506
 6905TIP3   OH220647   6.963   2.646   3.981
 6905TIP3    H120648   6.893   2.579   3.991
 6905TIP3    H220649   7.038   2.603   4.029
 6906TIP3   OH220650   5.681   2.868   3.454
 6906TIP3    H120651   5.748   2.938   3.463
 6906TIP3    H220652   5.727   2.813   3.387
 6907TIP3   OH220653   5.625   2.145   3.586
 6907TIP3    H120654   5.628   2.242   3.583
 6907TIP3    H220655   5.540   2.126   3.545
 6908TIP3   OH220656   6.937   3.599   3.935
 6908TIP3    H120657   6.895   3.646   3.859
 6908TIP3    H220658   7.032   3.617   3.913
 6909TIP3   OH220659   6.012   1.866   4.460
 6909TIP3    H120660   5.982   1.832   4.373
 6909TIP3    H220661   6.002   1.787   4.517
 6910TIP3   OH220662   5.549   3.080   3.839
 6910TIP3    H120663   5.483   3.114   3.902
 6910TIP3    H220664   5.520   3.124   3.756
 6911TIP3   OH220665   5.709   3.627   4.914
 6911TIP3    H120666   5.797   3.624   4.959
 6911TIP3    H220667   5.688   3.532   4.910
 6912TIP3   OH220668   6.191   3.589   4.956
 6912TIP3    H120669   6.285   3.566   4.962
 6912TIP3    H220670   6.163   3.530   4.883
 6913TIP3   OH220671   6.171   3.165   3.082
 6913TIP3    H120672   6.115   3.095   3.123
 6913TIP3    H220673   6.247   3.112   3.053
 6914TIP3   OH220674   6.826   3.500   4.693
 6914TIP3    H120675   6.820   3.427   4.759
 6914TIP3    H220676   6.906   3.547   4.722
 6915TIP3   OH220677   6.608   3.204   2.997
 6915TIP3    H120678   6.649   3.139   3.057
 6915TIP3    H220679   6.668   3.203   2.920
 6916TIP3   OH220680   5.840   3.034   5.112
 6916TIP3    H120681   5.854   2.938   5.121
 6916TIP3    H220682   5.751   3.036   5.069
 6917TIP3   OH220683   5.817   2.681   3.307
 6917TIP3    H120684   5.873   2.650   3.381
 6917TIP3    H220685   5.885   2.686   3.236
 6918TIP3   OH220686   6.446   3.118   4.886
 6918TIP3    H120687   6.405   3.134   4.799
 6918TIP3    H220688   6.478   3.025   4.878
 6919TIP3   OH220689   6.328   2.881   3.112
 6919TIP3    H120690   6.330   2.895   3.209
 6919TIP3    H220691   6.328   2.783   3.108
 6920TIP3   OH220692   6.941   3.128   4.495
 6920TIP3    H120693   7.015   3.172   4.448
 6920TIP3    H220694   6.869   3.191   4.478
 6921TIP3   OH220695   5.950   2.764   5.097
 6921TIP3    H120696   6.025   2.708   5.072
 6921TIP3    H220697   5.978   2.796   5.185
 6922TIP3   OH220698   6.022   2.588   3.525
 6922TIP3    H120699   5.998   2.548   3.611
 6922TIP3    H220700   6.060   2.511   3.477
 6923TIP3   OH220701   6.293   2.650   4.757
 6923TIP3    H120702   6.216   2.711   4.758
 6923TIP3    H220703   6.344   2.685   4.679
 6924TIP3   OH220704   6.127   2.381   3.368
 6924TIP3    H120705   6.101   2.385   3.274
 6924TIP3    H220706   6.224   2.387   3.361
 6925TIP3   OH220707   6.813   3.054   4.890
 6925TIP3    H120708   6.889   3.024   4.838
 6925TIP3    H220709   6.808   2.985   4.959
 6926TIP3   OH220710   6.946   2.711   3.032
 6926TIP3    H120711   6.924   2.665   2.949
 6926TIP3    H220712   6.914   2.801   3.009
 6927TIP3   OH220713   6.416   2.439   4.883
 6927TIP3    H120714   6.418   2.360   4.825
 6927TIP3    H220715   6.374   2.505   4.824
 6928TIP3   OH220716   6.420   2.225   4.691
 6928TIP3    H120717   6.449   2.266   4.607
 6928TIP3    H220718   6.327   2.203   4.671
 6929TIP3   OH220719   6.444   2.763   4.566
 6929TIP3    H120720   6.528   2.765   4.518
 6929TIP3    H220721   6.391   2.829   4.517
 6930TIP3   OH220722   7.031   2.729   4.946
 6930TIP3    H120723   7.072   2.641   4.949
 6930TIP3    H220724   7.102   2.782   4.905
 6931TIP3   OH220725   7.069   2.984   4.683
 6931TIP3    H120726   7.012   3.037   4.622
 6931TIP3    H220727   7.157   3.000   4.643
 6932TIP3   OH220728   6.298   2.549   5.115
 6932TIP3    H120729   6.228   2.482   5.129
 6932TIP3    H220730   6.330   2.524   5.026
 6933TIP3   OH220731   6.552   1.990   4.759
 6933TIP3    H120732   6.505   2.072   4.735
 6933TIP3    H220733   6.483   1.923   4.745
 6934TIP3   OH220734   6.676   2.494   4.973
 6934TIP3    H120735   6.662   2.480   5.069
 6934TIP3    H220736   6.587   2.468   4.941
 6935TIP3   OH220737   6.922   2.456   4.834
 6935TIP3    H120738   6.843   2.445   4.891
 6935TIP3    H220739   6.993   2.417   4.889
 6936TIP3   OH220740   7.143   2.382   4.983
 6936TIP3    H120741   7.158   2.287   5.000
 6936TIP3    H220742   7.143   2.420   5.074
 6937TIP3   OH220743   6.136   2.329   5.167
 6937TIP3    H120744   6.141   2.238   5.132
 6937TIP3    H220745   6.172   2.316   5.257
 6938TIP3   OH220746   6.645   1.997   5.017
 6938TIP3    H120747   6.713   1.927   5.009
 6938TIP3    H220748   6.606   1.994   4.928
 6939TIP3   OH220749   6.711   2.213   5.175
 6939TIP3    H120750   6.689   2.142   5.110
 6939TIP3    H220751   6.634   2.272   5.167
 6940TIP3   OH220752   5.933   3.438   3.271
 6940TIP3    H120753   6.029   3.437   3.255
 6940TIP3    H220754   5.904   3.492   3.195
 6941TIP3   OH220755   5.413   2.825   3.488
 6941TIP3    H120756   5.508   2.847   3.476
 6941TIP3    H220757   5.408   2.736   3.447
 6942TIP3   OH220758   5.326   3.434   3.905
 6942TIP3    H120759   5.259   3.372   3.868
 6942TIP3    H220760   5.372   3.375   3.969
 6943TIP3   OH220761   5.464   3.283   4.089
 6943TIP3    H120762   5.452   3.213   4.155
 6943TIP3    H220763   5.515   3.347   4.141
 6944TIP3   OH220764   7.191   3.689   3.891
 6944TIP3    H120765   7.220   3.719   3.978
 6944TIP3    H220766   7.258   3.728   3.832
 6945TIP3   OH220767   7.222   3.709   4.174
 6945TIP3    H120768   7.175   3.623   4.168
 6945TIP3    H220769   7.296   3.681   4.231
 6946TIP3   OH220770   7.266   3.387   4.744
 6946TIP3    H120771   7.194   3.393   4.810
 6946TIP3    H220772   7.308   3.475   4.751
 6947TIP3   OH220773   7.084   2.897   3.365
 6947TIP3    H120774   7.152   2.961   3.338
 6947TIP3    H220775   7.125   2.858   3.445
 6948TIP3   OH220776   7.210   2.765   3.570
 6948TIP3    H120777   7.144   2.720   3.628
 6948TIP3    H220778   7.273   2.802   3.635
 6949TIP3   OH220779   7.266   3.158   4.001
 6949TIP3    H120780   7.319   3.091   3.954
 6949TIP3    H220781   7.257   3.229   3.934
 6950TIP3   OH220782   7.095   3.459   4.194
 6950TIP3    H120783   7.023   3.498   4.247
 6950TIP3    H220784   7.047   3.410   4.125
 6951TIP3   OH220785   7.148   2.673   3.214
 6951TIP3    H120786   7.075   2.676   3.149
 6951TIP3    H220787   7.122   2.748   3.271
 6952TIP3   OH220788   7.021   2.344   3.165
 6952TIP3    H120789   6.972   2.382   3.091
 6952TIP3    H220790   6.996   2.249   3.158
 6953TIP3   OH220791   7.023   2.620   3.713
 6953TIP3    H120792   7.026   2.523   3.705
 6953TIP3    H220793   7.009   2.633   3.809
 6954TIP3   OH220794   5.649   2.697   4.461
 6954TIP3    H120795   5.648   2.664   4.369
 6954TIP3    H220796   5.746   2.698   4.478
 6955TIP3   OH220797   7.313   3.047   4.573
 6955TIP3    H120798   7.384   2.979   4.564
 6955TIP3    H220799   7.339   3.113   4.507
 6956TIP3   OH220800   7.498   2.852   4.588
 6956TIP3    H120801   7.423   2.801   4.624
 6956TIP3    H220802   7.571   2.787   4.603
 6957TIP3   OH220803   6.964   2.077   3.151
 6957TIP3    H120804   7.037   2.049   3.210
 6957TIP3    H220805   6.889   2.023   3.179
 6958TIP3   OH220806   7.019   2.343   3.593
 6958TIP3    H120807   7.053   2.258   3.628
 6958TIP3    H220808   7.087   2.364   3.527
 6959TIP3   OH220809   7.180   2.541   4.106
 6959TIP3    H120810   7.269   2.552   4.067
 6959TIP3    H220811   7.200   2.559   4.199
 6960TIP3   OH220812   7.258   2.660   4.347
 6960TIP3    H120813   7.176   2.691   4.389
 6960TIP3    H220814   7.286   2.740   4.296
 6961TIP3   OH220815   5.870   2.382   5.135
 6961TIP3    H120816   5.967   2.375   5.139
 6961TIP3    H220817   5.843   2.299   5.178
 6962TIP3   OH220818   7.704   2.243   4.890
 6962TIP3    H120819   7.761   2.181   4.840
 6962TIP3    H220820   7.674   2.305   4.821
 6963TIP3   OH220821   7.133   2.087   3.648
 6963TIP3    H120822   7.169   2.078   3.738
 6963TIP3    H220823   7.068   2.014   3.647
 6964TIP3   OH220824   5.828   2.075   4.467
 6964TIP3    H120825   5.891   2.000   4.477
 6964TIP3    H220826   5.891   2.149   4.460
 6965TIP3   OH220827   5.629   2.347   4.538
 6965TIP3    H120828   5.681   2.343   4.455
 6965TIP3    H220829   5.660   2.430   4.576
 6966TIP3   OH220830   7.573   2.386   4.699
 6966TIP3    H120831   7.487   2.427   4.722
 6966TIP3    H220832   7.542   2.314   4.641
 6967TIP3   OH220833   7.209   2.023   3.279
 6967TIP3    H120834   7.251   1.952   3.226
 6967TIP3    H220835   7.276   2.094   3.277
 6968TIP3   OH220836   5.615   1.845   4.037
 6968TIP3    H120837   5.523   1.847   4.069
 6968TIP3    H220838   5.612   1.907   3.961
 6969TIP3   OH220839   6.778   3.551   3.548
 6969TIP3    H120840   6.829   3.539   3.465
 6969TIP3    H220841   6.828   3.622   3.591
 6970TIP3   OH220842   5.836   1.931   4.855
 6970TIP3    H120843   5.786   1.925   4.938
 6970TIP3    H220844   5.768   1.970   4.796
 6971TIP3   OH220845   5.874   3.362   4.933
 6971TIP3    H120846   5.783   3.333   4.914
 6971TIP3    H220847   5.884   3.336   5.025
 6972TIP3   OH220848   6.055   3.393   4.482
 6972TIP3    H120849   6.007   3.469   4.442
 6972TIP3    H220850   6.140   3.406   4.435
 6973TIP3   OH220851   6.497   3.636   4.619
 6973TIP3    H120852   6.541   3.636   4.707
 6973TIP3    H220853   6.563   3.686   4.566
 6974TIP3   OH220854   6.676   3.788   4.478
 6974TIP3    H120855   6.744   3.736   4.433
 6974TIP3    H220856   6.730   3.844   4.537
 6975TIP3   OH220857   7.471   2.151   4.576
 6975TIP3    H120858   7.380   2.149   4.541
 6975TIP3    H220859   7.499   2.058   4.563
 6976TIP3   OH220860   5.732   3.644   4.506
 6976TIP3    H120861   5.643   3.679   4.479
 6976TIP3    H220862   5.740   3.684   4.593
 6977TIP3   OH220863   5.968   3.627   4.362
 6977TIP3    H120864   5.880   3.640   4.406
 6977TIP3    H220865   5.948   3.660   4.272
 6978TIP3   OH220866   6.392   3.654   4.160
 6978TIP3    H120867   6.325   3.671   4.090
 6978TIP3    H220868   6.403   3.745   4.196
 6979TIP3   OH220869   6.660   3.597   4.214
 6979TIP3    H120870   6.565   3.610   4.193
 6979TIP3    H220871   6.700   3.669   4.163
 6980TIP3   OH220872   6.874   3.790   4.126
 6980TIP3    H120873   6.854   3.872   4.076
 6980TIP3    H220874   6.895   3.727   4.053
 6981TIP3   OH220875   5.638   3.439   4.250
 6981TIP3    H120876   5.668   3.413   4.339
 6981TIP3    H220877   5.711   3.399   4.197
 6982TIP3   OH220878   5.834   3.314   4.107
 6982TIP3    H120879   5.851   3.230   4.155
 6982TIP3    H220880   5.925   3.351   4.102
 6983TIP3   OH220881   6.099   3.405   4.111
 6983TIP3    H120882   6.132   3.314   4.099
 6983TIP3    H220883   6.147   3.429   4.192
 6984TIP3   OH220884   6.635   2.055   4.171
 6984TIP3    H120885   6.640   1.981   4.233
 6984TIP3    H220886   6.726   2.062   4.135
 6985TIP3   OH220887   7.182   1.948   4.090
 6985TIP3    H120888   7.234   1.996   4.022
 6985TIP3    H220889   7.097   1.996   4.083
 6986TIP3   OH220890   7.306   2.046   3.867
 6986TIP3    H120891   7.377   1.997   3.821
 6986TIP3    H220892   7.334   2.138   3.850
 6987TIP3   OH220893   5.925   1.772   4.211
 6987TIP3    H120894   5.834   1.737   4.214
 6987TIP3    H220895   5.976   1.688   4.208
 6988TIP3   OH220896   5.708   1.642   3.858
 6988TIP3    H120897   5.742   1.701   3.788
 6988TIP3    H220898   5.682   1.707   3.927
 6989TIP3   OH220899   6.369   1.807   4.094
 6989TIP3    H120900   6.425   1.853   4.029
 6989TIP3    H220901   6.402   1.842   4.177
 6990TIP3   OH220902   6.946   1.874   3.637
 6990TIP3    H120903   6.863   1.921   3.659
 6990TIP3    H220904   6.931   1.791   3.687
 6991TIP3   OH220905   5.429   3.214   3.639
 6991TIP3    H120906   5.343   3.184   3.605
 6991TIP3    H220907   5.421   3.309   3.621
 6992TIP3   OH220908   5.831   1.803   3.622
 6992TIP3    H120909   5.881   1.740   3.566
 6992TIP3    H220910   5.904   1.857   3.659
 6993TIP3   OH220911   6.343   1.979   3.722
 6993TIP3    H120912   6.407   1.936   3.782
 6993TIP3    H220913   6.360   2.072   3.747
 6994TIP3   OH220914   6.202   3.399   3.223
 6994TIP3    H120915   6.289   3.423   3.185
 6994TIP3    H220916   6.179   3.324   3.162
 6995TIP3   OH220917   6.923   3.522   3.314
 6995TIP3    H120918   6.914   3.424   3.302
 6995TIP3    H220919   6.875   3.554   3.235
 6996TIP3   OH220920   6.133   2.053   5.103
 6996TIP3    H120921   6.099   1.983   5.161
 6996TIP3    H220922   6.227   2.054   5.129
 6997TIP3   OH220923   6.382   2.051   5.221
 6997TIP3    H120924   6.467   2.026   5.181
 6997TIP3    H220925   6.370   1.980   5.287
 6998TIP3   OH220926   5.503   3.236   3.277
 6998TIP3    H120927   5.507   3.264   3.370
 6998TIP3    H220928   5.592   3.196   3.264
 6999TIP3   OH220929   7.208   2.112   5.010
 6999TIP3    H120930   7.228   2.083   5.102
 6999TIP3    H220931   7.297   2.109   4.969
 7000TIP3   OH220932   7.144   3.665   4.504
 7000TIP3    H120933   7.067   3.632   4.454
 7000TIP3    H220934   7.124   3.760   4.507
 7001TIP3   OH220935   7.709   2.930   4.013
 7001TIP3    H120936   7.735   2.862   4.079
 7001TIP3    H220937   7.788   2.986   4.013
 7002TIP3   OH220938   7.680   3.344   3.740
 7002TIP3    H120939   7.672   3.246   3.741
 7002TIP3    H220940   7.777   3.353   3.733
 7003TIP3   OH220941   7.389   2.548   3.521
 7003TIP3    H120942   7.338   2.629   3.539
 7003TIP3    H220943   7.319   2.491   3.487
 7004TIP3   OH220944   7.449   2.832   3.698
 7004TIP3    H120945   7.497   2.755   3.735
 7004TIP3    H220946   7.506   2.858   3.625
 7005TIP3   OH220947   8.312   3.765   3.329
 7005TIP3    H120948   8.407   3.740   3.329
 7005TIP3    H220949   8.298   3.775   3.425
 7006TIP3   OH220950   8.206   3.251   3.701
 7006TIP3    H120951   8.234   3.227   3.612
 7006TIP3    H220952   8.280   3.313   3.729
 7007TIP3   OH220953   7.935   2.423   3.707
 7007TIP3    H120954   7.951   2.492   3.640
 7007TIP3    H220955   7.898   2.351   3.652
 7008TIP3   OH220956   7.596   2.627   3.800
 7008TIP3    H120957   7.677   2.606   3.852
 7008TIP3    H220958   7.611   2.571   3.721
 7009TIP3   OH220959   8.020   2.827   3.592
 7009TIP3    H120960   8.112   2.795   3.609
 7009TIP3    H220961   7.978   2.743   3.562
 7010TIP3   OH220962   7.959   2.411   4.139
 7010TIP3    H120963   7.903   2.445   4.066
 7010TIP3    H220964   7.903   2.432   4.216
 7011TIP3   OH220965   8.069   3.181   3.933
 7011TIP3    H120966   8.003   3.246   3.967
 7011TIP3    H220967   8.106   3.229   3.856
 7012TIP3   OH220968   7.823   2.525   3.926
 7012TIP3    H120969   7.887   2.597   3.944
 7012TIP3    H220970   7.867   2.483   3.848
 7013TIP3   OH220971   7.892   3.375   4.020
 7013TIP3    H120972   7.867   3.462   3.983
 7013TIP3    H220973   7.813   3.359   4.077
 7014TIP3   OH220974   7.287   3.068   3.258
 7014TIP3    H120975   7.244   3.095   3.175
 7014TIP3    H220976   7.317   3.154   3.294
 7015TIP3   OH220977   7.814   2.971   3.484
 7015TIP3    H120978   7.776   2.912   3.416
 7015TIP3    H220979   7.891   2.919   3.516
 7016TIP3   OH220980   7.946   3.383   3.633
 7016TIP3    H120981   7.925   3.343   3.547
 7016TIP3    H220982   8.032   3.345   3.655
 7017TIP3   OH220983   7.958   2.944   3.840
 7017TIP3    H120984   7.987   2.919   3.749
 7017TIP3    H220985   8.001   3.030   3.855
 7018TIP3   OH220986   8.096   3.487   4.176
 7018TIP3    H120987   8.039   3.556   4.215
 7018TIP3    H220988   8.031   3.438   4.122
 7019TIP3   OH220989   7.846   3.062   4.264
 7019TIP3    H120990   7.849   3.147   4.312
 7019TIP3    H220991   7.753   3.036   4.279
 7020TIP3   OH220992   8.189   3.545   3.197
 7020TIP3    H120993   8.215   3.632   3.233
 7020TIP3    H220994   8.123   3.569   3.130
 7021TIP3   OH220995   7.891   3.666   4.252
 7021TIP3    H120996   7.859   3.663   4.160
 7021TIP3    H220997   7.810   3.644   4.304
 7022TIP3   OH220998   7.691   2.810   3.287
 7022TIP3    H120999   7.622   2.854   3.233
 7022TIP3    H221000   7.648   2.727   3.310
 7023TIP3   OH221001   7.471   3.197   4.198
 7023TIP3    H121002   7.404   3.174   4.131
 7023TIP3    H221003   7.507   3.109   4.224
 7024TIP3   OH221004   7.325   3.390   3.828
 7024TIP3    H121005   7.421   3.380   3.821
 7024TIP3    H221006   7.317   3.466   3.887
 7025TIP3   OH221007   8.253   3.639   3.993
 7025TIP3    H121008   8.275   3.719   4.044
 7025TIP3    H221009   8.226   3.577   4.064
 7026TIP3   OH221010   8.057   3.752   2.974
 7026TIP3    H121011   8.013   3.734   2.888
 7026TIP3    H221012   8.024   3.841   2.996
 7027TIP3   OH221013   7.493   3.604   3.358
 7027TIP3    H121014   7.540   3.594   3.444
 7027TIP3    H221015   7.440   3.522   3.358
 7028TIP3   OH221016   8.325   3.717   2.913
 7028TIP3    H121017   8.231   3.728   2.938
 7028TIP3    H221018   8.340   3.624   2.933
 7029TIP3   OH221019   7.676   3.380   4.187
 7029TIP3    H121020   7.726   3.361   4.269
 7029TIP3    H221021   7.602   3.315   4.194
 7030TIP3   OH221022   8.058   2.179   3.985
 7030TIP3    H121023   7.963   2.172   3.964
 7030TIP3    H221024   8.063   2.273   4.009
 7031TIP3   OH221025   7.999   2.723   3.990
 7031TIP3    H121026   7.949   2.742   4.072
 7031TIP3    H221027   7.981   2.804   3.937
 7032TIP3   OH221028   7.891   2.604   3.500
 7032TIP3    H121029   7.801   2.573   3.524
 7032TIP3    H221030   7.903   2.560   3.412
 7033TIP3   OH221031   7.814   2.746   4.200
 7033TIP3    H121032   7.867   2.798   4.262
 7033TIP3    H221033   7.803   2.662   4.249
 7034TIP3   OH221034   7.856   2.179   2.896
 7034TIP3    H121035   7.861   2.205   2.989
 7034TIP3    H221036   7.800   2.249   2.860
 7035TIP3   OH221037   7.421   2.270   3.772
 7035TIP3    H121038   7.492   2.304   3.831
 7035TIP3    H221039   7.469   2.234   3.697
 7036TIP3   OH221040   7.389   2.248   3.298
 7036TIP3    H121041   7.433   2.290   3.221
 7036TIP3    H221042   7.327   2.320   3.322
 7037TIP3   OH221043   7.652   2.486   3.568
 7037TIP3    H121044   7.556   2.492   3.545
 7037TIP3    H221045   7.673   2.392   3.554
 7038TIP3   OH221046   7.930   2.479   3.254
 7038TIP3    H121047   8.014   2.498   3.210
 7038TIP3    H221048   7.865   2.498   3.182
 7039TIP3   OH221049   7.766   2.505   3.042
 7039TIP3    H121050   7.694   2.463   2.992
 7039TIP3    H221051   7.819   2.543   2.968
 7040TIP3   OH221052   7.835   3.304   4.408
 7040TIP3    H121053   7.915   3.331   4.456
 7040TIP3    H221054   7.771   3.298   4.482
 7041TIP3   OH221055   7.814   2.240   3.539
 7041TIP3    H121056   7.783   2.164   3.593
 7041TIP3    H221057   7.857   2.196   3.465
 7042TIP3   OH221058   8.268   2.650   4.012
 7042TIP3    H121059   8.179   2.677   3.981
 7042TIP3    H221060   8.321   2.730   3.998
 7043TIP3   OH221061   7.983   3.068   3.045
 7043TIP3    H121062   7.934   2.983   3.042
 7043TIP3    H221063   7.991   3.083   3.142
 7044TIP3   OH221064   7.707   3.069   3.724
 7044TIP3    H121065   7.742   3.037   3.639
 7044TIP3    H221066   7.742   3.003   3.787
 7045TIP3   OH221067   8.125   3.187   2.844
 7045TIP3    H121068   8.099   3.278   2.870
 7045TIP3    H221069   8.092   3.137   2.921
 7046TIP3   OH221070   7.586   2.986   4.338
 7046TIP3    H121071   7.605   2.968   4.432
 7046TIP3    H221072   7.519   2.917   4.318
 7047TIP3   OH221073   8.315   3.097   4.358
 7047TIP3    H121074   8.264   3.052   4.289
 7047TIP3    H221075   8.406   3.076   4.332
 7048TIP3   OH221076   7.807   3.367   3.350
 7048TIP3    H121077   7.808   3.448   3.295
 7048TIP3    H221078   7.713   3.350   3.357
 7049TIP3   OH221079   7.370   2.672   3.053
 7049TIP3    H121080   7.416   2.755   3.075
 7049TIP3    H221081   7.293   2.677   3.114
 7050TIP3   OH221082   7.958   3.136   3.311
 7050TIP3    H121083   7.915   3.223   3.317
 7050TIP3    H221084   7.907   3.084   3.376
 7051TIP3   OH221085   8.066   3.709   3.810
 7051TIP3    H121086   8.111   3.784   3.766
 7051TIP3    H221087   8.139   3.677   3.868
 7052TIP3   OH221088   7.726   3.607   3.201
 7052TIP3    H121089   7.640   3.615   3.247
 7052TIP3    H221090   7.758   3.700   3.204
 7053TIP3   OH221091   7.794   2.494   4.346
 7053TIP3    H121092   7.697   2.498   4.358
 7053TIP3    H221093   7.819   2.433   4.418
 7054TIP3   OH221094   7.514   3.574   3.977
 7054TIP3    H121095   7.566   3.497   4.006
 7054TIP3    H221096   7.546   3.641   4.039
 7055TIP3   OH221097   7.799   3.216   2.660
 7055TIP3    H121098   7.812   3.123   2.635
 7055TIP3    H221099   7.784   3.209   2.757
 7056TIP3   OH221100   7.753   3.221   2.932
 7056TIP3    H121101   7.833   3.188   2.978
 7056TIP3    H221102   7.760   3.318   2.945
 7057TIP3   OH221103   7.484   2.916   3.135
 7057TIP3    H121104   7.418   2.961   3.192
 7057TIP3    H221105   7.500   2.986   3.069
 7058TIP3   OH221106   8.016   3.433   2.887
 7058TIP3    H121107   7.926   3.457   2.916
 7058TIP3    H221108   8.039   3.510   2.833
 7059TIP3   OH221109   7.756   3.497   2.947
 7059TIP3    H121110   7.724   3.567   2.886
 7059TIP3    H221111   7.742   3.540   3.034
 7060TIP3   OH221112   7.867   2.214   3.184
 7060TIP3    H121113   7.851   2.301   3.226
 7060TIP3    H221114   7.954   2.230   3.145
 7061TIP3   OH221115   7.480   3.124   2.940
 7061TIP3    H121116   7.548   3.192   2.952
 7061TIP3    H221117   7.525   3.069   2.872
 7062TIP3   OH221118   7.424   2.401   3.072
 7062TIP3    H121119   7.422   2.499   3.070
 7062TIP3    H221120   7.337   2.379   3.036
 7063TIP3   OH221121   7.793   2.123   3.946
 7063TIP3    H121122   7.772   2.087   3.857
 7063TIP3    H221123   7.789   2.043   4.003
 7064TIP3   OH221124   7.349   3.344   3.326
 7064TIP3    H121125   7.281   3.372   3.389
 7064TIP3    H221126   7.315   3.384   3.243
 7065TIP3   OH221127   7.506   3.885   4.400
 7065TIP3    H121128   7.593   3.882   4.445
 7065TIP3    H221129   7.485   3.790   4.396
 7066TIP3   OH221130   7.986   3.846   4.441
 7066TIP3    H121131   8.079   3.820   4.451
 7066TIP3    H221132   7.960   3.788   4.367
 7067TIP3   OH221133   7.958   3.421   2.572
 7067TIP3    H121134   7.902   3.350   2.609
 7067TIP3    H221135   8.046   3.384   2.587
 7068TIP3   OH221136   7.635   3.290   4.600
 7068TIP3    H121137   7.653   3.194   4.605
 7068TIP3    H221138   7.548   3.291   4.555
 7069TIP3   OH221139   7.619   2.937   2.791
 7069TIP3    H121140   7.671   2.907   2.868
 7069TIP3    H221141   7.689   2.944   2.724
 7070TIP3   OH221142   8.248   3.376   4.378
 7070TIP3    H121143   8.208   3.396   4.291
 7070TIP3    H221144   8.277   3.283   4.367
 7071TIP3   OH221145   8.106   3.118   2.587
 7071TIP3    H121146   8.125   3.155   2.677
 7071TIP3    H221147   8.043   3.050   2.611
 7072TIP3   OH221148   7.756   3.028   4.580
 7072TIP3    H121149   7.825   2.964   4.560
 7072TIP3    H221150   7.782   3.057   4.670
 7073TIP3   OH221151   7.816   2.840   3.010
 7073TIP3    H121152   7.792   2.802   3.096
 7073TIP3    H221153   7.860   2.765   2.965
 7074TIP3   OH221154   8.055   2.888   4.258
 7074TIP3    H121155   7.988   2.960   4.263
 7074TIP3    H221156   8.117   2.927   4.194
 7075TIP3   OH221157   7.925   2.632   2.855
 7075TIP3    H121158   7.888   2.638   2.765
 7075TIP3    H221159   8.019   2.615   2.832
 7076TIP3   OH221160   8.220   2.697   4.367
 7076TIP3    H121161   8.219   2.611   4.320
 7076TIP3    H221162   8.158   2.751   4.313
 7077TIP3   OH221163   8.224   2.463   4.198
 7077TIP3    H121164   8.234   2.521   4.120
 7077TIP3    H221165   8.133   2.430   4.183
 7078TIP3   OH221166   8.220   3.018   4.093
 7078TIP3    H121167   8.286   2.998   4.025
 7078TIP3    H221168   8.162   3.080   4.044
 7079TIP3   OH221169   8.098   2.806   4.600
 7079TIP3    H121170   8.028   2.740   4.614
 7079TIP3    H221171   8.129   2.784   4.510
 7080TIP3   OH221172   7.930   2.589   4.651
 7080TIP3    H121173   7.937   2.499   4.616
 7080TIP3    H221174   7.963   2.576   4.743
 7081TIP3   OH221175   7.720   3.701   2.761
 7081TIP3    H121176   7.817   3.697   2.749
 7081TIP3    H221177   7.697   3.753   2.681
 7082TIP3   OH221178   7.209   3.082   2.974
 7082TIP3    H121179   7.305   3.103   2.962
 7082TIP3    H221180   7.204   2.993   2.934
 7083TIP3   OH221181   7.125   3.693   3.391
 7083TIP3    H121182   7.057   3.632   3.354
 7083TIP3    H221183   7.169   3.635   3.456
 7084TIP3   OH221184   7.259   3.542   3.578
 7084TIP3    H121185   7.247   3.470   3.641
 7084TIP3    H221186   7.310   3.604   3.632
 7085TIP3   OH221187   7.445   2.954   3.948
 7085TIP3    H121188   7.443   2.920   3.856
 7085TIP3    H221189   7.542   2.954   3.965
 7086TIP3   OH221190   7.663   2.640   4.627
 7086TIP3    H121191   7.761   2.633   4.627
 7086TIP3    H221192   7.640   2.554   4.668
 7087TIP3   OH221193   7.621   2.334   3.947
 7087TIP3    H121194   7.682   2.258   3.959
 7087TIP3    H221195   7.685   2.408   3.951
 7088TIP3   OH221196   7.436   2.602   4.030
 7088TIP3    H121197   7.481   2.594   3.944
 7088TIP3    H221198   7.467   2.688   4.060
 7089TIP3   OH221199   7.410   2.097   3.523
 7089TIP3    H121200   7.320   2.099   3.559
 7089TIP3    H221201   7.404   2.161   3.449
 7090TIP3   OH221202   7.629   2.183   4.341
 7090TIP3    H121203   7.580   2.185   4.425
 7090TIP3    H221204   7.565   2.227   4.281
 7091TIP3   OH221205   7.669   3.621   4.419
 7091TIP3    H121206   7.578   3.589   4.402
 7091TIP3    H221207   7.683   3.593   4.510
 7092TIP3   OH221208   7.849   3.647   3.969
 7092TIP3    H121209   7.802   3.723   3.929
 7092TIP3    H221210   7.934   3.658   3.922
 7093TIP3   OH221211   8.281   3.889   4.118
 7093TIP3    H121212   8.337   3.887   4.198
 7093TIP3    H221213   8.335   3.940   4.053
 7094TIP3   OH221214   8.417   4.042   3.928
 7094TIP3    H121215   8.473   4.028   3.847
 7094TIP3    H221216   8.480   4.093   3.984
 7095TIP3   OH221217   7.525   3.908   3.988
 7095TIP3    H121218   7.436   3.942   3.966
 7095TIP3    H221219   7.534   3.936   4.079
 7096TIP3   OH221220   7.761   3.883   3.849
 7096TIP3    H121221   7.674   3.896   3.893
 7096TIP3    H221222   7.742   3.913   3.758
 7097TIP3   OH221223   8.165   3.919   3.649
 7097TIP3    H121224   8.092   3.934   3.585
 7097TIP3    H221225   8.179   4.009   3.684
 7098TIP3   OH221226   8.413   3.816   3.625
 7098TIP3    H121227   8.322   3.849   3.641
 7098TIP3    H221228   8.467   3.891   3.655
 7099TIP3   OH221229   7.437   3.699   3.736
 7099TIP3    H121230   7.465   3.671   3.826
 7099TIP3    H221231   7.509   3.656   3.684
 7100TIP3   OH221232   7.631   3.571   3.593
 7100TIP3    H121233   7.645   3.487   3.642
 7100TIP3    H221234   7.722   3.607   3.590
 7101TIP3   OH221235   7.897   3.666   3.596
 7101TIP3    H121236   7.925   3.573   3.584
 7101TIP3    H221237   7.946   3.687   3.678
 7102TIP3   OH221238   7.725   2.028   3.690
 7102TIP3    H121239   7.632   1.995   3.695
 7102TIP3    H221240   7.773   1.942   3.686
 7103TIP3   OH221241   7.515   1.900   3.338
 7103TIP3    H121242   7.538   1.964   3.269
 7103TIP3    H221243   7.481   1.959   3.408
 7104TIP3   OH221244   7.226   3.470   3.123
 7104TIP3    H121245   7.139   3.438   3.091
 7104TIP3    H221246   7.215   3.565   3.105
 7105TIP3   OH221247   7.625   2.060   3.114
 7105TIP3    H121248   7.670   2.004   3.047
 7105TIP3    H221249   7.697   2.117   3.145
 7106TIP3   OH221250   7.987   3.658   2.716
 7106TIP3    H121251   8.077   3.672   2.680
 7106TIP3    H221252   7.959   3.585   2.656
 7107TIP3   OH221253   7.925   2.308   4.581
 7107TIP3    H121254   7.890   2.241   4.642
 7107TIP3    H221255   8.018   2.313   4.611
 7108TIP3   OH221256   8.165   2.305   4.715
 7108TIP3    H121257   8.243   2.265   4.670
 7108TIP3    H221258   8.145   2.236   4.782
 7109TIP3   OH221259   7.300   3.494   2.765
 7109TIP3    H121260   7.302   3.517   2.859
 7109TIP3    H221261   7.389   3.453   2.752
 7110TIP3   OH221262   0.853   3.841   4.941
 7110TIP3    H121263   0.795   3.918   4.936
 7110TIP3    H221264   0.786   3.775   4.925
 7111TIP3   OH221265   0.878   3.823   5.336
 7111TIP3    H121266   0.899   3.804   5.429
 7111TIP3    H221267   0.821   3.749   5.312
 7112TIP3   OH221268   0.185   3.691   5.666
 7112TIP3    H121269   0.174   3.645   5.752
 7112TIP3    H221270   0.231   3.771   5.693
 7113TIP3   OH221271   1.091   4.146   5.063
 7113TIP3    H121272   1.159   4.083   5.113
 7113TIP3    H221273   1.069   4.193   5.132
 7114TIP3   OH221274   0.138   4.115   5.383
 7114TIP3    H121275   0.125   4.019   5.402
 7114TIP3    H221276   0.235   4.122   5.391
 7115TIP3   OH221277  -0.044   3.588   5.375
 7115TIP3    H121278  -0.059   3.635   5.455
 7115TIP3    H221279  -0.016   3.659   5.316
 7116TIP3   OH221280   0.760   4.581   5.032
 7116TIP3    H121281   0.822   4.514   4.998
 7116TIP3    H221282   0.755   4.557   5.126
 7117TIP3   OH221283   0.662   4.052   5.386
 7117TIP3    H121284   0.696   3.976   5.337
 7117TIP3    H221285   0.747   4.093   5.412
 7118TIP3   OH221286   1.679   3.369   5.385
 7118TIP3    H121287   1.705   3.453   5.429
 7118TIP3    H221288   1.705   3.387   5.293
 7119TIP3   OH221289   1.072   3.548   5.419
 7119TIP3    H121290   1.116   3.464   5.439
 7119TIP3    H221291   1.045   3.534   5.326
 7120TIP3   OH221292   0.344   3.172   5.415
 7120TIP3    H121293   0.360   3.268   5.404
 7120TIP3    H221294   0.363   3.143   5.325
 7121TIP3   OH221295   1.109   3.300   5.007
 7121TIP3    H121296   1.182   3.286   5.072
 7121TIP3    H221297   1.160   3.338   4.932
 7122TIP3   OH221298   0.085   3.361   5.536
 7122TIP3    H121299   0.134   3.438   5.561
 7122TIP3    H221300   0.075   3.373   5.438
 7123TIP3   OH221301   0.500   3.612   5.264
 7123TIP3    H121302   0.590   3.585   5.292
 7123TIP3    H221303   0.457   3.525   5.250
 7124TIP3   OH221304   1.747   3.576   5.560
 7124TIP3    H121305   1.664   3.625   5.541
 7124TIP3    H221306   1.775   3.617   5.643
 7125TIP3   OH221307   0.396   3.207   5.795
 7125TIP3    H121308   0.378   3.293   5.753
 7125TIP3    H221309   0.343   3.215   5.878
 7126TIP3   OH221310   0.511   3.970   5.617
 7126TIP3    H121311   0.450   4.035   5.659
 7126TIP3    H221312   0.551   4.022   5.545
 7127TIP3   OH221313   1.317   3.304   5.184
 7127TIP3    H121314   1.294   3.271   5.271
 7127TIP3    H221315   1.371   3.382   5.206
 7128TIP3   OH221316   0.331   4.156   5.734
 7128TIP3    H121317   0.278   4.212   5.675
 7128TIP3    H221318   0.260   4.117   5.788
 7129TIP3   OH221319   1.473   3.263   5.549
 7129TIP3    H121320   1.386   3.299   5.524
 7129TIP3    H221321   1.531   3.299   5.479
 7130TIP3   OH221322   0.764   2.910   5.528
 7130TIP3    H121323   0.752   2.816   5.552
 7130TIP3    H221324   0.691   2.951   5.580
 7131TIP3   OH221325   0.958   4.412   4.908
 7131TIP3    H121326   0.922   4.342   4.849
 7131TIP3    H221327   0.967   4.486   4.843
 7132TIP3   OH221328   1.049   4.181   4.784
 7132TIP3    H121329   1.014   4.138   4.701
 7132TIP3    H221330   1.009   4.122   4.850
 7133TIP3   OH221331   1.404   4.290   5.530
 7133TIP3    H121332   1.395   4.210   5.474
 7133TIP3    H221333   1.378   4.361   5.469
 7134TIP3   OH221334   0.686   3.646   4.780
 7134TIP3    H121335   0.629   3.724   4.798
 7134TIP3    H221336   0.729   3.675   4.699
 7135TIP3   OH221337   0.652   3.462   4.499
 7135TIP3    H121338   0.710   3.510   4.561
 7135TIP3    H221339   0.716   3.404   4.455
 7136TIP3   OH221340   1.598   3.915   5.381
 7136TIP3    H121341   1.523   3.977   5.389
 7136TIP3    H221342   1.631   3.939   5.292
 7137TIP3   OH221343   1.043   3.765   4.758
 7137TIP3    H121344   0.982   3.789   4.833
 7137TIP3    H221345   1.122   3.734   4.806
 7138TIP3   OH221346   1.279   3.800   5.673
 7138TIP3    H121347   1.275   3.879   5.730
 7138TIP3    H221348   1.189   3.802   5.634
 7139TIP3   OH221349   0.257   3.731   5.195
 7139TIP3    H121350   0.233   3.693   5.108
 7139TIP3    H221351   0.353   3.711   5.199
 7140TIP3   OH221352   0.411   4.179   5.320
 7140TIP3    H121353   0.379   4.146   5.234
 7140TIP3    H221354   0.496   4.133   5.332
 7141TIP3   OH221355   0.448   3.710   5.526
 7141TIP3    H121356   0.460   3.712   5.430
 7141TIP3    H221357   0.469   3.802   5.553
 7142TIP3   OH221358   0.966   4.356   5.292
 7142TIP3    H121359   0.946   4.438   5.339
 7142TIP3    H221360   0.942   4.288   5.361
 7143TIP3   OH221361   0.547   4.287   5.857
 7143TIP3    H121362   0.490   4.350   5.906
 7143TIP3    H221363   0.479   4.232   5.814
 7144TIP3   OH221364   0.895   3.610   4.583
 7144TIP3    H121365   0.947   3.675   4.636
 7144TIP3    H221366   0.916   3.638   4.491
 7145TIP3   OH221367   0.288   3.839   5.964
 7145TIP3    H121368   0.298   3.923   6.014
 7145TIP3    H221369   0.195   3.845   5.939
 7146TIP3   OH221370   0.667   4.361   4.821
 7146TIP3    H121371   0.664   4.368   4.917
 7146TIP3    H221372   0.574   4.349   4.799
 7147TIP3   OH221373   0.333   4.459   5.938
 7147TIP3    H121374   0.310   4.461   5.843
 7147TIP3    H221375   0.253   4.418   5.977
 7148TIP3   OH221376   1.399   2.857   4.635
 7148TIP3    H121377   1.318   2.880   4.686
 7148TIP3    H221378   1.414   2.940   4.585
 7149TIP3   OH221379   0.150   3.589   4.977
 7149TIP3    H121380   0.099   3.637   4.908
 7149TIP3    H221381   0.095   3.512   4.988
 7150TIP3   OH221382   1.199   4.226   4.185
 7150TIP3    H121383   1.207   4.323   4.168
 7150TIP3    H221384   1.292   4.197   4.171
 7151TIP3   OH221385   1.640   4.628   5.577
 7151TIP3    H121386   1.641   4.531   5.594
 7151TIP3    H221387   1.557   4.653   5.624
 7152TIP3   OH221388   0.740   4.415   5.704
 7152TIP3    H121389   0.746   4.506   5.740
 7152TIP3    H221390   0.674   4.375   5.763
 7153TIP3   OH221391   0.499   4.553   4.652
 7153TIP3    H121392   0.451   4.541   4.568
 7153TIP3    H221393   0.472   4.641   4.681
 7154TIP3   OH221394   0.712   4.447   4.303
 7154TIP3    H121395   0.769   4.375   4.270
 7154TIP3    H221396   0.741   4.455   4.396
 7155TIP3   OH221397   0.752   4.491   4.576
 7155TIP3    H121398   0.661   4.510   4.610
 7155TIP3    H221399   0.781   4.433   4.649
 7156TIP3   OH221400   1.534   3.757   5.853
 7156TIP3    H121401   1.449   3.775   5.809
 7156TIP3    H221402   1.542   3.660   5.843
 7157TIP3   OH221403   0.529   2.986   5.671
 7157TIP3    H121404   0.443   2.947   5.651
 7157TIP3    H221405   0.501   3.076   5.700
 7158TIP3   OH221406   1.060   3.099   5.857
 7158TIP3    H121407   1.128   3.081   5.925
 7158TIP3    H221408   0.976   3.086   5.905
 7159TIP3   OH221409   1.303   3.539   5.773
 7159TIP3    H121410   1.252   3.532   5.857
 7159TIP3    H221411   1.274   3.625   5.738
 7160TIP3   OH221412   0.960   3.666   4.327
 7160TIP3    H121413   0.926   3.639   4.239
 7160TIP3    H221414   1.043   3.710   4.302
 7161TIP3   OH221415   0.673   3.036   4.634
 7161TIP3    H121416   0.639   3.035   4.725
 7161TIP3    H221417   0.633   2.954   4.600
 7162TIP3   OH221418   0.448   3.483   5.679
 7162TIP3    H121419   0.394   3.514   5.754
 7162TIP3    H221420   0.445   3.563   5.622
 7163TIP3   OH221421   0.357   3.370   5.211
 7163TIP3    H121422   0.263   3.390   5.213
 7163TIP3    H221423   0.368   3.341   5.117
 7164TIP3   OH221424   0.835   3.473   4.924
 7164TIP3    H121425   0.776   3.537   4.879
 7164TIP3    H221426   0.890   3.443   4.849
 7165TIP3   OH221427   0.991   3.504   5.160
 7165TIP3    H121428   0.927   3.532   5.091
 7165TIP3    H221429   1.025   3.423   5.116
 7166TIP3   OH221430   0.279   3.523   5.896
 7166TIP3    H121431   0.307   3.602   5.945
 7166TIP3    H221432   0.273   3.456   5.966
 7167TIP3   OH221433   0.327   3.010   4.600
 7167TIP3    H121434   0.316   3.013   4.697
 7167TIP3    H221435   0.251   3.063   4.570
 7168TIP3   OH221436  -0.044   3.060   5.484
 7168TIP3    H121437  -0.094   3.137   5.472
 7168TIP3    H221438  -0.088   3.000   5.412
 7169TIP3   OH221439  -0.130   3.087   5.017
 7169TIP3    H121440  -0.105   3.100   4.922
 7169TIP3    H221441  -0.162   3.175   5.037
 7170TIP3   OH221442   1.016   3.757   5.581
 7170TIP3    H121443   1.037   3.677   5.527
 7170TIP3    H221444   0.974   3.716   5.659
 7171TIP3   OH221445   0.674   3.205   5.255
 7171TIP3    H121446   0.599   3.234   5.309
 7171TIP3    H221447   0.749   3.214   5.317
 7172TIP3   OH221448   0.087   3.224   5.272
 7172TIP3    H121449   0.011   3.255   5.222
 7172TIP3    H221450   0.135   3.167   5.208
 7173TIP3   OH221451   0.372   3.264   4.954
 7173TIP3    H121452   0.465   3.286   4.933
 7173TIP3    H221453   0.324   3.290   4.872
 7174TIP3   OH221454   1.166   3.285   5.446
 7174TIP3    H121455   1.142   3.298   5.541
 7174TIP3    H221456   1.092   3.229   5.417
 7175TIP3   OH221457   0.219   3.286   4.728
 7175TIP3    H121458   0.153   3.250   4.667
 7175TIP3    H221459   0.273   3.337   4.665
 7176TIP3   OH221460   1.334   4.978   5.678
 7176TIP3    H121461   1.331   5.002   5.583
 7176TIP3    H221462   1.413   5.027   5.708
 7177TIP3   OH221463   0.284   4.070   6.126
 7177TIP3    H121464   0.364   4.109   6.168
 7177TIP3    H221465   0.215   4.127   6.163
 7178TIP3   OH221466   0.753   3.530   5.350
 7178TIP3    H121467   0.837   3.507   5.308
 7178TIP3    H221468   0.768   3.507   5.443
 7179TIP3   OH221469   0.274   3.017   5.207
 7179TIP3    H121470   0.254   2.927   5.236
 7179TIP3    H221471   0.326   3.001   5.127
 7180TIP3   OH221472   0.731   3.440   5.656
 7180TIP3    H121473   0.642   3.481   5.661
 7180TIP3    H221474   0.788   3.508   5.697
 7181TIP3   OH221475   1.369   4.071   5.358
 7181TIP3    H121476   1.372   4.068   5.263
 7181TIP3    H221477   1.282   4.026   5.374
 7182TIP3   OH221478   0.925   3.140   4.601
 7182TIP3    H121479   0.828   3.124   4.610
 7182TIP3    H221480   0.935   3.234   4.625
 7183TIP3   OH221481   0.891   4.153   5.727
 7183TIP3    H121482   0.894   4.081   5.795
 7183TIP3    H221483   0.828   4.215   5.765
 7184TIP3   OH221484   0.994   3.385   4.705
 7184TIP3    H121485   1.090   3.396   4.719
 7184TIP3    H221486   0.971   3.465   4.653
 7185TIP3   OH221487   0.157   3.843   5.422
 7185TIP3    H121488   0.198   3.801   5.343
 7185TIP3    H221489   0.174   3.778   5.492
 7186TIP3   OH221490   1.027   4.422   5.624
 7186TIP3    H121491   0.934   4.401   5.638
 7186TIP3    H221492   1.050   4.465   5.709
 7187TIP3   OH221493   1.431   3.480   4.540
 7187TIP3    H121494   1.370   3.434   4.477
 7187TIP3    H221495   1.429   3.569   4.498
 7188TIP3   OH221496   1.656   4.340   5.617
 7188TIP3    H121497   1.558   4.334   5.613
 7188TIP3    H221498   1.678   4.309   5.526
 7189TIP3   OH221499   1.143   4.294   4.451
 7189TIP3    H121500   1.110   4.218   4.499
 7189TIP3    H221501   1.154   4.258   4.361
 7190TIP3   OH221502   1.136   3.931   5.270
 7190TIP3    H121503   1.044   3.906   5.295
 7190TIP3    H221504   1.167   3.846   5.237
 7191TIP3   OH221505   0.265   4.176   5.075
 7191TIP3    H121506   0.276   4.219   4.989
 7191TIP3    H221507   0.179   4.135   5.067
 7192TIP3   OH221508  -0.174   3.468   4.756
 7192TIP3    H121509  -0.112   3.544   4.770
 7192TIP3    H221510  -0.258   3.512   4.772
 7193TIP3   OH221511   0.535   4.499   5.507
 7193TIP3    H121512   0.576   4.574   5.461
 7193TIP3    H221513   0.611   4.463   5.557
 7194TIP3   OH221514   0.173   4.402   4.885
 7194TIP3    H121515   0.106   4.412   4.953
 7194TIP3    H221516   0.212   4.493   4.886
 7195TIP3   OH221517   0.921   4.132   5.461
 7195TIP3    H121518   0.905   4.142   5.557
 7195TIP3    H221519   0.997   4.072   5.464
 7196TIP3   OH221520   0.894   4.029   4.344
 7196TIP3    H121521   0.940   4.002   4.427
 7196TIP3    H221522   0.804   3.996   4.361
 7197TIP3   OH221523   1.167   4.668   5.520
 7197TIP3    H121524   1.092   4.605   5.518
 7197TIP3    H221525   1.146   4.728   5.445
 7198TIP3   OH221526   1.229   4.501   4.168
 7198TIP3    H121527   1.267   4.574   4.116
 7198TIP3    H221528   1.149   4.547   4.203
 7199TIP3   OH221529   0.260   3.256   6.044
 7199TIP3    H121530   0.172   3.273   6.081
 7199TIP3    H221531   0.301   3.204   6.115
 7200TIP3   OH221532   1.054   3.971   4.569
 7200TIP3    H121533   1.040   3.897   4.634
 7200TIP3    H221534   1.149   3.960   4.552
 7201TIP3   OH221535   0.265   4.000   4.350
 7201TIP3    H121536   0.266   3.905   4.327
 7201TIP3    H221537   0.246   3.996   4.446
 7202TIP3   OH221538   0.214   4.010   4.626
 7202TIP3    H121539   0.296   3.986   4.672
 7202TIP3    H221540   0.216   4.108   4.632
 7203TIP3   OH221541  -0.050   3.700   4.828
 7203TIP3    H121542  -0.085   3.757   4.897
 7203TIP3    H221543  -0.030   3.766   4.758
 7204TIP3   OH221544   1.104   3.325   5.704
 7204TIP3    H121545   1.156   3.385   5.759
 7204TIP3    H221546   1.079   3.255   5.767
 7205TIP3   OH221547   0.970   3.090   4.882
 7205TIP3    H121548   0.955   3.115   4.789
 7205TIP3    H221549   1.010   3.172   4.919
 7206TIP3   OH221550   0.458   4.210   4.543
 7206TIP3    H121551   0.378   4.230   4.595
 7206TIP3    H221552   0.483   4.298   4.513
 7207TIP3   OH221553   0.656   3.272   4.984
 7207TIP3    H121554   0.720   3.344   4.964
 7207TIP3    H221555   0.663   3.266   5.081
 7208TIP3   OH221556   0.930   3.607   5.800
 7208TIP3    H121557   0.910   3.678   5.864
 7208TIP3    H221558   0.981   3.546   5.854
 7209TIP3   OH221559   0.800   2.995   5.084
 7209TIP3    H121560   0.789   3.071   5.144
 7209TIP3    H221561   0.862   3.033   5.018
 7210TIP3   OH221562   0.206   4.283   4.639
 7210TIP3    H121563   0.181   4.353   4.575
 7210TIP3    H221564   0.191   4.329   4.724
 7211TIP3   OH221565   0.313   2.998   4.882
 7211TIP3    H121566   0.312   3.093   4.906
 7211TIP3    H221567   0.410   2.982   4.884
 7212TIP3   OH221568   1.566   3.484   5.777
 7212TIP3    H121569   1.467   3.486   5.780
 7212TIP3    H221570   1.581   3.465   5.683
 7213TIP3   OH221571   1.218   3.685   5.161
 7213TIP3    H121572   1.141   3.626   5.174
 7213TIP3    H221573   1.288   3.637   5.209
 7214TIP3   OH221574  -0.056   3.919   4.666
 7214TIP3    H121575   0.026   3.973   4.659
 7214TIP3    H221576  -0.047   3.869   4.582
 7215TIP3   OH221577  -0.153   3.190   4.768
 7215TIP3    H121578  -0.142   3.288   4.764
 7215TIP3    H221579  -0.180   3.172   4.678
 7216TIP3   OH221580   1.195   4.632   5.105
 7216TIP3    H121581   1.144   4.680   5.035
 7216TIP3    H221582   1.285   4.668   5.087
 7217TIP3   OH221583   0.431   4.629   6.146
 7217TIP3    H121584   0.527   4.635   6.143
 7217TIP3    H221585   0.412   4.578   6.065
 7218TIP3   OH221586   0.415   4.214   4.250
 7218TIP3    H121587   0.364   4.150   4.305
 7218TIP3    H221588   0.496   4.163   4.235
 7219TIP3   OH221589   1.078   4.541   5.869
 7219TIP3    H121590   1.074   4.468   5.936
 7219TIP3    H221591   1.156   4.592   5.899
 7220TIP3   OH221592   0.857   4.250   4.174
 7220TIP3    H121593   0.896   4.182   4.231
 7220TIP3    H221594   0.914   4.248   4.095
 7221TIP3   OH221595   0.064   3.726   4.489
 7221TIP3    H121596   0.119   3.690   4.563
 7221TIP3    H221597   0.133   3.731   4.420
 7222TIP3   OH221598   0.703   4.157   6.059
 7222TIP3    H121599   0.657   4.169   5.975
 7222TIP3    H221600   0.761   4.080   6.037
 7223TIP3   OH221601   0.591   3.932   4.306
 7223TIP3    H121602   0.536   3.947   4.385
 7223TIP3    H221603   0.587   3.834   4.298
 7224TIP3   OH221604   1.193   4.158   5.666
 7224TIP3    H121605   1.256   4.223   5.631
 7224TIP3    H221606   1.110   4.207   5.667
 7225TIP3   OH221607   0.210   3.782   6.298
 7225TIP3    H121608   0.273   3.767   6.226
 7225TIP3    H221609   0.258   3.841   6.358
 7226TIP3   OH221610   0.227   3.614   4.683
 7226TIP3    H121611   0.264   3.620   4.771
 7226TIP3    H221612   0.290   3.552   4.639
 7227TIP3   OH221613   0.535   3.684   5.925
 7227TIP3    H121614   0.469   3.755   5.931
 7227TIP3    H221615   0.594   3.718   5.854
 7228TIP3   OH221616   0.378   3.420   4.548
 7228TIP3    H121617   0.350   3.426   4.454
 7228TIP3    H221618   0.475   3.430   4.538
 7229TIP3   OH221619   1.196   3.755   4.209
 7229TIP3    H121620   1.175   3.709   4.125
 7229TIP3    H221621   1.165   3.846   4.185
 7230TIP3   OH221622   0.668   3.488   6.060
 7230TIP3    H121623   0.664   3.409   6.004
 7230TIP3    H221624   0.623   3.556   6.003
 7231TIP3   OH221625   0.663   3.259   5.858
 7231TIP3    H121626   0.695   3.314   5.784
 7231TIP3    H221627   0.568   3.250   5.836
 7232TIP3   OH221628   0.691   3.778   5.712
 7232TIP3    H121629   0.766   3.826   5.753
 7232TIP3    H221630   0.634   3.852   5.681
 7233TIP3   OH221631   1.315   3.781   6.156
 7233TIP3    H121632   1.333   3.697   6.113
 7233TIP3    H221633   1.336   3.846   6.088
 7234TIP3   OH221634   1.330   4.015   5.854
 7234TIP3    H121635   1.263   4.067   5.804
 7234TIP3    H221636   1.412   4.046   5.810
 7235TIP3   OH221637   0.550   3.605   6.292
 7235TIP3    H121638   0.488   3.530   6.300
 7235TIP3    H221639   0.583   3.592   6.201
 7236TIP3   OH221640   0.800   3.033   5.937
 7236TIP3    H121641   0.752   3.115   5.909
 7236TIP3    H221642   0.730   2.966   5.927
 7237TIP3   OH221643   0.936   3.519   6.136
 7237TIP3    H121644   0.928   3.541   6.230
 7237TIP3    H221645   0.841   3.512   6.111
 7238TIP3   OH221646   1.165   3.483   5.996
 7238TIP3    H121647   1.086   3.497   6.053
 7238TIP3    H221648   1.233   3.458   6.062
 7239TIP3   OH221649   1.402   3.432   6.159
 7239TIP3    H121650   1.407   3.336   6.178
 7239TIP3    H221651   1.392   3.471   6.249
 7240TIP3   OH221652   0.410   3.377   6.338
 7240TIP3    H121653   0.399   3.286   6.304
 7240TIP3    H221654   0.429   3.359   6.432
 7241TIP3   OH221655   0.893   3.038   6.194
 7241TIP3    H121656   0.961   2.969   6.183
 7241TIP3    H221657   0.853   3.039   6.105
 7242TIP3   OH221658   0.956   3.253   6.356
 7242TIP3    H121659   0.934   3.188   6.286
 7242TIP3    H221660   0.884   3.320   6.345
 7243TIP3   OH221661   0.184   4.480   4.448
 7243TIP3    H121662   0.279   4.481   4.427
 7243TIP3    H221663   0.151   4.538   4.377
 7244TIP3   OH221664   1.436   4.746   5.064
 7244TIP3    H121665   1.469   4.767   5.153
 7244TIP3    H221666   1.510   4.775   5.008
 7245TIP3   OH221667   1.468   4.752   5.348
 7245TIP3    H121668   1.426   4.664   5.340
 7245TIP3    H221669   1.545   4.729   5.404
 7246TIP3   OH221670   1.516   4.430   5.921
 7246TIP3    H121671   1.444   4.437   5.986
 7246TIP3    H221672   1.557   4.518   5.927
 7247TIP3   OH221673   1.331   3.944   4.542
 7247TIP3    H121674   1.400   4.006   4.511
 7247TIP3    H221675   1.376   3.904   4.620
 7248TIP3   OH221676   1.458   3.816   4.748
 7248TIP3    H121677   1.397   3.768   4.809
 7248TIP3    H221678   1.531   3.844   4.807
 7249TIP3   OH221679   1.323   4.501   5.367
 7249TIP3    H121680   1.276   4.551   5.438
 7249TIP3    H221681   1.255   4.497   5.299
 7250TIP3   OH221682   1.395   3.717   4.394
 7250TIP3    H121683   1.324   3.720   4.325
 7250TIP3    H221684   1.369   3.794   4.448
 7251TIP3   OH221685   1.267   3.389   4.344
 7251TIP3    H121686   1.222   3.428   4.268
 7251TIP3    H221687   1.244   3.294   4.333
 7252TIP3   OH221688   1.271   3.665   4.891
 7252TIP3    H121689   1.281   3.569   4.882
 7252TIP3    H221690   1.259   3.676   4.988
 7253TIP3   OH221691   1.568   4.095   5.744
 7253TIP3    H121692   1.638   4.026   5.736
 7253TIP3    H221693   1.600   4.164   5.684
 7254TIP3   OH221694   1.747   3.895   5.763
 7254TIP3    H121695   1.672   3.846   5.804
 7254TIP3    H221696   1.819   3.830   5.778
 7255TIP3   OH221697   1.212   3.122   4.328
 7255TIP3    H121698   1.286   3.094   4.385
 7255TIP3    H221699   1.138   3.066   4.356
 7256TIP3   OH221700   1.270   3.385   4.786
 7256TIP3    H121701   1.312   3.297   4.801
 7256TIP3    H221702   1.328   3.417   4.714
 7257TIP3   OH221703   1.429   3.554   5.281
 7257TIP3    H121704   1.515   3.581   5.241
 7257TIP3    H221705   1.442   3.591   5.371
 7258TIP3   OH221706   1.497   3.697   5.515
 7258TIP3    H121707   1.421   3.732   5.566
 7258TIP3    H221708   1.530   3.778   5.471
 7259TIP3   OH221709   0.134   3.340   6.421
 7259TIP3    H121710   0.193   3.382   6.356
 7259TIP3    H221711   0.049   3.374   6.391
 7260TIP3   OH221712   1.954   3.293   6.071
 7260TIP3    H121713   2.010   3.228   6.024
 7260TIP3    H221714   1.920   3.347   5.996
 7261TIP3   OH221715   1.377   3.135   4.825
 7261TIP3    H121716   1.427   3.118   4.908
 7261TIP3    H221717   1.318   3.057   4.823
 7262TIP3   OH221718   1.821   3.429   5.880
 7262TIP3    H121719   1.737   3.474   5.904
 7262TIP3    H221720   1.787   3.363   5.818
 7263TIP3   OH221721   1.456   3.067   4.456
 7263TIP3    H121722   1.500   2.997   4.405
 7263TIP3    H221723   1.522   3.139   4.456
 7264TIP3   OH221724  -0.129   2.939   5.250
 7264TIP3    H121725  -0.207   2.885   5.237
 7264TIP3    H221726  -0.120   2.984   5.161
 7265TIP3   OH221727   1.033   4.591   4.726
 7265TIP3    H121728   1.076   4.590   4.638
 7265TIP3    H221729   1.069   4.673   4.765
 7266TIP3   OH221730   0.072   2.978   6.046
 7266TIP3    H121731   0.047   2.971   6.139
 7266TIP3    H221732   0.010   3.046   6.016
 7267TIP3   OH221733   0.300   4.467   5.653
 7267TIP3    H121734   0.280   4.545   5.598
 7267TIP3    H221735   0.391   4.449   5.621
 7268TIP3   OH221736   0.758   4.675   5.788
 7268TIP3    H121737   0.794   4.681   5.879
 7268TIP3    H221738   0.822   4.730   5.739
 7269TIP3   OH221739   0.932   4.835   5.651
 7269TIP3    H121740   1.004   4.783   5.613
 7269TIP3    H221741   0.981   4.893   5.713
 7270TIP3   OH221742   1.720   3.196   5.754
 7270TIP3    H121743   1.630   3.198   5.716
 7270TIP3    H221744   1.746   3.103   5.738
 7271TIP3   OH221745   0.210   4.689   5.511
 7271TIP3    H121746   0.174   4.777   5.524
 7271TIP3    H221747   0.177   4.668   5.421
 7272TIP3   OH221748   0.648   4.698   5.334
 7272TIP3    H121749   0.584   4.721   5.264
 7272TIP3    H221750   0.654   4.783   5.383
 7273TIP3   OH221751   0.913   4.634   5.377
 7273TIP3    H121752   0.817   4.651   5.369
 7273TIP3    H221753   0.950   4.719   5.346
 7274TIP3   OH221754   1.120   4.831   5.301
 7274TIP3    H121755   1.103   4.916   5.255
 7274TIP3    H221756   1.143   4.772   5.226
 7275TIP3   OH221757   0.086   4.363   5.282
 7275TIP3    H121758   0.092   4.272   5.320
 7275TIP3    H221759   0.180   4.386   5.274
 7276TIP3   OH221760   0.364   4.461   5.284
 7276TIP3    H121761   0.381   4.366   5.266
 7276TIP3    H221762   0.413   4.469   5.368
 7277TIP3   OH221763   0.927   3.110   5.370
 7277TIP3    H121764   0.885   3.039   5.421
 7277TIP3    H221765   1.003   3.064   5.328
 7278TIP3   OH221766   1.447   2.984   5.276
 7278TIP3    H121767   1.485   3.039   5.204
 7278TIP3    H221768   1.354   3.012   5.274
 7279TIP3   OH221769   1.544   3.086   5.040
 7279TIP3    H121770   1.618   3.035   4.999
 7279TIP3    H221771   1.580   3.177   5.027
 7280TIP3   OH221772   0.176   2.861   5.421
 7280TIP3    H121773   0.086   2.824   5.419
 7280TIP3    H221774   0.227   2.777   5.422
 7281TIP3   OH221775  -0.011   2.678   5.043
 7281TIP3    H121776   0.006   2.736   4.966
 7281TIP3    H221777  -0.083   2.725   5.087
 7282TIP3   OH221778   0.620   2.851   5.274
 7282TIP3    H121779   0.671   2.900   5.208
 7282TIP3    H221780   0.657   2.885   5.356
 7283TIP3   OH221781   1.160   2.996   5.254
 7283TIP3    H121782   1.162   2.963   5.164
 7283TIP3    H221783   1.148   2.914   5.307
 7284TIP3   OH221784   1.195   2.920   4.815
 7284TIP3    H121785   1.110   2.966   4.829
 7284TIP3    H221786   1.177   2.835   4.860
 7285TIP3   OH221787   0.080   2.841   4.813
 7285TIP3    H121788   0.125   2.782   4.748
 7285TIP3    H221789   0.155   2.897   4.842
 7286TIP3   OH221790   0.589   3.022   4.900
 7286TIP3    H121791   0.654   2.979   4.958
 7286TIP3    H221792   0.608   3.116   4.922
 7287TIP3   OH221793   0.450   4.451   4.390
 7287TIP3    H121794   0.539   4.471   4.355
 7287TIP3    H221795   0.428   4.373   4.335
 7288TIP3   OH221796   1.172   4.564   4.490
 7288TIP3    H121797   1.163   4.467   4.476
 7288TIP3    H221798   1.124   4.599   4.411
 7289TIP3   OH221799   0.381   3.099   6.269
 7289TIP3    H121800   0.346   3.028   6.326
 7289TIP3    H221801   0.474   3.101   6.301
 7290TIP3   OH221802   0.626   3.096   6.401
 7290TIP3    H121803   0.712   3.081   6.359
 7290TIP3    H221804   0.619   3.019   6.461
 7291TIP3   OH221805   1.456   3.156   6.186
 7291TIP3    H121806   1.477   3.129   6.278
 7291TIP3    H221807   1.544   3.156   6.144
 7292TIP3   OH221808   1.395   4.709   5.679
 7292TIP3    H121809   1.314   4.679   5.633
 7292TIP3    H221810   1.377   4.805   5.685
 7293TIP3   OH221811   1.966   3.982   5.185
 7293TIP3    H121812   1.987   3.912   5.252
 7293TIP3    H221813   2.044   4.038   5.194
 7294TIP3   OH221814   1.934   4.379   4.908
 7294TIP3    H121815   1.930   4.281   4.910
 7294TIP3    H221816   2.031   4.392   4.907
 7295TIP3   OH221817   1.633   3.593   4.691
 7295TIP3    H121818   1.587   3.677   4.707
 7295TIP3    H221819   1.561   3.540   4.653
 7296TIP3   OH221820   1.697   3.877   4.875
 7296TIP3    H121821   1.745   3.799   4.913
 7296TIP3    H221822   1.767   3.914   4.820
 7297TIP3   OH221823   2.550   4.847   4.522
 7297TIP3    H121824   2.601   4.773   4.482
 7297TIP3    H221825   2.542   4.820   4.614
 7298TIP3   OH221826   3.472   3.621   4.874
 7298TIP3    H121827   3.501   3.706   4.911
 7298TIP3    H221828   3.490   3.633   4.779
 7299TIP3   OH221829   2.869   3.816   4.908
 7299TIP3    H121830   2.900   3.725   4.897
 7299TIP3    H221831   2.837   3.842   4.820
 7300TIP3   OH221832   2.156   3.468   4.877
 7300TIP3    H121833   2.151   3.551   4.826
 7300TIP3    H221834   2.122   3.402   4.812
 7301TIP3   OH221835   2.908   3.531   4.485
 7301TIP3    H121836   2.955   3.541   4.568
 7301TIP3    H221837   2.949   3.598   4.428
 7302TIP3   OH221838   1.838   3.670   4.984
 7302TIP3    H121839   1.927   3.665   5.023
 7302TIP3    H221840   1.851   3.608   4.908
 7303TIP3   OH221841   3.547   3.833   5.042
 7303TIP3    H121842   3.460   3.876   5.029
 7303TIP3    H221843   3.569   3.867   5.131
 7304TIP3   OH221844   2.207   3.453   5.307
 7304TIP3    H121845   2.153   3.496   5.238
 7304TIP3    H221846   2.153   3.472   5.386
 7305TIP3   OH221847   2.585   4.329   4.291
 7305TIP3    H121848   2.523   4.256   4.277
 7305TIP3    H221849   2.522   4.401   4.317
 7306TIP3   OH221850   2.309   4.233   5.142
 7306TIP3    H121851   2.234   4.291   5.166
 7306TIP3    H221852   2.353   4.287   5.076
 7307TIP3   OH221853   2.077   3.581   5.104
 7307TIP3    H121854   2.129   3.662   5.094
 7307TIP3    H221855   2.108   3.532   5.023
 7308TIP3   OH221856   2.130   4.428   5.199
 7308TIP3    H121857   2.111   4.517   5.163
 7308TIP3    H221858   2.051   4.416   5.256
 7309TIP3   OH221859   1.528   4.115   4.437
 7309TIP3    H121860   1.492   4.139   4.349
 7309TIP3    H221861   1.561   4.200   4.471
 7310TIP3   OH221862   2.980   4.636   4.692
 7310TIP3    H121863   2.896   4.605   4.727
 7310TIP3    H221864   2.956   4.720   4.648
 7311TIP3   OH221865   3.264   3.520   5.037
 7311TIP3    H121866   3.177   3.550   5.005
 7311TIP3    H221867   3.324   3.554   4.967
 7312TIP3   OH221868   2.567   3.170   5.027
 7312TIP3    H121869   2.544   3.076   5.036
 7312TIP3    H221870   2.487   3.212   5.067
 7313TIP3   OH221871   2.682   4.673   4.351
 7313TIP3    H121872   2.732   4.595   4.320
 7313TIP3    H221873   2.736   4.744   4.309
 7314TIP3   OH221874   2.818   4.451   4.245
 7314TIP3    H121875   2.732   4.404   4.243
 7314TIP3    H221876   2.855   4.421   4.329
 7315TIP3   OH221877   3.210   4.538   4.999
 7315TIP3    H121878   3.161   4.474   4.946
 7315TIP3    H221879   3.186   4.623   4.956
 7316TIP3   OH221880   2.497   3.934   4.262
 7316TIP3    H121881   2.413   3.982   4.261
 7316TIP3    H221882   2.524   3.937   4.169
 7317TIP3   OH221883   2.449   3.721   3.986
 7317TIP3    H121884   2.511   3.758   4.051
 7317TIP3    H221885   2.508   3.658   3.939
 7318TIP3   OH221886   3.362   4.188   4.902
 7318TIP3    H121887   3.277   4.233   4.892
 7318TIP3    H221888   3.379   4.160   4.811
 7319TIP3   OH221889   3.083   4.057   5.164
 7319TIP3    H121890   3.070   4.144   5.206
 7319TIP3    H221891   2.992   4.046   5.126
 7320TIP3   OH221892   2.198   4.438   4.810
 7320TIP3    H121893   2.188   4.375   4.738
 7320TIP3    H221894   2.289   4.423   4.839
 7321TIP3   OH221895   2.344   4.536   5.352
 7321TIP3    H121896   2.284   4.603   5.389
 7321TIP3    H221897   2.282   4.486   5.295
 7322TIP3   OH221898   2.697   3.869   4.067
 7322TIP3    H121899   2.737   3.947   4.107
 7322TIP3    H221900   2.712   3.889   3.971
 7323TIP3   OH221901   2.101   4.100   5.445
 7323TIP3    H121902   2.104   4.188   5.488
 7323TIP3    H221903   2.007   4.077   5.458
 7324TIP3   OH221904   2.427   4.552   4.345
 7324TIP3    H121905   2.499   4.612   4.370
 7324TIP3    H221906   2.359   4.612   4.311
 7325TIP3   OH221907   2.138   4.713   5.429
 7325TIP3    H121908   2.107   4.711   5.337
 7325TIP3    H221909   2.057   4.690   5.480
 7326TIP3   OH221910   3.195   3.115   4.121
 7326TIP3    H121911   3.114   3.137   4.173
 7326TIP3    H221912   3.210   3.198   4.072
 7327TIP3   OH221913   1.946   3.835   4.417
 7327TIP3    H121914   1.863   3.881   4.394
 7327TIP3    H221915   1.924   3.787   4.498
 7328TIP3   OH221916   2.996   4.481   3.671
 7328TIP3    H121917   3.005   4.578   3.656
 7328TIP3    H221918   3.089   4.452   3.658
 7329TIP3   OH221919   1.721   4.232   5.372
 7329TIP3    H121920   1.702   4.193   5.286
 7329TIP3    H221921   1.763   4.155   5.419
 7330TIP3   OH221922   3.437   4.886   5.064
 7330TIP3    H121923   3.436   4.789   5.080
 7330TIP3    H221924   3.353   4.911   5.110
 7331TIP3   OH221925   2.510   4.698   5.182
 7331TIP3    H121926   2.522   4.779   5.236
 7331TIP3    H221927   2.482   4.632   5.247
 7332TIP3   OH221928   2.305   4.801   4.150
 7332TIP3    H121929   2.256   4.781   4.068
 7332TIP3    H221930   2.271   4.888   4.175
 7333TIP3   OH221931   1.742   4.648   4.536
 7333TIP3    H121932   1.792   4.639   4.621
 7333TIP3    H221933   1.687   4.568   4.540
 7334TIP3   OH221934   2.505   4.701   3.790
 7334TIP3    H121935   2.564   4.631   3.754
 7334TIP3    H221936   2.539   4.710   3.882
 7335TIP3   OH221937   2.556   4.750   4.060
 7335TIP3    H121938   2.467   4.759   4.101
 7335TIP3    H221939   2.606   4.708   4.132
 7336TIP3   OH221940   3.325   4.016   5.339
 7336TIP3    H121941   3.245   4.032   5.286
 7336TIP3    H221942   3.339   3.920   5.326
 7337TIP3   OH221943   1.919   4.426   5.370
 7337TIP3    H121944   1.974   4.406   5.449
 7337TIP3    H221945   1.848   4.360   5.377
 7338TIP3   OH221946   2.324   3.244   5.151
 7338TIP3    H121947   2.234   3.217   5.123
 7338TIP3    H221948   2.302   3.331   5.190
 7339TIP3   OH221949   2.858   3.356   5.344
 7339TIP3    H121950   2.925   3.335   5.412
 7339TIP3    H221951   2.773   3.344   5.391
 7340TIP3   OH221952   3.097   3.791   5.263
 7340TIP3    H121953   3.046   3.789   5.347
 7340TIP3    H221954   3.069   3.876   5.224
 7341TIP3   OH221955   2.755   3.924   3.812
 7341TIP3    H121956   2.722   3.896   3.725
 7341TIP3    H221957   2.840   3.966   3.788
 7342TIP3   OH221958   2.467   3.296   4.119
 7342TIP3    H121959   2.437   3.295   4.212
 7342TIP3    H221960   2.428   3.211   4.089
 7343TIP3   OH221961   2.614   3.719   4.390
 7343TIP3    H121962   2.573   3.804   4.364
 7343TIP3    H221963   2.679   3.704   4.319
 7344TIP3   OH221964   2.809   4.015   5.502
 7344TIP3    H121965   2.784   3.941   5.561
 7344TIP3    H221966   2.904   4.024   5.522
 7345TIP3   OH221967   2.046   3.801   5.387
 7345TIP3    H121968   2.120   3.852   5.423
 7345TIP3    H221969   2.058   3.714   5.428
 7346TIP3   OH221970   2.121   3.267   4.085
 7346TIP3    H121971   2.117   3.266   4.183
 7346TIP3    H221972   2.046   3.325   4.064
 7347TIP3   OH221973   1.674   3.307   4.960
 7347TIP3    H121974   1.741   3.351   5.016
 7347TIP3    H221975   1.719   3.305   4.875
 7348TIP3   OH221976   1.634   3.293   4.474
 7348TIP3    H121977   1.682   3.331   4.398
 7348TIP3    H221978   1.577   3.368   4.498
 7349TIP3   OH221979   2.828   3.997   5.102
 7349TIP3    H121980   2.837   3.940   5.023
 7349TIP3    H221981   2.771   3.943   5.159
 7350TIP3   OH221982   1.872   3.493   4.781
 7350TIP3    H121983   1.797   3.525   4.728
 7350TIP3    H221984   1.926   3.442   4.719
 7351TIP3   OH221985   2.173   3.495   4.424
 7351TIP3    H121986   2.255   3.547   4.432
 7351TIP3    H221987   2.117   3.548   4.364
 7352TIP3   OH221988   2.954   3.547   4.939
 7352TIP3    H121989   2.922   3.565   5.030
 7352TIP3    H221990   2.885   3.489   4.905
 7353TIP3   OH221991   2.001   3.557   4.212
 7353TIP3    H121992   1.934   3.513   4.156
 7353TIP3    H221993   2.060   3.595   4.144
 7354TIP3   OH221994   3.130   5.235   5.165
 7354TIP3    H121995   3.126   5.257   5.070
 7354TIP3    H221996   3.209   5.284   5.194
 7355TIP3   OH221997   2.082   4.346   5.585
 7355TIP3    H121998   2.164   4.376   5.629
 7355TIP3    H221999   2.021   4.346   5.661
 7356TIP3   OH222000   2.063   3.282   4.700
 7356TIP3    H122001   2.036   3.204   4.752
 7356TIP3    H222002   2.117   3.245   4.629
 7357TIP3   OH222003   2.264   4.085   4.220
 7357TIP3    H122004   2.193   4.018   4.208
 7357TIP3    H222005   2.242   4.117   4.312
 7358TIP3   OH222006   2.718   3.398   4.080
 7358TIP3    H122007   2.622   3.382   4.095
 7358TIP3    H222008   2.731   3.490   4.112
 7359TIP3   OH222009   2.794   3.640   4.184
 7359TIP3    H122010   2.890   3.645   4.203
 7359TIP3    H222011   2.776   3.721   4.132
 7360TIP3   OH222012   1.976   4.089   4.895
 7360TIP3    H122013   2.058   4.056   4.852
 7360TIP3    H222014   1.980   4.036   4.976
 7361TIP3   OH222015   2.402   4.231   4.035
 7361TIP3    H122016   2.362   4.319   4.050
 7361TIP3    H222017   2.353   4.177   4.101
 7362TIP3   OH222018   1.833   4.036   5.521
 7362TIP3    H122019   1.861   4.020   5.613
 7362TIP3    H222020   1.776   3.959   5.505
 7363TIP3   OH222021   2.562   4.138   5.537
 7363TIP3    H122022   2.507   4.096   5.469
 7363TIP3    H222023   2.651   4.109   5.507
 7364TIP3   OH222024   2.834   4.698   5.092
 7364TIP3    H122025   2.755   4.644   5.074
 7364TIP3    H222026   2.826   4.717   5.187
 7365TIP3   OH222027   3.228   3.744   4.025
 7365TIP3    H122028   3.168   3.692   3.967
 7365TIP3    H222029   3.223   3.829   3.976
 7366TIP3   OH222030   3.452   4.597   5.106
 7366TIP3    H122031   3.354   4.587   5.096
 7366TIP3    H222032   3.480   4.567   5.017
 7367TIP3   OH222033   2.933   4.557   3.936
 7367TIP3    H122034   2.903   4.488   3.997
 7367TIP3    H222035   2.945   4.509   3.852
 7368TIP3   OH222036   2.053   4.410   4.524
 7368TIP3    H122037   2.056   4.492   4.472
 7368TIP3    H222038   1.959   4.399   4.540
 7369TIP3   OH222039   1.616   3.715   4.227
 7369TIP3    H122040   1.666   3.796   4.250
 7369TIP3    H222041   1.542   3.721   4.292
 7370TIP3   OH222042   2.194   4.175   4.463
 7370TIP3    H122043   2.151   4.257   4.496
 7370TIP3    H222044   2.219   4.129   4.544
 7371TIP3   OH222045   2.324   4.750   4.988
 7371TIP3    H122046   2.375   4.819   4.942
 7371TIP3    H222047   2.396   4.711   5.044
 7372TIP3   OH222048   1.973   4.653   4.376
 7372TIP3    H122049   1.889   4.660   4.424
 7372TIP3    H222050   2.005   4.746   4.381
 7373TIP3   OH222051   2.684   4.287   3.833
 7373TIP3    H122052   2.740   4.255   3.907
 7373TIP3    H222053   2.597   4.259   3.864
 7374TIP3   OH222054   2.965   4.925   5.009
 7374TIP3    H122055   2.899   4.853   5.019
 7374TIP3    H222056   2.930   4.975   4.932
 7375TIP3   OH222057   3.027   4.758   3.656
 7375TIP3    H122058   3.067   4.832   3.607
 7375TIP3    H222059   2.947   4.802   3.689
 7376TIP3   OH222060   2.049   3.531   5.523
 7376TIP3    H122061   1.953   3.542   5.535
 7376TIP3    H222062   2.072   3.473   5.598
 7377TIP3   OH222063   2.852   4.199   4.035
 7377TIP3    H122064   2.835   4.197   4.129
 7377TIP3    H222065   2.950   4.205   4.031
 7378TIP3   OH222066   1.765   4.629   5.152
 7378TIP3    H122067   1.809   4.545   5.170
 7378TIP3    H222068   1.804   4.686   5.219
 7379TIP3   OH222069   2.052   4.263   3.836
 7379TIP3    H122070   2.067   4.171   3.809
 7379TIP3    H222071   2.034   4.252   3.932
 7380TIP3   OH222072   1.997   4.269   4.108
 7380TIP3    H122073   2.066   4.236   4.167
 7380TIP3    H222074   2.004   4.366   4.119
 7381TIP3   OH222075   1.722   3.960   4.310
 7381TIP3    H122076   1.660   4.008   4.369
 7381TIP3    H222077   1.745   4.030   4.247
 7382TIP3   OH222078   2.887   3.593   5.200
 7382TIP3    H122079   2.964   3.638   5.239
 7382TIP3    H222080   2.876   3.515   5.258
 7383TIP3   OH222081   2.764   3.336   4.363
 7383TIP3    H122082   2.748   3.369   4.273
 7383TIP3    H222083   2.809   3.414   4.404
 7384TIP3   OH222084   2.266   4.467   4.056
 7384TIP3    H122085   2.179   4.491   4.093
 7384TIP3    H222086   2.281   4.542   3.997
 7385TIP3   OH222087   2.455   3.524   4.480
 7385TIP3    H122088   2.517   3.590   4.440
 7385TIP3    H222089   2.454   3.555   4.570
 7386TIP3   OH222090   2.717   3.845   5.297
 7386TIP3    H122091   2.750   3.906   5.365
 7386TIP3    H222092   2.777   3.770   5.302
 7387TIP3   OH222093   2.603   3.253   4.576
 7387TIP3    H122094   2.629   3.315   4.646
 7387TIP3    H222095   2.655   3.289   4.500
 7388TIP3   OH222096   2.009   4.542   4.125
 7388TIP3    H122097   1.979   4.612   4.063
 7388TIP3    H222098   1.993   4.584   4.212
 7389TIP3   OH222099   2.112   3.241   4.360
 7389TIP3    H122100   2.111   3.335   4.390
 7389TIP3    H222101   2.208   3.225   4.369
 7390TIP3   OH222102   3.362   3.744   5.261
 7390TIP3    H122103   3.264   3.746   5.268
 7390TIP3    H222104   3.371   3.717   5.168
 7391TIP3   OH222105   1.727   4.173   4.115
 7391TIP3    H122106   1.800   4.237   4.124
 7391TIP3    H222107   1.771   4.112   4.050
 7392TIP3   OH222108   1.667   3.443   4.247
 7392TIP3    H122109   1.677   3.541   4.246
 7392TIP3    H222110   1.580   3.431   4.210
 7393TIP3   OH222111   2.979   4.901   4.594
 7393TIP3    H122112   2.938   4.949   4.520
 7393TIP3    H222113   3.074   4.918   4.575
 7394TIP3   OH222114   2.059   3.168   5.123
 7394TIP3    H122115   2.027   3.139   5.035
 7394TIP3    H222116   2.044   3.088   5.177
 7395TIP3   OH222117   1.592   4.390   4.509
 7395TIP3    H122118   1.509   4.423   4.545
 7395TIP3    H222119   1.584   4.424   4.417
 7396TIP3   OH222120   1.755   4.930   5.576
 7396TIP3    H122121   1.842   4.929   5.622
 7396TIP3    H222122   1.736   4.834   5.573
 7397TIP3   OH222123   2.235   4.890   5.621
 7397TIP3    H122124   2.329   4.870   5.626
 7397TIP3    H222125   2.209   4.832   5.546
 7398TIP3   OH222126   2.215   4.466   3.747
 7398TIP3    H122127   2.159   4.396   3.788
 7398TIP3    H222128   2.291   4.413   3.719
 7399TIP3   OH222129   2.862   4.805   5.361
 7399TIP3    H122130   2.859   4.729   5.423
 7399TIP3    H222131   2.946   4.848   5.384
 7400TIP3   OH222132   2.652   4.508   3.660
 7400TIP3    H122133   2.691   4.440   3.720
 7400TIP3    H222134   2.712   4.505   3.583
 7401TIP3   OH222135   1.884   4.334   5.779
 7401TIP3    H122136   1.902   4.238   5.782
 7401TIP3    H222137   1.798   4.337   5.733
 7402TIP3   OH222138   1.863   3.982   3.973
 7402TIP3    H122139   1.919   3.950   4.046
 7402TIP3    H222140   1.931   3.987   3.902
 7403TIP3   OH222141   2.491   4.418   5.554
 7403TIP3    H122142   2.456   4.441   5.465
 7403TIP3    H222143   2.527   4.329   5.539
 7404TIP3   OH222144   2.370   4.181   3.771
 7404TIP3    H122145   2.372   4.196   3.868
 7404TIP3    H222146   2.371   4.083   3.769
 7405TIP3   OH222147   2.980   4.413   5.160
 7405TIP3    H122148   3.016   4.493   5.118
 7405TIP3    H222149   2.898   4.397   5.109
 7406TIP3   OH222150   2.002   4.070   5.759
 7406TIP3    H122151   2.079   4.021   5.728
 7406TIP3    H222152   2.030   4.100   5.847
 7407TIP3   OH222153   2.066   3.894   4.182
 7407TIP3    H122154   2.033   3.867   4.271
 7407TIP3    H222155   2.100   3.809   4.148
 7408TIP3   OH222156   2.328   3.941   5.416
 7408TIP3    H122157   2.259   4.012   5.419
 7408TIP3    H222158   2.387   3.975   5.345
 7409TIP3   OH222159   2.170   3.677   4.032
 7409TIP3    H122160   2.144   3.685   3.938
 7409TIP3    H222161   2.267   3.687   4.025
 7410TIP3   OH222162   2.865   4.358   5.566
 7410TIP3    H122163   2.919   4.324   5.495
 7410TIP3    H222164   2.856   4.282   5.626
 7411TIP3   OH222165   2.991   4.013   3.696
 7411TIP3    H122166   2.972   3.966   3.613
 7411TIP3    H222167   2.959   4.103   3.671
 7412TIP3   OH222168   2.463   3.741   5.545
 7412TIP3    H122169   2.467   3.666   5.483
 7412TIP3    H222170   2.421   3.810   5.488
 7413TIP3   OH222171   2.466   3.530   5.343
 7413TIP3    H122172   2.483   3.586   5.265
 7413TIP3    H222173   2.372   3.507   5.329
 7414TIP3   OH222174   2.494   4.066   5.244
 7414TIP3    H122175   2.574   4.076   5.190
 7414TIP3    H222176   2.430   4.124   5.197
 7415TIP3   OH222177   3.076   4.029   5.608
 7415TIP3    H122178   3.128   3.948   5.609
 7415TIP3    H222179   3.137   4.092   5.567
 7416TIP3   OH222180   3.117   4.285   5.353
 7416TIP3    H122181   3.057   4.336   5.292
 7416TIP3    H222182   3.203   4.302   5.309
 7417TIP3   OH222183   2.344   3.849   5.780
 7417TIP3    H122184   2.272   3.783   5.790
 7417TIP3    H222185   2.374   3.830   5.689
 7418TIP3   OH222186   2.594   3.295   5.423
 7418TIP3    H122187   2.550   3.378   5.393
 7418TIP3    H222188   2.524   3.229   5.407
 7419TIP3   OH222189   2.725   3.792   5.637
 7419TIP3    H122190   2.705   3.782   5.731
 7419TIP3    H222191   2.636   3.772   5.599
 7420TIP3   OH222192   2.962   3.742   5.492
 7420TIP3    H122193   2.884   3.747   5.552
 7420TIP3    H222194   3.034   3.714   5.551
 7421TIP3   OH222195   3.194   3.686   5.645
 7421TIP3    H122196   3.204   3.590   5.663
 7421TIP3    H222197   3.188   3.725   5.735
 7422TIP3   OH222198   2.176   3.631   5.831
 7422TIP3    H122199   2.187   3.542   5.793
 7422TIP3    H222200   2.212   3.618   5.921
 7423TIP3   OH222201   2.687   3.296   5.681
 7423TIP3    H122202   2.756   3.228   5.670
 7423TIP3    H222203   2.648   3.296   5.591
 7424TIP3   OH222204   2.754   3.512   5.841
 7424TIP3    H122205   2.731   3.444   5.774
 7424TIP3    H222206   2.679   3.575   5.832
 7425TIP3   OH222207   1.979   4.746   3.937
 7425TIP3    H122208   2.074   4.738   3.918
 7425TIP3    H222209   1.950   4.795   3.858
 7426TIP3   OH222210   1.459   4.126   4.154
 7426TIP3    H122211   1.554   4.148   4.139
 7426TIP3    H222212   1.453   4.037   4.113
 7427TIP3   OH222213   1.373   4.740   4.563
 7427TIP3    H122214   1.306   4.678   4.528
 7427TIP3    H222215   1.415   4.685   4.633
 7428TIP3   OH222216   1.506   4.596   4.754
 7428TIP3    H122217   1.539   4.515   4.793
 7428TIP3    H222218   1.554   4.662   4.809
 7429TIP3   OH222219   3.237   4.985   4.555
 7429TIP3    H122220   3.259   5.017   4.644
 7429TIP3    H222221   3.299   5.034   4.499
 7430TIP3   OH222222   3.270   5.010   4.834
 7430TIP3    H122223   3.219   4.926   4.835
 7430TIP3    H222224   3.340   4.985   4.896
 7431TIP3   OH222225   3.313   4.686   5.408
 7431TIP3    H122226   3.240   4.693   5.472
 7431TIP3    H222227   3.353   4.775   5.414
 7432TIP3   OH222228   3.134   4.199   4.044
 7432TIP3    H122229   3.194   4.263   3.999
 7432TIP3    H222230   3.181   4.185   4.126
 7433TIP3   OH222231   3.341   4.445   4.657
 7433TIP3    H122232   3.324   4.396   4.577
 7433TIP3    H222233   3.287   4.524   4.642
 7434TIP3   OH222234   3.142   4.767   4.865
 7434TIP3    H122235   3.071   4.809   4.919
 7434TIP3    H222236   3.088   4.720   4.797
 7435TIP3   OH222237   3.189   3.977   3.882
 7435TIP3    H122238   3.119   3.978   3.813
 7435TIP3    H222239   3.163   4.054   3.934
 7436TIP3   OH222240   3.060   3.648   3.833
 7436TIP3    H122241   3.021   3.682   3.752
 7436TIP3    H222242   3.039   3.553   3.826
 7437TIP3   OH222243   1.697   4.000   5.138
 7437TIP3    H122244   1.689   3.972   5.045
 7437TIP3    H222245   1.795   3.999   5.148
 7438TIP3   OH222246   3.359   4.348   5.237
 7438TIP3    H122247   3.429   4.281   5.226
 7438TIP3    H222248   3.383   4.415   5.172
 7439TIP3   OH222249   3.542   4.151   5.249
 7439TIP3    H122250   3.466   4.102   5.288
 7439TIP3    H222251   3.614   4.086   5.265
 7440TIP3   OH222252   3.008   3.382   3.816
 7440TIP3    H122253   3.085   3.352   3.870
 7440TIP3    H222254   2.937   3.322   3.844
 7441TIP3   OH222255   3.064   3.641   4.262
 7441TIP3    H122256   3.101   3.552   4.281
 7441TIP3    H222257   3.130   3.674   4.198
 7442TIP3   OH222258   3.302   3.951   5.021
 7442TIP3    H122259   3.214   3.969   5.059
 7442TIP3    H222260   3.322   4.039   4.984
 7443TIP3   OH222261   1.908   3.678   5.792
 7443TIP3    H122262   2.006   3.675   5.798
 7443TIP3    H222263   1.886   3.595   5.839
 7444TIP3   OH222264   3.747   3.549   5.557
 7444TIP3    H122265   3.806   3.484   5.511
 7444TIP3    H222266   3.717   3.604   5.481
 7445TIP3   OH222267   3.173   3.392   4.311
 7445TIP3    H122268   3.224   3.374   4.393
 7445TIP3    H222269   3.112   3.316   4.310
 7446TIP3   OH222270   1.874   3.380   5.142
 7446TIP3    H122271   1.940   3.307   5.141
 7446TIP3    H222272   1.932   3.457   5.128
 7447TIP3   OH222273   1.673   3.649   5.204
 7447TIP3    H122274   1.724   3.642   5.120
 7447TIP3    H222275   1.713   3.727   5.243
 7448TIP3   OH222276   3.616   3.687   5.364
 7448TIP3    H122277   3.529   3.729   5.380
 7448TIP3    H222278   3.587   3.616   5.303
 7449TIP3   OH222279   3.251   3.324   3.941
 7449TIP3    H122280   3.297   3.254   3.892
 7449TIP3    H222281   3.319   3.395   3.943
 7450TIP3   OH222282   1.656   3.136   4.694
 7450TIP3    H122283   1.568   3.148   4.731
 7450TIP3    H222284   1.658   3.205   4.624
 7451TIP3   OH222285   2.818   4.856   4.210
 7451TIP3    H122286   2.872   4.845   4.129
 7451TIP3    H222287   2.870   4.922   4.259
 7452TIP3   OH222288   1.878   3.222   5.517
 7452TIP3    H122289   1.830   3.230   5.601
 7452TIP3    H222290   1.816   3.268   5.456
 7453TIP3   OH222291   1.918   4.663   5.595
 7453TIP3    H122292   1.827   4.633   5.578
 7453TIP3    H222293   1.930   4.641   5.688
 7454TIP3   OH222294   2.100   4.697   5.145
 7454TIP3    H122295   2.055   4.774   5.103
 7454TIP3    H222296   2.187   4.706   5.101
 7455TIP3   OH222297   2.540   4.954   5.293
 7455TIP3    H122298   2.589   4.946   5.377
 7455TIP3    H222299   2.609   4.991   5.234
 7456TIP3   OH222300   2.721   5.089   5.135
 7456TIP3    H122301   2.789   5.030   5.099
 7456TIP3    H222302   2.775   5.144   5.196
 7457TIP3   OH222303   3.515   3.452   5.241
 7457TIP3    H122304   3.427   3.453   5.201
 7457TIP3    H222305   3.543   3.359   5.226
 7458TIP3   OH222306   1.775   4.956   5.163
 7458TIP3    H122307   1.684   4.987   5.144
 7458TIP3    H222308   1.785   4.987   5.254
 7459TIP3   OH222309   2.011   4.931   5.025
 7459TIP3    H122310   1.924   4.942   5.070
 7459TIP3    H222311   1.991   4.961   4.935
 7460TIP3   OH222312   2.439   4.958   4.817
 7460TIP3    H122313   2.364   4.980   4.759
 7460TIP3    H222314   2.453   5.042   4.865
 7461TIP3   OH222315   2.717   4.909   4.852
 7461TIP3    H122316   2.620   4.901   4.852
 7461TIP3    H222317   2.731   5.001   4.827
 7462TIP3   OH222318   2.928   5.099   4.788
 7462TIP3    H122319   2.907   5.179   4.735
 7462TIP3    H222320   2.939   5.030   4.720
 7463TIP3   OH222321   1.685   4.741   4.912
 7463TIP3    H122322   1.709   4.713   5.003
 7463TIP3    H222323   1.760   4.699   4.864
 7464TIP3   OH222324   1.881   4.612   4.769
 7464TIP3    H122325   1.897   4.528   4.818
 7464TIP3    H222326   1.972   4.649   4.768
 7465TIP3   OH222327   2.147   4.712   4.774
 7465TIP3    H122328   2.173   4.618   4.764
 7465TIP3    H222329   2.197   4.732   4.856
 7466TIP3   OH222330   2.719   3.356   4.838
 7466TIP3    H122331   2.680   3.295   4.903
 7466TIP3    H222332   2.803   3.312   4.814
 7467TIP3   OH222333   3.244   3.239   4.762
 7467TIP3    H122334   3.284   3.296   4.692
 7467TIP3    H222335   3.153   3.272   4.765
 7468TIP3   OH222336   3.340   3.349   4.529
 7468TIP3    H122337   3.411   3.294   4.489
 7468TIP3    H222338   3.378   3.438   4.511
 7469TIP3   OH222339   1.972   3.073   4.876
 7469TIP3    H122340   1.879   3.043   4.876
 7469TIP3    H222341   2.019   2.987   4.871
 7470TIP3   OH222342   1.758   2.942   4.522
 7470TIP3    H122343   1.789   3.002   4.452
 7470TIP3    H222344   1.727   3.006   4.589
 7471TIP3   OH222345   2.421   3.100   4.756
 7471TIP3    H122346   2.475   3.151   4.694
 7471TIP3    H222347   2.428   3.152   4.836
 7472TIP3   OH222348   2.958   3.250   4.739
 7472TIP3    H122349   2.958   3.218   4.649
 7472TIP3    H222350   2.945   3.167   4.791
 7473TIP3   OH222351   2.991   3.178   4.302
 7473TIP3    H122352   2.905   3.223   4.316
 7473TIP3    H222353   2.973   3.092   4.346
 7474TIP3   OH222354   1.473   4.516   4.301
 7474TIP3    H122355   1.387   4.484   4.268
 7474TIP3    H222356   1.463   4.611   4.281
 7475TIP3   OH222357   1.875   3.102   4.287
 7475TIP3    H122358   1.926   3.043   4.229
 7475TIP3    H222359   1.946   3.158   4.324
 7476TIP3   OH222360   2.391   3.273   4.385
 7476TIP3    H122361   2.456   3.239   4.450
 7476TIP3    H222362   2.394   3.368   4.410
 7477TIP3   OH222363   2.245   4.701   3.884
 7477TIP3    H122364   2.334   4.724   3.848
 7477TIP3    H222365   2.224   4.625   3.825
 7478TIP3   OH222366   2.966   4.823   3.978
 7478TIP3    H122367   2.958   4.726   3.966
 7478TIP3    H222368   2.921   4.856   3.898
 7479TIP3   OH222369   2.177   3.348   5.762
 7479TIP3    H122370   2.143   3.281   5.824
 7479TIP3    H222371   2.271   3.353   5.790
 7480TIP3   OH222372   2.425   3.352   5.885
 7480TIP3    H122373   2.511   3.333   5.843
 7480TIP3    H222374   2.418   3.278   5.948
 7481TIP3   OH222375   1.550   4.540   3.941
 7481TIP3    H122376   1.550   4.563   4.035
 7481TIP3    H222377   1.638   4.498   3.929
 7482TIP3   OH222378   3.253   3.413   5.673
 7482TIP3    H122379   3.273   3.384   5.764
 7482TIP3    H222380   3.341   3.411   5.631
 7483TIP3   OH222381   3.191   4.966   5.165
 7483TIP3    H122382   3.112   4.934   5.117
 7483TIP3    H222383   3.170   5.061   5.171
 7484TIP3   OH222384   3.732   4.653   4.400
 7484TIP3    H122385   3.728   4.561   4.428
 7484TIP3    H222386   3.828   4.665   4.389
 7485TIP3   OH222387   3.425   3.827   4.209
 7485TIP3    H122388   3.422   3.923   4.223
 7485TIP3    H222389   3.353   3.809   4.147
 7486TIP3   OH222390   4.352   5.103   4.012
 7486TIP3    H122391   4.396   5.031   3.962
 7486TIP3    H222392   4.345   5.064   4.100
 7487TIP3   OH222393   4.669   4.071   4.399
 7487TIP3    H122394   4.700   3.980   4.407
 7487TIP3    H222395   4.642   4.071   4.304
 7488TIP3   OH222396   3.998   3.708   4.355
 7488TIP3    H122397   3.975   3.770   4.285
 7488TIP3    H222398   3.942   3.634   4.325
 7489TIP3   OH222399   4.699   3.804   3.975
 7489TIP3    H122400   4.770   3.794   4.042
 7489TIP3    H222401   4.744   3.859   3.909
 7490TIP3   OH222402   5.359   4.086   4.543
 7490TIP3    H122403   5.279   4.126   4.505
 7490TIP3    H222404   5.351   4.113   4.635
 7491TIP3   OH222405   4.003   3.705   4.801
 7491TIP3    H122406   3.950   3.740   4.726
 7491TIP3    H222407   3.946   3.732   4.875
 7492TIP3   OH222408   4.373   4.590   3.753
 7492TIP3    H122409   4.322   4.509   3.739
 7492TIP3    H222410   4.305   4.651   3.787
 7493TIP3   OH222411   4.119   4.490   4.607
 7493TIP3    H122412   4.040   4.537   4.642
 7493TIP3    H222413   4.149   4.552   4.540
 7494TIP3   OH222414   4.906   3.802   4.151
 7494TIP3    H122415   4.874   3.763   4.234
 7494TIP3    H222416   4.980   3.857   4.180
 7495TIP3   OH222417   3.878   3.809   4.585
 7495TIP3    H122418   3.920   3.897   4.587
 7495TIP3    H222419   3.909   3.776   4.498
 7496TIP3   OH222420   3.932   4.679   4.681
 7496TIP3    H122421   3.909   4.769   4.649
 7496TIP3    H222422   3.856   4.664   4.741
 7497TIP3   OH222423   3.321   4.370   3.925
 7497TIP3    H122424   3.291   4.390   3.834
 7497TIP3    H222425   3.356   4.456   3.955
 7498TIP3   OH222426   4.777   4.897   4.173
 7498TIP3    H122427   4.685   4.887   4.206
 7498TIP3    H222428   4.769   4.979   4.121
 7499TIP3   OH222429   5.054   3.787   4.523
 7499TIP3    H122430   4.959   3.804   4.508
 7499TIP3    H222431   5.091   3.815   4.439
 7500TIP3   OH222432   4.361   3.427   4.514
 7500TIP3    H122433   4.340   3.333   4.522
 7500TIP3    H222434   4.282   3.467   4.554
 7501TIP3   OH222435   4.470   4.931   3.831
 7501TIP3    H122436   4.518   4.852   3.799
 7501TIP3    H222437   4.528   5.001   3.793
 7502TIP3   OH222438   4.609   4.726   3.716
 7502TIP3    H122439   4.535   4.665   3.696
 7502TIP3    H222440   4.653   4.680   3.787
 7503TIP3   OH222441   4.994   4.795   4.494
 7503TIP3    H122442   4.978   4.732   4.422
 7503TIP3    H222443   4.981   4.880   4.448
 7504TIP3   OH222444   4.307   4.233   3.746
 7504TIP3    H122445   4.210   4.238   3.741
 7504TIP3    H222446   4.330   4.186   3.665
 7505TIP3   OH222447   4.245   3.978   3.473
 7505TIP3    H122448   4.315   4.020   3.527
 7505TIP3    H222449   4.300   3.912   3.425
 7506TIP3   OH222450   4.607   4.274   3.751
 7506TIP3    H122451   4.520   4.284   3.795
 7506TIP3    H222452   4.642   4.199   3.801
 7507TIP3   OH222453   4.866   4.311   4.654
 7507TIP3    H122454   4.855   4.396   4.700
 7507TIP3    H222455   4.778   4.305   4.609
 7508TIP3   OH222456   3.989   4.683   4.295
 7508TIP3    H122457   3.965   4.645   4.209
 7508TIP3    H222458   4.078   4.649   4.309
 7509TIP3   OH222459   4.534   4.922   4.296
 7509TIP3    H122460   4.522   5.014   4.327
 7509TIP3    H222461   4.537   4.875   4.380
 7510TIP3   OH222462   4.141   4.800   4.826
 7510TIP3    H122463   4.080   4.860   4.874
 7510TIP3    H222464   4.077   4.744   4.779
 7511TIP3   OH222465   4.481   4.121   3.554
 7511TIP3    H122466   4.526   4.189   3.608
 7511TIP3    H222467   4.506   4.149   3.462
 7512TIP3   OH222468   3.896   4.352   4.936
 7512TIP3    H122469   3.899   4.440   4.978
 7512TIP3    H222470   3.801   4.332   4.940
 7513TIP3   OH222471   4.216   4.813   3.844
 7513TIP3    H122472   4.298   4.866   3.850
 7513TIP3    H222473   4.157   4.871   3.794
 7514TIP3   OH222474   3.935   4.966   4.917
 7514TIP3    H122475   3.900   4.965   4.826
 7514TIP3    H222476   3.855   4.945   4.970
 7515TIP3   OH222477   4.990   3.371   3.608
 7515TIP3    H122478   4.910   3.392   3.660
 7515TIP3    H222479   5.004   3.454   3.559
 7516TIP3   OH222480   4.791   4.738   3.157
 7516TIP3    H122481   4.800   4.835   3.143
 7516TIP3    H222482   4.884   4.709   3.145
 7517TIP3   OH222483   3.521   4.498   4.862
 7517TIP3    H122484   3.454   4.474   4.794
 7517TIP3    H222485   3.550   4.410   4.895
 7518TIP3   OH222486   3.371   4.703   4.479
 7518TIP3    H122487   3.467   4.703   4.492
 7518TIP3    H222488   3.345   4.773   4.541
 7519TIP3   OH222489   4.336   4.931   4.683
 7519TIP3    H122490   4.335   5.022   4.718
 7519TIP3    H222491   4.267   4.888   4.738
 7520TIP3   OH222492   4.101   5.055   3.638
 7520TIP3    H122493   4.054   5.035   3.555
 7520TIP3    H222494   4.068   5.144   3.661
 7521TIP3   OH222495   3.538   4.905   4.021
 7521TIP3    H122496   3.585   4.897   4.106
 7521TIP3    H222497   3.483   4.825   4.022
 7522TIP3   OH222498   4.301   4.957   3.277
 7522TIP3    H122499   4.360   4.887   3.241
 7522TIP3    H222500   4.336   4.966   3.368
 7523TIP3   OH222501   4.352   5.007   3.546
 7523TIP3    H122502   4.264   5.015   3.589
 7523TIP3    H222503   4.403   4.963   3.616
 7524TIP3   OH222504   5.126   4.274   4.842
 7524TIP3    H122505   5.054   4.291   4.779
 7524TIP3    H222506   5.142   4.179   4.826
 7525TIP3   OH222507   3.721   4.683   4.850
 7525TIP3    H122508   3.771   4.666   4.933
 7525TIP3    H222509   3.647   4.618   4.859
 7526TIP3   OH222510   4.119   3.500   4.637
 7526TIP3    H122511   4.028   3.474   4.611
 7526TIP3    H222512   4.099   3.587   4.675
 7527TIP3   OH222513   4.654   3.620   4.831
 7527TIP3    H122514   4.721   3.590   4.895
 7527TIP3    H222515   4.569   3.598   4.875
 7528TIP3   OH222516   4.897   4.049   4.752
 7528TIP3    H122517   4.845   4.045   4.835
 7528TIP3    H222518   4.865   4.132   4.712
 7529TIP3   OH222519   4.552   4.180   3.300
 7529TIP3    H122520   4.519   4.153   3.213
 7529TIP3    H222521   4.636   4.224   3.276
 7530TIP3   OH222522   4.263   3.553   3.611
 7530TIP3    H122523   4.229   3.560   3.702
 7530TIP3    H222524   4.223   3.468   3.583
 7531TIP3   OH222525   4.047   4.040   4.638
 7531TIP3    H122526   3.993   4.044   4.720
 7531TIP3    H222527   4.006   4.108   4.582
 7532TIP3   OH222528   4.471   4.036   3.887
 7532TIP3    H122529   4.380   4.069   3.889
 7532TIP3    H222530   4.464   3.960   3.828
 7533TIP3   OH222531   4.600   4.270   4.986
 7533TIP3    H122532   4.577   4.195   5.045
 7533TIP3    H222533   4.695   4.278   5.004
 7534TIP3   OH222534   4.592   4.011   4.144
 7534TIP3    H122535   4.537   4.066   4.086
 7534TIP3    H222536   4.606   3.934   4.087
 7535TIP3   OH222537   3.883   4.034   4.860
 7535TIP3    H122538   3.892   4.108   4.921
 7535TIP3    H222539   3.868   3.958   4.920
 7536TIP3   OH222540   3.916   3.524   3.573
 7536TIP3    H122541   3.914   3.526   3.671
 7536TIP3    H222542   3.841   3.581   3.552
 7537TIP3   OH222543   3.469   3.567   4.436
 7537TIP3    H122544   3.535   3.610   4.495
 7537TIP3    H222545   3.519   3.561   4.354
 7538TIP3   OH222546   3.430   3.549   3.962
 7538TIP3    H122547   3.477   3.585   3.883
 7538TIP3    H222548   3.380   3.628   3.988
 7539TIP3   OH222549   4.607   4.272   4.569
 7539TIP3    H122550   4.626   4.208   4.496
 7539TIP3    H222551   4.569   4.210   4.635
 7540TIP3   OH222552   4.274   3.674   4.249
 7540TIP3    H122553   4.180   3.697   4.260
 7540TIP3    H222554   4.318   3.737   4.307
 7541TIP3   OH222555   3.696   3.757   4.283
 7541TIP3    H122556   3.613   3.790   4.244
 7541TIP3    H222557   3.732   3.698   4.215
 7542TIP3   OH222558   4.762   3.797   4.438
 7542TIP3    H122559   4.721   3.819   4.525
 7542TIP3    H222560   4.693   3.737   4.403
 7543TIP3   OH222561   3.778   3.814   3.692
 7543TIP3    H122562   3.728   3.768   3.623
 7543TIP3    H222563   3.854   3.849   3.643
 7544TIP3   OH222564   4.923   5.497   4.650
 7544TIP3    H122565   4.926   5.518   4.555
 7544TIP3    H222566   5.007   5.538   4.681
 7545TIP3   OH222567   3.880   4.605   5.071
 7545TIP3    H122568   3.960   4.633   5.119
 7545TIP3    H222569   3.815   4.602   5.145
 7546TIP3   OH222570   3.858   3.539   4.195
 7546TIP3    H122571   3.846   3.449   4.230
 7546TIP3    H222572   3.928   3.532   4.129
 7547TIP3   OH222573   4.311   3.940   4.643
 7547TIP3    H122574   4.226   3.988   4.633
 7547TIP3    H222575   4.374   4.010   4.666
 7548TIP3   OH222576   4.043   4.351   3.701
 7548TIP3    H122577   3.981   4.275   3.702
 7548TIP3    H222578   4.039   4.383   3.794
 7549TIP3   OH222579   4.512   3.652   3.560
 7549TIP3    H122580   4.417   3.636   3.581
 7549TIP3    H222581   4.528   3.744   3.593
 7550TIP3   OH222582   4.451   4.659   4.709
 7550TIP3    H122583   4.478   4.637   4.798
 7550TIP3    H222584   4.417   4.749   4.716
 7551TIP3   OH222585   4.588   3.889   3.664
 7551TIP3    H122586   4.681   3.901   3.689
 7551TIP3    H222587   4.565   3.976   3.624
 7552TIP3   OH222588   4.194   4.488   3.517
 7552TIP3    H122589   4.157   4.576   3.537
 7552TIP3    H222590   4.146   4.432   3.583
 7553TIP3   OH222591   3.627   4.285   5.002
 7553TIP3    H122592   3.657   4.277   5.095
 7553TIP3    H222593   3.554   4.221   5.001
 7554TIP3   OH222594   4.356   4.400   5.022
 7554TIP3    H122595   4.294   4.342   4.974
 7554TIP3    H222596   4.442   4.364   4.991
 7555TIP3   OH222597   4.607   4.928   4.594
 7555TIP3    H122598   4.514   4.922   4.620
 7555TIP3    H222599   4.645   4.972   4.674
 7556TIP3   OH222600   5.028   3.997   3.510
 7556TIP3    H122601   4.966   3.948   3.451
 7556TIP3    H222602   5.023   4.084   3.465
 7557TIP3   OH222603   5.252   4.825   4.605
 7557TIP3    H122604   5.159   4.853   4.603
 7557TIP3    H222605   5.271   4.820   4.509
 7558TIP3   OH222606   4.730   4.812   3.423
 7558TIP3    H122607   4.699   4.744   3.484
 7558TIP3    H222608   4.741   4.764   3.339
 7559TIP3   OH222609   3.856   4.679   4.020
 7559TIP3    H122610   3.861   4.757   3.961
 7559TIP3    H222611   3.760   4.663   4.019
 7560TIP3   OH222612   3.406   3.965   3.710
 7560TIP3    H122613   3.459   4.046   3.729
 7560TIP3    H222614   3.336   3.973   3.778
 7561TIP3   OH222615   4.025   4.464   3.948
 7561TIP3    H122616   3.974   4.542   3.976
 7561TIP3    H222617   4.066   4.433   4.029
 7562TIP3   OH222618   4.123   5.010   4.479
 7562TIP3    H122619   4.164   5.083   4.430
 7562TIP3    H222620   4.199   4.979   4.532
 7563TIP3   OH222621   3.771   4.910   3.864
 7563TIP3    H122622   3.684   4.917   3.910
 7563TIP3    H222623   3.801   5.003   3.867
 7564TIP3   OH222624   4.482   4.543   3.323
 7564TIP3    H122625   4.537   4.516   3.401
 7564TIP3    H222626   4.395   4.513   3.354
 7565TIP3   OH222627   4.759   5.179   4.487
 7565TIP3    H122628   4.678   5.124   4.485
 7565TIP3    H222629   4.740   5.243   4.415
 7566TIP3   OH222630   4.824   5.014   3.143
 7566TIP3    H122631   4.864   5.088   3.093
 7566TIP3    H222632   4.743   5.059   3.175
 7567TIP3   OH222633   3.841   3.793   5.015
 7567TIP3    H122634   3.744   3.794   5.020
 7567TIP3    H222635   3.865   3.728   5.083
 7568TIP3   OH222636   4.645   4.467   3.534
 7568TIP3    H122637   4.631   4.409   3.610
 7568TIP3    H222638   4.742   4.466   3.525
 7569TIP3   OH222639   3.564   4.872   4.640
 7569TIP3    H122640   3.616   4.803   4.684
 7569TIP3    H222641   3.581   4.948   4.697
 7570TIP3   OH222642   3.847   4.520   3.324
 7570TIP3    H122643   3.864   4.428   3.296
 7570TIP3    H222644   3.828   4.507   3.419
 7571TIP3   OH222645   3.794   4.524   3.598
 7571TIP3    H122646   3.873   4.491   3.643
 7571TIP3    H222647   3.803   4.622   3.608
 7572TIP3   OH222648   3.508   4.208   3.775
 7572TIP3    H122649   3.460   4.254   3.846
 7572TIP3    H222650   3.544   4.282   3.724
 7573TIP3   OH222651   4.679   3.860   4.696
 7573TIP3    H122652   4.763   3.891   4.734
 7573TIP3    H222653   4.664   3.776   4.744
 7574TIP3   OH222654   4.565   3.600   3.851
 7574TIP3    H122655   4.548   3.631   3.761
 7574TIP3    H222656   4.607   3.679   3.892
 7575TIP3   OH222657   4.063   4.726   3.548
 7575TIP3    H122658   3.975   4.751   3.581
 7575TIP3    H222659   4.078   4.794   3.481
 7576TIP3   OH222660   4.518   4.103   4.762
 7576TIP3    H122661   4.542   4.151   4.843
 7576TIP3    H222662   4.571   4.021   4.768
 7577TIP3   OH222663   4.387   3.513   4.057
 7577TIP3    H122664   4.362   3.586   4.119
 7577TIP3    H222665   4.452   3.557   3.998
 7578TIP3   OH222666   3.806   4.799   3.612
 7578TIP3    H122667   3.775   4.869   3.549
 7578TIP3    H222668   3.789   4.842   3.698
 7579TIP3   OH222669   3.904   3.519   3.848
 7579TIP3    H122670   3.891   3.608   3.886
 7579TIP3    H222671   4.000   3.509   3.861
 7580TIP3   OH222672   5.162   4.006   4.749
 7580TIP3    H122673   5.064   4.007   4.757
 7580TIP3    H222674   5.170   3.965   4.662
 7581TIP3   OH222675   3.524   4.435   3.597
 7581TIP3    H122676   3.599   4.496   3.608
 7581TIP3    H222677   3.565   4.372   3.534
 7582TIP3   OH222678   3.461   3.693   3.732
 7582TIP3    H122679   3.480   3.789   3.731
 7582TIP3    H222680   3.372   3.690   3.697
 7583TIP3   OH222681   4.777   5.159   4.081
 7583TIP3    H122682   4.736   5.206   4.005
 7583TIP3    H222683   4.872   5.179   4.062
 7584TIP3   OH222684   3.853   3.425   4.612
 7584TIP3    H122685   3.822   3.396   4.523
 7584TIP3    H222686   3.840   3.345   4.665
 7585TIP3   OH222687   3.395   4.642   3.991
 7585TIP3    H122688   3.327   4.672   4.053
 7585TIP3    H222689   3.363   4.683   3.907
 7586TIP3   OH222690   3.551   5.186   5.061
 7586TIP3    H122691   3.637   5.185   5.109
 7586TIP3    H222692   3.529   5.091   5.061
 7587TIP3   OH222693   4.032   5.147   5.106
 7587TIP3    H122694   4.126   5.126   5.114
 7587TIP3    H222695   4.005   5.087   5.034
 7588TIP3   OH222696   4.012   4.722   3.236
 7588TIP3    H122697   3.956   4.651   3.275
 7588TIP3    H222698   4.088   4.670   3.205
 7589TIP3   OH222699   4.670   5.052   4.837
 7589TIP3    H122700   4.662   4.983   4.906
 7589TIP3    H222701   4.747   5.103   4.868
 7590TIP3   OH222702   4.448   4.764   3.148
 7590TIP3    H122703   4.488   4.697   3.207
 7590TIP3    H222704   4.507   4.761   3.070
 7591TIP3   OH222705   3.681   4.591   5.264
 7591TIP3    H122706   3.697   4.495   5.269
 7591TIP3    H222707   3.593   4.594   5.221
 7592TIP3   OH222708   3.656   4.241   3.458
 7592TIP3    H122709   3.707   4.201   3.531
 7592TIP3    H222710   3.726   4.244   3.389
 7593TIP3   OH222711   4.288   4.675   5.035
 7593TIP3    H122712   4.248   4.690   4.947
 7593TIP3    H222713   4.319   4.582   5.028
 7594TIP3   OH222714   4.164   4.436   3.255
 7594TIP3    H122715   4.168   4.451   3.352
 7594TIP3    H222716   4.167   4.338   3.253
 7595TIP3   OH222717   4.786   4.681   4.649
 7595TIP3    H122718   4.852   4.734   4.600
 7595TIP3    H222719   4.703   4.726   4.626
 7596TIP3   OH222720   3.797   4.328   5.243
 7596TIP3    H122721   3.872   4.273   5.216
 7596TIP3    H222722   3.825   4.357   5.332
 7597TIP3   OH222723   3.869   4.136   3.685
 7597TIP3    H122724   3.857   4.081   3.764
 7597TIP3    H222725   3.904   4.068   3.624
 7598TIP3   OH222726   4.139   4.214   4.917
 7598TIP3    H122727   4.056   4.266   4.911
 7598TIP3    H222728   4.184   4.239   4.834
 7599TIP3   OH222729   3.964   3.939   3.518
 7599TIP3    H122730   3.941   3.941   3.423
 7599TIP3    H222731   4.062   3.942   3.514
 7600TIP3   OH222732   4.655   4.613   5.041
 7600TIP3    H122733   4.728   4.580   4.986
 7600TIP3    H222734   4.648   4.543   5.108
 7601TIP3   OH222735   4.788   4.269   3.182
 7601TIP3    H122736   4.767   4.223   3.099
 7601TIP3    H222737   4.755   4.359   3.158
 7602TIP3   OH222738   4.260   3.997   5.033
 7602TIP3    H122739   4.258   3.917   4.975
 7602TIP3    H222740   4.216   4.063   4.976
 7603TIP3   OH222741   4.260   3.777   4.852
 7603TIP3    H122742   4.286   3.825   4.770
 7603TIP3    H222743   4.167   3.755   4.831
 7604TIP3   OH222744   4.290   4.312   4.718
 7604TIP3    H122745   4.374   4.325   4.674
 7604TIP3    H222746   4.231   4.378   4.673
 7605TIP3   OH222747   4.872   4.286   5.096
 7605TIP3    H122748   4.916   4.200   5.097
 7605TIP3    H222749   4.939   4.341   5.052
 7606TIP3   OH222750   4.908   4.540   4.840
 7606TIP3    H122751   4.852   4.593   4.778
 7606TIP3    H222752   4.996   4.554   4.797
 7607TIP3   OH222753   4.140   4.106   5.266
 7607TIP3    H122754   4.069   4.039   5.278
 7607TIP3    H222755   4.171   4.086   5.176
 7608TIP3   OH222756   4.395   3.545   4.911
 7608TIP3    H122757   4.347   3.628   4.887
 7608TIP3    H222758   4.325   3.479   4.894
 7609TIP3   OH222759   4.518   4.050   5.123
 7609TIP3    H122760   4.501   4.037   5.218
 7609TIP3    H222761   4.430   4.026   5.087
 7610TIP3   OH222762   4.761   4.006   4.981
 7610TIP3    H122763   4.683   4.002   5.039
 7610TIP3    H222764   4.832   3.971   5.039
 7611TIP3   OH222765   4.992   3.943   5.132
 7611TIP3    H122766   5.003   3.847   5.147
 7611TIP3    H222767   4.986   3.979   5.223
 7612TIP3   OH222768   3.974   3.888   5.318
 7612TIP3    H122769   3.982   3.799   5.279
 7612TIP3    H222770   4.011   3.872   5.407
 7613TIP3   OH222771   4.484   3.554   5.169
 7613TIP3    H122772   4.553   3.486   5.160
 7613TIP3    H222773   4.446   3.552   5.079
 7614TIP3   OH222774   4.552   3.770   5.326
 7614TIP3    H122775   4.530   3.700   5.260
 7614TIP3    H222776   4.475   3.831   5.317
 7615TIP3   OH222777   3.775   5.003   3.425
 7615TIP3    H122778   3.870   4.995   3.405
 7615TIP3    H222779   3.746   5.052   3.345
 7616TIP3   OH222780   3.257   4.382   3.643
 7616TIP3    H122781   3.351   4.405   3.626
 7616TIP3    H222782   3.252   4.293   3.601
 7617TIP3   OH222783   3.170   4.994   4.055
 7617TIP3    H122784   3.102   4.933   4.019
 7617TIP3    H222785   3.214   4.936   4.121
 7618TIP3   OH222786   3.304   4.844   4.241
 7618TIP3    H122787   3.297   4.772   4.307
 7618TIP3    H222788   3.355   4.908   4.294
 7619TIP3   OH222789   5.031   5.248   4.043
 7619TIP3    H122790   5.060   5.280   4.130
 7619TIP3    H222791   5.098   5.286   3.984
 7620TIP3   OH222792   5.064   5.272   4.326
 7620TIP3    H122793   5.027   5.181   4.327
 7620TIP3    H222794   5.134   5.264   4.392
 7621TIP3   OH222795   5.110   4.939   4.901
 7621TIP3    H122796   5.035   4.949   4.962
 7621TIP3    H222797   5.145   5.031   4.898
 7622TIP3   OH222798   4.925   4.459   3.515
 7622TIP3    H122799   4.988   4.525   3.480
 7622TIP3    H222800   4.978   4.422   3.589
 7623TIP3   OH222801   5.075   4.342   3.713
 7623TIP3    H122802   5.010   4.299   3.770
 7623TIP3    H222803   5.135   4.383   3.778
 7624TIP3   OH222804   4.943   5.021   4.350
 7624TIP3    H122805   4.873   5.066   4.402
 7624TIP3    H222806   4.890   4.975   4.281
 7625TIP3   OH222807   4.988   4.233   3.366
 7625TIP3    H122808   4.916   4.233   3.298
 7625TIP3    H222809   4.960   4.311   3.418
 7626TIP3   OH222810   4.861   3.904   3.317
 7626TIP3    H122811   4.815   3.939   3.241
 7626TIP3    H222812   4.838   3.808   3.311
 7627TIP3   OH222813   5.150   4.597   4.725
 7627TIP3    H122814   5.223   4.533   4.714
 7627TIP3    H222815   5.179   4.671   4.668
 7628TIP3   OH222816   5.339   4.405   4.736
 7628TIP3    H122817   5.264   4.357   4.777
 7628TIP3    H222818   5.411   4.342   4.756
 7629TIP3   OH222819   4.805   3.637   3.303
 7629TIP3    H122820   4.879   3.607   3.359
 7629TIP3    H222821   4.731   3.580   3.330
 7630TIP3   OH222822   4.857   3.895   3.748
 7630TIP3    H122823   4.896   3.807   3.770
 7630TIP3    H222824   4.922   3.928   3.684
 7631TIP3   OH222825   5.111   4.251   4.541
 7631TIP3    H122826   5.021   4.251   4.578
 7631TIP3    H222827   5.097   4.306   4.463
 7632TIP3   OH222828   3.707   3.939   5.288
 7632TIP3    H122829   3.805   3.933   5.288
 7632TIP3    H222830   3.684   3.853   5.329
 7633TIP3   OH222831   5.545   3.807   5.043
 7633TIP3    H122832   5.603   3.740   5.000
 7633TIP3    H222833   5.515   3.860   4.966
 7634TIP3   OH222834   4.970   3.647   3.797
 7634TIP3    H122835   5.017   3.631   3.881
 7634TIP3    H222836   4.908   3.572   3.796
 7635TIP3   OH222837   3.663   3.637   4.630
 7635TIP3    H122838   3.729   3.565   4.629
 7635TIP3    H222839   3.721   3.712   4.606
 7636TIP3   OH222840   5.414   3.945   4.848
 7636TIP3    H122841   5.325   3.983   4.862
 7636TIP3    H222842   5.390   3.872   4.788
 7637TIP3   OH222843   5.048   3.580   3.430
 7637TIP3    H122844   5.092   3.509   3.379
 7637TIP3    H222845   5.116   3.651   3.428
 7638TIP3   OH222846   3.452   3.390   4.179
 7638TIP3    H122847   3.365   3.405   4.218
 7638TIP3    H222848   3.455   3.460   4.110
 7639TIP3   OH222849   4.615   5.114   3.698
 7639TIP3    H122850   4.666   5.099   3.616
 7639TIP3    H222851   4.670   5.180   3.744
 7640TIP3   OH222852   3.676   3.484   5.007
 7640TIP3    H122853   3.624   3.487   5.089
 7640TIP3    H222854   3.613   3.525   4.944
 7641TIP3   OH222855   3.715   4.917   5.082
 7641TIP3    H122856   3.623   4.891   5.066
 7641TIP3    H222857   3.725   4.897   5.176
 7642TIP3   OH222858   3.896   4.950   4.630
 7642TIP3    H122859   3.847   5.026   4.592
 7642TIP3    H222860   3.982   4.964   4.585
 7643TIP3   OH222861   4.338   5.194   4.769
 7643TIP3    H122862   4.380   5.193   4.857
 7643TIP3    H222863   4.404   5.245   4.717
 7644TIP3   OH222864   4.516   5.348   4.629
 7644TIP3    H122865   4.584   5.296   4.585
 7644TIP3    H222866   4.570   5.404   4.689
 7645TIP3   OH222867   5.313   3.705   4.727
 7645TIP3    H122868   5.221   3.695   4.695
 7645TIP3    H222869   5.347   3.614   4.715
 7646TIP3   OH222870   3.570   5.205   4.654
 7646TIP3    H122871   3.481   5.239   4.631
 7646TIP3    H222872   3.581   5.244   4.741
 7647TIP3   OH222873   3.807   5.185   4.512
 7647TIP3    H122874   3.720   5.197   4.557
 7647TIP3    H222875   3.787   5.217   4.422
 7648TIP3   OH222876   4.230   5.215   4.309
 7648TIP3    H122877   4.160   5.234   4.243
 7648TIP3    H222878   4.241   5.302   4.352
 7649TIP3   OH222879   4.498   5.177   4.369
 7649TIP3    H122880   4.404   5.191   4.345
 7649TIP3    H222881   4.543   5.250   4.323
 7650TIP3   OH222882   4.706   5.346   4.273
 7650TIP3    H122883   4.695   5.431   4.225
 7650TIP3    H222884   4.734   5.286   4.201
 7651TIP3   OH222885   3.483   5.002   4.398
 7651TIP3    H122886   3.509   4.973   4.488
 7651TIP3    H222887   3.554   4.958   4.346
 7652TIP3   OH222888   3.676   4.876   4.253
 7652TIP3    H122889   3.691   4.792   4.304
 7652TIP3    H222890   3.767   4.913   4.251
 7653TIP3   OH222891   3.942   4.969   4.259
 7653TIP3    H122892   3.971   4.877   4.244
 7653TIP3    H222893   3.989   4.988   4.342
 7654TIP3   OH222894   4.549   3.623   4.375
 7654TIP3    H122895   4.477   3.566   4.406
 7654TIP3    H222896   4.587   3.572   4.302
 7655TIP3   OH222897   5.046   3.509   4.254
 7655TIP3    H122898   5.079   3.556   4.175
 7655TIP3    H222899   4.949   3.519   4.244
 7656TIP3   OH222900   5.138   3.602   4.014
 7656TIP3    H122901   5.210   3.548   3.973
 7656TIP3    H222902   5.173   3.692   3.998
 7657TIP3   OH222903   3.768   3.324   4.370
 7657TIP3    H122904   3.674   3.296   4.366
 7657TIP3    H222905   3.814   3.238   4.362
 7658TIP3   OH222906   3.553   3.197   4.007
 7658TIP3    H122907   3.585   3.258   3.938
 7658TIP3    H222908   3.522   3.261   4.075
 7659TIP3   OH222909   4.213   3.359   4.245
 7659TIP3    H122910   4.262   3.414   4.182
 7659TIP3    H222911   4.222   3.413   4.325
 7660TIP3   OH222912   4.772   3.506   4.220
 7660TIP3    H122913   4.749   3.472   4.133
 7660TIP3    H222914   4.750   3.430   4.278
 7661TIP3   OH222915   4.787   3.434   3.789
 7661TIP3    H122916   4.702   3.480   3.804
 7661TIP3    H222917   4.770   3.349   3.834
 7662TIP3   OH222918   3.270   4.772   3.790
 7662TIP3    H122919   3.186   4.738   3.756
 7662TIP3    H222920   3.259   4.867   3.770
 7663TIP3   OH222921   3.671   3.360   3.774
 7663TIP3    H122922   3.723   3.301   3.717
 7663TIP3    H222923   3.741   3.418   3.810
 7664TIP3   OH222924   4.175   3.563   3.881
 7664TIP3    H122925   4.246   3.532   3.940
 7664TIP3    H222926   4.149   3.647   3.923
 7665TIP3   OH222927   4.042   4.959   3.371
 7665TIP3    H122928   4.130   4.981   3.335
 7665TIP3    H222929   4.020   4.883   3.312
 7666TIP3   OH222930   4.760   5.079   3.466
 7666TIP3    H122931   4.753   4.981   3.453
 7666TIP3    H222932   4.717   5.111   3.384
 7667TIP3   OH222933   3.973   3.608   5.252
 7667TIP3    H122934   3.941   3.538   5.312
 7667TIP3    H222935   4.068   3.611   5.278
 7668TIP3   OH222936   4.223   3.609   5.373
 7668TIP3    H122937   4.307   3.588   5.328
 7668TIP3    H222938   4.215   3.535   5.436
 7669TIP3   OH222939   3.347   4.797   3.428
 7669TIP3    H122940   3.349   4.815   3.523
 7669TIP3    H222941   3.434   4.753   3.413
 7670TIP3   OH222942   5.049   3.672   5.160
 7670TIP3    H122943   5.069   3.640   5.251
 7670TIP3    H222944   5.137   3.666   5.117
 7671TIP3   OH222945   4.963   5.220   4.672
 7671TIP3    H122946   4.894   5.194   4.607
 7671TIP3    H222947   4.966   5.316   4.659
 7672TIP3   OH222948   6.268   4.608   3.429
 7672TIP3    H122949   6.226   4.689   3.395
 7672TIP3    H222950   6.200   4.543   3.400
 7673TIP3   OH222951   6.508   4.906   3.468
 7673TIP3    H122952   6.469   4.837   3.522
 7673TIP3    H222953   6.526   4.978   3.530
 7674TIP3   OH222954   5.525   4.908   3.897
 7674TIP3    H122955   5.500   4.825   3.856
 7674TIP3    H222956   5.621   4.914   3.879
 7675TIP3   OH222957   5.219   4.094   3.687
 7675TIP3    H122958   5.188   4.185   3.680
 7675TIP3    H222959   5.154   4.046   3.633
 7676TIP3   OH222960   6.141   5.360   3.492
 7676TIP3    H122961   6.190   5.289   3.446
 7676TIP3    H222962   6.133   5.326   3.581
 7677TIP3   OH222963   7.065   4.142   3.844
 7677TIP3    H122964   7.096   4.225   3.883
 7677TIP3    H222965   7.089   4.154   3.750
 7678TIP3   OH222966   6.524   4.313   3.867
 7678TIP3    H122967   6.547   4.225   3.901
 7678TIP3    H222968   6.473   4.287   3.789
 7679TIP3   OH222969   6.493   4.076   3.467
 7679TIP3    H122970   6.565   4.058   3.532
 7679TIP3    H222971   6.546   4.110   3.392
 7680TIP3   OH222972   7.144   4.352   4.013
 7680TIP3    H122973   7.058   4.394   3.991
 7680TIP3    H222974   7.140   4.354   4.109
 7681TIP3   OH222975   5.801   3.966   4.283
 7681TIP3    H122976   5.749   4.000   4.207
 7681TIP3    H222977   5.741   3.988   4.357
 7682TIP3   OH222978   6.142   4.815   3.296
 7682TIP3    H122979   6.109   4.791   3.208
 7682TIP3    H222980   6.097   4.901   3.310
 7683TIP3   OH222981   5.920   4.753   4.098
 7683TIP3    H122982   5.840   4.795   4.136
 7683TIP3    H222983   5.930   4.805   4.018
 7684TIP3   OH222984   6.703   4.077   3.639
 7684TIP3    H122985   6.693   4.021   3.717
 7684TIP3    H222986   6.757   4.151   3.672
 7685TIP3   OH222987   5.679   4.066   4.057
 7685TIP3    H122988   5.716   4.155   4.061
 7685TIP3    H222989   5.668   4.056   3.961
 7686TIP3   OH222990   5.729   4.936   4.169
 7686TIP3    H122991   5.705   5.024   4.134
 7686TIP3    H222992   5.652   4.922   4.228
 7687TIP3   OH222993   5.124   4.628   3.408
 7687TIP3    H122994   5.085   4.653   3.322
 7687TIP3    H222995   5.153   4.715   3.443
 7688TIP3   OH222996   6.566   5.135   3.650
 7688TIP3    H122997   6.476   5.133   3.689
 7688TIP3    H222998   6.562   5.220   3.601
 7689TIP3   OH222999   6.857   4.048   4.016
 7689TIP3    H123000   6.767   4.060   3.981
 7689TIP3    H223001   6.913   4.073   3.940
 7690TIP3   OH223002   6.156   3.682   4.002
 7690TIP3    H123003   6.136   3.588   4.012
 7690TIP3    H223004   6.076   3.722   4.042
 7691TIP3   OH223005   6.272   5.185   3.327
 7691TIP3    H123006   6.318   5.103   3.299
 7691TIP3    H223007   6.331   5.251   3.285
 7692TIP3   OH223008   6.406   4.972   3.220
 7692TIP3    H123009   6.383   4.889   3.176
 7692TIP3    H223010   6.449   4.939   3.302
 7693TIP3   OH223011   6.798   5.056   3.998
 7693TIP3    H123012   6.789   4.980   3.936
 7693TIP3    H223013   6.777   5.132   3.938
 7694TIP3   OH223014   6.095   4.478   3.251
 7694TIP3    H123015   6.010   4.493   3.209
 7694TIP3    H223016   6.146   4.433   3.182
 7695TIP3   OH223017   6.042   4.236   2.963
 7695TIP3    H123018   6.111   4.280   3.015
 7695TIP3    H223019   6.096   4.168   2.916
 7696TIP3   OH223020   6.993   4.695   3.841
 7696TIP3    H123021   6.908   4.744   3.843
 7696TIP3    H223022   7.020   4.710   3.748
 7697TIP3   OH223023   6.433   4.533   3.220
 7697TIP3    H123024   6.378   4.556   3.298
 7697TIP3    H223025   6.515   4.502   3.264
 7698TIP3   OH223026   6.678   4.571   4.137
 7698TIP3    H123027   6.670   4.650   4.194
 7698TIP3    H223028   6.589   4.563   4.102
 7699TIP3   OH223029   5.779   4.920   3.780
 7699TIP3    H123030   5.767   4.866   3.701
 7699TIP3    H223031   5.875   4.921   3.790
 7700TIP3   OH223032   6.328   5.132   3.775
 7700TIP3    H123033   6.310   5.219   3.817
 7700TIP3    H223034   6.304   5.069   3.844
 7701TIP3   OH223035   5.937   5.054   4.314
 7701TIP3    H123036   5.875   5.114   4.361
 7701TIP3    H223037   5.873   5.000   4.264
 7702TIP3   OH223038   6.272   4.383   3.052
 7702TIP3    H123039   6.331   4.444   3.102
 7702TIP3    H223040   6.297   4.406   2.959
 7703TIP3   OH223041   5.692   4.610   4.422
 7703TIP3    H123042   5.693   4.697   4.466
 7703TIP3    H223043   5.597   4.590   4.420
 7704TIP3   OH223044   6.017   5.066   3.327
 7704TIP3    H123045   6.095   5.123   3.336
 7704TIP3    H223046   5.953   5.123   3.283
 7705TIP3   OH223047   5.728   5.222   4.397
 7705TIP3    H123048   5.700   5.224   4.304
 7705TIP3    H223049   5.644   5.227   4.445
 7706TIP3   OH223050   6.787   3.627   3.096
 7706TIP3    H123051   6.706   3.647   3.147
 7706TIP3    H223052   6.799   3.710   3.046
 7707TIP3   OH223053   5.541   4.355   3.408
 7707TIP3    H123054   5.459   4.390   3.368
 7707TIP3    H223055   5.510   4.279   3.458
 7708TIP3   OH223056   6.587   4.995   2.645
 7708TIP3    H123057   6.595   5.092   2.629
 7708TIP3    H223058   6.680   4.966   2.631
 7709TIP3   OH223059   5.317   4.749   4.347
 7709TIP3    H123060   5.251   4.718   4.284
 7709TIP3    H223061   5.347   4.666   4.390
 7710TIP3   OH223062   5.175   4.965   3.957
 7710TIP3    H123063   5.269   4.960   3.977
 7710TIP3    H223064   5.143   5.022   4.028
 7711TIP3   OH223065   7.026   5.417   4.034
 7711TIP3    H123066   7.040   5.322   4.046
 7711TIP3    H223067   6.941   5.430   4.082
 7712TIP3   OH223068   6.135   5.183   4.172
 7712TIP3    H123069   6.134   5.276   4.205
 7712TIP3    H223070   6.063   5.144   4.226
 7713TIP3   OH223071   5.900   5.315   3.125
 7713TIP3    H123072   5.851   5.296   3.043
 7713TIP3    H223073   5.865   5.403   3.151
 7714TIP3   OH223074   5.332   5.163   3.509
 7714TIP3    H123075   5.383   5.153   3.593
 7714TIP3    H223076   5.280   5.081   3.510
 7715TIP3   OH223077   6.098   5.214   2.764
 7715TIP3    H123078   6.156   5.143   2.728
 7715TIP3    H223079   6.132   5.224   2.855
 7716TIP3   OH223080   6.150   5.263   3.032
 7716TIP3    H123081   6.062   5.275   3.074
 7716TIP3    H223082   6.201   5.223   3.105
 7717TIP3   OH223083   6.923   4.532   4.308
 7717TIP3    H123084   6.840   4.536   4.258
 7717TIP3    H223085   6.941   4.436   4.304
 7718TIP3   OH223086   5.518   4.937   4.337
 7718TIP3    H123087   5.566   4.921   4.420
 7718TIP3    H223088   5.442   4.876   4.346
 7719TIP3   OH223089   5.914   3.758   4.125
 7719TIP3    H123090   5.824   3.729   4.099
 7719TIP3    H223091   5.892   3.843   4.166
 7720TIP3   OH223092   6.449   3.880   4.317
 7720TIP3    H123093   6.516   3.846   4.380
 7720TIP3    H223094   6.364   3.854   4.360
 7721TIP3   OH223095   6.699   4.305   4.246
 7721TIP3    H123096   6.643   4.298   4.327
 7721TIP3    H223097   6.660   4.381   4.200
 7722TIP3   OH223098   6.348   4.433   2.793
 7722TIP3    H123099   6.314   4.407   2.705
 7722TIP3    H223100   6.430   4.478   2.768
 7723TIP3   OH223101   6.058   3.809   3.094
 7723TIP3    H123102   6.031   3.809   3.188
 7723TIP3    H223103   6.019   3.725   3.065
 7724TIP3   OH223104   5.856   4.303   4.139
 7724TIP3    H123105   5.786   4.306   4.207
 7724TIP3    H223106   5.826   4.368   4.073
 7725TIP3   OH223107   6.400   4.528   4.470
 7725TIP3    H123108   6.371   4.453   4.527
 7725TIP3    H223109   6.494   4.532   4.493
 7726TIP3   OH223110   6.376   4.285   3.622
 7726TIP3    H123111   6.281   4.281   3.600
 7726TIP3    H223112   6.405   4.203   3.578
 7727TIP3   OH223113   5.670   4.293   4.347
 7727TIP3    H123114   5.690   4.361   4.413
 7727TIP3    H223115   5.659   4.212   4.400
 7728TIP3   OH223116   5.715   3.782   3.055
 7728TIP3    H123117   5.711   3.778   3.153
 7728TIP3    H223118   5.637   3.836   3.035
 7729TIP3   OH223119   5.258   3.831   3.937
 7729TIP3    H123120   5.339   3.858   3.986
 7729TIP3    H223121   5.294   3.808   3.850
 7730TIP3   OH223122   5.226   3.802   3.447
 7730TIP3    H123123   5.277   3.839   3.373
 7730TIP3    H223124   5.170   3.880   3.469
 7731TIP3   OH223125   5.506   4.037   3.740
 7731TIP3    H123126   5.411   4.040   3.718
 7731TIP3    H223127   5.537   3.953   3.699
 7732TIP3   OH223128   5.806   4.012   3.384
 7732TIP3    H123129   5.849   4.083   3.433
 7732TIP3    H223130   5.735   4.058   3.335
 7733TIP3   OH223131   6.558   4.047   3.932
 7733TIP3    H123132   6.511   4.064   4.017
 7733TIP3    H223133   6.494   3.984   3.893
 7734TIP3   OH223134   5.595   4.077   3.193
 7734TIP3    H123135   5.528   4.028   3.142
 7734TIP3    H223136   5.654   4.107   3.121
 7735TIP3   OH223137   6.722   5.747   4.137
 7735TIP3    H123138   6.716   5.771   4.042
 7735TIP3    H223139   6.798   5.800   4.166
 7736TIP3   OH223140   5.674   4.859   4.560
 7736TIP3    H123141   5.753   4.892   4.608
 7736TIP3    H223142   5.609   4.861   4.631
 7737TIP3   OH223143   5.634   3.797   3.667
 7737TIP3    H123144   5.624   3.723   3.730
 7737TIP3    H223145   5.728   3.799   3.650
 7738TIP3   OH223146   6.112   4.205   4.117
 7738TIP3    H123147   6.022   4.245   4.123
 7738TIP3    H223148   6.170   4.269   4.162
 7739TIP3   OH223149   5.835   4.611   3.190
 7739TIP3    H123150   5.772   4.537   3.175
 7739TIP3    H223151   5.842   4.611   3.287
 7740TIP3   OH223152   6.762   4.846   3.824
 7740TIP3    H123153   6.803   4.895   3.749
 7740TIP3    H223154   6.675   4.827   3.788
 7741TIP3   OH223155   6.310   3.907   3.049
 7741TIP3    H123156   6.214   3.894   3.069
 7741TIP3    H223157   6.328   3.999   3.079
 7742TIP3   OH223158   6.257   4.922   4.183
 7742TIP3    H123159   6.259   4.880   4.270
 7742TIP3    H223160   6.215   5.008   4.202
 7743TIP3   OH223161   6.395   4.146   3.140
 7743TIP3    H123162   6.483   4.168   3.176
 7743TIP3    H223163   6.358   4.234   3.119
 7744TIP3   OH223164   6.001   4.751   3.020
 7744TIP3    H123165   5.954   4.837   3.026
 7744TIP3    H223166   5.943   4.696   3.078
 7745TIP3   OH223167   5.419   4.536   4.491
 7745TIP3    H123168   5.463   4.550   4.578
 7745TIP3    H223169   5.369   4.456   4.513
 7746TIP3   OH223170   6.153   4.656   4.511
 7746TIP3    H123171   6.089   4.603   4.459
 7746TIP3    H223172   6.237   4.621   4.476
 7747TIP3   OH223173   6.415   5.169   4.095
 7747TIP3    H123174   6.318   5.173   4.107
 7747TIP3    H223175   6.444   5.227   4.169
 7748TIP3   OH223176   6.825   4.250   2.999
 7748TIP3    H123177   6.763   4.204   2.937
 7748TIP3    H223178   6.820   4.339   2.958
 7749TIP3   OH223179   7.055   5.109   4.082
 7749TIP3    H123180   6.957   5.108   4.081
 7749TIP3    H223181   7.072   5.078   3.991
 7750TIP3   OH223182   6.529   5.068   2.910
 7750TIP3    H123183   6.497   4.998   2.968
 7750TIP3    H223184   6.538   5.023   2.824
 7751TIP3   OH223185   5.210   4.230   3.202
 7751TIP3    H123186   5.258   4.312   3.225
 7751TIP3    H223187   5.134   4.235   3.264
 7752TIP3   OH223188   5.919   5.265   3.963
 7752TIP3    H123189   5.954   5.343   3.914
 7752TIP3    H223190   5.996   5.242   4.017
 7753TIP3   OH223191   5.558   5.175   3.334
 7753TIP3    H123192   5.480   5.173   3.393
 7753TIP3    H223193   5.591   5.267   3.349
 7754TIP3   OH223194   6.352   4.866   3.935
 7754TIP3    H123195   6.295   4.879   4.015
 7754TIP3    H223196   6.433   4.901   3.970
 7755TIP3   OH223197   6.281   4.798   2.810
 7755TIP3    H123198   6.333   4.773   2.890
 7755TIP3    H223199   6.193   4.768   2.837
 7756TIP3   OH223200   6.553   5.436   3.975
 7756TIP3    H123201   6.472   5.384   3.965
 7756TIP3    H223202   6.541   5.503   3.903
 7757TIP3   OH223203   6.618   5.270   2.629
 7757TIP3    H123204   6.653   5.342   2.573
 7757TIP3    H223205   6.539   5.316   2.665
 7758TIP3   OH223206   5.634   4.051   4.497
 7758TIP3    H123207   5.537   4.056   4.507
 7758TIP3    H223208   5.657   3.986   4.565
 7759TIP3   OH223209   6.441   4.737   3.030
 7759TIP3    H123210   6.430   4.665   3.096
 7759TIP3    H223211   6.537   4.730   3.015
 7760TIP3   OH223212   5.358   5.131   4.129
 7760TIP3    H123213   5.415   5.063   4.169
 7760TIP3    H223214   5.371   5.205   4.190
 7761TIP3   OH223215   5.646   4.776   2.809
 7761TIP3    H123216   5.659   4.683   2.782
 7761TIP3    H223217   5.624   4.764   2.904
 7762TIP3   OH223218   5.589   4.780   3.082
 7762TIP3    H123219   5.669   4.751   3.129
 7762TIP3    H223220   5.594   4.878   3.091
 7763TIP3   OH223221   5.321   4.475   3.287
 7763TIP3    H123222   5.254   4.520   3.341
 7763TIP3    H223223   5.337   4.542   3.218
 7764TIP3   OH223224   6.472   4.124   4.189
 7764TIP3    H123225   6.561   4.142   4.221
 7764TIP3    H223226   6.452   4.037   4.232
 7765TIP3   OH223227   6.363   3.860   3.342
 7765TIP3    H123228   6.342   3.887   3.251
 7765TIP3    H223229   6.396   3.944   3.381
 7766TIP3   OH223230   5.858   4.981   3.032
 7766TIP3    H123231   5.770   5.006   3.066
 7766TIP3    H223232   5.873   5.054   2.970
 7767TIP3   OH223233   6.304   4.364   4.241
 7767TIP3    H123234   6.334   4.412   4.320
 7767TIP3    H223235   6.360   4.284   4.241
 7768TIP3   OH223236   6.177   3.794   3.559
 7768TIP3    H123237   6.147   3.877   3.602
 7768TIP3    H223238   6.244   3.826   3.495
 7769TIP3   OH223239   5.602   5.053   3.096
 7769TIP3    H123240   5.571   5.124   3.035
 7769TIP3    H223241   5.585   5.096   3.183
 7770TIP3   OH223242   5.703   3.757   3.326
 7770TIP3    H123243   5.706   3.847   3.364
 7770TIP3    H223244   5.795   3.730   3.343
 7771TIP3   OH223245   6.961   4.261   4.225
 7771TIP3    H123246   6.864   4.265   4.241
 7771TIP3    H223247   6.960   4.202   4.148
 7772TIP3   OH223248   6.593   4.467   3.626
 7772TIP3    H123249   6.525   4.397   3.621
 7772TIP3    H223250   6.666   4.420   3.671
 7773TIP3   OH223251   5.319   4.683   3.091
 7773TIP3    H123252   5.388   4.751   3.099
 7773TIP3    H223253   5.363   4.625   3.024
 7774TIP3   OH223254   5.262   3.958   3.222
 7774TIP3    H123255   5.265   4.056   3.219
 7774TIP3    H223256   5.176   3.939   3.184
 7775TIP3   OH223257   6.577   5.407   3.572
 7775TIP3    H123258   6.533   5.455   3.497
 7775TIP3    H223259   6.670   5.426   3.549
 7776TIP3   OH223260   5.650   3.680   4.101
 7776TIP3    H123261   5.620   3.650   4.013
 7776TIP3    H223262   5.638   3.600   4.156
 7777TIP3   OH223263   5.186   4.892   3.478
 7777TIP3    H123264   5.119   4.929   3.538
 7777TIP3    H223265   5.161   4.937   3.394
 7778TIP3   OH223266   5.839   5.396   4.590
 7778TIP3    H123267   5.932   5.367   4.593
 7778TIP3    H223268   5.805   5.335   4.521
 7779TIP3   OH223269   5.808   4.979   2.721
 7779TIP3    H123270   5.753   4.908   2.760
 7779TIP3    H223271   5.884   4.927   2.688
 7780TIP3   OH223272   6.471   5.309   4.324
 7780TIP3    H123273   6.460   5.241   4.395
 7780TIP3    H223274   6.543   5.364   4.358
 7781TIP3   OH223275   6.245   5.020   2.634
 7781TIP3    H123276   6.287   4.953   2.692
 7781TIP3    H223277   6.302   5.018   2.555
 7782TIP3   OH223278   5.478   4.844   4.756
 7782TIP3    H123279   5.493   4.747   4.751
 7782TIP3    H223280   5.391   4.850   4.709
 7783TIP3   OH223281   5.454   4.496   2.944
 7783TIP3    H123282   5.509   4.460   3.016
 7783TIP3    H223283   5.521   4.501   2.872
 7784TIP3   OH223284   6.081   4.931   4.524
 7784TIP3    H123285   6.038   4.947   4.438
 7784TIP3    H223286   6.111   4.838   4.516
 7785TIP3   OH223287   5.967   4.695   2.751
 7785TIP3    H123288   5.968   4.708   2.847
 7785TIP3    H223289   5.967   4.597   2.746
 7786TIP3   OH223290   6.571   4.935   4.107
 7786TIP3    H123291   6.649   4.986   4.077
 7786TIP3    H223292   6.506   5.007   4.121
 7787TIP3   OH223293   5.591   4.581   4.720
 7787TIP3    H123294   5.663   4.521   4.699
 7787TIP3    H223295   5.613   4.604   4.813
 7788TIP3   OH223296   5.664   4.401   3.163
 7788TIP3    H123297   5.630   4.367   3.248
 7788TIP3    H223298   5.695   4.319   3.119
 7789TIP3   OH223299   5.931   4.472   4.405
 7789TIP3    H123300   5.849   4.525   4.406
 7789TIP3    H223301   5.967   4.496   4.318
 7790TIP3   OH223302   5.762   4.193   3.006
 7790TIP3    H123303   5.737   4.198   2.911
 7790TIP3    H223304   5.860   4.199   2.999
 7791TIP3   OH223305   6.453   4.869   4.529
 7791TIP3    H123306   6.528   4.836   4.480
 7791TIP3    H223307   6.440   4.800   4.596
 7792TIP3   OH223308   6.584   4.525   2.670
 7792TIP3    H123309   6.563   4.479   2.587
 7792TIP3    H223310   6.552   4.615   2.646
 7793TIP3   OH223311   6.056   4.254   4.520
 7793TIP3    H123312   6.054   4.174   4.463
 7793TIP3    H223313   6.010   4.320   4.463
 7794TIP3   OH223314   6.058   4.040   4.332
 7794TIP3    H123315   6.084   4.080   4.246
 7794TIP3    H223316   5.965   4.015   4.313
 7795TIP3   OH223317   6.103   4.597   4.221
 7795TIP3    H123318   6.132   4.529   4.160
 7795TIP3    H223319   6.039   4.651   4.169
 7796TIP3   OH223320   6.668   4.542   4.583
 7796TIP3    H123321   6.705   4.453   4.589
 7796TIP3    H223322   6.742   4.593   4.547
 7797TIP3   OH223323   6.702   4.802   4.311
 7797TIP3    H123324   6.646   4.852   4.249
 7797TIP3    H223325   6.791   4.819   4.273
 7798TIP3   OH223326   5.936   4.364   4.753
 7798TIP3    H123327   5.867   4.295   4.766
 7798TIP3    H223328   5.968   4.342   4.663
 7799TIP3   OH223329   6.190   3.805   4.397
 7799TIP3    H123330   6.141   3.886   4.372
 7799TIP3    H223331   6.122   3.736   4.381
 7800TIP3   OH223332   6.312   4.311   4.609
 7800TIP3    H123333   6.296   4.294   4.704
 7800TIP3    H223334   6.225   4.285   4.573
 7801TIP3   OH223335   6.558   4.267   4.472
 7801TIP3    H123336   6.478   4.258   4.527
 7801TIP3    H223337   6.627   4.226   4.528
 7802TIP3   OH223338   6.790   4.200   4.618
 7802TIP3    H123339   6.800   4.103   4.632
 7802TIP3    H223340   6.783   4.235   4.709
 7803TIP3   OH223341   5.775   4.145   4.803
 7803TIP3    H123342   5.777   4.054   4.766
 7803TIP3    H223343   5.810   4.127   4.893
 7804TIP3   OH223344   6.283   3.814   4.654
 7804TIP3    H123345   6.350   3.743   4.647
 7804TIP3    H223346   6.243   3.810   4.565
 7805TIP3   OH223347   6.351   4.029   4.810
 7805TIP3    H123348   6.329   3.956   4.747
 7805TIP3    H223349   6.272   4.087   4.802
 7806TIP3   OH223350   5.570   5.258   2.910
 7806TIP3    H123351   5.666   5.251   2.893
 7806TIP3    H223352   5.543   5.307   2.831
 7807TIP3   OH223353   5.051   4.638   3.128
 7807TIP3    H123354   5.145   4.660   3.113
 7807TIP3    H223355   5.045   4.550   3.085
 7808TIP3   OH223356   4.964   5.250   3.543
 7808TIP3    H123357   4.898   5.188   3.506
 7808TIP3    H223358   5.009   5.192   3.608
 7809TIP3   OH223359   5.099   5.100   3.728
 7809TIP3    H123360   5.098   5.028   3.794
 7809TIP3    H223361   5.150   5.166   3.779
 7810TIP3   OH223362   6.833   5.493   3.530
 7810TIP3    H123363   6.856   5.535   3.614
 7810TIP3    H223364   6.882   5.546   3.466
 7811TIP3   OH223365   6.858   5.523   3.813
 7811TIP3    H123366   6.814   5.436   3.804
 7811TIP3    H223367   6.931   5.499   3.872
 7812TIP3   OH223368   6.905   5.201   4.383
 7812TIP3    H123369   6.831   5.207   4.447
 7812TIP3    H223370   6.943   5.291   4.388
 7813TIP3   OH223371   6.720   4.712   3.002
 7813TIP3    H123372   6.788   4.776   2.973
 7813TIP3    H223373   6.763   4.672   3.081
 7814TIP3   OH223374   6.847   4.580   3.207
 7814TIP3    H123375   6.781   4.535   3.264
 7814TIP3    H223376   6.911   4.616   3.272
 7815TIP3   OH223377   6.907   4.973   3.638
 7815TIP3    H123378   6.958   4.907   3.587
 7815TIP3    H223379   6.902   5.048   3.575
 7816TIP3   OH223380   6.732   5.270   3.836
 7816TIP3    H123381   6.661   5.317   3.882
 7816TIP3    H223382   6.683   5.226   3.763
 7817TIP3   OH223383   6.785   4.488   2.852
 7817TIP3    H123384   6.713   4.489   2.785
 7817TIP3    H223385   6.757   4.564   2.907
 7818TIP3   OH223386   6.661   4.158   2.803
 7818TIP3    H123387   6.610   4.196   2.730
 7818TIP3    H223388   6.635   4.064   2.796
 7819TIP3   OH223389   6.661   4.436   3.353
 7819TIP3    H123390   6.667   4.339   3.343
 7819TIP3    H223391   6.646   4.446   3.449
 7820TIP3   OH223392   6.951   4.861   4.210
 7820TIP3    H123393   7.021   4.793   4.200
 7820TIP3    H223394   6.978   4.928   4.145
 7821TIP3   OH223395   7.142   4.670   4.226
 7821TIP3    H123396   7.064   4.620   4.259
 7821TIP3    H223397   7.211   4.601   4.241
 7822TIP3   OH223398   6.601   3.892   2.788
 7822TIP3    H123399   6.673   3.862   2.848
 7822TIP3    H223400   6.525   3.837   2.815
 7823TIP3   OH223401   6.663   4.158   3.251
 7823TIP3    H123402   6.700   4.068   3.266
 7823TIP3    H223403   6.717   4.186   3.175
 7824TIP3   OH223404   6.817   4.334   3.735
 7824TIP3    H123405   6.905   4.357   3.698
 7824TIP3    H223406   6.830   4.360   3.827
 7825TIP3   OH223407   6.894   4.470   3.973
 7825TIP3    H123408   6.817   4.502   4.024
 7825TIP3    H223409   6.926   4.551   3.928
 7826TIP3   OH223410   5.509   4.202   4.791
 7826TIP3    H123411   5.606   4.189   4.780
 7826TIP3    H223412   5.482   4.113   4.820
 7827TIP3   OH223413   7.339   4.063   4.528
 7827TIP3    H123414   7.398   3.996   4.488
 7827TIP3    H223415   7.313   4.117   4.451
 7828TIP3   OH223416   6.766   3.904   3.284
 7828TIP3    H123417   6.812   3.886   3.368
 7828TIP3    H223418   6.704   3.828   3.281
 7829TIP3   OH223419   5.468   3.891   4.101
 7829TIP3    H123420   5.531   3.817   4.111
 7829TIP3    H223421   5.530   3.966   4.091
 7830TIP3   OH223422   7.211   4.202   4.330
 7830TIP3    H123423   7.122   4.238   4.346
 7830TIP3    H223424   7.187   4.125   4.275
 7831TIP3   OH223425   6.846   3.836   2.918
 7831TIP3    H123426   6.886   3.764   2.865
 7831TIP3    H223427   6.914   3.907   2.912
 7832TIP3   OH223428   5.248   3.660   3.678
 7832TIP3    H123429   5.154   3.662   3.704
 7832TIP3    H223430   5.249   3.721   3.601
 7833TIP3   OH223431   6.419   5.362   3.187
 7833TIP3    H123432   6.466   5.351   3.103
 7833TIP3    H223433   6.461   5.442   3.224
 7834TIP3   OH223434   5.479   3.750   4.498
 7834TIP3    H123435   5.419   3.744   4.574
 7834TIP3    H223436   5.428   3.804   4.436
 7835TIP3   OH223437   5.694   5.206   4.117
 7835TIP3    H123438   5.642   5.281   4.080
 7835TIP3    H223439   5.778   5.223   4.069
 7836TIP3   OH223440   6.135   5.446   4.254
 7836TIP3    H123441   6.176   5.450   4.343
 7836TIP3    H223442   6.199   5.500   4.202
 7837TIP3   OH223443   6.314   5.600   4.116
 7837TIP3    H123444   6.385   5.554   4.071
 7837TIP3    H223445   6.364   5.659   4.176
 7838TIP3   OH223446   7.109   3.961   4.214
 7838TIP3    H123447   7.018   3.948   4.181
 7838TIP3    H223448   7.144   3.869   4.204
 7839TIP3   OH223449   5.368   5.461   4.140
 7839TIP3    H123450   5.279   5.497   4.117
 7839TIP3    H223451   5.378   5.496   4.229
 7840TIP3   OH223452   5.604   5.439   3.998
 7840TIP3    H123453   5.518   5.453   4.043
 7840TIP3    H223454   5.585   5.474   3.909
 7841TIP3   OH223455   6.029   5.467   3.797
 7841TIP3    H123456   5.964   5.486   3.726
 7841TIP3    H223457   6.040   5.558   3.834
 7842TIP3   OH223458   6.297   5.405   3.845
 7842TIP3    H123459   6.202   5.424   3.830
 7842TIP3    H223460   6.337   5.481   3.800
 7843TIP3   OH223461   6.509   5.602   3.762
 7843TIP3    H123462   6.489   5.686   3.716
 7843TIP3    H223463   6.530   5.543   3.686
 7844TIP3   OH223464   5.276   5.259   3.887
 7844TIP3    H123465   5.304   5.230   3.976
 7844TIP3    H223466   5.346   5.217   3.834
 7845TIP3   OH223467   5.470   5.134   3.744
 7845TIP3    H123468   5.488   5.053   3.797
 7845TIP3    H223469   5.559   5.174   3.739
 7846TIP3   OH223470   5.733   5.226   3.747
 7846TIP3    H123471   5.768   5.138   3.725
 7846TIP3    H223472   5.782   5.246   3.829
 7847TIP3   OH223473   6.352   3.875   3.865
 7847TIP3    H123474   6.269   3.834   3.894
 7847TIP3    H223475   6.370   3.827   3.783
 7848TIP3   OH223476   6.844   3.764   3.740
 7848TIP3    H123477   6.876   3.813   3.662
 7848TIP3    H223478   6.747   3.771   3.729
 7849TIP3   OH223479   6.933   3.860   3.500
 7849TIP3    H123480   7.006   3.808   3.461
 7849TIP3    H223481   6.966   3.951   3.485
 7850TIP3   OH223482   5.565   3.586   3.857
 7850TIP3    H123483   5.472   3.555   3.852
 7850TIP3    H223484   5.613   3.501   3.848
 7851TIP3   OH223485   5.346   3.457   3.496
 7851TIP3    H123486   5.380   3.516   3.426
 7851TIP3    H223487   5.320   3.522   3.565
 7852TIP3   OH223488   6.012   3.618   3.729
 7852TIP3    H123489   6.062   3.677   3.670
 7852TIP3    H223490   6.018   3.667   3.812
 7853TIP3   OH223491   6.575   3.760   3.702
 7853TIP3    H123492   6.544   3.724   3.618
 7853TIP3    H223493   6.548   3.690   3.765
 7854TIP3   OH223494   6.583   3.691   3.275
 7854TIP3    H123495   6.498   3.737   3.292
 7854TIP3    H223496   6.567   3.606   3.321
 7855TIP3   OH223497   5.067   5.029   3.278
 7855TIP3    H123498   4.981   4.996   3.244
 7855TIP3    H223499   5.057   5.123   3.257
 7856TIP3   OH223500   5.466   3.617   3.258
 7856TIP3    H123501   5.517   3.555   3.203
 7856TIP3    H223502   5.539   3.671   3.297
 7857TIP3   OH223503   5.983   3.793   3.360
 7857TIP3    H123504   6.047   3.782   3.433
 7857TIP3    H223505   5.941   3.879   3.383
 7858TIP3   OH223506   5.838   5.214   2.859
 7858TIP3    H123507   5.925   5.238   2.822
 7858TIP3    H223508   5.816   5.139   2.799
 7859TIP3   OH223509   6.560   5.336   2.951
 7859TIP3    H123510   6.551   5.238   2.938
 7859TIP3    H223511   6.512   5.369   2.872
 7860TIP3   OH223512   5.769   3.869   4.745
 7860TIP3    H123513   5.737   3.796   4.800
 7860TIP3    H223514   5.864   3.869   4.768
 7861TIP3   OH223515   6.021   3.868   4.860
 7861TIP3    H123516   6.103   3.839   4.817
 7861TIP3    H223517   6.008   3.796   4.926
 7862TIP3   OH223518   5.142   5.052   2.915
 7862TIP3    H123519   5.146   5.075   3.009
 7862TIP3    H223520   5.230   5.010   2.900
 7863TIP3   OH223521   6.845   3.930   4.647
 7863TIP3    H123522   6.864   3.896   4.737
 7863TIP3    H223523   6.933   3.922   4.604
 7864TIP3   OH223524   6.778   5.477   4.144
 7864TIP3    H123525   6.701   5.446   4.091
 7864TIP3    H223526   6.761   5.573   4.144
 7865TIP3   OH223527   8.049   4.856   2.904
 7865TIP3    H123528   8.017   4.946   2.883
 7865TIP3    H223529   7.973   4.802   2.875
 7866TIP3   OH223530   8.044   4.853   3.288
 7866TIP3    H123531   8.075   4.830   3.378
 7866TIP3    H223532   8.007   4.768   3.260
 7867TIP3   OH223533   7.347   4.748   3.658
 7867TIP3    H123534   7.379   4.677   3.716
 7867TIP3    H223535   7.431   4.786   3.627
 7868TIP3   OH223536   8.292   5.150   2.968
 7868TIP3    H123537   8.275   5.084   3.036
 7868TIP3    H223538   8.322   5.226   3.020
 7869TIP3   OH223539   7.326   5.158   3.383
 7869TIP3    H123540   7.314   5.061   3.381
 7869TIP3    H223541   7.421   5.164   3.365
 7870TIP3   OH223542   7.026   4.362   3.160
 7870TIP3    H123543   6.973   4.443   3.173
 7870TIP3    H223544   6.958   4.304   3.121
 7871TIP3   OH223545   7.086   4.648   3.338
 7871TIP3    H123546   7.134   4.569   3.371
 7871TIP3    H223547   7.139   4.672   3.260
 7872TIP3   OH223548   7.946   5.618   2.986
 7872TIP3    H123549   7.987   5.546   2.933
 7872TIP3    H223550   7.936   5.575   3.072
 7873TIP3   OH223551   7.847   5.077   3.336
 7873TIP3    H123552   7.885   4.999   3.292
 7873TIP3    H223553   7.930   5.122   3.360
 7874TIP3   OH223554   8.255   4.600   3.363
 7874TIP3    H123555   8.267   4.507   3.392
 7874TIP3    H223556   8.210   4.583   3.278
 7875TIP3   OH223557   7.594   4.238   3.334
 7875TIP3    H123558   7.580   4.309   3.268
 7875TIP3    H223559   7.549   4.164   3.288
 7876TIP3   OH223560   8.288   4.329   2.968
 7876TIP3    H123561   8.351   4.271   3.013
 7876TIP3    H223562   8.345   4.366   2.899
 7877TIP3   OH223563   7.233   4.440   3.439
 7877TIP3    H123564   7.316   4.417   3.486
 7877TIP3    H223565   7.243   4.384   3.359
 7878TIP3   OH223566   7.671   4.637   3.239
 7878TIP3    H123567   7.765   4.613   3.249
 7878TIP3    H223568   7.633   4.554   3.204
 7879TIP3   OH223569   7.595   4.222   3.766
 7879TIP3    H123570   7.535   4.256   3.698
 7879TIP3    H223571   7.541   4.238   3.847
 7880TIP3   OH223572   7.945   5.077   2.768
 7880TIP3    H123573   7.897   5.052   2.688
 7880TIP3    H223574   7.895   5.156   2.797
 7881TIP3   OH223575   7.701   4.997   3.559
 7881TIP3    H123576   7.639   5.064   3.594
 7881TIP3    H223577   7.746   5.045   3.486
 7882TIP3   OH223578   7.466   4.337   3.551
 7882TIP3    H123579   7.530   4.408   3.572
 7882TIP3    H223580   7.512   4.294   3.475
 7883TIP3   OH223581   7.527   5.192   3.663
 7883TIP3    H123582   7.501   5.274   3.616
 7883TIP3    H223583   7.449   5.177   3.719
 7884TIP3   OH223584   6.923   4.882   2.895
 7884TIP3    H123585   6.881   4.905   2.810
 7884TIP3    H223586   6.952   4.968   2.928
 7885TIP3   OH223587   8.363   5.396   3.135
 7885TIP3    H123588   8.274   5.384   3.176
 7885TIP3    H223589   8.350   5.482   3.091
 7886TIP3   OH223590   7.942   3.933   3.482
 7886TIP3    H123591   7.927   3.838   3.502
 7886TIP3    H223592   7.864   3.972   3.527
 7887TIP3   OH223593   8.062   5.443   2.807
 7887TIP3    H123594   8.112   5.361   2.787
 7887TIP3    H223595   8.122   5.509   2.766
 7888TIP3   OH223596   8.201   5.223   2.715
 7888TIP3    H123597   8.138   5.151   2.701
 7888TIP3    H223598   8.246   5.194   2.797
 7889TIP3   OH223599   8.581   5.303   3.481
 7889TIP3    H123600   8.586   5.227   3.420
 7889TIP3    H223601   8.584   5.380   3.422
 7890TIP3   OH223602   7.880   4.705   2.736
 7890TIP3    H123603   7.798   4.754   2.716
 7890TIP3    H223604   7.922   4.699   2.648
 7891TIP3   OH223605   7.837   4.489   2.452
 7891TIP3    H123606   7.907   4.539   2.497
 7891TIP3    H223607   7.892   4.424   2.404
 7892TIP3   OH223608   8.221   4.786   2.707
 7892TIP3    H123609   8.165   4.814   2.783
 7892TIP3    H223610   8.294   4.740   2.754
 7893TIP3   OH223611   8.448   4.804   3.618
 7893TIP3    H123612   8.479   4.887   3.656
 7893TIP3    H223613   8.362   4.829   3.582
 7894TIP3   OH223614   7.461   4.784   3.124
 7894TIP3    H123615   7.418   4.726   3.058
 7894TIP3    H223616   7.536   4.729   3.154
 7895TIP3   OH223617   7.587   5.192   3.274
 7895TIP3    H123618   7.568   5.156   3.186
 7895TIP3    H223619   7.678   5.157   3.291
 7896TIP3   OH223620   7.588   4.756   3.482
 7896TIP3    H123621   7.624   4.729   3.394
 7896TIP3    H223622   7.637   4.840   3.499
 7897TIP3   OH223623   8.122   5.392   3.256
 7897TIP3    H123624   8.109   5.471   3.311
 7897TIP3    H223625   8.108   5.318   3.319
 7898TIP3   OH223626   7.736   5.312   3.801
 7898TIP3    H123627   7.672   5.368   3.849
 7898TIP3    H223628   7.675   5.257   3.748
 7899TIP3   OH223629   8.066   4.640   2.532
 7899TIP3    H123630   8.123   4.703   2.583
 7899TIP3    H223631   8.092   4.663   2.439
 7900TIP3   OH223632   7.486   4.875   3.905
 7900TIP3    H123633   7.484   4.903   3.996
 7900TIP3    H223634   7.394   4.842   3.892
 7901TIP3   OH223635   7.813   5.322   2.812
 7901TIP3    H123636   7.894   5.375   2.821
 7901TIP3    H223637   7.752   5.383   2.768
 7902TIP3   OH223638   7.514   5.466   3.885
 7902TIP3    H123639   7.505   5.464   3.787
 7902TIP3    H223640   7.429   5.503   3.910
 7903TIP3   OH223641   7.325   4.629   2.932
 7903TIP3    H123642   7.258   4.671   2.874
 7903TIP3    H223643   7.291   4.539   2.940
 7904TIP3   OH223644   8.380   5.255   2.135
 7904TIP3    H123645   8.378   5.349   2.112
 7904TIP3    H223646   8.464   5.226   2.096
 7905TIP3   OH223647   7.106   5.012   3.833
 7905TIP3    H123648   7.042   4.991   3.762
 7905TIP3    H223649   7.143   4.924   3.855
 7906TIP3   OH223650   6.960   5.199   3.478
 7906TIP3    H123651   7.054   5.201   3.457
 7906TIP3    H223652   6.947   5.285   3.520
 7907TIP3   OH223653   7.934   5.443   3.659
 7907TIP3    H123654   7.930   5.535   3.692
 7907TIP3    H223655   7.863   5.401   3.713
 7908TIP3   OH223656   7.694   5.568   2.613
 7908TIP3    H123657   7.648   5.547   2.529
 7908TIP3    H223658   7.659   5.656   2.634
 7909TIP3   OH223659   7.131   5.418   2.995
 7909TIP3    H123660   7.176   5.407   3.082
 7909TIP3    H223661   7.076   5.338   2.992
 7910TIP3   OH223662   7.894   5.473   2.252
 7910TIP3    H123663   7.952   5.403   2.214
 7910TIP3    H223664   7.930   5.480   2.342
 7911TIP3   OH223665   7.945   5.520   2.521
 7911TIP3    H123666   7.857   5.528   2.564
 7911TIP3    H223667   7.996   5.476   2.591
 7912TIP3   OH223668   7.313   5.186   3.844
 7912TIP3    H123669   7.349   5.127   3.911
 7912TIP3    H223670   7.229   5.139   3.824
 7913TIP3   OH223671   7.710   4.016   3.610
 7913TIP3    H123672   7.621   3.985   3.583
 7913TIP3    H223673   7.684   4.098   3.657
 7914TIP3   OH223674   8.214   4.152   3.788
 7914TIP3    H123675   8.282   4.112   3.848
 7914TIP3    H223676   8.131   4.125   3.834
 7915TIP3   OH223677   8.516   4.554   3.730
 7915TIP3    H123678   8.456   4.561   3.808
 7915TIP3    H223679   8.495   4.638   3.683
 7916TIP3   OH223680   8.146   4.691   2.278
 7916TIP3    H123681   8.116   4.662   2.188
 7916TIP3    H223682   8.215   4.754   2.254
 7917TIP3   OH223683   7.868   4.069   2.582
 7917TIP3    H123684   7.831   4.064   2.672
 7917TIP3    H223685   7.832   3.986   2.545
 7918TIP3   OH223686   7.643   4.533   3.628
 7918TIP3    H123687   7.593   4.553   3.710
 7918TIP3    H223688   7.627   4.613   3.575
 7919TIP3   OH223689   7.526   4.421   3.142
 7919TIP3    H123690   7.434   4.391   3.160
 7919TIP3    H223691   7.541   4.379   3.055
 7920TIP3   OH223692   8.020   4.507   2.870
 7920TIP3    H123693   7.964   4.576   2.827
 7920TIP3    H223694   8.075   4.476   2.796
 7921TIP3   OH223695   8.191   4.785   3.961
 7921TIP3    H123696   8.169   4.710   4.020
 7921TIP3    H223697   8.287   4.791   3.973
 7922TIP3   OH223698   8.165   4.539   3.107
 7922TIP3    H123699   8.104   4.553   3.031
 7922TIP3    H223700   8.202   4.452   3.079
 7923TIP3   OH223701   7.460   4.561   3.839
 7923TIP3    H123702   7.506   4.610   3.908
 7923TIP3    H223703   7.446   4.475   3.882
 7924TIP3   OH223704   7.512   4.039   2.546
 7924TIP3    H123705   7.505   4.036   2.644
 7924TIP3    H223706   7.433   4.091   2.523
 7925TIP3   OH223707   7.056   4.085   3.417
 7925TIP3    H123708   7.134   4.113   3.469
 7925TIP3    H223709   7.094   4.048   3.336
 7926TIP3   OH223710   7.026   4.063   2.936
 7926TIP3    H123711   7.071   4.102   2.858
 7926TIP3    H223712   6.964   4.136   2.957
 7927TIP3   OH223713   8.163   4.787   3.534
 7927TIP3    H123714   8.207   4.721   3.475
 7927TIP3    H223715   8.146   4.730   3.612
 7928TIP3   OH223716   7.849   4.265   3.205
 7928TIP3    H123717   7.776   4.245   3.266
 7928TIP3    H223718   7.925   4.221   3.248
 7929TIP3   OH223719   7.288   4.296   3.211
 7929TIP3    H123720   7.194   4.302   3.183
 7929TIP3    H223721   7.313   4.205   3.188
 7930TIP3   OH223722   7.555   4.293   2.902
 7930TIP3    H123723   7.650   4.305   2.883
 7930TIP3    H223724   7.511   4.315   2.817
 7931TIP3   OH223725   8.269   4.334   3.400
 7931TIP3    H123726   8.258   4.336   3.497
 7931TIP3    H223727   8.348   4.278   3.390
 7932TIP3   OH223728   7.400   4.329   2.677
 7932TIP3    H123729   7.329   4.282   2.630
 7932TIP3    H223730   7.452   4.364   2.602
 7933TIP3   OH223731   8.507   6.013   3.624
 7933TIP3    H123732   8.506   6.023   3.525
 7933TIP3    H223733   8.588   6.061   3.646
 7934TIP3   OH223734   7.940   4.573   3.305
 7934TIP3    H123735   7.999   4.522   3.248
 7934TIP3    H223736   7.944   4.522   3.388
 7935TIP3   OH223737   7.458   4.055   3.180
 7935TIP3    H123738   7.424   3.976   3.228
 7935TIP3    H223739   7.511   4.015   3.110
 7936TIP3   OH223740   7.914   4.464   3.592
 7936TIP3    H123741   7.824   4.501   3.605
 7936TIP3    H223742   7.971   4.526   3.642
 7937TIP3   OH223743   7.650   4.857   2.685
 7937TIP3    H123744   7.578   4.790   2.673
 7937TIP3    H223745   7.630   4.889   2.776
 7938TIP3   OH223746   8.550   5.092   3.303
 7938TIP3    H123747   8.568   5.103   3.209
 7938TIP3    H223748   8.462   5.050   3.300
 7939TIP3   OH223749   8.125   4.167   2.556
 7939TIP3    H123750   8.031   4.139   2.555
 7939TIP3    H223751   8.118   4.264   2.567
 7940TIP3   OH223752   8.041   5.170   3.683
 7940TIP3    H123753   8.086   5.152   3.766
 7940TIP3    H223754   8.016   5.264   3.691
 7941TIP3   OH223755   8.199   4.427   2.640
 7941TIP3    H123756   8.289   4.462   2.640
 7941TIP3    H223757   8.150   4.497   2.592
 7942TIP3   OH223758   7.345   4.882   3.359
 7942TIP3    H123759   7.380   4.854   3.272
 7942TIP3    H223760   7.387   4.817   3.417
 7943TIP3   OH223761   7.798   5.006   2.509
 7943TIP3    H123762   7.749   5.092   2.514
 7943TIP3    H223763   7.742   4.950   2.567
 7944TIP3   OH223764   7.221   4.800   3.975
 7944TIP3    H123765   7.232   4.774   4.068
 7944TIP3    H223766   7.154   4.735   3.945
 7945TIP3   OH223767   7.949   4.912   3.995
 7945TIP3    H123768   7.893   4.856   3.940
 7945TIP3    H223769   8.038   4.880   3.969
 7946TIP3   OH223770   8.209   5.435   3.579
 7946TIP3    H123771   8.112   5.436   3.591
 7946TIP3    H223772   8.237   5.487   3.657
 7947TIP3   OH223773   8.308   5.334   2.396
 7947TIP3    H123774   8.307   5.273   2.471
 7947TIP3    H223775   8.334   5.278   2.321
 7948TIP3   OH223776   8.309   4.956   3.236
 7948TIP3    H123777   8.215   4.932   3.247
 7948TIP3    H223778   8.345   4.870   3.204
 7949TIP3   OH223779   7.444   5.184   2.991
 7949TIP3    H123780   7.445   5.264   2.935
 7949TIP3    H223781   7.350   5.163   2.992
 7950TIP3   OH223782   7.008   4.486   2.691
 7950TIP3    H123783   7.054   4.570   2.712
 7950TIP3    H223784   6.931   4.491   2.751
 7951TIP3   OH223785   7.581   4.949   2.931
 7951TIP3    H123786   7.546   5.038   2.951
 7951TIP3    H223787   7.545   4.897   3.004
 7952TIP3   OH223788   7.715   5.525   3.456
 7952TIP3    H123789   7.755   5.598   3.403
 7952TIP3    H223790   7.794   5.489   3.500
 7953TIP3   OH223791   7.364   5.420   2.840
 7953TIP3    H123792   7.277   5.429   2.884
 7953TIP3    H223793   7.395   5.514   2.841
 7954TIP3   OH223794   8.101   5.161   3.414
 7954TIP3    H123795   8.089   5.156   3.511
 7954TIP3    H223796   8.181   5.108   3.402
 7955TIP3   OH223797   8.060   5.056   2.308
 7955TIP3    H123798   8.117   5.029   2.383
 7955TIP3    H223799   7.973   5.028   2.339
 7956TIP3   OH223800   8.350   5.694   3.465
 7956TIP3    H123801   8.273   5.635   3.458
 7956TIP3    H223802   8.332   5.757   3.393
 7957TIP3   OH223803   7.433   4.308   3.981
 7957TIP3    H123804   7.336   4.309   3.991
 7957TIP3    H223805   7.460   4.244   4.049
 7958TIP3   OH223806   8.231   4.979   2.511
 7958TIP3    H123807   8.218   4.912   2.581
 7958TIP3    H223808   8.309   5.024   2.543
 7959TIP3   OH223809   7.149   5.392   3.609
 7959TIP3    H123810   7.204   5.317   3.635
 7959TIP3    H223811   7.176   5.461   3.671
 7960TIP3   OH223812   7.442   5.033   2.296
 7960TIP3    H123813   7.455   4.941   2.267
 7960TIP3    H223814   7.421   5.021   2.391
 7961TIP3   OH223815   7.386   5.038   2.569
 7961TIP3    H123816   7.459   5.010   2.626
 7961TIP3    H223817   7.391   5.136   2.576
 7962TIP3   OH223818   7.122   4.731   2.772
 7962TIP3    H123819   7.055   4.776   2.829
 7962TIP3    H223820   7.136   4.800   2.704
 7963TIP3   OH223821   8.267   4.394   3.676
 7963TIP3    H123822   8.359   4.410   3.702
 7963TIP3    H223823   8.247   4.308   3.719
 7964TIP3   OH223824   8.127   4.135   2.838
 7964TIP3    H123825   8.133   4.143   2.742
 7964TIP3    H223826   8.179   4.211   2.870
 7965TIP3   OH223827   7.655   5.236   2.519
 7965TIP3    H123828   7.567   5.262   2.553
 7965TIP3    H223829   7.669   5.305   2.453
 7966TIP3   OH223830   7.835   4.303   2.932
 7966TIP3    H123831   7.906   4.369   2.916
 7966TIP3    H223832   7.843   4.291   3.029
 7967TIP3   OH223833   8.108   4.616   3.739
 7967TIP3    H123834   8.140   4.660   3.819
 7967TIP3    H223835   8.167   4.538   3.732
 7968TIP3   OH223836   7.978   4.016   3.032
 7968TIP3    H123837   8.009   4.065   3.111
 7968TIP3    H223838   8.033   4.059   2.962
 7969TIP3   OH223839   7.399   5.312   2.585
 7969TIP3    H123840   7.368   5.381   2.522
 7969TIP3    H223841   7.381   5.355   2.672
 7970TIP3   OH223842   7.497   4.025   2.822
 7970TIP3    H123843   7.495   4.114   2.861
 7970TIP3    H223844   7.593   4.006   2.830
 7971TIP3   OH223845   8.397   4.697   3.141
 7971TIP3    H123846   8.312   4.657   3.114
 7971TIP3    H223847   8.411   4.651   3.225
 7972TIP3   OH223848   7.115   4.939   2.578
 7972TIP3    H123849   7.184   5.008   2.585
 7972TIP3    H223850   7.158   4.882   2.510
 7973TIP3   OH223851   7.059   4.215   2.710
 7973TIP3    H123852   7.058   4.313   2.707
 7973TIP3    H223853   6.975   4.193   2.669
 7974TIP3   OH223854   8.377   5.673   3.056
 7974TIP3    H123855   8.336   5.721   2.980
 7974TIP3    H223856   8.471   5.678   3.034
 7975TIP3   OH223857   7.445   3.937   3.584
 7975TIP3    H123858   7.415   3.903   3.497
 7975TIP3    H223859   7.436   3.858   3.641
 7976TIP3   OH223860   6.986   5.160   2.964
 7976TIP3    H123861   6.915   5.187   3.024
 7976TIP3    H223862   6.954   5.199   2.879
 7977TIP3   OH223863   7.142   5.692   4.036
 7977TIP3    H123864   7.224   5.692   4.091
 7977TIP3    H223865   7.115   5.598   4.038
 7978TIP3   OH223866   7.623   5.657   4.082
 7978TIP3    H123867   7.717   5.647   4.105
 7978TIP3    H223868   7.618   5.602   4.003
 7979TIP3   OH223869   7.606   5.237   2.210
 7979TIP3    H123870   7.550   5.164   2.247
 7979TIP3    H223871   7.680   5.185   2.174
 7980TIP3   OH223872   8.255   5.570   3.818
 7980TIP3    H123873   8.252   5.497   3.884
 7980TIP3    H223874   8.337   5.617   3.843
 7981TIP3   OH223875   8.036   5.280   2.117
 7981TIP3    H123876   8.078   5.215   2.177
 7981TIP3    H223877   8.091   5.275   2.037
 7982TIP3   OH223878   7.322   5.119   4.187
 7982TIP3    H123879   7.335   5.023   4.204
 7982TIP3    H223880   7.227   5.123   4.162
 7983TIP3   OH223881   7.250   4.753   2.430
 7983TIP3    H123882   7.306   4.719   2.503
 7983TIP3    H223883   7.317   4.757   2.358
 7984TIP3   OH223884   7.866   5.182   4.015
 7984TIP3    H123885   7.845   5.202   3.924
 7984TIP3    H223886   7.907   5.093   4.008
 7985TIP3   OH223887   7.761   4.952   2.238
 7985TIP3    H123888   7.761   4.964   2.335
 7985TIP3    H223889   7.763   4.854   2.232
 7986TIP3   OH223890   8.372   5.197   3.619
 7986TIP3    H123891   8.451   5.235   3.576
 7986TIP3    H223892   8.307   5.267   3.601
 7987TIP3   OH223893   7.414   4.858   4.204
 7987TIP3    H123894   7.460   4.773   4.196
 7987TIP3    H223895   7.423   4.873   4.301
 7988TIP3   OH223896   7.460   4.658   2.652
 7988TIP3    H123897   7.432   4.614   2.734
 7988TIP3    H223898   7.495   4.582   2.600
 7989TIP3   OH223899   7.723   4.721   3.876
 7989TIP3    H123900   7.649   4.785   3.872
 7989TIP3    H223901   7.779   4.751   3.802
 7990TIP3   OH223902   7.559   4.453   2.491
 7990TIP3    H123903   7.533   4.456   2.397
 7990TIP3    H223904   7.657   4.457   2.483
 7991TIP3   OH223905   8.246   5.125   4.012
 7991TIP3    H123906   8.322   5.100   3.960
 7991TIP3    H223907   8.243   5.055   4.080
 7992TIP3   OH223908   7.848   4.510   4.008
 7992TIP3    H123909   7.852   4.430   3.953
 7992TIP3    H223910   7.807   4.575   3.947
 7993TIP3   OH223911   7.852   4.300   3.816
 7993TIP3    H123912   7.882   4.338   3.731
 7993TIP3    H223913   7.759   4.275   3.795
 7994TIP3   OH223914   7.880   4.832   3.690
 7994TIP3    H123915   7.965   4.834   3.643
 7994TIP3    H223916   7.828   4.900   3.641
 7995TIP3   OH223917   8.466   4.803   4.074
 7995TIP3    H123918   8.503   4.714   4.062
 7995TIP3    H223919   8.531   4.859   4.029
 7996TIP3   OH223920   8.510   5.053   3.808
 7996TIP3    H123921   8.458   5.107   3.743
 7996TIP3    H223922   8.592   5.038   3.755
 7997TIP3   OH223923   7.724   4.623   4.235
 7997TIP3    H123924   7.660   4.550   4.251
 7997TIP3    H223925   7.763   4.596   4.150
 7998TIP3   OH223926   7.976   4.061   3.885
 7998TIP3    H123927   7.924   4.142   3.863
 7998TIP3    H223928   7.909   3.990   3.872
 7999TIP3   OH223929   8.109   4.565   4.096
 7999TIP3    H123930   8.097   4.549   4.191
 7999TIP3    H223931   8.020   4.539   4.064
 8000TIP3   OH223932   8.356   4.529   3.955
 8000TIP3    H123933   8.274   4.520   4.007
 8000TIP3    H223934   8.420   4.480   4.011
 8001TIP3   OH223935   8.550   4.422   4.114
 8001TIP3    H123936   8.602   4.344   4.136
 8001TIP3    H223937   8.566   4.480   4.192
 8002TIP3   OH223938   7.571   4.401   4.291
 8002TIP3    H123939   7.573   4.310   4.255
 8002TIP3    H223940   7.608   4.385   4.381
 8003TIP3   OH223941   8.074   4.073   4.142
 8003TIP3    H123942   8.138   3.999   4.141
 8003TIP3    H223943   8.037   4.065   4.051
 8004TIP3   OH223944   8.148   4.287   4.296
 8004TIP3    H123945   8.125   4.215   4.233
 8004TIP3    H223946   8.069   4.345   4.289
 8005TIP3   OH223947   7.368   5.515   2.399
 8005TIP3    H123948   7.463   5.509   2.377
 8005TIP3    H223949   7.336   5.563   2.320
 8006TIP3   OH223950   6.846   4.895   2.615
 8006TIP3    H123951   6.941   4.916   2.600
 8006TIP3    H223952   6.840   4.806   2.572
 8007TIP3   OH223953   6.763   5.508   3.025
 8007TIP3    H123954   6.694   5.448   2.989
 8007TIP3    H223955   6.806   5.449   3.091
 8008TIP3   OH223956   6.897   5.358   3.213
 8008TIP3    H123957   6.878   5.286   3.275
 8008TIP3    H223958   6.947   5.419   3.269
 8009TIP3   OH223959   8.686   5.761   3.290
 8009TIP3    H123960   8.635   5.678   3.282
 8009TIP3    H223961   8.684   5.773   3.385
 8010TIP3   OH223962   8.666   5.480   3.870
 8010TIP3    H123963   8.601   5.476   3.943
 8010TIP3    H223964   8.709   5.567   3.883
 8011TIP3   OH223965   8.533   5.530   3.314
 8011TIP3    H123966   8.467   5.564   3.377
 8011TIP3    H223967   8.478   5.476   3.253
 8012TIP3   OH223968   8.434   4.661   2.831
 8012TIP3    H123969   8.520   4.615   2.842
 8012TIP3    H223970   8.433   4.711   2.915
 8013TIP3   OH223971   7.083   4.767   3.587
 8013TIP3    H123972   7.080   4.733   3.495
 8013TIP3    H223973   7.181   4.769   3.602
 8014TIP3   OH223974   7.306   4.460   4.274
 8014TIP3    H123975   7.403   4.446   4.268
 8014TIP3    H223976   7.278   4.371   4.303
 8015TIP3   OH223977   7.263   4.146   3.595
 8015TIP3    H123978   7.323   4.069   3.602
 8015TIP3    H223979   7.327   4.219   3.585
 8016TIP3   OH223980   7.067   4.422   3.664
 8016TIP3    H123981   7.112   4.406   3.579
 8016TIP3    H223982   7.107   4.505   3.691
 8017TIP3   OH223983   7.048   3.925   3.168
 8017TIP3    H123984   6.954   3.919   3.193
 8017TIP3    H223985   7.044   3.981   3.088
 8018TIP3   OH223986   8.206   5.627   2.674
 8018TIP3    H123987   8.252   5.611   2.588
 8018TIP3    H223988   8.266   5.690   2.716
 8019TIP3   OH223989   7.270   4.009   3.983
 8019TIP3    H123990   7.216   3.995   4.063
 8019TIP3    H223991   7.202   4.041   3.920
 8020TIP3   OH223992   7.492   5.469   3.610
 8020TIP3    H123993   7.443   5.543   3.568
 8020TIP3    H223994   7.577   5.481   3.561
 8021TIP3   OH223995   7.929   5.709   3.742
 8021TIP3    H123996   7.973   5.707   3.830
 8021TIP3    H223997   7.996   5.757   3.689
 8022TIP3   OH223998   8.109   5.858   3.600
 8022TIP3    H123999   8.180   5.808   3.557
 8022TIP3    H224000   8.161   5.915   3.661
 8023TIP3   OH224001   7.164   5.719   3.631
 8023TIP3    H124002   7.075   5.749   3.602
 8023TIP3    H224003   7.168   5.763   3.717
 8024TIP3   OH224004   7.399   5.698   3.487
 8024TIP3    H124005   7.312   5.711   3.530
 8024TIP3    H224006   7.380   5.729   3.396
 8025TIP3   OH224007   7.823   5.725   3.285
 8025TIP3    H124008   7.755   5.745   3.218
 8025TIP3    H224009   7.837   5.814   3.325
 8026TIP3   OH224010   8.092   5.663   3.337
 8026TIP3    H124011   7.999   5.683   3.315
 8026TIP3    H224012   8.139   5.738   3.295
 8027TIP3   OH224013   8.282   5.850   3.247
 8027TIP3    H124014   8.278   5.938   3.203
 8027TIP3    H224015   8.316   5.793   3.175
 8028TIP3   OH224016   7.074   5.514   3.369
 8028TIP3    H124017   7.099   5.487   3.460
 8028TIP3    H224018   7.147   5.471   3.319
 8029TIP3   OH224019   7.269   5.384   3.232
 8029TIP3    H124020   7.286   5.300   3.280
 8029TIP3    H224021   7.359   5.421   3.225
 8030TIP3   OH224022   7.536   5.480   3.233
 8030TIP3    H124023   7.566   5.388   3.217
 8030TIP3    H224024   7.583   5.498   3.316
 8031TIP3   OH224025   8.064   4.106   3.279
 8031TIP3    H124026   8.050   4.052   3.359
 8031TIP3    H224027   8.161   4.098   3.267
 8032TIP3   OH224028   7.359   3.843   3.336
 8032TIP3    H124029   7.267   3.809   3.337
 8032TIP3    H224030   7.408   3.758   3.333
 8033TIP3   OH224031   7.145   3.714   2.984
 8033TIP3    H124032   7.175   3.771   2.912
 8033TIP3    H224033   7.117   3.779   3.051
 8034TIP3   OH224034   7.801   3.878   3.217
 8034TIP3    H124035   7.857   3.924   3.152
 8034TIP3    H224036   7.836   3.913   3.300
 8035TIP3   OH224037   8.316   4.008   3.198
 8035TIP3    H124038   8.340   3.981   3.109
 8035TIP3    H224039   8.315   3.921   3.244
 8036TIP3   OH224040   6.863   5.286   2.761
 8036TIP3    H124041   6.777   5.253   2.729
 8036TIP3    H224042   6.852   5.381   2.738
 8037TIP3   OH224043   7.264   3.874   2.746
 8037TIP3    H124044   7.312   3.810   2.690
 8037TIP3    H224045   7.337   3.927   2.783
 8038TIP3   OH224046   7.773   4.051   2.845
 8038TIP3    H124047   7.834   4.004   2.905
 8038TIP3    H224048   7.795   4.143   2.870
 8039TIP3   OH224049   7.635   5.472   2.346
 8039TIP3    H124050   7.723   5.494   2.309
 8039TIP3    H224051   7.613   5.397   2.286
 8040TIP3   OH224052   8.341   5.598   2.441
 8040TIP3    H124053   8.340   5.501   2.429
 8040TIP3    H224054   8.314   5.627   2.352
 8041TIP3   OH224055   7.566   4.128   4.231
 8041TIP3    H124056   7.533   4.054   4.285
 8041TIP3    H224057   7.661   4.126   4.255
 8042TIP3   OH224058   7.817   4.124   4.346
 8042TIP3    H124059   7.900   4.097   4.305
 8042TIP3    H224060   7.805   4.052   4.413
 8043TIP3   OH224061   6.939   5.309   2.401
 8043TIP3    H124062   6.938   5.334   2.494
 8043TIP3    H224063   7.027   5.267   2.390
 8044TIP3   OH224064   8.572   5.746   3.630
 8044TIP3    H124065   8.497   5.707   3.580
 8044TIP3    H224066   8.548   5.840   3.630
 8045TIP3   OH224067   0.503   5.642   4.591
 8045TIP3    H124068   0.465   5.732   4.590
 8045TIP3    H224069   0.431   5.593   4.544
 8046TIP3   OH224070   0.516   5.626   4.968
 8046TIP3    H124071   0.542   5.599   5.058
 8046TIP3    H224072   0.468   5.548   4.937
 8047TIP3   OH224073   0.745   5.942   4.658
 8047TIP3    H124074   0.733   5.873   4.724
 8047TIP3    H224075   0.774   6.018   4.712
 8048TIP3   OH224076   0.446   6.425   4.660
 8048TIP3    H124077   0.489   6.342   4.636
 8048TIP3    H224078   0.379   6.394   4.724
 8049TIP3   OH224079   0.328   5.836   5.033
 8049TIP3    H124080   0.361   5.761   4.980
 8049TIP3    H224081   0.411   5.886   5.046
 8050TIP3   OH224082   1.313   5.186   5.022
 8050TIP3    H124083   1.343   5.268   5.066
 8050TIP3    H224084   1.335   5.205   4.929
 8051TIP3   OH224085   0.715   5.368   5.056
 8051TIP3    H124086   0.754   5.281   5.077
 8051TIP3    H224087   0.682   5.352   4.966
 8052TIP3   OH224088   0.746   5.119   4.645
 8052TIP3    H124089   0.819   5.103   4.709
 8052TIP3    H224090   0.795   5.154   4.569
 8053TIP3   OH224091   1.388   5.394   5.190
 8053TIP3    H124092   1.303   5.440   5.173
 8053TIP3    H224093   1.400   5.416   5.284
 8054TIP3   OH224094   0.365   5.875   4.480
 8054TIP3    H124095   0.345   5.827   4.396
 8054TIP3    H224096   0.439   5.931   4.454
 8055TIP3   OH224097   0.956   5.120   4.818
 8055TIP3    H124098   0.936   5.075   4.901
 8055TIP3    H224099   1.007   5.198   4.848
 8056TIP3   OH224100   0.813   6.184   4.823
 8056TIP3    H124101   0.723   6.176   4.862
 8056TIP3    H224102   0.807   6.273   4.782
 8057TIP3   OH224103   1.107   5.086   5.189
 8057TIP3    H124104   1.019   5.113   5.159
 8057TIP3    H224105   1.165   5.117   5.116
 8058TIP3   OH224106   0.408   4.720   5.160
 8058TIP3    H124107   0.398   4.625   5.184
 8058TIP3    H224108   0.367   4.763   5.236
 8059TIP3   OH224109   0.511   6.214   4.483
 8059TIP3    H124110   0.562   6.132   4.464
 8059TIP3    H224111   0.574   6.282   4.450
 8060TIP3   OH224112   0.637   5.987   4.406
 8060TIP3    H124113   0.666   5.917   4.345
 8060TIP3    H224114   0.688   5.965   4.488
 8061TIP3   OH224115   1.041   6.097   5.169
 8061TIP3    H124116   1.029   6.020   5.110
 8061TIP3    H224117   1.023   6.172   5.109
 8062TIP3   OH224118   0.330   5.514   4.422
 8062TIP3    H124119   0.250   5.460   4.442
 8062TIP3    H224120   0.358   5.480   4.335
 8063TIP3   OH224121   0.313   5.262   4.181
 8063TIP3    H124122   0.385   5.325   4.195
 8063TIP3    H224123   0.351   5.209   4.108
 8064TIP3   OH224124   1.237   5.736   5.014
 8064TIP3    H124125   1.153   5.787   5.019
 8064TIP3    H224126   1.266   5.759   4.923
 8065TIP3   OH224127   0.683   5.577   4.396
 8065TIP3    H124128   0.627   5.598   4.475
 8065TIP3    H224129   0.765   5.546   4.441
 8066TIP3   OH224130   0.916   5.614   5.309
 8066TIP3    H124131   0.912   5.697   5.360
 8066TIP3    H224132   0.830   5.616   5.264
 8067TIP3   OH224133   0.570   6.181   4.939
 8067TIP3    H124134   0.555   6.262   4.991
 8067TIP3    H224135   0.560   6.110   5.006
 8068TIP3   OH224136   0.525   5.430   4.225
 8068TIP3    H124137   0.581   5.492   4.277
 8068TIP3    H224138   0.550   5.454   4.132
 8069TIP3   OH224139   1.036   4.671   4.274
 8069TIP3    H124140   0.954   4.691   4.324
 8069TIP3    H224141   1.048   4.755   4.225
 8070TIP3   OH224142   0.837   6.041   3.821
 8070TIP3    H124143   0.844   6.138   3.805
 8070TIP3    H224144   0.929   6.012   3.807
 8071TIP3   OH224145   1.279   6.443   5.217
 8071TIP3    H124146   1.277   6.346   5.230
 8071TIP3    H224147   1.195   6.468   5.261
 8072TIP3   OH224148   0.352   6.264   3.938
 8072TIP3    H124149   0.410   6.191   3.908
 8072TIP3    H224150   0.368   6.266   4.034
 8073TIP3   OH224151   0.394   6.310   4.218
 8073TIP3    H124152   0.328   6.313   4.289
 8073TIP3    H224153   0.472   6.283   4.268
 8074TIP3   OH224154   1.167   5.574   5.490
 8074TIP3    H124155   1.086   5.584   5.439
 8074TIP3    H224156   1.184   5.478   5.480
 8075TIP3   OH224157   0.712   4.922   5.486
 8075TIP3    H124158   0.774   4.896   5.557
 8075TIP3    H224159   0.624   4.908   5.528
 8076TIP3   OH224160   0.940   5.351   5.415
 8076TIP3    H124161   0.889   5.345   5.499
 8076TIP3    H224162   0.910   5.436   5.378
 8077TIP3   OH224163   0.600   5.481   3.970
 8077TIP3    H124164   0.553   5.451   3.890
 8077TIP3    H224165   0.681   5.520   3.933
 8078TIP3   OH224166   0.302   4.857   4.248
 8078TIP3    H124167   0.289   4.856   4.346
 8078TIP3    H224168   0.270   4.766   4.228
 8079TIP3   OH224169   0.475   5.301   4.562
 8079TIP3    H124170   0.416   5.367   4.521
 8079TIP3    H224171   0.521   5.264   4.484
 8080TIP3   OH224172   0.668   5.566   5.644
 8080TIP3    H124173   0.636   5.492   5.700
 8080TIP3    H224174   0.762   5.568   5.668
 8081TIP3   OH224175   0.627   5.320   4.798
 8081TIP3    H124176   0.566   5.348   4.726
 8081TIP3    H224177   0.662   5.239   4.755
 8082TIP3   OH224178   0.637   5.567   5.221
 8082TIP3    H124179   0.673   5.497   5.160
 8082TIP3    H224180   0.613   5.509   5.297
 8083TIP3   OH224181   0.318   5.026   4.885
 8083TIP3    H124182   0.226   5.042   4.912
 8083TIP3    H224183   0.368   5.032   4.968
 8084TIP3   OH224184   0.798   5.102   5.095
 8084TIP3    H124185   0.766   5.116   5.187
 8084TIP3    H224186   0.730   5.039   5.063
 8085TIP3   OH224187   0.972   6.790   5.315
 8085TIP3    H124188   0.969   6.815   5.221
 8085TIP3    H224189   1.049   6.842   5.347
 8086TIP3   OH224190   0.401   5.350   4.991
 8086TIP3    H124191   0.470   5.308   4.938
 8086TIP3    H224192   0.413   5.310   5.079
 8087TIP3   OH224193   0.387   5.231   5.279
 8087TIP3    H124194   0.320   5.303   5.279
 8087TIP3    H224195   0.456   5.273   5.334
 8088TIP3   OH224196   1.003   5.880   5.003
 8088TIP3    H124197   1.028   5.930   4.922
 8088TIP3    H224198   0.918   5.838   4.977
 8089TIP3   OH224199   0.557   4.956   4.240
 8089TIP3    H124200   0.460   4.940   4.242
 8089TIP3    H224201   0.564   5.051   4.263
 8090TIP3   OH224202   0.502   5.971   5.367
 8090TIP3    H124203   0.520   5.952   5.460
 8090TIP3    H224204   0.445   6.050   5.373
 8091TIP3   OH224205   0.630   5.203   4.345
 8091TIP3    H124206   0.726   5.210   4.357
 8091TIP3    H224207   0.609   5.280   4.289
 8092TIP3   OH224208   0.246   5.802   4.227
 8092TIP3    H124209   0.169   5.855   4.205
 8092TIP3    H224210   0.205   5.719   4.258
 8093TIP3   OH224211   0.446   5.690   5.735
 8093TIP3    H124212   0.406   5.604   5.721
 8093TIP3    H224213   0.535   5.673   5.698
 8094TIP3   OH224214   0.667   6.224   5.258
 8094TIP3    H124215   0.573   6.218   5.275
 8094TIP3    H224216   0.698   6.274   5.338
 8095TIP3   OH224217   1.073   5.294   4.175
 8095TIP3    H124218   1.012   5.248   4.113
 8095TIP3    H224219   1.068   5.383   4.135
 8096TIP3   OH224220   1.291   6.152   5.257
 8096TIP3    H124221   1.194   6.147   5.249
 8096TIP3    H224222   1.317   6.123   5.167
 8097TIP3   OH224223   0.775   6.112   4.086
 8097TIP3    H124224   0.746   6.038   4.140
 8097TIP3    H224225   0.785   6.070   3.998
 8098TIP3   OH224226   0.772   5.742   4.918
 8098TIP3    H124227   0.679   5.714   4.932
 8098TIP3    H224228   0.807   5.662   4.875
 8099TIP3   OH224229   0.569   5.948   5.102
 8099TIP3    H124230   0.556   5.955   5.200
 8099TIP3    H224231   0.651   5.897   5.097
 8100TIP3   OH224232   0.532   5.844   3.981
 8100TIP3    H124233   0.572   5.819   4.067
 8100TIP3    H224234   0.444   5.803   3.988
 8101TIP3   OH224235   0.807   6.477   5.152
 8101TIP3    H124236   0.729   6.419   5.150
 8101TIP3    H224237   0.784   6.543   5.083
 8102TIP3   OH224238   0.869   6.316   3.804
 8102TIP3    H124239   0.905   6.392   3.755
 8102TIP3    H224240   0.788   6.359   3.839
 8103TIP3   OH224241   0.693   5.787   4.217
 8103TIP3    H124242   0.680   5.710   4.276
 8103TIP3    H224243   0.787   5.775   4.193
 8104TIP3   OH224244   0.724   5.161   5.353
 8104TIP3    H124245   0.805   5.194   5.395
 8104TIP3    H224246   0.708   5.078   5.404
 8105TIP3   OH224247   0.615   4.902   4.519
 8105TIP3    H124248   0.587   4.926   4.428
 8105TIP3    H224249   0.646   4.988   4.554
 8106TIP3   OH224250   0.292   5.099   4.621
 8106TIP3    H124251   0.361   5.166   4.608
 8106TIP3    H224252   0.293   5.085   4.717
 8107TIP3   OH224253   0.574   5.405   5.428
 8107TIP3    H124254   0.596   5.455   5.509
 8107TIP3    H224255   0.617   5.319   5.445
 8108TIP3   OH224256   0.451   4.817   4.741
 8108TIP3    H124257   0.422   4.900   4.783
 8108TIP3    H224258   0.497   4.850   4.661
 8109TIP3   OH224259   1.205   5.306   5.408
 8109TIP3    H124260   1.107   5.307   5.418
 8109TIP3    H224261   1.211   5.259   5.324
 8110TIP3   OH224262   0.855   5.500   4.796
 8110TIP3    H124263   0.777   5.442   4.809
 8110TIP3    H224264   0.924   5.451   4.845
 8111TIP3   OH224265   0.825   6.453   4.749
 8111TIP3    H124266   0.784   6.501   4.673
 8111TIP3    H224267   0.920   6.473   4.729
 8112TIP3   OH224268   0.729   6.348   5.491
 8112TIP3    H124269   0.706   6.294   5.569
 8112TIP3    H224270   0.793   6.411   5.528
 8113TIP3   OH224271   0.498   6.067   3.814
 8113TIP3    H124272   0.531   5.994   3.871
 8113TIP3    H224273   0.555   6.060   3.735
 8114TIP3   OH224274   0.239   5.735   3.922
 8114TIP3    H124275   0.212   5.724   4.014
 8114TIP3    H224276   0.209   5.650   3.883
 8115TIP3   OH224277   0.825   5.984   5.306
 8115TIP3    H124278   0.900   6.030   5.263
 8115TIP3    H224279   0.754   6.050   5.294
 8116TIP3   OH224280   0.043   5.259   4.230
 8116TIP3    H124281   0.026   5.232   4.137
 8116TIP3    H224282   0.141   5.260   4.228
 8117TIP3   OH224283   0.693   5.915   5.711
 8117TIP3    H124284   0.763   5.884   5.653
 8117TIP3    H224285   0.694   5.846   5.781
 8118TIP3   OH224286   0.834   5.570   3.843
 8118TIP3    H124287   0.811   5.523   3.761
 8118TIP3    H224288   0.802   5.660   3.820
 8119TIP3   OH224289   0.233   5.039   5.433
 8119TIP3    H124290   0.299   5.091   5.381
 8119TIP3    H224291   0.243   5.077   5.517
 8120TIP3   OH224292   0.386   5.677   5.329
 8120TIP3    H124293   0.477   5.653   5.304
 8120TIP3    H224294   0.372   5.755   5.278
 8121TIP3   OH224295   0.922   5.583   5.757
 8121TIP3    H124296   0.966   5.497   5.769
 8121TIP3    H224297   0.993   5.635   5.717
 8122TIP3   OH224298   0.955   5.842   5.496
 8122TIP3    H124299   0.899   5.896   5.436
 8122TIP3    H224300   1.043   5.860   5.456
 8123TIP3   OH224301   0.457   4.834   5.533
 8123TIP3    H124302   0.430   4.918   5.575
 8123TIP3    H224303   0.378   4.779   5.545
 8124TIP3   OH224304   0.556   5.365   5.786
 8124TIP3    H124305   0.553   5.352   5.882
 8124TIP3    H224306   0.504   5.287   5.756
 8125TIP3   OH224307   0.807   5.300   5.644
 8125TIP3    H124308   0.727   5.284   5.698
 8125TIP3    H224309   0.878   5.268   5.702
 8126TIP3   OH224310   1.040   5.245   5.795
 8126TIP3    H124311   1.049   5.149   5.811
 8126TIP3    H224312   1.030   5.281   5.885
 8127TIP3   OH224313   0.525   4.819   5.851
 8127TIP3    H124314   0.593   4.762   5.811
 8127TIP3    H224315   0.498   4.878   5.778
 8128TIP3   OH224316   0.601   5.068   5.987
 8128TIP3    H124317   0.580   4.993   5.928
 8128TIP3    H224318   0.527   5.128   5.965
 8129TIP3   OH224319   1.079   6.545   4.705
 8129TIP3    H124320   1.101   6.579   4.793
 8129TIP3    H224321   1.140   6.594   4.648
 8130TIP3   OH224322   1.106   6.568   4.987
 8130TIP3    H124323   1.062   6.480   4.984
 8130TIP3    H224324   1.182   6.546   5.043
 8131TIP3   OH224325   1.156   6.245   5.558
 8131TIP3    H124326   1.083   6.253   5.621
 8131TIP3    H224327   1.196   6.334   5.562
 8132TIP3   OH224328   0.968   5.757   4.179
 8132TIP3    H124329   1.037   5.820   4.151
 8132TIP3    H224330   1.010   5.716   4.258
 8133TIP3   OH224331   1.095   5.625   4.382
 8133TIP3    H124332   1.030   5.581   4.441
 8133TIP3    H224333   1.161   5.661   4.446
 8134TIP3   OH224334   1.151   6.017   4.814
 8134TIP3    H124335   1.205   5.952   4.766
 8134TIP3    H224336   1.144   6.090   4.750
 8135TIP3   OH224337   0.982   6.315   5.008
 8135TIP3    H124338   0.912   6.360   5.060
 8135TIP3    H224339   0.930   6.269   4.940
 8136TIP3   OH224340   1.034   5.532   4.029
 8136TIP3    H124341   0.961   5.534   3.962
 8136TIP3    H224342   1.006   5.608   4.084
 8137TIP3   OH224343   0.909   5.202   3.978
 8137TIP3    H124344   0.855   5.241   3.909
 8137TIP3    H224345   0.885   5.107   3.970
 8138TIP3   OH224346   0.910   5.480   4.527
 8138TIP3    H124347   0.916   5.383   4.521
 8138TIP3    H224348   0.895   5.493   4.623
 8139TIP3   OH224349   1.199   5.906   5.387
 8139TIP3    H124350   1.271   5.839   5.376
 8139TIP3    H224351   1.225   5.974   5.324
 8140TIP3   OH224352   1.384   5.710   5.399
 8140TIP3    H124353   1.309   5.660   5.438
 8140TIP3    H224354   1.456   5.645   5.415
 8141TIP3   OH224355   0.850   4.936   3.964
 8141TIP3    H124356   0.919   4.905   4.026
 8141TIP3    H224357   0.772   4.883   3.990
 8142TIP3   OH224358   0.908   5.198   4.423
 8142TIP3    H124359   0.947   5.109   4.439
 8142TIP3    H224360   0.965   5.229   4.351
 8143TIP3   OH224361   1.067   5.369   4.918
 8143TIP3    H124362   1.153   5.395   4.878
 8143TIP3    H224363   1.080   5.406   5.008
 8144TIP3   OH224364   1.137   5.515   5.150
 8144TIP3    H124365   1.059   5.548   5.199
 8144TIP3    H224366   1.169   5.596   5.105
 8145TIP3   OH224367   1.589   5.108   5.706
 8145TIP3    H124368   1.647   5.041   5.664
 8145TIP3    H224369   1.560   5.162   5.629
 8146TIP3   OH224370   1.016   4.947   4.460
 8146TIP3    H124371   1.061   4.931   4.545
 8146TIP3    H224372   0.953   4.872   4.458
 8147TIP3   OH224373   1.458   5.245   5.511
 8147TIP3    H124374   1.371   5.285   5.530
 8147TIP3    H224375   1.430   5.172   5.453
 8148TIP3   OH224376   1.095   4.880   4.096
 8148TIP3    H124377   1.134   4.809   4.041
 8148TIP3    H224378   1.162   4.952   4.089
 8149TIP3   OH224379   0.660   6.400   4.361
 8149TIP3    H124380   0.716   6.398   4.281
 8149TIP3    H224381   0.701   6.473   4.411
 8150TIP3   OH224382   0.556   6.639   5.299
 8150TIP3    H124383   0.619   6.578   5.260
 8150TIP3    H224384   0.616   6.697   5.351
 8151TIP3   OH224385   1.358   5.007   5.390
 8151TIP3    H124386   1.267   4.999   5.357
 8151TIP3    H224387   1.390   4.915   5.379
 8152TIP3   OH224388   0.541   6.457   5.026
 8152TIP3    H124389   0.454   6.486   5.055
 8152TIP3    H224390   0.575   6.537   4.983
 8153TIP3   OH224391   0.760   6.649   4.939
 8153TIP3    H124392   0.741   6.730   4.888
 8153TIP3    H224393   0.780   6.584   4.868
 8154TIP3   OH224394   0.575   4.925   5.023
 8154TIP3    H124395   0.522   4.852   5.060
 8154TIP3    H224396   0.631   4.879   4.958
 8155TIP3   OH224397   1.086   4.798   4.914
 8155TIP3    H124398   1.122   4.855   4.843
 8155TIP3    H224399   0.990   4.818   4.909
 8156TIP3   OH224400   1.180   4.903   4.677
 8156TIP3    H124401   1.255   4.854   4.637
 8156TIP3    H224402   1.212   4.995   4.664
 8157TIP3   OH224403   0.271   4.661   4.912
 8157TIP3    H124404   0.322   4.711   4.846
 8157TIP3    H224405   0.311   4.691   4.994
 8158TIP3   OH224406   0.808   4.807   4.887
 8158TIP3    H124407   0.786   4.774   4.799
 8158TIP3    H224408   0.789   4.728   4.943
 8159TIP3   OH224409   0.833   4.733   4.455
 8159TIP3    H124410   0.748   4.781   4.469
 8159TIP3    H224411   0.812   4.648   4.501
 8160TIP3   OH224412   0.273   4.843   4.515
 8160TIP3    H124413   0.263   4.791   4.596
 8160TIP3    H224414   0.260   4.934   4.547
 8161TIP3   OH224415   0.808   6.380   4.129
 8161TIP3    H124416   0.799   6.282   4.115
 8161TIP3    H224417   0.762   6.414   4.049
 8162TIP3   OH224418   1.095   4.974   5.824
 8162TIP3    H124419   1.113   4.943   5.915
 8162TIP3    H224420   1.184   4.967   5.783
 8163TIP3   OH224421   1.032   6.522   5.318
 8163TIP3    H124422   0.953   6.491   5.268
 8163TIP3    H224423   1.013   6.618   5.321
 8164TIP3   OH224424   2.301   5.897   4.079
 8164TIP3    H124425   2.271   5.988   4.060
 8164TIP3    H224426   2.222   5.847   4.051
 8165TIP3   OH224427   2.297   5.895   4.466
 8165TIP3    H124428   2.332   5.871   4.553
 8165TIP3    H224429   2.255   5.812   4.437
 8166TIP3   OH224430   1.596   5.790   4.828
 8166TIP3    H124431   1.626   5.722   4.891
 8166TIP3    H224432   1.674   5.847   4.825
 8167TIP3   OH224433   2.542   6.200   4.145
 8167TIP3    H124434   2.528   6.131   4.211
 8167TIP3    H224435   2.571   6.275   4.201
 8168TIP3   OH224436   1.568   6.201   4.549
 8168TIP3    H124437   1.559   6.103   4.552
 8168TIP3    H224438   1.665   6.210   4.550
 8169TIP3   OH224439   1.275   5.406   4.335
 8169TIP3    H124440   1.226   5.488   4.352
 8169TIP3    H224441   1.205   5.350   4.298
 8170TIP3   OH224442   1.333   5.691   4.511
 8170TIP3    H124443   1.382   5.614   4.548
 8170TIP3    H224444   1.394   5.722   4.443
 8171TIP3   OH224445   2.190   6.660   4.160
 8171TIP3    H124446   2.236   6.587   4.114
 8171TIP3    H224447   2.183   6.625   4.250
 8172TIP3   OH224448   2.096   6.122   4.510
 8172TIP3    H124449   2.136   6.044   4.467
 8172TIP3    H224450   2.179   6.168   4.535
 8173TIP3   OH224451   3.111   5.443   4.508
 8173TIP3    H124452   3.139   5.525   4.552
 8173TIP3    H224453   3.133   5.463   4.415
 8174TIP3   OH224454   2.510   5.624   4.542
 8174TIP3    H124455   2.551   5.538   4.564
 8174TIP3    H224456   2.477   5.607   4.452
 8175TIP3   OH224457   1.847   5.283   4.508
 8175TIP3    H124458   1.827   5.356   4.445
 8175TIP3    H224459   1.799   5.209   4.465
 8176TIP3   OH224460   2.542   5.373   4.129
 8176TIP3    H124461   2.613   5.358   4.196
 8176TIP3    H224462   2.594   5.409   4.056
 8177TIP3   OH224463   1.480   5.485   4.616
 8177TIP3    H124464   1.563   5.464   4.664
 8177TIP3    H224465   1.493   5.429   4.537
 8178TIP3   OH224466   1.921   5.683   4.408
 8178TIP3    H124467   2.014   5.657   4.423
 8178TIP3    H224468   1.882   5.598   4.378
 8179TIP3   OH224469   3.184   5.651   4.677
 8179TIP3    H124470   3.098   5.696   4.660
 8179TIP3    H224471   3.196   5.671   4.771
 8180TIP3   OH224472   1.844   5.266   4.943
 8180TIP3    H124473   1.783   5.303   4.876
 8180TIP3    H224474   1.792   5.282   5.024
 8181TIP3   OH224475   2.192   6.119   3.949
 8181TIP3    H124476   2.146   6.097   3.867
 8181TIP3    H224477   2.146   6.202   3.974
 8182TIP3   OH224478   1.949   6.042   4.736
 8182TIP3    H124479   1.887   6.108   4.774
 8182TIP3    H224480   1.993   6.093   4.665
 8183TIP3   OH224481   2.749   5.378   4.305
 8183TIP3    H124482   2.735   5.332   4.389
 8183TIP3    H224483   2.802   5.455   4.332
 8184TIP3   OH224484   1.714   5.381   4.726
 8184TIP3    H124485   1.777   5.454   4.750
 8184TIP3    H224486   1.764   5.340   4.652
 8185TIP3   OH224487   1.778   6.236   4.834
 8185TIP3    H124488   1.753   6.324   4.798
 8185TIP3    H224489   1.700   6.220   4.891
 8186TIP3   OH224490   1.172   5.927   4.072
 8186TIP3    H124491   1.128   5.954   3.989
 8186TIP3    H224492   1.203   6.012   4.108
 8187TIP3   OH224493   2.611   6.441   4.310
 8187TIP3    H124494   2.521   6.433   4.350
 8187TIP3    H224495   2.603   6.529   4.267
 8188TIP3   OH224496   2.901   5.348   4.672
 8188TIP3    H124497   2.813   5.376   4.641
 8188TIP3    H224498   2.960   5.378   4.600
 8189TIP3   OH224499   2.196   4.984   4.655
 8189TIP3    H124500   2.187   4.889   4.678
 8189TIP3    H224501   2.119   5.021   4.703
 8190TIP3   OH224502   2.312   6.487   3.984
 8190TIP3    H124503   2.364   6.405   3.964
 8190TIP3    H224504   2.372   6.553   3.943
 8191TIP3   OH224505   2.457   6.272   3.893
 8191TIP3    H124506   2.412   6.192   3.861
 8191TIP3    H224507   2.495   6.240   3.978
 8192TIP3   OH224508   2.837   6.354   4.655
 8192TIP3    H124509   2.826   6.277   4.596
 8192TIP3    H224510   2.820   6.429   4.594
 8193TIP3   OH224511   2.128   5.747   3.913
 8193TIP3    H124512   2.048   5.798   3.891
 8193TIP3    H224513   2.175   5.746   3.828
 8194TIP3   OH224514   2.087   5.536   3.625
 8194TIP3    H124515   2.154   5.584   3.677
 8194TIP3    H224516   2.143   5.471   3.579
 8195TIP3   OH224517   3.033   5.992   4.500
 8195TIP3    H124518   2.949   6.044   4.506
 8195TIP3    H224519   3.062   6.015   4.409
 8196TIP3   OH224520   2.477   5.831   3.883
 8196TIP3    H124521   2.422   5.855   3.961
 8196TIP3    H224522   2.560   5.804   3.927
 8197TIP3   OH224523   2.712   5.869   4.797
 8197TIP3    H124524   2.708   5.952   4.849
 8197TIP3    H224525   2.625   5.873   4.752
 8198TIP3   OH224526   1.710   5.828   4.300
 8198TIP3    H124527   1.669   5.769   4.233
 8198TIP3    H224528   1.786   5.774   4.331
 8199TIP3   OH224529   1.841   6.243   4.447
 8199TIP3    H124530   1.820   6.197   4.365
 8199TIP3    H224531   1.931   6.208   4.467
 8200TIP3   OH224532   1.845   5.799   4.655
 8200TIP3    H124533   1.879   5.778   4.566
 8200TIP3    H224534   1.888   5.885   4.675
 8201TIP3   OH224535   2.371   6.437   4.432
 8201TIP3    H124536   2.357   6.517   4.486
 8201TIP3    H224537   2.356   6.364   4.496
 8202TIP3   OH224538   1.983   6.355   4.979
 8202TIP3    H124539   1.923   6.418   5.026
 8202TIP3    H224540   1.917   6.302   4.930
 8203TIP3   OH224541   2.317   5.689   3.711
 8203TIP3    H124542   2.376   5.748   3.763
 8203TIP3    H224543   2.343   5.713   3.618
 8204TIP3   OH224544   1.737   5.912   5.081
 8204TIP3    H124545   1.742   5.999   5.125
 8204TIP3    H224546   1.642   5.892   5.092
 8205TIP3   OH224547   2.062   6.366   3.980
 8205TIP3    H124548   2.143   6.418   3.998
 8205TIP3    H224549   1.999   6.434   3.952
 8206TIP3   OH224550   1.778   6.523   5.066
 8206TIP3    H124551   1.742   6.523   4.976
 8206TIP3    H224552   1.698   6.502   5.120
 8207TIP3   OH224553   2.832   4.929   3.759
 8207TIP3    H124554   2.751   4.949   3.810
 8207TIP3    H224555   2.845   5.012   3.709
 8208TIP3   OH224556   1.577   5.671   4.102
 8208TIP3    H124557   1.507   5.714   4.049
 8208TIP3    H224558   1.538   5.585   4.120
 8209TIP3   OH224559   2.632   6.296   3.307
 8209TIP3    H124560   2.640   6.393   3.294
 8209TIP3    H224561   2.724   6.267   3.294
 8210TIP3   OH224562   1.356   6.055   5.013
 8210TIP3    H124563   1.289   6.032   4.945
 8210TIP3    H224564   1.393   5.967   5.037
 8211TIP3   OH224565   1.210   6.248   4.643
 8211TIP3    H124566   1.307   6.243   4.639
 8211TIP3    H224567   1.198   6.326   4.700
 8212TIP3   OH224568   3.075   6.699   4.702
 8212TIP3    H124569   3.074   6.603   4.717
 8212TIP3    H224570   2.991   6.725   4.748
 8213TIP3   OH224571   2.180   6.485   4.836
 8213TIP3    H124572   2.179   6.577   4.869
 8213TIP3    H224573   2.109   6.445   4.891
 8214TIP3   OH224574   1.941   6.614   3.787
 8214TIP3    H124575   1.892   6.599   3.705
 8214TIP3    H224576   1.910   6.702   3.815
 8215TIP3   OH224577   1.380   6.462   4.172
 8215TIP3    H124578   1.427   6.454   4.258
 8215TIP3    H224579   1.325   6.382   4.174
 8216TIP3   OH224580   2.141   6.513   3.427
 8216TIP3    H124581   2.201   6.444   3.392
 8216TIP3    H224582   2.177   6.525   3.518
 8217TIP3   OH224583   2.193   6.563   3.696
 8217TIP3    H124584   2.106   6.573   3.741
 8217TIP3    H224585   2.246   6.525   3.768
 8218TIP3   OH224586   2.965   5.831   4.976
 8218TIP3    H124587   2.882   5.841   4.927
 8218TIP3    H224588   2.981   5.735   4.967
 8219TIP3   OH224589   1.562   6.237   4.999
 8219TIP3    H124590   1.610   6.222   5.083
 8219TIP3    H224591   1.487   6.174   5.008
 8220TIP3   OH224592   1.959   5.063   4.785
 8220TIP3    H124593   1.870   5.031   4.760
 8220TIP3    H224594   1.934   5.143   4.835
 8221TIP3   OH224595   2.495   5.175   4.980
 8221TIP3    H124596   2.564   5.146   5.043
 8221TIP3    H224597   2.412   5.153   5.028
 8222TIP3   OH224598   2.734   5.606   4.900
 8222TIP3    H124599   2.684   5.602   4.985
 8222TIP3    H224600   2.707   5.693   4.864
 8223TIP3   OH224601   2.391   5.734   3.453
 8223TIP3    H124602   2.360   5.708   3.364
 8223TIP3    H224603   2.475   5.780   3.431
 8224TIP3   OH224604   2.106   5.110   3.757
 8224TIP3    H124605   2.074   5.108   3.849
 8224TIP3    H224606   2.067   5.027   3.724
 8225TIP3   OH224607   1.892   5.577   4.804
 8225TIP3    H124608   1.842   5.596   4.886
 8225TIP3    H224609   1.876   5.658   4.752
 8226TIP3   OH224610   1.775   5.464   4.318
 8226TIP3    H124611   1.683   5.436   4.337
 8226TIP3    H224612   1.788   5.422   4.230
 8227TIP3   OH224613   2.266   5.549   4.047
 8227TIP3    H124614   2.214   5.620   4.005
 8227TIP3    H224615   2.321   5.517   3.973
 8228TIP3   OH224616   2.441   5.826   5.132
 8228TIP3    H124617   2.418   5.753   5.194
 8228TIP3    H224618   2.535   5.839   5.155
 8229TIP3   OH224619   2.424   5.576   4.284
 8229TIP3    H124620   2.362   5.604   4.214
 8229TIP3    H224621   2.458   5.494   4.242
 8230TIP3   OH224622   1.711   5.605   5.013
 8230TIP3    H124623   1.739   5.667   5.082
 8230TIP3    H224624   1.699   5.523   5.064
 8231TIP3   OH224625   1.761   5.084   3.722
 8231TIP3    H124626   1.754   5.080   3.820
 8231TIP3    H224627   1.682   5.135   3.700
 8232TIP3   OH224628   1.304   5.128   4.593
 8232TIP3    H124629   1.379   5.159   4.648
 8232TIP3    H224630   1.346   5.093   4.513
 8233TIP3   OH224631   1.275   5.108   4.111
 8233TIP3    H124632   1.320   5.147   4.034
 8233TIP3    H224633   1.213   5.181   4.134
 8234TIP3   OH224634   2.433   5.823   4.706
 8234TIP3    H124635   2.467   5.751   4.648
 8234TIP3    H224636   2.405   5.770   4.784
 8235TIP3   OH224637   2.104   5.287   4.379
 8235TIP3    H124638   2.023   5.284   4.434
 8235TIP3    H224639   2.174   5.279   4.447
 8236TIP3   OH224640   1.538   5.342   4.386
 8236TIP3    H124641   1.443   5.348   4.360
 8236TIP3    H224642   1.561   5.249   4.365
 8237TIP3   OH224643   1.805   5.335   4.077
 8237TIP3    H124644   1.899   5.351   4.057
 8237TIP3    H224645   1.759   5.359   3.994
 8238TIP3   OH224646   2.595   5.361   4.581
 8238TIP3    H124647   2.563   5.373   4.674
 8238TIP3    H224648   2.528   5.299   4.547
 8239TIP3   OH224649   1.649   5.372   3.855
 8239TIP3    H124650   1.577   5.327   3.808
 8239TIP3    H224651   1.700   5.407   3.779
 8240TIP3   OH224652   2.767   7.049   4.802
 8240TIP3    H124653   2.764   7.074   4.707
 8240TIP3    H224654   2.845   7.098   4.833
 8241TIP3   OH224655   1.722   6.159   5.222
 8241TIP3    H124656   1.802   6.190   5.270
 8241TIP3    H224657   1.657   6.159   5.295
 8242TIP3   OH224658   2.186   5.615   4.478
 8242TIP3    H124659   2.257   5.571   4.430
 8242TIP3    H224660   2.191   5.573   4.566
 8243TIP3   OH224661   1.707   5.100   4.358
 8243TIP3    H124662   1.672   5.022   4.406
 8243TIP3    H224663   1.759   5.058   4.289
 8244TIP3   OH224664   2.163   5.514   4.762
 8244TIP3    H124665   2.073   5.547   4.781
 8244TIP3    H224666   2.220   5.572   4.816
 8245TIP3   OH224667   1.899   5.901   3.860
 8245TIP3    H124668   1.827   5.835   3.850
 8245TIP3    H224669   1.881   5.934   3.951
 8246TIP3   OH224670   2.799   6.137   4.490
 8246TIP3    H124671   2.823   6.186   4.409
 8246TIP3    H224672   2.714   6.096   4.465
 8247TIP3   OH224673   2.356   5.215   3.719
 8247TIP3    H124674   2.260   5.195   3.733
 8247TIP3    H224675   2.365   5.308   3.750
 8248TIP3   OH224676   2.299   6.219   4.859
 8248TIP3    H124677   2.324   6.198   4.950
 8248TIP3    H224678   2.259   6.308   4.867
 8249TIP3   OH224679   2.426   5.459   3.828
 8249TIP3    H124680   2.522   5.465   3.845
 8249TIP3    H224681   2.408   5.540   3.776
 8250TIP3   OH224682   1.592   5.923   4.537
 8250TIP3    H124683   1.632   5.894   4.452
 8250TIP3    H224684   1.633   5.862   4.600
 8251TIP3   OH224685   2.043   6.049   3.679
 8251TIP3    H124686   1.995   6.135   3.686
 8251TIP3    H224687   1.990   5.994   3.741
 8252TIP3   OH224688   1.473   5.842   5.151
 8252TIP3    H124689   1.492   5.828   5.246
 8252TIP3    H224690   1.404   5.776   5.134
 8253TIP3   OH224691   2.198   5.958   5.171
 8253TIP3    H124692   2.139   5.898   5.124
 8253TIP3    H224693   2.286   5.924   5.143
 8254TIP3   OH224694   2.458   6.480   4.754
 8254TIP3    H124695   2.362   6.477   4.767
 8254TIP3    H224696   2.486   6.531   4.833
 8255TIP3   OH224697   2.868   5.551   3.663
 8255TIP3    H124698   2.806   5.506   3.602
 8255TIP3    H224699   2.865   5.640   3.622
 8256TIP3   OH224700   3.088   6.409   4.744
 8256TIP3    H124701   2.990   6.403   4.736
 8256TIP3    H224702   3.113   6.379   4.654
 8257TIP3   OH224703   2.567   6.370   3.572
 8257TIP3    H124704   2.544   6.302   3.636
 8257TIP3    H224705   2.582   6.321   3.489
 8258TIP3   OH224706   2.565   6.000   4.406
 8258TIP3    H124707   2.472   5.974   4.421
 8258TIP3    H224708   2.599   5.919   4.363
 8259TIP3   OH224709   1.692   6.225   4.159
 8259TIP3    H124710   1.690   6.308   4.108
 8259TIP3    H224711   1.598   6.212   4.178
 8260TIP3   OH224712   1.256   5.531   3.867
 8260TIP3    H124713   1.302   5.615   3.890
 8260TIP3    H224714   1.178   5.536   3.928
 8261TIP3   OH224715   1.830   5.992   4.105
 8261TIP3    H124716   1.794   6.081   4.123
 8261TIP3    H224717   1.795   5.941   4.180
 8262TIP3   OH224718   1.963   6.570   4.631
 8262TIP3    H124719   2.004   6.643   4.582
 8262TIP3    H224720   2.039   6.535   4.681
 8263TIP3   OH224721   1.611   6.466   4.014
 8263TIP3    H124722   1.526   6.473   4.061
 8263TIP3    H224723   1.642   6.559   4.018
 8264TIP3   OH224724   2.350   6.205   4.591
 8264TIP3    H124725   2.339   6.204   4.688
 8264TIP3    H224726   2.429   6.152   4.580
 8265TIP3   OH224727   2.325   6.098   3.474
 8265TIP3    H124728   2.381   6.073   3.551
 8265TIP3    H224729   2.238   6.071   3.507
 8266TIP3   OH224730   2.599   6.737   4.641
 8266TIP3    H124731   2.520   6.680   4.636
 8266TIP3    H224732   2.582   6.801   4.569
 8267TIP3   OH224733   2.664   6.572   3.293
 8267TIP3    H124734   2.702   6.645   3.241
 8267TIP3    H224735   2.584   6.617   3.327
 8268TIP3   OH224736   1.683   5.350   5.158
 8268TIP3    H124737   1.587   5.352   5.170
 8268TIP3    H224738   1.711   5.290   5.229
 8269TIP3   OH224739   2.486   6.028   3.686
 8269TIP3    H124740   2.476   5.964   3.759
 8269TIP3    H224741   2.583   6.028   3.676
 8270TIP3   OH224742   1.401   6.433   4.789
 8270TIP3    H124743   1.454   6.362   4.829
 8270TIP3    H224744   1.424   6.507   4.846
 8271TIP3   OH224745   1.686   6.076   3.470
 8271TIP3    H124746   1.704   5.984   3.447
 8271TIP3    H224747   1.671   6.069   3.567
 8272TIP3   OH224748   1.635   6.084   3.743
 8272TIP3    H124749   1.704   6.053   3.804
 8272TIP3    H224750   1.640   6.181   3.755
 8273TIP3   OH224751   1.369   5.776   3.949
 8273TIP3    H124752   1.303   5.820   4.007
 8273TIP3    H224753   1.383   5.846   3.883
 8274TIP3   OH224754   2.522   5.412   4.841
 8274TIP3    H124755   2.602   5.449   4.882
 8274TIP3    H224756   2.507   5.331   4.894
 8275TIP3   OH224757   2.403   5.163   4.006
 8275TIP3    H124758   2.389   5.189   3.913
 8275TIP3    H224759   2.443   5.244   4.044
 8276TIP3   OH224760   1.899   6.280   3.684
 8276TIP3    H124761   1.814   6.304   3.726
 8276TIP3    H224762   1.921   6.364   3.642
 8277TIP3   OH224763   2.088   5.345   4.108
 8277TIP3    H124764   2.154   5.416   4.092
 8277TIP3    H224765   2.094   5.335   4.206
 8278TIP3   OH224766   2.361   5.661   4.915
 8278TIP3    H124767   2.382   5.714   4.994
 8278TIP3    H224768   2.414   5.581   4.928
 8279TIP3   OH224769   2.234   5.069   4.209
 8279TIP3    H124770   2.231   5.143   4.272
 8279TIP3    H224771   2.295   5.104   4.141
 8280TIP3   OH224772   1.645   6.356   3.763
 8280TIP3    H124773   1.615   6.427   3.702
 8280TIP3    H224774   1.629   6.398   3.850
 8281TIP3   OH224775   1.747   5.069   3.998
 8281TIP3    H124776   1.743   5.158   4.038
 8281TIP3    H224777   1.843   5.051   4.007
 8282TIP3   OH224778   3.000   5.563   4.893
 8282TIP3    H124779   2.902   5.563   4.904
 8282TIP3    H224780   3.007   5.512   4.812
 8283TIP3   OH224781   2.650   5.756   4.284
 8283TIP3    H124782   2.574   5.697   4.297
 8283TIP3    H224783   2.722   5.710   4.333
 8284TIP3   OH224784   1.365   5.985   3.753
 8284TIP3    H124785   1.435   6.051   3.766
 8284TIP3    H224786   1.409   5.927   3.687
 8285TIP3   OH224787   1.308   5.260   3.884
 8285TIP3    H124788   1.306   5.358   3.883
 8285TIP3    H224789   1.220   5.238   3.850
 8286TIP3   OH224790   2.619   6.713   4.233
 8286TIP3    H124791   2.577   6.759   4.157
 8286TIP3    H224792   2.714   6.732   4.213
 8287TIP3   OH224793   1.695   4.980   4.761
 8287TIP3    H124794   1.664   4.946   4.675
 8287TIP3    H224795   1.686   4.902   4.819
 8288TIP3   OH224796   1.232   6.200   4.139
 8288TIP3    H124797   1.168   6.230   4.205
 8288TIP3    H224798   1.198   6.242   4.057
 8289TIP3   OH224799   1.391   6.742   5.217
 8289TIP3    H124800   1.478   6.743   5.262
 8289TIP3    H224801   1.373   6.646   5.213
 8290TIP3   OH224802   1.872   6.704   5.259
 8290TIP3    H124803   1.967   6.686   5.265
 8290TIP3    H224804   1.846   6.645   5.185
 8291TIP3   OH224805   1.834   6.283   3.362
 8291TIP3    H124806   1.788   6.213   3.414
 8291TIP3    H224807   1.919   6.238   3.343
 8292TIP3   OH224808   2.512   6.612   4.989
 8292TIP3    H124809   2.504   6.542   5.058
 8292TIP3    H224810   2.589   6.663   5.021
 8293TIP3   OH224811   2.287   6.319   3.296
 8293TIP3    H124812   2.330   6.256   3.357
 8293TIP3    H224813   2.348   6.319   3.220
 8294TIP3   OH224814   1.521   6.148   5.414
 8294TIP3    H124815   1.538   6.052   5.417
 8294TIP3    H224816   1.434   6.151   5.369
 8295TIP3   OH224817   1.501   5.798   3.607
 8295TIP3    H124818   1.554   5.763   3.681
 8295TIP3    H224819   1.570   5.802   3.537
 8296TIP3   OH224820   2.129   6.234   5.187
 8296TIP3    H124821   2.087   6.251   5.100
 8296TIP3    H224822   2.160   6.141   5.178
 8297TIP3   OH224823   2.005   5.996   3.412
 8297TIP3    H124824   2.010   6.010   3.508
 8297TIP3    H224825   2.008   5.897   3.408
 8298TIP3   OH224826   2.622   6.243   4.793
 8298TIP3    H124827   2.696   6.288   4.749
 8298TIP3    H224828   2.550   6.308   4.780
 8299TIP3   OH224829   1.640   5.884   5.396
 8299TIP3    H124830   1.715   5.828   5.372
 8299TIP3    H224831   1.667   5.915   5.484
 8300TIP3   OH224832   1.705   5.703   3.827
 8300TIP3    H124833   1.678   5.665   3.912
 8300TIP3    H224834   1.741   5.626   3.780
 8301TIP3   OH224835   1.975   5.767   5.057
 8301TIP3    H124836   1.898   5.827   5.059
 8301TIP3    H224837   2.025   5.801   4.979
 8302TIP3   OH224838   1.808   5.497   3.668
 8302TIP3    H124839   1.782   5.500   3.574
 8302TIP3    H224840   1.906   5.503   3.661
 8303TIP3   OH224841   2.493   6.168   5.190
 8303TIP3    H124842   2.573   6.141   5.143
 8303TIP3    H224843   2.488   6.103   5.262
 8304TIP3   OH224844   2.627   5.827   3.333
 8304TIP3    H124845   2.607   5.780   3.250
 8304TIP3    H224846   2.595   5.917   3.310
 8305TIP3   OH224847   2.099   5.556   5.183
 8305TIP3    H124848   2.100   5.476   5.127
 8305TIP3    H224849   2.055   5.621   5.125
 8306TIP3   OH224850   2.101   5.344   4.990
 8306TIP3    H124851   2.129   5.381   4.904
 8306TIP3    H224852   2.008   5.319   4.972
 8307TIP3   OH224853   2.127   5.876   4.863
 8307TIP3    H124854   2.211   5.885   4.817
 8307TIP3    H224855   2.072   5.943   4.818
 8308TIP3   OH224856   2.710   5.843   5.244
 8308TIP3    H124857   2.755   5.759   5.256
 8308TIP3    H224858   2.781   5.899   5.209
 8309TIP3   OH224859   2.751   6.097   4.980
 8309TIP3    H124860   2.694   6.151   4.921
 8309TIP3    H224861   2.839   6.117   4.940
 8310TIP3   OH224862   1.977   5.665   5.414
 8310TIP3    H124863   1.909   5.596   5.429
 8310TIP3    H224864   2.012   5.639   5.327
 8311TIP3   OH224865   2.234   5.106   5.057
 8311TIP3    H124866   2.184   5.187   5.035
 8311TIP3    H224867   2.166   5.037   5.047
 8312TIP3   OH224868   2.359   5.609   5.273
 8312TIP3    H124869   2.348   5.595   5.369
 8312TIP3    H224870   2.269   5.584   5.243
 8313TIP3   OH224871   2.600   5.559   5.129
 8313TIP3    H124872   2.523   5.558   5.190
 8313TIP3    H224873   2.672   5.527   5.186
 8314TIP3   OH224874   2.831   5.501   5.279
 8314TIP3    H124875   2.842   5.404   5.295
 8314TIP3    H224876   2.824   5.537   5.370
 8315TIP3   OH224877   1.817   5.445   5.468
 8315TIP3    H124878   1.822   5.354   5.433
 8315TIP3    H224879   1.854   5.432   5.558
 8316TIP3   OH224880   2.321   5.118   5.318
 8316TIP3    H124881   2.393   5.051   5.315
 8316TIP3    H224882   2.286   5.109   5.227
 8317TIP3   OH224883   2.394   5.330   5.474
 8317TIP3    H124884   2.372   5.258   5.411
 8317TIP3    H224885   2.316   5.388   5.467
 8318TIP3   OH224886   1.616   6.559   3.573
 8318TIP3    H124887   1.711   6.551   3.555
 8318TIP3    H224888   1.587   6.608   3.494
 8319TIP3   OH224889   1.095   5.942   3.786
 8319TIP3    H124890   1.191   5.962   3.775
 8319TIP3    H224891   1.089   5.852   3.747
 8320TIP3   OH224892   1.011   6.551   4.205
 8320TIP3    H124893   0.942   6.490   4.169
 8320TIP3    H224894   1.054   6.493   4.271
 8321TIP3   OH224895   1.147   6.400   4.391
 8321TIP3    H124896   1.134   6.330   4.457
 8321TIP3    H224897   1.196   6.464   4.444
 8322TIP3   OH224898   2.873   6.803   4.191
 8322TIP3    H124899   2.898   6.834   4.280
 8322TIP3    H224900   2.936   6.850   4.135
 8323TIP3   OH224901   2.902   6.823   4.472
 8323TIP3    H124902   2.858   6.735   4.470
 8323TIP3    H224903   2.976   6.801   4.531
 8324TIP3   OH224904   2.948   6.501   5.045
 8324TIP3    H124905   2.876   6.509   5.111
 8324TIP3    H224906   2.990   6.589   5.051
 8325TIP3   OH224907   2.765   6.013   3.665
 8325TIP3    H124908   2.834   6.077   3.638
 8325TIP3    H224909   2.808   5.974   3.745
 8326TIP3   OH224910   2.892   5.881   3.869
 8326TIP3    H124911   2.827   5.838   3.929
 8326TIP3    H224912   2.957   5.917   3.932
 8327TIP3   OH224913   2.947   6.273   4.301
 8327TIP3    H124914   3.002   6.208   4.253
 8327TIP3    H224915   2.939   6.346   4.236
 8328TIP3   OH224916   2.777   6.573   4.495
 8328TIP3    H124917   2.706   6.615   4.548
 8328TIP3    H224918   2.726   6.525   4.427
 8329TIP3   OH224919   2.829   5.789   3.516
 8329TIP3    H124920   2.757   5.792   3.449
 8329TIP3    H224921   2.803   5.865   3.572
 8330TIP3   OH224922   2.700   5.461   3.469
 8330TIP3    H124923   2.657   5.497   3.391
 8330TIP3    H224924   2.677   5.366   3.461
 8331TIP3   OH224925   2.705   5.737   4.015
 8331TIP3    H124926   2.714   5.641   4.010
 8331TIP3    H224927   2.691   5.752   4.111
 8332TIP3   OH224928   1.331   5.812   4.762
 8332TIP3    H124929   1.329   5.779   4.670
 8332TIP3    H224930   1.429   5.813   4.779
 8333TIP3   OH224931   2.995   6.162   4.873
 8333TIP3    H124932   3.067   6.096   4.863
 8333TIP3    H224933   3.023   6.232   4.811
 8334TIP3   OH224934   3.180   5.966   4.885
 8334TIP3    H124935   3.105   5.917   4.925
 8334TIP3    H224936   3.253   5.902   4.901
 8335TIP3   OH224937   2.645   5.195   3.454
 8335TIP3    H124938   2.720   5.165   3.509
 8335TIP3    H224939   2.573   5.136   3.480
 8336TIP3   OH224940   2.701   5.453   3.908
 8336TIP3    H124941   2.742   5.365   3.924
 8336TIP3    H224942   2.760   5.487   3.839
 8337TIP3   OH224943   2.863   5.626   4.405
 8337TIP3    H124944   2.949   5.652   4.364
 8337TIP3    H224945   2.876   5.663   4.494
 8338TIP3   OH224946   2.932   5.771   4.636
 8338TIP3    H124947   2.855   5.805   4.686
 8338TIP3    H224948   2.964   5.853   4.592
 8339TIP3   OH224949   1.550   5.498   5.440
 8339TIP3    H124950   1.648   5.491   5.441
 8339TIP3    H224951   1.526   5.412   5.478
 8340TIP3   OH224952   3.386   5.365   5.192
 8340TIP3    H124953   3.443   5.298   5.150
 8340TIP3    H224954   3.356   5.418   5.116
 8341TIP3   OH224955   2.811   5.204   3.947
 8341TIP3    H124956   2.859   5.188   4.031
 8341TIP3    H224957   2.750   5.127   3.946
 8342TIP3   OH224958   1.512   5.189   4.766
 8342TIP3    H124959   1.573   5.115   4.777
 8342TIP3    H224960   1.574   5.264   4.761
 8343TIP3   OH224961   1.313   5.463   4.840
 8343TIP3    H124962   1.362   5.457   4.756
 8343TIP3    H224963   1.343   5.547   4.875
 8344TIP3   OH224964   3.255   5.501   4.997
 8344TIP3    H124965   3.168   5.541   5.018
 8344TIP3    H224966   3.225   5.427   4.940
 8345TIP3   OH224967   2.890   5.138   3.580
 8345TIP3    H124968   2.931   5.066   3.529
 8345TIP3    H224969   2.958   5.208   3.576
 8346TIP3   OH224970   1.297   4.965   4.341
 8346TIP3    H124971   1.204   4.962   4.369
 8346TIP3    H224972   1.292   5.024   4.262
 8347TIP3   OH224973   2.453   6.671   3.846
 8347TIP3    H124974   2.509   6.658   3.766
 8347TIP3    H224975   2.505   6.736   3.897
 8348TIP3   OH224976   1.517   5.050   5.157
 8348TIP3    H124977   1.466   5.041   5.239
 8348TIP3    H224978   1.450   5.085   5.096
 8349TIP3   OH224979   1.557   6.472   5.231
 8349TIP3    H124980   1.464   6.448   5.216
 8349TIP3    H224981   1.566   6.458   5.326
 8350TIP3   OH224982   1.736   6.506   4.780
 8350TIP3    H124983   1.687   6.582   4.743
 8350TIP3    H224984   1.822   6.521   4.735
 8351TIP3   OH224985   2.180   6.750   4.917
 8351TIP3    H124986   2.221   6.751   5.006
 8351TIP3    H224987   2.246   6.802   4.866
 8352TIP3   OH224988   2.359   6.903   4.777
 8352TIP3    H124989   2.431   6.852   4.738
 8352TIP3    H224990   2.410   6.961   4.838
 8353TIP3   OH224991   3.155   5.262   4.877
 8353TIP3    H124992   3.062   5.247   4.849
 8353TIP3    H224993   3.190   5.171   4.867
 8354TIP3   OH224994   1.413   6.764   4.809
 8354TIP3    H124995   1.322   6.793   4.787
 8354TIP3    H224996   1.431   6.821   4.885
 8355TIP3   OH224997   1.647   6.741   4.662
 8355TIP3    H124998   1.561   6.753   4.709
 8355TIP3    H224999   1.626   6.776   4.573
 8356TIP3   OH225000   2.074   6.771   4.459
 8356TIP3    H125001   2.003   6.792   4.396
 8356TIP3    H225002   2.086   6.857   4.504
 8357TIP3   OH225003   2.343   6.710   4.510
 8357TIP3    H125004   2.248   6.727   4.492
 8357TIP3    H225005   2.385   6.787   4.471
 8358TIP3   OH225006   2.550   6.902   4.426
 8358TIP3    H125007   2.536   6.986   4.379
 8358TIP3    H225008   2.575   6.841   4.353
 8359TIP3   OH225009   1.324   6.558   4.547
 8359TIP3    H125010   1.348   6.531   4.638
 8359TIP3    H225011   1.397   6.514   4.498
 8360TIP3   OH225012   1.518   6.429   4.405
 8360TIP3    H125013   1.532   6.345   4.455
 8360TIP3    H225014   1.609   6.465   4.404
 8361TIP3   OH225015   1.785   6.522   4.410
 8361TIP3    H125016   1.815   6.430   4.402
 8361TIP3    H225017   1.830   6.546   4.494
 8362TIP3   OH225018   2.354   5.177   4.491
 8362TIP3    H125019   2.314   5.108   4.548
 8362TIP3    H225020   2.431   5.130   4.453
 8363TIP3   OH225021   2.880   5.060   4.397
 8363TIP3    H125022   2.916   5.113   4.322
 8363TIP3    H225023   2.785   5.081   4.393
 8364TIP3   OH225024   2.977   5.161   4.162
 8364TIP3    H125025   3.051   5.109   4.125
 8364TIP3    H225026   3.011   5.253   4.148
 8365TIP3   OH225027   1.608   4.888   4.511
 8365TIP3    H125028   1.516   4.854   4.512
 8365TIP3    H225029   1.658   4.803   4.509
 8366TIP3   OH225030   1.396   4.758   4.163
 8366TIP3    H125031   1.424   4.816   4.090
 8366TIP3    H225032   1.365   4.823   4.229
 8367TIP3   OH225033   2.051   4.922   4.394
 8367TIP3    H125034   2.110   4.971   4.335
 8367TIP3    H225035   2.079   4.954   4.481
 8368TIP3   OH225036   2.597   5.069   4.377
 8368TIP3    H125037   2.595   5.029   4.289
 8368TIP3    H225038   2.584   4.989   4.434
 8369TIP3   OH225039   2.628   4.991   3.939
 8369TIP3    H125040   2.542   5.034   3.954
 8369TIP3    H225041   2.614   4.905   3.985
 8370TIP3   OH225042   1.113   6.329   3.935
 8370TIP3    H125043   1.027   6.298   3.903
 8370TIP3    H225044   1.101   6.425   3.921
 8371TIP3   OH225045   1.512   4.919   3.922
 8371TIP3    H125046   1.561   4.855   3.867
 8371TIP3    H225047   1.586   4.972   3.959
 8372TIP3   OH225048   2.024   5.094   4.021
 8372TIP3    H125049   2.082   5.047   4.083
 8372TIP3    H225050   2.044   5.186   4.048
 8373TIP3   OH225051   1.881   6.513   3.518
 8373TIP3    H125052   1.971   6.534   3.484
 8373TIP3    H225053   1.858   6.439   3.457
 8374TIP3   OH225054   2.604   6.637   3.615
 8374TIP3    H125055   2.594   6.540   3.603
 8374TIP3    H225056   2.558   6.670   3.535
 8375TIP3   OH225057   1.815   5.171   5.405
 8375TIP3    H125058   1.782   5.099   5.461
 8375TIP3    H225059   1.910   5.170   5.431
 8376TIP3   OH225060   2.065   5.167   5.522
 8376TIP3    H125061   2.149   5.141   5.480
 8376TIP3    H225062   2.054   5.096   5.588
 8377TIP3   OH225063   1.184   6.357   3.584
 8377TIP3    H125064   1.177   6.379   3.678
 8377TIP3    H225065   1.273   6.316   3.579
 8378TIP3   OH225066   2.889   5.230   5.309
 8378TIP3    H125067   2.907   5.197   5.400
 8378TIP3    H225068   2.977   5.222   5.268
 8379TIP3   OH225069   2.828   6.780   4.802
 8379TIP3    H125070   2.749   6.748   4.754
 8379TIP3    H225071   2.808   6.876   4.807
 8380TIP3   OH225072   4.096   6.152   3.568
 8380TIP3    H125073   4.066   6.243   3.548
 8380TIP3    H225074   4.019   6.102   3.536
 8381TIP3   OH225075   4.091   6.153   3.953
 8381TIP3    H125076   4.127   6.127   4.040
 8381TIP3    H225077   4.052   6.070   3.922
 8382TIP3   OH225078   3.392   6.046   4.315
 8382TIP3    H125079   3.422   5.979   4.379
 8382TIP3    H225080   3.471   6.103   4.311
 8383TIP3   OH225081   4.336   6.457   3.632
 8383TIP3    H125082   4.325   6.387   3.698
 8383TIP3    H225083   4.368   6.531   3.687
 8384TIP3   OH225084   3.364   6.457   4.036
 8384TIP3    H125085   3.355   6.360   4.039
 8384TIP3    H225086   3.461   6.466   4.038
 8385TIP3   OH225087   3.071   5.662   3.822
 8385TIP3    H125088   3.022   5.744   3.839
 8385TIP3    H225089   3.001   5.607   3.784
 8386TIP3   OH225090   3.130   5.947   3.997
 8386TIP3    H125091   3.179   5.870   4.035
 8386TIP3    H225092   3.191   5.979   3.930
 8387TIP3   OH225093   3.979   6.912   3.645
 8387TIP3    H125094   4.033   6.843   3.600
 8387TIP3    H225095   3.981   6.883   3.737
 8388TIP3   OH225096   3.892   6.379   3.997
 8388TIP3    H125097   3.932   6.301   3.955
 8388TIP3    H225098   3.975   6.425   4.022
 8389TIP3   OH225099   4.905   5.698   3.995
 8389TIP3    H125100   4.935   5.781   4.038
 8389TIP3    H225101   4.931   5.715   3.902
 8390TIP3   OH225102   4.305   5.880   4.029
 8390TIP3    H125103   4.348   5.795   4.050
 8390TIP3    H225104   4.273   5.863   3.938
 8391TIP3   OH225105   3.643   5.540   3.995
 8391TIP3    H125106   3.623   5.612   3.932
 8391TIP3    H225107   3.595   5.466   3.952
 8392TIP3   OH225108   4.337   5.631   3.616
 8392TIP3    H125109   4.409   5.616   3.682
 8392TIP3    H225110   4.390   5.665   3.542
 8393TIP3   OH225111   3.277   5.742   4.103
 8393TIP3    H125112   3.359   5.721   4.151
 8393TIP3    H225113   3.289   5.686   4.023
 8394TIP3   OH225114   3.717   5.939   3.896
 8394TIP3    H125115   3.811   5.914   3.909
 8394TIP3    H225116   3.678   5.855   3.865
 8395TIP3   OH225117   4.979   5.906   4.165
 8395TIP3    H125118   4.895   5.953   4.147
 8395TIP3    H225119   4.995   5.932   4.257
 8396TIP3   OH225120   3.640   5.523   4.430
 8396TIP3    H125121   3.580   5.559   4.362
 8396TIP3    H225122   3.587   5.540   4.511
 8397TIP3   OH225123   3.983   6.371   3.439
 8397TIP3    H125124   3.947   6.350   3.352
 8397TIP3    H225125   3.943   6.459   3.455
 8398TIP3   OH225126   3.746   6.298   4.223
 8398TIP3    H125127   3.684   6.365   4.260
 8398TIP3    H225128   3.790   6.349   4.152
 8399TIP3   OH225129   4.545   5.635   3.792
 8399TIP3    H125130   4.536   5.587   3.875
 8399TIP3    H225131   4.600   5.711   3.817
 8400TIP3   OH225132   3.511   5.638   4.214
 8400TIP3    H125133   3.573   5.711   4.237
 8400TIP3    H225134   3.560   5.597   4.139
 8401TIP3   OH225135   3.574   6.493   4.321
 8401TIP3    H125136   3.549   6.581   4.285
 8401TIP3    H225137   3.496   6.476   4.378
 8402TIP3   OH225138   2.968   6.183   3.559
 8402TIP3    H125139   2.926   6.210   3.475
 8402TIP3    H225140   2.999   6.269   3.594
 8403TIP3   OH225141   4.406   6.698   3.797
 8403TIP3    H125142   4.316   6.690   3.836
 8403TIP3    H225143   4.399   6.785   3.754
 8404TIP3   OH225144   4.699   5.599   4.161
 8404TIP3    H125145   4.612   5.629   4.130
 8404TIP3    H225146   4.760   5.631   4.090
 8405TIP3   OH225147   3.993   5.241   4.143
 8405TIP3    H125148   3.980   5.146   4.163
 8405TIP3    H225149   3.916   5.279   4.190
 8406TIP3   OH225150   4.114   6.744   3.478
 8406TIP3    H125151   4.162   6.661   3.454
 8406TIP3    H225152   4.172   6.809   3.434
 8407TIP3   OH225153   4.250   6.529   3.380
 8407TIP3    H125154   4.222   6.446   3.338
 8407TIP3    H225155   4.287   6.496   3.465
 8408TIP3   OH225156   4.633   6.610   4.143
 8408TIP3    H125157   4.623   6.533   4.083
 8408TIP3    H225158   4.617   6.685   4.082
 8409TIP3   OH225159   3.924   6.005   3.399
 8409TIP3    H125160   3.845   6.057   3.375
 8409TIP3    H225161   3.972   6.001   3.315
 8410TIP3   OH225162   3.883   5.791   3.114
 8410TIP3    H125163   3.952   5.840   3.163
 8410TIP3    H225164   3.940   5.727   3.067
 8411TIP3   OH225165   4.828   6.248   3.987
 8411TIP3    H125166   4.746   6.300   3.992
 8411TIP3    H225167   4.859   6.271   3.897
 8412TIP3   OH225168   4.273   6.087   3.370
 8412TIP3    H125169   4.219   6.111   3.449
 8412TIP3    H225170   4.356   6.060   3.413
 8413TIP3   OH225171   4.507   6.125   4.285
 8413TIP3    H125172   4.505   6.209   4.335
 8413TIP3    H225173   4.421   6.130   4.239
 8414TIP3   OH225174   3.506   6.085   3.787
 8414TIP3    H125175   3.465   6.026   3.721
 8414TIP3    H225176   3.582   6.031   3.818
 8415TIP3   OH225177   3.639   6.500   3.933
 8415TIP3    H125178   3.617   6.450   3.853
 8415TIP3    H225179   3.728   6.465   3.955
 8416TIP3   OH225180   3.640   6.056   4.142
 8416TIP3    H125181   3.675   6.033   4.053
 8416TIP3    H225182   3.685   6.141   4.161
 8417TIP3   OH225183   4.163   6.694   3.918
 8417TIP3    H125184   4.153   6.774   3.972
 8417TIP3    H225185   4.151   6.621   3.982
 8418TIP3   OH225186   3.779   6.613   4.466
 8418TIP3    H125187   3.719   6.675   4.513
 8418TIP3    H225188   3.714   6.559   4.417
 8419TIP3   OH225189   4.111   5.947   3.198
 8419TIP3    H125190   4.172   6.004   3.249
 8419TIP3    H225191   4.138   5.970   3.105
 8420TIP3   OH225192   3.533   6.169   4.567
 8420TIP3    H125193   3.538   6.256   4.612
 8420TIP3    H225194   3.439   6.148   4.579
 8421TIP3   OH225195   3.864   6.628   3.458
 8421TIP3    H125196   3.945   6.675   3.486
 8421TIP3    H225197   3.793   6.682   3.492
 8422TIP3   OH225198   3.573   6.780   4.553
 8422TIP3    H125199   3.538   6.779   4.463
 8422TIP3    H225200   3.493   6.759   4.607
 8423TIP3   OH225201   4.629   5.186   3.246
 8423TIP3    H125202   4.548   5.206   3.297
 8423TIP3    H225203   4.641   5.268   3.195
 8424TIP3   OH225204   3.372   5.928   3.592
 8424TIP3    H125205   3.303   5.970   3.536
 8424TIP3    H225206   3.335   5.841   3.606
 8425TIP3   OH225207   4.429   6.553   2.795
 8425TIP3    H125208   4.438   6.649   2.780
 8425TIP3    H225209   4.521   6.523   2.782
 8426TIP3   OH225210   3.152   6.312   4.500
 8426TIP3    H125211   3.086   6.289   4.432
 8426TIP3    H225212   3.189   6.224   4.524
 8427TIP3   OH225213   3.006   6.506   4.129
 8427TIP3    H125214   3.103   6.499   4.125
 8427TIP3    H225215   2.995   6.583   4.187
 8428TIP3   OH225216   4.872   6.956   4.190
 8428TIP3    H125217   4.870   6.860   4.205
 8428TIP3    H225218   4.789   6.982   4.235
 8429TIP3   OH225219   3.976   6.742   4.322
 8429TIP3    H125220   3.975   6.835   4.356
 8429TIP3    H225221   3.905   6.702   4.378
 8430TIP3   OH225222   3.177   6.717   3.658
 8430TIP3    H125223   3.223   6.709   3.745
 8430TIP3    H225224   3.122   6.638   3.660
 8431TIP3   OH225225   3.946   6.779   2.911
 8431TIP3    H125226   3.998   6.702   2.879
 8431TIP3    H225227   3.962   6.777   3.006
 8432TIP3   OH225228   3.979   6.823   3.198
 8432TIP3    H125229   3.915   6.768   3.246
 8432TIP3    H225230   4.061   6.799   3.243
 8433TIP3   OH225231   4.760   6.086   4.464
 8433TIP3    H125232   4.679   6.098   4.412
 8433TIP3    H225233   4.777   5.991   4.454
 8434TIP3   OH225234   3.358   6.494   4.487
 8434TIP3    H125235   3.407   6.478   4.570
 8434TIP3    H225236   3.283   6.431   4.495
 8435TIP3   OH225237   3.756   5.318   4.274
 8435TIP3    H125238   3.667   5.287   4.247
 8435TIP3    H225239   3.730   5.399   4.321
 8436TIP3   OH225240   4.291   5.432   4.468
 8436TIP3    H125241   4.360   5.405   4.532
 8436TIP3    H225242   4.208   5.412   4.516
 8437TIP3   OH225243   4.528   5.861   4.385
 8437TIP3    H125244   4.480   5.859   4.471
 8437TIP3    H225245   4.505   5.949   4.350
 8438TIP3   OH225246   4.188   5.992   2.941
 8438TIP3    H125247   4.156   5.966   2.853
 8438TIP3    H225248   4.272   6.036   2.918
 8439TIP3   OH225249   3.901   5.367   3.244
 8439TIP3    H125250   3.868   5.364   3.336
 8439TIP3    H225251   3.863   5.283   3.210
 8440TIP3   OH225252   3.688   5.834   4.291
 8440TIP3    H125253   3.638   5.853   4.373
 8440TIP3    H225254   3.671   5.915   4.238
 8441TIP3   OH225255   3.571   5.720   3.805
 8441TIP3    H125256   3.479   5.692   3.824
 8441TIP3    H225257   3.584   5.679   3.717
 8442TIP3   OH225258   4.062   5.805   3.534
 8442TIP3    H125259   4.010   5.876   3.490
 8442TIP3    H225260   4.118   5.774   3.460
 8443TIP3   OH225261   4.237   6.083   4.620
 8443TIP3    H125262   4.214   6.010   4.681
 8443TIP3    H225263   4.331   6.095   4.641
 8444TIP3   OH225264   4.219   5.832   3.771
 8444TIP3    H125265   4.159   5.861   3.700
 8444TIP3    H225266   4.254   5.751   3.728
 8445TIP3   OH225267   3.507   5.862   4.500
 8445TIP3    H125268   3.535   5.924   4.569
 8445TIP3    H225269   3.495   5.779   4.551
 8446TIP3   OH225270   3.557   5.340   3.210
 8446TIP3    H125271   3.549   5.337   3.307
 8446TIP3    H225272   3.478   5.392   3.186
 8447TIP3   OH225273   3.101   5.385   4.079
 8447TIP3    H125274   3.176   5.416   4.134
 8447TIP3    H225275   3.144   5.350   4.000
 8448TIP3   OH225276   3.070   5.364   3.599
 8448TIP3    H125277   3.116   5.403   3.522
 8448TIP3    H225278   3.009   5.438   3.621
 8449TIP3   OH225279   4.228   6.079   4.193
 8449TIP3    H125280   4.262   6.008   4.135
 8449TIP3    H225281   4.200   6.026   4.271
 8450TIP3   OH225282   3.901   5.543   3.866
 8450TIP3    H125283   3.820   5.540   3.921
 8450TIP3    H225284   3.971   5.537   3.934
 8451TIP3   OH225285   3.334   5.598   3.874
 8451TIP3    H125286   3.240   5.604   3.847
 8451TIP3    H225287   3.358   5.506   3.852
 8452TIP3   OH225288   3.601   5.593   3.564
 8452TIP3    H125289   3.695   5.607   3.544
 8452TIP3    H225290   3.555   5.616   3.480
 8453TIP3   OH225291   4.391   5.618   4.069
 8453TIP3    H125292   4.357   5.630   4.161
 8453TIP3    H225293   4.325   5.557   4.033
 8454TIP3   OH225294   3.445   5.630   3.341
 8454TIP3    H125295   3.374   5.583   3.292
 8454TIP3    H225296   3.497   5.665   3.266
 8455TIP3   OH225297   4.562   7.305   4.289
 8455TIP3    H125298   4.561   7.332   4.195
 8455TIP3    H225299   4.642   7.352   4.321
 8456TIP3   OH225300   3.518   6.417   4.708
 8456TIP3    H125301   3.598   6.447   4.756
 8456TIP3    H225302   3.453   6.415   4.781
 8457TIP3   OH225303   3.982   5.871   3.964
 8457TIP3    H125304   4.055   5.830   3.914
 8457TIP3    H225305   3.990   5.828   4.051
 8458TIP3   OH225306   3.503   5.357   3.845
 8458TIP3    H125307   3.468   5.278   3.892
 8458TIP3    H225308   3.554   5.316   3.774
 8459TIP3   OH225309   3.958   5.768   4.253
 8459TIP3    H125310   3.869   5.803   4.268
 8459TIP3    H225311   4.016   5.828   4.304
 8460TIP3   OH225312   3.692   6.161   3.345
 8460TIP3    H125313   3.623   6.092   3.336
 8460TIP3    H225314   3.676   6.191   3.438
 8461TIP3   OH225315   4.595   6.394   3.977
 8461TIP3    H125316   4.621   6.443   3.895
 8461TIP3    H225317   4.510   6.353   3.950
 8462TIP3   OH225318   4.153   5.469   3.212
 8462TIP3    H125319   4.057   5.452   3.221
 8462TIP3    H225320   4.162   5.563   3.237
 8463TIP3   OH225321   4.092   6.474   4.346
 8463TIP3    H125322   4.121   6.455   4.436
 8463TIP3    H225323   4.056   6.564   4.353
 8464TIP3   OH225324   4.222   5.717   3.315
 8464TIP3    H125325   4.319   5.722   3.331
 8464TIP3    H225326   4.205   5.797   3.261
 8465TIP3   OH225327   3.388   6.180   4.023
 8465TIP3    H125328   3.428   6.150   3.939
 8465TIP3    H225329   3.429   6.119   4.087
 8466TIP3   OH225330   3.839   6.313   3.170
 8466TIP3    H125331   3.797   6.401   3.178
 8466TIP3    H225332   3.783   6.258   3.230
 8467TIP3   OH225333   3.269   6.099   4.638
 8467TIP3    H125334   3.288   6.085   4.732
 8467TIP3    H225335   3.200   6.033   4.622
 8468TIP3   OH225336   3.994   6.215   4.658
 8468TIP3    H125337   3.935   6.155   4.610
 8468TIP3    H225338   4.082   6.180   4.630
 8469TIP3   OH225339   4.254   6.734   4.243
 8469TIP3    H125340   4.157   6.734   4.255
 8469TIP3    H225341   4.282   6.787   4.320
 8470TIP3   OH225342   4.663   5.808   3.151
 8470TIP3    H125343   4.601   5.763   3.089
 8470TIP3    H225344   4.661   5.897   3.109
 8471TIP3   OH225345   4.883   6.665   4.232
 8471TIP3    H125346   4.786   6.659   4.223
 8471TIP3    H225347   4.910   6.636   4.142
 8472TIP3   OH225348   4.360   6.627   3.058
 8472TIP3    H125349   4.343   6.554   3.120
 8472TIP3    H225350   4.377   6.581   2.974
 8473TIP3   OH225351   4.360   6.256   3.893
 8473TIP3    H125352   4.267   6.230   3.907
 8473TIP3    H225353   4.395   6.176   3.850
 8474TIP3   OH225354   3.487   6.483   3.645
 8474TIP3    H125355   3.481   6.565   3.593
 8474TIP3    H225356   3.394   6.466   3.666
 8475TIP3   OH225357   3.052   5.788   3.353
 8475TIP3    H125358   3.099   5.871   3.375
 8475TIP3    H225359   2.975   5.793   3.414
 8476TIP3   OH225360   3.625   6.249   3.592
 8476TIP3    H125361   3.588   6.337   3.611
 8476TIP3    H225362   3.591   6.197   3.668
 8477TIP3   OH225363   3.759   6.827   4.118
 8477TIP3    H125364   3.801   6.900   4.068
 8477TIP3    H225365   3.835   6.792   4.167
 8478TIP3   OH225366   3.405   6.721   3.496
 8478TIP3    H125367   3.320   6.728   3.546
 8478TIP3    H225368   3.437   6.814   3.503
 8479TIP3   OH225369   4.146   6.463   4.077
 8479TIP3    H125370   4.135   6.460   4.175
 8479TIP3    H225371   4.226   6.410   4.065
 8480TIP3   OH225372   4.123   6.355   2.961
 8480TIP3    H125373   4.177   6.330   3.040
 8480TIP3    H225374   4.035   6.326   2.990
 8481TIP3   OH225375   4.394   6.994   4.128
 8481TIP3    H125376   4.315   6.938   4.120
 8481TIP3    H225377   4.379   7.059   4.056
 8482TIP3   OH225378   4.461   6.829   2.779
 8482TIP3    H125379   4.501   6.903   2.731
 8482TIP3    H225380   4.380   6.874   2.812
 8483TIP3   OH225381   3.479   5.606   4.644
 8483TIP3    H125382   3.383   5.609   4.657
 8483TIP3    H225383   3.507   5.547   4.717
 8484TIP3   OH225384   4.282   6.290   3.179
 8484TIP3    H125385   4.272   6.221   3.248
 8484TIP3    H225386   4.379   6.286   3.165
 8485TIP3   OH225387   3.197   6.688   4.277
 8485TIP3    H125388   3.250   6.616   4.314
 8485TIP3    H225389   3.221   6.761   4.336
 8486TIP3   OH225390   3.482   6.333   2.961
 8486TIP3    H125391   3.497   6.242   2.931
 8486TIP3    H225392   3.464   6.319   3.056
 8487TIP3   OH225393   3.434   6.342   3.236
 8487TIP3    H125394   3.502   6.305   3.293
 8487TIP3    H225395   3.450   6.438   3.245
 8488TIP3   OH225396   3.166   6.031   3.436
 8488TIP3    H125397   3.100   6.076   3.493
 8488TIP3    H225398   3.180   6.101   3.369
 8489TIP3   OH225399   4.317   5.670   4.329
 8489TIP3    H125400   4.398   5.708   4.366
 8489TIP3    H225401   4.304   5.589   4.383
 8490TIP3   OH225402   4.197   5.420   3.494
 8490TIP3    H125403   4.184   5.443   3.400
 8490TIP3    H225404   4.238   5.502   3.530
 8491TIP3   OH225405   3.705   6.553   3.164
 8491TIP3    H125406   3.619   6.585   3.198
 8491TIP3    H225407   3.694   6.567   3.068
 8492TIP3   OH225408   3.884   5.601   3.595
 8492TIP3    H125409   3.949   5.672   3.578
 8492TIP3    H225410   3.890   5.593   3.693
 8493TIP3   OH225411   4.156   5.918   4.402
 8493TIP3    H125412   4.179   5.970   4.481
 8493TIP3    H225413   4.211   5.838   4.413
 8494TIP3   OH225414   4.030   5.325   3.696
 8494TIP3    H125415   4.025   5.401   3.757
 8494TIP3    H225416   4.091   5.360   3.628
 8495TIP3   OH225417   3.447   6.618   3.244
 8495TIP3    H125418   3.370   6.646   3.193
 8495TIP3    H225419   3.430   6.658   3.333
 8496TIP3   OH225420   3.542   5.325   3.486
 8496TIP3    H125421   3.540   5.415   3.524
 8496TIP3    H225422   3.638   5.307   3.494
 8497TIP3   OH225423   4.796   5.820   4.383
 8497TIP3    H125424   4.698   5.818   4.390
 8497TIP3    H225425   4.808   5.775   4.298
 8498TIP3   OH225426   4.446   6.013   3.771
 8498TIP3    H125427   4.371   5.953   3.783
 8498TIP3    H225428   4.518   5.967   3.819
 8499TIP3   OH225429   3.161   6.240   3.241
 8499TIP3    H125430   3.231   6.307   3.248
 8499TIP3    H225431   3.203   6.182   3.173
 8500TIP3   OH225432   3.104   5.517   3.374
 8500TIP3    H125433   3.104   5.615   3.371
 8500TIP3    H225434   3.021   5.495   3.332
 8501TIP3   OH225435   4.415   6.969   3.719
 8501TIP3    H125436   4.374   7.015   3.643
 8501TIP3    H225437   4.510   6.988   3.701
 8502TIP3   OH225438   3.492   5.238   4.247
 8502TIP3    H125439   3.460   5.204   4.160
 8502TIP3    H225440   3.481   5.160   4.305
 8503TIP3   OH225441   3.029   6.457   3.626
 8503TIP3    H125442   2.965   6.486   3.693
 8503TIP3    H225443   2.994   6.500   3.545
 8504TIP3   OH225444   3.188   7.000   4.699
 8504TIP3    H125445   3.274   7.000   4.747
 8504TIP3    H225446   3.168   6.905   4.698
 8505TIP3   OH225447   3.668   6.961   4.745
 8505TIP3    H125448   3.763   6.942   4.751
 8505TIP3    H225449   3.642   6.902   4.671
 8506TIP3   OH225450   3.655   6.534   2.890
 8506TIP3    H125451   3.595   6.460   2.912
 8506TIP3    H225452   3.728   6.488   2.846
 8507TIP3   OH225453   4.306   6.870   4.478
 8507TIP3    H125454   4.300   6.799   4.546
 8507TIP3    H225455   4.385   6.920   4.506
 8508TIP3   OH225456   4.085   6.575   2.784
 8508TIP3    H125457   4.128   6.511   2.845
 8508TIP3    H225458   4.145   6.575   2.707
 8509TIP3   OH225459   3.318   6.405   4.900
 8509TIP3    H125460   3.334   6.309   4.905
 8509TIP3    H225461   3.230   6.407   4.856
 8510TIP3   OH225462   3.296   6.054   3.094
 8510TIP3    H125463   3.351   6.019   3.167
 8510TIP3    H225464   3.362   6.058   3.023
 8511TIP3   OH225465   3.925   6.490   4.673
 8511TIP3    H125466   3.884   6.507   4.586
 8511TIP3    H225467   3.957   6.397   4.665
 8512TIP3   OH225468   3.805   6.252   2.901
 8512TIP3    H125469   3.808   6.266   2.997
 8512TIP3    H225470   3.806   6.154   2.896
 8513TIP3   OH225471   4.417   6.500   4.280
 8513TIP3    H125472   4.493   6.543   4.236
 8513TIP3    H225473   4.348   6.567   4.266
 8514TIP3   OH225474   3.437   6.141   4.882
 8514TIP3    H125475   3.511   6.083   4.860
 8514TIP3    H225476   3.463   6.172   4.971
 8515TIP3   OH225477   3.502   5.960   3.314
 8515TIP3    H125478   3.476   5.919   3.398
 8515TIP3    H225479   3.539   5.884   3.265
 8516TIP3   OH225480   3.772   6.023   4.544
 8516TIP3    H125481   3.694   6.083   4.546
 8516TIP3    H225482   3.821   6.057   4.465
 8517TIP3   OH225483   3.605   5.754   3.155
 8517TIP3    H125484   3.579   5.757   3.061
 8517TIP3    H225485   3.702   5.759   3.148
 8518TIP3   OH225486   4.289   6.425   4.677
 8518TIP3    H125487   4.368   6.398   4.628
 8518TIP3    H225488   4.286   6.358   4.748
 8519TIP3   OH225489   4.423   6.083   2.821
 8519TIP3    H125490   4.404   6.037   2.737
 8519TIP3    H225491   4.391   6.173   2.796
 8520TIP3   OH225492   3.895   5.812   4.670
 8520TIP3    H125493   3.896   5.732   4.613
 8520TIP3    H225494   3.852   5.878   4.612
 8521TIP3   OH225495   3.899   5.598   4.477
 8521TIP3    H125496   3.926   5.639   4.392
 8521TIP3    H225497   3.805   5.575   4.458
 8522TIP3   OH225498   3.923   6.132   4.350
 8522TIP3    H125499   4.008   6.142   4.304
 8522TIP3    H225500   3.868   6.200   4.305
 8523TIP3   OH225501   4.508   6.100   4.731
 8523TIP3    H125502   4.554   6.015   4.739
 8523TIP3    H225503   4.577   6.156   4.694
 8524TIP3   OH225504   4.547   6.354   4.467
 8524TIP3    H125505   4.490   6.409   4.408
 8524TIP3    H225506   4.635   6.374   4.428
 8525TIP3   OH225507   3.774   5.921   4.901
 8525TIP3    H125508   3.705   5.853   4.916
 8525TIP3    H225509   3.808   5.895   4.813
 8526TIP3   OH225510   4.030   5.361   4.545
 8526TIP3    H125511   3.982   5.444   4.522
 8526TIP3    H225512   3.960   5.294   4.534
 8527TIP3   OH225513   4.155   5.865   4.761
 8527TIP3    H125514   4.143   5.852   4.856
 8527TIP3    H225515   4.066   5.841   4.729
 8528TIP3   OH225516   4.396   5.817   4.616
 8528TIP3    H125517   4.320   5.816   4.677
 8528TIP3    H225518   4.469   5.785   4.673
 8529TIP3   OH225519   4.624   5.757   4.767
 8529TIP3    H125520   4.638   5.661   4.783
 8529TIP3    H225521   4.621   5.793   4.858
 8530TIP3   OH225522   3.613   5.702   4.954
 8530TIP3    H125523   3.618   5.610   4.920
 8530TIP3    H225524   3.650   5.689   5.044
 8531TIP3   OH225525   4.124   5.372   4.803
 8531TIP3    H125526   4.192   5.301   4.797
 8531TIP3    H225527   4.084   5.365   4.714
 8532TIP3   OH225528   4.190   5.586   4.961
 8532TIP3    H125529   4.168   5.515   4.897
 8532TIP3    H225530   4.112   5.645   4.954
 8533TIP3   OH225531   2.891   6.197   3.275
 8533TIP3    H125532   2.986   6.218   3.263
 8533TIP3    H225533   2.886   6.108   3.234
 8534TIP3   OH225534   2.807   6.807   3.692
 8534TIP3    H125535   2.739   6.746   3.656
 8534TIP3    H225536   2.851   6.749   3.758
 8535TIP3   OH225537   2.943   6.656   3.878
 8535TIP3    H125538   2.930   6.586   3.944
 8535TIP3    H225539   2.993   6.720   3.932
 8536TIP3   OH225540   4.668   7.061   3.677
 8536TIP3    H125541   4.693   7.093   3.766
 8536TIP3    H225542   4.733   7.105   3.621
 8537TIP3   OH225543   4.697   7.080   3.959
 8537TIP3    H125544   4.656   6.991   3.957
 8537TIP3    H225545   4.773   7.062   4.017
 8538TIP3   OH225546   4.744   6.756   4.533
 8538TIP3    H125547   4.672   6.766   4.598
 8538TIP3    H225548   4.787   6.844   4.538
 8539TIP3   OH225549   4.560   6.271   3.152
 8539TIP3    H125550   4.629   6.334   3.123
 8539TIP3    H225551   4.604   6.231   3.231
 8540TIP3   OH225552   4.687   6.138   3.355
 8540TIP3    H125553   4.623   6.096   3.416
 8540TIP3    H225554   4.755   6.174   3.417
 8541TIP3   OH225555   4.742   6.529   3.787
 8541TIP3    H125556   4.797   6.464   3.739
 8541TIP3    H225557   4.738   6.603   3.723
 8542TIP3   OH225558   4.573   6.829   3.983
 8542TIP3    H125559   4.503   6.871   4.035
 8542TIP3    H225560   4.522   6.781   3.914
 8543TIP3   OH225561   4.626   6.045   3.003
 8543TIP3    H125562   4.553   6.048   2.936
 8543TIP3    H225563   4.600   6.122   3.058
 8544TIP3   OH225564   4.494   5.719   2.958
 8544TIP3    H125565   4.455   5.754   2.877
 8544TIP3    H225566   4.472   5.624   2.949
 8545TIP3   OH225567   4.500   5.994   3.501
 8545TIP3    H125568   4.511   5.898   3.496
 8545TIP3    H225569   4.487   6.008   3.598
 8546TIP3   OH225570   3.128   6.069   4.249
 8546TIP3    H125571   3.126   6.036   4.156
 8546TIP3    H225572   3.225   6.069   4.266
 8547TIP3   OH225573   4.791   6.418   4.360
 8547TIP3    H125574   4.863   6.352   4.350
 8547TIP3    H225575   4.818   6.488   4.298
 8548TIP3   OH225576   4.976   6.222   4.374
 8548TIP3    H125577   4.901   6.172   4.413
 8548TIP3    H225578   5.048   6.158   4.390
 8549TIP3   OH225579   4.441   5.453   2.942
 8549TIP3    H125580   4.516   5.421   2.996
 8549TIP3    H225581   4.369   5.392   2.967
 8550TIP3   OH225582   4.498   5.710   3.395
 8550TIP3    H125583   4.539   5.622   3.411
 8550TIP3    H225584   4.556   5.744   3.325
 8551TIP3   OH225585   4.659   5.884   3.892
 8551TIP3    H125586   4.745   5.909   3.851
 8551TIP3    H225587   4.674   5.920   3.981
 8552TIP3   OH225588   4.729   6.028   4.124
 8552TIP3    H125589   4.651   6.063   4.172
 8552TIP3    H225590   4.762   6.109   4.079
 8553TIP3   OH225591   3.346   5.755   4.926
 8553TIP3    H125592   3.444   5.747   4.928
 8553TIP3    H225593   3.322   5.668   4.965
 8554TIP3   OH225594   5.182   5.607   4.686
 8554TIP3    H125595   5.241   5.533   4.655
 8554TIP3    H225596   5.167   5.655   4.603
 8555TIP3   OH225597   4.606   5.461   3.435
 8555TIP3    H125598   4.656   5.444   3.518
 8555TIP3    H225599   4.547   5.383   3.433
 8556TIP3   OH225600   3.307   5.446   4.253
 8556TIP3    H125601   3.369   5.371   4.264
 8556TIP3    H225602   3.370   5.521   4.247
 8557TIP3   OH225603   3.108   5.720   4.326
 8557TIP3    H125604   3.159   5.715   4.243
 8557TIP3    H225605   3.139   5.803   4.362
 8558TIP3   OH225606   5.053   5.755   4.487
 8558TIP3    H125607   4.966   5.794   4.507
 8558TIP3    H225608   5.025   5.682   4.428
 8559TIP3   OH225609   4.686   5.394   3.067
 8559TIP3    H125610   4.727   5.322   3.015
 8559TIP3    H225611   4.754   5.464   3.063
 8560TIP3   OH225612   3.093   5.222   3.828
 8560TIP3    H125613   3.000   5.219   3.856
 8560TIP3    H225614   3.089   5.281   3.750
 8561TIP3   OH225615   4.246   6.927   3.329
 8561TIP3    H125616   4.305   6.915   3.252
 8561TIP3    H225617   4.297   6.990   3.384
 8562TIP3   OH225618   3.313   5.304   4.643
 8562TIP3    H125619   3.262   5.295   4.725
 8562TIP3    H225620   3.246   5.342   4.583
 8563TIP3   OH225621   3.353   6.731   4.719
 8563TIP3    H125622   3.260   6.705   4.703
 8563TIP3    H225623   3.363   6.712   4.813
 8564TIP3   OH225624   3.532   6.763   4.267
 8564TIP3    H125625   3.484   6.840   4.229
 8564TIP3    H225626   3.618   6.778   4.222
 8565TIP3   OH225627   3.976   7.008   4.404
 8565TIP3    H125628   4.017   7.008   4.493
 8565TIP3    H225629   4.042   7.059   4.353
 8566TIP3   OH225630   4.156   7.160   4.264
 8566TIP3    H125631   4.228   7.109   4.224
 8566TIP3    H225632   4.206   7.219   4.325
 8567TIP3   OH225633   4.949   5.522   4.363
 8567TIP3    H125634   4.858   5.511   4.331
 8567TIP3    H225635   4.984   5.430   4.352
 8568TIP3   OH225636   3.208   7.020   4.291
 8568TIP3    H125637   3.118   7.053   4.269
 8568TIP3    H225638   3.220   7.061   4.377
 8569TIP3   OH225639   3.443   6.999   4.149
 8569TIP3    H125640   3.357   7.011   4.194
 8569TIP3    H225641   3.423   7.032   4.059
 8570TIP3   OH225642   3.871   7.028   3.945
 8570TIP3    H125643   3.799   7.049   3.882
 8570TIP3    H225644   3.884   7.114   3.990
 8571TIP3   OH225645   4.139   6.965   3.997
 8571TIP3    H125646   4.045   6.985   3.979
 8571TIP3    H225647   4.184   7.042   3.958
 8572TIP3   OH225648   4.341   7.156   3.912
 8572TIP3    H125649   4.331   7.242   3.866
 8572TIP3    H225650   4.371   7.097   3.840
 8573TIP3   OH225651   3.120   6.814   4.035
 8573TIP3    H125652   3.145   6.787   4.125
 8573TIP3    H225653   3.192   6.770   3.984
 8574TIP3   OH225654   3.315   6.685   3.892
 8574TIP3    H125655   3.328   6.601   3.942
 8574TIP3    H225656   3.406   6.721   3.891
 8575TIP3   OH225657   3.582   6.777   3.897
 8575TIP3    H125658   3.611   6.684   3.891
 8575TIP3    H225659   3.627   6.802   3.980
 8576TIP3   OH225660   4.152   5.435   3.980
 8576TIP3    H125661   4.112   5.364   4.034
 8576TIP3    H225662   4.227   5.389   3.938
 8577TIP3   OH225663   4.675   5.319   3.887
 8577TIP3    H125664   4.713   5.370   3.812
 8577TIP3    H225665   4.580   5.339   3.879
 8578TIP3   OH225666   4.772   5.417   3.651
 8578TIP3    H125667   4.846   5.364   3.613
 8578TIP3    H225668   4.807   5.508   3.636
 8579TIP3   OH225669   3.403   5.144   3.998
 8579TIP3    H125670   3.311   5.110   4.001
 8579TIP3    H225671   3.453   5.060   3.995
 8580TIP3   OH225672   3.187   5.015   3.648
 8580TIP3    H125673   3.220   5.072   3.576
 8580TIP3    H225674   3.161   5.081   3.715
 8581TIP3   OH225675   3.847   5.179   3.880
 8581TIP3    H125676   3.906   5.226   3.819
 8581TIP3    H225677   3.874   5.214   3.966
 8582TIP3   OH225678   4.391   5.325   3.864
 8582TIP3    H125679   4.393   5.286   3.775
 8582TIP3    H225680   4.380   5.244   3.920
 8583TIP3   OH225681   4.424   5.248   3.426
 8583TIP3    H125682   4.337   5.290   3.439
 8583TIP3    H225683   4.410   5.162   3.471
 8584TIP3   OH225684   2.909   6.588   3.424
 8584TIP3    H125685   2.823   6.554   3.390
 8584TIP3    H225686   2.897   6.683   3.405
 8585TIP3   OH225687   3.309   5.176   3.409
 8585TIP3    H125688   3.357   5.111   3.354
 8585TIP3    H225689   3.382   5.228   3.446
 8586TIP3   OH225690   3.819   5.351   3.508
 8586TIP3    H125691   3.879   5.303   3.569
 8586TIP3    H225692   3.840   5.443   3.534
 8587TIP3   OH225693   4.398   6.893   3.102
 8587TIP3    H125694   4.389   6.795   3.089
 8587TIP3    H225695   4.356   6.926   3.020
 8588TIP3   OH225696   3.611   5.426   4.891
 8588TIP3    H125697   3.577   5.355   4.948
 8588TIP3    H225698   3.706   5.426   4.918
 8589TIP3   OH225699   3.861   5.424   5.010
 8589TIP3    H125700   3.945   5.397   4.970
 8589TIP3    H225701   3.847   5.353   5.076
 8590TIP3   OH225702   2.984   6.606   3.062
 8590TIP3    H125703   2.978   6.633   3.155
 8590TIP3    H225704   3.072   6.562   3.058
 8591TIP3   OH225705   4.686   5.487   4.797
 8591TIP3    H125706   4.707   5.456   4.887
 8591TIP3    H225707   4.774   5.482   4.754
 8592TIP3   OH225708   4.624   7.037   4.289
 8592TIP3    H125709   4.545   7.007   4.240
 8592TIP3    H225710   4.607   7.133   4.293
 8593TIP3   OH225711   5.901   6.419   3.055
 8593TIP3    H125712   5.859   6.503   3.028
 8593TIP3    H225713   5.830   6.355   3.034
 8594TIP3   OH225714   5.886   6.404   3.427
 8594TIP3    H125715   5.911   6.356   3.506
 8594TIP3    H225716   5.858   6.328   3.371
 8595TIP3   OH225717   5.187   6.304   3.805
 8595TIP3    H125718   5.219   6.237   3.868
 8595TIP3    H225719   5.269   6.353   3.787
 8596TIP3   OH225720   6.139   6.714   3.116
 8596TIP3    H125721   6.111   6.640   3.172
 8596TIP3    H225722   6.162   6.783   3.180
 8597TIP3   OH225723   5.161   6.713   3.524
 8597TIP3    H125724   5.152   6.616   3.526
 8597TIP3    H225725   5.258   6.722   3.519
 8598TIP3   OH225726   4.866   5.917   3.310
 8598TIP3    H125727   4.818   6.000   3.326
 8598TIP3    H225728   4.795   5.863   3.269
 8599TIP3   OH225729   4.925   6.203   3.484
 8599TIP3    H125730   4.975   6.126   3.521
 8599TIP3    H225731   4.988   6.238   3.419
 8600TIP3   OH225732   5.786   7.176   3.136
 8600TIP3    H125733   5.829   7.103   3.085
 8600TIP3    H225734   5.773   7.133   3.222
 8601TIP3   OH225735   5.688   6.633   3.485
 8601TIP3    H125736   5.724   6.554   3.441
 8601TIP3    H225737   5.772   6.678   3.506
 8602TIP3   OH225738   6.707   5.953   3.484
 8602TIP3    H125739   6.733   6.040   3.521
 8602TIP3    H225740   6.719   5.970   3.389
 8603TIP3   OH225741   6.091   6.135   3.494
 8603TIP3    H125742   6.129   6.047   3.512
 8603TIP3    H225743   6.005   6.111   3.452
 8604TIP3   OH225744   5.432   5.797   3.485
 8604TIP3    H125745   5.421   5.870   3.422
 8604TIP3    H225746   5.386   5.725   3.437
 8605TIP3   OH225747   6.144   5.850   3.097
 8605TIP3    H125748   6.212   5.855   3.167
 8605TIP3    H225749   6.162   5.931   3.048
 8606TIP3   OH225750   5.072   5.998   3.589
 8606TIP3    H125751   5.155   5.978   3.637
 8606TIP3    H225752   5.087   5.943   3.509
 8607TIP3   OH225753   5.516   6.193   3.379
 8607TIP3    H125754   5.611   6.172   3.367
 8607TIP3    H225755   5.476   6.108   3.351
 8608TIP3   OH225756   6.779   6.167   3.651
 8608TIP3    H125757   6.695   6.211   3.628
 8608TIP3    H225758   6.781   6.183   3.746
 8609TIP3   OH225759   5.433   5.778   3.918
 8609TIP3    H125760   5.376   5.816   3.848
 8609TIP3    H225761   5.380   5.798   3.997
 8610TIP3   OH225762   5.783   6.634   2.926
 8610TIP3    H125763   5.739   6.604   2.845
 8610TIP3    H225764   5.733   6.716   2.946
 8611TIP3   OH225765   5.543   6.554   3.710
 8611TIP3    H125766   5.481   6.622   3.745
 8611TIP3    H225767   5.585   6.602   3.636
 8612TIP3   OH225768   6.347   5.891   3.280
 8612TIP3    H125769   6.320   5.848   3.362
 8612TIP3    H225770   6.392   5.972   3.311
 8613TIP3   OH225771   5.304   5.895   3.703
 8613TIP3    H125772   5.367   5.967   3.725
 8613TIP3    H225773   5.353   5.854   3.628
 8614TIP3   OH225774   5.372   6.750   3.808
 8614TIP3    H125775   5.345   6.836   3.771
 8614TIP3    H225776   5.293   6.732   3.864
 8615TIP3   OH225777   4.763   6.440   3.046
 8615TIP3    H125778   4.724   6.467   2.961
 8615TIP3    H225779   4.796   6.525   3.081
 8616TIP3   OH225780   6.207   6.957   3.290
 8616TIP3    H125781   6.116   6.946   3.328
 8616TIP3    H225782   6.195   7.041   3.241
 8617TIP3   OH225783   6.494   5.857   3.651
 8617TIP3    H125784   6.404   5.877   3.619
 8617TIP3    H225785   6.549   5.885   3.576
 8618TIP3   OH225786   5.791   5.495   3.636
 8618TIP3    H125787   5.770   5.401   3.650
 8618TIP3    H225788   5.714   5.537   3.680
 8619TIP3   OH225789   5.903   7.002   2.958
 8619TIP3    H125790   5.952   6.918   2.939
 8619TIP3    H225791   5.964   7.066   2.917
 8620TIP3   OH225792   6.047   6.788   2.867
 8620TIP3    H125793   6.011   6.708   2.827
 8620TIP3    H225794   6.086   6.753   2.950
 8621TIP3   OH225795   6.433   6.867   3.628
 8621TIP3    H125796   6.418   6.789   3.570
 8621TIP3    H225797   6.412   6.941   3.567
 8622TIP3   OH225798   5.722   6.278   2.889
 8622TIP3    H125799   5.644   6.321   2.851
 8622TIP3    H225800   5.774   6.251   2.811
 8623TIP3   OH225801   5.679   6.047   2.603
 8623TIP3    H125802   5.747   6.095   2.653
 8623TIP3    H225803   5.735   5.984   2.554
 8624TIP3   OH225804   6.627   6.510   3.477
 8624TIP3    H125805   6.541   6.558   3.481
 8624TIP3    H225806   6.653   6.529   3.385
 8625TIP3   OH225807   6.070   6.345   2.855
 8625TIP3    H125808   6.014   6.370   2.933
 8625TIP3    H225809   6.151   6.317   2.901
 8626TIP3   OH225810   6.307   6.384   3.768
 8626TIP3    H125811   6.297   6.469   3.814
 8626TIP3    H225812   6.219   6.378   3.724
 8627TIP3   OH225813   5.304   6.340   3.276
 8627TIP3    H125814   5.264   6.281   3.208
 8627TIP3    H225815   5.381   6.287   3.305
 8628TIP3   OH225816   5.432   6.754   3.422
 8628TIP3    H125817   5.410   6.713   3.336
 8628TIP3    H225818   5.521   6.718   3.440
 8629TIP3   OH225819   5.432   6.314   3.624
 8629TIP3    H125820   5.472   6.285   3.540
 8629TIP3    H225821   5.480   6.397   3.643
 8630TIP3   OH225822   5.964   6.951   3.407
 8630TIP3    H125823   5.949   7.029   3.463
 8630TIP3    H225824   5.949   6.876   3.467
 8631TIP3   OH225825   5.575   6.868   3.954
 8631TIP3    H125826   5.515   6.930   3.999
 8631TIP3    H225827   5.511   6.815   3.903
 8632TIP3   OH225828   5.906   6.199   2.688
 8632TIP3    H125829   5.966   6.257   2.740
 8632TIP3    H225830   5.934   6.222   2.596
 8633TIP3   OH225831   5.331   6.425   4.058
 8633TIP3    H125832   5.334   6.513   4.100
 8633TIP3    H225833   5.236   6.405   4.063
 8634TIP3   OH225834   5.651   6.883   2.960
 8634TIP3    H125835   5.734   6.933   2.972
 8634TIP3    H225836   5.593   6.947   2.918
 8635TIP3   OH225837   5.370   7.035   4.040
 8635TIP3    H125838   5.334   7.036   3.950
 8635TIP3    H225839   5.291   7.013   4.094
 8636TIP3   OH225840   6.425   5.441   2.734
 8636TIP3    H125841   6.343   5.463   2.784
 8636TIP3    H225842   6.438   5.524   2.684
 8637TIP3   OH225843   5.169   6.183   3.077
 8637TIP3    H125844   5.101   6.228   3.022
 8637TIP3    H225845   5.128   6.098   3.094
 8638TIP3   OH225846   6.225   6.808   2.285
 8638TIP3    H125847   6.234   6.903   2.265
 8638TIP3    H225848   6.316   6.776   2.272
 8639TIP3   OH225849   4.947   6.568   3.987
 8639TIP3    H125850   4.883   6.545   3.918
 8639TIP3    H225851   4.986   6.481   4.011
 8640TIP3   OH225852   4.803   6.761   3.618
 8640TIP3    H125853   4.899   6.754   3.610
 8640TIP3    H225854   4.795   6.839   3.675
 8641TIP3   OH225855   6.667   7.215   3.675
 8641TIP3    H125856   6.666   7.118   3.686
 8641TIP3    H225857   6.583   7.238   3.720
 8642TIP3   OH225858   5.773   6.996   3.811
 8642TIP3    H125859   5.771   7.090   3.842
 8642TIP3    H225860   5.701   6.957   3.865
 8643TIP3   OH225861   5.534   7.127   2.762
 8643TIP3    H125862   5.488   7.106   2.679
 8643TIP3    H225863   5.500   7.215   2.785
 8644TIP3   OH225864   4.971   6.976   3.147
 8644TIP3    H125865   5.020   6.967   3.232
 8644TIP3    H225866   4.919   6.894   3.147
 8645TIP3   OH225867   5.735   7.030   2.402
 8645TIP3    H125868   5.792   6.958   2.366
 8645TIP3    H225869   5.770   7.038   2.493
 8646TIP3   OH225870   5.787   7.078   2.672
 8646TIP3    H125871   5.698   7.086   2.714
 8646TIP3    H225872   5.836   7.032   2.741
 8647TIP3   OH225873   6.556   6.345   3.948
 8647TIP3    H125874   6.474   6.357   3.898
 8647TIP3    H225875   6.570   6.249   3.937
 8648TIP3   OH225876   5.154   6.750   3.972
 8648TIP3    H125877   5.202   6.736   4.056
 8648TIP3    H225878   5.079   6.687   3.981
 8649TIP3   OH225879   5.552   5.571   3.761
 8649TIP3    H125880   5.461   5.544   3.736
 8649TIP3    H225881   5.531   5.657   3.803
 8650TIP3   OH225882   6.086   5.691   3.954
 8650TIP3    H125883   6.152   5.663   4.020
 8650TIP3    H225884   6.001   5.670   3.996
 8651TIP3   OH225885   6.334   6.124   3.880
 8651TIP3    H125886   6.277   6.118   3.960
 8651TIP3    H225887   6.300   6.203   3.836
 8652TIP3   OH225888   5.983   6.247   2.429
 8652TIP3    H125889   5.951   6.222   2.340
 8652TIP3    H225890   6.067   6.292   2.405
 8653TIP3   OH225891   5.693   5.625   2.732
 8653TIP3    H125892   5.665   5.620   2.826
 8653TIP3    H225893   5.657   5.540   2.699
 8654TIP3   OH225894   5.477   6.092   3.774
 8654TIP3    H125895   5.431   6.113   3.858
 8654TIP3    H225896   5.463   6.173   3.722
 8655TIP3   OH225897   5.366   5.974   3.289
 8655TIP3    H125898   5.274   5.946   3.307
 8655TIP3    H225899   5.383   5.931   3.203
 8656TIP3   OH225900   6.034   6.342   4.111
 8656TIP3    H125901   6.009   6.267   4.170
 8656TIP3    H225902   6.129   6.349   4.130
 8657TIP3   OH225903   5.301   6.120   3.989
 8657TIP3    H125904   5.333   6.182   4.057
 8657TIP3    H225905   5.292   6.037   4.038
 8658TIP3   OH225906   5.352   5.595   2.696
 8658TIP3    H125907   5.344   5.593   2.793
 8658TIP3    H225908   5.274   5.649   2.672
 8659TIP3   OH225909   4.897   5.641   3.568
 8659TIP3    H125910   4.972   5.673   3.622
 8659TIP3    H225911   4.939   5.608   3.488
 8660TIP3   OH225912   4.865   5.620   3.086
 8660TIP3    H125913   4.911   5.659   3.009
 8660TIP3    H225914   4.805   5.694   3.108
 8661TIP3   OH225915   6.048   6.332   3.678
 8661TIP3    H125916   6.065   6.262   3.612
 8661TIP3    H225917   6.008   6.280   3.751
 8662TIP3   OH225918   5.704   5.768   3.366
 8662TIP3    H125919   5.626   5.778   3.424
 8662TIP3    H225920   5.745   5.856   3.373
 8663TIP3   OH225921   5.129   5.853   3.360
 8663TIP3    H125922   5.034   5.859   3.334
 8663TIP3    H225923   5.153   5.761   3.339
 8664TIP3   OH225924   5.415   5.854   3.040
 8664TIP3    H125925   5.489   5.909   3.012
 8664TIP3    H225926   5.350   5.869   2.968
 8665TIP3   OH225927   6.192   5.873   3.562
 8665TIP3    H125928   6.150   5.892   3.648
 8665TIP3    H225929   6.126   5.808   3.527
 8666TIP3   OH225930   5.243   5.883   2.831
 8666TIP3    H125931   5.172   5.839   2.783
 8666TIP3    H225932   5.295   5.920   2.757
 8667TIP3   OH225933   6.359   7.561   3.775
 8667TIP3    H125934   6.354   7.585   3.680
 8667TIP3    H225935   6.435   7.615   3.805
 8668TIP3   OH225936   5.314   6.673   4.195
 8668TIP3    H125937   5.393   6.704   4.243
 8668TIP3    H225938   5.248   6.674   4.268
 8669TIP3   OH225939   5.298   5.614   3.328
 8669TIP3    H125940   5.264   5.535   3.378
 8669TIP3    H225941   5.356   5.572   3.264
 8670TIP3   OH225942   5.749   6.008   3.782
 8670TIP3    H125943   5.668   6.049   3.749
 8670TIP3    H225944   5.813   6.081   3.782
 8671TIP3   OH225945   5.481   6.422   2.828
 8671TIP3    H125946   5.413   6.351   2.821
 8671TIP3    H225947   5.470   6.450   2.922
 8672TIP3   OH225948   6.390   6.649   3.465
 8672TIP3    H125949   6.412   6.698   3.382
 8672TIP3    H225950   6.305   6.606   3.441
 8673TIP3   OH225951   5.948   5.721   2.687
 8673TIP3    H125952   5.851   5.711   2.704
 8673TIP3    H225953   5.968   5.814   2.713
 8674TIP3   OH225954   5.900   6.738   3.831
 8674TIP3    H125955   5.908   6.709   3.923
 8674TIP3    H225956   5.852   6.822   3.839
 8675TIP3   OH225957   6.033   5.961   2.776
 8675TIP3    H125958   6.121   5.982   2.811
 8675TIP3    H225959   5.996   6.049   2.755
 8676TIP3   OH225960   5.183   6.434   3.509
 8676TIP3    H125961   5.223   6.408   3.424
 8676TIP3    H225962   5.231   6.376   3.570
 8677TIP3   OH225963   5.636   6.563   2.653
 8677TIP3    H125964   5.590   6.650   2.662
 8677TIP3    H225965   5.581   6.508   2.713
 8678TIP3   OH225966   5.064   6.357   4.125
 8678TIP3    H125967   5.084   6.342   4.219
 8678TIP3    H225968   4.996   6.289   4.108
 8679TIP3   OH225969   5.790   6.471   4.145
 8679TIP3    H125970   5.729   6.414   4.095
 8679TIP3    H225971   5.876   6.436   4.116
 8680TIP3   OH225972   6.053   7.000   3.724
 8680TIP3    H125973   5.957   6.989   3.738
 8680TIP3    H225974   6.078   7.047   3.807
 8681TIP3   OH225975   6.464   6.064   2.635
 8681TIP3    H125976   6.401   6.019   2.574
 8681TIP3    H225977   6.458   6.153   2.595
 8682TIP3   OH225978   6.682   6.927   3.715
 8682TIP3    H125979   6.584   6.918   3.708
 8682TIP3    H225980   6.707   6.894   3.626
 8683TIP3   OH225981   6.165   6.883   2.548
 8683TIP3    H125982   6.137   6.811   2.606
 8683TIP3    H225983   6.177   6.839   2.462
 8684TIP3   OH225984   6.157   6.509   3.385
 8684TIP3    H125985   6.064   6.483   3.397
 8684TIP3    H225986   6.191   6.431   3.338
 8685TIP3   OH225987   5.285   6.742   3.140
 8685TIP3    H125988   5.286   6.821   3.084
 8685TIP3    H225989   5.191   6.723   3.146
 8686TIP3   OH225990   4.848   6.044   2.840
 8686TIP3    H125991   4.895   6.127   2.861
 8686TIP3    H225992   4.772   6.049   2.901
 8687TIP3   OH225993   5.419   6.506   3.078
 8687TIP3    H125994   5.386   6.595   3.100
 8687TIP3    H225995   5.389   6.454   3.155
 8688TIP3   OH225996   5.555   7.083   3.605
 8688TIP3    H125997   5.596   7.156   3.554
 8688TIP3    H225998   5.631   7.047   3.652
 8689TIP3   OH225999   5.203   6.980   2.988
 8689TIP3    H126000   5.118   6.987   3.035
 8689TIP3    H226001   5.235   7.073   2.992
 8690TIP3   OH226002   5.944   6.720   3.562
 8690TIP3    H126003   5.935   6.717   3.660
 8690TIP3    H226004   6.015   6.656   3.548
 8691TIP3   OH226005   5.916   6.613   2.450
 8691TIP3    H126006   5.972   6.588   2.527
 8691TIP3    H226007   5.829   6.582   2.481
 8692TIP3   OH226008   6.193   7.251   3.616
 8692TIP3    H126009   6.115   7.192   3.613
 8692TIP3    H226010   6.173   7.313   3.543
 8693TIP3   OH226011   6.256   7.084   2.266
 8693TIP3    H126012   6.288   7.152   2.205
 8693TIP3    H226013   6.177   7.130   2.302
 8694TIP3   OH226014   5.275   5.864   4.133
 8694TIP3    H126015   5.178   5.865   4.144
 8694TIP3    H226016   5.303   5.803   4.202
 8695TIP3   OH226017   6.078   6.548   2.664
 8695TIP3    H126018   6.066   6.479   2.733
 8695TIP3    H226019   6.174   6.543   2.651
 8696TIP3   OH226020   4.992   6.946   3.764
 8696TIP3    H126021   5.047   6.874   3.800
 8696TIP3    H226022   5.017   7.019   3.822
 8697TIP3   OH226023   5.280   6.592   2.447
 8697TIP3    H126024   5.297   6.500   2.419
 8697TIP3    H226025   5.262   6.579   2.543
 8698TIP3   OH226026   5.227   6.595   2.721
 8698TIP3    H126027   5.304   6.564   2.771
 8698TIP3    H226028   5.234   6.693   2.730
 8699TIP3   OH226029   4.961   6.287   2.923
 8699TIP3    H126030   4.896   6.334   2.979
 8699TIP3    H226031   4.979   6.357   2.856
 8700TIP3   OH226032   6.111   5.935   3.823
 8700TIP3    H126033   6.198   5.959   3.858
 8700TIP3    H226034   6.093   5.849   3.867
 8701TIP3   OH226035   5.990   5.667   2.972
 8701TIP3    H126036   5.980   5.700   2.881
 8701TIP3    H226037   6.041   5.741   3.014
 8702TIP3   OH226038   5.494   6.794   2.668
 8702TIP3    H126039   5.407   6.821   2.704
 8702TIP3    H226040   5.510   6.865   2.604
 8703TIP3   OH226041   5.958   6.181   3.883
 8703TIP3    H126042   5.978   6.224   3.968
 8703TIP3    H226043   6.001   6.094   3.891
 8704TIP3   OH226044   5.823   5.587   3.185
 8704TIP3    H126045   5.801   5.663   3.245
 8704TIP3    H226046   5.886   5.628   3.122
 8705TIP3   OH226047   5.238   6.870   2.735
 8705TIP3    H126048   5.208   6.940   2.673
 8705TIP3    H226049   5.222   6.912   2.822
 8706TIP3   OH226050   5.339   5.581   2.972
 8706TIP3    H126051   5.342   5.671   3.009
 8706TIP3    H226052   5.434   5.557   2.980
 8707TIP3   OH226053   6.596   6.074   3.866
 8707TIP3    H126054   6.499   6.078   3.880
 8707TIP3    H226055   6.597   6.028   3.780
 8708TIP3   OH226056   6.242   6.264   3.258
 8708TIP3    H126057   6.164   6.217   3.291
 8708TIP3    H226058   6.313   6.217   3.306
 8709TIP3   OH226059   4.956   6.498   2.727
 8709TIP3    H126060   5.028   6.564   2.737
 8709TIP3    H226061   5.000   6.440   2.661
 8710TIP3   OH226062   4.900   5.774   2.863
 8710TIP3    H126063   4.899   5.872   2.858
 8710TIP3    H226064   4.819   5.751   2.816
 8711TIP3   OH226065   6.211   7.229   3.208
 8711TIP3    H126066   6.168   7.276   3.133
 8711TIP3    H226067   6.305   7.245   3.185
 8712TIP3   OH226068   5.286   5.495   3.734
 8712TIP3    H126069   5.256   5.461   3.647
 8712TIP3    H226070   5.275   5.417   3.792
 8713TIP3   OH226071   4.826   6.714   3.114
 8713TIP3    H126072   4.759   6.744   3.177
 8713TIP3    H226073   4.795   6.755   3.030
 8714TIP3   OH226074   4.987   7.261   4.186
 8714TIP3    H126075   5.069   7.264   4.241
 8714TIP3    H226076   4.966   7.166   4.189
 8715TIP3   OH226077   5.466   7.218   4.230
 8715TIP3    H126078   5.560   7.197   4.234
 8715TIP3    H226079   5.437   7.159   4.158
 8716TIP3   OH226080   5.446   6.794   2.359
 8716TIP3    H126081   5.391   6.722   2.398
 8716TIP3    H226082   5.522   6.743   2.325
 8717TIP3   OH226083   6.104   7.126   3.964
 8717TIP3    H126084   6.096   7.055   4.032
 8717TIP3    H226085   6.180   7.177   3.996
 8718TIP3   OH226086   5.879   6.835   2.277
 8718TIP3    H126087   5.923   6.767   2.332
 8718TIP3    H226088   5.931   6.832   2.194
 8719TIP3   OH226089   5.114   6.660   4.387
 8719TIP3    H126090   5.131   6.564   4.389
 8719TIP3    H226091   5.026   6.664   4.343
 8720TIP3   OH226092   5.091   6.310   2.582
 8720TIP3    H126093   5.148   6.278   2.655
 8720TIP3    H226094   5.158   6.314   2.510
 8721TIP3   OH226095   5.723   6.747   4.159
 8721TIP3    H126096   5.678   6.764   4.074
 8721TIP3    H226097   5.751   6.653   4.151
 8722TIP3   OH226098   5.598   6.508   2.386
 8722TIP3    H126099   5.604   6.522   2.483
 8722TIP3    H226100   5.601   6.410   2.382
 8723TIP3   OH226101   6.217   6.755   3.772
 8723TIP3    H126102   6.287   6.803   3.723
 8723TIP3    H226103   6.140   6.812   3.755
 8724TIP3   OH226104   5.231   6.396   4.371
 8724TIP3    H126105   5.307   6.343   4.344
 8724TIP3    H226106   5.259   6.428   4.459
 8725TIP3   OH226107   5.293   6.216   2.799
 8725TIP3    H126108   5.273   6.176   2.884
 8725TIP3    H226109   5.333   6.141   2.750
 8726TIP3   OH226110   5.568   6.281   4.033
 8726TIP3    H126111   5.490   6.340   4.034
 8726TIP3    H226112   5.618   6.314   3.955
 8727TIP3   OH226113   5.401   6.009   2.644
 8727TIP3    H126114   5.375   6.013   2.550
 8727TIP3    H226115   5.499   6.015   2.636
 8728TIP3   OH226116   6.088   6.684   4.166
 8728TIP3    H126117   6.159   6.650   4.110
 8728TIP3    H226118   6.080   6.614   4.233
 8729TIP3   OH226119   6.218   6.337   2.309
 8729TIP3    H126120   6.202   6.293   2.223
 8729TIP3    H226121   6.189   6.429   2.284
 8730TIP3   OH226122   5.693   6.069   4.156
 8730TIP3    H126123   5.691   5.987   4.102
 8730TIP3    H226124   5.650   6.133   4.097
 8731TIP3   OH226125   5.690   5.843   3.983
 8731TIP3    H126126   5.720   5.895   3.904
 8731TIP3    H226127   5.598   5.823   3.956
 8732TIP3   OH226128   5.720   6.396   3.844
 8732TIP3    H126129   5.800   6.391   3.790
 8732TIP3    H226130   5.664   6.458   3.793
 8733TIP3   OH226131   6.305   6.358   4.220
 8733TIP3    H126132   6.348   6.271   4.221
 8733TIP3    H226133   6.372   6.413   4.178
 8734TIP3   OH226134   6.344   6.612   3.960
 8734TIP3    H126135   6.286   6.665   3.900
 8734TIP3    H226136   6.431   6.629   3.918
 8735TIP3   OH226137   5.573   6.177   4.389
 8735TIP3    H126138   5.503   6.109   4.402
 8735TIP3    H226139   5.605   6.154   4.300
 8736TIP3   OH226140   5.829   5.614   4.033
 8736TIP3    H126141   5.780   5.697   4.013
 8736TIP3    H226142   5.758   5.548   4.020
 8737TIP3   OH226143   5.951   6.121   4.247
 8737TIP3    H126144   5.933   6.107   4.342
 8737TIP3    H226145   5.863   6.097   4.211
 8738TIP3   OH226146   6.194   6.078   4.107
 8738TIP3    H126147   6.115   6.074   4.164
 8738TIP3    H226148   6.264   6.041   4.165
 8739TIP3   OH226149   6.431   6.015   4.256
 8739TIP3    H126150   6.437   5.918   4.273
 8739TIP3    H226151   6.420   6.051   4.346
 8740TIP3   OH226152   5.409   5.960   4.441
 8740TIP3    H126153   5.414   5.869   4.405
 8740TIP3    H226154   5.447   5.946   4.530
 8741TIP3   OH226155   5.923   5.628   4.290
 8741TIP3    H126156   5.988   5.555   4.281
 8741TIP3    H226157   5.880   5.624   4.202
 8742TIP3   OH226158   5.988   5.843   4.447
 8742TIP3    H126159   5.964   5.771   4.384
 8742TIP3    H226160   5.909   5.901   4.441
 8743TIP3   OH226161   5.209   7.074   2.548
 8743TIP3    H126162   5.304   7.065   2.529
 8743TIP3    H226163   5.180   7.123   2.469
 8744TIP3   OH226164   4.687   6.454   2.763
 8744TIP3    H126165   4.783   6.475   2.749
 8744TIP3    H226166   4.683   6.365   2.722
 8745TIP3   OH226167   4.602   7.065   3.179
 8745TIP3    H126168   4.536   7.002   3.143
 8745TIP3    H226169   4.647   7.007   3.245
 8746TIP3   OH226170   4.737   6.914   3.366
 8746TIP3    H126171   4.727   6.842   3.430
 8746TIP3    H226172   4.789   6.977   3.419
 8747TIP3   OH226173   6.467   7.314   3.165
 8747TIP3    H126174   6.492   7.346   3.253
 8747TIP3    H226175   6.528   7.362   3.107
 8748TIP3   OH226176   6.496   7.337   3.447
 8748TIP3    H126177   6.448   7.252   3.441
 8748TIP3    H226178   6.568   7.310   3.507
 8749TIP3   OH226179   6.543   7.014   4.021
 8749TIP3    H126180   6.468   7.021   4.084
 8749TIP3    H226181   6.581   7.103   4.025
 8750TIP3   OH226182   6.356   6.526   2.640
 8750TIP3    H126183   6.424   6.589   2.609
 8750TIP3    H226184   6.400   6.486   2.718
 8751TIP3   OH226185   6.487   6.394   2.844
 8751TIP3    H126186   6.418   6.349   2.898
 8751TIP3    H226187   6.544   6.434   2.912
 8752TIP3   OH226188   6.543   6.789   3.278
 8752TIP3    H126189   6.592   6.721   3.228
 8752TIP3    H226190   6.530   6.858   3.211
 8753TIP3   OH226191   6.371   7.088   3.470
 8753TIP3    H126192   6.298   7.128   3.522
 8753TIP3    H226193   6.321   7.040   3.401
 8754TIP3   OH226194   6.422   6.302   2.488
 8754TIP3    H126195   6.351   6.304   2.420
 8754TIP3    H226196   6.393   6.378   2.543
 8755TIP3   OH226197   6.298   5.972   2.441
 8755TIP3    H126198   6.250   6.013   2.368
 8755TIP3    H226199   6.271   5.878   2.430
 8756TIP3   OH226200   6.301   6.251   2.987
 8756TIP3    H126201   6.304   6.155   2.973
 8756TIP3    H226202   6.282   6.259   3.083
 8757TIP3   OH226203   4.923   6.325   3.736
 8757TIP3    H126204   4.922   6.292   3.644
 8757TIP3    H226205   5.021   6.326   3.753
 8758TIP3   OH226206   6.588   6.676   3.849
 8758TIP3    H126207   6.659   6.609   3.836
 8758TIP3    H226208   6.608   6.740   3.779
 8759TIP3   OH226209   6.774   6.480   3.860
 8759TIP3    H126210   6.697   6.431   3.897
 8759TIP3    H226211   6.845   6.414   3.877
 8760TIP3   OH226212   6.239   5.705   2.426
 8760TIP3    H126213   6.310   5.677   2.487
 8760TIP3    H226214   6.162   5.651   2.452
 8761TIP3   OH226215   6.301   5.980   2.882
 8761TIP3    H126216   6.332   5.890   2.904
 8761TIP3    H226217   6.358   6.000   2.806
 8762TIP3   OH226218   6.458   6.137   3.381
 8762TIP3    H126219   6.543   6.164   3.340
 8762TIP3    H226220   6.470   6.176   3.470
 8763TIP3   OH226221   6.528   6.286   3.612
 8763TIP3    H126222   6.448   6.318   3.659
 8763TIP3    H226223   6.558   6.368   3.566
 8764TIP3   OH226224   5.141   6.010   4.414
 8764TIP3    H126225   5.239   6.003   4.414
 8764TIP3    H226226   5.119   5.923   4.453
 8765TIP3   OH226227   6.982   5.879   4.165
 8765TIP3    H126228   7.036   5.811   4.119
 8765TIP3    H226229   6.948   5.932   4.090
 8766TIP3   OH226230   6.408   5.719   2.918
 8766TIP3    H126231   6.448   5.704   3.006
 8766TIP3    H226232   6.341   5.647   2.916
 8767TIP3   OH226233   5.102   5.704   3.744
 8767TIP3    H126234   5.165   5.629   3.752
 8767TIP3    H226235   5.165   5.778   3.736
 8768TIP3   OH226236   4.904   5.977   3.813
 8768TIP3    H126237   4.955   5.969   3.729
 8768TIP3    H226238   4.937   6.061   3.846
 8769TIP3   OH226239   6.846   6.014   3.973
 8769TIP3    H126240   6.759   6.056   3.989
 8769TIP3    H226241   6.818   5.942   3.913
 8770TIP3   OH226242   6.485   5.650   2.557
 8770TIP3    H126243   6.523   5.579   2.500
 8770TIP3    H226244   6.550   5.722   2.548
 8771TIP3   OH226245   4.889   5.479   3.315
 8771TIP3    H126246   4.796   5.476   3.342
 8771TIP3    H226247   4.886   5.537   3.237
 8772TIP3   OH226248   6.049   7.185   2.822
 8772TIP3    H126249   6.099   7.167   2.739
 8772TIP3    H226250   6.106   7.249   2.866
 8773TIP3   OH226251   5.111   5.563   4.131
 8773TIP3    H126252   5.059   5.555   4.213
 8773TIP3    H226253   5.044   5.599   4.069
 8774TIP3   OH226254   5.151   6.983   4.205
 8774TIP3    H126255   5.057   6.961   4.189
 8774TIP3    H226256   5.157   6.977   4.301
 8775TIP3   OH226257   5.328   7.021   3.754
 8775TIP3    H126258   5.280   7.097   3.716
 8775TIP3    H226259   5.414   7.035   3.709
 8776TIP3   OH226260   5.772   7.262   3.891
 8776TIP3    H126261   5.813   7.264   3.980
 8776TIP3    H226262   5.837   7.315   3.840
 8777TIP3   OH226263   5.949   7.417   3.751
 8777TIP3    H126264   6.019   7.364   3.709
 8777TIP3    H226265   6.002   7.474   3.812
 8778TIP3   OH226266   6.746   5.778   3.851
 8778TIP3    H126267   6.656   5.773   3.814
 8778TIP3    H226268   6.776   5.685   3.838
 8779TIP3   OH226269   5.005   7.276   3.780
 8779TIP3    H126270   4.914   7.307   3.758
 8779TIP3    H226271   5.019   7.323   3.863
 8780TIP3   OH226272   5.240   7.256   3.636
 8780TIP3    H126273   5.154   7.268   3.682
 8780TIP3    H226274   5.219   7.289   3.547
 8781TIP3   OH226275   5.666   7.283   3.434
 8781TIP3    H126276   5.596   7.302   3.369
 8781TIP3    H226277   5.677   7.371   3.477
 8782TIP3   OH226278   5.935   7.226   3.487
 8782TIP3    H126279   5.840   7.239   3.467
 8782TIP3    H226280   5.975   7.301   3.440
 8783TIP3   OH226281   6.147   7.418   3.400
 8783TIP3    H126282   6.129   7.500   3.351
 8783TIP3    H226283   6.169   7.355   3.328
 8784TIP3   OH226284   4.915   7.070   3.521
 8784TIP3    H126285   4.941   7.044   3.612
 8784TIP3    H226286   4.988   7.027   3.471
 8785TIP3   OH226287   5.110   6.942   3.380
 8785TIP3    H126288   5.125   6.858   3.428
 8785TIP3    H226289   5.201   6.978   3.377
 8786TIP3   OH226290   5.377   7.037   3.383
 8786TIP3    H126291   5.407   6.944   3.371
 8786TIP3    H226292   5.422   7.057   3.467
 8787TIP3   OH226293   5.990   5.687   3.506
 8787TIP3    H126294   5.908   5.644   3.531
 8787TIP3    H226295   6.012   5.645   3.422
 8788TIP3   OH226296   6.483   5.576   3.381
 8788TIP3    H126297   6.515   5.627   3.304
 8788TIP3    H226298   6.386   5.587   3.372
 8789TIP3   OH226299   6.570   5.672   3.140
 8789TIP3    H126300   6.643   5.623   3.096
 8789TIP3    H226301   6.600   5.764   3.125
 8790TIP3   OH226302   5.199   5.402   3.485
 8790TIP3    H126303   5.107   5.367   3.487
 8790TIP3    H226304   5.249   5.318   3.482
 8791TIP3   OH226305   4.984   5.272   3.134
 8791TIP3    H126306   5.017   5.328   3.062
 8791TIP3    H226307   4.958   5.337   3.202
 8792TIP3   OH226308   5.640   5.441   3.369
 8792TIP3    H126309   5.697   5.492   3.308
 8792TIP3    H226310   5.661   5.483   3.453
 8793TIP3   OH226311   6.214   5.575   3.343
 8793TIP3    H126312   6.179   5.552   3.256
 8793TIP3    H226313   6.182   5.501   3.399
 8794TIP3   OH226314   6.220   5.507   2.912
 8794TIP3    H126315   6.133   5.550   2.925
 8794TIP3    H226316   6.203   5.421   2.957
 8795TIP3   OH226317   4.703   6.843   2.913
 8795TIP3    H126318   4.618   6.811   2.878
 8795TIP3    H226319   4.693   6.938   2.894
 8796TIP3   OH226320   5.105   5.432   2.896
 8796TIP3    H126321   5.153   5.368   2.840
 8796TIP3    H226322   5.179   5.484   2.933
 8797TIP3   OH226323   5.617   5.610   3.001
 8797TIP3    H126324   5.686   5.569   3.056
 8797TIP3    H226325   5.611   5.697   3.041
 8798TIP3   OH226326   5.475   7.030   2.495
 8798TIP3    H126327   5.564   7.052   2.459
 8798TIP3    H226328   5.454   6.954   2.436
 8799TIP3   OH226329   6.196   7.150   2.590
 8799TIP3    H126330   6.189   7.052   2.578
 8799TIP3    H226331   6.151   7.181   2.509
 8800TIP3   OH226332   5.410   5.685   4.379
 8800TIP3    H126333   5.382   5.615   4.440
 8800TIP3    H226334   5.506   5.687   4.400
 8801TIP3   OH226335   5.661   5.687   4.490
 8801TIP3    H126336   5.743   5.653   4.449
 8801TIP3    H226337   5.657   5.633   4.572
 8802TIP3   OH226338   4.780   6.867   2.551
 8802TIP3    H126339   4.783   6.887   2.646
 8802TIP3    H226340   4.867   6.824   2.536
 8803TIP3   OH226341   6.482   5.742   4.284
 8803TIP3    H126342   6.502   5.712   4.376
 8803TIP3    H226343   6.570   5.737   4.242
 8804TIP3   OH226344   6.421   7.292   3.777
 8804TIP3    H126345   6.342   7.260   3.728
 8804TIP3    H226346   6.399   7.388   3.781
 8805TIP3   OH226347   7.683   6.667   2.548
 8805TIP3    H126348   7.651   6.755   2.523
 8805TIP3    H226349   7.612   6.611   2.511
 8806TIP3   OH226350   7.680   6.665   2.928
 8806TIP3    H126351   7.714   6.632   3.013
 8806TIP3    H226352   7.639   6.585   2.891
 8807TIP3   OH226353   6.986   6.561   3.287
 8807TIP3    H126354   7.016   6.492   3.350
 8807TIP3    H226355   7.067   6.612   3.276
 8808TIP3   OH226356   7.917   6.959   2.612
 8808TIP3    H126357   7.908   6.883   2.672
 8808TIP3    H226358   7.916   7.033   2.674
 8809TIP3   OH226359   6.959   6.974   3.015
 8809TIP3    H126360   6.949   6.877   3.015
 8809TIP3    H226361   7.056   6.981   3.007
 8810TIP3   OH226362   6.664   6.178   2.798
 8810TIP3    H126363   6.610   6.258   2.812
 8810TIP3    H226364   6.597   6.119   2.758
 8811TIP3   OH226365   6.727   6.465   2.975
 8811TIP3    H126366   6.774   6.385   3.008
 8811TIP3    H226367   6.771   6.480   2.891
 8812TIP3   OH226368   7.594   7.408   2.617
 8812TIP3    H126369   7.657   7.335   2.606
 8812TIP3    H226370   7.562   7.391   2.707
 8813TIP3   OH226371   7.483   6.893   2.971
 8813TIP3    H126372   7.519   6.814   2.927
 8813TIP3    H226373   7.567   6.938   2.993
 8814TIP3   OH226374   8.479   6.227   2.966
 8814TIP3    H126375   8.527   6.287   3.025
 8814TIP3    H226376   8.528   6.236   2.884
 8815TIP3   OH226377   7.899   6.396   3.001
 8815TIP3    H126378   7.938   6.310   3.023
 8815TIP3    H226379   7.865   6.378   2.911
 8816TIP3   OH226380   7.238   6.053   2.968
 8816TIP3    H126381   7.215   6.125   2.905
 8816TIP3    H226382   7.190   5.978   2.925
 8817TIP3   OH226383   7.931   6.145   2.596
 8817TIP3    H126384   8.007   6.125   2.656
 8817TIP3    H226385   7.980   6.178   2.518
 8818TIP3   OH226386   6.869   6.254   3.077
 8818TIP3    H126387   6.952   6.231   3.124
 8818TIP3    H226388   6.878   6.198   2.997
 8819TIP3   OH226389   7.308   6.453   2.871
 8819TIP3    H126390   7.401   6.426   2.884
 8819TIP3    H226391   7.268   6.369   2.838
 8820TIP3   OH226392   7.232   6.037   3.405
 8820TIP3    H126393   7.173   6.071   3.335
 8820TIP3    H226394   7.178   6.055   3.484
 8821TIP3   OH226395   7.577   6.887   2.408
 8821TIP3    H126396   7.523   6.858   2.333
 8821TIP3    H226397   7.534   6.972   2.431
 8822TIP3   OH226398   7.340   6.813   3.197
 8822TIP3    H126399   7.276   6.878   3.234
 8822TIP3    H226400   7.379   6.862   3.123
 8823TIP3   OH226401   8.148   6.144   2.766
 8823TIP3    H126402   8.123   6.096   2.847
 8823TIP3    H226403   8.188   6.225   2.802
 8824TIP3   OH226404   7.105   6.150   3.187
 8824TIP3    H126405   7.167   6.223   3.209
 8824TIP3    H226406   7.153   6.109   3.111
 8825TIP3   OH226407   7.168   7.006   3.297
 8825TIP3    H126408   7.140   7.091   3.258
 8825TIP3    H226409   7.089   6.988   3.352
 8826TIP3   OH226410   6.560   6.691   2.534
 8826TIP3    H126411   6.521   6.706   2.445
 8826TIP3    H226412   6.588   6.781   2.560
 8827TIP3   OH226413   8.292   6.105   3.135
 8827TIP3    H126414   8.204   6.139   3.113
 8827TIP3    H226415   8.348   6.144   3.065
 8828TIP3   OH226416   7.587   5.755   3.118
 8828TIP3    H126417   7.574   5.660   3.134
 8828TIP3    H226418   7.509   5.792   3.164
 8829TIP3   OH226419   7.822   7.037   2.365
 8829TIP3    H126420   7.752   6.972   2.347
 8829TIP3    H226421   7.852   7.005   2.453
 8830TIP3   OH226422   7.520   6.521   2.376
 8830TIP3    H126423   7.437   6.567   2.354
 8830TIP3    H226424   7.561   6.510   2.288
 8831TIP3   OH226425   7.476   6.302   2.088
 8831TIP3    H126426   7.546   6.353   2.133
 8831TIP3    H226427   7.532   6.237   2.040
 8832TIP3   OH226428   8.452   6.746   2.995
 8832TIP3    H126429   8.358   6.776   3.002
 8832TIP3    H226430   8.472   6.779   2.907
 8833TIP3   OH226431   7.859   6.585   2.355
 8833TIP3    H126432   7.807   6.610   2.435
 8833TIP3    H226433   7.945   6.561   2.396
 8834TIP3   OH226434   8.099   6.636   3.261
 8834TIP3    H126435   8.094   6.719   3.312
 8834TIP3    H226436   8.012   6.637   3.217
 8835TIP3   OH226437   7.097   6.599   2.759
 8835TIP3    H126438   7.053   6.540   2.694
 8835TIP3    H226439   7.172   6.543   2.789
 8836TIP3   OH226440   7.228   7.014   2.906
 8836TIP3    H126441   7.203   6.970   2.824
 8836TIP3    H226442   7.316   6.976   2.925
 8837TIP3   OH226443   7.238   6.567   3.120
 8837TIP3    H126444   7.265   6.545   3.028
 8837TIP3    H226445   7.277   6.655   3.134
 8838TIP3   OH226446   7.736   7.194   2.868
 8838TIP3    H126447   7.748   7.273   2.923
 8838TIP3    H226448   7.738   7.121   2.934
 8839TIP3   OH226449   7.369   7.125   3.443
 8839TIP3    H126450   7.308   7.187   3.487
 8839TIP3    H226451   7.305   7.072   3.391
 8840TIP3   OH226452   7.701   6.456   2.170
 8840TIP3    H126453   7.762   6.509   2.225
 8840TIP3    H226454   7.730   6.481   2.079
 8841TIP3   OH226455   7.126   6.680   3.544
 8841TIP3    H126456   7.129   6.768   3.587
 8841TIP3    H226457   7.031   6.660   3.551
 8842TIP3   OH226458   7.463   7.147   2.441
 8842TIP3    H126459   7.476   7.222   2.498
 8842TIP3    H226460   7.384   7.172   2.390
 8843TIP3   OH226461   7.165   7.295   3.528
 8843TIP3    H126462   7.132   7.293   3.436
 8843TIP3    H226463   7.085   7.272   3.580
 8844TIP3   OH226464   8.214   5.702   2.214
 8844TIP3    H126465   8.136   5.709   2.273
 8844TIP3    H226466   8.231   5.794   2.193
 8845TIP3   OH226467   6.962   6.442   2.569
 8845TIP3    H126468   6.896   6.487   2.512
 8845TIP3    H226469   6.922   6.354   2.576
 8846TIP3   OH226470   6.746   6.826   3.472
 8846TIP3    H126471   6.677   6.806   3.405
 8846TIP3    H226472   6.780   6.736   3.493
 8847TIP3   OH226473   6.597   7.019   3.103
 8847TIP3    H126474   6.694   7.013   3.097
 8847TIP3    H226475   6.585   7.097   3.158
 8848TIP3   OH226476   7.561   7.256   3.296
 8848TIP3    H126477   7.559   7.349   3.326
 8848TIP3    H226478   7.490   7.216   3.351
 8849TIP3   OH226479   7.277   7.422   2.251
 8849TIP3    H126480   7.267   7.358   2.177
 8849TIP3    H226481   7.367   7.452   2.242
 8850TIP3   OH226482   6.769   7.234   2.632
 8850TIP3    H126483   6.812   7.221   2.719
 8850TIP3    H226484   6.717   7.152   2.624
 8851TIP3   OH226485   8.359   6.614   3.440
 8851TIP3    H126486   8.289   6.621   3.375
 8851TIP3    H226487   8.390   6.523   3.423
 8852TIP3   OH226488   6.950   7.009   3.462
 8852TIP3    H126489   6.999   6.989   3.544
 8852TIP3    H226490   6.876   6.945   3.467
 8853TIP3   OH226491   7.349   5.831   3.248
 8853TIP3    H126492   7.261   5.799   3.220
 8853TIP3    H226493   7.322   5.912   3.294
 8854TIP3   OH226494   7.884   5.947   3.441
 8854TIP3    H126495   7.953   5.918   3.504
 8854TIP3    H226496   7.801   5.925   3.489
 8855TIP3   OH226497   8.114   6.368   3.354
 8855TIP3    H126498   8.072   6.368   3.443
 8855TIP3    H226499   8.101   6.460   3.324
 8856TIP3   OH226500   7.786   6.515   1.919
 8856TIP3    H126501   7.742   6.483   1.838
 8856TIP3    H226502   7.865   6.557   1.883
 8857TIP3   OH226503   7.495   5.878   2.217
 8857TIP3    H126504   7.459   5.876   2.308
 8857TIP3    H226505   7.455   5.796   2.183
 8858TIP3   OH226506   7.284   6.345   3.267
 8858TIP3    H126507   7.230   6.364   3.347
 8858TIP3    H226508   7.267   6.426   3.214
 8859TIP3   OH226509   7.164   6.234   2.779
 8859TIP3    H126510   7.071   6.207   2.797
 8859TIP3    H226511   7.177   6.193   2.690
 8860TIP3   OH226512   7.657   6.321   2.510
 8860TIP3    H126513   7.603   6.390   2.465
 8860TIP3    H226514   7.710   6.287   2.435
 8861TIP3   OH226515   7.830   6.599   3.595
 8861TIP3    H126516   7.808   6.524   3.655
 8861TIP3    H226517   7.925   6.607   3.613
 8862TIP3   OH226518   7.814   6.349   2.742
 8862TIP3    H126519   7.750   6.372   2.672
 8862TIP3    H226520   7.849   6.266   2.702
 8863TIP3   OH226521   7.102   6.375   3.473
 8863TIP3    H126522   7.121   6.438   3.544
 8863TIP3    H226523   7.086   6.293   3.523
 8864TIP3   OH226524   7.153   5.855   2.184
 8864TIP3    H126525   7.140   5.851   2.281
 8864TIP3    H226526   7.073   5.904   2.157
 8865TIP3   OH226527   6.692   5.898   3.056
 8865TIP3    H126528   6.771   5.927   3.106
 8865TIP3    H226529   6.728   5.863   2.973
 8866TIP3   OH226530   6.664   5.879   2.574
 8866TIP3    H126531   6.706   5.918   2.494
 8866TIP3    H226532   6.601   5.950   2.595
 8867TIP3   OH226533   7.826   6.594   3.169
 8867TIP3    H126534   7.858   6.523   3.109
 8867TIP3    H226535   7.796   6.540   3.245
 8868TIP3   OH226536   7.495   6.057   2.841
 8868TIP3    H126537   7.412   6.053   2.891
 8868TIP3    H226538   7.562   6.050   2.912
 8869TIP3   OH226539   6.926   6.111   2.848
 8869TIP3    H126540   6.831   6.120   2.821
 8869TIP3    H226541   6.946   6.019   2.824
 8870TIP3   OH226542   7.195   6.108   2.538
 8870TIP3    H126543   7.288   6.122   2.512
 8870TIP3    H226544   7.145   6.129   2.456
 8871TIP3   OH226545   7.979   6.132   3.040
 8871TIP3    H126546   7.947   6.143   3.132
 8871TIP3    H226547   7.913   6.069   3.006
 8872TIP3   OH226548   7.039   6.142   2.317
 8872TIP3    H126549   6.967   6.095   2.272
 8872TIP3    H226550   7.090   6.176   2.240
 8873TIP3   OH226551   7.110   6.931   3.682
 8873TIP3    H126552   7.189   6.960   3.731
 8873TIP3    H226553   7.045   6.926   3.754
 8874TIP3   OH226554   7.576   6.386   2.940
 8874TIP3    H126555   7.643   6.339   2.889
 8874TIP3    H226556   7.580   6.340   3.026
 8875TIP3   OH226557   7.100   5.868   2.819
 8875TIP3    H126558   7.062   5.791   2.865
 8875TIP3    H226559   7.139   5.828   2.741
 8876TIP3   OH226560   7.552   6.281   3.224
 8876TIP3    H126561   7.461   6.314   3.241
 8876TIP3    H226562   7.608   6.341   3.277
 8877TIP3   OH226563   7.290   6.672   2.323
 8877TIP3    H126564   7.220   6.604   2.311
 8877TIP3    H226565   7.270   6.704   2.415
 8878TIP3   OH226566   8.192   6.821   2.940
 8878TIP3    H126567   8.178   6.910   2.904
 8878TIP3    H226568   8.100   6.787   2.938
 8879TIP3   OH226569   7.746   5.979   2.192
 8879TIP3    H126570   7.649   5.960   2.196
 8879TIP3    H226571   7.752   6.075   2.209
 8880TIP3   OH226572   7.693   6.983   3.320
 8880TIP3    H126573   7.702   6.951   3.410
 8880TIP3    H226574   7.645   7.067   3.331
 8881TIP3   OH226575   7.812   6.231   2.293
 8881TIP3    H126576   7.909   6.236   2.302
 8881TIP3    H226577   7.793   6.305   2.232
 8882TIP3   OH226578   6.988   6.701   2.998
 8882TIP3    H126579   7.020   6.667   2.912
 8882TIP3    H226580   7.011   6.629   3.058
 8883TIP3   OH226581   7.432   6.819   2.142
 8883TIP3    H126582   7.385   6.905   2.151
 8883TIP3    H226583   7.378   6.762   2.201
 8884TIP3   OH226584   6.861   6.610   3.610
 8884TIP3    H126585   6.873   6.593   3.705
 8884TIP3    H226586   6.789   6.548   3.588
 8885TIP3   OH226587   7.586   6.729   3.631
 8885TIP3    H126588   7.525   6.670   3.585
 8885TIP3    H226589   7.673   6.692   3.603
 8886TIP3   OH226590   7.835   7.232   3.237
 8886TIP3    H126591   7.738   7.231   3.225
 8886TIP3    H226592   7.842   7.284   3.320
 8887TIP3   OH226593   7.934   6.761   2.865
 8887TIP3    H126594   7.840   6.735   2.879
 8887TIP3    H226595   7.967   6.681   2.819
 8888TIP3   OH226596   7.081   6.998   2.625
 8888TIP3    H126597   7.074   7.079   2.571
 8888TIP3    H226598   6.988   6.973   2.633
 8889TIP3   OH226599   6.648   6.299   2.328
 8889TIP3    H126600   6.689   6.387   2.344
 8889TIP3    H226601   6.568   6.306   2.384
 8890TIP3   OH226602   7.221   6.765   2.569
 8890TIP3    H126603   7.182   6.852   2.588
 8890TIP3    H226604   7.182   6.710   2.640
 8891TIP3   OH226605   7.348   7.332   3.097
 8891TIP3    H126606   7.388   7.398   3.036
 8891TIP3    H226607   7.428   7.298   3.141
 8892TIP3   OH226608   7.003   7.232   2.478
 8892TIP3    H126609   6.915   7.241   2.521
 8892TIP3    H226610   7.031   7.326   2.477
 8893TIP3   OH226611   7.743   6.973   3.049
 8893TIP3    H126612   7.730   6.970   3.146
 8893TIP3    H226613   7.809   6.905   3.035
 8894TIP3   OH226614   7.639   6.873   1.918
 8894TIP3    H126615   7.711   6.842   1.975
 8894TIP3    H226616   7.562   6.834   1.962
 8895TIP3   OH226617   7.069   6.121   3.618
 8895TIP3    H126618   6.971   6.126   3.628
 8895TIP3    H226619   7.092   6.058   3.688
 8896TIP3   OH226620   7.890   6.779   2.165
 8896TIP3    H126621   7.850   6.726   2.237
 8896TIP3    H226622   7.968   6.726   2.148
 8897TIP3   OH226623   6.792   7.204   3.250
 8897TIP3    H126624   6.840   7.125   3.278
 8897TIP3    H226625   6.817   7.267   3.318
 8898TIP3   OH226626   7.074   6.850   1.932
 8898TIP3    H126627   7.088   6.759   1.900
 8898TIP3    H226628   7.053   6.834   2.026
 8899TIP3   OH226629   7.026   6.856   2.204
 8899TIP3    H126630   7.092   6.824   2.267
 8899TIP3    H226631   7.030   6.953   2.216
 8900TIP3   OH226632   6.763   6.549   2.410
 8900TIP3    H126633   6.693   6.589   2.465
 8900TIP3    H226634   6.770   6.617   2.340
 8901TIP3   OH226635   7.907   6.184   3.300
 8901TIP3    H126636   7.990   6.224   3.333
 8901TIP3    H226637   7.898   6.103   3.355
 8902TIP3   OH226638   7.788   5.933   2.469
 8902TIP3    H126639   7.774   5.953   2.374
 8902TIP3    H226640   7.828   6.016   2.501
 8903TIP3   OH226641   7.295   7.054   2.169
 8903TIP3    H126642   7.203   7.072   2.196
 8903TIP3    H226643   7.302   7.118   2.096
 8904TIP3   OH226644   7.481   6.114   2.569
 8904TIP3    H126645   7.545   6.186   2.552
 8904TIP3    H226646   7.484   6.107   2.667
 8905TIP3   OH226647   7.749   6.432   3.374
 8905TIP3    H126648   7.772   6.481   3.455
 8905TIP3    H226649   7.803   6.351   3.383
 8906TIP3   OH226650   7.622   5.839   2.672
 8906TIP3    H126651   7.611   5.919   2.727
 8906TIP3    H226652   7.683   5.873   2.602
 8907TIP3   OH226653   7.038   7.129   2.224
 8907TIP3    H126654   7.000   7.195   2.162
 8907TIP3    H226655   7.019   7.171   2.311
 8908TIP3   OH226656   7.134   5.838   2.461
 8908TIP3    H126657   7.130   5.929   2.497
 8908TIP3    H226658   7.230   5.822   2.468
 8909TIP3   OH226659   8.388   6.356   3.343
 8909TIP3    H126660   8.290   6.345   3.349
 8909TIP3    H226661   8.410   6.288   3.279
 8910TIP3   OH226662   8.034   6.530   2.744
 8910TIP3    H126663   7.958   6.469   2.753
 8910TIP3    H226664   8.105   6.481   2.792
 8911TIP3   OH226665   6.755   6.757   2.220
 8911TIP3    H126666   6.824   6.825   2.221
 8911TIP3    H226667   6.791   6.699   2.149
 8912TIP3   OH226668   6.696   6.029   2.348
 8912TIP3    H126669   6.695   6.127   2.345
 8912TIP3    H226670   6.617   6.008   2.299
 8913TIP3   OH226671   7.086   5.751   3.219
 8913TIP3    H126672   7.053   5.719   3.132
 8913TIP3    H226673   7.073   5.672   3.276
 8914TIP3   OH226674   6.629   6.985   2.601
 8914TIP3    H126675   6.556   7.001   2.662
 8914TIP3    H226676   6.592   7.019   2.517
 8915TIP3   OH226677   6.779   7.512   3.671
 8915TIP3    H126678   6.866   7.509   3.717
 8915TIP3    H226679   6.755   7.418   3.670
 8916TIP3   OH226680   7.263   7.472   3.719
 8916TIP3    H126681   7.357   7.448   3.722
 8916TIP3    H226682   7.232   7.415   3.646
 8917TIP3   OH226683   7.245   7.050   1.851
 8917TIP3    H126684   7.185   6.979   1.884
 8917TIP3    H226685   7.315   6.997   1.809
 8918TIP3   OH226686   7.888   7.377   3.461
 8918TIP3    H126687   7.880   7.305   3.528
 8918TIP3    H226688   7.973   7.417   3.484
 8919TIP3   OH226689   6.910   6.919   3.873
 8919TIP3    H126690   6.927   6.822   3.877
 8919TIP3    H226691   6.822   6.921   3.829
 8920TIP3   OH226692   6.897   6.583   2.067
 8920TIP3    H126693   6.945   6.535   2.136
 8920TIP3    H226694   6.962   6.581   1.994
 8921TIP3   OH226695   7.518   7.003   3.647
 8921TIP3    H126696   7.472   7.019   3.562
 8921TIP3    H226697   7.547   6.909   3.639
 8922TIP3   OH226698   7.374   6.757   1.876
 8922TIP3    H126699   7.374   6.768   1.973
 8922TIP3    H226700   7.388   6.660   1.869
 8923TIP3   OH226701   8.009   7.009   3.251
 8923TIP3    H126702   8.058   7.077   3.204
 8923TIP3    H226703   7.920   7.050   3.254
 8924TIP3   OH226704   7.029   6.659   3.857
 8924TIP3    H126705   7.099   6.597   3.832
 8924TIP3    H226706   7.058   6.686   3.946
 8925TIP3   OH226707   7.106   6.471   2.295
 8925TIP3    H126708   7.067   6.428   2.372
 8925TIP3    H226709   7.135   6.394   2.241
 8926TIP3   OH226710   7.368   6.540   3.522
 8926TIP3    H126711   7.286   6.595   3.521
 8926TIP3    H226712   7.414   6.573   3.442
 8927TIP3   OH226713   7.196   6.267   2.129
 8927TIP3    H126714   7.169   6.270   2.035
 8927TIP3    H226715   7.294   6.271   2.119
 8928TIP3   OH226716   7.889   6.936   3.648
 8928TIP3    H126717   7.962   6.902   3.594
 8928TIP3    H226718   7.882   6.868   3.718
 8929TIP3   OH226719   7.488   6.325   3.643
 8929TIP3    H126720   7.487   6.246   3.586
 8929TIP3    H226721   7.444   6.392   3.586
 8930TIP3   OH226722   7.491   6.112   3.450
 8930TIP3    H126723   7.518   6.151   3.365
 8930TIP3    H226724   7.397   6.089   3.432
 8931TIP3   OH226725   7.517   6.650   3.327
 8931TIP3    H126726   7.598   6.651   3.275
 8931TIP3    H226727   7.460   6.714   3.279
 8932TIP3   OH226728   8.104   6.614   3.706
 8932TIP3    H126729   8.144   6.526   3.715
 8932TIP3    H226730   8.178   6.663   3.666
 8933TIP3   OH226731   8.115   6.871   3.460
 8933TIP3    H126732   8.066   6.921   3.391
 8933TIP3    H226733   8.204   6.874   3.417
 8934TIP3   OH226734   7.368   6.435   3.876
 8934TIP3    H126735   7.299   6.367   3.890
 8934TIP3    H226736   7.401   6.411   3.787
 8935TIP3   OH226737   7.622   5.876   3.521
 8935TIP3    H126738   7.574   5.958   3.496
 8935TIP3    H226739   7.554   5.808   3.506
 8936TIP3   OH226740   7.747   6.380   3.734
 8936TIP3    H126741   7.734   6.365   3.830
 8936TIP3    H226742   7.657   6.354   3.702
 8937TIP3   OH226743   7.989   6.336   3.592
 8937TIP3    H126744   7.913   6.330   3.653
 8937TIP3    H226745   8.063   6.300   3.647
 8938TIP3   OH226746   8.215   6.271   3.741
 8938TIP3    H126747   8.229   6.175   3.756
 8938TIP3    H226748   8.216   6.307   3.832
 8939TIP3   OH226749   7.207   6.215   3.928
 8939TIP3    H126750   7.210   6.125   3.891
 8939TIP3    H226751   7.242   6.200   4.018
 8940TIP3   OH226752   7.711   5.881   3.781
 8940TIP3    H126753   7.783   5.814   3.772
 8940TIP3    H226754   7.674   5.878   3.690
 8941TIP3   OH226755   7.781   6.098   3.935
 8941TIP3    H126756   7.759   6.027   3.871
 8941TIP3    H226757   7.704   6.158   3.927
 8942TIP3   OH226758   6.998   7.338   2.041
 8942TIP3    H126759   7.092   7.321   2.023
 8942TIP3    H226760   6.971   7.380   1.957
 8943TIP3   OH226761   6.484   6.704   2.267
 8943TIP3    H126762   6.572   6.732   2.234
 8943TIP3    H226763   6.470   6.622   2.214
 8944TIP3   OH226764   6.398   7.324   2.665
 8944TIP3    H126765   6.332   7.262   2.627
 8944TIP3    H226766   6.443   7.265   2.730
 8945TIP3   OH226767   6.531   7.175   2.854
 8945TIP3    H126768   6.518   7.099   2.913
 8945TIP3    H226769   6.582   7.234   2.912
 8946TIP3   OH226770   8.064   6.244   1.937
 8946TIP3    H126771   8.042   6.262   1.845
 8946TIP3    H226772   8.051   6.147   1.940
 8947TIP3   OH226773   8.093   6.503   2.474
 8947TIP3    H126774   8.099   6.406   2.466
 8947TIP3    H226775   8.080   6.515   2.571
 8948TIP3   OH226776   6.720   6.579   3.225
 8948TIP3    H126777   6.717   6.547   3.132
 8948TIP3    H226778   6.817   6.581   3.240
 8949TIP3   OH226779   8.340   6.913   3.316
 8949TIP3    H126780   8.425   6.869   3.338
 8949TIP3    H226781   8.369   6.974   3.247
 8950TIP3   OH226782   8.024   5.972   1.943
 8950TIP3    H126783   8.088   5.906   1.970
 8950TIP3    H226784   7.944   5.919   1.929
 8951TIP3   OH226785   8.089   6.225   2.377
 8951TIP3    H126786   8.125   6.134   2.394
 8951TIP3    H226787   8.138   6.248   2.297
 8952TIP3   OH226788   8.249   6.398   2.852
 8952TIP3    H126789   8.340   6.412   2.826
 8952TIP3    H226790   8.253   6.433   2.945
 8953TIP3   OH226791   8.295   6.529   3.083
 8953TIP3    H126792   8.229   6.567   3.146
 8953TIP3    H226793   8.360   6.600   3.076
 8954TIP3   OH226794   6.940   6.270   3.907
 8954TIP3    H126795   7.037   6.260   3.903
 8954TIP3    H226796   6.914   6.182   3.941
 8955TIP3   OH226797   8.181   5.974   2.423
 8955TIP3    H126798   8.242   5.947   2.494
 8955TIP3    H226799   8.124   5.895   2.415
 8956TIP3   OH226800   6.902   5.959   3.228
 8956TIP3    H126801   6.964   5.884   3.237
 8956TIP3    H226802   6.964   6.034   3.221
 8957TIP3   OH226803   6.705   6.233   3.305
 8957TIP3    H126804   6.749   6.222   3.219
 8957TIP3    H226805   6.731   6.322   3.328
 8958TIP3   OH226806   6.685   5.741   2.806
 8958TIP3    H126807   6.591   5.733   2.831
 8958TIP3    H226808   6.681   5.796   2.725
 8959TIP3   OH226809   6.907   5.815   3.617
 8959TIP3    H126810   6.854   5.811   3.699
 8959TIP3    H226811   6.842   5.856   3.556
 8960TIP3   OH226812   6.945   7.246   3.693
 8960TIP3    H126813   6.854   7.219   3.673
 8960TIP3    H226814   6.952   7.223   3.786
 8961TIP3   OH226815   7.124   7.278   3.246
 8961TIP3    H126816   7.073   7.350   3.203
 8961TIP3    H226817   7.209   7.292   3.198
 8962TIP3   OH226818   7.581   7.528   3.376
 8962TIP3    H126819   7.612   7.525   3.469
 8962TIP3    H226820   7.656   7.569   3.332
 8963TIP3   OH226821   8.524   6.015   3.352
 8963TIP3    H126822   8.448   6.029   3.294
 8963TIP3    H226823   8.579   5.953   3.302
 8964TIP3   OH226824   6.800   7.540   3.263
 8964TIP3    H126825   6.710   7.571   3.240
 8964TIP3    H226826   6.804   7.565   3.356
 8965TIP3   OH226827   7.030   7.509   3.120
 8965TIP3    H126828   6.944   7.521   3.167
 8965TIP3    H226829   7.007   7.536   3.030
 8966TIP3   OH226830   7.451   7.514   2.924
 8966TIP3    H126831   7.406   7.558   2.851
 8966TIP3    H226832   7.477   7.590   2.981
 8967TIP3   OH226833   6.714   7.330   3.011
 8967TIP3    H126834   6.739   7.300   3.101
 8967TIP3    H226835   6.783   7.284   2.959
 8968TIP3   OH226836   6.906   7.200   2.869
 8968TIP3    H126837   6.919   7.115   2.917
 8968TIP3    H226838   6.997   7.233   2.863
 8969TIP3   OH226839   7.175   7.294   2.870
 8969TIP3    H126840   7.201   7.200   2.859
 8969TIP3    H226841   7.221   7.313   2.954
 8970TIP3   OH226842   7.750   5.950   2.960
 8970TIP3    H126843   7.705   5.879   3.011
 8970TIP3    H226844   7.818   5.900   2.912
 8971TIP3   OH226845   8.276   5.834   2.861
 8971TIP3    H126846   8.306   5.883   2.782
 8971TIP3    H226847   8.179   5.846   2.855
 8972TIP3   OH226848   8.377   5.924   2.618
 8972TIP3    H126849   8.445   5.864   2.583
 8972TIP3    H226850   8.419   6.010   2.610
 8973TIP3   OH226851   6.996   5.658   2.973
 8973TIP3    H126852   6.903   5.626   2.973
 8973TIP3    H226853   7.044   5.573   2.969
 8974TIP3   OH226854   6.789   5.528   2.624
 8974TIP3    H126855   6.814   5.585   2.549
 8974TIP3    H226856   6.755   5.594   2.688
 8975TIP3   OH226857   7.442   5.689   2.853
 8975TIP3    H126858   7.500   5.738   2.792
 8975TIP3    H226859   7.464   5.729   2.938
 8976TIP3   OH226860   7.992   5.837   2.836
 8976TIP3    H126861   7.987   5.797   2.748
 8976TIP3    H226862   7.977   5.759   2.894
 8977TIP3   OH226863   8.013   5.758   2.400
 8977TIP3    H126864   7.925   5.798   2.411
 8977TIP3    H226865   8.000   5.672   2.445
 8978TIP3   OH226866   6.500   7.102   2.397
 8978TIP3    H126867   6.416   7.063   2.365
 8978TIP3    H226868   6.486   7.194   2.370
 8979TIP3   OH226869   6.900   5.686   2.385
 8979TIP3    H126870   6.948   5.624   2.327
 8979TIP3    H226871   6.973   5.740   2.420
 8980TIP3   OH226872   7.411   5.864   2.482
 8980TIP3    H126873   7.469   5.815   2.542
 8980TIP3    H226874   7.434   5.956   2.508
 8981TIP3   OH226875   7.270   7.280   1.999
 8981TIP3    H126876   7.329   7.338   1.948
 8981TIP3    H226877   7.254   7.207   1.934
 8982TIP3   OH226878   7.203   5.939   3.866
 8982TIP3    H126879   7.169   5.868   3.922
 8982TIP3    H226880   7.297   5.940   3.892
 8983TIP3   OH226881   7.453   5.936   3.984
 8983TIP3    H126882   7.538   5.916   3.941
 8983TIP3    H226883   7.445   5.863   4.048
 8984TIP3   OH226884   6.583   7.136   2.043
 8984TIP3    H126885   6.573   7.141   2.139
 8984TIP3    H226886   6.666   7.084   2.032
 8985TIP3   OH226887   8.274   6.000   3.772
 8985TIP3    H126888   8.297   5.968   3.862
 8985TIP3    H226889   8.362   5.997   3.727
 8986TIP3   OH226890   0.950   7.000   4.660
 8986TIP3    H126891   0.978   7.082   4.706
 8986TIP3    H226892   0.975   7.021   4.568
 8987TIP3   OH226893   0.380   6.900   4.273
 8987TIP3    H126894   0.444   6.913   4.346
 8987TIP3    H226895   0.418   6.956   4.204
 8988TIP3   OH226896   1.015   7.205   4.837
 8988TIP3    H126897   0.934   7.258   4.826
 8988TIP3    H226898   1.055   7.247   4.916
 8989TIP3   OH226899   0.580   6.947   4.456
 8989TIP3    H126900   0.600   6.865   4.503
 8989TIP3    H226901   0.649   7.009   4.486
 8990TIP3   OH226902   0.747   6.905   4.824
 8990TIP3    H126903   0.668   6.949   4.791
 8990TIP3    H226904   0.814   6.930   4.757
 8991TIP3   OH226905   0.665   7.932   4.806
 8991TIP3    H126906   0.654   7.842   4.768
 8991TIP3    H226907   0.705   7.981   4.733
 8992TIP3   OH226908   0.873   7.544   4.649
 8992TIP3    H126909   0.795   7.603   4.659
 8992TIP3    H226910   0.904   7.570   4.560
 8993TIP3   OH226911   0.678   6.486   3.907
 8993TIP3    H126912   0.597   6.504   3.959
 8993TIP3    H226913   0.689   6.570   3.859
 8994TIP3   OH226914   0.817   7.389   5.133
 8994TIP3    H126915   0.746   7.410   5.072
 8994TIP3    H226916   0.822   7.291   5.124
 8995TIP3   OH226917   0.646   7.702   4.650
 8995TIP3    H126918   0.678   7.746   4.568
 8995TIP3    H226919   0.563   7.662   4.621
 8996TIP3   OH226920   0.715   7.107   3.806
 8996TIP3    H126921   0.648   7.065   3.747
 8996TIP3    H226922   0.709   7.198   3.771
 8997TIP3   OH226923   0.919   7.955   4.902
 8997TIP3    H126924   0.822   7.958   4.886
 8997TIP3    H226925   0.951   7.935   4.811
 8998TIP3   OH226926   0.819   7.125   5.052
 8998TIP3    H126927   0.738   7.074   5.066
 8998TIP3    H226928   0.849   7.094   4.966
 8999TIP3   OH226929   0.483   7.298   4.435
 8999TIP3    H126930   0.428   7.219   4.442
 8999TIP3    H226931   0.566   7.267   4.477
 9000TIP3   OH226932   0.486   7.385   3.473
 9000TIP3    H126933   0.437   7.335   3.404
 9000TIP3    H226934   0.461   7.475   3.453
 9001TIP3   OH226935   0.744   7.042   5.476
 9001TIP3    H126936   0.738   6.945   5.466
 9001TIP3    H226937   0.649   7.065   5.476
 9002TIP3   OH226938   0.611   7.563   3.814
 9002TIP3    H126939   0.685   7.622   3.793
 9002TIP3    H226940   0.643   7.521   3.897
 9003TIP3   OH226941   0.737   7.439   4.019
 9003TIP3    H126942   0.675   7.389   4.078
 9003TIP3    H226943   0.803   7.473   4.083
 9004TIP3   OH226944   0.769   7.822   4.443
 9004TIP3    H126945   0.837   7.763   4.404
 9004TIP3    H226946   0.783   7.905   4.396
 9005TIP3   OH226947   0.674   7.343   3.665
 9005TIP3    H126948   0.602   7.346   3.598
 9005TIP3    H226949   0.645   7.418   3.721
 9006TIP3   OH226950   0.541   7.021   3.615
 9006TIP3    H126951   0.490   7.059   3.542
 9006TIP3    H226952   0.524   6.925   3.602
 9007TIP3   OH226953   0.572   7.289   4.170
 9007TIP3    H126954   0.554   7.195   4.150
 9007TIP3    H226955   0.537   7.297   4.261
 9008TIP3   OH226956   0.829   7.718   5.023
 9008TIP3    H126957   0.901   7.650   5.019
 9008TIP3    H226958   0.863   7.787   4.965
 9009TIP3   OH226959   1.022   7.530   5.034
 9009TIP3    H126960   0.953   7.478   5.081
 9009TIP3    H226961   1.098   7.469   5.045
 9010TIP3   OH226962   0.501   6.753   3.600
 9010TIP3    H126963   0.576   6.729   3.658
 9010TIP3    H226964   0.429   6.694   3.634
 9011TIP3   OH226965   0.553   7.018   4.079
 9011TIP3    H126966   0.590   6.928   4.089
 9011TIP3    H226967   0.589   7.043   3.993
 9012TIP3   OH226968   0.706   7.192   4.559
 9012TIP3    H126969   0.791   7.214   4.515
 9012TIP3    H226970   0.723   7.229   4.648
 9013TIP3   OH226971   0.763   7.334   4.792
 9013TIP3    H126972   0.679   7.369   4.827
 9013TIP3    H226973   0.801   7.413   4.747
 9014TIP3   OH226974   1.226   6.921   5.344
 9014TIP3    H126975   1.284   6.855   5.300
 9014TIP3    H226976   1.197   6.976   5.268
 9015TIP3   OH226977   0.660   6.758   4.093
 9015TIP3    H126978   0.702   6.747   4.180
 9015TIP3    H226979   0.595   6.686   4.095
 9016TIP3   OH226980   1.090   7.057   5.151
 9016TIP3    H126981   1.007   7.098   5.182
 9016TIP3    H226982   1.056   6.987   5.092
 9017TIP3   OH226983   0.737   6.697   3.731
 9017TIP3    H126984   0.777   6.625   3.678
 9017TIP3    H226985   0.805   6.767   3.728
 9018TIP3   OH226986   0.992   6.820   5.027
 9018TIP3    H126987   0.902   6.803   4.996
 9018TIP3    H226988   1.032   6.730   5.017
 9019TIP3   OH226989   0.740   6.613   4.549
 9019TIP3    H126990   0.775   6.664   4.472
 9019TIP3    H226991   0.645   6.634   4.543
 9020TIP3   OH226992   0.820   6.720   4.315
 9020TIP3    H126993   0.892   6.667   4.275
 9020TIP3    H226994   0.854   6.811   4.298
 9021TIP3   OH226995   0.478   6.655   4.520
 9021TIP3    H126996   0.411   6.653   4.451
 9021TIP3    H226997   0.458   6.573   4.571
 9022TIP3   OH226998   0.477   6.543   4.087
 9022TIP3    H126999   0.388   6.570   4.063
 9022TIP3    H227000   0.458   6.460   4.137
 9023TIP3   OH227001   0.733   6.771   5.458
 9023TIP3    H127002   0.750   6.746   5.552
 9023TIP3    H227003   0.823   6.767   5.419
 9024TIP3   OH227004   1.939   7.696   3.725
 9024TIP3    H127005   1.902   7.784   3.700
 9024TIP3    H227006   1.865   7.640   3.696
 9025TIP3   OH227007   1.936   7.708   4.102
 9025TIP3    H127008   1.970   7.686   4.190
 9025TIP3    H227009   1.893   7.626   4.075
 9026TIP3   OH227010   1.231   7.603   4.468
 9026TIP3    H127011   1.261   7.535   4.531
 9026TIP3    H227012   1.305   7.665   4.471
 9027TIP3   OH227013   2.154   8.012   3.790
 9027TIP3    H127014   2.154   7.938   3.854
 9027TIP3    H227015   2.209   8.077   3.836
 9028TIP3   OH227016   1.259   7.962   4.263
 9028TIP3    H127017   1.234   7.872   4.235
 9028TIP3    H227018   1.345   7.973   4.214
 9029TIP3   OH227019   0.914   7.219   3.973
 9029TIP3    H127020   0.865   7.302   3.989
 9029TIP3    H227021   0.841   7.163   3.939
 9030TIP3   OH227022   0.969   7.507   4.154
 9030TIP3    H127023   1.017   7.428   4.187
 9030TIP3    H227024   1.037   7.550   4.100
 9031TIP3   OH227025   1.749   7.929   4.138
 9031TIP3    H127026   1.795   7.849   4.106
 9031TIP3    H227027   1.828   7.980   4.167
 9032TIP3   OH227028   2.747   7.257   4.146
 9032TIP3    H127029   2.776   7.339   4.191
 9032TIP3    H227030   2.769   7.277   4.053
 9033TIP3   OH227031   2.148   7.439   4.178
 9033TIP3    H127032   2.189   7.353   4.201
 9033TIP3    H227033   2.115   7.421   4.088
 9034TIP3   OH227034   1.485   7.097   4.144
 9034TIP3    H127035   1.463   7.170   4.083
 9034TIP3    H227036   1.435   7.024   4.102
 9035TIP3   OH227037   2.179   7.186   3.766
 9035TIP3    H127038   2.251   7.172   3.833
 9035TIP3    H227039   2.232   7.223   3.693
 9036TIP3   OH227040   1.117   7.299   4.253
 9036TIP3    H127041   1.200   7.279   4.301
 9036TIP3    H227042   1.129   7.244   4.174
 9037TIP3   OH227043   1.558   7.498   4.043
 9037TIP3    H127044   1.651   7.472   4.060
 9037TIP3    H227045   1.519   7.413   4.015
 9038TIP3   OH227046   2.820   7.464   4.316
 9038TIP3    H127047   2.735   7.511   4.299
 9038TIP3    H227048   2.837   7.492   4.407
 9039TIP3   OH227049   1.478   7.078   4.578
 9039TIP3    H127050   1.418   7.118   4.513
 9039TIP3    H227051   1.428   7.095   4.661
 9040TIP3   OH227052   1.817   7.899   3.587
 9040TIP3    H127053   1.773   7.898   3.502
 9040TIP3    H227054   1.842   7.992   3.598
 9041TIP3   OH227055   1.583   7.861   4.373
 9041TIP3    H127056   1.518   7.922   4.411
 9041TIP3    H227057   1.617   7.911   4.297
 9042TIP3   OH227058   2.387   7.192   3.943
 9042TIP3    H127059   2.369   7.150   4.028
 9042TIP3    H227060   2.440   7.269   3.969
 9043TIP3   OH227061   1.351   7.196   4.363
 9043TIP3    H127062   1.411   7.270   4.388
 9043TIP3    H227063   1.403   7.155   4.290
 9044TIP3   OH227064   1.412   8.073   4.479
 9044TIP3    H127065   1.367   8.067   4.394
 9044TIP3    H227066   1.335   8.063   4.540
 9045TIP3   OH227067   0.820   7.712   3.719
 9045TIP3    H127068   0.774   7.717   3.633
 9045TIP3    H227069   0.829   7.808   3.736
 9046TIP3   OH227070   2.541   7.154   4.311
 9046TIP3    H127071   2.454   7.186   4.283
 9046TIP3    H227072   2.600   7.188   4.240
 9047TIP3   OH227073   1.835   6.798   4.294
 9047TIP3    H127074   1.822   6.704   4.314
 9047TIP3    H227075   1.758   6.837   4.342
 9048TIP3   OH227076   2.179   8.027   3.509
 9048TIP3    H127077   2.146   7.947   3.467
 9048TIP3    H227078   2.189   8.001   3.603
 9049TIP3   OH227079   2.468   8.167   4.295
 9049TIP3    H127080   2.457   8.088   4.238
 9049TIP3    H227081   2.495   8.236   4.230
 9050TIP3   OH227082   1.767   7.555   3.554
 9050TIP3    H127083   1.686   7.607   3.536
 9050TIP3    H227084   1.812   7.558   3.467
 9051TIP3   OH227085   1.725   7.348   3.264
 9051TIP3    H127086   1.792   7.397   3.316
 9051TIP3    H227087   1.784   7.284   3.217
 9052TIP3   OH227088   2.672   7.804   4.136
 9052TIP3    H127089   2.589   7.856   4.144
 9052TIP3    H227090   2.700   7.830   4.046
 9053TIP3   OH227091   2.115   7.637   3.526
 9053TIP3    H127092   2.060   7.659   3.605
 9053TIP3    H227093   2.199   7.611   3.570
 9054TIP3   OH227094   2.349   7.684   4.434
 9054TIP3    H127095   2.347   7.767   4.486
 9054TIP3    H227096   2.261   7.688   4.391
 9055TIP3   OH227097   1.352   7.641   3.929
 9055TIP3    H127098   1.311   7.580   3.865
 9055TIP3    H227099   1.428   7.589   3.963
 9056TIP3   OH227100   1.486   8.012   4.132
 9056TIP3    H127101   1.447   8.006   4.043
 9056TIP3    H227102   1.582   8.004   4.115
 9057TIP3   OH227103   1.478   7.618   4.288
 9057TIP3    H127104   1.517   7.596   4.201
 9057TIP3    H227105   1.524   7.701   4.312
 9058TIP3   OH227106   1.664   8.078   4.608
 9058TIP3    H127107   1.625   8.161   4.642
 9058TIP3    H227108   1.587   8.045   4.558
 9059TIP3   OH227109   1.952   7.501   3.349
 9059TIP3    H127110   2.013   7.559   3.401
 9059TIP3    H227111   1.981   7.521   3.257
 9060TIP3   OH227112   1.371   7.736   4.706
 9060TIP3    H127113   1.380   7.816   4.761
 9060TIP3    H227114   1.281   7.707   4.731
 9061TIP3   OH227115   2.469   6.743   3.396
 9061TIP3    H127116   2.389   6.764   3.447
 9061TIP3    H227117   2.483   6.826   3.346
 9062TIP3   OH227118   1.217   7.482   3.738
 9062TIP3    H127119   1.149   7.525   3.682
 9062TIP3    H227120   1.172   7.400   3.763
 9063TIP3   OH227121   1.006   7.869   4.659
 9063TIP3    H127122   0.948   7.842   4.586
 9063TIP3    H227123   1.045   7.784   4.689
 9064TIP3   OH227124   2.603   7.644   4.614
 9064TIP3    H127125   2.519   7.656   4.566
 9064TIP3    H227126   2.617   7.548   4.604
 9065TIP3   OH227127   1.198   8.071   4.653
 9065TIP3    H127128   1.254   8.036   4.726
 9065TIP3    H227129   1.127   8.002   4.649
 9066TIP3   OH227130   1.597   6.876   4.423
 9066TIP3    H127131   1.507   6.845   4.398
 9066TIP3    H227132   1.572   6.957   4.472
 9067TIP3   OH227133   2.131   6.989   4.618
 9067TIP3    H127134   2.199   6.964   4.684
 9067TIP3    H227135   2.047   6.970   4.666
 9068TIP3   OH227136   2.371   7.421   4.538
 9068TIP3    H127137   2.320   7.416   4.622
 9068TIP3    H227138   2.344   7.508   4.502
 9069TIP3   OH227139   2.029   7.532   3.091
 9069TIP3    H127140   1.999   7.512   3.000
 9069TIP3    H227141   2.093   7.603   3.074
 9070TIP3   OH227142   1.742   6.925   3.394
 9070TIP3    H127143   1.711   6.925   3.487
 9070TIP3    H227144   1.708   6.839   3.364
 9071TIP3   OH227145   1.526   7.393   4.438
 9071TIP3    H127146   1.485   7.416   4.524
 9071TIP3    H227147   1.510   7.475   4.387
 9072TIP3   OH227148   1.412   7.278   3.955
 9072TIP3    H127149   1.319   7.251   3.975
 9072TIP3    H227150   1.424   7.235   3.867
 9073TIP3   OH227151   1.905   7.360   3.684
 9073TIP3    H127152   1.851   7.429   3.641
 9073TIP3    H227153   1.960   7.329   3.610
 9074TIP3   OH227154   2.078   7.638   4.770
 9074TIP3    H127155   2.054   7.567   4.834
 9074TIP3    H227156   2.171   7.653   4.794
 9075TIP3   OH227157   2.062   7.390   3.922
 9075TIP3    H127158   2.000   7.419   3.852
 9075TIP3    H227159   2.095   7.308   3.878
 9076TIP3   OH227160   1.346   7.420   4.654
 9076TIP3    H127161   1.390   7.478   4.717
 9076TIP3    H227162   1.337   7.337   4.705
 9077TIP3   OH227163   1.400   6.898   3.362
 9077TIP3    H127164   1.389   6.898   3.460
 9077TIP3    H227165   1.322   6.949   3.335
 9078TIP3   OH227166   0.944   6.941   4.231
 9078TIP3    H127167   1.019   6.974   4.286
 9078TIP3    H227168   0.986   6.911   4.150
 9079TIP3   OH227169   0.913   6.922   3.747
 9079TIP3    H127170   0.959   6.963   3.671
 9079TIP3    H227171   0.851   6.994   3.771
 9080TIP3   OH227172   2.072   7.639   4.342
 9080TIP3    H127173   2.105   7.566   4.284
 9080TIP3    H227174   2.043   7.587   4.420
 9081TIP3   OH227175   1.740   7.099   4.016
 9081TIP3    H127176   1.659   7.098   4.070
 9081TIP3    H227177   1.810   7.095   4.084
 9082TIP3   OH227178   1.175   7.157   4.023
 9082TIP3    H127179   1.080   7.165   3.997
 9082TIP3    H227180   1.196   7.064   4.002
 9083TIP3   OH227181   1.443   7.148   3.715
 9083TIP3    H127182   1.536   7.167   3.694
 9083TIP3    H227183   1.396   7.173   3.632
 9084TIP3   OH227184   2.233   7.175   4.214
 9084TIP3    H127185   2.204   7.186   4.308
 9084TIP3    H227186   2.164   7.114   4.182
 9085TIP3   OH227187   1.287   7.184   3.492
 9085TIP3    H127188   1.214   7.141   3.446
 9085TIP3    H227189   1.338   7.220   3.417
 9086TIP3   OH227190   1.363   7.979   4.857
 9086TIP3    H127191   1.442   8.001   4.910
 9086TIP3    H227192   1.299   7.962   4.930
 9087TIP3   OH227193   1.822   7.430   4.115
 9087TIP3    H127194   1.896   7.386   4.070
 9087TIP3    H227195   1.826   7.390   4.205
 9088TIP3   OH227196   1.343   6.914   3.996
 9088TIP3    H127197   1.307   6.836   4.044
 9088TIP3    H227198   1.397   6.871   3.927
 9089TIP3   OH227199   1.799   7.330   4.401
 9089TIP3    H127200   1.709   7.365   4.419
 9089TIP3    H227201   1.856   7.389   4.455
 9090TIP3   OH227202   1.538   7.701   3.505
 9090TIP3    H127203   1.460   7.643   3.493
 9090TIP3    H227204   1.515   7.746   3.590
 9091TIP3   OH227205   2.438   7.947   4.130
 9091TIP3    H127206   2.465   7.995   4.048
 9091TIP3    H227207   2.352   7.908   4.103
 9092TIP3   OH227208   1.994   7.030   3.356
 9092TIP3    H127209   1.898   7.013   3.370
 9092TIP3    H227210   2.006   7.122   3.386
 9093TIP3   OH227211   1.946   8.054   4.498
 9093TIP3    H127212   1.973   7.996   4.571
 9093TIP3    H227213   1.862   8.088   4.532
 9094TIP3   OH227214   2.064   7.273   3.464
 9094TIP3    H127215   2.161   7.279   3.481
 9094TIP3    H227216   2.046   7.354   3.413
 9095TIP3   OH227217   1.216   7.704   4.166
 9095TIP3    H127218   1.267   7.689   4.084
 9095TIP3    H227219   1.268   7.653   4.232
 9096TIP3   OH227220   1.647   7.885   3.337
 9096TIP3    H127221   1.607   7.956   3.393
 9096TIP3    H227222   1.612   7.807   3.386
 9097TIP3   OH227223   1.114   7.658   4.793
 9097TIP3    H127224   1.144   7.644   4.885
 9097TIP3    H227225   1.049   7.586   4.784
 9098TIP3   OH227226   1.837   7.776   4.789
 9098TIP3    H127227   1.776   7.703   4.773
 9098TIP3    H227228   1.925   7.734   4.776
 9099TIP3   OH227229   2.504   7.366   3.302
 9099TIP3    H127230   2.442   7.321   3.239
 9099TIP3    H227231   2.502   7.455   3.259
 9100TIP3   OH227232   2.724   8.206   4.385
 9100TIP3    H127233   2.627   8.216   4.375
 9100TIP3    H227234   2.749   8.191   4.291
 9101TIP3   OH227235   2.200   7.819   4.032
 9101TIP3    H127236   2.110   7.791   4.056
 9101TIP3    H227237   2.236   7.735   3.997
 9102TIP3   OH227238   0.895   7.344   3.504
 9102TIP3    H127239   0.941   7.428   3.526
 9102TIP3    H227240   0.817   7.350   3.564
 9103TIP3   OH227241   1.465   7.821   3.746
 9103TIP3    H127242   1.426   7.900   3.786
 9103TIP3    H227243   1.438   7.755   3.813
 9104TIP3   OH227244   1.991   8.020   4.226
 9104TIP3    H127245   1.979   8.030   4.323
 9104TIP3    H227246   2.075   7.973   4.221
 9105TIP3   OH227247   1.994   7.847   3.083
 9105TIP3    H127248   2.028   7.840   3.175
 9105TIP3    H227249   1.912   7.898   3.097
 9106TIP3   OH227250   1.325   7.159   4.796
 9106TIP3    H127251   1.230   7.166   4.817
 9106TIP3    H227252   1.357   7.107   4.872
 9107TIP3   OH227253   2.119   7.824   3.329
 9107TIP3    H127254   2.116   7.752   3.396
 9107TIP3    H227255   2.216   7.828   3.311
 9108TIP3   OH227256   1.312   7.846   3.155
 9108TIP3    H127257   1.350   7.759   3.130
 9108TIP3    H227258   1.341   7.855   3.246
 9109TIP3   OH227259   1.016   7.586   3.581
 9109TIP3    H127260   0.951   7.623   3.645
 9109TIP3    H227261   1.022   7.660   3.517
 9110TIP3   OH227262   2.164   7.221   4.473
 9110TIP3    H127263   2.236   7.265   4.521
 9110TIP3    H227264   2.146   7.143   4.530
 9111TIP3   OH227265   2.041   6.977   3.642
 9111TIP3    H127266   2.028   7.004   3.550
 9111TIP3    H227267   2.081   7.058   3.682
 9112TIP3   OH227268   1.725   7.158   3.745
 9112TIP3    H127269   1.791   7.229   3.729
 9112TIP3    H227270   1.730   7.149   3.843
 9113TIP3   OH227271   2.001   7.479   4.550
 9113TIP3    H127272   2.013   7.533   4.630
 9113TIP3    H227273   2.049   7.398   4.573
 9114TIP3   OH227274   1.872   6.882   3.847
 9114TIP3    H127275   1.868   6.957   3.910
 9114TIP3    H227276   1.933   6.919   3.779
 9115TIP3   OH227277   1.385   6.883   3.636
 9115TIP3    H127278   1.379   6.973   3.675
 9115TIP3    H227279   1.481   6.867   3.647
 9116TIP3   OH227280   2.636   7.376   4.533
 9116TIP3    H127281   2.538   7.376   4.542
 9116TIP3    H227282   2.646   7.334   4.447
 9117TIP3   OH227283   2.288   7.572   3.923
 9117TIP3    H127284   2.211   7.512   3.936
 9117TIP3    H227285   2.359   7.525   3.971
 9118TIP3   OH227286   1.005   7.803   3.397
 9118TIP3    H127287   1.035   7.895   3.387
 9118TIP3    H227288   1.060   7.756   3.330
 9119TIP3   OH227289   0.946   7.074   3.518
 9119TIP3    H127290   0.945   7.172   3.521
 9119TIP3    H227291   0.855   7.054   3.493
 9120TIP3   OH227292   1.333   6.795   4.397
 9120TIP3    H127293   1.301   6.761   4.311
 9120TIP3    H227294   1.322   6.717   4.455
 9121TIP3   OH227295   1.159   7.947   5.034
 9121TIP3    H127296   1.184   7.859   5.068
 9121TIP3    H227297   1.070   7.930   4.997
 9122TIP3   OH227298   1.133   7.607   3.248
 9122TIP3    H127299   1.181   7.569   3.324
 9122TIP3    H227300   1.205   7.609   3.182
 9123TIP3   OH227301   1.780   8.034   4.849
 9123TIP3    H127302   1.747   8.040   4.757
 9123TIP3    H227303   1.816   7.942   4.846
 9124TIP3   OH227304   1.587   7.784   3.060
 9124TIP3    H127305   1.620   7.805   3.148
 9124TIP3    H227306   1.617   7.692   3.048
 9125TIP3   OH227307   2.257   8.045   4.427
 9125TIP3    H127308   2.323   8.104   4.385
 9125TIP3    H227309   2.179   8.102   4.428
 9126TIP3   OH227310   1.299   7.679   5.028
 9126TIP3    H127311   1.389   7.644   5.019
 9126TIP3    H227312   1.308   7.721   5.116
 9127TIP3   OH227313   1.335   7.515   3.462
 9127TIP3    H127314   1.310   7.476   3.548
 9127TIP3    H227315   1.375   7.438   3.416
 9128TIP3   OH227316   1.607   7.573   4.688
 9128TIP3    H127317   1.539   7.642   4.698
 9128TIP3    H227318   1.661   7.608   4.614
 9129TIP3   OH227319   1.447   7.309   3.307
 9129TIP3    H127320   1.420   7.311   3.213
 9129TIP3    H227321   1.544   7.318   3.299
 9130TIP3   OH227322   2.136   7.977   4.826
 9130TIP3    H127323   2.218   7.950   4.782
 9130TIP3    H227324   2.129   7.912   4.898
 9131TIP3   OH227325   2.265   7.649   2.966
 9131TIP3    H127326   2.241   7.596   2.887
 9131TIP3    H227327   2.243   7.739   2.932
 9132TIP3   OH227328   1.764   7.363   4.804
 9132TIP3    H127329   1.739   7.286   4.752
 9132TIP3    H227330   1.695   7.428   4.782
 9133TIP3   OH227331   1.739   7.146   4.617
 9133TIP3    H127332   1.764   7.195   4.536
 9133TIP3    H227333   1.644   7.128   4.602
 9134TIP3   OH227334   1.759   7.682   4.488
 9134TIP3    H127335   1.845   7.700   4.450
 9134TIP3    H227336   1.705   7.757   4.453
 9135TIP3   OH227337   2.354   7.653   4.876
 9135TIP3    H127338   2.403   7.571   4.888
 9135TIP3    H227339   2.422   7.713   4.844
 9136TIP3   OH227340   2.389   7.908   4.617
 9136TIP3    H127341   2.332   7.961   4.558
 9136TIP3    H227342   2.477   7.929   4.578
 9137TIP3   OH227343   1.871   6.917   4.695
 9137TIP3    H127344   1.824   6.999   4.671
 9137TIP3    H227345   1.801   6.850   4.685
 9138TIP3   OH227346   2.002   7.423   4.916
 9138TIP3    H127347   1.977   7.412   5.009
 9138TIP3    H227348   1.916   7.398   4.874
 9139TIP3   OH227349   2.234   7.367   4.764
 9139TIP3    H127350   2.158   7.374   4.826
 9139TIP3    H227351   2.306   7.340   4.824
 9140TIP3   OH227352   2.469   7.315   4.916
 9140TIP3    H127353   2.479   7.219   4.934
 9140TIP3    H227354   2.461   7.353   5.007
 9141TIP3   OH227355   1.429   7.251   5.113
 9141TIP3    H127356   1.486   7.190   5.065
 9141TIP3    H227357   1.485   7.275   5.189
 9142TIP3   OH227358   1.966   6.930   4.953
 9142TIP3    H127359   2.032   6.858   4.947
 9142TIP3    H227360   1.925   6.924   4.865
 9143TIP3   OH227361   2.025   7.147   5.113
 9143TIP3    H127362   2.005   7.076   5.048
 9143TIP3    H227363   1.948   7.207   5.103
 9144TIP3   OH227364   0.742   7.717   3.427
 9144TIP3    H127365   0.830   7.751   3.401
 9144TIP3    H227366   0.733   7.638   3.371
 9145TIP3   OH227367   2.609   8.337   4.658
 9145TIP3    H127368   2.536   8.317   4.721
 9145TIP3    H227369   2.659   8.405   4.706
 9146TIP3   OH227370   2.393   7.821   3.308
 9146TIP3    H127371   2.465   7.879   3.276
 9146TIP3    H227372   2.437   7.781   3.386
 9147TIP3   OH227373   2.527   7.693   3.506
 9147TIP3    H127374   2.466   7.650   3.570
 9147TIP3    H227375   2.598   7.728   3.564
 9148TIP3   OH227376   2.567   8.080   3.932
 9148TIP3    H127377   2.634   8.025   3.887
 9148TIP3    H227378   2.573   8.165   3.886
 9149TIP3   OH227379   2.465   7.603   3.151
 9149TIP3    H127380   2.393   7.609   3.084
 9149TIP3    H227381   2.439   7.678   3.209
 9150TIP3   OH227382   2.336   7.275   3.109
 9150TIP3    H127383   2.294   7.315   3.032
 9150TIP3    H227384   2.313   7.180   3.096
 9151TIP3   OH227385   2.342   7.550   3.655
 9151TIP3    H127386   2.353   7.453   3.649
 9151TIP3    H227387   2.329   7.564   3.751
 9152TIP3   OH227388   0.968   7.637   4.400
 9152TIP3    H127389   0.965   7.598   4.310
 9152TIP3    H227390   1.065   7.632   4.417
 9153TIP3   OH227391   2.631   7.974   4.511
 9153TIP3    H127392   2.704   7.909   4.501
 9153TIP3    H227393   2.659   8.046   4.452
 9154TIP3   OH227394   2.818   7.780   4.522
 9154TIP3    H127395   2.743   7.731   4.563
 9154TIP3    H227396   2.890   7.716   4.539
 9155TIP3   OH227397   2.283   7.008   3.091
 9155TIP3    H127398   2.360   6.981   3.145
 9155TIP3    H227399   2.212   6.949   3.121
 9156TIP3   OH227400   2.339   7.268   3.545
 9156TIP3    H127401   2.381   7.180   3.561
 9156TIP3    H227402   2.397   7.302   3.475
 9157TIP3   OH227403   2.500   7.440   4.041
 9157TIP3    H127404   2.586   7.466   4.001
 9157TIP3    H227405   2.513   7.477   4.131
 9158TIP3   OH227406   2.569   7.585   4.273
 9158TIP3    H127407   2.493   7.619   4.324
 9158TIP3    H227408   2.602   7.666   4.230
 9159TIP3   OH227409   1.172   7.303   5.054
 9159TIP3    H127410   1.270   7.303   5.067
 9159TIP3    H227411   1.151   7.224   5.108
 9160TIP3   OH227412   3.022   7.178   4.830
 9160TIP3    H127413   3.080   7.112   4.787
 9160TIP3    H227414   2.993   7.232   4.754
 9161TIP3   OH227415   2.448   7.018   3.585
 9161TIP3    H127416   2.496   7.002   3.668
 9161TIP3    H227417   2.388   6.941   3.584
 9162TIP3   OH227418   1.149   7.004   4.405
 9162TIP3    H127419   1.212   6.930   4.416
 9162TIP3    H227420   1.211   7.079   4.399
 9163TIP3   OH227421   0.951   7.277   4.477
 9163TIP3    H127422   0.999   7.271   4.392
 9163TIP3    H227423   0.986   7.359   4.514
 9164TIP3   OH227424   2.892   7.316   4.636
 9164TIP3    H127425   2.805   7.357   4.657
 9164TIP3    H227426   2.861   7.243   4.577
 9165TIP3   OH227427   2.527   6.953   3.217
 9165TIP3    H127428   2.569   6.881   3.165
 9165TIP3    H227429   2.594   7.023   3.214
 9166TIP3   OH227430   0.934   6.778   3.976
 9166TIP3    H127431   0.841   6.776   4.007
 9166TIP3    H227432   0.928   6.839   3.900
 9167TIP3   OH227433   1.152   6.855   4.790
 9167TIP3    H127434   1.105   6.855   4.875
 9167TIP3    H227435   1.086   6.897   4.732
 9168TIP3   OH227436   2.792   7.078   4.513
 9168TIP3    H127437   2.700   7.071   4.481
 9168TIP3    H227438   2.823   6.986   4.502
 9169TIP3   OH227439   1.992   6.991   4.128
 9169TIP3    H127440   1.952   6.923   4.185
 9169TIP3    H227441   2.069   6.945   4.090
 9170TIP3   OH227442   2.517   6.871   4.035
 9170TIP3    H127443   2.554   6.925   3.962
 9170TIP3    H227444   2.423   6.895   4.032
 9171TIP3   OH227445   2.614   6.974   3.800
 9171TIP3    H127446   2.688   6.922   3.762
 9171TIP3    H227447   2.648   7.065   3.787
 9172TIP3   OH227448   1.245   6.701   4.148
 9172TIP3    H127449   1.152   6.668   4.150
 9172TIP3    H227450   1.294   6.617   4.146
 9173TIP3   OH227451   1.032   6.574   3.798
 9173TIP3    H127452   1.059   6.634   3.727
 9173TIP3    H227453   1.001   6.637   3.866
 9174TIP3   OH227454   1.688   6.735   4.029
 9174TIP3    H127455   1.748   6.786   3.972
 9174TIP3    H227456   1.710   6.771   4.117
 9175TIP3   OH227457   2.233   6.882   4.015
 9175TIP3    H127458   2.235   6.843   3.927
 9175TIP3    H227459   2.221   6.802   4.072
 9176TIP3   OH227460   2.264   6.805   3.576
 9176TIP3    H127461   2.179   6.849   3.593
 9176TIP3    H227462   2.251   6.720   3.622
 9177TIP3   OH227463   1.149   6.735   3.559
 9177TIP3    H127464   1.200   6.672   3.505
 9177TIP3    H227465   1.220   6.789   3.598
 9178TIP3   OH227466   1.663   6.907   3.658
 9178TIP3    H127467   1.721   6.863   3.722
 9178TIP3    H227468   1.680   7.001   3.684
 9179TIP3   OH227469   1.456   6.954   5.022
 9179TIP3    H127470   1.418   6.901   5.094
 9179TIP3    H227471   1.545   6.973   5.060
 9180TIP3   OH227472   1.697   6.983   5.158
 9180TIP3    H127473   1.783   6.960   5.120
 9180TIP3    H227474   1.685   6.911   5.224
 9181TIP3   OH227475   2.527   7.043   4.947
 9181TIP3    H127476   2.545   7.013   5.039
 9181TIP3    H227477   2.615   7.038   4.906
 9182TIP3   OH227478   3.734   7.951   3.212
 9182TIP3    H127479   3.699   8.039   3.188
 9182TIP3    H227480   3.659   7.897   3.181
 9183TIP3   OH227481   3.734   7.964   3.586
 9183TIP3    H127482   3.766   7.943   3.676
 9183TIP3    H227483   3.689   7.881   3.561
 9184TIP3   OH227484   3.028   7.862   3.953
 9184TIP3    H127485   3.061   7.795   4.017
 9184TIP3    H227486   3.104   7.921   3.948
 9185TIP3   OH227487   3.952   8.270   3.276
 9185TIP3    H127488   3.951   8.199   3.342
 9185TIP3    H227489   4.003   8.338   3.321
 9186TIP3   OH227490   3.057   8.209   3.757
 9186TIP3    H127491   3.024   8.126   3.718
 9186TIP3    H227492   3.140   8.223   3.704
 9187TIP3   OH227493   2.708   7.472   3.460
 9187TIP3    H127494   2.665   7.557   3.476
 9187TIP3    H227495   2.636   7.422   3.419
 9188TIP3   OH227496   2.764   7.761   3.632
 9188TIP3    H127497   2.814   7.684   3.669
 9188TIP3    H227498   2.836   7.815   3.596
 9189TIP3   OH227499   3.546   8.182   3.629
 9189TIP3    H127500   3.593   8.105   3.592
 9189TIP3    H227501   3.623   8.235   3.658
 9190TIP3   OH227502   4.542   7.514   3.634
 9190TIP3    H127503   4.571   7.595   3.681
 9190TIP3    H227504   4.566   7.536   3.542
 9191TIP3   OH227505   3.941   7.695   3.666
 9191TIP3    H127506   3.985   7.610   3.688
 9191TIP3    H227507   3.911   7.677   3.575
 9192TIP3   OH227508   3.282   7.354   3.631
 9192TIP3    H127509   3.260   7.427   3.570
 9192TIP3    H227510   3.233   7.281   3.588
 9193TIP3   OH227511   3.974   7.434   3.252
 9193TIP3    H127512   4.045   7.425   3.320
 9193TIP3    H227513   4.025   7.477   3.180
 9194TIP3   OH227514   2.913   7.556   3.741
 9194TIP3    H127515   2.996   7.537   3.788
 9194TIP3    H227516   2.926   7.502   3.660
 9195TIP3   OH227517   3.353   7.753   3.532
 9195TIP3    H127518   3.447   7.728   3.546
 9195TIP3    H227519   3.314   7.669   3.501
 9196TIP3   OH227520   4.614   7.719   3.806
 9196TIP3    H127521   4.530   7.769   3.791
 9196TIP3    H227522   4.642   7.755   3.892
 9197TIP3   OH227523   3.277   7.337   4.067
 9197TIP3    H127524   3.217   7.374   3.999
 9197TIP3    H227525   3.224   7.355   4.148
 9198TIP3   OH227526   3.615   8.154   3.074
 9198TIP3    H127527   3.568   8.156   2.989
 9198TIP3    H227528   3.640   8.247   3.086
 9199TIP3   OH227529   3.380   8.116   3.861
 9199TIP3    H127530   3.315   8.181   3.894
 9199TIP3    H227531   3.416   8.163   3.783
 9200TIP3   OH227532   4.180   7.449   3.430
 9200TIP3    H127533   4.166   7.409   3.517
 9200TIP3    H227534   4.236   7.526   3.453
 9201TIP3   OH227535   3.148   7.453   3.851
 9201TIP3    H127536   3.209   7.526   3.874
 9201TIP3    H227537   3.198   7.412   3.776
 9202TIP3   OH227538   3.209   8.331   3.967
 9202TIP3    H127539   3.167   8.329   3.880
 9202TIP3    H227540   3.129   8.323   4.024
 9203TIP3   OH227541   2.605   7.962   3.205
 9203TIP3    H127542   2.571   7.982   3.115
 9203TIP3    H227543   2.622   8.053   3.235
 9204TIP3   OH227544   4.337   7.406   3.795
 9204TIP3    H127545   4.251   7.444   3.769
 9204TIP3    H227546   4.398   7.443   3.727
 9205TIP3   OH227547   3.632   7.055   3.782
 9205TIP3    H127548   3.619   6.961   3.801
 9205TIP3    H227549   3.555   7.094   3.828
 9206TIP3   OH227550   3.979   8.282   2.997
 9206TIP3    H127551   3.937   8.203   2.958
 9206TIP3    H227552   3.987   8.259   3.091
 9207TIP3   OH227553   4.265   8.437   3.773
 9207TIP3    H127554   4.260   8.352   3.724
 9207TIP3    H227555   4.238   8.501   3.707
 9208TIP3   OH227556   3.563   7.811   3.041
 9208TIP3    H127557   3.482   7.863   3.024
 9208TIP3    H227558   3.608   7.816   2.955
 9209TIP3   OH227559   3.523   7.604   2.753
 9209TIP3    H127560   3.589   7.655   2.804
 9209TIP3    H227561   3.582   7.544   2.702
 9210TIP3   OH227562   4.466   8.059   3.622
 9210TIP3    H127563   4.385   8.114   3.631
 9210TIP3    H227564   4.496   8.087   3.533
 9211TIP3   OH227565   3.911   7.893   3.013
 9211TIP3    H127566   3.855   7.916   3.092
 9211TIP3    H227567   3.995   7.868   3.057
 9212TIP3   OH227568   4.145   7.938   3.923
 9212TIP3    H127569   4.147   8.020   3.977
 9212TIP3    H227570   4.059   7.949   3.879
 9213TIP3   OH227571   3.148   7.899   3.416
 9213TIP3    H127572   3.106   7.838   3.352
 9213TIP3    H227573   3.224   7.846   3.449
 9214TIP3   OH227574   3.280   8.265   3.622
 9214TIP3    H127575   3.244   8.265   3.532
 9214TIP3    H227576   3.377   8.271   3.608
 9215TIP3   OH227577   3.274   7.875   3.776
 9215TIP3    H127578   3.311   7.853   3.688
 9215TIP3    H227579   3.318   7.960   3.798
 9216TIP3   OH227580   3.452   8.330   4.105
 9216TIP3    H127581   3.422   8.420   4.130
 9216TIP3    H227582   3.376   8.303   4.050
 9217TIP3   OH227583   3.750   7.757   2.837
 9217TIP3    H127584   3.809   7.817   2.888
 9217TIP3    H227585   3.778   7.777   2.744
 9218TIP3   OH227586   3.171   7.981   4.204
 9218TIP3    H127587   3.178   8.069   4.247
 9218TIP3    H227588   3.076   7.962   4.218
 9219TIP3   OH227589   4.267   7.000   2.883
 9219TIP3    H127590   4.185   7.019   2.932
 9219TIP3    H227591   4.279   7.084   2.832
 9220TIP3   OH227592   3.012   7.739   3.227
 9220TIP3    H127593   2.945   7.784   3.170
 9220TIP3    H227594   2.968   7.656   3.246
 9221TIP3   OH227595   2.806   8.125   4.138
 9221TIP3    H127596   2.738   8.103   4.072
 9221TIP3    H227597   2.839   8.037   4.166
 9222TIP3   OH227598   4.402   7.899   4.094
 9222TIP3    H127599   4.317   7.910   4.050
 9222TIP3    H227600   4.415   7.802   4.090
 9223TIP3   OH227601   2.993   8.329   4.143
 9223TIP3    H127602   3.050   8.290   4.213
 9223TIP3    H227603   2.924   8.260   4.133
 9224TIP3   OH227604   3.393   7.132   3.910
 9224TIP3    H127605   3.303   7.102   3.885
 9224TIP3    H227606   3.369   7.214   3.957
 9225TIP3   OH227607   3.928   7.245   4.105
 9225TIP3    H127608   3.998   7.220   4.170
 9225TIP3    H227609   3.845   7.227   4.153
 9226TIP3   OH227610   4.160   7.673   4.017
 9226TIP3    H127611   4.116   7.672   4.105
 9226TIP3    H227612   4.142   7.764   3.986
 9227TIP3   OH227613   3.825   7.787   2.578
 9227TIP3    H127614   3.796   7.768   2.487
 9227TIP3    H227615   3.883   7.864   2.563
 9228TIP3   OH227616   3.536   7.141   2.968
 9228TIP3    H127617   3.497   7.222   2.961
 9228TIP3    H227618   3.510   7.104   2.885
 9229TIP3   OH227619   3.324   7.650   3.925
 9229TIP3    H127620   3.276   7.670   4.008
 9229TIP3    H227621   3.307   7.732   3.874
 9230TIP3   OH227622   3.210   7.533   3.441
 9230TIP3    H127623   3.117   7.508   3.459
 9230TIP3    H227624   3.222   7.492   3.352
 9231TIP3   OH227625   3.701   7.615   3.171
 9231TIP3    H127626   3.646   7.685   3.130
 9231TIP3    H227627   3.756   7.587   3.095
 9232TIP3   OH227628   3.878   7.894   4.253
 9232TIP3    H127629   3.856   7.823   4.317
 9232TIP3    H227630   3.970   7.912   4.276
 9233TIP3   OH227631   3.858   7.645   3.409
 9233TIP3    H127632   3.797   7.677   3.339
 9233TIP3    H227633   3.888   7.563   3.365
 9234TIP3   OH227634   3.145   7.676   4.136
 9234TIP3    H127635   3.173   7.741   4.203
 9234TIP3    H227636   3.133   7.595   4.190
 9235TIP3   OH227637   2.738   7.198   3.718
 9235TIP3    H127638   2.812   7.231   3.773
 9235TIP3    H227639   2.782   7.168   3.637
 9236TIP3   OH227640   2.705   7.178   3.239
 9236TIP3    H127641   2.749   7.217   3.160
 9236TIP3    H227642   2.645   7.252   3.261
 9237TIP3   OH227643   3.862   7.894   3.830
 9237TIP3    H127644   3.898   7.822   3.772
 9237TIP3    H227645   3.836   7.841   3.908
 9238TIP3   OH227646   3.536   7.342   3.497
 9238TIP3    H127647   3.456   7.350   3.552
 9238TIP3    H227648   3.606   7.350   3.564
 9239TIP3   OH227649   2.971   7.414   3.511
 9239TIP3    H127650   2.876   7.421   3.485
 9239TIP3    H227651   2.994   7.322   3.490
 9240TIP3   OH227652   3.242   7.404   3.199
 9240TIP3    H127653   3.337   7.417   3.181
 9240TIP3    H227654   3.198   7.430   3.116
 9241TIP3   OH227655   4.027   7.431   3.702
 9241TIP3    H127656   3.998   7.444   3.795
 9241TIP3    H227657   3.958   7.372   3.670
 9242TIP3   OH227658   3.084   7.436   2.975
 9242TIP3    H127659   3.013   7.392   2.925
 9242TIP3    H227660   3.135   7.475   2.902
 9243TIP3   OH227661   3.158   8.229   4.343
 9243TIP3    H127662   3.238   8.256   4.394
 9243TIP3    H227663   3.094   8.219   4.417
 9244TIP3   OH227664   3.619   7.683   3.600
 9244TIP3    H127665   3.695   7.646   3.553
 9244TIP3    H227666   3.628   7.644   3.688
 9245TIP3   OH227667   3.140   7.172   3.479
 9245TIP3    H127668   3.107   7.092   3.526
 9245TIP3    H227669   3.167   7.137   3.393
 9246TIP3   OH227670   3.596   7.582   3.891
 9246TIP3    H127671   3.506   7.620   3.906
 9246TIP3    H227672   3.653   7.642   3.942
 9247TIP3   OH227673   3.335   7.957   2.992
 9247TIP3    H127674   3.256   7.900   2.979
 9247TIP3    H227675   3.311   8.002   3.077
 9248TIP3   OH227676   4.234   8.209   3.617
 9248TIP3    H127677   4.262   8.255   3.534
 9248TIP3    H227678   4.150   8.167   3.590
 9249TIP3   OH227679   3.790   7.281   2.854
 9249TIP3    H127680   3.694   7.288   2.846
 9249TIP3    H227681   3.817   7.375   2.867
 9250TIP3   OH227682   3.743   8.308   3.982
 9250TIP3    H127683   3.770   8.261   4.063
 9250TIP3    H227684   3.666   8.357   4.013
 9251TIP3   OH227685   3.862   7.528   2.947
 9251TIP3    H127686   3.958   7.538   2.968
 9251TIP3    H227687   3.841   7.610   2.900
 9252TIP3   OH227688   3.003   7.948   3.649
 9252TIP3    H127689   3.058   7.942   3.568
 9252TIP3    H227690   3.062   7.910   3.716
 9253TIP3   OH227691   3.443   8.142   2.824
 9253TIP3    H127692   3.403   8.213   2.879
 9253TIP3    H227693   3.408   8.064   2.873
 9254TIP3   OH227694   2.908   7.908   4.276
 9254TIP3    H127695   2.925   7.893   4.371
 9254TIP3    H227696   2.838   7.843   4.259
 9255TIP3   OH227697   3.636   8.017   4.301
 9255TIP3    H127698   3.575   7.968   4.243
 9255TIP3    H227699   3.723   7.986   4.269
 9256TIP3   OH227700   4.301   7.623   2.788
 9256TIP3    H127701   4.240   7.577   2.725
 9256TIP3    H227702   4.297   7.712   2.747
 9257TIP3   OH227703   4.519   8.465   3.874
 9257TIP3    H127704   4.423   8.478   3.864
 9257TIP3    H227705   4.544   8.447   3.780
 9258TIP3   OH227706   3.997   8.076   3.519
 9258TIP3    H127707   3.906   8.049   3.542
 9258TIP3    H227708   4.032   7.992   3.483
 9259TIP3   OH227709   2.689   7.602   2.988
 9259TIP3    H127710   2.737   7.685   3.009
 9259TIP3    H227711   2.613   7.608   3.049
 9260TIP3   OH227712   3.262   8.075   3.231
 9260TIP3    H127713   3.228   8.157   3.268
 9260TIP3    H227714   3.233   8.013   3.301
 9261TIP3   OH227715   3.788   8.272   3.712
 9261TIP3    H127716   3.776   8.285   3.809
 9261TIP3    H227717   3.876   8.233   3.709
 9262TIP3   OH227718   3.789   8.100   2.569
 9262TIP3    H127719   3.824   8.095   2.661
 9262TIP3    H227720   3.708   8.153   2.582
 9263TIP3   OH227721   3.117   7.419   4.282
 9263TIP3    H127722   3.021   7.424   4.296
 9263TIP3    H227723   3.145   7.361   4.355
 9264TIP3   OH227724   3.914   8.078   2.814
 9264TIP3    H127725   3.913   8.009   2.883
 9264TIP3    H227726   4.011   8.086   2.798
 9265TIP3   OH227727   3.108   8.102   2.642
 9265TIP3    H127728   3.145   8.015   2.617
 9265TIP3    H227729   3.139   8.114   2.732
 9266TIP3   OH227730   2.811   7.843   3.069
 9266TIP3    H127731   2.743   7.879   3.130
 9266TIP3    H227732   2.817   7.916   3.004
 9267TIP3   OH227733   3.957   7.480   3.961
 9267TIP3    H127734   4.033   7.525   4.001
 9267TIP3    H227735   3.944   7.402   4.019
 9268TIP3   OH227736   3.832   7.229   3.122
 9268TIP3    H127737   3.832   7.261   3.029
 9268TIP3    H227738   3.876   7.305   3.167
 9269TIP3   OH227739   3.524   7.406   3.220
 9269TIP3    H127740   3.586   7.482   3.211
 9269TIP3    H227741   3.524   7.393   3.317
 9270TIP3   OH227742   3.793   7.732   4.040
 9270TIP3    H127743   3.816   7.788   4.117
 9270TIP3    H227744   3.849   7.654   4.054
 9271TIP3   OH227745   3.657   7.140   3.302
 9271TIP3    H127746   3.637   7.198   3.377
 9271TIP3    H227747   3.737   7.186   3.267
 9272TIP3   OH227748   3.169   7.132   3.159
 9272TIP3    H127749   3.163   7.229   3.175
 9272TIP3    H227750   3.241   7.129   3.096
 9273TIP3   OH227751   4.428   7.631   4.021
 9273TIP3    H127752   4.329   7.627   4.023
 9273TIP3    H227753   4.446   7.600   3.932
 9274TIP3   OH227754   4.084   7.828   3.409
 9274TIP3    H127755   4.008   7.768   3.424
 9274TIP3    H227756   4.156   7.782   3.458
 9275TIP3   OH227757   2.800   8.058   2.885
 9275TIP3    H127758   2.828   8.151   2.875
 9275TIP3    H227759   2.855   8.013   2.818
 9276TIP3   OH227760   2.738   7.332   3.019
 9276TIP3    H127761   2.743   7.429   3.010
 9276TIP3    H227762   2.664   7.310   2.961
 9277TIP3   OH227763   3.129   7.051   3.883
 9277TIP3    H127764   3.097   7.018   3.797
 9277TIP3    H227765   3.118   6.973   3.941
 9278TIP3   OH227766   2.956   8.201   4.525
 9278TIP3    H127767   2.977   8.105   4.531
 9278TIP3    H227768   2.866   8.198   4.486
 9279TIP3   OH227769   2.929   7.862   2.735
 9279TIP3    H127770   2.978   7.825   2.810
 9279TIP3    H227771   3.000   7.865   2.668
 9280TIP3   OH227772   3.577   8.282   4.338
 9280TIP3    H127773   3.541   8.294   4.248
 9280TIP3    H227774   3.612   8.191   4.331
 9281TIP3   OH227775   3.384   8.040   2.546
 9281TIP3    H127776   3.417   8.062   2.635
 9281TIP3    H227777   3.413   7.948   2.535
 9282TIP3   OH227778   4.056   8.307   3.910
 9282TIP3    H127779   4.125   8.364   3.871
 9282TIP3    H227780   3.980   8.368   3.908
 9283TIP3   OH227781   3.077   7.948   4.521
 9283TIP3    H127782   3.154   7.896   4.498
 9283TIP3    H227783   3.103   7.982   4.610
 9284TIP3   OH227784   3.130   7.772   2.949
 9284TIP3    H127785   3.106   7.731   3.034
 9284TIP3    H227786   3.170   7.697   2.900
 9285TIP3   OH227787   3.408   7.835   4.177
 9285TIP3    H127788   3.332   7.897   4.182
 9285TIP3    H227789   3.458   7.871   4.101
 9286TIP3   OH227790   3.243   7.570   2.795
 9286TIP3    H127791   3.214   7.566   2.702
 9286TIP3    H227792   3.340   7.575   2.784
 9287TIP3   OH227793   3.930   8.231   4.311
 9287TIP3    H127794   4.017   8.219   4.271
 9287TIP3    H227795   3.932   8.167   4.384
 9288TIP3   OH227796   4.065   7.905   2.451
 9288TIP3    H127797   4.036   7.853   2.373
 9288TIP3    H227798   4.042   7.995   2.420
 9289TIP3   OH227799   3.532   7.627   4.307
 9289TIP3    H127800   3.533   7.547   4.250
 9289TIP3    H227801   3.489   7.693   4.249
 9290TIP3   OH227802   3.536   7.412   4.114
 9290TIP3    H127803   3.563   7.454   4.030
 9290TIP3    H227804   3.442   7.389   4.095
 9291TIP3   OH227805   3.559   7.950   3.986
 9291TIP3    H127806   3.643   7.959   3.939
 9291TIP3    H227807   3.503   8.019   3.943
 9292TIP3   OH227808   4.148   7.917   4.369
 9292TIP3    H127809   4.200   7.835   4.373
 9292TIP3    H227810   4.216   7.982   4.345
 9293TIP3   OH227811   4.184   8.162   4.098
 9293TIP3    H127812   4.128   8.218   4.040
 9293TIP3    H227813   4.272   8.183   4.061
 9294TIP3   OH227814   3.411   7.736   4.539
 9294TIP3    H127815   3.342   7.667   4.553
 9294TIP3    H227816   3.445   7.711   4.451
 9295TIP3   OH227817   3.667   7.175   4.182
 9295TIP3    H127818   3.619   7.258   4.159
 9295TIP3    H227819   3.597   7.108   4.171
 9296TIP3   OH227820   3.794   7.679   4.398
 9296TIP3    H127821   3.782   7.668   4.494
 9296TIP3    H227822   3.703   7.656   4.367
 9297TIP3   OH227823   4.030   7.626   4.249
 9297TIP3    H127824   3.955   7.630   4.312
 9297TIP3    H227825   4.104   7.599   4.307
 9298TIP3   OH227826   4.251   7.570   4.406
 9298TIP3    H127827   4.271   7.475   4.421
 9298TIP3    H227828   4.253   7.607   4.496
 9299TIP3   OH227829   3.249   7.516   4.591
 9299TIP3    H127830   3.256   7.425   4.557
 9299TIP3    H227831   3.286   7.504   4.682
 9300TIP3   OH227832   3.761   7.185   4.440
 9300TIP3    H127833   3.829   7.115   4.434
 9300TIP3    H227834   3.721   7.179   4.351
 9301TIP3   OH227835   3.826   7.399   4.600
 9301TIP3    H127836   3.804   7.329   4.535
 9301TIP3    H227837   3.749   7.459   4.592
 9302TIP3   OH227838   2.533   7.968   2.920
 9302TIP3    H127839   2.616   8.009   2.892
 9302TIP3    H227840   2.527   7.891   2.860
 9303TIP3   OH227841   4.400   8.595   4.141
 9303TIP3    H127842   4.332   8.573   4.209
 9303TIP3    H227843   4.452   8.661   4.186
 9304TIP3   OH227844   4.189   8.076   2.794
 9304TIP3    H127845   4.261   8.136   2.762
 9304TIP3    H227846   4.234   8.037   2.873
 9305TIP3   OH227847   4.324   7.948   2.992
 9305TIP3    H127848   4.262   7.907   3.057
 9305TIP3    H227849   4.395   7.985   3.050
 9306TIP3   OH227850   4.364   8.341   3.418
 9306TIP3    H127851   4.430   8.287   3.371
 9306TIP3    H227852   4.365   8.424   3.368
 9307TIP3   OH227853   4.261   7.858   2.638
 9307TIP3    H127854   4.190   7.866   2.570
 9307TIP3    H227855   4.236   7.934   2.695
 9308TIP3   OH227856   4.136   7.531   2.593
 9308TIP3    H127857   4.087   7.572   2.521
 9308TIP3    H227858   4.111   7.437   2.582
 9309TIP3   OH227859   4.138   7.807   3.142
 9309TIP3    H127860   4.150   7.710   3.137
 9309TIP3    H227861   4.125   7.822   3.238
 9310TIP3   OH227862   2.765   7.888   3.886
 9310TIP3    H127863   2.763   7.854   3.794
 9310TIP3    H227864   2.862   7.887   3.903
 9311TIP3   OH227865   4.423   8.228   3.988
 9311TIP3    H127866   4.498   8.165   3.984
 9311TIP3    H227867   4.458   8.304   3.937
 9312TIP3   OH227868   4.614   8.039   4.006
 9312TIP3    H127869   4.540   7.989   4.048
 9312TIP3    H227870   4.687   7.975   4.021
 9313TIP3   OH227871   4.078   7.266   2.576
 9313TIP3    H127872   4.154   7.235   2.631
 9313TIP3    H227873   4.006   7.204   2.599
 9314TIP3   OH227874   4.134   7.524   3.032
 9314TIP3    H127875   4.177   7.437   3.048
 9314TIP3    H227876   4.193   7.559   2.963
 9315TIP3   OH227877   4.296   7.697   3.528
 9315TIP3    H127878   4.382   7.722   3.488
 9315TIP3    H227879   4.309   7.734   3.617
 9316TIP3   OH227880   4.363   7.841   3.759
 9316TIP3    H127881   4.289   7.877   3.812
 9316TIP3    H227882   4.398   7.922   3.716
 9317TIP3   OH227883   2.982   7.567   4.559
 9317TIP3    H127884   3.080   7.561   4.563
 9317TIP3    H227885   2.959   7.482   4.601
 9318TIP3   OH227886   4.808   7.433   4.316
 9318TIP3    H127887   4.874   7.371   4.281
 9318TIP3    H227888   4.787   7.489   4.238
 9319TIP3   OH227889   4.244   7.276   3.072
 9319TIP3    H127890   4.295   7.260   3.155
 9319TIP3    H227891   4.188   7.196   3.070
 9320TIP3   OH227892   2.945   7.261   3.891
 9320TIP3    H127893   3.007   7.186   3.901
 9320TIP3    H227894   3.006   7.336   3.885
 9321TIP3   OH227895   2.745   7.534   3.964
 9321TIP3    H127896   2.796   7.530   3.880
 9321TIP3    H227897   2.775   7.618   4.001
 9322TIP3   OH227898   4.690   7.575   4.119
 9322TIP3    H127899   4.609   7.616   4.157
 9322TIP3    H227900   4.651   7.505   4.064
 9323TIP3   OH227901   4.322   7.210   2.703
 9323TIP3    H127902   4.366   7.137   2.653
 9323TIP3    H227903   4.390   7.280   2.701
 9324TIP3   OH227904   2.731   7.033   3.464
 9324TIP3    H127905   2.638   7.033   3.494
 9324TIP3    H227906   2.728   7.094   3.387
 9325TIP3   OH227907   2.950   7.117   4.279
 9325TIP3    H127908   2.900   7.112   4.362
 9325TIP3    H227909   2.883   7.156   4.220
 9326TIP3   OH227910   4.587   7.336   4.001
 9326TIP3    H127911   4.496   7.330   3.967
 9326TIP3    H227912   4.619   7.244   3.989
 9327TIP3   OH227913   3.790   7.248   3.614
 9327TIP3    H127914   3.751   7.180   3.671
 9327TIP3    H227915   3.869   7.203   3.578
 9328TIP3   OH227916   4.312   7.124   3.519
 9328TIP3    H127917   4.352   7.180   3.449
 9328TIP3    H227918   4.220   7.156   3.521
 9329TIP3   OH227919   4.410   7.231   3.288
 9329TIP3    H127920   4.484   7.179   3.250
 9329TIP3    H227921   4.445   7.322   3.274
 9330TIP3   OH227922   3.041   6.957   3.635
 9330TIP3    H127923   2.949   6.924   3.637
 9330TIP3    H227924   3.090   6.872   3.633
 9331TIP3   OH227925   2.828   6.830   3.283
 9331TIP3    H127926   2.858   6.887   3.210
 9331TIP3    H227927   2.800   6.895   3.350
 9332TIP3   OH227928   3.491   6.983   3.512
 9332TIP3    H127929   3.542   7.040   3.453
 9332TIP3    H227930   3.502   7.027   3.598
 9333TIP3   OH227931   4.024   7.137   3.502
 9333TIP3    H127932   4.039   7.098   3.415
 9333TIP3    H227933   4.013   7.056   3.557
 9334TIP3   OH227934   4.063   7.062   3.065
 9334TIP3    H127935   3.978   7.107   3.077
 9334TIP3    H227936   4.045   6.976   3.109
 9335TIP3   OH227937   2.944   6.985   3.050
 9335TIP3    H127938   2.992   6.926   2.989
 9335TIP3    H227939   3.015   7.039   3.088
 9336TIP3   OH227940   3.248   7.239   4.527
 9336TIP3    H127941   3.214   7.169   4.585
 9336TIP3    H227942   3.343   7.240   4.554
 9337TIP3   OH227943   3.497   7.238   4.646
 9337TIP3    H127944   3.582   7.213   4.607
 9337TIP3    H227945   3.485   7.167   4.713
 9338TIP3   OH227946   4.323   7.301   4.434
 9338TIP3    H127947   4.344   7.270   4.524
 9338TIP3    H227948   4.412   7.298   4.391
 9339TIP3   OH227949   5.532   8.209   2.699
 9339TIP3    H127950   5.497   8.296   2.671
 9339TIP3    H227951   5.458   8.153   2.669
 9340TIP3   OH227952   5.533   8.221   3.073
 9340TIP3    H127953   5.562   8.196   3.162
 9340TIP3    H227954   5.487   8.141   3.044
 9341TIP3   OH227955   4.825   8.118   3.438
 9341TIP3    H127956   4.857   8.051   3.501
 9341TIP3    H227957   4.896   8.184   3.444
 9342TIP3   OH227958   5.749   8.523   2.761
 9342TIP3    H127959   5.746   8.452   2.827
 9342TIP3    H227960   5.795   8.593   2.811
 9343TIP3   OH227961   4.851   8.467   3.236
 9343TIP3    H127962   4.822   8.381   3.201
 9343TIP3    H227963   4.938   8.479   3.190
 9344TIP3   OH227964   4.506   7.728   2.946
 9344TIP3    H127965   4.463   7.814   2.964
 9344TIP3    H227966   4.432   7.679   2.906
 9345TIP3   OH227967   4.561   8.018   3.118
 9345TIP3    H127968   4.611   7.941   3.155
 9345TIP3    H227969   4.633   8.073   3.085
 9346TIP3   OH227970   5.342   8.440   3.113
 9346TIP3    H127971   5.389   8.363   3.077
 9346TIP3    H227972   5.420   8.493   3.142
 9347TIP3   OH227973   6.342   7.770   3.120
 9347TIP3    H127974   6.369   7.855   3.161
 9347TIP3    H227975   6.356   7.790   3.026
 9348TIP3   OH227976   5.742   7.951   3.152
 9348TIP3    H127977   5.781   7.864   3.173
 9348TIP3    H227978   5.707   7.935   3.063
 9349TIP3   OH227979   5.078   7.610   3.118
 9349TIP3    H127980   5.056   7.683   3.056
 9349TIP3    H227981   5.028   7.537   3.076
 9350TIP3   OH227982   5.771   7.702   2.740
 9350TIP3    H127983   5.843   7.686   2.806
 9350TIP3    H227984   5.823   7.736   2.666
 9351TIP3   OH227985   4.709   7.813   3.227
 9351TIP3    H127986   4.792   7.794   3.275
 9351TIP3    H227987   4.723   7.758   3.147
 9352TIP3   OH227988   5.151   8.010   3.017
 9352TIP3    H127989   5.244   7.984   3.033
 9352TIP3    H227990   5.111   7.926   2.988
 9353TIP3   OH227991   6.415   7.982   3.287
 9353TIP3    H127992   6.330   8.026   3.266
 9353TIP3    H227993   6.416   7.992   3.383
 9354TIP3   OH227994   5.073   7.593   3.553
 9354TIP3    H127995   5.013   7.631   3.487
 9354TIP3    H227996   5.021   7.609   3.635
 9355TIP3   OH227997   5.417   8.410   2.556
 9355TIP3    H127998   5.361   8.407   2.478
 9355TIP3    H227999   5.429   8.505   2.571
 9356TIP3   OH228000   5.175   8.374   3.348
 9356TIP3    H128001   5.108   8.436   3.383
 9356TIP3    H228002   5.207   8.424   3.270
 9357TIP3   OH228003   5.980   7.705   2.915
 9357TIP3    H128004   5.964   7.657   2.997
 9357TIP3    H228005   6.031   7.782   2.945
 9358TIP3   OH228006   4.944   7.709   3.337
 9358TIP3    H128007   5.005   7.783   3.360
 9358TIP3    H228008   4.994   7.668   3.263
 9359TIP3   OH228009   5.007   8.582   3.455
 9359TIP3    H128010   4.962   8.591   3.369
 9359TIP3    H228011   4.928   8.579   3.514
 9360TIP3   OH228012   4.403   8.219   2.694
 9360TIP3    H128013   4.369   8.247   2.606
 9360TIP3    H228014   4.421   8.306   2.732
 9361TIP3   OH228015   6.133   7.674   3.288
 9361TIP3    H128016   6.044   7.697   3.257
 9361TIP3    H228017   6.190   7.702   3.213
 9362TIP3   OH228018   5.428   7.312   3.268
 9362TIP3    H128019   5.414   7.217   3.287
 9362TIP3    H228020   5.350   7.350   3.315
 9363TIP3   OH228021   5.774   8.539   2.482
 9363TIP3    H128022   5.733   8.461   2.441
 9363TIP3    H228023   5.781   8.514   2.577
 9364TIP3   OH228024   6.062   8.680   3.269
 9364TIP3    H128025   6.050   8.601   3.213
 9364TIP3    H228026   6.082   8.750   3.203
 9365TIP3   OH228027   5.360   8.069   2.528
 9365TIP3    H128028   5.278   8.121   2.511
 9365TIP3    H228029   5.403   8.070   2.441
 9366TIP3   OH228030   5.317   7.861   2.239
 9366TIP3    H128031   5.385   7.910   2.289
 9366TIP3    H228032   5.373   7.797   2.191
 9367TIP3   OH228033   6.262   8.318   3.110
 9367TIP3    H128034   6.178   8.368   3.118
 9367TIP3    H228035   6.289   8.345   3.019
 9368TIP3   OH228036   5.708   8.151   2.500
 9368TIP3    H128037   5.651   8.173   2.578
 9368TIP3    H228038   5.791   8.125   2.545
 9369TIP3   OH228039   5.941   8.197   3.407
 9369TIP3    H128040   5.939   8.281   3.456
 9369TIP3    H228041   5.854   8.199   3.363
 9370TIP3   OH228042   4.945   8.154   2.903
 9370TIP3    H128043   4.903   8.094   2.838
 9370TIP3    H228044   5.021   8.101   2.935
 9371TIP3   OH228045   5.076   8.518   3.104
 9371TIP3    H128046   5.039   8.520   3.014
 9371TIP3    H228047   5.173   8.520   3.087
 9372TIP3   OH228048   5.075   8.130   3.262
 9372TIP3    H128049   5.110   8.110   3.173
 9372TIP3    H228050   5.116   8.216   3.284
 9373TIP3   OH228051   5.253   8.591   3.586
 9373TIP3    H128052   5.216   8.678   3.611
 9373TIP3    H228053   5.177   8.558   3.534
 9374TIP3   OH228054   5.545   8.014   2.323
 9374TIP3    H128055   5.604   8.074   2.374
 9374TIP3    H228056   5.573   8.033   2.231
 9375TIP3   OH228057   4.967   8.239   3.686
 9375TIP3    H128058   4.976   8.324   3.734
 9375TIP3    H228059   4.873   8.218   3.705
 9376TIP3   OH228060   6.063   7.257   2.372
 9376TIP3    H128061   5.981   7.276   2.421
 9376TIP3    H228062   6.074   7.339   2.320
 9377TIP3   OH228063   4.809   7.996   2.711
 9377TIP3    H128064   4.741   8.040   2.656
 9377TIP3    H228065   4.764   7.914   2.735
 9378TIP3   OH228066   4.592   8.382   3.626
 9378TIP3    H128067   4.532   8.357   3.554
 9378TIP3    H228068   4.630   8.297   3.654
 9379TIP3   OH228069   6.199   8.160   3.584
 9379TIP3    H128070   6.113   8.175   3.540
 9379TIP3    H228071   6.210   8.064   3.573
 9380TIP3   OH228072   4.795   8.573   3.630
 9380TIP3    H128073   4.848   8.534   3.703
 9380TIP3    H228074   4.720   8.511   3.622
 9381TIP3   OH228075   5.189   7.389   3.397
 9381TIP3    H128076   5.100   7.358   3.371
 9381TIP3    H228077   5.164   7.470   3.446
 9382TIP3   OH228078   5.722   7.504   3.592
 9382TIP3    H128079   5.790   7.476   3.657
 9382TIP3    H228080   5.638   7.484   3.638
 9383TIP3   OH228081   5.968   7.937   3.516
 9383TIP3    H128082   5.914   7.931   3.598
 9383TIP3    H228083   5.938   8.021   3.477
 9384TIP3   OH228084   5.625   8.047   2.067
 9384TIP3    H128085   5.593   8.025   1.978
 9384TIP3    H228086   5.680   8.125   2.049
 9385TIP3   OH228087   5.334   7.438   2.367
 9385TIP3    H128088   5.302   7.435   2.459
 9385TIP3    H228089   5.297   7.354   2.334
 9386TIP3   OH228090   5.121   7.906   3.414
 9386TIP3    H128091   5.072   7.926   3.496
 9386TIP3    H228092   5.104   7.988   3.362
 9387TIP3   OH228093   5.005   7.791   2.929
 9387TIP3    H128094   4.913   7.765   2.948
 9387TIP3    H228095   5.017   7.749   2.840
 9388TIP3   OH228096   5.498   7.874   2.659
 9388TIP3    H128097   5.444   7.943   2.616
 9388TIP3    H228098   5.552   7.841   2.585
 9389TIP3   OH228099   5.672   8.150   3.740
 9389TIP3    H128100   5.647   8.080   3.804
 9389TIP3    H228101   5.765   8.166   3.766
 9390TIP3   OH228102   5.655   7.904   2.895
 9390TIP3    H128103   5.592   7.933   2.826
 9390TIP3    H228104   5.688   7.823   2.852
 9391TIP3   OH228105   4.941   7.932   3.624
 9391TIP3    H128106   4.963   7.997   3.693
 9391TIP3    H228107   4.930   7.850   3.676
 9392TIP3   OH228108   4.989   7.411   2.333
 9392TIP3    H128109   4.982   7.408   2.431
 9392TIP3    H228110   4.911   7.465   2.311
 9393TIP3   OH228111   4.534   7.454   3.204
 9393TIP3    H128112   4.607   7.488   3.260
 9393TIP3    H228113   4.580   7.424   3.124
 9394TIP3   OH228114   4.502   7.435   2.722
 9394TIP3    H128115   4.549   7.474   2.645
 9394TIP3    H228116   4.444   7.510   2.745
 9395TIP3   OH228117   5.668   8.151   3.317
 9395TIP3    H128118   5.699   8.078   3.259
 9395TIP3    H228119   5.635   8.099   3.394
 9396TIP3   OH228120   5.335   7.613   2.991
 9396TIP3    H128121   5.252   7.611   3.043
 9396TIP3    H228122   5.403   7.608   3.060
 9397TIP3   OH228123   4.768   7.670   2.998
 9397TIP3    H128124   4.673   7.676   2.971
 9397TIP3    H228125   4.791   7.578   2.975
 9398TIP3   OH228126   5.035   7.663   2.688
 9398TIP3    H128127   5.129   7.679   2.667
 9398TIP3    H228128   4.988   7.687   2.604
 9399TIP3   OH228129   5.826   7.687   3.191
 9399TIP3    H128130   5.794   7.699   3.284
 9399TIP3    H228131   5.759   7.626   3.157
 9400TIP3   OH228132   4.878   7.697   2.465
 9400TIP3    H128133   4.807   7.654   2.415
 9400TIP3    H228134   4.931   7.734   2.391
 9401TIP3   OH228135   4.959   8.481   3.833
 9401TIP3    H128136   5.035   8.514   3.884
 9401TIP3    H228137   4.892   8.473   3.904
 9402TIP3   OH228138   5.415   7.943   3.090
 9402TIP3    H128139   5.486   7.898   3.042
 9402TIP3    H228140   5.419   7.900   3.178
 9403TIP3   OH228141   4.936   7.427   2.969
 9403TIP3    H128142   4.902   7.349   3.017
 9403TIP3    H228143   4.988   7.387   2.898
 9404TIP3   OH228144   5.391   7.842   3.374
 9404TIP3    H128145   5.301   7.875   3.391
 9404TIP3    H228146   5.447   7.901   3.427
 9405TIP3   OH228147   5.131   8.215   2.480
 9405TIP3    H128148   5.052   8.157   2.467
 9405TIP3    H228149   5.107   8.260   2.565
 9406TIP3   OH228150   6.029   8.458   3.105
 9406TIP3    H128151   6.055   8.508   3.025
 9406TIP3    H228152   5.942   8.420   3.079
 9407TIP3   OH228153   5.586   7.539   2.337
 9407TIP3    H128154   5.490   7.521   2.345
 9407TIP3    H228155   5.594   7.634   2.361
 9408TIP3   OH228156   5.540   8.569   3.470
 9408TIP3    H128157   5.565   8.516   3.547
 9408TIP3    H228158   5.455   8.605   3.499
 9409TIP3   OH228159   5.655   7.787   2.440
 9409TIP3    H128160   5.752   7.794   2.454
 9409TIP3    H228161   5.636   7.867   2.387
 9410TIP3   OH228162   4.798   8.204   3.135
 9410TIP3    H128163   4.855   8.196   3.056
 9410TIP3    H228164   4.854   8.165   3.205
 9411TIP3   OH228165   5.238   8.397   2.309
 9411TIP3    H128166   5.201   8.469   2.365
 9411TIP3    H228167   5.203   8.320   2.358
 9412TIP3   OH228168   4.706   8.168   3.761
 9412TIP3    H128169   4.727   8.158   3.856
 9412TIP3    H228170   4.635   8.102   3.750
 9413TIP3   OH228171   5.430   8.278   3.786
 9413TIP3    H128172   5.366   8.224   3.737
 9413TIP3    H228173   5.515   8.243   3.752
 9414TIP3   OH228174   6.100   7.879   2.271
 9414TIP3    H128175   6.038   7.832   2.210
 9414TIP3    H228176   6.092   7.968   2.232
 9415TIP3   OH228177   6.319   8.718   3.358
 9415TIP3    H128178   6.222   8.729   3.345
 9415TIP3    H228179   6.346   8.704   3.264
 9416TIP3   OH228180   5.793   8.331   3.008
 9416TIP3    H128181   5.702   8.304   3.030
 9416TIP3    H228182   5.828   8.247   2.971
 9417TIP3   OH228183   4.485   7.858   2.476
 9417TIP3    H128184   4.533   7.941   2.496
 9417TIP3    H228185   4.408   7.865   2.537
 9418TIP3   OH228186   5.058   8.335   2.720
 9418TIP3    H128187   5.014   8.413   2.757
 9418TIP3    H228188   5.031   8.270   2.789
 9419TIP3   OH228189   5.585   8.532   3.198
 9419TIP3    H128190   5.572   8.544   3.295
 9419TIP3    H228191   5.668   8.483   3.195
 9420TIP3   OH228192   5.585   8.358   2.057
 9420TIP3    H128193   5.619   8.352   2.148
 9420TIP3    H228194   5.504   8.410   2.069
 9421TIP3   OH228195   4.915   7.674   3.768
 9421TIP3    H128196   4.820   7.680   3.788
 9421TIP3    H228197   4.946   7.621   3.844
 9422TIP3   OH228198   5.711   8.336   2.301
 9422TIP3    H128199   5.707   8.266   2.369
 9422TIP3    H228200   5.808   8.341   2.284
 9423TIP3   OH228201   4.904   8.358   2.127
 9423TIP3    H128202   4.943   8.271   2.105
 9423TIP3    H228203   4.932   8.371   2.218
 9424TIP3   OH228204   4.606   8.099   2.555
 9424TIP3    H128205   4.539   8.135   2.617
 9424TIP3    H228206   4.613   8.173   2.491
 9425TIP3   OH228207   5.755   7.738   3.451
 9425TIP3    H128208   5.831   7.776   3.497
 9425TIP3    H228209   5.736   7.658   3.504
 9426TIP3   OH228210   5.630   7.491   2.618
 9426TIP3    H128211   5.617   7.513   2.523
 9426TIP3    H228212   5.670   7.573   2.653
 9427TIP3   OH228213   5.318   7.672   2.719
 9427TIP3    H128214   5.384   7.743   2.703
 9427TIP3    H228215   5.323   7.664   2.817
 9428TIP3   OH228216   5.590   7.990   3.524
 9428TIP3    H128217   5.609   8.044   3.603
 9428TIP3    H228218   5.641   7.910   3.541
 9429TIP3   OH228219   5.463   7.397   2.821
 9429TIP3    H128220   5.455   7.474   2.880
 9429TIP3    H228221   5.524   7.431   2.753
 9430TIP3   OH228222   4.975   7.396   2.610
 9430TIP3    H128223   4.973   7.486   2.648
 9430TIP3    H228224   5.071   7.378   2.618
 9431TIP3   OH228225   6.232   7.888   3.499
 9431TIP3    H128226   6.135   7.893   3.516
 9431TIP3    H228227   6.230   7.836   3.418
 9432TIP3   OH228228   5.880   8.083   2.895
 9432TIP3    H128229   5.803   8.026   2.907
 9432TIP3    H228230   5.950   8.035   2.945
 9433TIP3   OH228231   4.595   8.314   2.371
 9433TIP3    H128232   4.623   8.407   2.364
 9433TIP3    H228233   4.651   8.271   2.304
 9434TIP3   OH228234   4.537   7.588   2.497
 9434TIP3    H128235   4.539   7.686   2.495
 9434TIP3    H228236   4.451   7.569   2.460
 9435TIP3   OH228237   4.925   7.308   3.371
 9435TIP3    H128238   4.894   7.274   3.284
 9435TIP3    H228239   4.915   7.230   3.429
 9436TIP3   OH228240   4.754   8.462   4.012
 9436TIP3    H128241   4.772   8.367   4.027
 9436TIP3    H228242   4.663   8.460   3.975
 9437TIP3   OH228243   4.725   8.118   2.221
 9437TIP3    H128244   4.774   8.083   2.297
 9437TIP3    H228245   4.797   8.121   2.155
 9438TIP3   OH228246   5.375   8.546   3.823
 9438TIP3    H128247   5.338   8.556   3.732
 9438TIP3    H228248   5.409   8.454   3.817
 9439TIP3   OH228249   5.183   8.298   2.033
 9439TIP3    H128250   5.212   8.318   2.123
 9439TIP3    H228251   5.212   8.205   2.022
 9440TIP3   OH228252   5.849   8.558   3.402
 9440TIP3    H128253   5.914   8.619   3.361
 9440TIP3    H228254   5.769   8.612   3.403
 9441TIP3   OH228255   4.875   8.205   4.009
 9441TIP3    H128256   4.940   8.134   4.006
 9441TIP3    H228257   4.890   8.238   4.100
 9442TIP3   OH228258   4.927   8.029   2.435
 9442TIP3    H128259   4.903   7.989   2.521
 9442TIP3    H228260   4.967   7.953   2.388
 9443TIP3   OH228261   5.207   8.095   3.667
 9443TIP3    H128262   5.128   8.153   3.671
 9443TIP3    H228263   5.254   8.131   3.588
 9444TIP3   OH228264   5.038   7.823   2.281
 9444TIP3    H128265   5.012   7.823   2.187
 9444TIP3    H228266   5.136   7.830   2.273
 9445TIP3   OH228267   5.725   8.486   3.800
 9445TIP3    H128268   5.808   8.465   3.756
 9445TIP3    H228269   5.723   8.422   3.874
 9446TIP3   OH228270   5.864   8.164   1.936
 9446TIP3    H128271   5.835   8.110   1.860
 9446TIP3    H228272   5.839   8.253   1.904
 9447TIP3   OH228273   5.333   7.883   3.789
 9447TIP3    H128274   5.328   7.803   3.733
 9447TIP3    H228275   5.286   7.950   3.734
 9448TIP3   OH228276   5.332   7.668   3.598
 9448TIP3    H128277   5.357   7.709   3.513
 9448TIP3    H228278   5.238   7.645   3.582
 9449TIP3   OH228279   5.355   8.209   3.472
 9449TIP3    H128280   5.436   8.216   3.420
 9449TIP3    H228281   5.297   8.276   3.430
 9450TIP3   OH228282   5.939   8.172   3.854
 9450TIP3    H128283   5.989   8.089   3.864
 9450TIP3    H228284   6.007   8.233   3.823
 9451TIP3   OH228285   5.982   8.421   3.591
 9451TIP3    H128286   5.924   8.474   3.532
 9451TIP3    H228287   6.070   8.442   3.551
 9452TIP3   OH228288   5.216   7.991   4.023
 9452TIP3    H128289   5.138   7.934   4.041
 9452TIP3    H228290   5.243   7.960   3.935
 9453TIP3   OH228291   5.463   7.432   3.668
 9453TIP3    H128292   5.414   7.514   3.646
 9453TIP3    H228293   5.393   7.364   3.658
 9454TIP3   OH228294   5.589   7.936   3.885
 9454TIP3    H128295   5.572   7.923   3.980
 9454TIP3    H228296   5.500   7.912   3.851
 9455TIP3   OH228297   5.827   7.882   3.739
 9455TIP3    H128298   5.750   7.886   3.799
 9455TIP3    H228299   5.899   7.852   3.799
 9456TIP3   OH228300   6.068   7.829   3.890
 9456TIP3    H128301   6.074   7.733   3.907
 9456TIP3    H228302   6.056   7.867   3.980
 9457TIP3   OH228303   5.042   7.775   4.064
 9457TIP3    H128304   5.050   7.682   4.038
 9457TIP3    H228305   5.085   7.771   4.153
 9458TIP3   OH228306   5.561   7.443   3.925
 9458TIP3    H128307   5.625   7.370   3.919
 9458TIP3    H228308   5.518   7.437   3.838
 9459TIP3   OH228309   5.625   7.658   4.083
 9459TIP3    H128310   5.601   7.587   4.020
 9459TIP3    H228311   5.546   7.717   4.080
 9460TIP3   OH228312   4.326   8.228   2.398
 9460TIP3    H128313   4.413   8.266   2.376
 9460TIP3    H228314   4.324   8.147   2.343
 9461TIP3   OH228315   6.205   8.845   3.634
 9461TIP3    H128316   6.131   8.828   3.697
 9461TIP3    H228317   6.246   8.924   3.674
 9462TIP3   OH228318   5.987   8.332   2.283
 9462TIP3    H128319   6.057   8.394   2.253
 9462TIP3    H228320   6.032   8.293   2.361
 9463TIP3   OH228321   6.123   8.205   2.483
 9463TIP3    H128322   6.057   8.162   2.542
 9463TIP3    H228323   6.185   8.247   2.547
 9464TIP3   OH228324   6.159   8.593   2.911
 9464TIP3    H128325   6.224   8.540   2.861
 9464TIP3    H228326   6.157   8.678   2.863
 9465TIP3   OH228327   6.055   8.115   2.126
 9465TIP3    H128328   5.984   8.122   2.058
 9465TIP3    H228329   6.029   8.191   2.182
 9466TIP3   OH228330   5.935   7.789   2.077
 9466TIP3    H128331   5.882   7.826   2.006
 9466TIP3    H228332   5.910   7.694   2.071
 9467TIP3   OH228333   5.937   8.063   2.627
 9467TIP3    H128334   5.942   7.966   2.620
 9467TIP3    H228335   5.922   8.076   2.724
 9468TIP3   OH228336   4.561   8.144   3.373
 9468TIP3    H128337   4.559   8.111   3.281
 9468TIP3    H228338   4.658   8.143   3.390
 9469TIP3   OH228339   6.223   8.486   3.484
 9469TIP3    H128340   6.299   8.425   3.474
 9469TIP3    H228341   6.249   8.561   3.427
 9470TIP3   OH228342   6.417   8.296   3.498
 9470TIP3    H128343   6.338   8.250   3.536
 9470TIP3    H228344   6.485   8.227   3.515
 9471TIP3   OH228345   5.872   7.525   2.069
 9471TIP3    H128346   5.946   7.489   2.122
 9471TIP3    H228347   5.798   7.464   2.088
 9472TIP3   OH228348   5.932   7.782   2.520
 9472TIP3    H128349   5.972   7.693   2.537
 9472TIP3    H228350   5.990   7.813   2.449
 9473TIP3   OH228351   6.093   7.952   3.016
 9473TIP3    H128352   6.180   7.979   2.977
 9473TIP3    H228353   6.105   7.990   3.106
 9474TIP3   OH228354   6.162   8.098   3.247
 9474TIP3    H128355   6.085   8.130   3.298
 9474TIP3    H228356   6.192   8.180   3.203
 9475TIP3   OH228357   4.775   7.822   4.033
 9475TIP3    H128358   4.873   7.823   4.044
 9475TIP3    H228359   4.754   7.738   4.080
 9476TIP3   OH228360   6.621   7.695   3.804
 9476TIP3    H128361   6.675   7.627   3.759
 9476TIP3    H228362   6.587   7.747   3.727
 9477TIP3   OH228363   6.040   7.532   2.559
 9477TIP3    H128364   6.087   7.514   2.643
 9477TIP3    H228365   5.979   7.455   2.555
 9478TIP3   OH228366   4.740   7.517   3.377
 9478TIP3    H128367   4.803   7.443   3.388
 9478TIP3    H228368   4.802   7.592   3.371
 9479TIP3   OH228369   4.540   7.790   3.450
 9479TIP3    H128370   4.593   7.788   3.367
 9479TIP3    H228371   4.569   7.873   3.489
 9480TIP3   OH228372   6.485   7.828   3.610
 9480TIP3    H128373   6.399   7.870   3.634
 9480TIP3    H228374   6.452   7.757   3.551
 9481TIP3   OH228375   6.122   7.463   2.191
 9481TIP3    H128376   6.157   7.390   2.136
 9481TIP3    H228377   6.189   7.533   2.180
 9482TIP3   OH228378   4.527   7.290   2.949
 9482TIP3    H128379   4.434   7.291   2.980
 9482TIP3    H228380   4.523   7.351   2.872
 9483TIP3   OH228381   4.745   7.369   3.764
 9483TIP3    H128382   4.699   7.370   3.849
 9483TIP3    H228383   4.679   7.411   3.706
 9484TIP3   OH228384   6.384   7.591   3.487
 9484TIP3    H128385   6.292   7.583   3.455
 9484TIP3    H228386   6.415   7.498   3.476
 9485TIP3   OH228387   5.589   7.507   3.108
 9485TIP3    H128388   5.545   7.437   3.160
 9485TIP3    H228389   5.660   7.458   3.063
 9486TIP3   OH228390   6.111   7.393   3.014
 9486TIP3    H128391   6.146   7.442   2.936
 9486TIP3    H228392   6.015   7.406   3.005
 9487TIP3   OH228393   6.206   7.489   2.776
 9487TIP3    H128394   6.279   7.437   2.736
 9487TIP3    H228395   6.239   7.581   2.761
 9488TIP3   OH228396   4.836   7.215   3.122
 9488TIP3    H128397   4.745   7.181   3.125
 9488TIP3    H228398   4.887   7.130   3.120
 9489TIP3   OH228399   4.619   7.086   2.771
 9489TIP3    H128400   4.653   7.143   2.700
 9489TIP3    H228401   4.594   7.151   2.839
 9490TIP3   OH228402   5.280   7.250   3.004
 9490TIP3    H128403   5.340   7.297   2.944
 9490TIP3    H228404   5.305   7.285   3.090
 9491TIP3   OH228405   5.829   7.395   2.986
 9491TIP3    H128406   5.827   7.354   2.898
 9491TIP3    H228407   5.817   7.316   3.044
 9492TIP3   OH228408   5.858   7.319   2.551
 9492TIP3    H128409   5.770   7.360   2.563
 9492TIP3    H228410   5.844   7.233   2.596
 9493TIP3   OH228411   4.742   7.247   2.532
 9493TIP3    H128412   4.790   7.182   2.477
 9493TIP3    H228413   4.815   7.300   2.569
 9494TIP3   OH228414   5.252   7.421   2.632
 9494TIP3    H128415   5.311   7.374   2.693
 9494TIP3    H228416   5.274   7.514   2.658
 9495TIP3   OH228417   5.045   7.494   4.009
 9495TIP3    H128418   5.010   7.427   4.070
 9495TIP3    H228419   5.139   7.496   4.039
 9496TIP3   OH228420   5.291   7.485   4.132
 9496TIP3    H128421   5.378   7.457   4.098
 9496TIP3    H228422   5.278   7.421   4.205
 9497TIP3   OH228423   6.119   7.556   3.921
 9497TIP3    H128424   6.137   7.526   4.012
 9497TIP3    H228425   6.207   7.549   3.879
 9498TIP3   OH228426   6.616   8.367   2.916
 9498TIP3    H128427   6.672   8.332   2.987
 9498TIP3    H228428   6.683   8.407   2.856
 9499TIP3   OH228429   6.300   7.993   2.432
 9499TIP3    H128430   6.246   8.072   2.449
 9499TIP3    H228431   6.231   7.935   2.393
 9500TIP3   OH228432   6.363   8.280   2.610
 9500TIP3    H128433   6.411   8.201   2.647
 9500TIP3    H228434   6.420   8.303   2.536
 9501TIP3   OH228435   6.836   7.866   2.612
 9501TIP3    H128436   6.809   7.930   2.544
 9501TIP3    H228437   6.798   7.784   2.571
 9502TIP3   OH228438   6.503   8.069   2.715
 9502TIP3    H128439   6.584   8.049   2.765
 9502TIP3    H228440   6.513   8.007   2.640
 9503TIP3   OH228441   6.859   7.843   3.049
 9503TIP3    H128442   6.801   7.883   2.980
 9503TIP3    H228443   6.804   7.860   3.128
 9504TIP3   OH228444   6.735   7.971   2.839
 9504TIP3    H128445   6.801   8.041   2.855
 9504TIP3    H228446   6.774   7.928   2.759
 9505TIP3   OH228447   6.203   8.478   2.194
 9505TIP3    H128448   6.176   8.510   2.107
 9505TIP3    H228449   6.239   8.560   2.229
 9506TIP3   OH228450   7.213   7.565   2.760
 9506TIP3    H128451   7.206   7.470   2.783
 9506TIP3    H228452   7.135   7.601   2.806
 9507TIP3   OH228453   6.728   8.505   3.173
 9507TIP3    H128454   6.716   8.587   3.222
 9507TIP3    H228455   6.639   8.467   3.185
 9508TIP3   OH228456   6.596   8.228   2.167
 9508TIP3    H128457   6.576   8.321   2.181
 9508TIP3    H228458   6.525   8.183   2.213
 9509TIP3   OH228459   6.392   8.632   3.112
 9509TIP3    H128460   6.321   8.622   3.047
 9509TIP3    H228461   6.419   8.541   3.132
 9510TIP3   OH228462   6.979   7.650   2.883
 9510TIP3    H128463   6.891   7.615   2.856
 9510TIP3    H228464   6.948   7.725   2.938
 9511TIP3   OH228465   7.495   7.719   3.106
 9511TIP3    H128466   7.524   7.757   3.189
 9511TIP3    H228467   7.398   7.712   3.121
 9512TIP3   OH228468   6.932   8.157   2.918
 9512TIP3    H128469   6.868   8.186   2.986
 9512TIP3    H228470   6.923   8.227   2.850
 9513TIP3   OH228471   6.777   8.031   2.393
 9513TIP3    H128472   6.690   8.002   2.427
 9513TIP3    H228473   6.750   8.074   2.311
 9514TIP3   OH228474   6.758   8.197   3.125
 9514TIP3    H128475   6.725   8.261   3.190
 9514TIP3    H228476   6.730   8.112   3.166
 9515TIP3   OH228477   6.777   7.639   1.821
 9515TIP3    H128478   6.767   7.635   1.918
 9515TIP3    H228479   6.695   7.682   1.794
 9516TIP3   OH228480   6.327   7.716   2.690
 9516TIP3    H128481   6.406   7.740   2.742
 9516TIP3    H228482   6.362   7.675   2.610
 9517TIP3   OH228483   6.304   7.694   2.209
 9517TIP3    H128484   6.348   7.730   2.130
 9517TIP3    H228485   6.241   7.766   2.229
 9518TIP3   OH228486   7.093   7.815   2.541
 9518TIP3    H128487   7.002   7.816   2.576
 9518TIP3    H228488   7.136   7.876   2.602
 9519TIP3   OH228489   6.553   7.916   2.490
 9519TIP3    H128490   6.459   7.932   2.465
 9519TIP3    H228491   6.565   7.822   2.466
 9520TIP3   OH228492   6.635   7.931   1.987
 9520TIP3    H128493   6.561   7.889   1.940
 9520TIP3    H228494   6.634   8.020   1.951
 9521TIP3   OH228495   6.737   7.673   2.452
 9521TIP3    H128496   6.696   7.598   2.502
 9521TIP3    H228497   6.779   7.626   2.379
 9522TIP3   OH228498   6.489   8.402   3.250
 9522TIP3    H128499   6.488   8.386   3.347
 9522TIP3    H228500   6.409   8.353   3.223
 9523TIP3   OH228501   6.276   8.110   1.968
 9523TIP3    H128502   6.306   8.200   1.979
 9523TIP3    H228503   6.195   8.111   2.024
 9524TIP3   OH228504   6.705   7.932   3.258
 9524TIP3    H128505   6.608   7.939   3.269
 9524TIP3    H228506   6.728   7.872   3.330
 9525TIP3   OH228507   6.759   7.647   2.098
 9525TIP3    H128508   6.743   7.742   2.111
 9525TIP3    H228509   6.857   7.644   2.096
 9526TIP3   OH228510   6.332   7.842   1.975
 9526TIP3    H128511   6.319   7.939   1.980
 9526TIP3    H228512   6.246   7.811   1.945
 9527TIP3   OH228513   6.722   7.563   2.856
 9527TIP3    H128514   6.688   7.529   2.771
 9527TIP3    H228515   6.710   7.485   2.915
 9528TIP3   OH228516   6.562   8.718   3.481
 9528TIP3    H128517   6.590   8.624   3.478
 9528TIP3    H228518   6.470   8.712   3.447
 9529TIP3   OH228519   6.682   8.468   3.489
 9529TIP3    H128520   6.732   8.386   3.488
 9529TIP3    H228521   6.694   8.497   3.582
 9530TIP3   OH228522   7.100   8.152   3.276
 9530TIP3    H128523   7.133   8.065   3.248
 9530TIP3    H228524   7.037   8.174   3.207
 9531TIP3   OH228525   7.108   7.938   3.064
 9531TIP3    H128526   7.079   7.992   2.989
 9531TIP3    H228527   7.021   7.897   3.085
 9532TIP3   OH228528   7.007   8.245   3.514
 9532TIP3    H128529   6.935   8.180   3.527
 9532TIP3    H228530   7.041   8.219   3.425
 9533TIP3   OH228531   7.230   7.694   3.162
 9533TIP3    H128532   7.177   7.770   3.131
 9533TIP3    H228533   7.167   7.619   3.149
 9534TIP3   OH228534   6.845   8.028   3.563
 9534TIP3    H128535   6.846   7.936   3.529
 9534TIP3    H228536   6.877   8.014   3.654
 9535TIP3   OH228537   7.356   7.696   3.407
 9535TIP3    H128538   7.423   7.626   3.398
 9535TIP3    H228539   7.304   7.685   3.325
 9536TIP3   OH228540   7.420   7.900   3.578
 9536TIP3    H128541   7.396   7.835   3.508
 9536TIP3    H228542   7.351   7.969   3.568
 9537TIP3   OH228543   6.103   8.487   1.870
 9537TIP3    H128544   6.189   8.528   1.856
 9537TIP3    H228545   6.109   8.406   1.816
 9538TIP3   OH228546   6.354   8.399   2.860
 9538TIP3    H128547   6.352   8.363   2.768
 9538TIP3    H228548   6.451   8.395   2.878
 9539TIP3   OH228549   6.579   8.083   3.541
 9539TIP3    H128550   6.677   8.073   3.541
 9539TIP3    H228551   6.552   7.996   3.576
 9540TIP3   OH228552   6.537   7.771   2.861
 9540TIP3    H128553   6.600   7.697   2.872
 9540TIP3    H228554   6.597   7.847   2.865
 9541TIP3   OH228555   6.340   8.046   2.942
 9541TIP3    H128556   6.387   8.042   2.856
 9541TIP3    H228557   6.364   8.135   2.972
 9542TIP3   OH228558   6.324   7.562   2.445
 9542TIP3    H128559   6.230   7.548   2.466
 9542TIP3    H228560   6.318   7.613   2.361
 9543TIP3   OH228561   6.544   7.634   3.255
 9543TIP3    H128562   6.491   7.624   3.336
 9543TIP3    H228563   6.476   7.671   3.194
 9544TIP3   OH228564   6.631   7.472   2.610
 9544TIP3    H128565   6.539   7.438   2.610
 9544TIP3    H228566   6.680   7.387   2.606
 9545TIP3   OH228567   6.426   7.343   2.265
 9545TIP3    H128568   6.450   7.396   2.187
 9545TIP3    H228569   6.393   7.410   2.327
 9546TIP3   OH228570   7.059   7.500   2.510
 9546TIP3    H128571   7.129   7.558   2.479
 9546TIP3    H228572   7.055   7.525   2.603
 9547TIP3   OH228573   6.532   7.502   2.019
 9547TIP3    H128574   6.578   7.435   1.964
 9547TIP3    H228575   6.608   7.548   2.059
 9548TIP3   OH228576   7.033   7.685   2.100
 9548TIP3    H128577   7.070   7.606   2.142
 9548TIP3    H228578   7.082   7.755   2.144
 9549TIP3   OH228579   6.840   7.757   3.503
 9549TIP3    H128580   6.804   7.685   3.558
 9549TIP3    H228581   6.934   7.755   3.530
 9550TIP3   OH228582   7.088   7.749   3.620
 9550TIP3    H128583   7.176   7.726   3.585
 9550TIP3    H228584   7.075   7.679   3.687
 9551TIP3   OH228585   2.264   0.953   7.523
 9551TIP3    H128586   2.274   0.870   7.571
 9551TIP3    H228587   2.316   1.014   7.576
 9552TIP3   OH228588   1.935   1.404   7.548
 9552TIP3    H128589   1.978   1.337   7.492
 9552TIP3    H228590   1.936   1.360   7.634
 9553TIP3   OH228591   1.972   0.869   7.303
 9553TIP3    H128592   1.903   0.804   7.282
 9553TIP3    H228593   1.918   0.937   7.346
 9554TIP3   OH228594   2.056   1.231   7.374
 9554TIP3    H128595   2.107   1.149   7.353
 9554TIP3    H228596   2.113   1.295   7.327
 9555TIP3   OH228597   2.204   1.026   7.265
 9555TIP3    H128598   2.155   0.948   7.231
 9555TIP3    H228599   2.234   0.989   7.351
 9556TIP3   OH228600   2.206   0.597   7.273
 9556TIP3    H128601   2.149   0.586   7.351
 9556TIP3    H228602   2.287   0.551   7.301
 9557TIP3   OH228603   1.782   1.210   7.316
 9557TIP3    H128604   1.868   1.205   7.363
 9557TIP3    H228605   1.743   1.126   7.337
 9558TIP3   OH228606   2.370   1.040   6.689
 9558TIP3    H128607   2.381   1.136   6.672
 9558TIP3    H228608   2.462   1.008   6.675
 9559TIP3   OH228609   1.872   1.266   6.827
 9559TIP3    H128610   1.916   1.200   6.769
 9559TIP3    H228611   1.911   1.239   6.913
 9560TIP3   OH228612   1.886   1.324   7.093
 9560TIP3    H128613   1.830   1.285   7.168
 9560TIP3    H228614   1.973   1.305   7.131
 9561TIP3   OH228615   2.108   0.513   6.819
 9561TIP3    H128616   2.094   0.454   6.743
 9561TIP3    H228617   2.203   0.532   6.812
 9562TIP3   OH228618   1.825   0.855   7.003
 9562TIP3    H128619   1.780   0.934   7.041
 9562TIP3    H228620   1.818   0.793   7.078
 9563TIP3   OH228621   2.615   0.304   7.031
 9563TIP3    H128622   2.549   0.248   6.984
 9563TIP3    H228623   2.594   0.390   6.990
 9564TIP3   OH228624   2.294   1.114   6.950
 9564TIP3    H128625   2.283   1.043   7.015
 9564TIP3    H228626   2.317   1.066   6.868
 9565TIP3   OH228627   2.059   0.857   6.852
 9565TIP3    H128628   2.119   0.819   6.921
 9565TIP3    H228629   1.974   0.847   6.900
 9566TIP3   OH228630   2.402   1.317   6.671
 9566TIP3    H128631   2.446   1.389   6.622
 9566TIP3    H228632   2.322   1.363   6.701
 9567TIP3   OH228633   2.221   0.782   7.063
 9567TIP3    H128634   2.204   0.717   7.134
 9567TIP3    H228635   2.319   0.774   7.056
 9568TIP3   OH228636   1.652   1.078   7.055
 9568TIP3    H128637   1.575   1.050   7.106
 9568TIP3    H228638   1.623   1.060   6.964
 9569TIP3   OH228639   2.351   1.467   7.639
 9569TIP3    H128640   2.310   1.509   7.561
 9569TIP3    H228641   2.445   1.481   7.618
 9570TIP3   OH228642   1.597   0.992   6.795
 9570TIP3    H128643   1.591   0.915   6.856
 9570TIP3    H228644   1.673   0.967   6.740
 9571TIP3   OH228645   2.019   1.078   6.681
 9571TIP3    H128646   2.058   1.010   6.741
 9571TIP3    H228647   2.079   1.072   6.604
 9572TIP3   OH228648   2.364   0.572   6.709
 9572TIP3    H128649   2.348   0.526   6.624
 9572TIP3    H228650   2.328   0.660   6.686
 9573TIP3   OH228651   1.381   1.307   6.929
 9573TIP3    H128652   1.440   1.261   6.870
 9573TIP3    H228653   1.342   1.373   6.867
 9574TIP3   OH228654   2.615   1.552   7.585
 9574TIP3    H128655   2.647   1.613   7.653
 9574TIP3    H228656   2.672   1.574   7.510
 9575TIP3   OH228657   2.500   0.764   7.043
 9575TIP3    H128658   2.572   0.823   7.015
 9575TIP3    H228659   2.540   0.721   7.122
 9576TIP3   OH228660   2.622   0.631   7.244
 9576TIP3    H128661   2.561   0.588   7.308
 9576TIP3    H228662   2.693   0.667   7.302
 9577TIP3   OH228663   2.651   1.022   7.663
 9577TIP3    H128664   2.722   0.955   7.650
 9577TIP3    H228665   2.676   1.089   7.599
 9578TIP3   OH228666   2.561   0.538   6.894
 9578TIP3    H128667   2.490   0.542   6.827
 9578TIP3    H228668   2.535   0.613   6.952
 9579TIP3   OH228669   2.439   0.200   6.844
 9579TIP3    H128670   2.395   0.256   6.779
 9579TIP3    H228671   2.400   0.114   6.826
 9580TIP3   OH228672   2.438   0.481   7.398
 9580TIP3    H128673   2.464   0.389   7.383
 9580TIP3    H228674   2.449   0.492   7.493
 9581TIP3   OH228675   2.167   1.425   7.208
 9581TIP3    H128676   2.239   1.402   7.144
 9581TIP3    H228677   2.219   1.474   7.276
 9582TIP3   OH228678   2.336   1.379   6.996
 9582TIP3    H128679   2.330   1.281   6.984
 9582TIP3    H228680   2.302   1.410   6.910
 9583TIP3   OH228681   3.831   0.895   6.950
 9583TIP3    H128682   3.803   0.987   6.929
 9583TIP3    H228683   3.756   0.846   6.912
 9584TIP3   OH228684   3.827   0.900   7.334
 9584TIP3    H128685   3.860   0.871   7.421
 9584TIP3    H228686   3.789   0.817   7.299
 9585TIP3   OH228687   3.133   0.826   7.673
 9585TIP3    H128688   3.125   0.781   7.760
 9585TIP3    H228689   3.223   0.805   7.644
 9586TIP3   OH228690   4.073   1.202   7.012
 9586TIP3    H128691   4.063   1.130   7.077
 9586TIP3    H228692   4.106   1.274   7.067
 9587TIP3   OH228693   3.100   1.207   7.423
 9587TIP3    H128694   3.089   1.109   7.417
 9587TIP3    H228695   3.197   1.213   7.412
 9588TIP3   OH228696   2.795   0.411   7.219
 9588TIP3    H128697   2.744   0.494   7.220
 9588TIP3    H228698   2.738   0.356   7.163
 9589TIP3   OH228699   2.855   0.703   7.368
 9589TIP3    H128700   2.893   0.623   7.412
 9589TIP3    H228701   2.928   0.728   7.309
 9590TIP3   OH228702   3.724   1.660   7.029
 9590TIP3    H128703   3.768   1.590   6.977
 9590TIP3    H228704   3.721   1.621   7.117
 9591TIP3   OH228705   3.630   1.123   7.380
 9591TIP3    H128706   3.667   1.044   7.336
 9591TIP3    H228707   3.714   1.168   7.401
 9592TIP3   OH228708   4.046   0.625   7.424
 9592TIP3    H128709   4.068   0.535   7.449
 9592TIP3    H228710   4.010   0.615   7.334
 9593TIP3   OH228711   3.360   0.253   7.356
 9593TIP3    H128712   3.338   0.337   7.310
 9593TIP3    H228713   3.284   0.198   7.334
 9594TIP3   OH228714   4.038   0.402   7.047
 9594TIP3    H128715   4.097   0.352   7.107
 9594TIP3    H228716   4.091   0.400   6.966
 9595TIP3   OH228717   2.980   0.492   7.472
 9595TIP3    H128718   3.062   0.482   7.525
 9595TIP3    H228719   2.999   0.427   7.403
 9596TIP3   OH228720   3.447   0.688   7.283
 9596TIP3    H128721   3.541   0.663   7.297
 9596TIP3    H228722   3.409   0.601   7.256
 9597TIP3   OH228723   4.681   0.634   7.575
 9597TIP3    H128724   4.609   0.693   7.542
 9597TIP3    H228725   4.742   0.697   7.616
 9598TIP3   OH228726   3.720   1.116   6.820
 9598TIP3    H128727   3.682   1.097   6.733
 9598TIP3    H228728   3.676   1.200   6.843
 9599TIP3   OH228729   3.490   1.052   7.606
 9599TIP3    H128730   3.424   1.119   7.633
 9599TIP3    H228731   3.534   1.096   7.529
 9600TIP3   OH228732   3.227   0.434   7.552
 9600TIP3    H128733   3.302   0.484   7.590
 9600TIP3    H228734   3.273   0.354   7.521
 9601TIP3   OH228735   3.303   1.230   7.705
 9601TIP3    H128736   3.271   1.306   7.652
 9601TIP3    H228737   3.236   1.223   7.775
 9602TIP3   OH228738   2.705   0.928   6.938
 9602TIP3    H128739   2.667   0.955   6.853
 9602TIP3    H228740   2.739   1.012   6.974
 9603TIP3   OH228741   4.144   1.443   7.178
 9603TIP3    H128742   4.053   1.435   7.215
 9603TIP3    H228743   4.137   1.529   7.132
 9604TIP3   OH228744   3.842   1.489   6.849
 9604TIP3    H128745   3.893   1.407   6.830
 9604TIP3    H228746   3.903   1.555   6.809
 9605TIP3   OH228747   3.986   1.275   6.760
 9605TIP3    H128748   3.958   1.193   6.718
 9605TIP3    H228749   4.023   1.241   6.845
 9606TIP3   OH228750   4.367   1.356   7.522
 9606TIP3    H128751   4.360   1.278   7.463
 9606TIP3    H228752   4.354   1.430   7.459
 9607TIP3   OH228753   3.662   0.755   6.777
 9607TIP3    H128754   3.581   0.803   6.753
 9607TIP3    H228755   3.707   0.746   6.690
 9608TIP3   OH228756   3.619   0.534   6.498
 9608TIP3    H128757   3.693   0.582   6.539
 9608TIP3    H228758   3.666   0.462   6.453
 9609TIP3   OH228759   4.566   0.994   7.366
 9609TIP3    H128760   4.483   1.047   7.371
 9609TIP3    H228761   4.596   1.017   7.275
 9610TIP3   OH228762   4.007   0.833   6.749
 9610TIP3    H128763   3.954   0.857   6.828
 9610TIP3    H228764   4.092   0.809   6.791
 9611TIP3   OH228765   4.244   0.872   7.667
 9611TIP3    H128766   4.239   0.954   7.720
 9611TIP3    H228767   4.158   0.875   7.621
 9612TIP3   OH228768   3.244   0.830   7.164
 9612TIP3    H128769   3.202   0.769   7.099
 9612TIP3    H228770   3.319   0.775   7.197
 9613TIP3   OH228771   3.371   1.241   7.316
 9613TIP3    H128772   3.350   1.199   7.231
 9613TIP3    H228773   3.461   1.206   7.333
 9614TIP3   OH228774   3.372   0.816   7.522
 9614TIP3    H128775   3.401   0.785   7.433
 9614TIP3    H228776   3.420   0.901   7.532
 9615TIP3   OH228777   3.900   1.440   7.296
 9615TIP3    H128778   3.888   1.518   7.352
 9615TIP3    H228779   3.888   1.365   7.358
 9616TIP3   OH228780   3.516   1.387   7.796
 9616TIP3    H128781   3.463   1.450   7.847
 9616TIP3    H228782   3.451   1.317   7.775
 9617TIP3   OH228783   3.849   0.689   6.576
 9617TIP3    H128784   3.908   0.749   6.628
 9617TIP3    H228785   3.876   0.712   6.484
 9618TIP3   OH228786   3.593   1.370   6.854
 9618TIP3    H128787   3.677   1.419   6.864
 9618TIP3    H228788   3.535   1.436   6.813
 9619TIP3   OH228789   3.298   1.570   7.849
 9619TIP3    H128790   3.297   1.568   7.752
 9619TIP3    H228791   3.243   1.493   7.869
 9620TIP3   OH228792   3.108   0.671   6.973
 9620TIP3    H128793   3.040   0.712   6.917
 9620TIP3    H228794   3.073   0.583   6.986
 9621TIP3   OH228795   4.167   1.296   6.175
 9621TIP3    H128796   4.175   1.393   6.159
 9621TIP3    H228797   4.259   1.267   6.162
 9622TIP3   OH228798   2.746   1.256   7.500
 9622TIP3    H128799   2.839   1.229   7.494
 9622TIP3    H228800   2.750   1.330   7.562
 9623TIP3   OH228801   4.606   1.699   7.570
 9623TIP3    H128802   4.607   1.602   7.583
 9623TIP3    H228803   4.522   1.722   7.615
 9624TIP3   OH228804   3.737   1.489   7.693
 9624TIP3    H128805   3.723   1.584   7.715
 9624TIP3    H228806   3.655   1.450   7.731
 9625TIP3   OH228807   3.471   1.613   6.656
 9625TIP3    H128808   3.430   1.594   6.570
 9625TIP3    H228809   3.442   1.704   6.675
 9626TIP3   OH228810   2.911   1.465   7.040
 9626TIP3    H128811   2.960   1.455   7.124
 9626TIP3    H228812   2.864   1.380   7.036
 9627TIP3   OH228813   3.674   1.515   6.295
 9627TIP3    H128814   3.733   1.445   6.258
 9627TIP3    H228815   3.711   1.525   6.385
 9628TIP3   OH228816   3.725   1.566   6.565
 9628TIP3    H128817   3.639   1.572   6.610
 9628TIP3    H228818   3.781   1.526   6.634
 9629TIP3   OH228819   4.495   0.819   7.823
 9629TIP3    H128820   4.414   0.850   7.781
 9629TIP3    H228821   4.481   0.724   7.827
 9630TIP3   OH228822   4.278   0.613   7.783
 9630TIP3    H128823   4.244   0.634   7.870
 9630TIP3    H228824   4.253   0.690   7.729
 9631TIP3   OH228825   3.928   0.734   6.321
 9631TIP3    H128826   3.891   0.710   6.234
 9631TIP3    H228827   4.009   0.781   6.295
 9632TIP3   OH228828   3.427   0.584   7.651
 9632TIP3    H128829   3.439   0.610   7.743
 9632TIP3    H228830   3.416   0.670   7.605
 9633TIP3   OH228831   3.306   0.466   7.192
 9633TIP3    H128832   3.212   0.442   7.202
 9633TIP3    H228833   3.323   0.436   7.099
 9634TIP3   OH228834   3.793   0.556   6.914
 9634TIP3    H128835   3.744   0.627   6.867
 9634TIP3    H228836   3.858   0.528   6.847
 9635TIP3   OH228837   3.939   0.618   7.171
 9635TIP3    H128838   3.884   0.658   7.101
 9635TIP3    H228839   3.966   0.536   7.123
 9636TIP3   OH228840   2.878   0.221   7.013
 9636TIP3    H128841   2.890   0.198   6.919
 9636TIP3    H228842   2.782   0.241   7.015
 9637TIP3   OH228843   3.963   0.829   7.577
 9637TIP3    H128844   3.999   0.756   7.521
 9637TIP3    H228845   3.942   0.778   7.659
 9638TIP3   OH228846   3.058   0.342   7.238
 9638TIP3    H128847   2.965   0.370   7.225
 9638TIP3    H228848   3.055   0.256   7.194
 9639TIP3   OH228849   3.352   0.366   6.943
 9639TIP3    H128850   3.442   0.348   6.913
 9639TIP3    H228851   3.298   0.354   6.862
 9640TIP3   OH228852   3.181   0.347   6.718
 9640TIP3    H128853   3.105   0.331   6.659
 9640TIP3    H228854   3.241   0.392   6.654
 9641TIP3   OH228855   4.302   2.051   7.664
 9641TIP3    H128856   4.301   2.080   7.571
 9641TIP3    H228857   4.378   2.101   7.699
 9642TIP3   OH228858   3.707   0.621   7.341
 9642TIP3    H128859   3.789   0.587   7.302
 9642TIP3    H228860   3.714   0.590   7.434
 9643TIP3   OH228861   3.720   0.551   7.603
 9643TIP3    H128862   3.638   0.507   7.629
 9643TIP3    H228863   3.764   0.566   7.688
 9644TIP3   OH228864   3.428   0.904   6.725
 9644TIP3    H128865   3.358   0.836   6.716
 9644TIP3    H228866   3.413   0.936   6.817
 9645TIP3   OH228867   4.332   1.140   7.357
 9645TIP3    H128868   4.358   1.188   7.275
 9645TIP3    H228869   4.247   1.097   7.330
 9646TIP3   OH228870   3.864   0.286   6.547
 9646TIP3    H128871   3.805   0.232   6.604
 9646TIP3    H228872   3.901   0.348   6.614
 9647TIP3   OH228873   3.838   1.221   7.717
 9647TIP3    H128874   3.833   1.178   7.803
 9647TIP3    H228875   3.795   1.307   7.732
 9648TIP3   OH228876   3.967   0.477   6.712
 9648TIP3    H128877   4.065   0.486   6.718
 9648TIP3    H228878   3.944   0.551   6.653
 9649TIP3   OH228879   3.119   0.936   7.390
 9649TIP3    H128880   3.165   0.896   7.314
 9649TIP3    H228881   3.144   0.878   7.464
 9650TIP3   OH228882   3.578   1.051   6.549
 9650TIP3    H128883   3.530   1.137   6.557
 9650TIP3    H228884   3.524   0.995   6.609
 9651TIP3   OH228885   4.002   1.480   7.627
 9651TIP3    H128886   3.905   1.467   7.631
 9651TIP3    H228887   4.012   1.556   7.686
 9652TIP3   OH228888   4.401   0.550   6.519
 9652TIP3    H128889   4.341   0.500   6.460
 9652TIP3    H228890   4.389   0.640   6.481
 9653TIP3   OH228891   4.619   1.410   7.609
 9653TIP3    H128892   4.521   1.402   7.601
 9653TIP3    H228893   4.646   1.380   7.519
 9654TIP3   OH228894   4.098   1.371   6.437
 9654TIP3    H128895   4.080   1.299   6.499
 9654TIP3    H228896   4.116   1.326   6.353
 9655TIP3   OH228897   4.096   1.003   7.274
 9655TIP3    H128898   4.004   0.973   7.287
 9655TIP3    H228899   4.134   0.924   7.231
 9656TIP3   OH228900   3.227   1.229   7.033
 9656TIP3    H128901   3.227   1.308   6.976
 9656TIP3    H228902   3.133   1.209   7.039
 9657TIP3   OH228903   2.783   0.534   6.733
 9657TIP3    H128904   2.834   0.614   6.756
 9657TIP3    H228905   2.708   0.540   6.796
 9658TIP3   OH228906   3.362   0.994   6.971
 9658TIP3    H128907   3.329   1.083   6.994
 9658TIP3    H228908   3.328   0.941   7.046
 9659TIP3   OH228909   3.496   1.573   7.486
 9659TIP3    H128910   3.537   1.648   7.439
 9659TIP3    H228911   3.572   1.541   7.538
 9660TIP3   OH228912   3.142   1.470   6.880
 9660TIP3    H128913   3.058   1.476   6.929
 9660TIP3    H228914   3.174   1.562   6.886
 9661TIP3   OH228915   3.886   1.209   7.451
 9661TIP3    H128916   3.878   1.205   7.550
 9661TIP3    H228917   3.960   1.149   7.435
 9662TIP3   OH228918   3.858   1.100   6.342
 9662TIP3    H128919   3.913   1.076   6.420
 9662TIP3    H228920   3.771   1.070   6.372
 9663TIP3   OH228921   4.127   1.740   7.508
 9663TIP3    H128922   4.048   1.687   7.489
 9663TIP3    H228923   4.122   1.807   7.436
 9664TIP3   OH228924   4.196   1.572   6.158
 9664TIP3    H128925   4.239   1.645   6.111
 9664TIP3    H228926   4.117   1.619   6.191
 9665TIP3   OH228927   4.019   1.035   6.558
 9665TIP3    H128928   4.008   0.967   6.626
 9665TIP3    H228929   4.116   1.031   6.544
 9666TIP3   OH228930   2.940   1.442   7.637
 9666TIP3    H128931   2.987   1.360   7.658
 9666TIP3    H228932   2.924   1.479   7.724
 9667TIP3   OH228933   3.220   1.080   6.340
 9667TIP3    H128934   3.238   0.989   6.311
 9667TIP3    H228935   3.202   1.066   6.436
 9668TIP3   OH228936   3.165   1.084   6.615
 9668TIP3    H128937   3.241   1.053   6.666
 9668TIP3    H228938   3.174   1.182   6.622
 9669TIP3   OH228939   2.903   0.775   6.815
 9669TIP3    H128940   2.838   0.821   6.873
 9669TIP3    H228941   2.921   0.845   6.750
 9670TIP3   OH228942   3.434   1.280   6.561
 9670TIP3    H128943   3.348   1.309   6.596
 9670TIP3    H228944   3.453   1.351   6.498
 9671TIP3   OH228945   3.639   0.332   6.937
 9671TIP3    H128946   3.690   0.416   6.934
 9671TIP3    H228947   3.645   0.309   7.030
 9672TIP3   OH228948   3.908   0.683   7.804
 9672TIP3    H128949   3.923   0.740   7.884
 9672TIP3    H228950   3.945   0.599   7.834
 9673TIP3   OH228951   3.178   1.359   6.628
 9673TIP3    H128952   3.149   1.430   6.567
 9673TIP3    H228953   3.163   1.401   6.715
 9674TIP3   OH228954   4.185   0.763   7.153
 9674TIP3    H128955   4.106   0.709   7.171
 9674TIP3    H228956   4.256   0.714   7.200
 9675TIP3   OH228957   2.897   0.987   6.618
 9675TIP3    H128958   2.972   1.050   6.629
 9675TIP3    H228959   2.939   0.927   6.553
 9676TIP3   OH228960   2.842   0.262   6.720
 9676TIP3    H128961   2.826   0.358   6.733
 9676TIP3    H228962   2.757   0.222   6.741
 9677TIP3   OH228963   4.152   1.715   7.099
 9677TIP3    H128964   4.110   1.761   7.023
 9677TIP3    H228965   4.247   1.734   7.080
 9678TIP3   OH228966   2.772   1.210   7.007
 9678TIP3    H128967   2.702   1.232   7.070
 9678TIP3    H228968   2.737   1.247   6.923
 9679TIP3   OH228969   3.386   1.282   6.252
 9679TIP3    H128970   3.332   1.210   6.291
 9679TIP3    H228971   3.462   1.231   6.219
 9680TIP3   OH228972   4.052   1.602   7.890
 9680TIP3    H128973   4.099   1.525   7.857
 9680TIP3    H228974   4.128   1.665   7.903
 9681TIP3   OH228975   3.821   1.322   6.164
 9681TIP3    H128976   3.865   1.259   6.224
 9681TIP3    H228977   3.879   1.321   6.085
 9682TIP3   OH228978   3.031   0.799   6.475
 9682TIP3    H128979   3.086   0.762   6.547
 9682TIP3    H228980   3.098   0.803   6.403
 9683TIP3   OH228981   3.539   0.999   6.281
 9683TIP3    H128982   3.545   1.011   6.378
 9683TIP3    H228983   3.545   0.901   6.275
 9684TIP3   OH228984   4.159   1.246   7.668
 9684TIP3    H128985   4.234   1.285   7.618
 9684TIP3    H228986   4.088   1.308   7.645
 9685TIP3   OH228987   3.236   0.705   6.694
 9685TIP3    H128988   3.217   0.663   6.780
 9685TIP3    H228989   3.274   0.630   6.644
 9686TIP3   OH228990   3.339   0.499   6.541
 9686TIP3    H128991   3.313   0.498   6.447
 9686TIP3    H228992   3.436   0.502   6.533
 9687TIP3   OH228993   4.160   0.827   6.199
 9687TIP3    H128994   4.140   0.783   6.114
 9687TIP3    H228995   4.129   0.918   6.176
 9688TIP3   OH228996   3.661   0.895   7.755
 9688TIP3    H128997   3.741   0.866   7.708
 9688TIP3    H228998   3.619   0.954   7.690
 9689TIP3   OH228999   4.292   1.100   7.853
 9689TIP3    H129000   4.232   1.152   7.794
 9689TIP3    H229001   4.378   1.117   7.808
 9690TIP3   OH229002   3.150   1.567   6.444
 9690TIP3    H129003   3.244   1.554   6.424
 9690TIP3    H229004   3.122   1.610   6.360
 9691TIP3   OH229005   2.628   0.943   6.654
 9691TIP3    H129006   2.724   0.964   6.642
 9691TIP3    H229007   2.623   0.853   6.615
 9692TIP3   OH229008   2.541   1.553   7.073
 9692TIP3    H129009   2.477   1.488   7.038
 9692TIP3    H229010   2.588   1.497   7.139
 9693TIP3   OH229011   2.673   1.403   7.260
 9693TIP3    H129012   2.669   1.330   7.324
 9693TIP3    H229013   2.732   1.464   7.309
 9694TIP3   OH229014   4.404   1.807   7.058
 9694TIP3    H129015   4.432   1.841   7.144
 9694TIP3    H229016   4.470   1.846   6.998
 9695TIP3   OH229017   4.432   1.825   7.342
 9695TIP3    H129018   4.393   1.736   7.336
 9695TIP3    H229019   4.512   1.805   7.394
 9696TIP3   OH229020   4.485   1.506   7.896
 9696TIP3    H129021   4.413   1.509   7.959
 9696TIP3    H229022   4.527   1.594   7.905
 9697TIP3   OH229023   4.297   1.015   6.529
 9697TIP3    H129024   4.365   1.079   6.501
 9697TIP3    H229025   4.340   0.977   6.609
 9698TIP3   OH229026   4.423   0.887   6.733
 9698TIP3    H129027   4.358   0.846   6.795
 9698TIP3    H229028   4.489   0.925   6.794
 9699TIP3   OH229029   4.478   1.274   7.166
 9699TIP3    H129030   4.534   1.208   7.119
 9699TIP3    H229031   4.476   1.348   7.102
 9700TIP3   OH229032   4.310   1.574   7.362
 9700TIP3    H129033   4.237   1.614   7.412
 9700TIP3    H229034   4.263   1.525   7.291
 9701TIP3   OH229035   4.357   0.788   6.383
 9701TIP3    H129036   4.287   0.798   6.314
 9701TIP3    H229037   4.335   0.865   6.439
 9702TIP3   OH229038   4.227   0.450   6.327
 9702TIP3    H129039   4.208   0.526   6.270
 9702TIP3    H229040   4.180   0.379   6.281
 9703TIP3   OH229041   4.236   0.751   6.880
 9703TIP3    H129042   4.241   0.655   6.859
 9703TIP3    H229043   4.225   0.752   6.977
 9704TIP3   OH229044   2.863   0.856   7.607
 9704TIP3    H129045   2.858   0.805   7.524
 9704TIP3    H229046   2.955   0.839   7.634
 9705TIP3   OH229047   4.527   1.163   7.730
 9705TIP3    H129048   4.597   1.094   7.725
 9705TIP3    H229049   4.561   1.232   7.672
 9706TIP3   OH229050   4.709   0.970   7.749
 9706TIP3    H129051   4.638   0.918   7.792
 9706TIP3    H229052   4.785   0.911   7.767
 9707TIP3   OH229053   4.238   0.500   6.748
 9707TIP3    H129054   4.265   0.421   6.800
 9707TIP3    H229055   4.305   0.502   6.676
 9708TIP3   OH229056   4.394   0.634   7.276
 9708TIP3    H129057   4.480   0.657   7.235
 9708TIP3    H229058   4.409   0.669   7.366
 9709TIP3   OH229059   4.458   0.780   7.502
 9709TIP3    H129060   4.384   0.815   7.553
 9709TIP3    H229061   4.494   0.860   7.458
 9710TIP3   OH229062   3.985   1.673   6.712
 9710TIP3    H129063   4.040   1.659   6.633
 9710TIP3    H229064   4.040   1.735   6.763
 9711TIP3   OH229065   3.263   1.483   7.596
 9711TIP3    H129066   3.214   1.561   7.563
 9711TIP3    H229067   3.351   1.503   7.557
 9712TIP3   OH229068   3.700   1.751   7.756
 9712TIP3    H129069   3.730   1.757   7.850
 9712TIP3    H229070   3.768   1.806   7.710
 9713TIP3   OH229071   3.891   1.899   7.636
 9713TIP3    H129072   3.966   1.860   7.589
 9713TIP3    H229073   3.940   1.962   7.695
 9714TIP3   OH229074   2.942   1.772   7.656
 9714TIP3    H129075   2.857   1.816   7.637
 9714TIP3    H229076   2.961   1.805   7.745
 9715TIP3   OH229077   3.181   1.737   7.523
 9715TIP3    H129078   3.095   1.751   7.569
 9715TIP3    H229079   3.163   1.776   7.435
 9716TIP3   OH229080   3.607   1.771   7.326
 9716TIP3    H129081   3.540   1.795   7.260
 9716TIP3    H229082   3.621   1.858   7.372
 9717TIP3   OH229083   3.877   1.710   7.380
 9717TIP3    H129084   3.783   1.728   7.360
 9717TIP3    H229085   3.921   1.785   7.336
 9718TIP3   OH229086   4.080   1.900   7.293
 9718TIP3    H129087   4.069   1.986   7.247
 9718TIP3    H229088   4.109   1.842   7.219
 9719TIP3   OH229089   2.853   1.559   7.407
 9719TIP3    H129090   2.885   1.537   7.498
 9719TIP3    H229091   2.926   1.516   7.357
 9720TIP3   OH229092   3.050   1.430   7.272
 9720TIP3    H129093   3.064   1.347   7.323
 9720TIP3    H229094   3.142   1.466   7.270
 9721TIP3   OH229095   3.316   1.524   7.273
 9721TIP3    H129096   3.346   1.432   7.262
 9721TIP3    H229097   3.368   1.548   7.353
 9722TIP3   OH229098   2.643   1.331   6.805
 9722TIP3    H129099   2.560   1.297   6.769
 9722TIP3    H229100   2.633   1.426   6.785
 9723TIP3   OH229101   3.415   1.518   6.388
 9723TIP3    H129102   3.504   1.539   6.353
 9723TIP3    H229103   3.394   1.442   6.329
 9724TIP3   OH229104   4.134   1.637   6.483
 9724TIP3    H129105   4.126   1.540   6.470
 9724TIP3    H229106   4.092   1.670   6.401
 9725TIP3   OH229107   2.723   1.357   6.446
 9725TIP3    H129108   2.728   1.370   6.541
 9725TIP3    H229109   2.808   1.312   6.427
 9726TIP3   OH229110   4.353   1.782   7.672
 9726TIP3    H129111   4.280   1.756   7.613
 9726TIP3    H229112   4.343   1.880   7.670
 9727TIP3   OH229113   5.625   1.149   6.438
 9727TIP3    H129114   5.596   1.241   6.418
 9727TIP3    H229115   5.551   1.101   6.396
 9728TIP3   OH229116   5.624   1.158   6.818
 9728TIP3    H129117   5.656   1.130   6.906
 9728TIP3    H229118   5.587   1.076   6.782
 9729TIP3   OH229119   4.924   1.048   7.181
 9729TIP3    H129120   4.956   0.980   7.243
 9729TIP3    H229121   5.002   1.104   7.173
 9730TIP3   OH229122   5.866   1.462   6.500
 9730TIP3    H129123   5.861   1.389   6.563
 9730TIP3    H229124   5.903   1.533   6.555
 9731TIP3   OH229125   4.897   1.458   6.905
 9731TIP3    H129126   4.889   1.361   6.907
 9731TIP3    H229127   4.994   1.468   6.901
 9732TIP3   OH229128   4.597   0.673   6.707
 9732TIP3    H129129   4.541   0.753   6.712
 9732TIP3    H229130   4.541   0.616   6.652
 9733TIP3   OH229131   4.657   0.959   6.861
 9733TIP3    H129132   4.700   0.877   6.895
 9733TIP3    H229133   4.722   0.990   6.797
 9734TIP3   OH229134   5.425   1.380   6.864
 9734TIP3    H129135   5.465   1.302   6.821
 9734TIP3    H229136   5.507   1.426   6.890
 9735TIP3   OH229137   5.837   0.880   6.911
 9735TIP3    H129138   5.871   0.793   6.932
 9735TIP3    H229139   5.805   0.870   6.819
 9736TIP3   OH229140   5.139   0.501   6.839
 9736TIP3    H129141   5.142   0.587   6.791
 9736TIP3    H229142   5.052   0.471   6.813
 9737TIP3   OH229143   5.828   0.652   6.535
 9737TIP3    H129144   5.892   0.608   6.595
 9737TIP3    H229145   5.882   0.654   6.454
 9738TIP3   OH229146   4.788   0.742   6.960
 9738TIP3    H129147   4.878   0.738   7.000
 9738TIP3    H229148   4.801   0.679   6.887
 9739TIP3   OH229149   5.248   0.943   6.764
 9739TIP3    H129150   5.341   0.917   6.780
 9739TIP3    H229151   5.209   0.857   6.736
 9740TIP3   OH229152   6.471   0.889   7.068
 9740TIP3    H129153   6.402   0.947   7.029
 9740TIP3    H229154   6.536   0.951   7.102
 9741TIP3   OH229155   5.505   1.365   6.301
 9741TIP3    H129156   5.481   1.338   6.211
 9741TIP3    H229157   5.485   1.458   6.298
 9742TIP3   OH229158   5.278   1.299   7.089
 9742TIP3    H129159   5.217   1.366   7.127
 9742TIP3    H229160   5.322   1.350   7.018
 9743TIP3   OH229161   5.039   0.693   7.038
 9743TIP3    H129162   5.107   0.744   7.087
 9743TIP3    H229163   5.094   0.625   6.995
 9744TIP3   OH229164   5.107   1.494   7.188
 9744TIP3    H129165   5.081   1.581   7.151
 9744TIP3    H229166   5.029   1.477   7.245
 9745TIP3   OH229167   4.500   1.184   6.425
 9745TIP3    H129168   4.463   1.210   6.338
 9745TIP3    H229169   4.532   1.270   6.460
 9746TIP3   OH229170   5.941   1.700   6.664
 9746TIP3    H129171   5.851   1.691   6.704
 9746TIP3    H229172   5.932   1.786   6.620
 9747TIP3   OH229173   5.668   1.765   6.361
 9747TIP3    H129174   5.694   1.677   6.337
 9747TIP3    H229175   5.740   1.816   6.320
 9748TIP3   OH229176   5.756   1.538   6.258
 9748TIP3    H129177   5.762   1.462   6.198
 9748TIP3    H229178   5.804   1.505   6.337
 9749TIP3   OH229179   6.165   1.613   7.008
 9749TIP3    H129180   6.156   1.535   6.949
 9749TIP3    H229181   6.150   1.687   6.946
 9750TIP3   OH229182   5.458   1.013   6.263
 9750TIP3    H129183   5.377   1.063   6.240
 9750TIP3    H229184   5.502   1.004   6.176
 9751TIP3   OH229185   5.417   0.786   5.988
 9751TIP3    H129186   5.488   0.838   6.028
 9751TIP3    H229187   5.468   0.725   5.932
 9752TIP3   OH229188   6.361   1.248   6.852
 9752TIP3    H129189   6.279   1.303   6.855
 9752TIP3    H229190   6.393   1.272   6.762
 9753TIP3   OH229191   5.802   1.090   6.236
 9753TIP3    H129192   5.750   1.112   6.316
 9753TIP3    H229193   5.888   1.066   6.276
 9754TIP3   OH229194   6.040   1.127   7.156
 9754TIP3    H129195   6.037   1.209   7.208
 9754TIP3    H229196   5.954   1.133   7.109
 9755TIP3   OH229197   5.037   1.086   6.655
 9755TIP3    H129198   4.996   1.027   6.588
 9755TIP3    H229199   5.115   1.034   6.684
 9756TIP3   OH229200   5.169   1.501   6.800
 9756TIP3    H129201   5.146   1.458   6.717
 9756TIP3    H229202   5.257   1.464   6.820
 9757TIP3   OH229203   5.176   1.053   7.014
 9757TIP3    H129204   5.207   1.031   6.923
 9757TIP3    H229205   5.219   1.140   7.030
 9758TIP3   OH229206   5.701   1.693   6.787
 9758TIP3    H129207   5.684   1.773   6.838
 9758TIP3    H229208   5.686   1.621   6.851
 9759TIP3   OH229209   5.312   1.614   7.332
 9759TIP3    H129210   5.253   1.676   7.379
 9759TIP3    H229211   5.247   1.560   7.283
 9760TIP3   OH229212   5.644   0.945   6.063
 9760TIP3    H129213   5.704   1.005   6.113
 9760TIP3    H229214   5.670   0.968   5.970
 9761TIP3   OH229215   5.059   1.179   7.427
 9761TIP3    H129216   5.066   1.262   7.479
 9761TIP3    H229217   4.966   1.155   7.444
 9762TIP3   OH229218   5.387   1.692   6.340
 9762TIP3    H129219   5.423   1.643   6.416
 9762TIP3    H229220   5.307   1.641   6.317
 9763TIP3   OH229221   5.106   1.781   7.419
 9763TIP3    H129222   5.072   1.780   7.328
 9763TIP3    H229223   5.026   1.761   7.472
 9764TIP3   OH229224   4.901   0.927   6.464
 9764TIP3    H129225   4.839   0.975   6.405
 9764TIP3    H229226   4.861   0.840   6.466
 9765TIP3   OH229227   5.962   1.556   5.666
 9765TIP3    H129228   5.970   1.652   5.646
 9765TIP3    H229229   6.054   1.525   5.650
 9766TIP3   OH229230   4.685   1.312   7.366
 9766TIP3    H129231   4.621   1.288   7.296
 9766TIP3    H229232   4.724   1.226   7.390
 9767TIP3   OH229233   4.541   1.504   7.000
 9767TIP3    H129234   4.636   1.496   6.987
 9767TIP3    H229235   4.536   1.584   7.055
 9768TIP3   OH229236   6.403   1.958   7.054
 9768TIP3    H129237   6.404   1.862   7.067
 9768TIP3    H229238   6.320   1.981   7.101
 9769TIP3   OH229239   5.509   1.744   7.189
 9769TIP3    H129240   5.507   1.836   7.222
 9769TIP3    H229241   5.439   1.703   7.244
 9770TIP3   OH229242   4.701   1.722   6.528
 9770TIP3    H129243   4.755   1.712   6.609
 9770TIP3    H229244   4.655   1.636   6.527
 9771TIP3   OH229245   5.502   1.786   5.776
 9771TIP3    H129246   5.551   1.714   5.729
 9771TIP3    H229247   5.461   1.738   5.847
 9772TIP3   OH229248   5.479   1.813   6.087
 9772TIP3    H129249   5.392   1.779   6.064
 9772TIP3    H229250   5.541   1.753   6.048
 9773TIP3   OH229251   6.290   1.075   7.317
 9773TIP3    H129252   6.209   1.102   7.270
 9773TIP3    H229253   6.286   0.978   7.311
 9774TIP3   OH229254   4.890   1.496   7.354
 9774TIP3    H129255   4.941   1.479   7.436
 9774TIP3    H229256   4.817   1.431   7.362
 9775TIP3   OH229257   6.054   0.864   7.272
 9775TIP3    H129258   6.041   0.900   7.360
 9775TIP3    H229259   6.043   0.941   7.215
 9776TIP3   OH229260   5.724   0.996   5.810
 9776TIP3    H129261   5.688   0.969   5.724
 9776TIP3    H229262   5.809   1.035   5.782
 9777TIP3   OH229263   5.234   0.836   7.170
 9777TIP3    H129264   5.177   0.857   7.247
 9777TIP3    H229265   5.222   0.916   7.115
 9778TIP3   OH229266   5.108   0.719   6.681
 9778TIP3    H129267   5.012   0.704   6.688
 9778TIP3    H229268   5.123   0.691   6.587
 9779TIP3   OH229269   5.587   0.809   6.395
 9779TIP3    H129270   5.540   0.883   6.350
 9779TIP3    H229271   5.654   0.784   6.328
 9780TIP3   OH229272   5.779   1.111   7.474
 9780TIP3    H129273   5.755   1.030   7.524
 9780TIP3    H229274   5.874   1.120   7.498
 9781TIP3   OH229275   5.733   0.872   6.656
 9781TIP3    H129276   5.684   0.916   6.585
 9781TIP3    H229277   5.757   0.789   6.609
 9782TIP3   OH229278   5.041   0.868   7.368
 9782TIP3    H129279   5.064   0.931   7.438
 9782TIP3    H229280   5.021   0.787   7.419
 9783TIP3   OH229281   4.672   0.478   6.506
 9783TIP3    H129282   4.688   0.477   6.409
 9783TIP3    H229283   4.576   0.492   6.506
 9784TIP3   OH229284   5.755   1.086   7.061
 9784TIP3    H129285   5.793   1.014   7.006
 9784TIP3    H229286   5.733   1.034   7.141
 9785TIP3   OH229287   4.854   0.586   6.725
 9785TIP3    H129288   4.762   0.622   6.716
 9785TIP3    H229289   4.848   0.519   6.656
 9786TIP3   OH229290   5.144   0.617   6.433
 9786TIP3    H129291   5.237   0.607   6.403
 9786TIP3    H229292   5.093   0.610   6.350
 9787TIP3   OH229293   4.977   0.604   6.205
 9787TIP3    H129294   4.904   0.583   6.143
 9787TIP3    H229295   5.037   0.650   6.142
 9788TIP3   OH229296   6.096   2.308   7.155
 9788TIP3    H129297   6.094   2.330   7.060
 9788TIP3    H229298   6.175   2.356   7.185
 9789TIP3   OH229299   5.051   1.421   7.575
 9789TIP3    H129300   5.132   1.447   7.623
 9789TIP3    H229301   4.988   1.415   7.649
 9790TIP3   OH229302   5.504   0.865   6.830
 9790TIP3    H129303   5.589   0.845   6.789
 9790TIP3    H229304   5.516   0.833   6.923
 9791TIP3   OH229305   5.509   0.791   7.097
 9791TIP3    H129306   5.419   0.797   7.134
 9791TIP3    H229307   5.563   0.835   7.165
 9792TIP3   OH229308   5.225   1.162   6.212
 9792TIP3    H129309   5.154   1.096   6.202
 9792TIP3    H229310   5.209   1.194   6.304
 9793TIP3   OH229311   6.129   1.396   6.843
 9793TIP3    H129312   6.155   1.444   6.762
 9793TIP3    H229313   6.044   1.355   6.817
 9794TIP3   OH229314   5.660   0.537   6.036
 9794TIP3    H129315   5.603   0.490   6.101
 9794TIP3    H229316   5.701   0.604   6.095
 9795TIP3   OH229317   5.624   1.475   7.213
 9795TIP3    H129318   5.655   1.456   7.302
 9795TIP3    H229319   5.589   1.565   7.220
 9796TIP3   OH229320   5.764   0.732   6.194
 9796TIP3    H129321   5.861   0.742   6.202
 9796TIP3    H229322   5.740   0.807   6.136
 9797TIP3   OH229323   4.921   1.180   6.891
 9797TIP3    H129324   4.960   1.152   6.805
 9797TIP3    H229325   4.964   1.118   6.953
 9798TIP3   OH229326   5.375   1.322   6.041
 9798TIP3    H129327   5.319   1.403   6.028
 9798TIP3    H229328   5.315   1.267   6.095
 9799TIP3   OH229329   4.802   1.102   7.504
 9799TIP3    H129330   4.824   1.091   7.598
 9799TIP3    H229331   4.732   1.035   7.492
 9800TIP3   OH229332   5.528   1.219   7.527
 9800TIP3    H129333   5.469   1.163   7.474
 9800TIP3    H229334   5.616   1.190   7.495
 9801TIP3   OH229335   5.787   1.736   7.109
 9801TIP3    H129336   5.691   1.736   7.121
 9801TIP3    H229337   5.815   1.788   7.187
 9802TIP3   OH229338   6.195   0.807   6.005
 9802TIP3    H129339   6.133   0.758   5.945
 9802TIP3    H229340   6.184   0.897   5.967
 9803TIP3   OH229341   6.415   1.669   7.096
 9803TIP3    H129342   6.317   1.662   7.087
 9803TIP3    H229343   6.442   1.639   7.006
 9804TIP3   OH229344   5.892   1.623   5.926
 9804TIP3    H129345   5.878   1.542   5.977
 9804TIP3    H229346   5.911   1.589   5.837
 9805TIP3   OH229347   5.894   1.260   6.761
 9805TIP3    H129348   5.801   1.233   6.774
 9805TIP3    H229349   5.930   1.180   6.717
 9806TIP3   OH229350   5.025   1.481   6.522
 9806TIP3    H129351   5.018   1.568   6.475
 9806TIP3    H229352   4.933   1.456   6.525
 9807TIP3   OH229353   4.583   0.789   6.220
 9807TIP3    H129354   4.631   0.872   6.240
 9807TIP3    H229355   4.507   0.796   6.282
 9808TIP3   OH229356   5.161   1.250   6.462
 9808TIP3    H129357   5.122   1.338   6.478
 9808TIP3    H229358   5.124   1.199   6.536
 9809TIP3   OH229359   5.293   1.827   6.985
 9809TIP3    H129360   5.335   1.900   6.935
 9809TIP3    H229361   5.369   1.792   7.034
 9810TIP3   OH229362   4.961   1.723   6.409
 9810TIP3    H129363   4.865   1.732   6.420
 9810TIP3    H229364   4.985   1.811   6.375
 9811TIP3   OH229365   5.678   1.462   6.944
 9811TIP3    H129366   5.669   1.460   7.042
 9811TIP3    H229367   5.759   1.411   6.932
 9812TIP3   OH229368   5.657   1.360   5.828
 9812TIP3    H129369   5.706   1.334   5.908
 9812TIP3    H229370   5.568   1.329   5.850
 9813TIP3   OH229371   5.927   1.996   6.997
 9813TIP3    H129372   5.849   1.938   6.989
 9813TIP3    H229373   5.912   2.059   6.923
 9814TIP3   OH229374   5.992   1.830   5.645
 9814TIP3    H129375   6.024   1.899   5.584
 9814TIP3    H229376   5.913   1.876   5.681
 9815TIP3   OH229377   5.816   1.304   6.055
 9815TIP3    H129378   5.805   1.228   6.117
 9815TIP3    H229379   5.912   1.292   6.034
 9816TIP3   OH229380   4.727   1.691   7.145
 9816TIP3    H129381   4.782   1.617   7.177
 9816TIP3    H229382   4.759   1.763   7.201
 9817TIP3   OH229383   4.975   1.325   5.811
 9817TIP3    H129384   5.022   1.244   5.788
 9817TIP3    H229385   5.018   1.351   5.893
 9818TIP3   OH229386   4.965   1.366   6.114
 9818TIP3    H129387   5.036   1.317   6.157
 9818TIP3    H229388   5.015   1.446   6.086
 9819TIP3   OH229389   4.700   1.033   6.301
 9819TIP3    H129390   4.635   1.080   6.357
 9819TIP3    H229391   4.718   1.101   6.234
 9820TIP3   OH229392   5.429   0.593   6.431
 9820TIP3    H129393   5.481   0.675   6.412
 9820TIP3    H229394   5.454   0.580   6.523
 9821TIP3   OH229395   5.698   0.920   7.271
 9821TIP3    H129396   5.694   0.980   7.347
 9821TIP3    H229397   5.758   0.852   7.304
 9822TIP3   OH229398   5.981   1.018   6.640
 9822TIP3    H129399   5.903   0.962   6.657
 9822TIP3    H229400   6.053   0.971   6.687
 9823TIP3   OH229401   4.699   1.245   6.109
 9823TIP3    H129402   4.771   1.312   6.117
 9823TIP3    H229403   4.739   1.190   6.038
 9824TIP3   OH229404   4.637   0.518   6.234
 9824TIP3    H129405   4.632   0.615   6.225
 9824TIP3    H229406   4.549   0.490   6.208
 9825TIP3   OH229407   5.947   1.972   6.586
 9825TIP3    H129408   5.905   2.020   6.510
 9825TIP3    H229409   6.042   1.992   6.566
 9826TIP3   OH229410   4.565   1.459   6.495
 9826TIP3    H129411   4.493   1.489   6.553
 9826TIP3    H229412   4.538   1.499   6.409
 9827TIP3   OH229413   4.723   2.000   7.566
 9827TIP3    H129414   4.809   2.003   7.613
 9827TIP3    H229415   4.708   1.904   7.563
 9828TIP3   OH229416   5.200   1.963   7.611
 9828TIP3    H129417   5.294   1.945   7.620
 9828TIP3    H229418   5.176   1.903   7.537
 9829TIP3   OH229419   5.840   1.871   7.344
 9829TIP3    H129420   5.832   1.800   7.412
 9829TIP3    H229421   5.918   1.921   7.374
 9830TIP3   OH229422   5.618   1.577   5.648
 9830TIP3    H129423   5.659   1.508   5.705
 9830TIP3    H229424   5.674   1.574   5.568
 9831TIP3   OH229425   4.850   1.407   7.764
 9831TIP3    H129426   4.870   1.311   7.772
 9831TIP3    H229427   4.763   1.405   7.718
 9832TIP3   OH229428   4.826   1.054   5.960
 9832TIP3    H129429   4.885   1.021   6.029
 9832TIP3    H229430   4.891   1.066   5.887
 9833TIP3   OH229431   5.458   1.492   7.541
 9833TIP3    H129432   5.418   1.508   7.453
 9833TIP3    H229433   5.489   1.399   7.534
 9834TIP3   OH229434   5.334   1.254   5.763
 9834TIP3    H129435   5.333   1.275   5.858
 9834TIP3    H229436   5.341   1.156   5.764
 9835TIP3   OH229437   5.950   1.502   7.146
 9835TIP3    H129438   6.026   1.544   7.101
 9835TIP3    H229439   5.881   1.570   7.131
 9836TIP3   OH229440   4.968   1.146   7.742
 9836TIP3    H129441   5.035   1.077   7.732
 9836TIP3    H229442   4.992   1.176   7.833
 9837TIP3   OH229443   5.034   0.960   6.182
 9837TIP3    H129444   5.014   0.916   6.265
 9837TIP3    H229445   5.072   0.887   6.128
 9838TIP3   OH229446   5.302   1.050   7.404
 9838TIP3    H129447   5.221   1.105   7.403
 9838TIP3    H229448   5.349   1.079   7.323
 9839TIP3   OH229449   5.136   0.753   6.029
 9839TIP3    H129450   5.109   0.755   5.935
 9839TIP3    H229451   5.234   0.758   6.020
 9840TIP3   OH229452   5.824   1.429   7.543
 9840TIP3    H129453   5.900   1.399   7.492
 9840TIP3    H229454   5.815   1.359   7.610
 9841TIP3   OH229455   5.956   1.082   5.687
 9841TIP3    H129456   5.945   1.033   5.603
 9841TIP3    H229457   5.924   1.171   5.658
 9842TIP3   OH229458   5.394   0.832   7.530
 9842TIP3    H129459   5.347   0.771   7.471
 9842TIP3    H229460   5.366   0.918   7.490
 9843TIP3   OH229461   5.466   1.140   7.210
 9843TIP3    H129462   5.549   1.147   7.160
 9843TIP3    H229463   5.409   1.206   7.165
 9844TIP3   OH229464   6.037   1.109   7.576
 9844TIP3    H129465   6.068   1.043   7.640
 9844TIP3    H229466   6.120   1.154   7.551
 9845TIP3   OH229467   6.080   1.354   7.331
 9845TIP3    H129468   6.022   1.410   7.273
 9845TIP3    H229469   6.168   1.376   7.291
 9846TIP3   OH229470   5.281   0.958   7.756
 9846TIP3    H129471   5.222   0.893   7.796
 9846TIP3    H229472   5.332   0.907   7.691
 9847TIP3   OH229473   5.673   0.886   7.568
 9847TIP3    H129474   5.700   0.857   7.658
 9847TIP3    H229475   5.577   0.873   7.573
 9848TIP3   OH229476   4.944   1.850   5.939
 9848TIP3    H129477   5.003   1.773   5.944
 9848TIP3    H229478   4.945   1.874   5.845
 9849TIP3   OH229479   4.427   1.198   6.144
 9849TIP3    H129480   4.522   1.221   6.129
 9849TIP3    H229481   4.422   1.110   6.102
 9850TIP3   OH229482   4.337   1.811   6.560
 9850TIP3    H129483   4.272   1.747   6.523
 9850TIP3    H229484   4.383   1.754   6.625
 9851TIP3   OH229485   4.470   1.661   6.747
 9851TIP3    H129486   4.463   1.587   6.809
 9851TIP3    H229487   4.525   1.722   6.799
 9852TIP3   OH229488   6.199   2.068   6.544
 9852TIP3    H129489   6.232   2.096   6.631
 9852TIP3    H229490   6.269   2.099   6.484
 9853TIP3   OH229491   6.232   2.082   6.828
 9853TIP3    H129492   6.187   1.995   6.822
 9853TIP3    H229493   6.308   2.057   6.884
 9854TIP3   OH229494   6.277   1.760   7.399
 9854TIP3    H129495   6.203   1.769   7.462
 9854TIP3    H229496   6.319   1.848   7.404
 9855TIP3   OH229497   6.092   1.273   6.018
 9855TIP3    H129498   6.162   1.334   5.987
 9855TIP3    H229499   6.138   1.232   6.096
 9856TIP3   OH229500   6.222   1.144   6.220
 9856TIP3    H129501   6.157   1.104   6.282
 9856TIP3    H229502   6.289   1.183   6.280
 9857TIP3   OH229503   6.273   1.529   6.651
 9857TIP3    H129504   6.330   1.464   6.606
 9857TIP3    H229505   6.272   1.603   6.587
 9858TIP3   OH229506   6.106   1.832   6.848
 9858TIP3    H129507   6.034   1.871   6.901
 9858TIP3    H229508   6.057   1.783   6.779
 9859TIP3   OH229509   6.153   1.045   5.871
 9859TIP3    H129510   6.084   1.051   5.801
 9859TIP3    H229511   6.129   1.123   5.924
 9860TIP3   OH229512   6.021   0.710   5.812
 9860TIP3    H129513   6.034   0.773   5.739
 9860TIP3    H229514   5.970   0.641   5.766
 9861TIP3   OH229515   6.032   1.009   6.366
 9861TIP3    H129516   6.039   0.914   6.343
 9861TIP3    H229517   6.023   1.008   6.464
 9862TIP3   OH229518   4.660   1.072   7.115
 9862TIP3    H129519   4.658   1.041   7.022
 9862TIP3    H229520   4.757   1.071   7.132
 9863TIP3   OH229521   6.321   1.421   7.219
 9863TIP3    H129522   6.394   1.356   7.217
 9863TIP3    H229523   6.352   1.490   7.158
 9864TIP3   OH229524   6.504   1.231   7.262
 9864TIP3    H129525   6.430   1.173   7.289
 9864TIP3    H229526   6.578   1.166   7.261
 9865TIP3   OH229527   6.033   0.760   6.234
 9865TIP3    H129528   6.061   0.680   6.286
 9865TIP3    H229529   6.099   0.760   6.160
 9866TIP3   OH229530   6.189   0.890   6.765
 9866TIP3    H129531   6.275   0.914   6.722
 9866TIP3    H229532   6.206   0.927   6.854
 9867TIP3   OH229533   6.254   1.038   6.990
 9867TIP3    H129534   6.178   1.076   7.038
 9867TIP3    H229535   6.289   1.116   6.943
 9868TIP3   OH229536   4.873   0.753   7.771
 9868TIP3    H129537   4.962   0.772   7.804
 9868TIP3    H229538   4.852   0.669   7.817
 9869TIP3   OH229539   4.639   0.721   7.193
 9869TIP3    H129540   4.686   0.723   7.107
 9869TIP3    H229541   4.670   0.802   7.233
 9870TIP3   OH229542   5.783   1.937   6.194
 9870TIP3    H129543   5.833   1.922   6.111
 9870TIP3    H229544   5.837   2.004   6.237
 9871TIP3   OH229545   4.885   1.735   7.584
 9871TIP3    H129546   4.794   1.704   7.570
 9871TIP3    H229547   4.900   1.712   7.677
 9872TIP3   OH229548   5.064   1.765   7.133
 9872TIP3    H129549   5.018   1.842   7.094
 9872TIP3    H229550   5.151   1.778   7.089
 9873TIP3   OH229551   5.508   2.010   7.271
 9873TIP3    H129552   5.550   2.009   7.360
 9873TIP3    H229553   5.574   2.060   7.219
 9874TIP3   OH229554   5.688   2.162   7.130
 9874TIP3    H129555   5.758   2.110   7.090
 9874TIP3    H229556   5.740   2.219   7.191
 9875TIP3   OH229557   4.741   2.021   7.159
 9875TIP3    H129558   4.650   2.053   7.136
 9875TIP3    H229559   4.756   2.067   7.242
 9876TIP3   OH229560   4.976   2.001   7.015
 9876TIP3    H129561   4.890   2.013   7.060
 9876TIP3    H229562   4.957   2.033   6.925
 9877TIP3   OH229563   5.401   2.031   6.815
 9877TIP3    H129564   5.332   2.053   6.751
 9877TIP3    H229565   5.418   2.118   6.858
 9878TIP3   OH229566   5.671   1.967   6.867
 9878TIP3    H129567   5.578   1.981   6.842
 9878TIP3    H229568   5.715   2.043   6.824
 9879TIP3   OH229569   5.879   2.159   6.780
 9879TIP3    H129570   5.865   2.243   6.731
 9879TIP3    H229571   5.905   2.099   6.707
 9880TIP3   OH229572   4.651   1.814   6.902
 9880TIP3    H129573   4.679   1.788   6.993
 9880TIP3    H229574   4.724   1.772   6.851
 9881TIP3   OH229575   4.846   1.688   6.759
 9881TIP3    H129576   4.863   1.603   6.807
 9881TIP3    H229577   4.937   1.723   6.752
 9882TIP3   OH229578   5.116   1.783   6.764
 9882TIP3    H129579   5.143   1.689   6.753
 9882TIP3    H229580   5.163   1.803   6.847
 9883TIP3   OH229581   4.438   1.587   6.295
 9883TIP3    H129582   4.354   1.554   6.258
 9883TIP3    H229583   4.429   1.681   6.273
 9884TIP3   OH229584   5.929   1.891   5.970
 9884TIP3    H129585   5.921   1.794   5.954
 9884TIP3    H229586   5.885   1.927   5.890
 9885TIP3   OH229587   4.518   1.610   5.933
 9885TIP3    H129588   4.530   1.627   6.027
 9885TIP3    H229589   4.604   1.568   5.909
 9886TIP3   OH229590   6.156   2.038   7.157
 9886TIP3    H129591   6.078   2.006   7.108
 9886TIP3    H229592   6.137   2.133   7.161
 9887TIP3   OH229593   7.426   1.410   5.920
 9887TIP3    H129594   7.397   1.502   5.898
 9887TIP3    H229595   7.344   1.362   5.902
 9888TIP3   OH229596   7.425   1.411   6.289
 9888TIP3    H129597   7.436   1.389   6.383
 9888TIP3    H229598   7.365   1.340   6.260
 9889TIP3   OH229599   6.719   1.308   6.672
 9889TIP3    H129600   6.756   1.241   6.733
 9889TIP3    H229601   6.798   1.336   6.623
 9890TIP3   OH229602   7.673   1.710   5.985
 9890TIP3    H129603   7.644   1.647   6.052
 9890TIP3    H229604   7.697   1.788   6.037
 9891TIP3   OH229605   6.690   1.724   6.402
 9891TIP3    H129606   6.686   1.634   6.363
 9891TIP3    H229607   6.786   1.733   6.400
 9892TIP3   OH229608   6.389   0.925   6.195
 9892TIP3    H129609   6.339   1.009   6.198
 9892TIP3    H229610   6.332   0.872   6.138
 9893TIP3   OH229611   6.458   1.219   6.348
 9893TIP3    H129612   6.499   1.136   6.380
 9893TIP3    H229613   6.527   1.254   6.289
 9894TIP3   OH229614   7.319   2.176   6.002
 9894TIP3    H129615   7.363   2.105   5.950
 9894TIP3    H229616   7.305   2.131   6.086
 9895TIP3   OH229617   7.217   1.639   6.358
 9895TIP3    H129618   7.239   1.565   6.300
 9895TIP3    H229619   7.306   1.676   6.375
 9896TIP3   OH229620   7.635   1.142   6.402
 9896TIP3    H129621   7.659   1.051   6.420
 9896TIP3    H229622   7.602   1.139   6.310
 9897TIP3   OH229623   6.967   0.753   6.309
 9897TIP3    H129624   6.942   0.845   6.284
 9897TIP3    H229625   6.879   0.714   6.320
 9898TIP3   OH229626   7.630   0.913   6.021
 9898TIP3    H129627   7.691   0.864   6.079
 9898TIP3    H229628   7.681   0.914   5.938
 9899TIP3   OH229629   6.578   0.997   6.448
 9899TIP3    H129630   6.671   0.998   6.481
 9899TIP3    H229631   6.591   0.937   6.372
 9900TIP3   OH229632   7.068   1.199   6.212
 9900TIP3    H129633   7.145   1.166   6.262
 9900TIP3    H229634   7.006   1.124   6.214
 9901TIP3   OH229635   7.316   1.631   5.789
 9901TIP3    H129636   7.276   1.617   5.703
 9901TIP3    H229637   7.272   1.714   5.817
 9902TIP3   OH229638   7.085   1.555   6.587
 9902TIP3    H129639   7.016   1.618   6.616
 9902TIP3    H229640   7.116   1.598   6.504
 9903TIP3   OH229641   6.836   0.958   6.510
 9903TIP3    H129642   6.899   1.008   6.564
 9903TIP3    H229643   6.861   0.867   6.537
 9904TIP3   OH229644   6.905   1.749   6.676
 9904TIP3    H129645   6.875   1.832   6.634
 9904TIP3    H229646   6.827   1.730   6.732
 9905TIP3   OH229647   6.297   1.436   5.913
 9905TIP3    H129648   6.262   1.461   5.826
 9905TIP3    H229649   6.332   1.521   5.947
 9906TIP3   OH229650   7.739   1.957   6.151
 9906TIP3    H129651   7.650   1.948   6.192
 9906TIP3    H229652   7.729   2.042   6.104
 9907TIP3   OH229653   7.440   2.001   5.829
 9907TIP3    H129654   7.489   1.919   5.804
 9907TIP3    H229655   7.499   2.068   5.787
 9908TIP3   OH229656   7.580   1.785   5.735
 9908TIP3    H129657   7.538   1.706   5.698
 9908TIP3    H229658   7.619   1.749   5.818
 9909TIP3   OH229659   7.941   1.858   6.490
 9909TIP3    H129660   7.943   1.790   6.421
 9909TIP3    H229661   7.945   1.941   6.438
 9910TIP3   OH229662   7.252   1.256   5.749
 9910TIP3    H129663   7.173   1.312   5.732
 9910TIP3    H229664   7.299   1.261   5.664
 9911TIP3   OH229665   7.210   1.043   5.478
 9911TIP3    H129666   7.283   1.095   5.516
 9911TIP3    H229667   7.259   0.978   5.426
 9912TIP3   OH229668   8.184   1.496   6.338
 9912TIP3    H129669   8.093   1.531   6.348
 9912TIP3    H229670   8.204   1.525   6.246
 9913TIP3   OH229671   7.601   1.343   5.722
 9913TIP3    H129672   7.545   1.369   5.799
 9913TIP3    H229673   7.685   1.323   5.768
 9914TIP3   OH229674   7.860   1.371   6.523
 9914TIP3    H129675   7.907   1.441   6.572
 9914TIP3    H229676   7.806   1.421   6.462
 9915TIP3   OH229677   6.963   1.763   6.283
 9915TIP3    H129678   6.919   1.681   6.250
 9915TIP3    H229679   7.052   1.727   6.300
 9916TIP3   OH229680   6.987   1.307   6.497
 9916TIP3    H129681   6.963   1.314   6.403
 9916TIP3    H229682   7.018   1.397   6.516
 9917TIP3   OH229683   7.500   1.951   6.274
 9917TIP3    H129684   7.482   2.031   6.326
 9917TIP3    H229685   7.481   1.879   6.336
 9918TIP3   OH229686   7.105   1.869   6.820
 9918TIP3    H129687   7.044   1.932   6.863
 9918TIP3    H229688   7.041   1.816   6.768
 9919TIP3   OH229689   7.444   1.199   5.549
 9919TIP3    H129690   7.501   1.262   5.600
 9919TIP3    H229691   7.469   1.223   5.456
 9920TIP3   OH229692   6.853   1.446   6.922
 9920TIP3    H129693   6.852   1.526   6.980
 9920TIP3    H229694   6.759   1.419   6.928
 9921TIP3   OH229695   7.192   1.878   5.822
 9921TIP3    H129696   7.268   1.936   5.836
 9921TIP3    H229697   7.124   1.938   5.788
 9922TIP3   OH229698   6.903   2.039   6.907
 9922TIP3    H129699   6.868   2.037   6.816
 9922TIP3    H229700   6.823   2.017   6.960
 9923TIP3   OH229701   7.751   1.811   5.141
 9923TIP3    H129702   7.758   1.909   5.133
 9923TIP3    H229703   7.845   1.785   5.133
 9924TIP3   OH229704   6.480   1.573   6.851
 9924TIP3    H129705   6.418   1.547   6.781
 9924TIP3    H229706   6.518   1.487   6.879
 9925TIP3   OH229707   6.338   1.760   6.487
 9925TIP3    H129708   6.433   1.748   6.473
 9925TIP3    H229709   6.337   1.838   6.544
 9926TIP3   OH229710   8.184   2.223   6.533
 9926TIP3    H129711   8.198   2.128   6.542
 9926TIP3    H229712   8.103   2.235   6.587
 9927TIP3   OH229713   7.305   1.994   6.676
 9927TIP3    H129714   7.305   2.088   6.707
 9927TIP3    H229715   7.232   1.957   6.730
 9928TIP3   OH229716   7.065   2.126   5.631
 9928TIP3    H129717   7.022   2.108   5.545
 9928TIP3    H229718   7.034   2.216   5.651
 9929TIP3   OH229719   6.504   1.976   6.013
 9929TIP3    H129720   6.552   1.965   6.098
 9929TIP3    H229721   6.455   1.892   6.009
 9930TIP3   OH229722   7.265   2.026   5.268
 9930TIP3    H129723   7.326   1.958   5.231
 9930TIP3    H229724   7.304   2.041   5.356
 9931TIP3   OH229725   7.317   2.073   5.540
 9931TIP3    H129726   7.229   2.082   5.584
 9931TIP3    H229727   7.371   2.037   5.612
 9932TIP3   OH229728   6.687   1.756   6.842
 9932TIP3    H129729   6.736   1.737   6.924
 9932TIP3    H229730   6.614   1.691   6.847
 9933TIP3   OH229731   7.523   1.240   5.293
 9933TIP3    H129732   7.484   1.221   5.206
 9933TIP3    H229733   7.597   1.299   5.269
 9934TIP3   OH229734   7.039   1.083   6.650
 9934TIP3    H129735   6.997   1.125   6.729
 9934TIP3    H229736   7.029   1.159   6.587
 9935TIP3   OH229737   6.901   0.971   6.161
 9935TIP3    H129738   6.805   0.956   6.178
 9935TIP3    H229739   6.907   0.963   6.065
 9936TIP3   OH229740   7.385   1.061   5.886
 9936TIP3    H129741   7.336   1.135   5.843
 9936TIP3    H229742   7.452   1.040   5.818
 9937TIP3   OH229743   7.537   1.131   6.146
 9937TIP3    H129744   7.475   1.174   6.085
 9937TIP3    H229745   7.558   1.050   6.095
 9938TIP3   OH229746   6.822   1.120   6.858
 9938TIP3    H129747   6.862   1.181   6.921
 9938TIP3    H229748   6.818   1.037   6.906
 9939TIP3   OH229749   6.464   0.734   5.988
 9939TIP3    H129750   6.473   0.723   5.891
 9939TIP3    H229751   6.368   0.751   5.993
 9940TIP3   OH229752   7.503   1.338   6.540
 9940TIP3    H129753   7.548   1.266   6.490
 9940TIP3    H229754   7.567   1.348   6.613
 9941TIP3   OH229755   6.649   0.848   6.212
 9941TIP3    H129756   6.558   0.883   6.197
 9941TIP3    H229757   6.640   0.763   6.169
 9942TIP3   OH229758   6.955   0.922   5.865
 9942TIP3    H129759   7.043   0.889   5.894
 9942TIP3    H229760   6.908   0.839   5.848
 9943TIP3   OH229761   6.754   0.898   5.683
 9943TIP3    H129762   6.668   0.861   5.657
 9943TIP3    H229763   6.800   0.875   5.600
 9944TIP3   OH229764   7.891   2.565   6.638
 9944TIP3    H129765   7.890   2.589   6.543
 9944TIP3    H229766   7.955   2.627   6.675
 9945TIP3   OH229767   6.844   1.686   7.067
 9945TIP3    H129768   6.924   1.715   7.115
 9945TIP3    H229769   6.779   1.682   7.141
 9946TIP3   OH229770   7.307   1.125   6.328
 9946TIP3    H129771   7.389   1.095   6.288
 9946TIP3    H229772   7.316   1.096   6.422
 9947TIP3   OH229773   7.316   1.046   6.591
 9947TIP3    H129774   7.220   1.034   6.607
 9947TIP3    H229775   7.345   1.088   6.673
 9948TIP3   OH229776   7.027   1.412   5.707
 9948TIP3    H129777   6.938   1.426   5.674
 9948TIP3    H229778   7.016   1.442   5.801
 9949TIP3   OH229779   7.936   1.633   6.329
 9949TIP3    H129780   7.961   1.687   6.251
 9949TIP3    H229781   7.847   1.601   6.303
 9950TIP3   OH229782   7.461   0.796   5.521
 9950TIP3    H129783   7.400   0.745   5.578
 9950TIP3    H229784   7.497   0.861   5.585
 9951TIP3   OH229785   7.441   1.744   6.707
 9951TIP3    H129786   7.395   1.698   6.778
 9951TIP3    H229787   7.391   1.828   6.700
 9952TIP3   OH229788   7.562   0.989   5.683
 9952TIP3    H129789   7.659   1.001   5.689
 9952TIP3    H229790   7.535   1.065   5.627
 9953TIP3   OH229791   7.173   1.565   5.525
 9953TIP3    H129792   7.124   1.651   5.529
 9953TIP3    H229793   7.121   1.511   5.588
 9954TIP3   OH229794   6.589   1.367   6.996
 9954TIP3    H129795   6.625   1.350   7.086
 9954TIP3    H229796   6.528   1.293   6.982
 9955TIP3   OH229797   7.322   1.487   7.014
 9955TIP3    H129798   7.262   1.436   6.957
 9955TIP3    H229799   7.397   1.427   7.020
 9956TIP3   OH229800   7.582   1.995   6.588
 9956TIP3    H129801   7.486   1.984   6.594
 9956TIP3    H229802   7.599   2.045   6.671
 9957TIP3   OH229803   7.995   1.061   5.492
 9957TIP3    H129804   7.934   1.012   5.432
 9957TIP3    H229805   7.982   1.152   5.457
 9958TIP3   OH229806   7.689   1.877   5.405
 9958TIP3    H129807   7.666   1.809   5.469
 9958TIP3    H229808   7.703   1.829   5.322
 9959TIP3   OH229809   7.691   1.504   6.268
 9959TIP3    H129810   7.595   1.482   6.267
 9959TIP3    H229811   7.725   1.434   6.209
 9960TIP3   OH229812   6.819   1.737   5.955
 9960TIP3    H129813   6.798   1.828   5.928
 9960TIP3    H229814   6.753   1.717   6.023
 9961TIP3   OH229815   6.382   1.040   5.716
 9961TIP3    H129816   6.427   1.126   5.732
 9961TIP3    H229817   6.303   1.050   5.773
 9962TIP3   OH229818   6.952   1.497   5.950
 9962TIP3    H129819   6.918   1.590   5.956
 9962TIP3    H229820   6.926   1.467   6.039
 9963TIP3   OH229821   7.087   2.085   6.472
 9963TIP3    H129822   7.128   2.157   6.419
 9963TIP3    H229823   7.165   2.048   6.517
 9964TIP3   OH229824   6.732   1.985   5.850
 9964TIP3    H129825   6.647   1.993   5.898
 9964TIP3    H229826   6.765   2.078   5.855
 9965TIP3   OH229827   7.477   1.719   6.433
 9965TIP3    H129828   7.474   1.717   6.531
 9965TIP3    H229829   7.552   1.661   6.414
 9966TIP3   OH229830   7.451   1.606   5.313
 9966TIP3    H129831   7.502   1.584   5.394
 9966TIP3    H229832   7.361   1.587   5.343
 9967TIP3   OH229833   7.722   2.254   6.482
 9967TIP3    H129834   7.644   2.195   6.472
 9967TIP3    H229835   7.707   2.316   6.407
 9968TIP3   OH229836   7.785   2.086   5.135
 9968TIP3    H129837   7.817   2.162   5.083
 9968TIP3    H229838   7.705   2.130   5.173
 9969TIP3   OH229839   7.611   1.543   5.528
 9969TIP3    H129840   7.602   1.477   5.600
 9969TIP3    H229841   7.708   1.543   5.516
 9970TIP3   OH229842   6.524   1.948   6.631
 9970TIP3    H129843   6.577   1.870   6.654
 9970TIP3    H229844   6.558   2.012   6.694
 9971TIP3   OH229845   6.816   1.593   5.317
 9971TIP3    H129846   6.829   1.503   5.284
 9971TIP3    H229847   6.806   1.578   5.413
 9972TIP3   OH229848   6.784   1.596   5.600
 9972TIP3    H129849   6.816   1.602   5.690
 9972TIP3    H229850   6.769   1.691   5.582
 9973TIP3   OH229851   6.502   1.285   5.770
 9973TIP3    H129852   6.456   1.321   5.848
 9973TIP3    H229853   6.508   1.364   5.714
 9974TIP3   OH229854   7.028   1.794   5.533
 9974TIP3    H129855   6.941   1.819   5.569
 9974TIP3    H229856   7.045   1.870   5.475
 9975TIP3   OH229857   7.221   0.846   5.916
 9975TIP3    H129858   7.278   0.927   5.907
 9975TIP3    H229859   7.233   0.826   6.010
 9976TIP3   OH229860   7.479   1.152   6.810
 9976TIP3    H129861   7.526   1.234   6.793
 9976TIP3    H229862   7.541   1.090   6.769
 9977TIP3   OH229863   6.767   1.867   5.599
 9977TIP3    H129864   6.739   1.938   5.537
 9977TIP3    H229865   6.752   1.910   5.686
 9978TIP3   OH229866   7.775   1.278   6.122
 9978TIP3    H129867   7.694   1.226   6.141
 9978TIP3    H229868   7.843   1.230   6.173
 9979TIP3   OH229869   6.487   1.504   5.596
 9979TIP3    H129870   6.545   1.581   5.601
 9979TIP3    H229871   6.533   1.452   5.526
 9980TIP3   OH229872   6.448   0.775   5.703
 9980TIP3    H129873   6.423   0.870   5.713
 9980TIP3    H229874   6.362   0.733   5.685
 9981TIP3   OH229875   7.742   2.231   6.071
 9981TIP3    H129876   7.700   2.276   5.995
 9981TIP3    H229877   7.837   2.249   6.051
 9982TIP3   OH229878   6.359   1.721   5.980
 9982TIP3    H129879   6.287   1.748   6.039
 9982TIP3    H229880   6.329   1.760   5.895
 9983TIP3   OH229881   6.517   2.257   7.053
 9983TIP3    H129882   6.603   2.255   7.099
 9983TIP3    H229883   6.496   2.162   7.050
 9984TIP3   OH229884   6.996   2.225   7.093
 9984TIP3    H129885   7.089   2.202   7.104
 9984TIP3    H229886   6.970   2.163   7.022
 9985TIP3   OH229887   6.978   1.797   5.224
 9985TIP3    H129888   6.924   1.725   5.264
 9985TIP3    H229889   7.054   1.747   5.190
 9986TIP3   OH229890   7.602   2.120   6.831
 9986TIP3    H129891   7.600   2.050   6.900
 9986TIP3    H229892   7.684   2.169   6.853
 9987TIP3   OH229893   7.414   1.835   5.134
 9987TIP3    H129894   7.465   1.778   5.195
 9987TIP3    H229895   7.473   1.840   5.056
 9988TIP3   OH229896   6.644   1.662   7.254
 9988TIP3    H129897   6.660   1.567   7.262
 9988TIP3    H229898   6.557   1.664   7.208
 9989TIP3   OH229899   6.613   1.324   5.432
 9989TIP3    H129900   6.643   1.254   5.491
 9989TIP3    H229901   6.686   1.328   5.367
 9990TIP3   OH229902   7.263   1.757   7.011
 9990TIP3    H129903   7.204   1.777   6.935
 9990TIP3    H229904   7.277   1.660   7.004
 9991TIP3   OH229905   7.136   1.513   5.256
 9991TIP3    H129906   7.138   1.527   5.352
 9991TIP3    H229907   7.138   1.415   5.252
 9992TIP3   OH229908   7.754   1.755   6.658
 9992TIP3    H129909   7.820   1.797   6.598
 9992TIP3    H229910   7.674   1.805   6.633
 9993TIP3   OH229911   6.768   1.385   7.220
 9993TIP3    H129912   6.845   1.328   7.211
 9993TIP3    H229913   6.774   1.409   7.315
 9994TIP3   OH229914   7.062   1.299   6.840
 9994TIP3    H129915   6.990   1.361   6.857
 9994TIP3    H229916   7.120   1.347   6.780
 9995TIP3   OH229917   6.938   1.045   5.540
 9995TIP3    H129918   6.903   1.040   5.448
 9995TIP3    H229919   7.034   1.042   5.520
 9996TIP3   OH229920   7.758   1.338   5.171
 9996TIP3    H129921   7.733   1.296   5.086
 9996TIP3    H229922   7.726   1.430   5.151
 9997TIP3   OH229923   7.229   1.123   6.985
 9997TIP3    H129924   7.250   1.183   6.910
 9997TIP3    H229925   7.148   1.083   6.950
 9998TIP3   OH229926   7.281   1.411   6.711
 9998TIP3    H129927   7.344   1.383   6.641
 9998TIP3    H229928   7.220   1.468   6.659
 9999TIP3   OH229929   7.035   1.186   7.188
 9999TIP3    H129930   7.006   1.094   7.198
 9999TIP3    H229931   7.106   1.181   7.121
10000TIP3   OH229932   6.741   2.071   5.414
10000TIP3    H129933   6.836   2.067   5.396
10000TIP3    H229934   6.711   2.121   5.336
10001TIP3   OH229935   6.219   1.454   5.630
10001TIP3    H129936   6.314   1.475   5.616
10001TIP3    H229937   6.212   1.366   5.587
10002TIP3   OH229938   6.133   2.065   6.045
10002TIP3    H129939   6.068   2.002   6.007
10002TIP3    H229940   6.179   2.007   6.110
10003TIP3   OH229941   6.266   1.917   6.234
10003TIP3    H129942   6.262   1.841   6.295
10003TIP3    H229943   6.321   1.978   6.286
10004TIP3   OH229944   7.999   2.313   6.030
10004TIP3    H129945   8.027   2.352   6.115
10004TIP3    H229946   8.065   2.350   5.968
10005TIP3   OH229947   8.026   2.341   6.315
10005TIP3    H129948   7.982   2.254   6.306
10005TIP3    H229949   8.099   2.315   6.373
10006TIP3   OH229950   7.891   1.527   5.501
10006TIP3    H129951   7.956   1.595   5.474
10006TIP3    H229952   7.933   1.492   5.582
10007TIP3   OH229953   8.013   1.407   5.712
10007TIP3    H129954   7.944   1.360   5.764
10007TIP3    H229955   8.065   1.451   5.781
10008TIP3   OH229956   8.068   1.788   6.144
10008TIP3    H129957   8.117   1.724   6.090
10008TIP3    H229958   8.065   1.867   6.086
10009TIP3   OH229959   7.905   2.090   6.334
10009TIP3    H129960   7.831   2.126   6.386
10009TIP3    H229961   7.857   2.041   6.264
10010TIP3   OH229962   7.949   1.299   5.357
10010TIP3    H129963   7.881   1.309   5.287
10010TIP3    H229964   7.927   1.378   5.411
10011TIP3   OH229965   7.821   0.960   5.298
10011TIP3    H129966   7.802   1.044   5.253
10011TIP3    H229967   7.764   0.899   5.248
10012TIP3   OH229968   7.832   1.263   5.853
10012TIP3    H129969   7.832   1.168   5.831
10012TIP3    H229970   7.816   1.265   5.949
10013TIP3   OH229971   6.457   1.328   6.604
10013TIP3    H129972   6.457   1.296   6.511
10013TIP3    H229973   6.554   1.329   6.623
10014TIP3   OH229974   7.833   1.012   5.722
10014TIP3    H129975   7.860   0.933   5.773
10014TIP3    H229976   7.899   1.015   5.650
10015TIP3   OH229977   7.985   1.159   6.252
10015TIP3    H129978   8.076   1.171   6.225
10015TIP3    H229979   7.986   1.185   6.345
10016TIP3   OH229980   6.662   1.006   7.253
10016TIP3    H129981   6.757   1.012   7.271
10016TIP3    H229982   6.636   0.927   7.304
10017TIP3   OH229983   6.434   0.977   6.682
10017TIP3    H129984   6.479   0.976   6.594
10017TIP3    H229985   6.470   1.058   6.719
10018TIP3   OH229986   7.580   2.185   5.695
10018TIP3    H129987   7.624   2.163   5.609
10018TIP3    H229988   7.641   2.252   5.727
10019TIP3   OH229989   6.683   1.994   7.075
10019TIP3    H129990   6.592   1.963   7.058
10019TIP3    H229991   6.696   1.970   7.168
10020TIP3   OH229992   6.861   2.024   6.623
10020TIP3    H129993   6.813   2.100   6.583
10020TIP3    H229994   6.946   2.036   6.576
10021TIP3   OH229995   7.302   2.263   6.756
10021TIP3    H129996   7.342   2.267   6.845
10021TIP3    H229997   7.368   2.313   6.703
10022TIP3   OH229998   7.479   2.415   6.614
10022TIP3    H129999   7.548   2.365   6.568
10022TIP3    H230000   7.533   2.476   6.669
10023TIP3   OH230001   6.538   2.281   6.642
10023TIP3    H130002   6.448   2.314   6.619
10023TIP3    H230003   6.545   2.312   6.733
10024TIP3   OH230004   6.775   2.260   6.503
10024TIP3    H130005   6.687   2.271   6.547
10024TIP3    H230006   6.755   2.289   6.412
10025TIP3   OH230007   7.200   2.284   6.301
10025TIP3    H130008   7.130   2.300   6.234
10025TIP3    H230009   7.210   2.373   6.340
10026TIP3   OH230010   7.468   2.225   6.354
10026TIP3    H130011   7.373   2.240   6.333
10026TIP3    H230012   7.509   2.297   6.303
10027TIP3   OH230013   7.678   2.417   6.266
10027TIP3    H130014   7.661   2.501   6.217
10027TIP3    H230015   7.701   2.357   6.192
10028TIP3   OH230016   6.447   2.070   6.391
10028TIP3    H130017   6.476   2.043   6.480
10028TIP3    H230018   6.519   2.028   6.338
10029TIP3   OH230019   6.643   1.945   6.247
10029TIP3    H130020   6.658   1.861   6.297
10029TIP3    H230021   6.735   1.979   6.241
10030TIP3   OH230022   6.911   2.036   6.247
10030TIP3    H130023   6.937   1.942   6.234
10030TIP3    H230024   6.957   2.053   6.332
10031TIP3   OH230025   6.235   1.846   5.778
10031TIP3    H130026   6.149   1.815   5.743
10031TIP3    H230027   6.230   1.940   5.750
10032TIP3   OH230028   7.009   2.030   5.365
10032TIP3    H130029   7.097   2.053   5.328
10032TIP3    H230030   6.986   1.956   5.304
10033TIP3   OH230031   7.719   2.142   5.471
10033TIP3    H130032   7.711   2.053   5.431
10033TIP3    H230033   7.711   2.201   5.394
10034TIP3   OH230034   6.312   1.868   5.417
10034TIP3    H130035   6.313   1.897   5.510
10034TIP3    H230036   6.400   1.826   5.408
10035TIP3   OH230037   7.940   2.295   6.644
10035TIP3    H130038   7.867   2.267   6.585
10035TIP3    H230039   7.927   2.392   6.642
10036TIP3   OH230040   8.484   1.948   5.938
10036TIP3    H130041   8.435   1.892   5.877
10036TIP3    H230042   8.570   1.953   5.892
10037TIP3   OH230043   8.197   1.204   5.693
10037TIP3    H130044   8.127   1.270   5.683
10037TIP3    H230045   8.163   1.131   5.639
10038TIP3   OH230046   8.278   1.460   5.836
10038TIP3    H130047   8.284   1.365   5.825
10038TIP3    H230048   8.307   1.493   5.749
10039TIP3   OH230049   8.095   1.692   5.396
10039TIP3    H130050   8.046   1.720   5.317
10039TIP3    H230051   8.116   1.780   5.436
10040TIP3   OH230052   8.297   1.799   6.307
10040TIP3    H130053   8.222   1.812   6.245
10040TIP3    H230054   8.251   1.767   6.384
10041TIP3   OH230055   8.133   2.012   5.993
10041TIP3    H130056   8.223   2.029   5.961
10041TIP3    H230057   8.108   2.100   6.026
10042TIP3   OH230058   8.268   2.224   5.492
10042TIP3    H130059   8.350   2.235   5.542
10042TIP3    H230060   8.209   2.185   5.559
10043TIP3   OH230061   8.259   0.982   5.463
10043TIP3    H130062   8.269   0.997   5.367
10043TIP3    H230063   8.164   0.999   5.474
10044TIP3   OH230064   8.175   1.294   5.197
10044TIP3    H130065   8.222   1.379   5.215
10044TIP3    H230066   8.097   1.305   5.256
10045TIP3   OH230067   8.317   2.213   6.117
10045TIP3    H130068   8.363   2.134   6.146
10045TIP3    H230069   8.354   2.282   6.173
10046TIP3   OH230070   8.279   1.540   5.262
10046TIP3    H130071   8.217   1.584   5.323
10046TIP3    H230072   8.282   1.605   5.188
10047TIP3   OH230073   8.278   1.735   5.065
10047TIP3    H130074   8.341   1.803   5.096
10047TIP3    H230075   8.307   1.724   4.972
10048TIP3   OH230076   8.236   1.029   5.189
10048TIP3    H130077   8.224   1.126   5.193
10048TIP3    H230078   8.145   0.997   5.183
10049TIP3   OH230079   8.133   1.948   5.468
10049TIP3    H130080   8.092   2.003   5.536
10049TIP3    H230081   8.132   2.010   5.393
10050TIP3   OH230082   8.278   2.480   6.517
10050TIP3    H130083   8.366   2.476   6.557
10050TIP3    H230084   8.250   2.386   6.521
10051TIP3   OH230085   8.008   1.706   5.117
10051TIP3    H130086   8.103   1.724   5.102
10051TIP3    H230087   7.999   1.618   5.076
10052TIP3   OH230088   8.101   2.155   5.699
10052TIP3    H130089   8.036   2.110   5.754
10052TIP3    H230090   8.121   2.234   5.752
10053TIP3   OH230091   8.253   1.584   6.080
10053TIP3    H130092   8.257   1.541   5.991
10053TIP3    H230093   8.344   1.615   6.091
10054TIP3   OH230094   8.334   2.532   6.141
10054TIP3    H130095   8.254   2.567   6.096
10054TIP3    H230096   8.311   2.553   6.232
10055TIP3   OH230097   8.591   2.514   6.006
10055TIP3    H130098   8.502   2.518   6.045
10055TIP3    H230099   8.571   2.548   5.916
10056TIP3   OH230100   8.237   2.335   5.880
10056TIP3    H130101   8.269   2.308   5.969
10056TIP3    H230102   8.308   2.293   5.825
10057TIP3   OH230103   8.425   2.200   5.740
10057TIP3    H130104   8.429   2.103   5.740
10057TIP3    H230105   8.516   2.221   5.710
10058TIP3   OH230106   8.042   2.097   5.247
10058TIP3    H130107   7.951   2.071   5.227
10058TIP3    H230108   8.030   2.193   5.254
10059TIP3   OH230109   8.104   2.132   4.919
10059TIP3    H130110   8.065   2.175   4.998
10059TIP3    H230111   8.179   2.084   4.957
10060TIP3   OH230112   1.645   2.431   7.083
10060TIP3    H130113   1.661   2.527   7.066
10060TIP3    H230114   1.559   2.439   7.124
10061TIP3   OH230115   1.651   2.451   7.456
10061TIP3    H130116   1.700   2.446   7.541
10061TIP3    H230117   1.608   2.364   7.454
10062TIP3   OH230118   1.912   2.749   7.168
10062TIP3    H130119   1.911   2.691   7.245
10062TIP3    H230120   1.942   2.833   7.207
10063TIP3   OH230121   0.948   2.764   7.566
10063TIP3    H130122   0.933   2.667   7.571
10063TIP3    H230123   1.046   2.767   7.560
10064TIP3   OH230124   0.699   2.229   7.497
10064TIP3    H130125   0.750   2.202   7.574
10064TIP3    H230126   0.755   2.298   7.460
10065TIP3   OH230127   1.562   3.218   7.175
10065TIP3    H130128   1.609   3.146   7.128
10065TIP3    H230129   1.558   3.185   7.265
10066TIP3   OH230130   1.473   2.675   7.513
10066TIP3    H130131   1.518   2.599   7.474
10066TIP3    H230132   1.551   2.721   7.551
10067TIP3   OH230133   2.474   2.003   7.516
10067TIP3    H130134   2.492   2.080   7.576
10067TIP3    H230135   2.498   2.041   7.430
10068TIP3   OH230136   1.873   2.164   7.568
10068TIP3    H130137   1.926   2.085   7.588
10068TIP3    H230138   1.851   2.150   7.474
10069TIP3   OH230139   1.249   1.841   7.522
10069TIP3    H130140   1.201   1.920   7.488
10069TIP3    H230141   1.185   1.770   7.503
10070TIP3   OH230142   1.908   1.931   7.157
10070TIP3    H130143   1.984   1.919   7.219
10070TIP3    H230144   1.955   1.953   7.075
10071TIP3   OH230145   1.300   2.243   7.422
10071TIP3    H130146   1.392   2.213   7.436
10071TIP3    H230147   1.256   2.161   7.391
10072TIP3   OH230148   2.533   2.194   7.701
10072TIP3    H130149   2.450   2.246   7.695
10072TIP3    H230150   2.590   2.250   7.756
10073TIP3   OH230151   1.564   2.675   6.965
10073TIP3    H130152   1.524   2.668   6.877
10073TIP3    H230153   1.524   2.759   6.995
10074TIP3   OH230154   2.123   1.938   7.326
10074TIP3    H130155   2.122   1.895   7.412
10074TIP3    H230156   2.178   2.016   7.344
10075TIP3   OH230157   0.563   2.481   7.089
10075TIP3    H130158   0.507   2.501   7.012
10075TIP3    H230159   0.579   2.569   7.127
10076TIP3   OH230160   1.983   2.997   7.320
10076TIP3    H130161   1.894   2.991   7.362
10076TIP3    H230162   1.978   3.086   7.280
10077TIP3   OH230163   2.273   1.886   7.691
10077TIP3    H130164   2.191   1.931   7.668
10077TIP3    H230165   2.337   1.924   7.629
10078TIP3   OH230166   1.688   3.044   7.001
10078TIP3    H130167   1.740   2.964   6.978
10078TIP3    H230168   1.746   3.113   6.962
10079TIP3   OH230169   1.832   2.828   6.912
10079TIP3    H130170   1.792   2.750   6.872
10079TIP3    H230171   1.866   2.793   6.997
10080TIP3   OH230172   2.207   2.913   7.672
10080TIP3    H130173   2.200   2.836   7.611
10080TIP3    H230174   2.192   2.988   7.611
10081TIP3   OH230175   2.402   2.538   7.511
10081TIP3    H130176   2.324   2.597   7.522
10081TIP3    H230177   2.438   2.572   7.426
10082TIP3   OH230178   1.845   2.374   6.897
10082TIP3    H130179   1.792   2.405   6.974
10082TIP3    H230180   1.931   2.356   6.940
10083TIP3   OH230181   2.073   2.452   7.787
10083TIP3    H130182   2.080   2.546   7.812
10083TIP3    H230183   1.992   2.455   7.733
10084TIP3   OH230184   1.086   2.388   7.310
10084TIP3    H130185   1.046   2.326   7.246
10084TIP3    H230186   1.160   2.335   7.347
10085TIP3   OH230187   1.217   2.798   7.465
10085TIP3    H130188   1.198   2.756   7.379
10085TIP3    H230189   1.306   2.762   7.486
10086TIP3   OH230190   1.201   2.378   7.648
10086TIP3    H130191   1.244   2.328   7.576
10086TIP3    H230192   1.271   2.439   7.676
10087TIP3   OH230193   1.746   2.993   7.448
10087TIP3    H130194   1.729   3.078   7.492
10087TIP3    H230195   1.724   2.927   7.516
10088TIP3   OH230196   1.660   2.266   6.728
10088TIP3    H130197   1.732   2.306   6.777
10088TIP3    H230198   1.693   2.270   6.637
10089TIP3   OH230199   1.437   2.923   7.001
10089TIP3    H130200   1.516   2.979   7.016
10089TIP3    H230201   1.374   2.986   6.964
10090TIP3   OH230202   2.207   1.491   6.778
10090TIP3    H130203   2.116   1.507   6.808
10090TIP3    H230204   2.223   1.569   6.720
10091TIP3   OH230205   0.956   2.227   7.108
10091TIP3    H130206   0.885   2.274   7.059
10091TIP3    H230207   0.908   2.151   7.143
10092TIP3   OH230208   2.005   2.855   6.325
10092TIP3    H130209   2.012   2.952   6.310
10092TIP3    H230210   2.098   2.828   6.312
10093TIP3   OH230211   2.442   3.257   7.712
10093TIP3    H130212   2.448   3.162   7.731
10093TIP3    H230213   2.365   3.281   7.768
10094TIP3   OH230214   1.575   3.059   7.874
10094TIP3    H130215   1.522   3.137   7.894
10094TIP3    H230216   1.505   2.989   7.870
10095TIP3   OH230217   1.316   3.171   6.807
10095TIP3    H130218   1.272   3.155   6.722
10095TIP3    H230219   1.286   3.261   6.831
10096TIP3   OH230220   0.754   3.021   7.187
10096TIP3    H130221   0.801   3.013   7.272
10096TIP3    H230222   0.698   2.942   7.189
10097TIP3   OH230223   1.517   3.074   6.444
10097TIP3    H130224   1.576   3.004   6.408
10097TIP3    H230225   1.553   3.085   6.535
10098TIP3   OH230226   1.567   3.121   6.714
10098TIP3    H130227   1.479   3.132   6.756
10098TIP3    H230228   1.621   3.091   6.789
10099TIP3   OH230229   1.766   2.282   6.480
10099TIP3    H130230   1.732   2.263   6.391
10099TIP3    H230231   1.845   2.338   6.456
10100TIP3   OH230232   1.497   1.643   6.780
10100TIP3    H130233   1.455   1.648   6.869
10100TIP3    H230234   1.439   1.578   6.736
10101TIP3   OH230235   1.160   2.029   7.327
10101TIP3    H130236   1.070   1.993   7.348
10101TIP3    H230237   1.174   1.984   7.241
10102TIP3   OH230238   1.602   2.140   7.003
10102TIP3    H130239   1.643   2.220   7.036
10102TIP3    H230240   1.678   2.092   6.960
10103TIP3   OH230241   1.797   2.131   7.309
10103TIP3    H130242   1.756   2.186   7.240
10103TIP3    H230243   1.827   2.053   7.257
10104TIP3   OH230244   1.150   1.642   6.748
10104TIP3    H130245   1.124   1.628   6.841
10104TIP3    H230246   1.071   1.690   6.714
10105TIP3   OH230247   1.810   2.407   7.671
10105TIP3    H130248   1.837   2.315   7.649
10105TIP3    H230249   1.785   2.401   7.765
10106TIP3   OH230250   1.485   1.839   7.387
10106TIP3    H130251   1.398   1.841   7.433
10106TIP3    H230252   1.546   1.851   7.461
10107TIP3   OH230253   0.943   1.879   7.377
10107TIP3    H130254   0.852   1.899   7.407
10107TIP3    H230255   0.952   1.786   7.402
10108TIP3   OH230256   1.183   1.891   7.091
10108TIP3    H130257   1.275   1.912   7.067
10108TIP3    H230258   1.131   1.921   7.014
10109TIP3   OH230259   1.970   1.912   7.616
10109TIP3    H130260   1.943   1.916   7.709
10109TIP3    H230261   1.900   1.857   7.576
10110TIP3   OH230262   1.021   1.936   6.878
10110TIP3    H130263   0.937   1.894   6.851
10110TIP3    H230264   1.068   1.938   6.792
10111TIP3   OH230265   2.153   3.605   7.802
10111TIP3    H130266   2.154   3.625   7.706
10111TIP3    H230267   2.233   3.654   7.831
10112TIP3   OH230268   1.567   2.175   7.479
10112TIP3    H130269   1.645   2.138   7.433
10112TIP3    H230270   1.586   2.153   7.571
10113TIP3   OH230271   1.110   1.625   7.402
10113TIP3    H130272   1.043   1.582   7.348
10113TIP3    H230273   1.180   1.643   7.337
10114TIP3   OH230274   1.307   2.423   6.885
10114TIP3    H130275   1.220   2.379   6.871
10114TIP3    H230276   1.284   2.476   6.965
10115TIP3   OH230277   2.177   2.695   7.504
10115TIP3    H130278   2.204   2.747   7.425
10115TIP3    H230279   2.089   2.662   7.479
10116TIP3   OH230280   1.749   1.754   6.753
10116TIP3    H130281   1.653   1.738   6.766
10116TIP3    H230282   1.759   1.846   6.785
10117TIP3   OH230283   1.805   2.021   6.843
10117TIP3    H130284   1.901   2.020   6.863
10117TIP3    H230285   1.800   2.086   6.772
10118TIP3   OH230286   0.963   2.478   7.550
10118TIP3    H130287   1.003   2.457   7.464
10118TIP3    H230288   1.031   2.440   7.610
10119TIP3   OH230289   1.417   2.607   6.702
10119TIP3    H130290   1.370   2.694   6.705
10119TIP3    H230291   1.366   2.556   6.767
10120TIP3   OH230292   1.837   3.018   7.797
10120TIP3    H130293   1.742   3.038   7.812
10120TIP3    H230294   1.879   3.082   7.857
10121TIP3   OH230295   2.242   2.111   6.681
10121TIP3    H130296   2.179   2.067   6.619
10121TIP3    H230297   2.239   2.201   6.641
10122TIP3   OH230298   2.453   2.967   7.764
10122TIP3    H130299   2.356   2.959   7.751
10122TIP3    H230300   2.483   2.937   7.676
10123TIP3   OH230301   1.941   2.930   6.587
10123TIP3    H130302   1.919   2.859   6.649
10123TIP3    H230303   1.957   2.884   6.503
10124TIP3   OH230304   1.938   2.567   7.411
10124TIP3    H130305   1.850   2.536   7.438
10124TIP3    H230306   1.976   2.484   7.375
10125TIP3   OH230307   1.068   2.781   7.170
10125TIP3    H130308   1.067   2.866   7.122
10125TIP3    H230309   0.975   2.772   7.192
10126TIP3   OH230310   0.613   2.094   6.901
10126TIP3    H130311   0.677   2.169   6.902
10126TIP3    H230312   0.549   2.128   6.966
10127TIP3   OH230313   1.210   2.548   7.115
10127TIP3    H130314   1.175   2.638   7.131
10127TIP3    H230315   1.170   2.500   7.190
10128TIP3   OH230316   1.332   3.131   7.632
10128TIP3    H130317   1.373   3.208   7.588
10128TIP3    H230318   1.409   3.091   7.674
10129TIP3   OH230319   0.989   3.023   7.033
10129TIP3    H130320   0.902   3.034   7.076
10129TIP3    H230321   1.022   3.115   7.035
10130TIP3   OH230322   1.727   2.761   7.613
10130TIP3    H130323   1.756   2.780   7.703
10130TIP3    H230324   1.809   2.723   7.577
10131TIP3   OH230325   1.700   2.647   6.491
10131TIP3    H130326   1.752   2.626   6.572
10131TIP3    H230327   1.610   2.635   6.522
10132TIP3   OH230328   1.962   3.296   7.654
10132TIP3    H130329   1.880   3.247   7.634
10132TIP3    H230330   1.959   3.365   7.584
10133TIP3   OH230331   2.037   3.130   6.310
10133TIP3    H130332   2.073   3.201   6.253
10133TIP3    H230333   1.958   3.177   6.345
10134TIP3   OH230334   1.859   2.584   6.708
10134TIP3    H130335   1.854   2.515   6.777
10134TIP3    H230336   1.956   2.588   6.694
10135TIP3   OH230337   1.073   2.634   6.489
10135TIP3    H130338   1.077   2.541   6.461
10135TIP3    H230339   1.051   2.627   6.584
10136TIP3   OH230340   1.019   2.640   6.760
10136TIP3    H130341   1.072   2.625   6.839
10136TIP3    H230342   1.013   2.739   6.761
10137TIP3   OH230343   0.750   2.333   6.958
10137TIP3    H130344   0.685   2.377   7.018
10137TIP3    H230345   0.760   2.405   6.892
10138TIP3   OH230346   1.277   2.838   6.709
10138TIP3    H130347   1.190   2.864   6.745
10138TIP3    H230348   1.295   2.915   6.653
10139TIP3   OH230349   1.464   1.906   7.115
10139TIP3    H130350   1.517   1.986   7.096
10139TIP3    H230351   1.472   1.898   7.214
10140TIP3   OH230352   1.635   1.659   7.232
10140TIP3    H130353   1.596   1.716   7.301
10140TIP3    H230354   1.696   1.722   7.190
10141TIP3   OH230355   1.018   2.911   6.779
10141TIP3    H130356   0.991   2.980   6.715
10141TIP3    H230357   1.003   2.957   6.864
10142TIP3   OH230358   1.138   1.628   7.030
10142TIP3    H130359   1.142   1.723   7.052
10142TIP3    H230360   1.234   1.608   7.031
10143TIP3   OH230361   2.024   2.314   7.302
10143TIP3    H130362   1.954   2.252   7.328
10143TIP3    H230363   2.102   2.276   7.349
10144TIP3   OH230364   0.740   2.544   6.772
10144TIP3    H130365   0.795   2.624   6.776
10144TIP3    H230366   0.784   2.497   6.699
10145TIP3   OH230367   0.738   1.855   6.823
10145TIP3    H130368   0.708   1.938   6.865
10145TIP3    H230369   0.679   1.792   6.866
10146TIP3   OH230370   1.993   3.269   7.249
10146TIP3    H130371   1.951   3.317   7.174
10146TIP3    H230372   2.088   3.290   7.230
10147TIP3   OH230373   0.607   2.765   7.161
10147TIP3    H130374   0.530   2.796   7.211
10147TIP3    H230375   0.585   2.803   7.072
10148TIP3   OH230376   1.228   2.843   6.399
10148TIP3    H130377   1.174   2.769   6.437
10148TIP3    H230378   1.302   2.793   6.359
10149TIP3   OH230379   1.663   2.879   6.311
10149TIP3    H130380   1.720   2.825   6.368
10149TIP3    H230381   1.715   2.885   6.229
10150TIP3   OH230382   0.873   2.358   6.617
10150TIP3    H130383   0.927   2.333   6.693
10150TIP3    H230384   0.941   2.362   6.547
10151TIP3   OH230385   1.392   2.548   6.433
10151TIP3    H130386   1.387   2.576   6.527
10151TIP3    H230387   1.372   2.453   6.442
10152TIP3   OH230388   1.979   2.780   7.767
10152TIP3    H130389   2.070   2.812   7.757
10152TIP3    H230390   1.934   2.865   7.788
10153TIP3   OH230391   1.095   2.251   6.855
10153TIP3    H130392   1.051   2.227   6.939
10153TIP3    H230393   1.107   2.164   6.812
10154TIP3   OH230394   1.187   2.046   6.671
10154TIP3    H130395   1.119   2.025   6.605
10154TIP3    H230396   1.255   2.080   6.610
10155TIP3   OH230397   2.001   2.382   6.352
10155TIP3    H130398   1.979   2.339   6.268
10155TIP3    H230399   1.972   2.474   6.331
10156TIP3   OH230400   0.989   3.108   6.589
10156TIP3    H130401   1.084   3.111   6.571
10156TIP3    H230402   0.957   3.162   6.515
10157TIP3   OH230403   0.477   2.485   6.814
10157TIP3    H130404   0.569   2.514   6.798
10157TIP3    H230405   0.472   2.403   6.761
10158TIP3   OH230406   0.377   3.111   7.217
10158TIP3    H130407   0.313   3.051   7.176
10158TIP3    H230408   0.417   3.056   7.287
10159TIP3   OH230409   0.510   2.966   7.406
10159TIP3    H130410   0.524   2.886   7.457
10159TIP3    H230411   0.562   3.031   7.458
10160TIP3   OH230412   2.247   3.360   7.209
10160TIP3    H130413   2.274   3.395   7.296
10160TIP3    H230414   2.308   3.406   7.149
10161TIP3   OH230415   2.276   3.382   7.493
10161TIP3    H130416   2.235   3.293   7.486
10161TIP3    H230417   2.350   3.360   7.551
10162TIP3   OH230418   2.139   2.571   6.681
10162TIP3    H130419   2.205   2.637   6.652
10162TIP3    H230420   2.185   2.533   6.760
10163TIP3   OH230421   2.267   2.435   6.883
10163TIP3    H130422   2.201   2.399   6.947
10163TIP3    H230423   2.334   2.475   6.942
10164TIP3   OH230424   2.317   2.831   7.314
10164TIP3    H130425   2.376   2.770   7.266
10164TIP3    H230426   2.316   2.909   7.255
10165TIP3   OH230427   2.149   3.131   7.510
10165TIP3    H130428   2.078   3.173   7.562
10165TIP3    H230429   2.099   3.084   7.440
10166TIP3   OH230430   2.204   2.346   6.533
10166TIP3    H130431   2.132   2.350   6.466
10166TIP3    H230432   2.180   2.424   6.587
10167TIP3   OH230433   2.073   2.021   6.490
10167TIP3    H130434   2.032   2.064   6.413
10167TIP3    H230435   2.047   1.928   6.475
10168TIP3   OH230436   2.074   2.297   7.033
10168TIP3    H130437   2.092   2.201   7.031
10168TIP3    H230438   2.065   2.314   7.129
10169TIP3   OH230439   2.337   2.695   7.869
10169TIP3    H130440   2.425   2.654   7.881
10169TIP3    H230441   2.360   2.786   7.847
10170TIP3   OH230442   2.541   2.519   7.904
10170TIP3    H130443   2.480   2.463   7.952
10170TIP3    H230444   2.619   2.461   7.895
10171TIP3   OH230445   2.020   1.755   6.471
10171TIP3    H130446   2.096   1.724   6.524
10171TIP3    H230447   1.948   1.694   6.495
10172TIP3   OH230448   2.072   2.010   6.924
10172TIP3    H130449   2.117   1.923   6.940
10172TIP3    H230450   2.131   2.047   6.856
10173TIP3   OH230451   2.236   2.190   7.423
10173TIP3    H130452   2.323   2.214   7.384
10173TIP3    H230453   2.249   2.226   7.513
10174TIP3   OH230454   2.297   2.332   7.660
10174TIP3    H130455   2.224   2.373   7.711
10174TIP3    H230456   2.333   2.410   7.613
10175TIP3   OH230457   2.182   1.762   6.969
10175TIP3    H130458   2.236   1.755   7.051
10175TIP3    H230459   2.160   1.670   6.953
10176TIP3   OH230460   2.265   1.695   6.598
10176TIP3    H130461   2.306   1.625   6.543
10176TIP3    H230462   2.330   1.767   6.592
10177TIP3   OH230463   1.831   3.226   6.866
10177TIP3    H130464   1.883   3.217   6.783
10177TIP3    H230465   1.879   3.298   6.911
10178TIP3   OH230466   1.091   3.072   7.782
10178TIP3    H130467   1.070   3.157   7.739
10178TIP3    H230468   1.185   3.066   7.760
10179TIP3   OH230469   1.728   3.462   7.759
10179TIP3    H130470   1.811   3.414   7.744
10179TIP3    H230471   1.742   3.498   7.848
10180TIP3   OH230472   1.010   3.308   7.673
10180TIP3    H130473   0.939   3.358   7.717
10180TIP3    H230474   0.997   3.335   7.579
10181TIP3   OH230475   1.449   3.331   7.474
10181TIP3    H130476   1.379   3.348   7.408
10181TIP3    H230477   1.463   3.420   7.512
10182TIP3   OH230478   1.716   3.260   7.519
10182TIP3    H130479   1.622   3.283   7.506
10182TIP3    H230480   1.759   3.342   7.487
10183TIP3   OH230481   1.924   3.459   7.442
10183TIP3    H130482   1.908   3.545   7.396
10183TIP3    H230483   1.949   3.401   7.367
10184TIP3   OH230484   0.693   3.112   7.555
10184TIP3    H130485   0.716   3.102   7.648
10184TIP3    H230486   0.770   3.069   7.511
10185TIP3   OH230487   0.893   2.988   7.421
10185TIP3    H130488   0.909   2.904   7.470
10185TIP3    H230489   0.983   3.026   7.418
10186TIP3   OH230490   1.156   3.078   7.427
10186TIP3    H130491   1.187   2.986   7.417
10186TIP3    H230492   1.206   3.103   7.507
10187TIP3   OH230493   1.744   1.744   7.509
10187TIP3    H130494   1.723   1.672   7.569
10187TIP3    H230495   1.813   1.704   7.453
10188TIP3   OH230496   2.252   1.600   7.406
10188TIP3    H130497   2.297   1.659   7.341
10188TIP3    H230498   2.171   1.649   7.424
10189TIP3   OH230499   2.350   1.721   7.179
10189TIP3    H130500   2.425   1.668   7.145
10189TIP3    H230501   2.388   1.812   7.168
10190TIP3   OH230502   1.408   1.506   7.365
10190TIP3    H130503   1.496   1.539   7.346
10190TIP3    H230504   1.404   1.506   7.461
10191TIP3   OH230505   1.962   1.623   7.392
10191TIP3    H130506   1.995   1.579   7.314
10191TIP3    H230507   1.953   1.547   7.454
10192TIP3   OH230508   1.965   1.538   6.947
10192TIP3    H130509   1.963   1.625   6.989
10192TIP3    H230510   2.000   1.482   7.019
10193TIP3   OH230511   0.478   2.890   6.959
10193TIP3    H130512   0.404   2.847   6.915
10193TIP3    H230513   0.471   2.981   6.922
10194TIP3   OH230514   1.412   1.647   7.045
10194TIP3    H130515   1.461   1.604   7.117
10194TIP3    H230516   1.430   1.741   7.065
10195TIP3   OH230517   1.260   3.074   6.543
10195TIP3    H130518   1.345   3.101   6.504
10195TIP3    H230519   1.236   3.002   6.481
10196TIP3   OH230520   1.976   3.197   6.632
10196TIP3    H130521   1.966   3.100   6.618
10196TIP3    H230522   1.931   3.232   6.553
10197TIP3   OH230523   0.556   2.904   6.600
10197TIP3    H130524   0.559   2.955   6.682
10197TIP3    H230525   0.648   2.870   6.591
10198TIP3   OH230526   2.187   3.329   7.814
10198TIP3    H130527   2.111   3.312   7.755
10198TIP3    H230528   2.181   3.425   7.825
10199TIP3   OH230529   3.469   2.709   6.583
10199TIP3    H130530   3.443   2.802   6.567
10199TIP3    H230531   3.389   2.663   6.552
10200TIP3   OH230532   3.464   2.710   6.970
10200TIP3    H130533   3.501   2.692   7.058
10200TIP3    H230534   3.427   2.625   6.945
10201TIP3   OH230535   2.769   2.606   7.330
10201TIP3    H130536   2.794   2.538   7.396
10201TIP3    H230537   2.837   2.673   7.350
10202TIP3   OH230538   3.711   3.013   6.651
10202TIP3    H130539   3.701   2.948   6.722
10202TIP3    H230540   3.740   3.091   6.700
10203TIP3   OH230541   2.735   3.013   7.050
10203TIP3    H130542   2.726   2.916   7.059
10203TIP3    H230543   2.831   3.024   7.057
10204TIP3   OH230544   2.449   2.215   6.840
10204TIP3    H130545   2.407   2.301   6.859
10204TIP3    H230546   2.375   2.169   6.798
10205TIP3   OH230547   2.501   2.506   7.010
10205TIP3    H130548   2.554   2.433   7.050
10205TIP3    H230549   2.570   2.561   6.971
10206TIP3   OH230550   3.359   3.475   6.663
10206TIP3    H130551   3.405   3.402   6.617
10206TIP3    H230552   3.355   3.442   6.754
10207TIP3   OH230553   3.268   2.935   7.012
10207TIP3    H130554   3.314   2.859   6.971
10207TIP3    H230555   3.348   2.985   7.039
10208TIP3   OH230556   4.279   2.258   7.014
10208TIP3    H130557   4.308   2.340   7.060
10208TIP3    H230558   4.302   2.280   6.922
10209TIP3   OH230559   3.675   2.438   7.046
10209TIP3    H130560   3.722   2.356   7.069
10209TIP3    H230561   3.648   2.419   6.955
10210TIP3   OH230562   3.010   2.102   7.008
10210TIP3    H130563   2.975   2.177   6.959
10210TIP3    H230564   2.966   2.026   6.964
10211TIP3   OH230565   3.711   2.189   6.634
10211TIP3    H130566   3.783   2.175   6.700
10211TIP3    H230567   3.764   2.224   6.560
10212TIP3   OH230568   2.650   2.302   7.118
10212TIP3    H130569   2.731   2.284   7.170
10212TIP3    H230570   2.663   2.242   7.043
10213TIP3   OH230571   3.098   2.500   6.905
10213TIP3    H130572   3.192   2.478   6.924
10213TIP3    H230573   3.062   2.415   6.876
10214TIP3   OH230574   4.350   2.464   7.185
10214TIP3    H130575   4.267   2.514   7.169
10214TIP3    H230576   4.377   2.499   7.272
10215TIP3   OH230577   3.013   2.079   7.442
10215TIP3    H130578   2.954   2.122   7.377
10215TIP3    H230579   2.965   2.100   7.525
10216TIP3   OH230580   3.352   2.928   6.455
10216TIP3    H130581   3.323   2.924   6.363
10216TIP3    H230582   3.314   3.015   6.482
10217TIP3   OH230583   3.117   2.856   7.240
10217TIP3    H130584   3.055   2.922   7.279
10217TIP3    H230585   3.163   2.910   7.173
10218TIP3   OH230586   3.918   2.194   6.810
10218TIP3    H130587   3.906   2.153   6.896
10218TIP3    H230588   3.973   2.272   6.833
10219TIP3   OH230589   2.881   2.198   7.231
10219TIP3    H130590   2.939   2.274   7.258
10219TIP3    H230591   2.938   2.157   7.163
10220TIP3   OH230592   2.941   3.046   7.332
10220TIP3    H130593   2.925   3.138   7.302
10220TIP3    H230594   2.863   3.036   7.391
10221TIP3   OH230595   2.344   2.737   6.576
10221TIP3    H130596   2.305   2.764   6.491
10221TIP3    H230597   2.372   2.824   6.612
10222TIP3   OH230598   3.779   3.255   6.811
10222TIP3    H130599   3.690   3.248   6.852
10222TIP3    H230600   3.773   3.344   6.769
10223TIP3   OH230601   4.075   2.150   7.176
10223TIP3    H130602   3.989   2.189   7.151
10223TIP3    H230603   4.135   2.186   7.107
10224TIP3   OH230604   3.365   1.797   7.156
10224TIP3    H130605   3.356   1.703   7.180
10224TIP3    H230606   3.290   1.836   7.206
10225TIP3   OH230607   3.481   3.301   6.486
10225TIP3    H130608   3.533   3.220   6.465
10225TIP3    H230609   3.541   3.369   6.448
10226TIP3   OH230610   3.625   3.085   6.398
10226TIP3    H130611   3.595   3.003   6.357
10226TIP3    H230612   3.662   3.053   6.484
10227TIP3   OH230613   4.006   3.170   7.159
10227TIP3    H130614   3.996   3.093   7.100
10227TIP3    H230615   3.989   3.245   7.098
10228TIP3   OH230616   3.297   2.557   6.415
10228TIP3    H130617   3.222   2.615   6.392
10228TIP3    H230618   3.350   2.559   6.333
10229TIP3   OH230619   3.257   2.348   6.135
10229TIP3    H130620   3.325   2.400   6.182
10229TIP3    H230621   3.314   2.286   6.086
10230TIP3   OH230622   4.202   2.804   7.002
10230TIP3    H130623   4.120   2.858   7.009
10230TIP3    H230624   4.233   2.831   6.913
10231TIP3   OH230625   3.647   2.644   6.387
10231TIP3    H130626   3.593   2.670   6.466
10231TIP3    H230627   3.731   2.619   6.431
10232TIP3   OH230628   3.882   2.685   7.303
10232TIP3    H130629   3.882   2.765   7.359
10232TIP3    H230630   3.796   2.697   7.257
10233TIP3   OH230631   2.892   2.654   6.816
10233TIP3    H130632   2.842   2.584   6.773
10233TIP3    H230633   2.972   2.606   6.847
10234TIP3   OH230634   3.011   3.054   6.953
10234TIP3    H130635   2.996   3.015   6.866
10234TIP3    H230636   3.101   3.023   6.974
10235TIP3   OH230637   3.016   2.618   7.150
10235TIP3    H130638   3.061   2.604   7.065
10235TIP3    H230639   3.056   2.703   7.182
10236TIP3   OH230640   3.540   3.252   6.936
10236TIP3    H130641   3.527   3.333   6.988
10236TIP3    H230642   3.525   3.181   7.002
10237TIP3   OH230643   3.152   3.191   7.468
10237TIP3    H130644   3.096   3.243   7.528
10237TIP3    H230645   3.092   3.119   7.444
10238TIP3   OH230646   3.486   2.505   6.214
10238TIP3    H130647   3.547   2.564   6.265
10238TIP3    H230648   3.512   2.528   6.122
10239TIP3   OH230649   2.904   2.726   7.573
10239TIP3    H130650   2.914   2.815   7.613
10239TIP3    H230651   2.809   2.709   7.592
10240TIP3   OH230652   3.231   3.182   6.488
10240TIP3    H130653   3.312   3.234   6.502
10240TIP3    H230654   3.171   3.248   6.452
10241TIP3   OH230655   2.943   3.345   7.572
10241TIP3    H130656   2.909   3.337   7.481
10241TIP3    H230657   2.864   3.323   7.626
10242TIP3   OH230658   4.002   1.744   6.263
10242TIP3    H130659   3.922   1.765   6.314
10242TIP3    H230660   4.015   1.826   6.212
10243TIP3   OH230661   3.801   3.111   5.811
10243TIP3    H130662   3.808   3.208   5.797
10243TIP3    H230663   3.895   3.083   5.799
10244TIP3   OH230664   2.522   2.874   7.518
10244TIP3    H130665   2.458   2.848   7.449
10244TIP3    H230666   2.562   2.788   7.545
10245TIP3   OH230667   2.382   3.061   7.153
10245TIP3    H130668   2.478   3.061   7.143
10245TIP3    H230669   2.369   3.141   7.206
10246TIP3   OH230670   4.245   3.515   7.205
10246TIP3    H130671   4.244   3.419   7.222
10246TIP3    H230672   4.162   3.541   7.251
10247TIP3   OH230673   3.354   3.305   7.331
10247TIP3    H130674   3.353   3.396   7.368
10247TIP3    H230675   3.282   3.264   7.384
10248TIP3   OH230676   3.111   3.427   6.294
10248TIP3    H130677   3.068   3.412   6.208
10248TIP3    H230678   3.081   3.517   6.318
10249TIP3   OH230679   2.550   3.278   6.676
10249TIP3    H130680   2.600   3.270   6.760
10249TIP3    H230681   2.485   3.207   6.686
10250TIP3   OH230682   3.313   3.330   5.932
10250TIP3    H130683   3.372   3.260   5.895
10250TIP3    H230684   3.349   3.341   6.022
10251TIP3   OH230685   3.364   3.379   6.201
10251TIP3    H130686   3.276   3.388   6.245
10251TIP3    H230687   3.418   3.346   6.275
10252TIP3   OH230688   4.139   2.646   7.480
10252TIP3    H130689   4.052   2.657   7.438
10252TIP3    H230690   4.151   2.549   7.475
10253TIP3   OH230691   2.724   3.060   7.496
10253TIP3    H130692   2.779   3.042   7.575
10253TIP3    H230693   2.650   2.996   7.510
10254TIP3   OH230694   3.129   1.877   7.290
10254TIP3    H130695   3.039   1.847   7.266
10254TIP3    H230696   3.105   1.958   7.339
10255TIP3   OH230697   3.664   1.989   7.483
10255TIP3    H130698   3.734   1.969   7.548
10255TIP3    H230699   3.581   1.973   7.533
10256TIP3   OH230700   3.901   2.421   7.398
10256TIP3    H130701   3.856   2.415   7.485
10256TIP3    H230702   3.879   2.512   7.369
10257TIP3   OH230703   3.562   2.546   5.956
10257TIP3    H130704   3.531   2.525   5.866
10257TIP3    H230705   3.643   2.596   5.937
10258TIP3   OH230706   3.272   1.928   6.262
10258TIP3    H130707   3.242   1.920   6.355
10258TIP3    H230708   3.238   1.843   6.227
10259TIP3   OH230709   3.055   2.394   7.300
10259TIP3    H130710   3.029   2.424   7.389
10259TIP3    H230711   3.041   2.477   7.249
10260TIP3   OH230712   2.908   2.302   6.779
10260TIP3    H130713   2.834   2.255   6.827
10260TIP3    H230714   2.961   2.228   6.745
10261TIP3   OH230715   3.432   2.356   6.547
10261TIP3    H130716   3.384   2.431   6.505
10261TIP3    H230717   3.492   2.329   6.474
10262TIP3   OH230718   3.629   2.642   7.619
10262TIP3    H130719   3.597   2.578   7.686
10262TIP3    H230720   3.721   2.656   7.651
10263TIP3   OH230721   3.590   2.389   6.790
10263TIP3    H130722   3.534   2.423   6.718
10263TIP3    H230723   3.626   2.309   6.744
10264TIP3   OH230724   2.869   2.422   7.519
10264TIP3    H130725   2.923   2.486   7.568
10264TIP3    H230726   2.874   2.343   7.575
10265TIP3   OH230727   2.934   1.901   6.225
10265TIP3    H130728   2.921   1.890   6.321
10265TIP3    H230729   2.853   1.950   6.199
10266TIP3   OH230730   2.475   1.944   7.094
10266TIP3    H130731   2.547   1.976   7.153
10266TIP3    H230732   2.522   1.909   7.018
10267TIP3   OH230733   2.443   1.925   6.616
10267TIP3    H130734   2.486   1.965   6.538
10267TIP3    H230735   2.381   1.998   6.639
10268TIP3   OH230736   3.594   2.638   7.208
10268TIP3    H130737   3.632   2.566   7.153
10268TIP3    H230738   3.573   2.587   7.289
10269TIP3   OH230739   3.267   2.109   6.886
10269TIP3    H130740   3.195   2.100   6.951
10269TIP3    H230741   3.346   2.095   6.941
10270TIP3   OH230742   2.710   2.150   6.885
10270TIP3    H130743   2.614   2.163   6.867
10270TIP3    H230744   2.722   2.055   6.874
10271TIP3   OH230745   2.997   2.179   6.536
10271TIP3    H130746   3.092   2.190   6.577
10271TIP3    H230747   3.020   2.138   6.459
10272TIP3   OH230748   3.769   2.177   7.080
10272TIP3    H130749   3.740   2.189   7.174
10272TIP3    H230750   3.702   2.116   7.048
10273TIP3   OH230751   2.785   2.223   6.354
10273TIP3    H130752   2.729   2.158   6.303
10273TIP3    H230753   2.848   2.246   6.280
10274TIP3   OH230754   3.937   3.865   7.305
10274TIP3    H130755   3.935   3.890   7.211
10274TIP3    H230756   4.016   3.913   7.337
10275TIP3   OH230757   2.891   2.972   7.700
10275TIP3    H130758   2.981   2.978   7.742
10275TIP3    H230759   2.837   2.990   7.779
10276TIP3   OH230760   3.355   2.427   6.977
10276TIP3    H130761   3.433   2.393   6.931
10276TIP3    H230762   3.367   2.390   7.067
10277TIP3   OH230763   2.883   1.909   6.852
10277TIP3    H130764   2.842   1.839   6.906
10277TIP3    H230765   2.955   1.859   6.810
10278TIP3   OH230766   3.332   2.328   7.274
10278TIP3    H130767   3.246   2.370   7.289
10278TIP3    H230768   3.394   2.386   7.323
10279TIP3   OH230769   3.077   2.716   6.366
10279TIP3    H130770   2.988   2.685   6.349
10279TIP3    H230771   3.066   2.756   6.456
10280TIP3   OH230772   3.971   2.952   6.993
10280TIP3    H130773   3.996   3.003   6.913
10280TIP3    H230774   3.885   2.913   6.967
10281TIP3   OH230775   3.527   2.027   6.230
10281TIP3    H130776   3.430   2.013   6.237
10281TIP3    H230777   3.538   2.122   6.252
10282TIP3   OH230778   3.464   3.032   7.363
10282TIP3    H130779   3.490   3.012   7.454
10282TIP3    H230780   3.426   3.121   7.371
10283TIP3   OH230781   3.596   2.276   6.331
10283TIP3    H130782   3.692   2.281   6.348
10283TIP3    H230783   3.580   2.356   6.278
10284TIP3   OH230784   2.748   2.720   7.045
10284TIP3    H130785   2.806   2.711   6.967
10284TIP3    H230786   2.801   2.678   7.115
10285TIP3   OH230787   3.218   2.868   6.183
10285TIP3    H130788   3.169   2.953   6.189
10285TIP3    H230789   3.168   2.813   6.247
10286TIP3   OH230790   2.640   2.663   7.648
10286TIP3    H130791   2.679   2.659   7.738
10286TIP3    H230792   2.571   2.595   7.652
10287TIP3   OH230793   3.367   2.715   7.676
10287TIP3    H130794   3.316   2.756   7.606
10287TIP3    H230795   3.459   2.721   7.642
10288TIP3   OH230796   3.628   3.291   7.258
10288TIP3    H130797   3.532   3.293   7.272
10288TIP3    H230798   3.658   3.344   7.336
10289TIP3   OH230799   4.041   2.364   6.161
10289TIP3    H130800   3.976   2.321   6.100
10289TIP3    H230801   4.038   2.454   6.120
10290TIP3   OH230802   4.257   3.223   7.249
10290TIP3    H130803   4.159   3.219   7.240
10290TIP3    H230804   4.283   3.195   7.158
10291TIP3   OH230805   3.737   3.186   6.074
10291TIP3    H130806   3.715   3.115   6.136
10291TIP3    H230807   3.753   3.140   5.990
10292TIP3   OH230808   3.735   2.817   6.907
10292TIP3    H130809   3.642   2.792   6.924
10292TIP3    H230810   3.769   2.736   6.865
10293TIP3   OH230811   2.862   3.040   6.658
10293TIP3    H130812   2.865   3.124   6.608
10293TIP3    H230813   2.769   3.036   6.682
10294TIP3   OH230814   2.429   2.346   6.372
10294TIP3    H130815   2.473   2.433   6.391
10294TIP3    H230816   2.350   2.354   6.430
10295TIP3   OH230817   2.994   2.806   6.604
10295TIP3    H130818   2.962   2.898   6.619
10295TIP3    H230819   2.968   2.764   6.688
10296TIP3   OH230820   3.133   3.384   7.134
10296TIP3    H130821   3.175   3.458   7.085
10296TIP3    H230822   3.208   3.352   7.187
10297TIP3   OH230823   2.784   3.280   6.518
10297TIP3    H130824   2.697   3.290   6.563
10297TIP3    H230825   2.817   3.373   6.522
10298TIP3   OH230826   3.519   3.019   7.096
10298TIP3    H130827   3.507   3.021   7.194
10298TIP3    H230828   3.605   2.976   7.088
10299TIP3   OH230829   3.496   2.907   5.979
10299TIP3    H130830   3.550   2.885   6.058
10299TIP3    H230831   3.407   2.890   6.012
10300TIP3   OH230832   3.769   3.551   7.144
10300TIP3    H130833   3.689   3.496   7.138
10300TIP3    H230834   3.752   3.616   7.072
10301TIP3   OH230835   3.833   3.386   5.796
10301TIP3    H130836   3.870   3.457   5.741
10301TIP3    H230837   3.754   3.433   5.831
10302TIP3   OH230838   2.864   2.160   7.658
10302TIP3    H130839   2.770   2.160   7.680
10302TIP3    H230840   2.902   2.105   7.729
10303TIP3   OH230841   3.657   2.844   6.195
10303TIP3    H130842   3.649   2.778   6.266
10303TIP3    H230843   3.754   2.842   6.179
10304TIP3   OH230844   2.572   3.246   7.295
10304TIP3    H130845   2.626   3.177   7.337
10304TIP3    H230846   2.596   3.323   7.349
10305TIP3   OH230847   2.862   2.894   5.978
10305TIP3    H130848   2.877   2.802   5.948
10305TIP3    H230849   2.847   2.882   6.073
10306TIP3   OH230850   2.818   2.897   6.254
10306TIP3    H130851   2.885   2.895   6.323
10306TIP3    H230852   2.804   2.994   6.248
10307TIP3   OH230853   2.544   2.587   6.444
10307TIP3    H130854   2.485   2.629   6.511
10307TIP3    H230855   2.553   2.661   6.382
10308TIP3   OH230856   3.697   2.221   7.337
10308TIP3    H130857   3.767   2.271   7.384
10308TIP3    H230858   3.682   2.145   7.397
10309TIP3   OH230859   3.566   1.983   6.511
10309TIP3    H130860   3.560   2.005   6.416
10309TIP3    H230861   3.611   2.062   6.547
10310TIP3   OH230862   3.070   3.094   6.196
10310TIP3    H130863   2.983   3.123   6.232
10310TIP3    H230864   3.091   3.170   6.141
10311TIP3   OH230865   3.253   2.165   6.620
10311TIP3    H130866   3.322   2.230   6.597
10311TIP3    H230867   3.271   2.151   6.716
10312TIP3   OH230868   3.530   2.475   7.420
10312TIP3    H130869   3.550   2.536   7.494
10312TIP3    H230870   3.587   2.400   7.443
10313TIP3   OH230871   3.404   1.884   6.712
10313TIP3    H130872   3.424   1.945   6.785
10313TIP3    H230873   3.464   1.920   6.642
10314TIP3   OH230874   2.810   3.167   6.264
10314TIP3    H130875   2.785   3.238   6.201
10314TIP3    H230876   2.798   3.213   6.350
10315TIP3   OH230877   2.914   1.881   6.498
10315TIP3    H130878   2.909   1.948   6.567
10315TIP3    H230879   3.010   1.858   6.503
10316TIP3   OH230880   4.167   2.375   7.402
10316TIP3    H130881   4.069   2.374   7.407
10316TIP3    H230882   4.181   2.345   7.311
10317TIP3   OH230883   3.820   2.571   6.788
10317TIP3    H130884   3.746   2.512   6.805
10317TIP3    H230885   3.894   2.527   6.836
10318TIP3   OH230886   2.532   2.800   6.262
10318TIP3    H130887   2.588   2.879   6.268
10318TIP3    H230888   2.578   2.752   6.189
10319TIP3   OH230889   2.483   2.080   6.396
10319TIP3    H130890   2.475   2.178   6.390
10319TIP3    H230891   2.408   2.052   6.343
10320TIP3   OH230892   3.789   3.527   6.736
10320TIP3    H130893   3.747   3.574   6.661
10320TIP3    H230894   3.884   3.546   6.716
10321TIP3   OH230895   2.864   1.797   7.263
10321TIP3    H130896   2.834   1.761   7.177
10321TIP3    H230897   2.856   1.719   7.322
10322TIP3   OH230898   2.398   3.004   6.642
10322TIP3    H130899   2.337   3.042   6.708
10322TIP3    H230900   2.371   3.052   6.561
10323TIP3   OH230901   2.563   3.561   7.721
10323TIP3    H130902   2.650   3.560   7.767
10323TIP3    H230903   2.546   3.466   7.714
10324TIP3   OH230904   3.038   3.528   7.758
10324TIP3    H130905   3.131   3.503   7.775
10324TIP3    H230906   3.016   3.465   7.687
10325TIP3   OH230907   3.024   3.098   5.886
10325TIP3    H130908   2.969   3.026   5.926
10325TIP3    H230909   3.099   3.047   5.852
10326TIP3   OH230910   3.685   3.426   7.491
10326TIP3    H130911   3.674   3.357   7.560
10326TIP3    H230912   3.760   3.478   7.524
10327TIP3   OH230913   3.458   3.136   5.799
10327TIP3    H130914   3.511   3.078   5.857
10327TIP3    H230915   3.512   3.139   5.717
10328TIP3   OH230916   2.695   2.974   7.893
10328TIP3    H130917   2.717   2.879   7.893
10328TIP3    H230918   2.603   2.974   7.860
10329TIP3   OH230919   2.660   2.618   6.099
10329TIP3    H130920   2.708   2.567   6.165
10329TIP3    H230921   2.729   2.626   6.029
10330TIP3   OH230922   3.178   2.810   5.916
10330TIP3    H130923   3.184   2.827   6.013
10330TIP3    H230924   3.178   2.712   5.914
10331TIP3   OH230925   3.790   3.056   7.292
10331TIP3    H130926   3.865   3.103   7.252
10331TIP3    H230927   3.720   3.125   7.284
10332TIP3   OH230928   2.806   2.685   7.873
10332TIP3    H130929   2.899   2.687   7.848
10332TIP3    H230930   2.810   2.653   7.965
10333TIP3   OH230931   3.127   2.555   7.537
10333TIP3    H130932   3.073   2.633   7.564
10333TIP3    H230933   3.195   2.599   7.482
10334TIP3   OH230934   2.978   2.299   6.178
10334TIP3    H130935   2.952   2.310   6.085
10334TIP3    H230936   3.074   2.316   6.172
10335TIP3   OH230937   3.661   2.984   7.693
10335TIP3    H130938   3.745   2.957   7.653
10335TIP3    H230939   3.654   2.921   7.768
10336TIP3   OH230940   3.804   2.639   5.836
10336TIP3    H130941   3.777   2.596   5.752
10336TIP3    H230942   3.773   2.731   5.817
10337TIP3   OH230943   3.268   2.369   7.686
10337TIP3    H130944   3.274   2.291   7.630
10337TIP3    H230945   3.226   2.435   7.626
10338TIP3   OH230946   3.272   2.154   7.491
10338TIP3    H130947   3.301   2.200   7.410
10338TIP3    H230948   3.178   2.135   7.471
10339TIP3   OH230949   3.295   2.689   7.369
10339TIP3    H130950   3.381   2.703   7.327
10339TIP3    H230951   3.239   2.757   7.324
10340TIP3   OH230952   3.880   2.657   7.740
10340TIP3    H130953   3.926   2.586   7.791
10340TIP3    H230954   3.954   2.715   7.717
10341TIP3   OH230955   3.923   2.909   7.477
10341TIP3    H130956   3.864   2.964   7.421
10341TIP3    H230957   4.010   2.933   7.438
10342TIP3   OH230958   3.113   2.499   7.888
10342TIP3    H130959   3.063   2.416   7.887
10342TIP3    H230960   3.176   2.484   7.815
10343TIP3   OH230961   3.402   1.920   7.560
10343TIP3    H130962   3.355   2.002   7.537
10343TIP3    H230963   3.332   1.852   7.549
10344TIP3   OH230964   3.537   2.428   7.762
10344TIP3    H130965   3.529   2.425   7.859
10344TIP3    H230966   3.444   2.409   7.738
10345TIP3   OH230967   3.766   2.357   7.621
10345TIP3    H130968   3.693   2.375   7.685
10345TIP3    H230969   3.841   2.338   7.681
10346TIP3   OH230970   3.999   2.309   7.766
10346TIP3    H130971   4.008   2.216   7.795
10346TIP3    H230972   3.989   2.358   7.850
10347TIP3   OH230973   2.970   2.263   7.945
10347TIP3    H130974   2.997   2.172   7.919
10347TIP3    H230975   3.029   2.276   8.022
10348TIP3   OH230976   3.499   1.931   7.815
10348TIP3    H130977   3.564   1.860   7.800
10348TIP3    H230978   3.454   1.931   7.729
10349TIP3   OH230979   3.574   2.150   7.973
10349TIP3    H130980   3.546   2.071   7.921
10349TIP3    H230981   3.496   2.207   7.965
10350TIP3   OH230982   2.785   3.366   6.076
10350TIP3    H130983   2.881   3.367   6.058
10350TIP3    H230984   2.755   3.420   6.000
10351TIP3   OH230985   2.264   2.753   6.296
10351TIP3    H130986   2.359   2.776   6.282
10351TIP3    H230987   2.259   2.666   6.251
10352TIP3   OH230988   2.182   3.365   6.709
10352TIP3    H130989   2.113   3.306   6.671
10352TIP3    H230990   2.225   3.306   6.774
10353TIP3   OH230991   2.320   3.212   6.892
10353TIP3    H130992   2.305   3.145   6.960
10353TIP3    H230993   2.370   3.278   6.944
10354TIP3   OH230994   4.044   3.616   6.695
10354TIP3    H130995   4.068   3.649   6.783
10354TIP3    H230996   4.105   3.665   6.637
10355TIP3   OH230997   4.072   3.639   6.976
10355TIP3    H130998   4.029   3.551   6.973
10355TIP3    H230999   4.146   3.618   7.036
10356TIP3   OH231000   4.117   3.316   7.548
10356TIP3    H131001   4.045   3.325   7.614
10356TIP3    H231002   4.160   3.404   7.554
10357TIP3   OH231003   3.937   2.824   6.164
10357TIP3    H131004   4.003   2.891   6.138
10357TIP3    H231005   3.980   2.786   6.244
10358TIP3   OH231006   4.063   2.694   6.371
10358TIP3    H131007   3.998   2.654   6.432
10358TIP3    H231008   4.130   2.732   6.432
10359TIP3   OH231009   4.116   3.088   6.803
10359TIP3    H131010   4.172   3.025   6.754
10359TIP3    H231011   4.112   3.164   6.741
10360TIP3   OH231012   3.946   3.388   6.999
10360TIP3    H131013   3.877   3.431   7.052
10360TIP3    H231014   3.894   3.341   6.930
10361TIP3   OH231015   4.013   2.598   6.015
10361TIP3    H131016   3.942   2.603   5.947
10361TIP3    H231017   3.989   2.676   6.068
10362TIP3   OH231018   3.866   2.278   5.972
10362TIP3    H131019   3.822   2.313   5.894
10362TIP3    H231020   3.845   2.182   5.964
10363TIP3   OH231021   3.874   2.553   6.519
10363TIP3    H131022   3.885   2.456   6.517
10363TIP3    H231023   3.862   2.570   6.615
10364TIP3   OH231024   2.504   2.626   7.268
10364TIP3    H131025   2.502   2.599   7.174
10364TIP3    H231026   2.601   2.628   7.284
10365TIP3   OH231027   4.167   2.978   7.374
10365TIP3    H131028   4.239   2.912   7.364
10365TIP3    H231029   4.196   3.050   7.316
10366TIP3   OH231030   4.351   2.782   7.383
10366TIP3    H131031   4.277   2.733   7.426
10366TIP3    H231032   4.425   2.719   7.401
10367TIP3   OH231033   3.811   2.012   5.961
10367TIP3    H131034   3.889   1.980   6.011
10367TIP3    H231035   3.742   1.949   5.983
10368TIP3   OH231036   3.870   2.267   6.413
10368TIP3    H131037   3.912   2.179   6.428
10368TIP3    H231038   3.929   2.301   6.344
10369TIP3   OH231039   4.033   2.442   6.908
10369TIP3    H131040   4.119   2.467   6.868
10369TIP3    H231041   4.046   2.480   6.997
10370TIP3   OH231042   4.100   2.586   7.139
10370TIP3    H131043   4.026   2.621   7.192
10370TIP3    H231044   4.133   2.667   7.096
10371TIP3   OH231045   2.712   2.304   7.874
10371TIP3    H131046   2.811   2.309   7.872
10371TIP3    H231047   2.702   2.268   7.964
10372TIP3   OH231048   4.554   2.175   7.697
10372TIP3    H131049   4.614   2.112   7.652
10372TIP3    H231050   4.525   2.232   7.622
10373TIP3   OH231051   3.982   2.019   6.452
10373TIP3    H131052   4.030   2.003   6.535
10373TIP3    H231053   3.922   1.941   6.450
10374TIP3   OH231054   2.681   2.004   7.264
10374TIP3    H131055   2.744   1.931   7.280
10374TIP3    H231056   2.742   2.081   7.266
10375TIP3   OH231057   2.483   2.275   7.343
10375TIP3    H131058   2.535   2.280   7.261
10375TIP3    H231059   2.503   2.360   7.385
10376TIP3   OH231060   4.425   2.318   7.506
10376TIP3    H131061   4.342   2.360   7.536
10376TIP3    H231062   4.389   2.251   7.445
10377TIP3   OH231063   4.056   1.949   6.083
10377TIP3    H131064   4.097   1.876   6.031
10377TIP3    H231065   4.126   2.017   6.082
10378TIP3   OH231066   2.469   1.781   6.842
10378TIP3    H131067   2.377   1.784   6.872
10378TIP3    H231068   2.467   1.841   6.764
10379TIP3   OH231069   3.625   3.484   6.351
10379TIP3    H131070   3.679   3.474   6.270
10379TIP3    H231071   3.675   3.552   6.400
10380TIP3   OH231072   2.687   1.886   7.647
10380TIP3    H131073   2.618   1.841   7.696
10380TIP3    H231074   2.632   1.934   7.582
10381TIP3   OH231075   2.722   3.296   7.736
10381TIP3    H131076   2.631   3.264   7.724
10381TIP3    H231077   2.742   3.267   7.826
10382TIP3   OH231078   2.904   3.319   7.282
10382TIP3    H131079   2.859   3.397   7.244
10382TIP3    H231080   2.993   3.332   7.241
10383TIP3   OH231081   3.349   3.568   7.421
10383TIP3    H131082   3.390   3.566   7.511
10383TIP3    H231083   3.417   3.619   7.371
10384TIP3   OH231084   3.530   3.719   7.280
10384TIP3    H131085   3.602   3.667   7.243
10384TIP3    H231086   3.580   3.777   7.342
10385TIP3   OH231087   4.324   2.082   7.380
10385TIP3    H131088   4.234   2.077   7.345
10385TIP3    H231089   4.355   1.989   7.367
10386TIP3   OH231090   2.581   3.575   7.308
10386TIP3    H131091   2.492   3.611   7.286
10386TIP3    H231092   2.597   3.620   7.392
10387TIP3   OH231093   2.818   3.556   7.165
10387TIP3    H131094   2.731   3.569   7.210
10387TIP3    H231095   2.798   3.591   7.076
10388TIP3   OH231096   3.244   3.587   6.963
10388TIP3    H131097   3.175   3.608   6.898
10388TIP3    H231098   3.257   3.673   7.007
10389TIP3   OH231099   3.513   3.524   7.012
10389TIP3    H131100   3.419   3.543   6.995
10389TIP3    H231101   3.556   3.602   6.973
10390TIP3   OH231102   3.719   3.716   6.929
10390TIP3    H131103   3.705   3.802   6.882
10390TIP3    H231104   3.745   3.657   6.855
10391TIP3   OH231105   2.492   3.371   7.051
10391TIP3    H131106   2.520   3.347   7.142
10391TIP3    H231107   2.567   3.330   7.001
10392TIP3   OH231108   2.688   3.244   6.908
10392TIP3    H131109   2.704   3.160   6.958
10392TIP3    H231110   2.779   3.283   6.908
10393TIP3   OH231111   2.953   3.337   6.917
10393TIP3    H131112   2.986   3.246   6.908
10393TIP3    H231113   2.999   3.364   6.999
10394TIP3   OH231114   3.512   1.986   6.976
10394TIP3    H131115   3.483   1.921   7.044
10394TIP3    H231116   3.599   1.949   6.949
10395TIP3   OH231117   4.049   1.873   6.901
10395TIP3    H131118   4.089   1.927   6.829
10395TIP3    H231119   3.956   1.901   6.899
10396TIP3   OH231120   4.147   1.979   6.668
10396TIP3    H131121   4.220   1.925   6.631
10396TIP3    H231122   4.182   2.070   6.654
10397TIP3   OH231123   2.777   1.705   7.011
10397TIP3    H131124   2.686   1.669   7.016
10397TIP3    H231125   2.828   1.621   7.012
10398TIP3   OH231126   2.558   1.574   6.664
10398TIP3    H131127   2.593   1.628   6.592
10398TIP3    H231128   2.535   1.641   6.732
10399TIP3   OH231129   3.214   1.747   6.897
10399TIP3    H131130   3.278   1.788   6.836
10399TIP3    H231131   3.253   1.771   6.983
10400TIP3   OH231132   3.759   1.883   6.882
10400TIP3    H131133   3.775   1.844   6.795
10400TIP3    H231134   3.751   1.803   6.938
10401TIP3   OH231135   3.798   1.806   6.443
10401TIP3    H131136   3.710   1.846   6.455
10401TIP3    H231137   3.787   1.721   6.489
10402TIP3   OH231138   2.281   3.147   6.444
10402TIP3    H131139   2.195   3.117   6.410
10402TIP3    H231140   2.275   3.241   6.421
10403TIP3   OH231141   2.682   1.732   6.425
10403TIP3    H131142   2.727   1.665   6.369
10403TIP3    H231143   2.758   1.782   6.459
10404TIP3   OH231144   3.188   1.913   6.530
10404TIP3    H131145   3.248   1.859   6.583
10404TIP3    H231146   3.220   2.003   6.557
10405TIP3   OH231147   3.055   3.331   6.029
10405TIP3    H131148   3.142   3.356   5.991
10405TIP3    H231149   3.032   3.258   5.967
10406TIP3   OH231150   3.773   3.453   6.119
10406TIP3    H131151   3.763   3.356   6.105
10406TIP3    H231152   3.728   3.487   6.039
10407TIP3   OH231153   3.024   1.998   7.868
10407TIP3    H131154   3.018   1.937   7.944
10407TIP3    H231155   3.119   2.021   7.872
10408TIP3   OH231156   2.354   3.161   6.082
10408TIP3    H131157   2.357   3.201   6.170
10408TIP3    H231158   2.444   3.125   6.071
10409TIP3   OH231159   4.057   2.042   7.793
10409TIP3    H131160   4.083   2.021   7.886
10409TIP3    H231161   4.145   2.048   7.752
10410TIP3   OH231162   3.999   3.596   7.304
10410TIP3    H131163   3.919   3.565   7.258
10410TIP3    H231164   3.979   3.691   7.311
10411TIP3   OH231165   5.263   2.967   6.074
10411TIP3    H131166   5.233   3.057   6.051
10411TIP3    H231167   5.191   2.915   6.034
10412TIP3   OH231168   5.262   2.972   6.457
10412TIP3    H131169   5.296   2.941   6.542
10412TIP3    H231170   5.226   2.891   6.418
10413TIP3   OH231171   4.563   2.861   6.819
10413TIP3    H131172   4.592   2.794   6.883
10413TIP3    H231173   4.638   2.922   6.821
10414TIP3   OH231174   5.508   3.272   6.136
10414TIP3    H131175   5.494   3.201   6.200
10414TIP3    H231176   5.538   3.345   6.191
10415TIP3   OH231177   4.535   3.271   6.540
10415TIP3    H131178   4.525   3.174   6.544
10415TIP3    H231179   4.632   3.280   6.537
10416TIP3   OH231180   4.246   2.480   6.319
10416TIP3    H131181   4.198   2.562   6.339
10416TIP3    H231182   4.172   2.424   6.288
10417TIP3   OH231183   4.301   2.763   6.498
10417TIP3    H131184   4.350   2.687   6.536
10417TIP3    H231185   4.371   2.812   6.453
10418TIP3   OH231186   5.159   3.734   6.153
10418TIP3    H131187   5.201   3.662   6.101
10418TIP3    H231188   5.149   3.693   6.239
10419TIP3   OH231189   5.062   3.194   6.501
10419TIP3    H131190   5.104   3.117   6.457
10419TIP3    H231191   5.145   3.241   6.526
10420TIP3   OH231192   6.075   2.514   6.498
10420TIP3    H131193   6.106   2.597   6.539
10420TIP3    H231194   6.101   2.528   6.405
10421TIP3   OH231195   5.472   2.693   6.533
10421TIP3    H131196   5.514   2.608   6.554
10421TIP3    H231197   5.444   2.678   6.441
10422TIP3   OH231198   4.809   2.356   6.499
10422TIP3    H131199   4.792   2.428   6.435
10422TIP3    H231200   4.762   2.282   6.455
10423TIP3   OH231201   5.509   2.451   6.128
10423TIP3    H131202   5.587   2.432   6.186
10423TIP3    H231203   5.554   2.479   6.046
10424TIP3   OH231204   4.448   2.558   6.605
10424TIP3    H131205   4.529   2.539   6.655
10424TIP3    H231206   4.463   2.502   6.526
10425TIP3   OH231207   4.888   2.755   6.398
10425TIP3    H131208   4.983   2.731   6.412
10425TIP3    H231209   4.851   2.670   6.367
10426TIP3   OH231210   6.150   2.722   6.669
10426TIP3    H131211   6.066   2.769   6.650
10426TIP3    H231212   6.165   2.749   6.761
10427TIP3   OH231213   4.809   2.337   6.933
10427TIP3    H131214   4.750   2.375   6.866
10427TIP3    H231215   4.758   2.354   7.014
10428TIP3   OH231216   5.147   3.184   5.946
10428TIP3    H131217   5.121   3.172   5.854
10428TIP3    H231218   5.107   3.271   5.967
10429TIP3   OH231219   4.915   3.113   6.726
10429TIP3    H131220   4.854   3.181   6.764
10429TIP3    H231221   4.959   3.164   6.655
10430TIP3   OH231222   5.721   2.441   6.305
10430TIP3    H131223   5.712   2.420   6.398
10430TIP3    H231224   5.775   2.522   6.308
10431TIP3   OH231225   4.679   2.454   6.719
10431TIP3    H131226   4.741   2.528   6.742
10431TIP3    H231227   4.729   2.413   6.645
10432TIP3   OH231228   4.744   3.308   6.824
10432TIP3    H131229   4.719   3.396   6.788
10432TIP3    H231230   4.666   3.292   6.882
10433TIP3   OH231231   4.143   2.995   6.060
10433TIP3    H131232   4.099   3.023   5.977
10433TIP3    H231233   4.169   3.082   6.097
10434TIP3   OH231234   5.578   3.515   6.304
10434TIP3    H131235   5.488   3.505   6.342
10434TIP3    H231236   5.569   3.600   6.257
10435TIP3   OH231237   5.871   2.412   6.664
10435TIP3    H131238   5.785   2.447   6.636
10435TIP3    H231239   5.931   2.445   6.593
10436TIP3   OH231240   5.162   2.056   6.646
10436TIP3    H131241   5.152   1.961   6.669
10436TIP3    H231242   5.086   2.094   6.694
10437TIP3   OH231243   5.276   3.561   5.974
10437TIP3    H131244   5.325   3.477   5.954
10437TIP3    H231245   5.337   3.625   5.934
10438TIP3   OH231246   5.416   3.344   5.884
10438TIP3    H131247   5.402   3.263   5.833
10438TIP3    H231248   5.455   3.309   5.968
10439TIP3   OH231249   5.805   3.427   6.645
10439TIP3    H131250   5.792   3.349   6.587
10439TIP3    H231251   5.787   3.501   6.584
10440TIP3   OH231252   5.096   2.821   5.904
10440TIP3    H131253   5.019   2.875   5.876
10440TIP3    H231254   5.147   2.813   5.821
10441TIP3   OH231255   5.056   2.603   5.619
10441TIP3    H131256   5.125   2.657   5.663
10441TIP3    H231257   5.114   2.541   5.570
10442TIP3   OH231258   6.000   3.066   6.493
10442TIP3    H131259   5.916   3.116   6.496
10442TIP3    H231260   6.028   3.086   6.401
10443TIP3   OH231261   5.441   2.904   5.873
10443TIP3    H131262   5.389   2.927   5.953
10443TIP3    H231263   5.525   2.874   5.913
10444TIP3   OH231264   5.678   2.941   6.788
10444TIP3    H131265   5.675   3.024   6.840
10444TIP3    H231266   5.592   2.946   6.742
10445TIP3   OH231267   4.675   2.892   6.292
10445TIP3    H131268   4.653   2.834   6.218
10445TIP3    H231269   4.756   2.848   6.328
10446TIP3   OH231270   4.804   3.310   6.440
10446TIP3    H131271   4.787   3.275   6.351
10446TIP3    H231272   4.895   3.277   6.458
10447TIP3   OH231273   4.809   2.873   6.642
10447TIP3    H131274   4.848   2.851   6.556
10447TIP3    H231275   4.854   2.958   6.665
10448TIP3   OH231276   5.337   3.510   6.423
10448TIP3    H131277   5.323   3.589   6.479
10448TIP3    H231278   5.322   3.436   6.486
10449TIP3   OH231279   4.949   3.427   6.969
10449TIP3    H131280   4.890   3.489   7.017
10449TIP3    H231281   4.883   3.375   6.920
10450TIP3   OH231282   5.271   2.770   5.697
10450TIP3    H131283   5.340   2.817   5.749
10450TIP3    H231284   5.301   2.790   5.605
10451TIP3   OH231285   4.703   2.984   7.069
10451TIP3    H131286   4.710   3.071   7.114
10451TIP3    H231287   4.609   2.964   7.084
10452TIP3   OH231288   5.026   3.441   5.978
10452TIP3    H131289   5.109   3.491   5.988
10452TIP3    H231290   4.968   3.504   5.934
10453TIP3   OH231291   4.744   3.594   7.057
10453TIP3    H131292   4.708   3.594   6.966
10453TIP3    H231293   4.664   3.574   7.111
10454TIP3   OH231294   5.801   1.997   5.754
10454TIP3    H131295   5.715   2.022   5.794
10454TIP3    H231296   5.823   2.078   5.703
10455TIP3   OH231297   4.540   2.717   6.080
10455TIP3    H131298   4.479   2.779   6.035
10455TIP3    H231299   4.490   2.692   6.158
10456TIP3   OH231300   5.599   3.369   5.301
10456TIP3    H131301   5.608   3.465   5.283
10456TIP3    H231302   5.691   3.338   5.286
10457TIP3   OH231303   4.322   3.127   7.004
10457TIP3    H131304   4.256   3.103   6.936
10457TIP3    H231305   4.360   3.040   7.029
10458TIP3   OH231306   4.177   3.319   6.637
10458TIP3    H131307   4.273   3.317   6.629
10458TIP3    H231308   4.163   3.398   6.691
10459TIP3   OH231309   6.041   3.773   6.691
10459TIP3    H131310   6.040   3.676   6.704
10459TIP3    H231311   5.957   3.797   6.737
10460TIP3   OH231312   5.147   3.557   6.826
10460TIP3    H131313   5.145   3.649   6.859
10460TIP3    H231314   5.076   3.516   6.881
10461TIP3   OH231315   4.908   3.684   5.780
10461TIP3    H131316   4.864   3.665   5.695
10461TIP3    H231317   4.875   3.773   5.802
10462TIP3   OH231318   4.346   3.535   6.163
10462TIP3    H131319   4.394   3.526   6.248
10462TIP3    H231320   4.286   3.459   6.168
10463TIP3   OH231321   5.110   3.587   5.418
10463TIP3    H131322   5.168   3.517   5.381
10463TIP3    H231323   5.146   3.596   5.509
10464TIP3   OH231324   5.161   3.637   5.688
10464TIP3    H131325   5.072   3.645   5.730
10464TIP3    H231326   5.211   3.594   5.759
10465TIP3   OH231327   5.932   2.903   6.967
10465TIP3    H131328   5.849   2.914   6.917
10465TIP3    H231329   5.947   2.807   6.957
10466TIP3   OH231330   4.528   3.309   6.990
10466TIP3    H131331   4.577   3.295   7.074
10466TIP3    H231332   4.454   3.246   7.000
10467TIP3   OH231333   4.926   2.134   6.776
10467TIP3    H131334   4.837   2.103   6.750
10467TIP3    H231335   4.901   2.215   6.824
10468TIP3   OH231336   5.462   2.249   6.973
10468TIP3    H131337   5.531   2.221   7.036
10468TIP3    H231338   5.379   2.228   7.020
10469TIP3   OH231339   5.699   2.678   6.889
10469TIP3    H131340   5.650   2.674   6.974
10469TIP3    H231341   5.675   2.765   6.854
10470TIP3   OH231342   5.350   2.826   5.444
10470TIP3    H131343   5.326   2.778   5.362
10470TIP3    H231344   5.444   2.846   5.425
10471TIP3   OH231345   5.059   2.192   5.740
10471TIP3    H131346   5.030   2.185   5.833
10471TIP3    H231347   5.036   2.102   5.708
10472TIP3   OH231348   4.857   2.650   6.793
10472TIP3    H131349   4.809   2.671   6.876
10472TIP3    H231350   4.840   2.732   6.741
10473TIP3   OH231351   4.743   2.534   6.303
10473TIP3    H131352   4.651   2.503   6.322
10473TIP3    H231353   4.754   2.500   6.212
10474TIP3   OH231354   5.230   2.616   6.036
10474TIP3    H131355   5.181   2.689   5.992
10474TIP3    H231356   5.291   2.588   5.964
10475TIP3   OH231357   5.407   2.898   7.121
10475TIP3    H131358   5.384   2.825   7.184
10475TIP3    H231359   5.500   2.913   7.145
10476TIP3   OH231360   5.386   2.649   6.276
10476TIP3    H131361   5.328   2.677   6.202
10476TIP3    H231362   5.424   2.570   6.232
10477TIP3   OH231363   4.677   2.677   7.004
10477TIP3    H131364   4.706   2.741   7.071
10477TIP3    H231365   4.667   2.596   7.057
10478TIP3   OH231366   4.722   2.150   5.713
10478TIP3    H131367   4.721   2.149   5.810
10478TIP3    H231368   4.643   2.201   5.692
10479TIP3   OH231369   4.271   2.202   6.581
10479TIP3    H131370   4.345   2.232   6.637
10479TIP3    H231371   4.315   2.161   6.505
10480TIP3   OH231372   4.234   2.170   6.100
10480TIP3    H131373   4.294   2.199   6.030
10480TIP3    H231374   4.179   2.249   6.117
10481TIP3   OH231375   5.399   2.894   6.697
10481TIP3    H131376   5.432   2.822   6.639
10481TIP3    H231377   5.371   2.841   6.775
10482TIP3   OH231378   5.064   2.341   6.379
10482TIP3    H131379   4.981   2.347   6.432
10482TIP3    H231380   5.130   2.369   6.443
10483TIP3   OH231381   4.506   2.413   6.376
10483TIP3    H131382   4.412   2.419   6.349
10483TIP3    H231383   4.529   2.320   6.358
10484TIP3   OH231384   4.783   2.419   6.047
10484TIP3    H131385   4.879   2.412   6.068
10484TIP3    H231386   4.788   2.454   5.958
10485TIP3   OH231387   5.557   2.430   6.573
10485TIP3    H131388   5.531   2.445   6.666
10485TIP3    H231389   5.486   2.369   6.545
10486TIP3   OH231390   5.733   4.122   6.792
10486TIP3    H131391   5.730   4.143   6.697
10486TIP3    H231392   5.812   4.171   6.822
10487TIP3   OH231393   4.690   3.231   7.212
10487TIP3    H131394   4.769   3.262   7.260
10487TIP3    H231395   4.625   3.230   7.285
10488TIP3   OH231396   5.151   2.680   6.464
10488TIP3    H131397   5.229   2.651   6.415
10488TIP3    H231398   5.166   2.643   6.552
10489TIP3   OH231399   4.672   2.172   6.346
10489TIP3    H131400   4.639   2.093   6.395
10489TIP3    H231401   4.722   2.130   6.275
10490TIP3   OH231402   5.129   2.582   6.758
10490TIP3    H131403   5.040   2.620   6.772
10490TIP3    H231404   5.187   2.643   6.809
10491TIP3   OH231405   4.862   2.973   5.848
10491TIP3    H131406   4.786   2.913   5.836
10491TIP3    H231407   4.847   3.006   5.940
10492TIP3   OH231408   5.765   3.209   6.481
10492TIP3    H131409   5.790   3.258   6.399
10492TIP3    H231410   5.680   3.167   6.455
10493TIP3   OH231411   5.326   2.277   5.725
10493TIP3    H131412   5.229   2.270   5.717
10493TIP3    H231413   5.344   2.373   5.717
10494TIP3   OH231414   5.265   3.291   6.850
10494TIP3    H131415   5.291   3.271   6.941
10494TIP3    H231416   5.225   3.379   6.857
10495TIP3   OH231417   5.396   2.542   5.824
10495TIP3    H131418   5.493   2.530   5.824
10495TIP3    H231419   5.385   2.600   5.747
10496TIP3   OH231420   4.552   2.985   6.527
10496TIP3    H131421   4.597   2.961   6.444
10496TIP3    H231422   4.603   2.935   6.592
10497TIP3   OH231423   5.012   3.123   5.673
10497TIP3    H131424   4.964   3.209   5.680
10497TIP3    H231425   4.959   3.067   5.734
10498TIP3   OH231426   4.441   2.915   7.141
10498TIP3    H131427   4.463   2.904   7.236
10498TIP3    H231428   4.371   2.848   7.130
10499TIP3   OH231429   5.165   3.031   7.160
10499TIP3    H131430   5.106   2.970   7.113
10499TIP3    H231431   5.253   2.997   7.133
10500TIP3   OH231432   5.425   3.552   6.744
10500TIP3    H131433   5.329   3.549   6.757
10500TIP3    H231434   5.453   3.603   6.824
10501TIP3   OH231435   5.824   2.610   5.641
10501TIP3    H131436   5.747   2.565   5.597
10501TIP3    H231437   5.816   2.696   5.596
10502TIP3   OH231438   6.055   3.484   6.733
10502TIP3    H131439   5.957   3.476   6.726
10502TIP3    H231440   6.080   3.452   6.644
10503TIP3   OH231441   5.538   3.441   5.564
10503TIP3    H131442   5.511   3.368   5.621
10503TIP3    H231443   5.550   3.398   5.477
10504TIP3   OH231444   5.532   3.071   6.399
10504TIP3    H131445   5.438   3.047   6.411
10504TIP3    H231446   5.566   2.992   6.354
10505TIP3   OH231447   4.660   3.299   6.153
10505TIP3    H131448   4.663   3.380   6.099
10505TIP3    H231449   4.565   3.288   6.164
10506TIP3   OH231450   4.788   3.060   6.094
10506TIP3    H131451   4.761   3.153   6.110
10506TIP3    H231452   4.760   3.018   6.176
10507TIP3   OH231453   4.929   3.642   6.621
10507TIP3    H131454   4.971   3.715   6.571
10507TIP3    H231455   5.005   3.607   6.671
10508TIP3   OH231456   4.579   3.537   6.006
10508TIP3    H131457   4.493   3.546   6.051
10508TIP3    H231458   4.611   3.630   6.009
10509TIP3   OH231459   5.316   3.278   6.581
10509TIP3    H131460   5.306   3.276   6.679
10509TIP3    H231461   5.394   3.224   6.568
10510TIP3   OH231462   5.293   3.175   5.466
10510TIP3    H131463   5.348   3.148   5.543
10510TIP3    H231464   5.208   3.138   5.491
10511TIP3   OH231465   5.565   3.810   6.633
10511TIP3    H131466   5.487   3.752   6.627
10511TIP3    H231467   5.548   3.873   6.559
10512TIP3   OH231468   5.630   3.644   5.283
10512TIP3    H131469   5.665   3.714   5.226
10512TIP3    H231470   5.550   3.689   5.317
10513TIP3   OH231471   4.652   2.419   7.148
10513TIP3    H131472   4.556   2.425   7.166
10513TIP3    H231473   4.682   2.365   7.223
10514TIP3   OH231474   5.452   3.113   5.688
10514TIP3    H131475   5.440   3.038   5.750
10514TIP3    H231476   5.548   3.104   5.669
10515TIP3   OH231477   4.368   3.504   6.780
10515TIP3    H131478   4.421   3.432   6.818
10515TIP3    H231479   4.391   3.577   6.839
10516TIP3   OH231480   4.655   3.152   5.464
10516TIP3    H131481   4.673   3.061   5.434
10516TIP3    H231482   4.638   3.138   5.559
10517TIP3   OH231483   4.603   3.153   5.739
10517TIP3    H131484   4.682   3.134   5.792
10517TIP3    H231485   4.603   3.252   5.742
10518TIP3   OH231486   4.334   2.830   5.929
10518TIP3    H131487   4.272   2.876   5.991
10518TIP3    H231488   4.355   2.906   5.872
10519TIP3   OH231489   5.490   2.485   6.832
10519TIP3    H131490   5.569   2.524   6.873
10519TIP3    H231491   5.476   2.404   6.886
10520TIP3   OH231492   5.371   2.228   5.993
10520TIP3    H131493   5.352   2.251   5.899
10520TIP3    H231494   5.399   2.313   6.030
10521TIP3   OH231495   4.866   3.351   5.686
10521TIP3    H131496   4.779   3.381   5.720
10521TIP3    H231497   4.885   3.421   5.622
10522TIP3   OH231498   5.050   2.415   6.108
10522TIP3    H131499   5.117   2.483   6.083
10522TIP3    H231500   5.070   2.402   6.203
10523TIP3   OH231501   5.326   2.733   6.906
10523TIP3    H131502   5.347   2.788   6.984
10523TIP3    H231503   5.381   2.654   6.920
10524TIP3   OH231504   4.609   3.427   5.752
10524TIP3    H131505   4.582   3.497   5.689
10524TIP3    H231506   4.595   3.471   5.838
10525TIP3   OH231507   4.708   2.145   5.991
10525TIP3    H131508   4.724   2.235   6.023
10525TIP3    H231509   4.799   2.109   5.996
10526TIP3   OH231510   5.966   2.636   6.887
10526TIP3    H131511   5.868   2.634   6.894
10526TIP3    H231512   5.978   2.594   6.801
10527TIP3   OH231513   5.615   2.829   6.276
10527TIP3    H131514   5.541   2.768   6.284
10527TIP3    H231515   5.688   2.781   6.322
10528TIP3   OH231516   4.331   3.051   5.749
10528TIP3    H131517   4.393   3.125   5.757
10528TIP3    H231518   4.377   3.000   5.678
10529TIP3   OH231519   5.585   3.787   6.224
10529TIP3    H131520   5.542   3.834   6.149
10529TIP3    H231521   5.679   3.805   6.203
10530TIP3   OH231522   4.662   2.052   6.750
10530TIP3    H131523   4.631   2.018   6.664
10530TIP3    H231524   4.652   1.974   6.808
10531TIP3   OH231525   4.196   3.265   6.129
10531TIP3    H131526   4.133   3.300   6.194
10531TIP3    H231527   4.167   3.311   6.047
10532TIP3   OH231528   4.360   3.817   7.202
10532TIP3    H131529   4.445   3.818   7.251
10532TIP3    H231530   4.339   3.722   7.203
10533TIP3   OH231531   4.838   3.780   7.245
10533TIP3    H131532   4.932   3.758   7.257
10533TIP3    H231533   4.814   3.718   7.173
10534TIP3   OH231534   4.821   3.354   5.376
10534TIP3    H131535   4.766   3.281   5.413
10534TIP3    H231536   4.896   3.304   5.339
10535TIP3   OH231537   5.480   3.683   6.979
10535TIP3    H131538   5.470   3.614   7.048
10535TIP3    H231539   5.556   3.735   7.013
10536TIP3   OH231540   5.256   3.393   5.288
10536TIP3    H131541   5.296   3.326   5.346
10536TIP3    H231542   5.313   3.390   5.209
10537TIP3   OH231543   4.489   3.221   7.402
10537TIP3    H131544   4.504   3.126   7.412
10537TIP3    H231545   4.400   3.223   7.360
10538TIP3   OH231546   4.468   2.860   5.605
10538TIP3    H131547   4.536   2.845   5.674
10538TIP3    H231548   4.528   2.869   5.527
10539TIP3   OH231549   5.097   3.307   7.176
10539TIP3    H131550   5.054   3.323   7.090
10539TIP3    H231551   5.128   3.214   7.168
10540TIP3   OH231552   4.973   3.067   5.405
10540TIP3    H131553   4.981   3.080   5.502
10540TIP3    H231554   4.979   2.969   5.400
10541TIP3   OH231555   5.588   3.315   6.784
10541TIP3    H131556   5.663   3.360   6.739
10541TIP3    H231557   5.517   3.380   6.770
10542TIP3   OH231558   4.608   2.953   7.385
10542TIP3    H131559   4.684   2.896   7.368
10542TIP3    H231560   4.631   2.987   7.474
10543TIP3   OH231561   4.650   2.769   5.813
10543TIP3    H131562   4.661   2.739   5.905
10543TIP3    H231563   4.705   2.703   5.764
10544TIP3   OH231564   4.941   2.837   7.044
10544TIP3    H131565   4.865   2.899   7.048
10544TIP3    H231566   4.991   2.872   6.967
10545TIP3   OH231567   4.779   2.576   5.672
10545TIP3    H131568   4.751   2.567   5.578
10545TIP3    H231569   4.877   2.574   5.661
10546TIP3   OH231570   5.458   3.240   7.179
10546TIP3    H131571   5.539   3.214   7.135
10546TIP3    H231572   5.454   3.176   7.253
10547TIP3   OH231573   5.596   2.903   5.324
10547TIP3    H131574   5.573   2.848   5.246
10547TIP3    H231575   5.559   2.989   5.296
10548TIP3   OH231576   5.066   2.627   7.172
10548TIP3    H131577   5.066   2.548   7.116
10548TIP3    H231578   5.022   2.693   7.115
10549TIP3   OH231579   5.068   2.413   6.980
10549TIP3    H131580   5.096   2.455   6.896
10549TIP3    H231581   4.975   2.390   6.961
10550TIP3   OH231582   5.093   2.947   6.851
10550TIP3    H131583   5.179   2.959   6.808
10550TIP3    H231584   5.038   3.015   6.808
10551TIP3   OH231585   5.676   2.915   7.233
10551TIP3    H131586   5.724   2.832   7.247
10551TIP3    H231587   5.746   2.973   7.199
10552TIP3   OH231588   5.718   3.168   6.970
10552TIP3    H131589   5.660   3.223   6.911
10552TIP3    H231590   5.806   3.189   6.930
10553TIP3   OH231591   4.944   2.737   7.402
10553TIP3    H131592   4.874   2.671   7.419
10553TIP3    H231593   4.978   2.708   7.316
10554TIP3   OH231594   5.200   2.177   7.048
10554TIP3    H131595   5.152   2.259   7.026
10554TIP3    H231596   5.131   2.109   7.037
10555TIP3   OH231597   5.326   2.681   7.264
10555TIP3    H131598   5.315   2.669   7.360
10555TIP3    H231599   5.236   2.656   7.234
10556TIP3   OH231600   5.565   2.629   7.118
10556TIP3    H131601   5.489   2.631   7.180
10556TIP3    H231602   5.638   2.599   7.175
10557TIP3   OH231603   5.796   2.572   7.269
10557TIP3    H131604   5.808   2.476   7.287
10557TIP3    H231605   5.790   2.610   7.359
10558TIP3   OH231606   4.781   2.517   7.457
10558TIP3    H131607   4.790   2.425   7.425
10558TIP3    H231608   4.817   2.509   7.548
10559TIP3   OH231609   5.293   2.187   7.307
10559TIP3    H131610   5.362   2.117   7.301
10559TIP3    H231611   5.255   2.181   7.217
10560TIP3   OH231612   5.360   2.402   7.465
10560TIP3    H131613   5.337   2.331   7.401
10560TIP3    H231614   5.282   2.461   7.458
10561TIP3   OH231615   4.582   3.629   5.565
10561TIP3    H131616   4.678   3.625   5.545
10561TIP3    H231617   4.552   3.679   5.487
10562TIP3   OH231618   4.061   3.012   5.783
10562TIP3    H131619   4.155   3.034   5.769
10562TIP3    H231620   4.054   2.925   5.738
10563TIP3   OH231621   3.977   3.623   6.196
10563TIP3    H131622   3.909   3.562   6.159
10563TIP3    H231623   4.021   3.564   6.261
10564TIP3   OH231624   4.114   3.471   6.380
10564TIP3    H131625   4.100   3.402   6.447
10564TIP3    H231626   4.164   3.536   6.433
10565TIP3   OH231627   5.839   3.877   6.181
10565TIP3    H131628   5.868   3.907   6.269
10565TIP3    H231629   5.905   3.916   6.122
10566TIP3   OH231630   5.870   3.896   6.465
10566TIP3    H131631   5.823   3.811   6.458
10566TIP3    H231632   5.943   3.869   6.523
10567TIP3   OH231633   5.915   3.572   7.037
10567TIP3    H131634   5.842   3.580   7.101
10567TIP3    H231635   5.955   3.661   7.042
10568TIP3   OH231636   5.730   3.087   5.656
10568TIP3    H131637   5.799   3.148   5.626
10568TIP3    H231638   5.774   3.045   5.734
10569TIP3   OH231639   5.859   2.955   5.860
10569TIP3    H131640   5.792   2.910   5.916
10569TIP3    H231641   5.923   2.990   5.925
10570TIP3   OH231642   5.915   3.346   6.293
10570TIP3    H131643   5.967   3.279   6.244
10570TIP3    H231644   5.907   3.418   6.227
10571TIP3   OH231645   5.744   3.647   6.486
10571TIP3    H131646   5.672   3.687   6.538
10571TIP3    H231647   5.695   3.598   6.417
10572TIP3   OH231648   5.797   2.860   5.505
10572TIP3    H131649   5.723   2.857   5.440
10572TIP3    H231650   5.766   2.934   5.560
10573TIP3   OH231651   5.672   2.809   6.003
10573TIP3    H131652   5.678   2.713   5.991
10573TIP3    H231653   5.659   2.819   6.099
10574TIP3   OH231654   4.299   2.884   6.753
10574TIP3    H131655   4.297   2.852   6.660
10574TIP3    H231656   4.396   2.884   6.770
10575TIP3   OH231657   5.962   3.235   6.863
10575TIP3    H131658   6.034   3.168   6.853
10575TIP3    H231659   5.987   3.302   6.798
10576TIP3   OH231660   6.148   3.039   6.876
10576TIP3    H131661   6.072   2.990   6.916
10576TIP3    H231662   6.219   2.974   6.893
10577TIP3   OH231663   5.674   2.529   5.905
10577TIP3    H131664   5.715   2.440   5.919
10577TIP3    H231665   5.718   2.554   5.822
10578TIP3   OH231666   5.829   2.699   6.395
10578TIP3    H131667   5.915   2.724   6.353
10578TIP3    H231668   5.844   2.736   6.484
10579TIP3   OH231669   5.900   2.844   6.628
10579TIP3    H131670   5.822   2.878   6.676
10579TIP3    H231671   5.932   2.925   6.582
10580TIP3   OH231672   4.514   2.565   7.417
10580TIP3    H131673   4.612   2.564   7.427
10580TIP3    H231674   4.491   2.483   7.465
10581TIP3   OH231675   6.352   2.437   7.183
10581TIP3    H131676   6.410   2.370   7.141
10581TIP3    H231677   6.323   2.490   7.106
10582TIP3   OH231678   5.776   2.277   5.944
10582TIP3    H131679   5.826   2.255   6.025
10582TIP3    H231680   5.716   2.200   5.937
10583TIP3   OH231681   4.477   2.260   6.755
10583TIP3    H131682   4.540   2.186   6.766
10583TIP3    H231683   4.539   2.336   6.751
10584TIP3   OH231684   4.278   2.534   6.829
10584TIP3    H131685   4.330   2.533   6.746
10584TIP3    H231686   4.305   2.618   6.868
10585TIP3   OH231687   6.221   2.574   6.988
10585TIP3    H131688   6.133   2.613   7.007
10585TIP3    H231689   6.193   2.501   6.930
10586TIP3   OH231690   5.893   2.197   5.596
10586TIP3    H131691   5.901   2.136   5.520
10586TIP3    H231692   5.918   2.283   5.558
10587TIP3   OH231693   4.263   2.037   6.335
10587TIP3    H131694   4.170   2.032   6.364
10587TIP3    H231695   4.256   2.094   6.256
10588TIP3   OH231696   5.423   3.743   5.840
10588TIP3    H131697   5.472   3.726   5.756
10588TIP3    H231698   5.480   3.809   5.882
10589TIP3   OH231699   4.482   2.115   7.145
10589TIP3    H131700   4.435   2.116   7.230
10589TIP3    H231701   4.416   2.156   7.086
10590TIP3   OH231702   4.524   3.545   7.223
10590TIP3    H131703   4.430   3.521   7.208
10590TIP3    H231704   4.535   3.528   7.317
10591TIP3   OH231705   4.702   3.578   6.770
10591TIP3    H131706   4.654   3.655   6.732
10591TIP3    H231707   4.788   3.593   6.725
10592TIP3   OH231708   5.145   3.823   6.907
10592TIP3    H131709   5.186   3.821   6.996
10592TIP3    H231710   5.211   3.875   6.857
10593TIP3   OH231711   5.324   3.977   6.767
10593TIP3    H131712   5.395   3.923   6.727
10593TIP3    H231713   5.377   4.033   6.829
10594TIP3   OH231714   6.121   2.335   6.868
10594TIP3    H131715   6.030   2.325   6.834
10594TIP3    H231716   6.155   2.243   6.857
10595TIP3   OH231717   4.378   3.835   6.795
10595TIP3    H131718   4.288   3.868   6.772
10595TIP3    H231719   4.390   3.876   6.881
10596TIP3   OH231720   4.614   3.815   6.653
10596TIP3    H131721   4.528   3.827   6.698
10596TIP3    H231722   4.594   3.847   6.563
10597TIP3   OH231723   5.040   3.843   6.451
10597TIP3    H131724   4.971   3.862   6.385
10597TIP3    H231725   5.052   3.930   6.493
10598TIP3   OH231726   5.309   3.783   6.503
10598TIP3    H131727   5.214   3.798   6.483
10598TIP3    H231728   5.350   3.858   6.457
10599TIP3   OH231729   5.520   3.976   6.416
10599TIP3    H131730   5.502   4.059   6.367
10599TIP3    H231731   5.543   3.914   6.344
10600TIP3   OH231732   4.289   3.629   6.538
10600TIP3    H131733   4.315   3.603   6.629
10600TIP3    H231734   4.362   3.586   6.488
10601TIP3   OH231735   4.484   3.501   6.396
10601TIP3    H131736   4.500   3.417   6.446
10601TIP3    H231737   4.575   3.538   6.394
10602TIP3   OH231738   4.750   3.596   6.401
10602TIP3    H131739   4.781   3.504   6.389
10602TIP3    H231740   4.796   3.618   6.485
10603TIP3   OH231741   5.341   2.255   6.506
10603TIP3    H131742   5.283   2.192   6.554
10603TIP3    H231743   5.341   2.220   6.417
10604TIP3   OH231744   5.847   2.137   6.391
10604TIP3    H131745   5.903   2.179   6.321
10604TIP3    H231746   5.762   2.178   6.370
10605TIP3   OH231747   5.948   2.230   6.159
10605TIP3    H131748   6.020   2.180   6.114
10605TIP3    H231749   5.978   2.322   6.142
10606TIP3   OH231750   4.571   1.961   6.501
10606TIP3    H131751   4.480   1.926   6.504
10606TIP3    H231752   4.622   1.877   6.499
10607TIP3   OH231753   4.353   1.829   6.155
10607TIP3    H131754   4.392   1.884   6.084
10607TIP3    H231755   4.331   1.896   6.223
10608TIP3   OH231756   5.014   2.007   6.384
10608TIP3    H131757   5.041   2.088   6.342
10608TIP3    H231758   5.041   2.021   6.476
10609TIP3   OH231759   5.592   2.066   5.928
10609TIP3    H131760   5.509   2.118   5.936
10609TIP3    H231761   5.561   1.979   5.956
10610TIP3   OH231762   4.077   3.403   5.931
10610TIP3    H131763   3.991   3.372   5.897
10610TIP3    H231764   4.070   3.498   5.908
10611TIP3   OH231765   4.481   1.996   5.912
10611TIP3    H131766   4.526   1.927   5.859
10611TIP3    H231767   4.559   2.044   5.948
10612TIP3   OH231768   4.984   2.166   6.009
10612TIP3    H131769   5.045   2.096   6.037
10612TIP3    H231770   5.026   2.247   6.044
10613TIP3   OH231771   4.851   3.589   5.514
10613TIP3    H131772   4.938   3.612   5.476
10613TIP3    H231773   4.828   3.514   5.454
10614TIP3   OH231774   5.569   3.708   5.607
10614TIP3    H131775   5.562   3.611   5.594
10614TIP3    H231776   5.524   3.740   5.526
10615TIP3   OH231777   4.782   2.239   7.391
10615TIP3    H131778   4.748   2.171   7.451
10615TIP3    H231779   4.877   2.241   7.418
10616TIP3   OH231780   5.030   2.237   7.511
10616TIP3    H131781   5.117   2.213   7.473
10616TIP3    H231782   5.019   2.166   7.578
10617TIP3   OH231783   4.152   3.419   5.568
10617TIP3    H131784   4.157   3.454   5.658
10617TIP3    H231785   4.242   3.381   5.555
10618TIP3   OH231786   5.856   2.302   7.300
10618TIP3    H131787   5.875   2.270   7.391
10618TIP3    H231788   5.944   2.296   7.259
10619TIP3   OH231789   5.795   3.852   6.793
10619TIP3    H131790   5.716   3.819   6.745
10619TIP3    H231791   5.773   3.947   6.798
10620TIP3   OH231792   7.061   3.226   5.560
10620TIP3    H131793   7.030   3.316   5.536
10620TIP3    H231794   6.988   3.173   5.523
10621TIP3   OH231795   7.060   3.228   5.943
10621TIP3    H131796   7.092   3.193   6.028
10621TIP3    H231797   7.020   3.150   5.902
10622TIP3   OH231798   6.359   3.120   6.307
10622TIP3    H131799   6.390   3.052   6.369
10622TIP3    H231800   6.441   3.169   6.290
10623TIP3   OH231801   7.305   3.529   5.622
10623TIP3    H131802   7.289   3.457   5.684
10623TIP3    H231803   7.334   3.601   5.679
10624TIP3   OH231804   6.333   3.532   6.032
10624TIP3    H131805   6.323   3.434   6.032
10624TIP3    H231806   6.430   3.539   6.021
10625TIP3   OH231807   6.033   2.733   5.812
10625TIP3    H131808   5.980   2.814   5.822
10625TIP3    H231809   5.967   2.674   5.772
10626TIP3   OH231810   6.098   3.021   5.991
10626TIP3    H131811   6.146   2.942   6.025
10626TIP3    H231812   6.150   3.044   5.913
10627TIP3   OH231813   6.957   3.991   5.641
10627TIP3    H131814   6.998   3.920   5.587
10627TIP3    H231815   6.946   3.945   5.725
10628TIP3   OH231816   6.858   3.451   5.990
10628TIP3    H131817   6.894   3.374   5.943
10628TIP3    H231818   6.942   3.496   6.012
10629TIP3   OH231819   7.872   2.769   5.984
10629TIP3    H131820   7.901   2.854   6.022
10629TIP3    H231821   7.907   2.777   5.893
10630TIP3   OH231822   7.271   2.952   6.020
10630TIP3    H131823   7.314   2.866   6.038
10630TIP3    H231824   7.239   2.937   5.929
10631TIP3   OH231825   6.611   2.612   5.985
10631TIP3    H131826   6.589   2.684   5.922
10631TIP3    H231827   6.564   2.537   5.942
10632TIP3   OH231828   7.306   2.706   5.608
10632TIP3    H131829   7.379   2.687   5.671
10632TIP3    H231830   7.357   2.735   5.530
10633TIP3   OH231831   6.243   2.812   6.094
10633TIP3    H131832   6.326   2.790   6.140
10633TIP3    H231833   6.253   2.757   6.013
10634TIP3   OH231834   6.682   3.011   5.891
10634TIP3    H131835   6.776   2.986   5.900
10634TIP3    H231836   6.643   2.928   5.856
10635TIP3   OH231837   7.948   2.978   6.158
10635TIP3    H131838   7.865   3.024   6.135
10635TIP3    H231839   7.964   3.012   6.247
10636TIP3   OH231840   6.607   2.596   6.421
10636TIP3    H131841   6.547   2.630   6.352
10636TIP3    H231842   6.553   2.613   6.501
10637TIP3   OH231843   6.949   3.444   5.431
10637TIP3    H131844   6.912   3.425   5.343
10637TIP3    H231845   6.903   3.528   5.453
10638TIP3   OH231846   6.713   3.371   6.214
10638TIP3    H131847   6.651   3.437   6.249
10638TIP3    H231848   6.755   3.419   6.140
10639TIP3   OH231849   7.516   2.700   5.783
10639TIP3    H131850   7.500   2.660   5.870
10639TIP3    H231851   7.570   2.778   5.805
10640TIP3   OH231852   6.478   2.709   6.204
10640TIP3    H131853   6.541   2.782   6.225
10640TIP3    H231854   6.526   2.668   6.128
10641TIP3   OH231855   6.542   3.566   6.314
10641TIP3    H131856   6.514   3.650   6.273
10641TIP3    H231857   6.463   3.548   6.369
10642TIP3   OH231858   5.934   3.254   5.548
10642TIP3    H131859   5.892   3.278   5.463
10642TIP3    H231860   5.964   3.341   5.581
10643TIP3   OH231861   7.374   3.772   5.792
10643TIP3    H131862   7.284   3.763   5.829
10643TIP3    H231863   7.366   3.856   5.743
10644TIP3   OH231864   7.666   2.671   6.153
10644TIP3    H131865   7.578   2.698   6.121
10644TIP3    H231866   7.725   2.703   6.081
10645TIP3   OH231867   6.962   2.311   6.136
10645TIP3    H131868   6.948   2.215   6.152
10645TIP3    H231869   6.884   2.348   6.182
10646TIP3   OH231870   7.072   3.818   5.460
10646TIP3    H131871   7.121   3.735   5.441
10646TIP3    H231872   7.134   3.883   5.419
10647TIP3   OH231873   7.215   3.603   5.371
10647TIP3    H131874   7.189   3.522   5.325
10647TIP3    H231875   7.252   3.567   5.454
10648TIP3   OH231876   7.600   3.682   6.133
10648TIP3    H131877   7.589   3.605   6.073
10648TIP3    H231878   7.583   3.757   6.071
10649TIP3   OH231879   6.893   3.079   5.391
10649TIP3    H131880   6.812   3.128   5.367
10649TIP3    H231881   6.939   3.072   5.305
10650TIP3   OH231882   6.850   2.862   5.107
10650TIP3    H131883   6.921   2.912   5.152
10650TIP3    H231884   6.905   2.798   5.057
10651TIP3   OH231885   7.795   3.324   5.982
10651TIP3    H131886   7.711   3.374   5.983
10651TIP3    H231887   7.824   3.341   5.890
10652TIP3   OH231888   7.238   3.161   5.360
10652TIP3    H131889   7.185   3.185   5.440
10652TIP3    H231890   7.322   3.132   5.403
10653TIP3   OH231891   7.474   3.198   6.274
10653TIP3    H131892   7.469   3.284   6.319
10653TIP3    H231893   7.387   3.197   6.228
10654TIP3   OH231894   6.471   3.157   5.779
10654TIP3    H131895   6.427   3.099   5.712
10654TIP3    H231896   6.547   3.102   5.807
10655TIP3   OH231897   6.600   3.569   5.926
10655TIP3    H131898   6.579   3.531   5.839
10655TIP3    H231899   6.689   3.533   5.943
10656TIP3   OH231900   6.606   3.128   6.135
10656TIP3    H131901   6.637   3.103   6.046
10656TIP3    H231902   6.650   3.214   6.151
10657TIP3   OH231903   7.132   3.768   5.910
10657TIP3    H131904   7.119   3.845   5.968
10657TIP3    H231905   7.119   3.692   5.970
10658TIP3   OH231906   6.745   3.686   6.458
10658TIP3    H131907   6.683   3.747   6.503
10658TIP3    H231908   6.681   3.631   6.407
10659TIP3   OH231909   7.078   3.018   5.188
10659TIP3    H131910   7.138   3.076   5.239
10659TIP3    H231911   7.103   3.041   5.095
10660TIP3   OH231912   6.502   3.240   6.561
10660TIP3    H131913   6.504   3.327   6.604
10660TIP3    H231914   6.406   3.220   6.567
10661TIP3   OH231915   6.823   3.697   5.468
10661TIP3    H131916   6.905   3.749   5.474
10661TIP3    H231917   6.764   3.757   5.420
10662TIP3   OH231918   6.539   3.855   6.544
10662TIP3    H131919   6.506   3.852   6.453
10662TIP3    H231920   6.459   3.831   6.596
10663TIP3   OH231921   7.594   2.256   5.234
10663TIP3    H131922   7.516   2.274   5.292
10663TIP3    H231923   7.624   2.347   5.216
10664TIP3   OH231924   6.335   3.001   5.588
10664TIP3    H131925   6.270   3.044   5.529
10664TIP3    H231926   6.300   2.911   5.593
10665TIP3   OH231927   7.396   3.625   4.787
10665TIP3    H131928   7.404   3.721   4.770
10665TIP3    H231929   7.488   3.595   4.773
10666TIP3   OH231930   6.119   3.385   6.489
10666TIP3    H131931   6.052   3.363   6.421
10666TIP3    H231932   6.156   3.297   6.512
10667TIP3   OH231933   5.973   3.576   6.122
10667TIP3    H131934   6.068   3.568   6.111
10667TIP3    H231935   5.965   3.655   6.178
10668TIP3   OH231936   7.838   4.028   6.181
10668TIP3    H131937   7.836   3.931   6.192
10668TIP3    H231938   7.753   4.052   6.225
10669TIP3   OH231939   6.943   3.813   6.315
10669TIP3    H131940   6.940   3.906   6.346
10669TIP3    H231941   6.871   3.773   6.368
10670TIP3   OH231942   6.705   3.941   5.266
10670TIP3    H131943   6.659   3.919   5.183
10670TIP3    H231944   6.670   4.030   5.286
10671TIP3   OH231945   6.142   3.792   5.650
10671TIP3    H131946   6.187   3.780   5.736
10671TIP3    H231947   6.090   3.709   5.645
10672TIP3   OH231948   6.906   3.845   4.905
10672TIP3    H131949   6.964   3.774   4.868
10672TIP3    H231950   6.941   3.852   4.996
10673TIP3   OH231951   6.957   3.894   5.175
10673TIP3    H131952   6.868   3.902   5.217
10673TIP3    H231953   7.006   3.848   5.245
10674TIP3   OH231954   7.724   3.158   6.454
10674TIP3    H131955   7.645   3.170   6.398
10674TIP3    H231956   7.742   3.062   6.442
10675TIP3   OH231957   6.323   3.568   6.479
10675TIP3    H131958   6.373   3.548   6.561
10675TIP3    H231959   6.250   3.504   6.484
10676TIP3   OH231960   6.723   2.390   6.263
10676TIP3    H131961   6.634   2.358   6.236
10676TIP3    H231962   6.696   2.471   6.310
10677TIP3   OH231963   7.256   2.508   6.458
10677TIP3    H131964   7.323   2.475   6.521
10677TIP3    H231965   7.172   2.484   6.503
10678TIP3   OH231966   7.499   2.934   6.378
10678TIP3    H131967   7.447   2.932   6.461
10678TIP3    H231968   7.472   3.019   6.338
10679TIP3   OH231969   7.156   3.068   4.934
10679TIP3    H131970   7.121   3.040   4.847
10679TIP3    H231971   7.241   3.107   4.907
10680TIP3   OH231972   6.867   2.439   5.234
10680TIP3    H131973   6.833   2.435   5.326
10680TIP3    H231974   6.829   2.356   5.200
10681TIP3   OH231975   6.656   2.905   6.283
10681TIP3    H131976   6.603   2.924   6.363
10681TIP3    H231977   6.639   2.986   6.229
10682TIP3   OH231978   6.537   2.793   5.796
10682TIP3    H131979   6.444   2.765   5.813
10682TIP3    H231980   6.551   2.752   5.707
10683TIP3   OH231981   7.030   2.878   5.525
10683TIP3    H131982   6.977   2.948   5.481
10683TIP3    H231983   7.085   2.846   5.452
10684TIP3   OH231984   7.204   3.157   6.614
10684TIP3    H131985   7.179   3.083   6.673
10684TIP3    H231986   7.299   3.164   6.631
10685TIP3   OH231987   7.186   2.906   5.761
10685TIP3    H131988   7.125   2.933   5.690
10685TIP3    H231989   7.222   2.825   5.718
10686TIP3   OH231990   6.475   2.934   6.490
10686TIP3    H131991   6.500   2.996   6.560
10686TIP3    H231992   6.462   2.851   6.540
10687TIP3   OH231993   6.524   2.412   5.201
10687TIP3    H131994   6.513   2.409   5.298
10687TIP3    H231995   6.445   2.463   5.175
10688TIP3   OH231996   6.062   2.460   6.079
10688TIP3    H131997   6.145   2.486   6.122
10688TIP3    H231998   6.089   2.426   5.992
10689TIP3   OH231999   6.050   2.450   5.597
10689TIP3    H132000   6.088   2.488   5.514
10689TIP3    H232001   5.975   2.511   5.610
10690TIP3   OH232002   7.201   3.151   6.186
10690TIP3    H132003   7.231   3.079   6.125
10690TIP3    H232004   7.168   3.097   6.261
10691TIP3   OH232005   6.869   2.616   5.858
10691TIP3    H132006   6.787   2.612   5.910
10691TIP3    H232007   6.937   2.609   5.927
10692TIP3   OH232008   6.298   2.669   5.865
10692TIP3    H132009   6.204   2.676   5.836
10692TIP3    H232010   6.321   2.578   5.841
10693TIP3   OH232011   6.568   2.668   5.554
10693TIP3    H132012   6.662   2.680   5.531
10693TIP3    H232013   6.521   2.689   5.471
10694TIP3   OH232014   7.359   2.689   6.064
10694TIP3    H132015   7.319   2.702   6.153
10694TIP3    H232016   7.295   2.628   6.024
10695TIP3   OH232017   6.412   2.702   5.332
10695TIP3    H132018   6.341   2.655   5.285
10695TIP3    H232019   6.464   2.736   5.256
10696TIP3   OH232020   7.528   4.379   6.274
10696TIP3    H132021   7.524   4.402   6.179
10696TIP3    H232022   7.606   4.431   6.301
10697TIP3   OH232023   6.484   3.490   6.698
10697TIP3    H132024   6.563   3.519   6.747
10697TIP3    H232025   6.419   3.486   6.771
10698TIP3   OH232026   6.950   2.944   5.955
10698TIP3    H132027   7.019   2.902   5.901
10698TIP3    H232028   6.958   2.897   6.040
10699TIP3   OH232029   6.474   2.429   5.835
10699TIP3    H132030   6.436   2.350   5.881
10699TIP3    H232031   6.516   2.388   5.758
10700TIP3   OH232032   6.925   2.838   6.244
10700TIP3    H132033   6.834   2.872   6.257
10700TIP3    H232034   6.981   2.900   6.294
10701TIP3   OH232035   6.660   3.231   5.338
10701TIP3    H132036   6.589   3.164   5.327
10701TIP3    H232037   6.642   3.263   5.430
10702TIP3   OH232038   7.560   3.466   5.968
10702TIP3    H132039   7.586   3.514   5.886
10702TIP3    H232040   7.476   3.423   5.941
10703TIP3   OH232041   7.120   2.540   5.208
10703TIP3    H132042   7.023   2.523   5.212
10703TIP3    H232043   7.127   2.636   5.227
10704TIP3   OH232044   7.065   3.550   6.335
10704TIP3    H132045   7.081   3.524   6.427
10704TIP3    H232046   7.022   3.637   6.343
10705TIP3   OH232047   7.191   2.791   5.310
10705TIP3    H132048   7.289   2.791   5.316
10705TIP3    H232049   7.173   2.867   5.251
10706TIP3   OH232050   6.358   3.257   6.014
10706TIP3    H132051   6.392   3.226   5.928
10706TIP3    H232052   6.393   3.189   6.074
10707TIP3   OH232053   6.808   3.380   5.163
10707TIP3    H132054   6.760   3.465   5.169
10707TIP3    H232055   6.753   3.323   5.221
10708TIP3   OH232056   6.235   3.172   6.628
10708TIP3    H132057   6.251   3.155   6.722
10708TIP3    H232058   6.165   3.106   6.608
10709TIP3   OH232059   6.960   3.287   6.649
10709TIP3    H132060   6.898   3.229   6.600
10709TIP3    H232061   7.046   3.251   6.620
10710TIP3   OH232062   7.222   3.813   6.232
10710TIP3    H132063   7.126   3.805   6.243
10710TIP3    H232064   7.246   3.864   6.312
10711TIP3   OH232065   7.627   2.877   5.147
10711TIP3    H132066   7.571   2.830   5.081
10711TIP3    H232067   7.629   2.964   5.102
10712TIP3   OH232068   7.851   3.740   6.220
10712TIP3    H132069   7.753   3.732   6.211
10712TIP3    H232070   7.877   3.708   6.130
10713TIP3   OH232071   7.333   3.698   5.050
10713TIP3    H132072   7.307   3.625   5.108
10713TIP3    H232073   7.346   3.654   4.964
10714TIP3   OH232074   7.327   3.327   5.888
10714TIP3    H132075   7.234   3.301   5.899
10714TIP3    H232076   7.362   3.248   5.842
10715TIP3   OH232077   6.456   3.558   5.646
10715TIP3    H132078   6.456   3.637   5.588
10715TIP3    H232079   6.362   3.535   5.646
10716TIP3   OH232080   6.019   2.860   5.343
10716TIP3    H132081   6.064   2.943   5.366
10716TIP3    H232082   5.941   2.863   5.404
10717TIP3   OH232083   6.592   3.322   5.585
10717TIP3    H132084   6.558   3.411   5.605
10717TIP3    H232085   6.555   3.270   5.659
10718TIP3   OH232086   6.725   3.899   6.109
10718TIP3    H132087   6.766   3.971   6.056
10718TIP3    H232088   6.803   3.862   6.154
10719TIP3   OH232089   6.374   3.795   5.493
10719TIP3    H132090   6.288   3.802   5.538
10719TIP3    H232091   6.404   3.888   5.495
10720TIP3   OH232092   7.114   3.536   6.066
10720TIP3    H132093   7.106   3.532   6.164
10720TIP3    H232094   7.188   3.476   6.050
10721TIP3   OH232095   7.089   3.430   4.951
10721TIP3    H132096   7.141   3.405   5.030
10721TIP3    H232097   7.001   3.397   4.977
10722TIP3   OH232098   7.361   4.069   6.121
10722TIP3    H132099   7.283   4.011   6.113
10722TIP3    H232100   7.345   4.131   6.046
10723TIP3   OH232101   7.427   3.901   4.769
10723TIP3    H132102   7.465   3.973   4.717
10723TIP3    H232103   7.346   3.946   4.803
10724TIP3   OH232104   6.445   2.680   6.636
10724TIP3    H132105   6.348   2.680   6.646
10724TIP3    H232106   6.472   2.617   6.705
10725TIP3   OH232107   7.248   3.367   5.171
10725TIP3    H132108   7.237   3.296   5.237
10725TIP3    H232109   7.344   3.360   5.155
10726TIP3   OH232110   6.163   3.762   6.268
10726TIP3    H132111   6.214   3.684   6.295
10726TIP3    H232112   6.194   3.828   6.331
10727TIP3   OH232113   6.452   3.407   4.951
10727TIP3    H132114   6.465   3.316   4.920
10727TIP3    H232115   6.432   3.393   5.045
10728TIP3   OH232116   6.396   3.412   5.224
10728TIP3    H132117   6.471   3.382   5.278
10728TIP3    H232118   6.403   3.510   5.231
10729TIP3   OH232119   6.134   3.105   5.426
10729TIP3    H132120   6.067   3.148   5.482
10729TIP3    H232121   6.148   3.173   5.358
10730TIP3   OH232122   7.279   2.748   6.325
10730TIP3    H132123   7.366   2.778   6.356
10730TIP3    H232124   7.267   2.664   6.374
10731TIP3   OH232125   7.159   2.494   5.486
10731TIP3    H132126   7.149   2.511   5.390
10731TIP3    H232127   7.201   2.577   5.517
10732TIP3   OH232128   6.666   3.610   5.174
10732TIP3    H132129   6.578   3.637   5.207
10732TIP3    H232130   6.679   3.674   5.103
10733TIP3   OH232131   6.852   2.673   5.585
10733TIP3    H132132   6.917   2.744   5.567
10733TIP3    H232133   6.858   2.666   5.683
10734TIP3   OH232134   7.121   2.989   6.391
10734TIP3    H132135   7.146   3.037   6.472
10734TIP3    H232136   7.175   2.908   6.396
10735TIP3   OH232137   6.996   2.398   5.688
10735TIP3    H132138   6.986   2.477   5.744
10735TIP3    H232139   7.056   2.432   5.618
10736TIP3   OH232140   6.410   3.686   5.239
10736TIP3    H132141   6.379   3.755   5.176
10736TIP3    H232142   6.392   3.729   5.325
10737TIP3   OH232143   6.508   2.398   5.478
10737TIP3    H132144   6.505   2.488   5.514
10737TIP3    H232145   6.605   2.381   5.485
10738TIP3   OH232146   7.765   2.890   6.376
10738TIP3    H132147   7.667   2.889   6.382
10738TIP3    H232148   7.777   2.852   6.288
10739TIP3   OH232149   7.412   3.087   5.763
10739TIP3    H132150   7.337   3.025   5.771
10739TIP3    H232151   7.484   3.038   5.810
10740TIP3   OH232152   6.127   3.313   5.231
10740TIP3    H132153   6.198   3.379   5.239
10740TIP3    H232154   6.169   3.254   5.164
10741TIP3   OH232155   6.070   2.589   5.362
10741TIP3    H132156   6.066   2.687   5.359
10741TIP3    H232157   5.987   2.565   5.320
10742TIP3   OH232158   7.382   4.044   5.711
10742TIP3    H132159   7.340   4.091   5.636
10742TIP3    H232160   7.476   4.061   5.691
10743TIP3   OH232161   6.458   2.310   6.238
10743TIP3    H132162   6.427   2.277   6.151
10743TIP3    H232163   6.446   2.230   6.294
10744TIP3   OH232164   6.000   3.537   5.618
10744TIP3    H132165   5.928   3.560   5.678
10744TIP3    H232166   5.966   3.575   5.533
10745TIP3   OH232167   6.154   4.072   6.689
10745TIP3    H132168   6.240   4.068   6.735
10745TIP3    H232169   6.130   3.977   6.687
10746TIP3   OH232170   6.638   4.033   6.734
10746TIP3    H132171   6.731   4.007   6.738
10746TIP3    H232172   6.607   3.975   6.661
10747TIP3   OH232173   6.618   3.610   4.866
10747TIP3    H132174   6.562   3.537   4.901
10747TIP3    H232175   6.691   3.559   4.828
10748TIP3   OH232176   7.268   3.946   6.472
10748TIP3    H132177   7.263   3.872   6.537
10748TIP3    H232178   7.349   3.992   6.498
10749TIP3   OH232179   7.053   3.651   4.776
10749TIP3    H132180   7.093   3.583   4.834
10749TIP3    H232181   7.109   3.647   4.696
10750TIP3   OH232182   6.284   3.478   6.890
10750TIP3    H132183   6.301   3.382   6.895
10750TIP3    H232184   6.196   3.480   6.846
10751TIP3   OH232185   6.261   3.127   5.084
10751TIP3    H132186   6.317   3.091   5.156
10751TIP3    H232187   6.328   3.131   5.012
10752TIP3   OH232188   6.891   3.562   6.663
10752TIP3    H132189   6.848   3.579   6.577
10752TIP3    H232190   6.921   3.469   6.655
10753TIP3   OH232191   6.774   3.326   4.893
10753TIP3    H132192   6.776   3.337   4.990
10753TIP3    H232193   6.775   3.228   4.886
10754TIP3   OH232194   7.386   3.572   6.274
10754TIP3    H132195   7.459   3.616   6.226
10754TIP3    H232196   7.313   3.634   6.256
10755TIP3   OH232197   6.403   3.216   6.873
10755TIP3    H132198   6.475   3.156   6.849
10755TIP3    H232199   6.431   3.244   6.963
10756TIP3   OH232200   6.471   3.031   5.306
10756TIP3    H132201   6.443   2.985   5.387
10756TIP3    H232202   6.507   2.957   5.253
10757TIP3   OH232203   6.741   3.098   6.537
10757TIP3    H132204   6.661   3.155   6.537
10757TIP3    H232205   6.788   3.131   6.458
10758TIP3   OH232206   6.571   2.827   5.146
10758TIP3    H132207   6.545   2.828   5.051
10758TIP3    H232208   6.669   2.830   5.137
10759TIP3   OH232209   7.259   3.499   6.669
10759TIP3    H132210   7.331   3.467   6.613
10759TIP3    H232211   7.252   3.428   6.735
10760TIP3   OH232212   7.390   3.156   4.811
10760TIP3    H132213   7.370   3.108   4.728
10760TIP3    H232214   7.357   3.246   4.785
10761TIP3   OH232215   6.863   2.884   6.660
10761TIP3    H132216   6.862   2.804   6.603
10761TIP3    H232217   6.818   2.950   6.602
10762TIP3   OH232218   6.865   2.672   6.469
10762TIP3    H132219   6.892   2.710   6.383
10762TIP3    H232220   6.771   2.647   6.450
10763TIP3   OH232221   6.891   3.209   6.344
10763TIP3    H132222   6.973   3.211   6.292
10763TIP3    H232223   6.834   3.273   6.296
10764TIP3   OH232224   7.478   3.172   6.725
10764TIP3    H132225   7.519   3.084   6.723
10764TIP3    H232226   7.545   3.226   6.681
10765TIP3   OH232227   7.514   3.429   6.464
10765TIP3    H132228   7.457   3.482   6.402
10765TIP3    H232229   7.601   3.445   6.422
10766TIP3   OH232230   6.743   2.993   6.893
10766TIP3    H132231   6.673   2.925   6.906
10766TIP3    H232232   6.775   2.969   6.803
10767TIP3   OH232233   6.997   2.435   6.536
10767TIP3    H132234   6.947   2.516   6.512
10767TIP3    H232235   6.928   2.366   6.523
10768TIP3   OH232236   7.120   2.938   6.751
10768TIP3    H132237   7.104   2.923   6.846
10768TIP3    H232238   7.032   2.913   6.716
10769TIP3   OH232239   7.364   2.897   6.610
10769TIP3    H132240   7.286   2.889   6.668
10769TIP3    H232241   7.435   2.860   6.665
10770TIP3   OH232242   7.596   2.836   6.757
10770TIP3    H132243   7.605   2.739   6.768
10770TIP3    H232244   7.590   2.867   6.850
10771TIP3   OH232245   6.580   2.775   6.945
10771TIP3    H132246   6.583   2.684   6.909
10771TIP3    H232247   6.616   2.760   7.035
10772TIP3   OH232248   7.092   2.444   6.793
10772TIP3    H132249   7.156   2.371   6.786
10772TIP3    H232250   7.050   2.439   6.704
10773TIP3   OH232251   7.157   2.660   6.948
10773TIP3    H132252   7.135   2.587   6.885
10773TIP3    H232253   7.078   2.717   6.941
10774TIP3   OH232254   6.380   3.892   5.054
10774TIP3    H132255   6.474   3.883   5.032
10774TIP3    H232256   6.348   3.936   4.973
10775TIP3   OH232257   5.858   3.268   5.268
10775TIP3    H132258   5.953   3.289   5.253
10775TIP3    H232259   5.851   3.180   5.226
10776TIP3   OH232260   5.771   3.882   5.683
10776TIP3    H132261   5.705   3.819   5.645
10776TIP3    H232262   5.816   3.823   5.747
10777TIP3   OH232263   5.905   3.732   5.870
10777TIP3    H132264   5.894   3.658   5.931
10777TIP3    H232265   5.958   3.793   5.925
10778TIP3   OH232266   7.636   4.132   5.668
10778TIP3    H132267   7.662   4.170   5.754
10778TIP3    H232268   7.698   4.175   5.607
10779TIP3   OH232269   7.662   4.152   5.952
10779TIP3    H132270   7.620   4.064   5.947
10779TIP3    H232271   7.742   4.129   6.002
10780TIP3   OH232272   7.712   3.830   6.525
10780TIP3    H132273   7.638   3.838   6.589
10780TIP3    H232274   7.752   3.919   6.529
10781TIP3   OH232275   7.526   3.344   5.143
10781TIP3    H132276   7.595   3.406   5.113
10781TIP3    H232277   7.569   3.304   5.222
10782TIP3   OH232278   7.652   3.215   5.349
10782TIP3    H132279   7.587   3.168   5.406
10782TIP3    H232280   7.718   3.247   5.414
10783TIP3   OH232281   7.711   3.602   5.780
10783TIP3    H132282   7.763   3.535   5.732
10783TIP3    H232283   7.704   3.674   5.714
10784TIP3   OH232284   7.540   3.901   5.974
10784TIP3    H132285   7.467   3.942   6.024
10784TIP3    H232286   7.492   3.853   5.903
10785TIP3   OH232287   7.592   3.120   4.993
10785TIP3    H132288   7.520   3.119   4.926
10785TIP3    H232289   7.563   3.195   5.048
10786TIP3   OH232290   7.459   2.793   4.948
10786TIP3    H132291   7.421   2.824   4.865
10786TIP3    H232292   7.438   2.697   4.942
10787TIP3   OH232293   7.467   3.065   5.491
10787TIP3    H132294   7.481   2.969   5.484
10787TIP3    H232295   7.454   3.077   5.588
10788TIP3   OH232296   6.094   3.139   6.241
10788TIP3    H132297   6.091   3.106   6.149
10788TIP3    H232298   6.191   3.141   6.257
10789TIP3   OH232299   7.757   3.491   6.352
10789TIP3    H132300   7.828   3.424   6.342
10789TIP3    H232301   7.780   3.556   6.284
10790TIP3   OH232302   7.941   3.297   6.370
10790TIP3    H132303   7.866   3.245   6.405
10790TIP3    H232304   8.014   3.232   6.382
10791TIP3   OH232305   7.406   2.527   4.930
10791TIP3    H132306   7.487   2.500   4.979
10791TIP3    H232307   7.339   2.465   4.962
10792TIP3   OH232308   7.477   2.776   5.386
10792TIP3    H132309   7.530   2.697   5.406
10792TIP3    H232310   7.527   2.811   5.310
10793TIP3   OH232311   7.625   2.957   5.883
10793TIP3    H132312   7.711   2.981   5.841
10793TIP3    H232313   7.642   2.993   5.972
10794TIP3   OH232314   7.699   3.102   6.117
10794TIP3    H132315   7.618   3.136   6.161
10794TIP3    H232316   7.730   3.181   6.069
10795TIP3   OH232317   6.313   2.827   6.918
10795TIP3    H132318   6.411   2.819   6.917
10795TIP3    H232319   6.288   2.741   6.955
10796TIP3   OH232320   8.180   2.696   6.659
10796TIP3    H132321   8.194   2.611   6.612
10796TIP3    H232322   8.129   2.746   6.593
10797TIP3   OH232323   6.275   2.519   6.252
10797TIP3    H132324   6.336   2.443   6.257
10797TIP3    H232325   6.338   2.592   6.240
10798TIP3   OH232326   6.075   2.793   6.318
10798TIP3    H132327   6.123   2.781   6.234
10798TIP3    H232328   6.107   2.879   6.346
10799TIP3   OH232329   8.013   2.823   6.486
10799TIP3    H132330   7.926   2.868   6.490
10799TIP3    H232331   7.991   2.755   6.420
10800TIP3   OH232332   7.651   2.478   5.044
10800TIP3    H132333   7.699   2.400   5.011
10800TIP3    H232334   7.724   2.541   5.062
10801TIP3   OH232335   6.059   2.316   5.833
10801TIP3    H132336   5.964   2.294   5.837
10801TIP3    H232337   6.064   2.361   5.746
10802TIP3   OH232338   7.219   4.001   5.326
10802TIP3    H132339   7.268   3.983   5.243
10802TIP3    H232340   7.278   4.064   5.370
10803TIP3   OH232341   6.282   2.381   6.636
10803TIP3    H132342   6.228   2.371   6.717
10803TIP3    H232343   6.215   2.414   6.573
10804TIP3   OH232344   6.319   3.806   6.712
10804TIP3    H132345   6.228   3.778   6.691
10804TIP3    H232346   6.327   3.781   6.804
10805TIP3   OH232347   6.499   3.838   6.261
10805TIP3    H132348   6.450   3.913   6.220
10805TIP3    H232349   6.585   3.851   6.214
10806TIP3   OH232350   6.942   4.080   6.398
10806TIP3    H132351   6.986   4.081   6.486
10806TIP3    H232352   7.007   4.130   6.344
10807TIP3   OH232353   7.119   4.232   6.255
10807TIP3    H132354   7.187   4.182   6.208
10807TIP3    H232355   7.175   4.289   6.313
10808TIP3   OH232356   7.914   2.592   6.355
10808TIP3    H132357   7.824   2.583   6.319
10808TIP3    H232358   7.949   2.501   6.342
10809TIP3   OH232359   6.175   4.097   6.279
10809TIP3    H132360   6.085   4.129   6.256
10809TIP3    H232361   6.180   4.124   6.371
10810TIP3   OH232362   6.412   4.074   6.140
10810TIP3    H132363   6.325   4.086   6.184
10810TIP3    H232364   6.392   4.103   6.049
10811TIP3   OH232365   6.835   4.099   5.939
10811TIP3    H132366   6.767   4.117   5.871
10811TIP3    H232367   6.848   4.188   5.978
10812TIP3   OH232368   7.105   4.042   5.994
10812TIP3    H132369   7.011   4.056   5.970
10812TIP3    H232370   7.149   4.111   5.943
10813TIP3   OH232371   7.310   4.230   5.903
10813TIP3    H132372   7.296   4.314   5.854
10813TIP3    H232373   7.338   4.170   5.830
10814TIP3   OH232374   6.085   3.887   6.028
10814TIP3    H132375   6.113   3.858   6.117
10814TIP3    H232376   6.157   3.844   5.975
10815TIP3   OH232377   6.279   3.759   5.886
10815TIP3    H132378   6.295   3.674   5.933
10815TIP3    H232379   6.371   3.793   5.879
10816TIP3   OH232380   6.548   3.854   5.886
10816TIP3    H132381   6.576   3.762   5.871
10816TIP3    H232382   6.594   3.871   5.971
10817TIP3   OH232383   7.123   2.509   5.978
10817TIP3    H132384   7.079   2.437   6.026
10817TIP3    H232385   7.192   2.461   5.928
10818TIP3   OH232386   7.648   2.398   5.874
10818TIP3    H132387   7.679   2.460   5.806
10818TIP3    H232388   7.550   2.407   5.867
10819TIP3   OH232389   6.370   2.217   5.991
10819TIP3    H132390   6.278   2.186   5.987
10819TIP3    H232391   6.418   2.131   5.987
10820TIP3   OH232392   6.174   2.083   5.639
10820TIP3    H132393   6.193   2.140   5.562
10820TIP3    H232394   6.117   2.142   5.692
10821TIP3   OH232395   6.814   2.252   5.870
10821TIP3    H132396   6.873   2.298   5.808
10821TIP3    H232397   6.842   2.288   5.955
10822TIP3   OH232398   7.364   2.397   5.853
10822TIP3    H132399   7.362   2.361   5.764
10822TIP3    H232400   7.349   2.316   5.908
10823TIP3   OH232401   7.381   2.307   5.405
10823TIP3    H132402   7.303   2.359   5.428
10823TIP3    H232403   7.369   2.226   5.459
10824TIP3   OH232404   5.873   3.660   5.415
10824TIP3    H132405   5.788   3.625   5.382
10824TIP3    H232406   5.863   3.754   5.390
10825TIP3   OH232407   6.274   2.245   5.399
10825TIP3    H132408   6.324   2.183   5.342
10825TIP3    H232409   6.347   2.299   5.437
10826TIP3   OH232410   6.785   2.422   5.500
10826TIP3    H132411   6.845   2.375   5.559
10826TIP3    H232412   6.807   2.515   5.524
10827TIP3   OH232413   6.646   3.847   4.998
10827TIP3    H132414   6.734   3.868   4.962
10827TIP3    H232415   6.623   3.771   4.940
10828TIP3   OH232416   7.364   3.965   5.094
10828TIP3    H132417   7.357   3.867   5.081
10828TIP3    H232418   7.320   3.996   5.012
10829TIP3   OH232419   6.577   2.501   6.885
10829TIP3    H132420   6.544   2.427   6.939
10829TIP3    H232421   6.672   2.499   6.909
10830TIP3   OH232422   6.828   2.497   7.001
10830TIP3    H132423   6.911   2.467   6.960
10830TIP3    H232424   6.814   2.427   7.068
10831TIP3   OH232425   5.952   3.684   5.055
10831TIP3    H132426   5.953   3.703   5.150
10831TIP3    H232427   6.039   3.640   5.041
10832TIP3   OH232428   7.646   2.566   6.772
10832TIP3    H132429   7.659   2.532   6.864
10832TIP3    H232430   7.737   2.558   6.735
10833TIP3   OH232431   7.588   4.109   6.284
10833TIP3    H132432   7.512   4.077   6.231
10833TIP3    H232433   7.571   4.205   6.281
10834TIP3   OH232434   8.153   3.377   5.794
10834TIP3    H132435   8.182   3.308   5.856
10834TIP3    H232436   8.236   3.426   5.781
10835TIP3   OH232437   8.127   3.790   5.520
10835TIP3    H132438   8.118   3.692   5.520
10835TIP3    H232439   8.223   3.798   5.508
10836TIP3   OH232440   7.836   3.005   5.297
10836TIP3    H132441   7.773   3.078   5.306
10836TIP3    H232442   7.776   2.931   5.276
10837TIP3   OH232443   7.895   3.278   5.478
10837TIP3    H132444   7.941   3.199   5.512
10837TIP3    H232445   7.941   3.291   5.394
10838TIP3   OH232446   8.757   4.211   5.105
10838TIP3    H132447   8.852   4.185   5.104
10838TIP3    H232448   8.742   4.219   5.200
10839TIP3   OH232449   8.660   3.694   5.476
10839TIP3    H132450   8.665   3.657   5.387
10839TIP3    H232451   8.740   3.749   5.483
10840TIP3   OH232452   8.384   2.869   5.484
10840TIP3    H132453   8.391   2.936   5.414
10840TIP3    H232454   8.351   2.793   5.432
10841TIP3   OH232455   8.038   3.070   5.581
10841TIP3    H132456   8.121   3.045   5.626
10841TIP3    H232457   8.042   3.010   5.504
10842TIP3   OH232458   8.463   3.272   5.372
10842TIP3    H132459   8.555   3.238   5.386
10842TIP3    H232460   8.420   3.189   5.341
10843TIP3   OH232461   8.403   2.860   5.917
10843TIP3    H132462   8.347   2.888   5.842
10843TIP3    H232463   8.344   2.882   5.992
10844TIP3   OH232464   8.513   3.626   5.710
10844TIP3    H132465   8.447   3.689   5.745
10844TIP3    H232466   8.553   3.677   5.637
10845TIP3   OH232467   8.266   2.967   5.702
10845TIP3    H132468   8.332   3.038   5.718
10845TIP3    H232469   8.309   2.924   5.623
10846TIP3   OH232470   8.339   3.821   5.801
10846TIP3    H132471   8.311   3.906   5.761
10846TIP3    H232472   8.260   3.803   5.856
10847TIP3   OH232473   7.730   3.511   5.035
10847TIP3    H132474   7.689   3.535   4.949
10847TIP3    H232475   7.761   3.598   5.068
10848TIP3   OH232476   8.257   3.417   5.262
10848TIP3    H132477   8.215   3.357   5.196
10848TIP3    H232478   8.333   3.362   5.292
10849TIP3   OH232479   8.388   3.828   5.409
10849TIP3    H132480   8.362   3.792   5.323
10849TIP3    H232481   8.473   3.785   5.427
10850TIP3   OH232482   8.404   3.385   5.621
10850TIP3    H132483   8.428   3.360   5.529
10850TIP3    H232484   8.444   3.473   5.633
10851TIP3   OH232485   8.538   3.940   5.952
10851TIP3    H132486   8.476   4.004   5.992
10851TIP3    H232487   8.475   3.886   5.899
10852TIP3   OH232488   8.296   3.503   6.046
10852TIP3    H132489   8.296   3.589   6.092
10852TIP3    H232490   8.201   3.478   6.054
10853TIP3   OH232491   8.630   3.986   4.984
10853TIP3    H132492   8.656   4.077   5.007
10853TIP3    H232493   8.570   3.999   4.910
10854TIP3   OH232494   8.335   4.112   6.031
10854TIP3    H132495   8.301   4.111   5.939
10854TIP3    H232496   8.254   4.090   6.082
10855TIP3   OH232497   8.131   3.256   5.072
10855TIP3    H132498   8.065   3.298   5.013
10855TIP3    H232499   8.092   3.169   5.087
10856TIP3   OH232500   7.915   3.642   5.976
10856TIP3    H132501   7.849   3.620   5.907
10856TIP3    H232502   7.952   3.554   6.000
10857TIP3   OH232503   7.769   3.833   5.610
10857TIP3    H132504   7.865   3.825   5.599
10857TIP3    H232505   7.762   3.913   5.664
10858TIP3   OH232506   8.730   4.057   5.794
10858TIP3    H132507   8.733   4.149   5.828
10858TIP3    H232508   8.659   4.020   5.851
10859TIP3   OH232509   8.504   4.198   4.750
10859TIP3    H132510   8.458   4.174   4.667
10859TIP3    H232511   8.468   4.286   4.770
10860TIP3   OH232512   7.937   4.049   5.136
10860TIP3    H132513   7.983   4.038   5.222
10860TIP3    H232514   7.887   3.965   5.132
10861TIP3   OH232515   8.772   4.162   4.688
10861TIP3    H132516   8.677   4.171   4.712
10861TIP3    H232517   8.788   4.069   4.710
10862TIP3   OH232518   8.121   3.823   5.965
10862TIP3    H132519   8.170   3.804   6.048
10862TIP3    H232520   8.047   3.760   5.970
10863TIP3   OH232521   8.510   2.632   5.774
10863TIP3    H132522   8.424   2.609   5.735
10863TIP3    H232523   8.496   2.726   5.794
10864TIP3   OH232524   8.446   3.164   5.770
10864TIP3    H132525   8.392   3.182   5.850
10864TIP3    H232526   8.429   3.244   5.716
10865TIP3   OH232527   8.334   3.049   5.279
10865TIP3    H132528   8.244   3.015   5.300
10865TIP3    H232529   8.348   3.007   5.191
10866TIP3   OH232530   8.262   3.191   5.978
10866TIP3    H132531   8.307   3.245   6.045
10866TIP3    H232532   8.250   3.106   6.026
10867TIP3   OH232533   8.305   2.624   4.676
10867TIP3    H132534   8.295   2.645   4.770
10867TIP3    H232535   8.249   2.691   4.635
10868TIP3   OH232536   7.871   2.763   5.534
10868TIP3    H132537   7.934   2.739   5.604
10868TIP3    H232538   7.857   2.678   5.488
10869TIP3   OH232539   7.841   2.679   5.060
10869TIP3    H132540   7.876   2.739   4.991
10869TIP3    H232541   7.793   2.741   5.117
10870TIP3   OH232542   8.097   2.928   5.347
10870TIP3    H132543   8.000   2.935   5.327
10870TIP3    H232544   8.111   2.832   5.341
10871TIP3   OH232545   8.377   2.933   5.031
10871TIP3    H132546   8.458   2.941   4.980
10871TIP3    H232547   8.309   2.946   4.960
10872TIP3   OH232548   8.211   2.951   4.821
10872TIP3    H132549   8.138   2.906   4.773
10872TIP3    H232550   8.262   2.986   4.745
10873TIP3   OH232551   8.280   3.747   6.187
10873TIP3    H132552   8.360   3.776   6.236
10873TIP3    H232553   8.215   3.743   6.260
10874TIP3   OH232554   8.272   2.682   5.319
10874TIP3    H132555   8.235   2.609   5.374
10874TIP3    H232556   8.297   2.635   5.239
10875TIP3   OH232557   8.715   3.093   5.791
10875TIP3    H132558   8.625   3.117   5.760
10875TIP3    H232559   8.765   3.175   5.777
10876TIP3   OH232560   8.420   3.515   4.828
10876TIP3    H132561   8.375   3.429   4.820
10876TIP3    H232562   8.431   3.525   4.925
10877TIP3   OH232563   8.819   3.776   5.855
10877TIP3    H132564   8.854   3.767   5.944
10877TIP3    H232565   8.802   3.871   5.848
10878TIP3   OH232566   8.157   3.517   5.503
10878TIP3    H132567   8.186   3.483   5.415
10878TIP3    H232568   8.180   3.443   5.561
10879TIP3   OH232569   8.588   3.633   4.648
10879TIP3    H132570   8.553   3.723   4.666
10879TIP3    H232571   8.539   3.581   4.716
10880TIP3   OH232572   8.031   3.431   6.116
10880TIP3    H132573   8.054   3.412   6.209
10880TIP3    H232574   7.964   3.363   6.097
10881TIP3   OH232575   8.759   3.547   6.134
10881TIP3    H132576   8.708   3.497   6.068
10881TIP3    H232577   8.848   3.509   6.124
10882TIP3   OH232578   8.252   3.814   5.134
10882TIP3    H132579   8.253   3.892   5.075
10882TIP3    H232580   8.159   3.790   5.131
10883TIP3   OH232581   7.814   3.118   4.831
10883TIP3    H132582   7.860   3.202   4.853
10883TIP3    H232583   7.737   3.123   4.892
10884TIP3   OH232584   8.409   3.583   5.099
10884TIP3    H132585   8.362   3.669   5.099
10884TIP3    H232586   8.352   3.529   5.157
10885TIP3   OH232587   8.519   4.152   5.596
10885TIP3    H132588   8.554   4.229   5.546
10885TIP3    H232589   8.599   4.123   5.644
10886TIP3   OH232590   8.172   4.051   4.981
10886TIP3    H132591   8.085   4.060   5.025
10886TIP3    H232592   8.203   4.144   4.982
10887TIP3   OH232593   8.233   2.941   6.123
10887TIP3    H132594   8.136   2.942   6.129
10887TIP3    H232595   8.256   2.873   6.188
10888TIP3   OH232596   7.958   4.021   5.754
10888TIP3    H132597   8.011   3.947   5.788
10888TIP3    H232598   7.987   4.093   5.811
10889TIP3   OH232599   8.237   3.667   4.441
10889TIP3    H132600   8.250   3.576   4.408
10889TIP3    H232601   8.222   3.651   4.536
10890TIP3   OH232602   8.195   3.665   4.715
10890TIP3    H132603   8.276   3.631   4.757
10890TIP3    H232604   8.206   3.763   4.724
10891TIP3   OH232605   7.930   3.361   4.913
10891TIP3    H132606   7.863   3.406   4.969
10891TIP3    H232607   7.946   3.430   4.846
10892TIP3   OH232608   8.464   3.874   4.674
10892TIP3    H132609   8.373   3.902   4.696
10892TIP3    H232610   8.484   3.933   4.600
10893TIP3   OH232611   8.202   3.943   4.724
10893TIP3    H132612   8.169   4.012   4.662
10893TIP3    H232613   8.187   3.986   4.811
10894TIP3   OH232614   8.325   2.660   4.963
10894TIP3    H132615   8.295   2.740   5.008
10894TIP3    H232616   8.402   2.695   4.914
10895TIP3   OH232617   7.924   3.570   4.718
10895TIP3    H132618   7.998   3.634   4.728
10895TIP3    H232619   7.964   3.512   4.650
10896TIP3   OH232620   7.874   2.851   4.848
10896TIP3    H132621   7.863   2.948   4.845
10896TIP3    H232622   7.790   2.819   4.814
10897TIP3   OH232623   8.244   2.569   5.724
10897TIP3    H132624   8.223   2.536   5.634
10897TIP3    H232625   8.237   2.488   5.778
10898TIP3   OH232626   7.796   3.793   5.105
10898TIP3    H132627   7.724   3.817   5.164
10898TIP3    H232628   7.764   3.831   5.020
10899TIP3   OH232629   7.947   4.319   6.195
10899TIP3    H132630   8.038   4.314   6.231
10899TIP3    H232631   7.927   4.225   6.179
10900TIP3   OH232632   8.432   4.288   6.222
10900TIP3    H132633   8.525   4.263   6.228
10900TIP3    H232634   8.402   4.231   6.148
10901TIP3   OH232635   8.416   3.856   4.356
10901TIP3    H132636   8.345   3.796   4.389
10901TIP3    H232637   8.490   3.792   4.357
10902TIP3   OH232638   8.079   3.735   6.378
10902TIP3    H132639   8.096   3.639   6.385
10902TIP3    H232640   7.993   3.736   6.332
10903TIP3   OH232641   8.057   3.383   4.572
10903TIP3    H132642   8.113   3.350   4.644
10903TIP3    H232643   8.124   3.387   4.500
10904TIP3   OH232644   8.701   3.822   6.147
10904TIP3    H132645   8.649   3.835   6.066
10904TIP3    H232646   8.718   3.725   6.146
10905TIP3   OH232647   8.563   3.614   4.378
10905TIP3    H132648   8.574   3.610   4.476
10905TIP3    H232649   8.510   3.534   4.360
10906TIP3   OH232650   8.207   3.461   6.355
10906TIP3    H132651   8.289   3.414   6.332
10906TIP3    H232652   8.229   3.494   6.445
10907TIP3   OH232653   8.269   3.282   4.792
10907TIP3    H132654   8.238   3.236   4.872
10907TIP3    H232655   8.308   3.210   4.740
10908TIP3   OH232656   8.509   3.334   6.043
10908TIP3    H132657   8.438   3.402   6.046
10908TIP3    H232658   8.565   3.369   5.971
10909TIP3   OH232659   8.371   3.076   4.632
10909TIP3    H132660   8.333   3.082   4.542
10909TIP3    H232661   8.464   3.055   4.608
10910TIP3   OH232662   8.659   3.133   6.152
10910TIP3    H132663   8.661   3.051   6.099
10910TIP3    H232664   8.606   3.193   6.096
10911TIP3   OH232665   8.667   2.909   5.980
10911TIP3    H132666   8.679   2.965   5.900
10911TIP3    H232667   8.577   2.875   5.962
10912TIP3   OH232668   8.664   3.459   5.867
10912TIP3    H132669   8.730   3.442   5.798
10912TIP3    H232670   8.607   3.524   5.820
10913TIP3   OH232671   8.486   3.272   6.349
10913TIP3    H132672   8.435   3.189   6.365
10913TIP3    H232673   8.529   3.253   6.264
10914TIP3   OH232674   8.368   3.036   6.417
10914TIP3    H132675   8.372   2.942   6.393
10914TIP3    H232676   8.411   3.032   6.507
10915TIP3   OH232677   8.165   4.151   4.541
10915TIP3    H132678   8.261   4.142   4.526
10915TIP3    H232679   8.141   4.197   4.459
10916TIP3   OH232680   7.654   3.525   4.755
10916TIP3    H132681   7.749   3.546   4.740
10916TIP3    H232682   7.648   3.437   4.713
10917TIP3   OH232683   7.566   4.138   5.170
10917TIP3    H132684   7.501   4.075   5.132
10917TIP3    H232685   7.612   4.080   5.234
10918TIP3   OH232686   7.701   3.989   5.357
10918TIP3    H132687   7.691   3.915   5.418
10918TIP3    H232688   7.754   4.050   5.411
10919TIP3   OH232689   7.889   3.396   5.728
10919TIP3    H132690   7.887   3.362   5.635
10919TIP3    H232691   7.986   3.397   5.744
10920TIP3   OH232692   8.100   3.080   6.405
10920TIP3    H132693   8.198   3.077   6.398
10920TIP3    H232694   8.083   2.994   6.448
10921TIP3   OH232695   8.064   2.774   5.762
10921TIP3    H132696   8.125   2.698   5.751
10921TIP3    H232697   8.124   2.848   5.738
10922TIP3   OH232698   7.871   3.051   5.806
10922TIP3    H132699   7.914   3.028   5.722
10922TIP3    H232700   7.912   3.136   5.824
10923TIP3   OH232701   8.077   2.640   6.126
10923TIP3    H132702   8.019   2.630   6.203
10923TIP3    H232703   8.014   2.674   6.059
10924TIP3   OH232704   8.116   4.062   6.196
10924TIP3    H132705   8.024   4.034   6.177
10924TIP3    H232706   8.125   4.036   6.288
10925TIP3   OH232707   8.295   4.092   5.747
10925TIP3    H132708   8.245   4.167   5.708
10925TIP3    H232709   8.380   4.106   5.699
10926TIP3   OH232710   8.732   4.322   5.887
10926TIP3    H132711   8.779   4.332   5.972
10926TIP3    H232712   8.783   4.381   5.827
10927TIP3   OH232713   8.871   4.485   5.710
10927TIP3    H132714   8.921   4.475   5.624
10927TIP3    H232715   8.909   4.570   5.741
10928TIP3   OH232716   7.974   4.355   5.773
10928TIP3    H132717   7.880   4.377   5.755
10928TIP3    H232718   7.990   4.413   5.850
10929TIP3   OH232719   8.205   4.326   5.628
10929TIP3    H132720   8.119   4.339   5.674
10929TIP3    H232721   8.184   4.358   5.538
10930TIP3   OH232722   8.606   4.363   5.429
10930TIP3    H132723   8.535   4.376   5.363
10930TIP3    H232724   8.620   4.454   5.461
10931TIP3   OH232725   8.856   4.262   5.412
10931TIP3    H132726   8.764   4.297   5.421
10931TIP3    H232727   8.909   4.342   5.431
10932TIP3   OH232728   7.881   4.144   5.513
10932TIP3    H132729   7.907   4.115   5.603
10932TIP3    H232730   7.953   4.101   5.461
10933TIP3   OH232731   8.074   4.016   5.371
10933TIP3    H132732   8.090   3.931   5.420
10933TIP3    H232733   8.165   4.051   5.366
10934TIP3   OH232734   8.342   4.111   5.372
10934TIP3    H132735   8.369   4.019   5.357
10934TIP3    H232736   8.387   4.128   5.457
10935TIP3   OH232737   8.169   2.478   5.473
10935TIP3    H132738   8.074   2.464   5.452
10935TIP3    H232739   8.206   2.387   5.463
10936TIP3   OH232740   7.947   2.345   5.118
10936TIP3    H132741   7.965   2.421   5.059
10936TIP3    H232742   7.911   2.392   5.197
10937TIP3   OH232743   7.669   3.916   4.903
10937TIP3    H132744   7.584   3.881   4.869
10937TIP3    H232745   7.658   4.010   4.879
10938TIP3   OH232746   8.068   2.507   4.882
10938TIP3    H132747   8.116   2.447   4.821
10938TIP3    H232748   8.139   2.557   4.924
10939TIP3   OH232749   8.430   4.099   4.492
10939TIP3    H132750   8.521   4.114   4.459
10939TIP3    H232751   8.407   4.023   4.434
10940TIP3   OH232752   8.379   2.765   6.375
10940TIP3    H132753   8.353   2.695   6.438
10940TIP3    H232754   8.467   2.738   6.348
10941TIP3   OH232755   7.749   3.941   4.542
10941TIP3    H132756   7.752   3.957   4.637
10941TIP3    H232757   7.835   3.897   4.526
10942TIP3   OH232758   1.310   4.270   6.736
10942TIP3    H132759   1.279   4.360   6.713
10942TIP3    H232760   1.237   4.218   6.697
10943TIP3   OH232761   1.312   4.272   7.117
10943TIP3    H132762   1.340   4.238   7.203
10943TIP3    H232763   1.267   4.195   7.078
10944TIP3   OH232764   0.646   4.137   7.445
10944TIP3    H132765   0.599   4.112   7.526
10944TIP3    H232766   0.671   4.228   7.464
10945TIP3   OH232767   1.555   4.572   6.799
10945TIP3    H132768   1.536   4.503   6.864
10945TIP3    H232769   1.583   4.646   6.854
10946TIP3   OH232770   0.587   4.562   7.158
10946TIP3    H132771   0.571   4.467   7.177
10946TIP3    H232772   0.682   4.567   7.175
10947TIP3   OH232773   0.358   4.048   7.121
10947TIP3    H132774   0.398   4.016   7.203
10947TIP3    H232775   0.406   4.128   7.102
10948TIP3   OH232776   1.205   5.035   6.819
10948TIP3    H132777   1.246   4.967   6.761
10948TIP3    H232778   1.199   4.986   6.902
10949TIP3   OH232779   1.107   4.495   7.166
10949TIP3    H132780   1.144   4.419   7.118
10949TIP3    H232781   1.192   4.539   7.190
10950TIP3   OH232782   2.121   3.814   7.163
10950TIP3    H132783   2.149   3.897   7.206
10950TIP3    H232784   2.143   3.832   7.070
10951TIP3   OH232785   1.519   3.996   7.196
10951TIP3    H132786   1.562   3.910   7.215
10951TIP3    H232787   1.488   3.981   7.105
10952TIP3   OH232788   0.862   3.655   7.162
10952TIP3    H132789   0.841   3.728   7.100
10952TIP3    H232790   0.814   3.582   7.118
10953TIP3   OH232791   1.553   3.748   6.786
10953TIP3    H132792   1.629   3.734   6.848
10953TIP3    H232793   1.599   3.784   6.709
10954TIP3   OH232794   0.498   3.857   7.278
10954TIP3    H132795   0.582   3.845   7.324
10954TIP3    H232796   0.517   3.816   7.192
10955TIP3   OH232797   0.934   4.056   7.048
10955TIP3    H132798   1.026   4.030   7.071
10955TIP3    H232799   0.895   3.970   7.023
10956TIP3   OH232800   2.193   4.021   7.335
10956TIP3    H132801   2.111   4.070   7.316
10956TIP3    H232802   2.215   4.056   7.423
10957TIP3   OH232803   0.851   3.629   7.596
10957TIP3    H132804   0.800   3.675   7.526
10957TIP3    H232805   0.806   3.660   7.675
10958TIP3   OH232806   1.199   4.490   6.607
10958TIP3    H132807   1.160   4.470   6.521
10958TIP3    H232808   1.153   4.573   6.630
10959TIP3   OH232809   0.961   4.422   7.396
10959TIP3    H132810   0.897   4.487   7.433
10959TIP3    H232811   1.000   4.470   7.321
10960TIP3   OH232812   1.764   3.749   6.960
10960TIP3    H132813   1.746   3.709   7.046
10960TIP3    H232814   1.816   3.828   6.984
10961TIP3   OH232815   0.735   3.752   7.382
10961TIP3    H132816   0.791   3.830   7.404
10961TIP3    H232817   0.784   3.717   7.304
10962TIP3   OH232818   0.777   4.600   7.510
10962TIP3    H132819   0.719   4.653   7.451
10962TIP3    H232820   0.709   4.562   7.568
10963TIP3   OH232821   1.623   4.816   6.968
10963TIP3    H132822   1.532   4.807   7.005
10963TIP3    H232823   1.615   4.900   6.920
10964TIP3   OH232824   1.915   3.712   7.328
10964TIP3    H132825   1.828   3.742   7.298
10964TIP3    H232826   1.974   3.745   7.258
10965TIP3   OH232827   1.214   3.356   7.312
10965TIP3    H132828   1.196   3.261   7.326
10965TIP3    H232829   1.135   3.395   7.356
10966TIP3   OH232830   1.321   4.863   6.638
10966TIP3    H132831   1.370   4.780   6.618
10966TIP3    H232832   1.382   4.928   6.597
10967TIP3   OH232833   1.464   4.648   6.548
10967TIP3    H132834   1.434   4.567   6.503
10967TIP3    H232835   1.501   4.611   6.631
10968TIP3   OH232836   1.848   4.727   7.310
10968TIP3    H132837   1.837   4.650   7.250
10968TIP3    H232838   1.831   4.802   7.248
10969TIP3   OH232839   1.143   4.124   6.569
10969TIP3    H132840   1.062   4.172   6.545
10969TIP3    H232841   1.185   4.110   6.482
10970TIP3   OH232842   1.099   3.890   6.314
10970TIP3    H132843   1.175   3.946   6.337
10970TIP3    H232844   1.137   3.841   6.239
10971TIP3   OH232845   2.043   4.364   7.155
10971TIP3    H132846   1.960   4.417   7.158
10971TIP3    H232847   2.074   4.388   7.065
10972TIP3   OH232848   1.488   4.207   6.537
10972TIP3    H132849   1.433   4.231   6.615
10972TIP3    H232850   1.571   4.180   6.581
10973TIP3   OH232851   1.723   4.243   7.451
10973TIP3    H132852   1.718   4.328   7.497
10973TIP3    H232853   1.636   4.243   7.405
10974TIP3   OH232854   0.719   4.197   6.955
10974TIP3    H132855   0.678   4.139   6.887
10974TIP3    H232856   0.799   4.146   6.979
10975TIP3   OH232857   0.863   4.624   7.099
10975TIP3    H132858   0.834   4.580   7.017
10975TIP3    H232859   0.950   4.582   7.115
10976TIP3   OH232860   0.912   4.163   7.307
10976TIP3    H132861   0.908   4.156   7.210
10976TIP3    H232862   0.915   4.259   7.323
10977TIP3   OH232863   1.381   4.812   7.087
10977TIP3    H132864   1.369   4.890   7.144
10977TIP3    H232865   1.367   4.737   7.148
10978TIP3   OH232866   0.992   4.729   7.634
10978TIP3    H132867   0.933   4.789   7.683
10978TIP3    H232868   0.925   4.673   7.589
10979TIP3   OH232869   1.327   4.060   6.366
10979TIP3    H132870   1.387   4.121   6.414
10979TIP3    H232871   1.351   4.081   6.272
10980TIP3   OH232872   0.726   4.259   7.719
10980TIP3    H132873   0.748   4.345   7.762
10980TIP3    H232874   0.633   4.275   7.699
10981TIP3   OH232875   1.072   4.741   6.644
10981TIP3    H132876   1.153   4.795   6.651
10981TIP3    H232877   1.012   4.799   6.594
10982TIP3   OH232878   0.778   4.894   7.712
10982TIP3    H132879   0.753   4.899   7.618
10982TIP3    H232880   0.698   4.856   7.753
10983TIP3   OH232881   1.844   3.301   6.414
10983TIP3    H132882   1.762   3.325   6.463
10983TIP3    H232883   1.859   3.383   6.363
10984TIP3   OH232884   0.596   4.036   6.761
10984TIP3    H132885   0.535   4.085   6.702
10984TIP3    H232886   0.545   3.956   6.778
10985TIP3   OH232887   1.643   4.670   5.962
10985TIP3    H132888   1.651   4.766   5.947
10985TIP3    H232889   1.736   4.640   5.949
10986TIP3   OH232890   2.084   5.073   7.358
10986TIP3    H132891   2.083   4.976   7.368
10986TIP3    H232892   2.000   5.096   7.402
10987TIP3   OH232893   1.191   4.856   7.490
10987TIP3    H132894   1.190   4.949   7.522
10987TIP3    H232895   1.119   4.817   7.543
10988TIP3   OH232896   0.953   4.986   6.443
10988TIP3    H132897   0.908   4.968   6.359
10988TIP3    H232898   0.924   5.076   6.464
10989TIP3   OH232899   1.157   4.890   6.080
10989TIP3    H132900   1.214   4.819   6.045
10989TIP3    H232901   1.190   4.899   6.172
10990TIP3   OH232902   1.205   4.938   6.351
10990TIP3    H132903   1.116   4.947   6.391
10990TIP3    H232904   1.253   4.894   6.423
10991TIP3   OH232905   1.972   4.202   7.632
10991TIP3    H132906   1.894   4.214   7.577
10991TIP3    H232907   1.989   4.106   7.621
10992TIP3   OH232908   0.974   3.433   7.434
10992TIP3    H132909   0.885   3.402   7.408
10992TIP3    H232910   0.949   3.517   7.477
10993TIP3   OH232911   1.508   3.554   7.622
10993TIP3    H132912   1.579   3.519   7.681
10993TIP3    H232913   1.425   3.533   7.668
10994TIP3   OH232914   1.744   3.978   7.548
10994TIP3    H132915   1.698   3.975   7.635
10994TIP3    H232916   1.719   4.066   7.514
10995TIP3   OH232917   1.405   4.111   6.110
10995TIP3    H132918   1.363   4.082   6.027
10995TIP3    H232919   1.487   4.152   6.077
10996TIP3   OH232920   1.118   3.475   6.411
10996TIP3    H132921   1.082   3.477   6.501
10996TIP3    H232922   1.073   3.396   6.376
10997TIP3   OH232923   0.906   3.945   7.464
10997TIP3    H132924   0.854   3.970   7.543
10997TIP3    H232925   0.899   4.027   7.409
10998TIP3   OH232926   0.788   3.832   6.972
10998TIP3    H132927   0.693   3.814   6.985
10998TIP3    H232928   0.800   3.795   6.882
10999TIP3   OH232929   1.276   3.921   6.702
10999TIP3    H132930   1.225   3.992   6.658
10999TIP3    H232931   1.331   3.889   6.627
11000TIP3   OH232932   1.462   4.211   7.784
11000TIP3    H132933   1.436   4.130   7.830
11000TIP3    H232934   1.557   4.214   7.803
11001TIP3   OH232935   1.434   3.950   6.938
11001TIP3    H132936   1.373   3.980   6.868
11001TIP3    H232937   1.467   3.869   6.894
11002TIP3   OH232938   0.738   3.963   7.694
11002TIP3    H132939   0.754   4.056   7.721
11002TIP3    H232940   0.646   3.952   7.716
11003TIP3   OH232941   0.770   3.451   6.379
11003TIP3    H132942   0.756   3.458   6.476
11003TIP3    H232943   0.696   3.506   6.346
11004TIP3   OH232944   0.326   3.525   7.252
11004TIP3    H132945   0.412   3.528   7.297
11004TIP3    H232946   0.340   3.461   7.180
11005TIP3   OH232947   0.310   3.532   6.797
11005TIP3    H132948   0.336   3.547   6.702
11005TIP3    H232949   0.288   3.621   6.822
11006TIP3   OH232950   1.451   4.197   7.361
11006TIP3    H132951   1.481   4.125   7.301
11006TIP3    H232952   1.417   4.144   7.436
11007TIP3   OH232953   1.118   3.651   7.034
11007TIP3    H132954   1.035   3.655   7.085
11007TIP3    H232955   1.185   3.659   7.103
11008TIP3   OH232956   0.547   3.706   7.043
11008TIP3    H132957   0.454   3.684   7.034
11008TIP3    H232958   0.591   3.621   7.024
11009TIP3   OH232959   0.817   3.710   6.728
11009TIP3    H132960   0.911   3.728   6.706
11009TIP3    H232961   0.770   3.735   6.645
11010TIP3   OH232962   1.607   3.732   7.236
11010TIP3    H132963   1.572   3.748   7.327
11010TIP3    H232964   1.539   3.673   7.200
11011TIP3   OH232965   0.664   3.747   6.503
11011TIP3    H132966   0.599   3.701   6.447
11011TIP3    H232967   0.720   3.786   6.433
11012TIP3   OH232968   1.777   5.423   7.455
11012TIP3    H132969   1.774   5.445   7.359
11012TIP3    H232970   1.858   5.471   7.482
11013TIP3   OH232971   0.741   4.495   7.848
11013TIP3    H132972   0.812   4.552   7.886
11013TIP3    H232973   0.671   4.505   7.912
11014TIP3   OH232974   1.197   3.985   7.129
11014TIP3    H132975   1.272   3.949   7.079
11014TIP3    H232976   1.208   3.943   7.216
11015TIP3   OH232977   0.718   3.477   7.011
11015TIP3    H132978   0.683   3.396   7.054
11015TIP3    H232979   0.758   3.442   6.931
11016TIP3   OH232980   1.174   3.883   7.420
11016TIP3    H132981   1.084   3.922   7.431
11016TIP3    H232982   1.231   3.947   7.468
11017TIP3   OH232983   0.911   4.274   6.516
11017TIP3    H132984   0.839   4.209   6.503
11017TIP3    H232985   0.892   4.306   6.608
11018TIP3   OH232986   1.810   4.510   7.145
11018TIP3    H132987   1.835   4.559   7.063
11018TIP3    H232988   1.725   4.469   7.119
11019TIP3   OH232989   1.370   3.578   6.390
11019TIP3    H132990   1.273   3.562   6.388
11019TIP3    H232991   1.376   3.675   6.384
11020TIP3   OH232992   1.314   4.595   7.513
11020TIP3    H132993   1.325   4.571   7.605
11020TIP3    H232994   1.272   4.683   7.518
11021TIP3   OH232995   1.438   3.837   6.490
11021TIP3    H132996   1.535   3.846   6.493
11021TIP3    H232997   1.412   3.906   6.426
11022TIP3   OH232998   0.621   4.292   7.200
11022TIP3    H132999   0.654   4.251   7.118
11022TIP3    H233000   0.621   4.218   7.264
11023TIP3   OH233001   1.055   4.424   6.338
11023TIP3    H133002   1.007   4.511   6.344
11023TIP3    H233003   1.001   4.369   6.398
11024TIP3   OH233004   1.210   4.332   7.810
11024TIP3    H133005   1.147   4.272   7.766
11024TIP3    H233006   1.295   4.295   7.779
11025TIP3   OH233007   1.471   4.854   7.408
11025TIP3    H133008   1.374   4.848   7.420
11025TIP3    H233009   1.496   4.909   7.485
11026TIP3   OH233010   1.880   3.925   6.317
11026TIP3    H133011   1.820   3.879   6.254
11026TIP3    H233012   1.875   4.014   6.276
11027TIP3   OH233013   2.098   4.784   7.397
11027TIP3    H133014   2.001   4.776   7.387
11027TIP3    H233015   2.126   4.753   7.308
11028TIP3   OH233016   1.584   4.742   6.227
11028TIP3    H133017   1.554   4.671   6.286
11028TIP3    H233018   1.594   4.697   6.141
11029TIP3   OH233019   1.576   4.372   7.064
11029TIP3    H133020   1.483   4.346   7.076
11029TIP3    H233021   1.610   4.293   7.018
11030TIP3   OH233022   0.710   4.602   6.820
11030TIP3    H133023   0.703   4.681   6.762
11030TIP3    H233024   0.618   4.590   6.846
11031TIP3   OH233025   0.272   3.912   6.534
11031TIP3    H133026   0.331   3.990   6.549
11031TIP3    H233027   0.185   3.952   6.548
11032TIP3   OH233028   0.842   4.364   6.762
11032TIP3    H133029   0.808   4.455   6.779
11032TIP3    H233030   0.803   4.315   6.837
11033TIP3   OH233031   0.980   4.946   7.286
11033TIP3    H133032   1.023   5.016   7.231
11033TIP3    H233033   1.058   4.907   7.330
11034TIP3   OH233034   0.623   4.841   6.676
11034TIP3    H133035   0.537   4.862   6.715
11034TIP3    H233036   0.663   4.931   6.673
11035TIP3   OH233037   1.362   4.580   7.244
11035TIP3    H133038   1.354   4.577   7.342
11035TIP3    H233039   1.438   4.522   7.228
11036TIP3   OH233040   1.338   4.474   6.126
11036TIP3    H133041   1.389   4.449   6.206
11036TIP3    H233042   1.250   4.441   6.149
11037TIP3   OH233043   1.610   5.114   7.296
11037TIP3    H133044   1.531   5.056   7.288
11037TIP3    H233045   1.595   5.176   7.222
11038TIP3   OH233046   1.675   4.945   5.946
11038TIP3    H133047   1.712   5.017   5.893
11038TIP3    H233048   1.595   4.991   5.981
11039TIP3   OH233049   1.497   4.411   6.346
11039TIP3    H133050   1.485   4.340   6.413
11039TIP3    H233051   1.594   4.404   6.331
11040TIP3   OH233052   0.711   4.446   6.125
11040TIP3    H133053   0.710   4.353   6.096
11040TIP3    H233054   0.685   4.438   6.219
11041TIP3   OH233055   0.652   4.456   6.399
11041TIP3    H133056   0.726   4.430   6.455
11041TIP3    H233057   0.656   4.554   6.405
11042TIP3   OH233058   0.400   4.144   6.607
11042TIP3    H133059   0.329   4.187   6.657
11042TIP3    H233060   0.415   4.213   6.539
11043TIP3   OH233061   1.531   3.795   7.495
11043TIP3    H133062   1.616   3.829   7.528
11043TIP3    H233063   1.521   3.710   7.545
11044TIP3   OH233064   1.415   3.534   6.661
11044TIP3    H133065   1.396   3.556   6.567
11044TIP3    H233066   1.451   3.619   6.694
11045TIP3   OH233067   0.915   4.657   6.351
11045TIP3    H133068   0.828   4.683   6.386
11045TIP3    H233069   0.928   4.725   6.284
11046TIP3   OH233070   1.101   3.715   6.761
11046TIP3    H133071   1.164   3.787   6.740
11046TIP3    H233072   1.108   3.712   6.859
11047TIP3   OH233073   1.368   4.033   7.562
11047TIP3    H133074   1.385   4.080   7.645
11047TIP3    H233075   1.422   3.952   7.571
11048TIP3   OH233076   1.246   3.441   6.864
11048TIP3    H133077   1.230   3.521   6.918
11048TIP3    H233078   1.307   3.478   6.795
11049TIP3   OH233079   0.658   4.728   6.420
11049TIP3    H133080   0.630   4.796   6.354
11049TIP3    H233081   0.641   4.774   6.504
11050TIP3   OH233082   0.756   3.443   6.660
11050TIP3    H133083   0.755   3.537   6.689
11050TIP3    H233084   0.852   3.426   6.663
11051TIP3   OH233085   2.010   3.936   7.553
11051TIP3    H133086   1.912   3.934   7.555
11051TIP3    H233087   2.025   3.900   7.464
11052TIP3   OH233088   1.661   4.130   6.939
11052TIP3    H133089   1.585   4.071   6.948
11052TIP3    H233090   1.732   4.081   6.987
11053TIP3   OH233091   0.382   4.365   6.445
11053TIP3    H133092   0.457   4.425   6.428
11053TIP3    H233093   0.385   4.314   6.361
11054TIP3   OH233094   0.295   3.634   6.546
11054TIP3    H133095   0.305   3.732   6.544
11054TIP3    H233096   0.264   3.618   6.456
11055TIP3   OH233097   1.630   5.088   6.888
11055TIP3    H133098   1.587   5.135   6.813
11055TIP3    H233099   1.724   5.106   6.867
11056TIP3   OH233100   0.712   3.350   7.411
11056TIP3    H133101   0.679   3.321   7.323
11056TIP3    H233102   0.693   3.271   7.466
11057TIP3   OH233103   0.865   5.097   7.883
11057TIP3    H133104   0.946   5.082   7.933
11057TIP3    H233105   0.861   5.019   7.823
11058TIP3   OH233106   0.868   4.655   6.041
11058TIP3    H133107   0.811   4.583   6.076
11058TIP3    H233108   0.941   4.603   6.003
11059TIP3   OH233109   1.519   4.996   7.641
11059TIP3    H133110   1.509   4.917   7.699
11059TIP3    H233111   1.600   5.038   7.674
11060TIP3   OH233112   1.302   4.694   5.952
11060TIP3    H133113   1.341   4.627   6.011
11060TIP3    H233114   1.360   4.691   5.874
11061TIP3   OH233115   0.513   4.171   6.261
11061TIP3    H133116   0.572   4.147   6.334
11061TIP3    H233117   0.576   4.167   6.186
11062TIP3   OH233118   1.158   4.607   7.826
11062TIP3    H133119   1.109   4.625   7.743
11062TIP3    H233120   1.179   4.511   7.817
11063TIP3   OH233121   1.034   4.363   6.069
11063TIP3    H133122   1.030   4.379   6.166
11063TIP3    H233123   1.000   4.273   6.061
11064TIP3   OH233124   1.634   4.617   7.450
11064TIP3    H133125   1.707   4.661   7.402
11064TIP3    H233126   1.561   4.679   7.434
11065TIP3   OH233127   0.721   4.074   6.479
11065TIP3    H133128   0.697   4.026   6.560
11065TIP3    H233129   0.757   4.003   6.422
11066TIP3   OH233130   0.994   4.148   7.715
11066TIP3    H133131   0.909   4.196   7.711
11066TIP3    H233132   1.037   4.176   7.631
11067TIP3   OH233133   0.824   3.867   6.316
11067TIP3    H133134   0.813   3.864   6.219
11067TIP3    H233135   0.922   3.875   6.321
11068TIP3   OH233136   1.511   4.538   7.849
11068TIP3    H133137   1.577   4.511   7.785
11068TIP3    H233138   1.504   4.460   7.907
11069TIP3   OH233139   1.641   4.199   5.985
11069TIP3    H133140   1.619   4.153   5.901
11069TIP3    H233141   1.608   4.289   5.962
11070TIP3   OH233142   1.108   3.922   7.834
11070TIP3    H133143   1.096   3.846   7.773
11070TIP3    H233144   1.052   3.991   7.794
11071TIP3   OH233145   1.106   3.719   7.636
11071TIP3    H133146   1.133   3.769   7.556
11071TIP3    H233147   1.013   3.698   7.617
11072TIP3   OH233148   1.144   4.257   7.518
11072TIP3    H133149   1.221   4.260   7.460
11072TIP3    H233150   1.082   4.317   7.471
11073TIP3   OH233151   1.732   4.209   7.892
11073TIP3    H133152   1.772   4.121   7.903
11073TIP3    H233153   1.804   4.257   7.849
11074TIP3   OH233154   1.761   4.472   7.637
11074TIP3    H133155   1.705   4.526   7.576
11074TIP3    H233156   1.850   4.490   7.597
11075TIP3   OH233157   1.244   3.485   7.678
11075TIP3    H133158   1.201   3.573   7.665
11075TIP3    H233159   1.170   3.425   7.658
11076TIP3   OH233160   1.364   3.977   7.885
11076TIP3    H133161   1.345   4.019   7.971
11076TIP3    H233162   1.273   3.949   7.860
11077TIP3   OH233163   1.620   3.935   7.783
11077TIP3    H133164   1.533   3.932   7.828
11077TIP3    H233165   1.682   3.911   7.855
11078TIP3   OH233166   1.829   3.898   7.971
11078TIP3    H133167   1.858   3.804   7.962
11078TIP3    H233168   1.822   3.905   8.068
11079TIP3   OH233169   1.279   3.328   7.901
11079TIP3    H133170   1.322   3.384   7.967
11079TIP3    H233171   1.270   3.391   7.826
11080TIP3   OH233172   0.629   4.927   6.234
11080TIP3    H133173   0.723   4.930   6.207
11080TIP3    H233174   0.589   4.974   6.159
11081TIP3   OH233175   1.884   5.178   6.845
11081TIP3    H133176   1.914   5.213   6.931
11081TIP3    H233177   1.948   5.216   6.783
11082TIP3   OH233178   1.912   5.199   7.130
11082TIP3    H133179   1.868   5.111   7.123
11082TIP3    H233180   1.991   5.173   7.180
11083TIP3   OH233181   1.962   4.874   7.705
11083TIP3    H133182   1.885   4.883   7.764
11083TIP3    H233183   2.001   4.964   7.707
11084TIP3   OH233184   1.776   4.386   6.319
11084TIP3    H133185   1.844   4.451   6.290
11084TIP3    H233186   1.820   4.347   6.397
11085TIP3   OH233187   1.905   4.253   6.522
11085TIP3    H133188   1.838   4.211   6.581
11085TIP3    H233189   1.968   4.291   6.586
11086TIP3   OH233190   1.959   4.647   6.956
11086TIP3    H133191   2.011   4.581   6.906
11086TIP3    H233192   1.953   4.721   6.893
11087TIP3   OH233193   1.789   4.947   7.151
11087TIP3    H133194   1.715   4.988   7.200
11087TIP3    H233195   1.741   4.899   7.080
11088TIP3   OH233196   1.840   4.161   6.169
11088TIP3    H133197   1.769   4.164   6.101
11088TIP3    H233198   1.813   4.238   6.224
11089TIP3   OH233199   1.719   3.830   6.121
11089TIP3    H133200   1.664   3.876   6.056
11089TIP3    H233201   1.690   3.737   6.107
11090TIP3   OH233202   1.718   4.111   6.669
11090TIP3    H133203   1.723   4.015   6.661
11090TIP3    H233204   1.703   4.124   6.765
11091TIP3   OH233205   2.006   4.536   7.530
11091TIP3    H133206   2.077   4.469   7.519
11091TIP3    H233207   2.030   4.603   7.463
11092TIP3   OH233208   2.189   4.340   7.545
11092TIP3    H133209   2.115   4.287   7.582
11092TIP3    H233210   2.263   4.277   7.558
11093TIP3   OH233211   1.659   3.563   6.103
11093TIP3    H133212   1.726   3.535   6.168
11093TIP3    H233213   1.579   3.515   6.130
11094TIP3   OH233214   1.718   3.830   6.566
11094TIP3    H133215   1.758   3.741   6.579
11094TIP3    H233216   1.773   3.863   6.492
11095TIP3   OH233217   1.875   3.998   7.060
11095TIP3    H133218   1.960   4.025   7.018
11095TIP3    H233219   1.889   4.037   7.148
11096TIP3   OH233220   1.945   4.145   7.292
11096TIP3    H133221   1.866   4.180   7.338
11096TIP3    H233222   1.977   4.225   7.245
11097TIP3   OH233223   2.390   3.734   7.846
11097TIP3    H133224   2.456   3.676   7.803
11097TIP3    H233225   2.367   3.796   7.773
11098TIP3   OH233226   1.825   3.577   6.601
11098TIP3    H133227   1.871   3.560   6.686
11098TIP3    H233228   1.762   3.502   6.599
11099TIP3   OH233229   0.539   3.563   7.428
11099TIP3    H133230   0.603   3.489   7.429
11099TIP3    H233231   0.597   3.638   7.407
11100TIP3   OH233232   2.265   3.876   7.649
11100TIP3    H133233   2.177   3.915   7.665
11100TIP3    H233234   2.240   3.804   7.589
11101TIP3   OH233235   1.904   3.509   6.240
11101TIP3    H133236   1.943   3.441   6.181
11101TIP3    H233237   1.966   3.583   6.231
11102TIP3   OH233238   0.329   3.366   7.013
11102TIP3    H133239   0.235   3.350   7.026
11102TIP3    H233240   0.330   3.420   6.931
11103TIP3   OH233241   1.471   5.043   6.504
11103TIP3    H133242   1.518   5.027   6.420
11103TIP3    H233243   1.525   5.112   6.544
11104TIP3   OH233244   0.746   4.914   7.431
11104TIP3    H133245   0.725   4.991   7.375
11104TIP3    H233246   0.836   4.895   7.398
11105TIP3   OH233247   1.192   5.121   7.573
11105TIP3    H133248   1.233   5.124   7.661
11105TIP3    H233249   1.256   5.173   7.520
11106TIP3   OH233250   1.368   5.277   7.432
11106TIP3    H133251   1.436   5.226   7.387
11106TIP3    H233252   1.423   5.334   7.491
11107TIP3   OH233253   2.167   3.637   7.525
11107TIP3    H133254   2.076   3.632   7.490
11107TIP3    H233255   2.198   3.545   7.512
11108TIP3   OH233256   0.661   5.138   7.289
11108TIP3    H133257   0.628   5.225   7.318
11108TIP3    H233258   0.612   5.124   7.206
11109TIP3   OH233259   1.086   5.143   7.118
11109TIP3    H133260   1.034   5.162   7.038
11109TIP3    H233261   1.100   5.232   7.155
11110TIP3   OH233262   1.355   5.086   7.170
11110TIP3    H133263   1.261   5.099   7.148
11110TIP3    H233264   1.398   5.156   7.119
11111TIP3   OH233265   1.561   5.276   7.079
11111TIP3    H133266   1.546   5.360   7.031
11111TIP3    H233267   1.587   5.216   7.006
11112TIP3   OH233268   0.532   4.809   7.058
11112TIP3    H133269   0.538   4.718   7.096
11112TIP3    H233270   0.625   4.834   7.054
11113TIP3   OH233271   0.808   4.905   7.063
11113TIP3    H133272   0.830   4.812   7.042
11113TIP3    H233273   0.857   4.913   7.147
11114TIP3   OH233274   1.375   3.556   7.157
11114TIP3    H133275   1.329   3.484   7.203
11114TIP3    H233276   1.444   3.508   7.107
11115TIP3   OH233277   1.892   3.430   7.055
11115TIP3    H133278   1.929   3.484   6.981
11115TIP3    H233279   1.797   3.454   7.050
11116TIP3   OH233280   1.988   3.530   6.820
11116TIP3    H133281   2.062   3.481   6.778
11116TIP3    H233282   2.020   3.622   6.805
11117TIP3   OH233283   0.617   3.262   7.168
11117TIP3    H133284   0.523   3.235   7.163
11117TIP3    H233285   0.662   3.176   7.161
11118TIP3   OH233286   0.432   3.123   6.822
11118TIP3    H133287   0.449   3.182   6.746
11118TIP3    H233288   0.375   3.179   6.877
11119TIP3   OH233289   1.067   3.290   7.048
11119TIP3    H133290   1.119   3.342   6.985
11119TIP3    H233291   1.087   3.335   7.131
11120TIP3   OH233292   1.609   3.442   7.032
11120TIP3    H133293   1.602   3.410   6.941
11120TIP3    H233294   1.594   3.359   7.084
11121TIP3   OH233295   1.639   3.366   6.593
11121TIP3    H133296   1.555   3.413   6.605
11121TIP3    H233297   1.620   3.281   6.638
11122TIP3   OH233298   0.525   3.284   6.591
11122TIP3    H133299   0.570   3.229   6.525
11122TIP3    H233300   0.598   3.342   6.621
11123TIP3   OH233301   1.033   3.465   6.678
11123TIP3    H133302   1.098   3.423   6.737
11123TIP3    H233303   1.052   3.559   6.699
11124TIP3   OH233304   0.898   4.891   6.177
11124TIP3    H133305   0.985   4.914   6.138
11124TIP3    H233306   0.873   4.816   6.117
11125TIP3   OH233307   1.613   5.010   6.270
11125TIP3    H133308   1.606   4.912   6.257
11125TIP3    H233309   1.568   5.042   6.189
11126TIP3   OH233310   1.930   3.638   7.954
11126TIP3    H133311   1.966   3.579   8.024
11126TIP3    H233312   2.003   3.632   7.889
11127TIP3   OH233313   1.835   5.152   7.461
11127TIP3    H133314   1.759   5.122   7.407
11127TIP3    H233315   1.819   5.249   7.459
11128TIP3   OH233316   3.106   4.526   6.221
11128TIP3    H133317   3.076   4.617   6.200
11128TIP3    H233318   3.030   4.476   6.186
11129TIP3   OH233319   3.106   4.526   6.605
11129TIP3    H133320   3.138   4.500   6.693
11129TIP3    H233321   3.063   4.445   6.573
11130TIP3   OH233322   2.403   4.422   6.972
11130TIP3    H133323   2.436   4.354   7.034
11130TIP3    H233324   2.484   4.473   6.956
11131TIP3   OH233325   3.351   4.829   6.286
11131TIP3    H133326   3.334   4.761   6.353
11131TIP3    H233327   3.378   4.905   6.340
11132TIP3   OH233328   2.376   4.831   6.694
11132TIP3    H133329   2.368   4.733   6.695
11132TIP3    H233330   2.473   4.840   6.685
11133TIP3   OH233331   2.081   4.033   6.478
11133TIP3    H133332   2.033   4.116   6.493
11133TIP3    H233333   2.011   3.981   6.434
11134TIP3   OH233334   2.141   4.322   6.653
11134TIP3    H133335   2.191   4.245   6.688
11134TIP3    H233336   2.200   4.354   6.583
11135TIP3   OH233337   2.999   5.291   6.303
11135TIP3    H133338   3.042   5.219   6.252
11135TIP3    H233339   2.994   5.252   6.391
11136TIP3   OH233340   2.902   4.751   6.653
11136TIP3    H133341   2.942   4.677   6.605
11136TIP3    H233342   2.985   4.798   6.678
11137TIP3   OH233343   3.918   4.072   6.650
11137TIP3    H133344   3.946   4.155   6.694
11137TIP3    H233345   3.938   4.092   6.557
11138TIP3   OH233346   3.315   4.252   6.684
11138TIP3    H133347   3.358   4.167   6.703
11138TIP3    H233348   3.284   4.237   6.592
11139TIP3   OH233349   2.655   3.913   6.649
11139TIP3    H133350   2.635   3.986   6.587
11139TIP3    H233351   2.606   3.840   6.605
11140TIP3   OH233352   3.349   4.004   6.271
11140TIP3    H133353   3.422   3.989   6.336
11140TIP3    H233354   3.399   4.040   6.196
11141TIP3   OH233355   2.287   4.114   6.758
11141TIP3    H133356   2.371   4.094   6.804
11141TIP3    H233357   2.300   4.060   6.677
11142TIP3   OH233358   2.727   4.312   6.552
11142TIP3    H133359   2.821   4.288   6.563
11142TIP3    H233360   2.689   4.229   6.518
11143TIP3   OH233361   3.990   4.280   6.820
11143TIP3    H133362   3.906   4.327   6.802
11143TIP3    H233363   4.007   4.308   6.911
11144TIP3   OH233364   2.650   3.895   7.084
11144TIP3    H133365   2.592   3.933   7.015
11144TIP3    H233366   2.598   3.915   7.164
11145TIP3   OH233367   2.996   4.746   6.091
11145TIP3    H133368   2.957   4.728   6.004
11145TIP3    H233369   2.950   4.829   6.116
11146TIP3   OH233370   2.756   4.671   6.877
11146TIP3    H133371   2.695   4.740   6.914
11146TIP3    H233372   2.801   4.720   6.806
11147TIP3   OH233373   3.558   4.006   6.447
11147TIP3    H133374   3.541   3.966   6.533
11147TIP3    H233375   3.611   4.085   6.472
11148TIP3   OH233376   2.522   4.011   6.868
11148TIP3    H133377   2.583   4.084   6.890
11148TIP3    H233378   2.571   3.970   6.792
11149TIP3   OH233379   2.585   4.867   6.976
11149TIP3    H133380   2.560   4.953   6.936
11149TIP3    H233381   2.506   4.852   7.032
11150TIP3   OH233382   1.979   4.556   6.212
11150TIP3    H133383   1.938   4.581   6.127
11150TIP3    H233384   2.009   4.643   6.246
11151TIP3   OH233385   3.418   5.071   6.451
11151TIP3    H133386   3.328   5.063   6.491
11151TIP3    H233387   3.410   5.158   6.408
11152TIP3   OH233388   3.711   3.969   6.814
11152TIP3    H133389   3.624   4.001   6.786
11152TIP3    H233390   3.770   4.003   6.744
11153TIP3   OH233391   3.006   3.615   6.798
11153TIP3    H133392   2.992   3.520   6.816
11153TIP3    H233393   2.928   3.653   6.845
11154TIP3   OH233394   3.117   5.118   6.123
11154TIP3    H133395   3.168   5.036   6.104
11154TIP3    H233396   3.178   5.184   6.083
11155TIP3   OH233397   3.262   4.903   6.034
11155TIP3    H133398   3.227   4.823   5.994
11155TIP3    H233399   3.299   4.868   6.118
11156TIP3   OH233400   3.646   4.983   6.796
11156TIP3    H133401   3.633   4.907   6.736
11156TIP3    H233402   3.627   5.059   6.737
11157TIP3   OH233403   2.936   4.378   6.054
11157TIP3    H133404   2.856   4.430   6.032
11157TIP3    H233405   2.981   4.375   5.968
11158TIP3   OH233406   2.896   4.157   5.776
11158TIP3    H133407   2.964   4.213   5.818
11158TIP3    H233408   2.953   4.096   5.724
11159TIP3   OH233409   3.841   4.622   6.641
11159TIP3    H133410   3.757   4.673   6.647
11159TIP3    H233411   3.870   4.646   6.551
11160TIP3   OH233412   3.284   4.461   6.024
11160TIP3    H133413   3.229   4.486   6.102
11160TIP3    H233414   3.367   4.436   6.069
11161TIP3   OH233415   3.519   4.499   6.939
11161TIP3    H133416   3.517   4.582   6.990
11161TIP3    H233417   3.433   4.505   6.893
11162TIP3   OH233418   2.515   4.457   6.443
11162TIP3    H133419   2.474   4.400   6.375
11162TIP3    H233420   2.592   4.404   6.471
11163TIP3   OH233421   2.643   4.868   6.591
11163TIP3    H133422   2.626   4.831   6.503
11163TIP3    H233423   2.734   4.834   6.609
11164TIP3   OH233424   2.649   4.430   6.797
11164TIP3    H133425   2.683   4.407   6.708
11164TIP3    H233426   2.694   4.515   6.816
11165TIP3   OH233427   3.178   5.066   6.573
11165TIP3    H133428   3.164   5.148   6.624
11165TIP3    H233429   3.162   4.995   6.638
11166TIP3   OH233430   2.791   4.986   7.121
11166TIP3    H133431   2.732   5.049   7.167
11166TIP3    H233432   2.726   4.933   7.071
11167TIP3   OH233433   3.124   4.316   5.853
11167TIP3    H133434   3.183   4.377   5.903
11167TIP3    H233435   3.149   4.340   5.760
11168TIP3   OH233436   2.546   4.540   7.226
11168TIP3    H133437   2.550   4.629   7.267
11168TIP3    H233438   2.450   4.523   7.231
11169TIP3   OH233439   2.868   4.997   6.130
11169TIP3    H133440   2.949   5.050   6.139
11169TIP3    H233441   2.808   5.058   6.085
11170TIP3   OH233442   2.584   5.154   7.206
11170TIP3    H133443   2.552   5.153   7.114
11170TIP3    H233444   2.503   5.133   7.257
11171TIP3   OH233445   3.640   3.558   5.900
11171TIP3    H133446   3.559   3.581   5.950
11171TIP3    H233447   3.655   3.640   5.849
11172TIP3   OH233448   2.381   4.300   6.249
11172TIP3    H133449   2.317   4.347   6.191
11172TIP3    H233450   2.340   4.214   6.256
11173TIP3   OH233451   3.440   4.927   5.448
11173TIP3    H133452   3.447   5.023   5.434
11173TIP3    H233453   3.532   4.897   5.435
11174TIP3   OH233454   2.162   4.686   7.154
11174TIP3    H133455   2.097   4.664   7.084
11174TIP3    H233456   2.200   4.598   7.176
11175TIP3   OH233457   2.018   4.876   6.789
11175TIP3    H133458   2.114   4.869   6.775
11175TIP3    H233459   2.012   4.957   6.842
11176TIP3   OH233460   3.892   5.328   6.842
11176TIP3    H133461   3.887   5.231   6.856
11176TIP3    H233462   3.806   5.354   6.882
11177TIP3   OH233463   2.987   5.119   6.974
11177TIP3    H133464   2.989   5.211   7.009
11177TIP3    H233465   2.918   5.078   7.032
11178TIP3   OH233466   2.750   5.243   5.929
11178TIP3    H133467   2.704   5.222   5.846
11178TIP3    H233468   2.716   5.331   5.951
11179TIP3   OH233469   2.186   5.093   6.313
11179TIP3    H133470   2.233   5.082   6.399
11179TIP3    H233471   2.134   5.011   6.312
11180TIP3   OH233472   2.951   5.146   5.568
11180TIP3    H133473   3.008   5.075   5.532
11180TIP3    H233474   2.985   5.154   5.660
11181TIP3   OH233475   3.002   5.194   5.838
11181TIP3    H133476   2.913   5.203   5.880
11181TIP3    H233477   3.052   5.153   5.910
11182TIP3   OH233478   3.774   4.461   7.117
11182TIP3    H133479   3.691   4.473   7.069
11182TIP3    H233480   3.788   4.364   7.108
11183TIP3   OH233481   2.368   4.869   7.143
11183TIP3    H133482   2.419   4.850   7.224
11183TIP3    H233483   2.294   4.804   7.149
11184TIP3   OH233484   2.767   3.690   6.928
11184TIP3    H133485   2.677   3.661   6.901
11184TIP3    H233486   2.743   3.773   6.974
11185TIP3   OH233487   3.303   3.805   7.122
11185TIP3    H133488   3.371   3.779   7.186
11185TIP3    H233489   3.219   3.786   7.169
11186TIP3   OH233490   3.539   4.235   7.039
11186TIP3    H133491   3.491   4.232   7.124
11186TIP3    H233492   3.516   4.323   7.004
11187TIP3   OH233493   3.207   4.364   5.601
11187TIP3    H133494   3.165   4.341   5.515
11187TIP3    H233495   3.286   4.411   5.571
11188TIP3   OH233496   2.914   3.736   5.899
11188TIP3    H133497   2.879   3.736   5.990
11188TIP3    H233498   2.872   3.656   5.864
11189TIP3   OH233499   2.699   4.207   6.944
11189TIP3    H133500   2.650   4.228   7.026
11189TIP3    H233501   2.683   4.288   6.891
11190TIP3   OH233502   2.584   4.092   6.459
11190TIP3    H133503   2.490   4.068   6.476
11190TIP3    H233504   2.596   4.052   6.370
11191TIP3   OH233505   3.073   4.178   6.187
11191TIP3    H133506   3.021   4.250   6.144
11191TIP3    H233507   3.127   4.147   6.112
11192TIP3   OH233508   3.248   4.455   7.271
11192TIP3    H133509   3.227   4.383   7.334
11192TIP3    H233510   3.342   4.471   7.294
11193TIP3   OH233511   3.230   4.206   6.426
11193TIP3    H133512   3.170   4.237   6.355
11193TIP3    H233513   3.263   4.125   6.381
11194TIP3   OH233514   2.518   4.236   7.155
11194TIP3    H133515   2.553   4.299   7.220
11194TIP3    H233516   2.508   4.154   7.207
11195TIP3   OH233517   2.570   3.712   5.865
11195TIP3    H133518   2.557   3.714   5.961
11195TIP3    H233519   2.493   3.765   5.835
11196TIP3   OH233520   2.112   3.754   6.738
11196TIP3    H133521   2.187   3.789   6.790
11196TIP3    H233522   2.152   3.730   6.654
11197TIP3   OH233523   2.081   3.739   6.255
11197TIP3    H133524   2.124   3.778   6.175
11197TIP3    H233525   2.019   3.811   6.277
11198TIP3   OH233526   3.239   4.452   6.848
11198TIP3    H133527   3.273   4.380   6.789
11198TIP3    H233528   3.211   4.399   6.925
11199TIP3   OH233529   2.912   3.911   6.520
11199TIP3    H133530   2.830   3.912   6.574
11199TIP3    H233531   2.981   3.913   6.588
11200TIP3   OH233532   2.344   3.972   6.529
11200TIP3    H133533   2.250   3.979   6.501
11200TIP3    H233534   2.368   3.881   6.503
11201TIP3   OH233535   2.613   3.966   6.217
11201TIP3    H133536   2.707   3.984   6.195
11201TIP3    H233537   2.566   3.990   6.134
11202TIP3   OH233538   3.403   3.990   6.721
11202TIP3    H133539   3.371   4.002   6.813
11202TIP3    H233540   3.335   3.930   6.686
11203TIP3   OH233541   2.458   3.999   5.995
11203TIP3    H133542   2.389   3.954   5.943
11203TIP3    H233543   2.511   4.039   5.922
11204TIP3   OH233544   3.615   5.670   6.921
11204TIP3    H133545   3.570   5.711   6.845
11204TIP3    H233546   3.587   5.725   6.995
11205TIP3   OH233547   2.528   4.790   7.364
11205TIP3    H133548   2.610   4.819   7.409
11205TIP3    H233549   2.465   4.790   7.438
11206TIP3   OH233550   2.993   4.242   6.616
11206TIP3    H133551   3.068   4.206   6.566
11206TIP3    H233552   3.004   4.201   6.704
11207TIP3   OH233553   2.515   3.731   6.497
11207TIP3    H133554   2.481   3.651   6.543
11207TIP3    H233555   2.560   3.694   6.421
11208TIP3   OH233556   2.970   4.139   6.910
11208TIP3    H133557   2.881   4.177   6.923
11208TIP3    H233558   3.028   4.201   6.959
11209TIP3   OH233559   2.706   4.530   6.003
11209TIP3    H133560   2.633   4.465   5.991
11209TIP3    H233561   2.687   4.564   6.094
11210TIP3   OH233562   3.607   4.765   6.630
11210TIP3    H133563   3.631   4.816   6.550
11210TIP3    H233564   3.521   4.725   6.605
11211TIP3   OH233565   3.166   3.840   5.871
11211TIP3    H133566   3.069   3.824   5.875
11211TIP3    H233567   3.175   3.935   5.889
11212TIP3   OH233568   3.100   4.845   7.003
11212TIP3    H133569   3.138   4.833   7.090
11212TIP3    H233570   3.070   4.938   7.005
11213TIP3   OH233571   3.234   4.090   5.970
11213TIP3    H133572   3.330   4.099   5.982
11213TIP3    H233573   3.212   4.169   5.916
11214TIP3   OH233574   2.398   4.552   6.678
11214TIP3    H133575   2.436   4.526   6.591
11214TIP3    H233576   2.444   4.492   6.738
11215TIP3   OH233577   2.856   4.682   5.832
11215TIP3    H133578   2.806   4.767   5.835
11215TIP3    H233579   2.799   4.625   5.888
11216TIP3   OH233580   2.278   4.475   7.293
11216TIP3    H133581   2.301   4.459   7.387
11216TIP3    H233582   2.211   4.406   7.276
11217TIP3   OH233583   3.007   4.586   7.313
11217TIP3    H133584   2.949   4.530   7.259
11217TIP3    H233585   3.095   4.555   7.285
11218TIP3   OH233586   3.264   5.099   6.898
11218TIP3    H133587   3.167   5.108   6.907
11218TIP3    H233588   3.293   5.155   6.974
11219TIP3   OH233589   3.676   4.182   5.804
11219TIP3    H133590   3.614   4.136   5.742
11219TIP3    H233591   3.672   4.271   5.763
11220TIP3   OH233592   3.896   5.037   6.885
11220TIP3    H133593   3.798   5.034   6.878
11220TIP3    H233594   3.920   5.008   6.795
11221TIP3   OH233595   3.381   5.000   5.714
11221TIP3    H133596   3.349   4.930   5.774
11221TIP3    H233597   3.389   4.953   5.629
11222TIP3   OH233598   3.372   4.629   6.549
11222TIP3    H133599   3.279   4.605   6.562
11222TIP3    H233600   3.406   4.549   6.504
11223TIP3   OH233601   2.501   4.858   6.306
11223TIP3    H133602   2.503   4.938   6.251
11223TIP3    H233603   2.406   4.840   6.310
11224TIP3   OH233604   2.066   4.160   6.009
11224TIP3    H133605   2.111   4.245   6.028
11224TIP3    H233606   1.987   4.166   6.068
11225TIP3   OH233607   2.636   4.622   6.248
11225TIP3    H133608   2.603   4.712   6.266
11225TIP3    H233609   2.599   4.572   6.324
11226TIP3   OH233610   2.770   5.199   6.773
11226TIP3    H133611   2.812   5.272   6.722
11226TIP3    H233612   2.847   5.166   6.822
11227TIP3   OH233613   2.419   5.096   6.156
11227TIP3    H133614   2.333   5.104   6.202
11227TIP3    H233615   2.451   5.189   6.159
11228TIP3   OH233616   3.155   4.834   6.733
11228TIP3    H133617   3.145   4.833   6.831
11228TIP3    H233618   3.238   4.785   6.721
11229TIP3   OH233619   3.134   4.731   5.612
11229TIP3    H133620   3.184   4.705   5.693
11229TIP3    H233621   3.045   4.699   5.635
11230TIP3   OH233622   3.406   5.362   6.777
11230TIP3    H133623   3.322   5.312   6.772
11230TIP3    H233624   3.390   5.431   6.709
11231TIP3   OH233625   3.472   5.202   5.433
11231TIP3    H133626   3.508   5.276   5.381
11231TIP3    H233627   3.391   5.246   5.468
11232TIP3   OH233628   2.492   3.979   7.299
11232TIP3    H133629   2.395   3.981   7.311
11232TIP3    H233630   2.520   3.921   7.372
11233TIP3   OH233631   3.293   4.664   5.831
11233TIP3    H133632   3.282   4.595   5.900
11233TIP3    H233633   3.389   4.660   5.818
11234TIP3   OH233634   2.206   5.064   6.933
11234TIP3    H133635   2.260   4.989   6.962
11234TIP3    H233636   2.242   5.135   6.987
11235TIP3   OH233637   2.497   4.710   5.615
11235TIP3    H133638   2.509   4.619   5.582
11235TIP3    H233639   2.476   4.693   5.709
11236TIP3   OH233640   2.440   4.713   5.890
11236TIP3    H133641   2.517   4.686   5.942
11236TIP3    H233642   2.446   4.811   5.894
11237TIP3   OH233643   2.179   4.406   6.090
11237TIP3    H133644   2.112   4.451   6.146
11237TIP3    H233645   2.193   4.474   6.022
11238TIP3   OH233646   3.330   4.041   6.980
11238TIP3    H133647   3.408   4.082   7.021
11238TIP3    H233648   3.317   3.961   7.035
11239TIP3   OH233649   3.211   3.791   6.148
11239TIP3    H133650   3.194   3.814   6.054
11239TIP3    H233651   3.249   3.874   6.182
11240TIP3   OH233652   2.710   4.909   5.838
11240TIP3    H133653   2.622   4.939   5.871
11240TIP3    H233654   2.723   4.972   5.766
11241TIP3   OH233655   2.897   3.973   6.248
11241TIP3    H133656   2.961   4.045   6.229
11241TIP3    H233657   2.903   3.966   6.346
11242TIP3   OH233658   3.167   4.291   7.057
11242TIP3    H133659   3.189   4.346   7.134
11242TIP3    H233660   3.222   4.212   7.071
11243TIP3   OH233661   3.042   3.697   6.350
11243TIP3    H133662   3.032   3.774   6.408
11243TIP3    H233663   3.103   3.734   6.282
11244TIP3   OH233664   2.453   4.986   5.902
11244TIP3    H133665   2.424   5.056   5.839
11244TIP3    H233666   2.437   5.030   5.989
11245TIP3   OH233667   2.553   3.699   6.143
11245TIP3    H133668   2.549   3.791   6.176
11245TIP3    H233669   2.649   3.683   6.149
11246TIP3   OH233670   3.806   4.192   7.036
11246TIP3    H133671   3.708   4.191   7.044
11246TIP3    H233672   3.816   4.152   6.949
11247TIP3   OH233673   3.458   4.386   6.425
11247TIP3    H133674   3.381   4.327   6.437
11247TIP3    H233675   3.529   4.338   6.474
11248TIP3   OH233676   2.171   4.614   5.895
11248TIP3    H133677   2.242   4.681   5.903
11248TIP3    H233678   2.213   4.556   5.827
11249TIP3   OH233679   2.112   3.889   6.030
11249TIP3    H133680   2.116   3.987   6.026
11249TIP3    H233681   2.031   3.871   5.982
11250TIP3   OH233682   3.426   5.343   6.373
11250TIP3    H133683   3.384   5.390   6.298
11250TIP3    H233684   3.521   5.361   6.353
11251TIP3   OH233685   2.503   3.611   6.901
11251TIP3    H133686   2.471   3.579   6.814
11251TIP3    H233687   2.491   3.532   6.958
11252TIP3   OH233688   2.042   4.833   6.281
11252TIP3    H133689   1.971   4.861   6.341
11252TIP3    H233690   2.011   4.873   6.197
11253TIP3   OH233691   2.199   5.373   7.358
11253TIP3    H133692   2.287   5.373   7.402
11253TIP3    H233693   2.183   5.278   7.350
11254TIP3   OH233694   2.675   5.335   7.400
11254TIP3    H133695   2.771   5.323   7.407
11254TIP3    H233696   2.656   5.275   7.325
11255TIP3   OH233697   2.665   4.912   5.533
11255TIP3    H133698   2.609   4.838   5.566
11255TIP3    H233699   2.737   4.862   5.489
11256TIP3   OH233700   3.306   5.238   7.128
11256TIP3    H133701   3.303   5.171   7.200
11256TIP3    H233702   3.388   5.288   7.151
11257TIP3   OH233703   3.099   4.953   5.439
11257TIP3    H133704   3.137   4.884   5.497
11257TIP3    H233705   3.156   4.948   5.360
11258TIP3   OH233706   2.327   4.778   7.556
11258TIP3    H133707   2.346   4.682   7.557
11258TIP3    H233708   2.241   4.780   7.509
11259TIP3   OH233709   2.304   4.427   5.748
11259TIP3    H133710   2.362   4.395   5.819
11259TIP3    H233711   2.369   4.431   5.674
11260TIP3   OH233712   2.932   4.861   7.330
11260TIP3    H133713   2.897   4.881   7.241
11260TIP3    H233714   2.968   4.770   7.319
11261TIP3   OH233715   2.822   4.629   5.560
11261TIP3    H133716   2.822   4.639   5.657
11261TIP3    H233717   2.821   4.531   5.552
11262TIP3   OH233718   3.428   4.874   6.932
11262TIP3    H133719   3.504   4.917   6.890
11262TIP3    H233720   3.360   4.942   6.920
11263TIP3   OH233721   2.447   4.512   7.537
11263TIP3    H133722   2.525   4.464   7.508
11263TIP3    H233723   2.474   4.543   7.626
11264TIP3   OH233724   2.514   4.332   5.969
11264TIP3    H133725   2.488   4.287   6.051
11264TIP3    H233726   2.551   4.259   5.915
11265TIP3   OH233727   2.780   4.392   7.194
11265TIP3    H133728   2.706   4.456   7.199
11265TIP3    H233729   2.832   4.428   7.118
11266TIP3   OH233730   2.616   4.126   5.811
11266TIP3    H133731   2.589   4.129   5.716
11266TIP3    H233732   2.713   4.131   5.802
11267TIP3   OH233733   3.297   4.795   7.330
11267TIP3    H133734   3.380   4.776   7.286
11267TIP3    H233735   3.298   4.731   7.404
11268TIP3   OH233736   3.439   4.457   5.473
11268TIP3    H133737   3.414   4.410   5.391
11268TIP3    H233738   3.405   4.547   5.449
11269TIP3   OH233739   2.904   4.185   7.325
11269TIP3    H133740   2.907   4.106   7.268
11269TIP3    H233741   2.862   4.251   7.266
11270TIP3   OH233742   2.909   3.971   7.131
11270TIP3    H133743   2.938   4.013   7.048
11270TIP3    H233744   2.816   3.949   7.112
11271TIP3   OH233745   2.934   4.506   7.005
11271TIP3    H133746   3.019   4.517   6.961
11271TIP3    H233747   2.879   4.574   6.960
11272TIP3   OH233748   3.516   4.474   7.384
11272TIP3    H133749   3.567   4.392   7.397
11272TIP3    H233750   3.585   4.535   7.352
11273TIP3   OH233751   3.558   4.725   7.117
11273TIP3    H133752   3.500   4.781   7.060
11273TIP3    H233753   3.646   4.747   7.078
11274TIP3   OH233754   2.782   4.296   7.554
11274TIP3    H133755   2.715   4.226   7.568
11274TIP3    H233756   2.819   4.271   7.467
11275TIP3   OH233757   3.041   3.734   7.198
11275TIP3    H133758   2.993   3.817   7.175
11275TIP3    H233759   2.971   3.667   7.187
11276TIP3   OH233760   3.168   4.238   7.414
11276TIP3    H133761   3.158   4.226   7.510
11276TIP3    H233762   3.077   4.214   7.385
11277TIP3   OH233763   3.406   4.185   7.267
11277TIP3    H133764   3.331   4.189   7.330
11277TIP3    H233765   3.479   4.157   7.325
11278TIP3   OH233766   3.634   4.129   7.419
11278TIP3    H133767   3.648   4.034   7.438
11278TIP3    H233768   3.630   4.168   7.509
11279TIP3   OH233769   2.623   4.074   7.609
11279TIP3    H133770   2.632   3.984   7.574
11279TIP3    H233771   2.661   4.063   7.699
11280TIP3   OH233772   3.135   3.746   7.456
11280TIP3    H133773   3.202   3.675   7.452
11280TIP3    H233774   3.096   3.738   7.366
11281TIP3   OH233775   3.201   3.961   7.612
11281TIP3    H133776   3.179   3.889   7.549
11281TIP3    H233777   3.122   4.019   7.605
11282TIP3   OH233778   2.424   5.191   5.716
11282TIP3    H133779   2.519   5.183   5.696
11282TIP3    H233780   2.393   5.238   5.637
11283TIP3   OH233781   1.903   4.570   5.933
11283TIP3    H133782   1.997   4.592   5.917
11283TIP3    H233783   1.897   4.481   5.890
11284TIP3   OH233784   1.816   5.182   6.346
11284TIP3    H133785   1.750   5.120   6.308
11284TIP3    H233786   1.861   5.124   6.410
11285TIP3   OH233787   1.951   5.032   6.532
11285TIP3    H133788   1.939   4.959   6.594
11285TIP3    H233789   2.004   5.093   6.586
11286TIP3   OH233790   3.682   5.430   6.331
11286TIP3    H133791   3.704   5.460   6.421
11286TIP3    H233792   3.743   5.481   6.277
11287TIP3   OH233793   3.711   5.454   6.609
11287TIP3    H133794   3.666   5.366   6.610
11287TIP3    H233795   3.777   5.437   6.678
11288TIP3   OH233796   3.758   5.127   7.188
11288TIP3    H133797   3.679   5.136   7.244
11288TIP3    H233798   3.790   5.219   7.186
11289TIP3   OH233799   3.573   4.643   5.806
11289TIP3    H133800   3.640   4.707   5.778
11289TIP3    H233801   3.616   4.603   5.885
11290TIP3   OH233802   3.701   4.510   6.010
11290TIP3    H133803   3.634   4.468   6.068
11290TIP3    H233804   3.764   4.549   6.074
11291TIP3   OH233805   3.756   4.904   6.443
11291TIP3    H133806   3.808   4.839   6.393
11291TIP3    H233807   3.746   4.977   6.379
11292TIP3   OH233808   3.586   5.202   6.637
11292TIP3    H133809   3.517   5.247   6.691
11292TIP3    H233810   3.532   5.156   6.569
11293TIP3   OH233811   3.638   4.418   5.657
11293TIP3    H133812   3.566   4.420   5.589
11293TIP3    H233813   3.610   4.495   5.711
11294TIP3   OH233814   3.510   4.091   5.610
11294TIP3    H133815   3.464   4.131   5.536
11294TIP3    H233816   3.484   3.996   5.599
11295TIP3   OH233817   3.513   4.368   6.155
11295TIP3    H133818   3.520   4.271   6.149
11295TIP3    H233819   3.499   4.382   6.252
11296TIP3   OH233820   2.139   4.439   6.905
11296TIP3    H133821   2.137   4.408   6.812
11296TIP3    H233822   2.236   4.442   6.920
11297TIP3   OH233823   3.802   4.792   7.013
11297TIP3    H133824   3.875   4.727   7.002
11297TIP3    H233825   3.828   4.863   6.953
11298TIP3   OH233826   3.989   4.597   7.023
11298TIP3    H133827   3.914   4.549   7.065
11298TIP3    H233828   4.061   4.532   7.040
11299TIP3   OH233829   3.452   3.825   5.597
11299TIP3    H133830   3.524   3.792   5.654
11299TIP3    H233831   3.377   3.767   5.619
11300TIP3   OH233832   3.510   4.085   6.051
11300TIP3    H133833   3.552   3.997   6.065
11300TIP3    H233834   3.567   4.118   5.979
11301TIP3   OH233835   3.671   4.255   6.546
11301TIP3    H133836   3.756   4.281   6.505
11301TIP3    H233837   3.684   4.294   6.635
11302TIP3   OH233838   3.740   4.401   6.777
11302TIP3    H133839   3.663   4.435   6.827
11302TIP3    H233840   3.772   4.483   6.733
11303TIP3   OH233841   2.356   4.128   7.576
11303TIP3    H133842   2.454   4.123   7.579
11303TIP3    H233843   2.333   4.042   7.617
11304TIP3   OH233844   4.190   3.992   7.333
11304TIP3    H133845   4.250   3.928   7.291
11304TIP3    H233846   4.162   4.048   7.257
11305TIP3   OH233847   3.619   3.834   6.088
11305TIP3    H133848   3.667   3.817   6.172
11305TIP3    H233849   3.558   3.758   6.086
11306TIP3   OH233850   2.319   3.820   6.911
11306TIP3    H133851   2.382   3.746   6.919
11306TIP3    H233852   2.380   3.895   6.902
11307TIP3   OH233853   2.120   4.093   6.982
11307TIP3    H133854   2.169   4.086   6.898
11307TIP3    H233855   2.148   4.180   7.012
11308TIP3   OH233856   4.062   4.133   7.138
11308TIP3    H133857   3.977   4.173   7.163
11308TIP3    H233858   4.030   4.060   7.081
11309TIP3   OH233859   3.699   3.766   5.725
11309TIP3    H133860   3.738   3.697   5.667
11309TIP3    H233861   3.764   3.839   5.716
11310TIP3   OH233862   2.104   3.593   6.481
11310TIP3    H133863   2.011   3.592   6.508
11310TIP3    H233864   2.102   3.653   6.404
11311TIP3   OH233865   3.263   5.301   5.989
11311TIP3    H133866   3.315   5.287   5.907
11311TIP3    H233867   3.317   5.366   6.036
11312TIP3   OH233868   2.325   3.675   7.294
11312TIP3    H133869   2.274   3.673   7.377
11312TIP3    H233870   2.259   3.715   7.234
11313TIP3   OH233871   2.362   5.108   7.371
11313TIP3    H133872   2.271   5.078   7.356
11313TIP3    H233873   2.377   5.087   7.463
11314TIP3   OH233874   2.543   5.138   6.921
11314TIP3    H133875   2.497   5.215   6.881
11314TIP3    H233876   2.630   5.150   6.877
11315TIP3   OH233877   2.989   5.387   7.058
11315TIP3    H133878   3.029   5.387   7.148
11315TIP3    H233879   3.058   5.437   7.009
11316TIP3   OH233880   3.174   5.536   6.922
11316TIP3    H133881   3.255   5.488   6.897
11316TIP3    H233882   3.208   5.586   7.000
11317TIP3   OH233883   3.962   3.895   7.017
11317TIP3    H133884   3.870   3.888   6.984
11317TIP3    H233885   3.993   3.802   7.006
11318TIP3   OH233886   2.218   5.393   6.945
11318TIP3    H133887   2.129   5.426   6.922
11318TIP3    H233888   2.231   5.436   7.031
11319TIP3   OH233889   2.455   5.372   6.803
11319TIP3    H133890   2.367   5.385   6.847
11319TIP3    H233891   2.436   5.404   6.713
11320TIP3   OH233892   2.880   5.400   6.602
11320TIP3    H133893   2.812   5.422   6.536
11320TIP3    H233894   2.894   5.487   6.645
11321TIP3   OH233895   3.149   5.337   6.649
11321TIP3    H133896   3.055   5.356   6.633
11321TIP3    H233897   3.192   5.416   6.615
11322TIP3   OH233898   3.356   5.533   6.566
11322TIP3    H133899   3.341   5.617   6.518
11322TIP3    H233900   3.381   5.472   6.494
11323TIP3   OH233901   2.129   5.187   6.690
11323TIP3    H133902   2.157   5.160   6.781
11323TIP3    H233903   2.202   5.145   6.638
11324TIP3   OH233904   2.324   5.060   6.549
11324TIP3    H133905   2.340   4.975   6.596
11324TIP3    H233906   2.415   5.096   6.544
11325TIP3   OH233907   2.591   5.154   6.552
11325TIP3    H133908   2.622   5.063   6.538
11325TIP3    H233909   2.639   5.175   6.635
11326TIP3   OH233910   3.167   3.810   6.637
11326TIP3    H133911   3.124   3.739   6.689
11326TIP3    H233912   3.240   3.763   6.594
11327TIP3   OH233913   3.688   3.687   6.540
11327TIP3    H133914   3.725   3.741   6.467
11327TIP3    H233915   3.593   3.711   6.537
11328TIP3   OH233916   3.784   3.789   6.305
11328TIP3    H133917   3.858   3.738   6.266
11328TIP3    H233918   3.817   3.881   6.291
11329TIP3   OH233919   2.415   3.518   6.653
11329TIP3    H133920   2.323   3.486   6.653
11329TIP3    H233921   2.464   3.433   6.648
11330TIP3   OH233922   2.208   3.387   6.302
11330TIP3    H133923   2.234   3.445   6.228
11330TIP3    H233924   2.174   3.452   6.367
11331TIP3   OH233925   2.861   3.547   6.535
11331TIP3    H133926   2.916   3.599   6.473
11331TIP3    H233927   2.884   3.588   6.619
11332TIP3   OH233928   3.403   3.698   6.519
11332TIP3    H133929   3.402   3.663   6.429
11332TIP3    H233930   3.390   3.617   6.573
11333TIP3   OH233931   3.435   3.622   6.080
11333TIP3    H133932   3.350   3.667   6.093
11333TIP3    H233933   3.418   3.536   6.125
11334TIP3   OH233934   1.918   4.961   6.080
11334TIP3    H133935   1.833   4.927   6.046
11334TIP3    H233936   1.908   5.055   6.056
11335TIP3   OH233937   2.319   3.543   6.068
11335TIP3    H133938   2.368   3.486   6.007
11335TIP3    H233939   2.391   3.601   6.102
11336TIP3   OH233940   2.830   3.722   6.164
11336TIP3    H133941   2.893   3.679   6.225
11336TIP3    H233942   2.849   3.816   6.187
11337TIP3   OH233943   2.690   5.149   5.662
11337TIP3    H133944   2.779   5.170   5.626
11337TIP3    H233945   2.669   5.072   5.605
11338TIP3   OH233946   3.411   5.267   5.757
11338TIP3    H133947   3.404   5.169   5.744
11338TIP3    H233948   3.365   5.299   5.676
11339TIP3   OH233949   2.622   3.796   7.544
11339TIP3    H133950   2.590   3.725   7.603
11339TIP3    H233951   2.717   3.798   7.570
11340TIP3   OH233952   2.870   3.795   7.664
11340TIP3    H133953   2.956   3.772   7.625
11340TIP3    H233954   2.862   3.725   7.733
11341TIP3   OH233955   1.995   4.984   5.718
11341TIP3    H133956   1.998   5.006   5.812
11341TIP3    H233957   2.083   4.940   5.704
11342TIP3   OH233958   3.697   3.859   7.451
11342TIP3    H133959   3.715   3.828   7.542
11342TIP3    H233960   3.786   3.854   7.410
11343TIP3   OH233961   3.648   5.402   6.926
11343TIP3    H133962   3.559   5.373   6.899
11343TIP3    H233963   3.635   5.500   6.929
11344TIP3   OH233964   4.903   4.785   5.708
11344TIP3    H133965   4.871   4.875   5.685
11344TIP3    H233966   4.828   4.732   5.674
11345TIP3   OH233967   4.905   4.784   6.092
11345TIP3    H133968   4.934   4.751   6.178
11345TIP3    H233969   4.861   4.706   6.054
11346TIP3   OH233970   4.201   4.676   6.454
11346TIP3    H133971   4.231   4.609   6.518
11346TIP3    H233972   4.277   4.735   6.452
11347TIP3   OH233973   5.150   5.083   5.772
11347TIP3    H133974   5.127   5.015   5.837
11347TIP3    H233975   5.173   5.158   5.828
11348TIP3   OH233976   4.174   5.089   6.179
11348TIP3    H133977   4.163   4.991   6.181
11348TIP3    H233978   4.271   5.096   6.173
11349TIP3   OH233979   3.878   4.291   5.964
11349TIP3    H133980   3.829   4.373   5.980
11349TIP3    H233981   3.809   4.237   5.922
11350TIP3   OH233982   3.938   4.579   6.139
11350TIP3    H133983   3.987   4.501   6.175
11350TIP3    H233984   3.995   4.606   6.066
11351TIP3   OH233985   4.797   5.549   5.790
11351TIP3    H133986   4.840   5.477   5.739
11351TIP3    H233987   4.782   5.506   5.875
11352TIP3   OH233988   4.699   5.009   6.139
11352TIP3    H133989   4.735   4.933   6.091
11352TIP3    H233990   4.783   5.054   6.162
11353TIP3   OH233991   5.715   4.328   6.136
11353TIP3    H133992   5.744   4.413   6.176
11353TIP3    H233993   5.735   4.344   6.042
11354TIP3   OH233994   5.114   4.510   6.170
11354TIP3    H133995   5.155   4.423   6.189
11354TIP3    H233996   5.081   4.495   6.079
11355TIP3   OH233997   4.452   4.170   6.135
11355TIP3    H133998   4.430   4.242   6.073
11355TIP3    H233999   4.404   4.096   6.092
11356TIP3   OH234000   5.144   4.262   5.758
11356TIP3    H134001   5.218   4.246   5.822
11356TIP3    H234002   5.195   4.296   5.682
11357TIP3   OH234003   4.084   4.371   6.244
11357TIP3    H134004   4.167   4.351   6.291
11357TIP3    H234005   4.096   4.316   6.164
11358TIP3   OH234006   4.524   4.569   6.037
11358TIP3    H134007   4.618   4.543   6.050
11358TIP3    H234008   4.484   4.486   6.004
11359TIP3   OH234009   5.789   4.540   6.304
11359TIP3    H134010   5.704   4.584   6.283
11359TIP3    H234011   5.791   4.550   6.400
11360TIP3   OH234012   4.447   4.153   6.571
11360TIP3    H134013   4.387   4.189   6.503
11360TIP3    H234014   4.394   4.170   6.652
11361TIP3   OH234015   4.792   5.004   5.579
11361TIP3    H134016   4.752   4.984   5.493
11361TIP3    H234017   4.746   5.087   5.603
11362TIP3   OH234018   4.554   4.929   6.364
11362TIP3    H134019   4.491   4.994   6.401
11362TIP3    H234020   4.594   4.979   6.290
11363TIP3   OH234021   5.353   4.265   5.931
11363TIP3    H134022   5.343   4.213   6.012
11363TIP3    H234023   5.407   4.341   5.961
11364TIP3   OH234024   4.319   4.267   6.354
11364TIP3    H134025   4.381   4.340   6.377
11364TIP3    H234026   4.368   4.227   6.279
11365TIP3   OH234027   4.383   5.123   6.463
11365TIP3    H134028   4.356   5.209   6.425
11365TIP3    H234029   4.304   5.105   6.519
11366TIP3   OH234030   3.776   4.813   5.699
11366TIP3    H134031   3.733   4.838   5.615
11366TIP3    H234032   3.805   4.900   5.733
11367TIP3   OH234033   5.218   5.329   5.941
11367TIP3    H134034   5.128   5.320   5.980
11367TIP3    H234035   5.207   5.414   5.893
11368TIP3   OH234036   5.507   4.233   6.305
11368TIP3    H134037   5.418   4.255   6.272
11368TIP3    H234038   5.565   4.261   6.231
11369TIP3   OH234039   4.802   3.871   6.285
11369TIP3    H134040   4.788   3.776   6.303
11369TIP3    H234041   4.725   3.909   6.332
11370TIP3   OH234042   4.916   5.375   5.613
11370TIP3    H134043   4.965   5.292   5.592
11370TIP3    H234044   4.976   5.440   5.572
11371TIP3   OH234045   5.058   5.160   5.523
11371TIP3    H134046   5.024   5.080   5.479
11371TIP3    H234047   5.094   5.122   5.606
11372TIP3   OH234048   5.443   5.240   6.283
11372TIP3    H134049   5.429   5.163   6.224
11372TIP3    H234050   5.423   5.315   6.222
11373TIP3   OH234051   4.734   4.636   5.542
11373TIP3    H134052   4.652   4.686   5.520
11373TIP3    H234053   4.777   4.630   5.455
11374TIP3   OH234054   4.692   4.419   5.258
11374TIP3    H134055   4.761   4.470   5.303
11374TIP3    H234056   4.747   4.355   5.208
11375TIP3   OH234057   5.637   4.882   6.131
11375TIP3    H134058   5.552   4.931   6.134
11375TIP3    H234059   5.665   4.902   6.039
11376TIP3   OH234060   5.081   4.719   5.511
11376TIP3    H134061   5.025   4.743   5.589
11376TIP3    H234062   5.163   4.691   5.556
11377TIP3   OH234063   5.315   4.758   6.423
11377TIP3    H134064   5.307   4.843   6.468
11377TIP3    H234065   5.228   4.754   6.378
11378TIP3   OH234066   4.312   4.714   5.929
11378TIP3    H134067   4.269   4.657   5.861
11378TIP3    H234068   4.388   4.660   5.957
11379TIP3   OH234069   4.443   5.128   6.075
11379TIP3    H134070   4.420   5.088   5.990
11379TIP3    H234071   4.532   5.092   6.092
11380TIP3   OH234072   4.453   4.684   6.284
11380TIP3    H134073   4.482   4.663   6.193
11380TIP3    H234074   4.492   4.772   6.301
11381TIP3   OH234075   4.977   5.324   6.061
11381TIP3    H134076   4.960   5.403   6.116
11381TIP3    H234077   4.960   5.250   6.122
11382TIP3   OH234078   4.585   5.242   6.608
11382TIP3    H134079   4.524   5.304   6.653
11382TIP3    H234080   4.521   5.189   6.557
11383TIP3   OH234081   4.920   4.574   5.339
11383TIP3    H134082   4.979   4.634   5.389
11383TIP3    H234083   4.945   4.597   5.246
11384TIP3   OH234084   4.341   4.798   6.708
11384TIP3    H134085   4.345   4.885   6.752
11384TIP3    H234086   4.246   4.777   6.720
11385TIP3   OH234087   4.666   5.253   5.615
11385TIP3    H134088   4.745   5.308   5.626
11385TIP3    H234089   4.604   5.313   5.572
11386TIP3   OH234090   4.381   5.411   6.696
11386TIP3    H134091   4.345   5.410   6.605
11386TIP3    H234092   4.302   5.388   6.749
11387TIP3   OH234093   5.437   3.815   5.388
11387TIP3    H134094   5.355   3.836   5.437
11387TIP3    H234095   5.450   3.897   5.336
11388TIP3   OH234096   4.178   4.558   5.735
11388TIP3    H134097   4.112   4.603   5.678
11388TIP3    H234098   4.138   4.471   5.744
11389TIP3   OH234099   5.231   5.185   4.936
11389TIP3    H134100   5.229   5.283   4.921
11389TIP3    H234101   5.310   5.163   4.886
11390TIP3   OH234102   3.960   4.942   6.640
11390TIP3    H134103   3.892   4.921   6.573
11390TIP3    H234104   3.996   4.853   6.662
11391TIP3   OH234105   3.813   5.135   6.272
11391TIP3    H134106   3.910   5.133   6.267
11391TIP3    H234107   3.798   5.213   6.326
11392TIP3   OH234108   5.677   5.588   6.331
11392TIP3    H134109   5.677   5.490   6.341
11392TIP3    H234110   5.593   5.610   6.375
11393TIP3   OH234111   4.785   5.369   6.466
11393TIP3    H134112   4.782   5.462   6.496
11393TIP3    H234113   4.711   5.330   6.518
11394TIP3   OH234114   4.547   5.500   5.416
11394TIP3    H134115   4.499   5.479   5.333
11394TIP3    H234116   4.512   5.588   5.439
11395TIP3   OH234117   3.983   5.349   5.799
11395TIP3    H134118   4.029   5.339   5.886
11395TIP3    H234119   3.929   5.269   5.798
11396TIP3   OH234120   4.746   5.405   5.056
11396TIP3    H134121   4.802   5.333   5.019
11396TIP3    H234122   4.782   5.412   5.147
11397TIP3   OH234123   4.798   5.451   5.326
11397TIP3    H134124   4.709   5.460   5.366
11397TIP3    H234125   4.847   5.407   5.397
11398TIP3   OH234126   5.566   4.719   6.602
11398TIP3    H134127   5.484   4.728   6.551
11398TIP3    H234128   5.583   4.623   6.593
11399TIP3   OH234129   4.166   5.123   6.627
11399TIP3    H134130   4.213   5.108   6.711
11399TIP3    H234131   4.091   5.061   6.635
11400TIP3   OH234132   4.564   3.948   6.414
11400TIP3    H134133   4.475   3.917   6.387
11400TIP3    H234134   4.538   4.030   6.462
11401TIP3   OH234135   5.097   4.064   6.609
11401TIP3    H134136   5.166   4.034   6.673
11401TIP3    H234137   5.014   4.042   6.655
11402TIP3   OH234138   5.341   4.495   6.531
11402TIP3    H134139   5.288   4.489   6.614
11402TIP3    H234140   5.309   4.578   6.492
11403TIP3   OH234141   5.000   4.624   5.086
11403TIP3    H134142   4.961   4.597   5.001
11403TIP3    H234143   5.081   4.670   5.056
11404TIP3   OH234144   4.710   3.994   5.385
11404TIP3    H134145   4.675   3.992   5.476
11404TIP3    H234146   4.670   3.913   5.350
11405TIP3   OH234147   4.497   4.462   6.433
11405TIP3    H134148   4.445   4.482   6.514
11405TIP3    H234149   4.481   4.543   6.380
11406TIP3   OH234150   4.379   4.350   5.946
11406TIP3    H134151   4.286   4.324   5.963
11406TIP3    H234152   4.392   4.309   5.857
11407TIP3   OH234153   4.870   4.437   5.676
11407TIP3    H134154   4.817   4.507   5.632
11407TIP3    H234155   4.924   4.403   5.601
11408TIP3   OH234156   5.045   4.715   6.762
11408TIP3    H134157   5.019   4.641   6.822
11408TIP3    H234158   5.140   4.722   6.783
11409TIP3   OH234159   5.028   4.464   5.911
11409TIP3    H134160   4.965   4.491   5.841
11409TIP3    H234161   5.062   4.383   5.869
11410TIP3   OH234162   4.317   4.491   6.641
11410TIP3    H134163   4.335   4.556   6.711
11410TIP3    H234164   4.303   4.409   6.692
11411TIP3   OH234165   4.367   3.971   5.351
11411TIP3    H134166   4.354   3.969   5.448
11411TIP3    H234167   4.288   4.021   5.322
11412TIP3   OH234168   3.907   4.013   6.223
11412TIP3    H134169   3.983   4.046   6.276
11412TIP3    H234170   3.948   3.983   6.140
11413TIP3   OH234171   3.877   3.995   5.742
11413TIP3    H134172   3.921   4.034   5.662
11413TIP3    H234173   3.815   4.068   5.763
11414TIP3   OH234174   5.045   4.709   6.336
11414TIP3    H134175   5.074   4.637   6.276
11414TIP3    H234176   5.011   4.656   6.412
11415TIP3   OH234177   4.710   4.172   6.008
11415TIP3    H134178   4.627   4.170   6.060
11415TIP3    H234179   4.777   4.167   6.078
11416TIP3   OH234180   4.141   4.228   6.015
11416TIP3    H134181   4.046   4.236   5.987
11416TIP3    H234182   4.164   4.137   5.991
11417TIP3   OH234183   4.409   4.224   5.704
11417TIP3    H134184   4.502   4.239   5.681
11417TIP3    H234185   4.361   4.246   5.621
11418TIP3   OH234186   5.200   4.247   6.212
11418TIP3    H134187   5.164   4.259   6.302
11418TIP3    H234188   5.134   4.186   6.174
11419TIP3   OH234189   4.254   4.258   5.482
11419TIP3    H134190   4.184   4.211   5.433
11419TIP3    H234191   4.306   4.294   5.407
11420TIP3   OH234192   5.371   5.935   6.428
11420TIP3    H134193   5.365   5.958   6.333
11420TIP3    H234194   5.449   5.987   6.456
11421TIP3   OH234195   4.327   5.045   6.849
11421TIP3    H134196   4.404   5.078   6.899
11421TIP3    H234197   4.260   5.044   6.920
11422TIP3   OH234198   4.790   4.502   6.107
11422TIP3    H134199   4.860   4.458   6.056
11422TIP3    H234200   4.796   4.456   6.193
11423TIP3   OH234201   4.312   3.987   5.985
11423TIP3    H134202   4.277   3.908   6.032
11423TIP3    H234203   4.357   3.948   5.909
11424TIP3   OH234204   4.766   4.398   6.391
11424TIP3    H134205   4.675   4.431   6.407
11424TIP3    H234206   4.821   4.459   6.444
11425TIP3   OH234207   4.503   4.787   5.490
11425TIP3    H134208   4.431   4.721   5.478
11425TIP3    H234209   4.484   4.820   5.581
11426TIP3   OH234210   5.401   5.023   6.119
11426TIP3    H134211   5.425   5.073   6.037
11426TIP3    H234212   5.317   4.981   6.094
11427TIP3   OH234213   4.962   4.096   5.359
11427TIP3    H134214   4.865   4.078   5.362
11427TIP3    H234215   4.968   4.192   5.376
11428TIP3   OH234216   4.912   5.111   6.486
11428TIP3    H134217   4.914   5.080   6.577
11428TIP3    H234218   4.863   5.195   6.492
11429TIP3   OH234219   5.029   4.348   5.459
11429TIP3    H134220   5.126   4.354   5.469
11429TIP3    H234221   5.008   4.425   5.402
11430TIP3   OH234222   4.198   4.812   6.166
11430TIP3    H134223   4.235   4.782   6.080
11430TIP3    H234224   4.233   4.746   6.228
11431TIP3   OH234225   4.650   4.938   5.314
11431TIP3    H134226   4.601   5.023   5.319
11431TIP3    H234227   4.594   4.881   5.372
11432TIP3   OH234228   4.078   4.726   6.776
11432TIP3    H134229   4.094   4.714   6.872
11432TIP3    H234230   4.006   4.663   6.760
11433TIP3   OH234231   4.801   4.846   6.797
11433TIP3    H134232   4.738   4.786   6.754
11433TIP3    H234233   4.886   4.808   6.768
11434TIP3   OH234234   5.064   5.370   6.380
11434TIP3    H134235   4.968   5.361   6.392
11434TIP3    H234236   5.088   5.421   6.460
11435TIP3   OH234237   5.473   4.438   5.290
11435TIP3    H134238   5.411   4.392   5.229
11435TIP3    H234239   5.468   4.527   5.248
11436TIP3   OH234240   5.693   5.300   6.369
11436TIP3    H134241   5.595   5.290   6.361
11436TIP3    H234242   5.720   5.267   6.280
11437TIP3   OH234243   5.188   5.252   5.204
11437TIP3    H134244   5.142   5.182   5.251
11437TIP3    H234245   5.194   5.217   5.113
11438TIP3   OH234246   5.169   4.885   6.037
11438TIP3    H134247   5.076   4.859   6.050
11438TIP3    H234248   5.203   4.805   5.992
11439TIP3   OH234249   4.297   5.114   5.792
11439TIP3    H134250   4.295   5.195   5.737
11439TIP3    H234251   4.202   5.096   5.801
11440TIP3   OH234252   3.861   4.417   5.494
11440TIP3    H134253   3.906   4.501   5.515
11440TIP3    H234254   3.783   4.422   5.554
11441TIP3   OH234255   4.434   4.879   5.736
11441TIP3    H134256   4.399   4.969   5.753
11441TIP3    H234257   4.396   4.828   5.809
11442TIP3   OH234258   4.566   5.457   6.258
11442TIP3    H134259   4.606   5.530   6.207
11442TIP3    H234260   4.643   5.422   6.305
11443TIP3   OH234261   4.216   5.352   5.643
11443TIP3    H134262   4.129   5.359   5.689
11443TIP3    H234263   4.246   5.445   5.646
11444TIP3   OH234264   4.954   5.093   6.217
11444TIP3    H134265   4.946   5.091   6.315
11444TIP3    H234266   5.028   5.032   6.203
11445TIP3   OH234267   4.928   4.983   5.103
11445TIP3    H134268   4.979   4.958   5.183
11445TIP3    H234269   4.839   4.956   5.129
11446TIP3   OH234270   5.204   5.625   6.269
11446TIP3    H134271   5.125   5.568   6.264
11446TIP3    H234272   5.186   5.688   6.196
11447TIP3   OH234273   5.263   5.456   4.935
11447TIP3    H134274   5.288   5.489   4.846
11447TIP3    H234275   5.191   5.518   4.958
11448TIP3   OH234276   4.287   4.235   6.785
11448TIP3    H134277   4.190   4.239   6.799
11448TIP3    H234278   4.314   4.178   6.858
11449TIP3   OH234279   5.087   4.923   5.321
11449TIP3    H134280   5.076   4.853   5.389
11449TIP3    H234281   5.184   4.916   5.305
11450TIP3   OH234282   4.007   5.319   6.416
11450TIP3    H134283   4.058   5.246   6.452
11450TIP3    H234284   4.023   5.388   6.481
11451TIP3   OH234285   4.294   4.964   5.100
11451TIP3    H134286   4.306   4.872   5.071
11451TIP3    H234287   4.273   4.952   5.195
11452TIP3   OH234288   4.238   4.970   5.373
11452TIP3    H134289   4.311   4.942   5.430
11452TIP3    H234290   4.243   5.068   5.381
11453TIP3   OH234291   3.975   4.663   5.577
11453TIP3    H134292   3.908   4.707   5.633
11453TIP3    H234293   3.988   4.731   5.509
11454TIP3   OH234294   5.124   4.301   6.472
11454TIP3    H134295   5.207   4.334   6.511
11454TIP3    H234296   5.108   4.219   6.522
11455TIP3   OH234297   5.004   4.049   5.635
11455TIP3    H134298   4.989   4.070   5.541
11455TIP3    H234299   5.043   4.132   5.669
11456TIP3   OH234300   4.506   5.167   5.323
11456TIP3    H134301   4.419   5.194   5.357
11456TIP3    H234302   4.521   5.237   5.257
11457TIP3   OH234303   4.694   4.230   5.736
11457TIP3    H134304   4.758   4.302   5.718
11457TIP3    H234305   4.699   4.224   5.833
11458TIP3   OH234306   4.964   4.548   6.541
11458TIP3    H134307   4.984   4.598   6.623
11458TIP3    H234308   5.015   4.467   6.553
11459TIP3   OH234309   4.837   3.955   5.838
11459TIP3    H134310   4.827   4.034   5.894
11459TIP3    H234311   4.898   3.990   5.769
11460TIP3   OH234312   4.251   5.243   5.389
11460TIP3    H134313   4.220   5.312   5.327
11460TIP3    H234314   4.233   5.286   5.476
11461TIP3   OH234315   4.348   3.955   5.629
11461TIP3    H134316   4.346   4.046   5.663
11461TIP3    H234317   4.445   3.938   5.635
11462TIP3   OH234318   5.606   4.450   6.518
11462TIP3    H134319   5.508   4.452   6.532
11462TIP3    H234320   5.608   4.396   6.438
11463TIP3   OH234321   5.254   4.643   5.912
11463TIP3    H134322   5.177   4.584   5.921
11463TIP3    H234323   5.324   4.594   5.960
11464TIP3   OH234324   3.968   4.870   5.381
11464TIP3    H134325   4.036   4.939   5.390
11464TIP3    H234326   4.011   4.813   5.314
11465TIP3   OH234327   3.910   4.146   5.517
11465TIP3    H134328   3.909   4.244   5.512
11465TIP3    H234329   3.831   4.124   5.467
11466TIP3   OH234330   5.223   5.601   5.862
11466TIP3    H134331   5.179   5.648   5.787
11466TIP3    H234332   5.317   5.619   5.840
11467TIP3   OH234333   4.300   3.867   6.387
11467TIP3    H134334   4.268   3.835   6.301
11467TIP3    H234335   4.288   3.789   6.445
11468TIP3   OH234336   3.838   5.089   5.767
11468TIP3    H134337   3.770   5.116   5.831
11468TIP3    H234338   3.804   5.130   5.684
11469TIP3   OH234339   3.995   5.625   6.832
11469TIP3    H134340   4.079   5.625   6.883
11469TIP3    H234341   3.969   5.532   6.838
11470TIP3   OH234342   4.480   5.590   6.885
11470TIP3    H134343   4.573   5.565   6.887
11470TIP3    H234344   4.447   5.533   6.813
11471TIP3   OH234345   4.458   5.167   5.013
11471TIP3    H134346   4.402   5.095   5.051
11471TIP3    H234347   4.533   5.115   4.980
11472TIP3   OH234348   5.113   5.503   6.618
11472TIP3    H134349   5.107   5.430   6.684
11472TIP3    H234350   5.190   5.553   6.649
11473TIP3   OH234351   4.889   5.210   4.933
11473TIP3    H134352   4.939   5.143   4.983
11473TIP3    H234353   4.934   5.210   4.845
11474TIP3   OH234354   4.126   5.036   7.040
11474TIP3    H134355   4.140   4.940   7.047
11474TIP3    H234356   4.037   5.039   6.998
11475TIP3   OH234357   4.103   4.684   5.234
11475TIP3    H134358   4.158   4.650   5.306
11475TIP3    H234359   4.169   4.688   5.161
11476TIP3   OH234360   4.736   5.122   6.812
11476TIP3    H134361   4.687   5.137   6.728
11476TIP3    H234362   4.761   5.027   6.805
11477TIP3   OH234363   4.614   4.885   5.043
11477TIP3    H134364   4.615   4.897   5.140
11477TIP3    H234365   4.616   4.787   5.037
11478TIP3   OH234366   5.229   5.127   6.426
11478TIP3    H134367   5.298   5.175   6.377
11478TIP3    H234368   5.152   5.184   6.411
11479TIP3   OH234369   4.245   4.771   7.023
11479TIP3    H134370   4.317   4.709   7.004
11479TIP3    H234371   4.270   4.802   7.112
11480TIP3   OH234372   4.311   4.589   5.456
11480TIP3    H134373   4.283   4.545   5.538
11480TIP3    H234374   4.347   4.514   5.404
11481TIP3   OH234375   4.583   4.658   6.687
11481TIP3    H134376   4.501   4.712   6.688
11481TIP3    H234377   4.629   4.691   6.607
11482TIP3   OH234378   4.412   4.384   5.296
11482TIP3    H134379   4.385   4.386   5.202
11482TIP3    H234380   4.509   4.388   5.287
11483TIP3   OH234381   5.107   5.058   6.821
11483TIP3    H134382   5.165   5.013   6.759
11483TIP3    H234383   5.092   4.990   6.889
11484TIP3   OH234384   5.236   4.711   4.958
11484TIP3    H134385   5.210   4.663   4.876
11484TIP3    H234386   5.202   4.800   4.936
11485TIP3   OH234387   4.704   4.442   6.808
11485TIP3    H134388   4.702   4.362   6.752
11485TIP3    H234389   4.659   4.509   6.752
11486TIP3   OH234390   4.706   4.228   6.617
11486TIP3    H134391   4.732   4.268   6.531
11486TIP3    H234392   4.612   4.205   6.599
11487TIP3   OH234393   4.733   4.767   6.492
11487TIP3    H134394   4.813   4.771   6.439
11487TIP3    H234395   4.674   4.831   6.446
11488TIP3   OH234396   5.316   4.730   6.871
11488TIP3    H134397   5.355   4.642   6.889
11488TIP3    H234398   5.388   4.774   6.825
11489TIP3   OH234399   5.356   4.991   6.621
11489TIP3    H134400   5.299   5.040   6.558
11489TIP3    H234401   5.443   5.004   6.578
11490TIP3   OH234402   4.583   4.551   7.041
11490TIP3    H134403   4.513   4.484   7.057
11490TIP3    H234404   4.616   4.524   6.953
11491TIP3   OH234405   4.837   3.992   6.685
11491TIP3    H134406   4.788   4.074   6.662
11491TIP3    H234407   4.768   3.924   6.674
11492TIP3   OH234408   4.962   4.497   6.901
11492TIP3    H134409   4.948   4.481   6.996
11492TIP3    H234410   4.873   4.471   6.868
11493TIP3   OH234411   5.204   4.449   6.759
11493TIP3    H134412   5.126   4.446   6.818
11493TIP3    H234413   5.275   4.412   6.815
11494TIP3   OH234414   5.439   4.387   6.906
11494TIP3    H134415   5.448   4.291   6.923
11494TIP3    H234416   5.430   4.424   6.996
11495TIP3   OH234417   4.421   4.332   7.094
11495TIP3    H134418   4.426   4.240   7.061
11495TIP3    H234419   4.457   4.320   7.185
11496TIP3   OH234420   4.933   4.003   6.942
11496TIP3    H134421   4.999   3.931   6.938
11496TIP3    H234422   4.892   3.996   6.854
11497TIP3   OH234423   5.000   4.219   7.098
11497TIP3    H134424   4.976   4.146   7.036
11497TIP3    H234425   4.920   4.275   7.094
11498TIP3   OH234426   4.220   5.447   5.203
11498TIP3    H134427   4.315   5.440   5.182
11498TIP3    H234428   4.189   5.495   5.124
11499TIP3   OH234429   3.699   4.827   5.417
11499TIP3    H134430   3.794   4.848   5.404
11499TIP3    H234431   3.692   4.738   5.376
11500TIP3   OH234432   3.614   5.439   5.832
11500TIP3    H134433   3.546   5.377   5.796
11500TIP3    H234434   3.658   5.380   5.898
11501TIP3   OH234435   3.749   5.288   6.019
11501TIP3    H134436   3.735   5.216   6.083
11501TIP3    H234437   3.798   5.351   6.074
11502TIP3   OH234438   5.479   5.686   5.818
11502TIP3    H134439   5.503   5.725   5.904
11502TIP3    H234440   5.538   5.732   5.757
11503TIP3   OH234441   5.504   5.712   6.103
11503TIP3    H134442   5.458   5.625   6.096
11503TIP3    H234443   5.582   5.685   6.153
11504TIP3   OH234444   5.559   5.387   6.679
11504TIP3    H134445   5.475   5.397   6.726
11504TIP3    H234446   5.596   5.478   6.683
11505TIP3   OH234447   5.366   4.896   5.296
11505TIP3    H134448   5.429   4.968   5.280
11505TIP3    H234449   5.406   4.853   5.375
11506TIP3   OH234450   5.496   4.770   5.499
11506TIP3    H134451   5.428   4.724   5.555
11506TIP3    H234452   5.558   4.804   5.567
11507TIP3   OH234453   5.553   5.162   5.932
11507TIP3    H134454   5.604   5.095   5.882
11507TIP3    H234455   5.543   5.234   5.867
11508TIP3   OH234456   5.381   5.460   6.125
11508TIP3    H134457   5.308   5.502   6.174
11508TIP3    H234458   5.332   5.412   6.054
11509TIP3   OH234459   5.433   4.676   5.143
11509TIP3    H134460   5.361   4.675   5.075
11509TIP3    H234461   5.401   4.751   5.197
11510TIP3   OH234462   5.305   4.349   5.096
11510TIP3    H134463   5.257   4.383   5.020
11510TIP3    H234464   5.282   4.254   5.091
11511TIP3   OH234465   5.311   4.623   5.642
11511TIP3    H134466   5.316   4.527   5.634
11511TIP3    H234467   5.296   4.636   5.738
11512TIP3   OH234468   3.935   4.696   6.391
11512TIP3    H134469   3.932   4.664   6.298
11512TIP3    H234470   4.033   4.697   6.406
11513TIP3   OH234471   5.600   5.050   6.505
11513TIP3    H134472   5.670   4.982   6.492
11513TIP3    H234473   5.619   5.112   6.434
11514TIP3   OH234474   5.785   4.854   6.516
11514TIP3    H134475   5.708   4.803   6.551
11514TIP3    H234476   5.856   4.788   6.532
11515TIP3   OH234477   5.247   4.084   5.089
11515TIP3    H134478   5.320   4.047   5.142
11515TIP3    H234479   5.172   4.024   5.105
11516TIP3   OH234480   5.308   4.342   5.538
11516TIP3    H134481   5.347   4.253   5.553
11516TIP3    H234482   5.364   4.372   5.464
11517TIP3   OH234483   5.467   4.513   6.033
11517TIP3    H134484   5.553   4.538   5.993
11517TIP3    H234485   5.481   4.549   6.123
11518TIP3   OH234486   5.538   4.659   6.265
11518TIP3    H134487   5.459   4.692   6.312
11518TIP3    H234488   5.568   4.741   6.219
11519TIP3   OH234489   4.154   4.384   7.063
11519TIP3    H134490   4.252   4.377   7.067
11519TIP3    H234491   4.129   4.299   7.104
11520TIP3   OH234492   5.991   4.253   6.820
11520TIP3    H134493   6.048   4.185   6.777
11520TIP3    H234494   5.961   4.305   6.743
11521TIP3   OH234495   5.414   4.091   5.576
11521TIP3    H134496   5.461   4.073   5.660
11521TIP3    H234497   5.353   4.014   5.572
11522TIP3   OH234498   4.115   4.076   6.395
11522TIP3    H134499   4.178   4.002   6.405
11522TIP3    H234500   4.177   4.151   6.388
11523TIP3   OH234501   3.916   4.349   6.468
11523TIP3    H134502   3.966   4.344   6.384
11523TIP3    H234503   3.942   4.436   6.501
11524TIP3   OH234504   5.858   4.388   6.624
11524TIP3    H134505   5.770   4.427   6.641
11524TIP3    H234506   5.831   4.313   6.567
11525TIP3   OH234507   5.497   4.022   5.211
11525TIP3    H134508   5.532   3.951   5.154
11525TIP3    H234509   5.562   4.093   5.200
11526TIP3   OH234510   3.901   3.852   5.969
11526TIP3    H134511   3.807   3.850   5.996
11526TIP3    H234512   3.898   3.911   5.891
11527TIP3   OH234513   5.062   5.557   5.478
11527TIP3    H134514   5.108   5.540   5.392
11527TIP3    H234515   5.117   5.627   5.516
11528TIP3   OH234516   4.121   3.931   6.782
11528TIP3    H134517   4.071   3.928   6.866
11528TIP3    H234518   4.054   3.971   6.723
11529TIP3   OH234519   4.165   5.357   6.863
11529TIP3    H134520   4.072   5.337   6.841
11529TIP3    H234521   4.167   5.340   6.957
11530TIP3   OH234522   4.341   5.394   6.410
11530TIP3    H134523   4.289   5.467   6.372
11530TIP3    H234524   4.425   5.410   6.362
11531TIP3   OH234525   4.783   5.635   6.545
11531TIP3    H134526   4.824   5.638   6.634
11531TIP3    H234527   4.847   5.688   6.493
11532TIP3   OH234528   4.960   5.790   6.405
11532TIP3    H134529   5.028   5.739   6.360
11532TIP3    H234530   5.014   5.847   6.465
11533TIP3   OH234531   5.757   4.150   6.505
11533TIP3    H134532   5.666   4.139   6.472
11533TIP3    H234533   5.791   4.057   6.494
11534TIP3   OH234534   4.017   5.652   6.431
11534TIP3    H134535   3.928   5.685   6.407
11534TIP3    H234536   4.023   5.684   6.522
11535TIP3   OH234537   4.253   5.631   6.290
11535TIP3    H134538   4.166   5.642   6.336
11535TIP3    H234539   4.231   5.662   6.200
11536TIP3   OH234540   4.678   5.657   6.088
11536TIP3    H134541   4.607   5.674   6.022
11536TIP3    H234542   4.688   5.745   6.129
11537TIP3   OH234543   4.946   5.599   6.142
11537TIP3    H134544   4.852   5.612   6.121
11537TIP3    H234545   4.987   5.672   6.093
11538TIP3   OH234546   5.157   5.790   6.054
11538TIP3    H134547   5.139   5.874   6.005
11538TIP3    H234548   5.179   5.729   5.980
11539TIP3   OH234549   3.928   5.446   6.176
11539TIP3    H134550   3.953   5.417   6.266
11539TIP3    H234551   3.999   5.401   6.124
11540TIP3   OH234552   4.121   5.316   6.034
11540TIP3    H134553   4.135   5.232   6.083
11540TIP3    H234554   4.212   5.351   6.030
11541TIP3   OH234555   4.389   5.411   6.036
11541TIP3    H134556   4.417   5.318   6.024
11541TIP3    H234557   4.432   5.431   6.121
11542TIP3   OH234558   4.964   4.067   6.127
11542TIP3    H134559   4.920   3.996   6.177
11542TIP3    H234560   5.034   4.019   6.079
11543TIP3   OH234561   5.485   3.953   6.032
11543TIP3    H134562   5.520   4.000   5.954
11543TIP3    H234563   5.388   3.965   6.021
11544TIP3   OH234564   5.580   4.047   5.794
11544TIP3    H134565   5.653   3.995   5.753
11544TIP3    H234566   5.613   4.139   5.778
11545TIP3   OH234567   4.211   3.775   6.140
11545TIP3    H134568   4.119   3.742   6.140
11545TIP3    H234569   4.260   3.690   6.136
11546TIP3   OH234570   4.002   3.644   5.789
11546TIP3    H134571   4.029   3.701   5.715
11546TIP3    H234572   3.970   3.710   5.854
11547TIP3   OH234573   4.656   3.806   6.021
11547TIP3    H134574   4.714   3.854   5.959
11547TIP3    H234575   4.680   3.845   6.106
11548TIP3   OH234576   5.203   3.955   6.003
11548TIP3    H134577   5.199   3.916   5.915
11548TIP3    H234578   5.190   3.875   6.060
11549TIP3   OH234579   5.232   3.878   5.567
11549TIP3    H134580   5.145   3.920   5.578
11549TIP3    H234581   5.217   3.792   5.612
11550TIP3   OH234582   3.715   5.217   5.565
11550TIP3    H134583   3.630   5.183   5.532
11550TIP3    H234584   3.704   5.311   5.544
11551TIP3   OH234585   4.115   3.800   5.554
11551TIP3    H134586   4.164   3.740   5.494
11551TIP3    H234587   4.188   3.856   5.588
11552TIP3   OH234588   4.625   3.980   5.650
11552TIP3    H134589   4.686   3.933   5.710
11552TIP3    H234590   4.647   4.073   5.674
11553TIP3   OH234591   4.487   5.403   5.150
11553TIP3    H134592   4.575   5.426   5.113
11553TIP3    H234593   4.465   5.328   5.090
11554TIP3   OH234594   5.205   5.523   5.245
11554TIP3    H134595   5.202   5.425   5.230
11554TIP3    H234596   5.163   5.555   5.162
11555TIP3   OH234597   4.419   4.055   7.031
11555TIP3    H134598   4.385   3.985   7.089
11555TIP3    H234599   4.513   4.056   7.058
11556TIP3   OH234600   4.668   4.052   7.150
11556TIP3    H134601   4.753   4.024   7.113
11556TIP3    H234602   4.653   3.983   7.218
11557TIP3   OH234603   3.791   5.241   5.205
11557TIP3    H134604   3.791   5.262   5.300
11557TIP3    H234605   3.879   5.199   5.194
11558TIP3   OH234606   5.493   4.116   6.938
11558TIP3    H134607   5.511   4.085   7.029
11558TIP3    H234608   5.582   4.108   6.897
11559TIP3   OH234609   5.427   5.665   6.437
11559TIP3    H134610   5.352   5.634   6.382
11559TIP3    H234611   5.411   5.762   6.432
11560TIP3   OH234612   6.698   5.041   5.195
11560TIP3    H134613   6.668   5.132   5.172
11560TIP3    H234614   6.624   4.989   5.159
11561TIP3   OH234615   6.696   5.042   5.581
11561TIP3    H134616   6.731   5.008   5.665
11561TIP3    H234617   6.658   4.962   5.541
11562TIP3   OH234618   5.997   4.935   5.942
11562TIP3    H134619   6.026   4.866   6.004
11562TIP3    H234620   6.077   4.988   5.935
11563TIP3   OH234621   6.940   5.345   5.259
11563TIP3    H134622   6.924   5.274   5.323
11563TIP3    H234623   6.960   5.420   5.318
11564TIP3   OH234624   5.970   5.345   5.666
11564TIP3    H134625   5.962   5.247   5.671
11564TIP3    H234626   6.068   5.353   5.659
11565TIP3   OH234627   5.674   4.552   5.453
11565TIP3    H134628   5.619   4.631   5.466
11565TIP3    H234629   5.609   4.492   5.412
11566TIP3   OH234630   5.735   4.834   5.629
11566TIP3    H134631   5.781   4.755   5.667
11566TIP3    H234632   5.787   4.850   5.550
11567TIP3   OH234633   6.597   5.800   5.289
11567TIP3    H134634   6.636   5.729   5.235
11567TIP3    H234635   6.620   5.773   5.379
11568TIP3   OH234636   6.500   5.270   5.626
11568TIP3    H134637   6.544   5.192   5.589
11568TIP3    H234638   6.579   5.325   5.642
11569TIP3   OH234639   7.505   4.576   5.617
11569TIP3    H134640   7.531   4.658   5.665
11569TIP3    H234641   7.534   4.598   5.526
11570TIP3   OH234642   6.907   4.768   5.657
11570TIP3    H134643   6.951   4.683   5.677
11570TIP3    H234644   6.876   4.751   5.566
11571TIP3   OH234645   6.246   4.430   5.620
11571TIP3    H134646   6.223   4.501   5.556
11571TIP3    H234647   6.200   4.354   5.577
11572TIP3   OH234648   6.940   4.520   5.244
11572TIP3    H134649   7.012   4.503   5.310
11572TIP3    H234650   6.993   4.552   5.169
11573TIP3   OH234651   5.880   4.627   5.731
11573TIP3    H134652   5.963   4.604   5.778
11573TIP3    H234653   5.890   4.569   5.652
11574TIP3   OH234654   6.322   4.828   5.526
11574TIP3    H134655   6.416   4.802   5.539
11574TIP3    H234656   6.283   4.743   5.495
11575TIP3   OH234657   7.565   4.779   5.788
11575TIP3    H134658   7.487   4.838   5.783
11575TIP3    H234659   7.618   4.820   5.857
11576TIP3   OH234660   6.244   4.410   6.058
11576TIP3    H134661   6.183   4.445   5.989
11576TIP3    H234662   6.190   4.427   6.138
11577TIP3   OH234663   6.590   5.262   5.063
11577TIP3    H134664   6.549   5.243   4.977
11577TIP3    H234665   6.544   5.345   5.088
11578TIP3   OH234666   6.350   5.186   5.849
11578TIP3    H134667   6.288   5.253   5.886
11578TIP3    H234668   6.393   5.235   5.777
11579TIP3   OH234669   7.148   4.523   5.418
11579TIP3    H134670   7.148   4.467   5.496
11579TIP3    H234671   7.205   4.597   5.446
11580TIP3   OH234672   6.115   4.524   5.841
11580TIP3    H134673   6.178   4.596   5.863
11580TIP3    H234674   6.163   4.483   5.765
11581TIP3   OH234675   6.178   5.380   5.948
11581TIP3    H134676   6.153   5.466   5.910
11581TIP3    H234677   6.098   5.365   6.004
11582TIP3   OH234678   5.585   5.066   5.210
11582TIP3    H134679   5.559   5.059   5.123
11582TIP3    H234680   5.588   5.153   5.232
11583TIP3   OH234681   6.983   5.580   5.427
11583TIP3    H134682   6.904   5.593   5.483
11583TIP3    H234683   6.989   5.667   5.385
11584TIP3   OH234684   7.301   4.483   5.788
11584TIP3    H134685   7.215   4.513   5.756
11584TIP3    H234686   7.363   4.513   5.718
11585TIP3   OH234687   6.598   4.126   5.772
11585TIP3    H134688   6.585   4.031   5.790
11585TIP3    H234689   6.520   4.164   5.818
11586TIP3   OH234690   6.710   5.632   5.095
11586TIP3    H134691   6.761   5.550   5.075
11586TIP3    H234692   6.770   5.698   5.056
11587TIP3   OH234693   6.857   5.416   5.006
11587TIP3    H134694   6.814   5.335   4.973
11587TIP3    H234695   6.895   5.384   5.090
11588TIP3   OH234696   7.229   5.502   5.768
11588TIP3    H134697   7.225   5.424   5.709
11588TIP3    H234698   7.210   5.576   5.706
11589TIP3   OH234699   6.530   4.894   5.027
11589TIP3    H134700   6.449   4.942   5.001
11589TIP3    H234701   6.576   4.885   4.942
11590TIP3   OH234702   6.487   4.677   4.745
11590TIP3    H134703   6.558   4.726   4.789
11590TIP3    H234704   6.541   4.611   4.695
11591TIP3   OH234705   7.428   5.134   5.613
11591TIP3    H134706   7.347   5.188   5.617
11591TIP3    H234707   7.460   5.156   5.523
11592TIP3   OH234708   6.877   4.976   4.998
11592TIP3    H134709   6.822   4.999   5.076
11592TIP3    H234710   6.959   4.947   5.042
11593TIP3   OH234711   7.109   5.012   5.913
11593TIP3    H134712   7.105   5.095   5.964
11593TIP3    H234713   7.022   5.014   5.868
11594TIP3   OH234714   6.112   4.963   5.416
11594TIP3    H134715   6.083   4.886   5.366
11594TIP3    H234716   6.194   4.926   5.456
11595TIP3   OH234717   6.238   5.377   5.566
11595TIP3    H134718   6.223   5.338   5.480
11595TIP3    H234719   6.329   5.349   5.586
11596TIP3   OH234720   6.245   4.943   5.771
11596TIP3    H134721   6.281   4.919   5.683
11596TIP3    H234722   6.288   5.030   5.789
11597TIP3   OH234723   6.380   5.495   6.098
11597TIP3    H134724   6.319   5.560   6.140
11597TIP3    H234725   6.316   5.444   6.045
11598TIP3   OH234726   6.716   4.833   4.825
11598TIP3    H134727   6.776   4.892   4.876
11598TIP3    H234728   6.741   4.856   4.732
11599TIP3   OH234729   6.137   5.054   6.197
11599TIP3    H134730   6.140   5.142   6.240
11599TIP3    H234731   6.042   5.034   6.206
11600TIP3   OH234732   6.459   5.509   5.103
11600TIP3    H134733   6.539   5.562   5.118
11600TIP3    H234734   6.400   5.572   5.061
11601TIP3   OH234735   6.177   5.669   6.180
11601TIP3    H134736   6.145   5.669   6.088
11601TIP3    H234737   6.096   5.646   6.231
11602TIP3   OH234738   7.233   4.073   4.874
11602TIP3    H134739   7.151   4.092   4.924
11602TIP3    H234740   7.244   4.155   4.822
11603TIP3   OH234741   7.040   5.440   4.420
11603TIP3    H134742   7.034   5.538   4.409
11603TIP3    H234743   7.129   5.424   4.386
11604TIP3   OH234744   5.757   5.199   6.127
11604TIP3    H134745   5.688   5.179   6.059
11604TIP3    H234746   5.791   5.110   6.149
11605TIP3   OH234747   5.609   5.392   5.759
11605TIP3    H134748   5.706   5.389   5.753
11605TIP3    H234749   5.596   5.471   5.813
11606TIP3   OH234750   7.478   5.834   5.813
11606TIP3    H134751   7.486   5.737   5.819
11606TIP3    H234752   7.406   5.849   5.875
11607TIP3   OH234753   6.593   5.626   5.979
11607TIP3    H134754   6.570   5.719   5.994
11607TIP3    H234755   6.516   5.581   6.018
11608TIP3   OH234756   6.343   5.757   4.902
11608TIP3    H134757   6.294   5.737   4.820
11608TIP3    H234758   6.308   5.845   4.926
11609TIP3   OH234759   5.782   5.607   5.285
11609TIP3    H134760   5.826   5.598   5.373
11609TIP3    H234761   5.715   5.538   5.289
11610TIP3   OH234762   6.545   5.661   4.542
11610TIP3    H134763   6.602   5.589   4.507
11610TIP3    H234764   6.578   5.668   4.634
11611TIP3   OH234765   6.595   5.706   4.813
11611TIP3    H134766   6.505   5.717   4.852
11611TIP3    H234767   6.642   5.667   4.888
11612TIP3   OH234768   7.367   4.970   6.093
11612TIP3    H134769   7.291   4.986   6.035
11612TIP3    H234770   7.383   4.874   6.078
11613TIP3   OH234771   5.961   5.381   6.115
11613TIP3    H134772   6.011   5.362   6.197
11613TIP3    H234773   5.887   5.318   6.121
11614TIP3   OH234774   6.359   4.205   5.900
11614TIP3    H134775   6.271   4.172   5.873
11614TIP3    H234776   6.332   4.285   5.949
11615TIP3   OH234777   6.894   4.322   6.095
11615TIP3    H134778   6.962   4.290   6.158
11615TIP3    H234779   6.810   4.298   6.141
11616TIP3   OH234780   7.131   4.746   6.012
11616TIP3    H134781   7.084   4.746   6.097
11616TIP3    H234782   7.110   4.833   5.975
11617TIP3   OH234783   6.794   4.879   4.568
11617TIP3    H134784   6.758   4.853   4.481
11617TIP3    H234785   6.876   4.925   4.542
11618TIP3   OH234786   6.507   4.252   4.872
11618TIP3    H134787   6.471   4.249   4.963
11618TIP3    H234788   6.467   4.171   4.836
11619TIP3   OH234789   6.293   4.720   5.919
11619TIP3    H134790   6.240   4.739   6.000
11619TIP3    H234791   6.275   4.802   5.867
11620TIP3   OH234792   6.167   4.615   5.429
11620TIP3    H134793   6.078   4.578   5.450
11620TIP3    H234794   6.185   4.569   5.343
11621TIP3   OH234795   6.667   4.694   5.163
11621TIP3    H134796   6.614   4.763   5.117
11621TIP3    H234797   6.721   4.659   5.089
11622TIP3   OH234798   6.841   4.972   6.251
11622TIP3    H134799   6.817   4.897   6.310
11622TIP3    H234800   6.937   4.978   6.268
11623TIP3   OH234801   6.822   4.720   5.398
11623TIP3    H134802   6.762   4.746   5.326
11623TIP3    H234803   6.859   4.639   5.357
11624TIP3   OH234804   6.111   4.749   6.127
11624TIP3    H134805   6.136   4.810   6.197
11624TIP3    H234806   6.097   4.665   6.176
11625TIP3   OH234807   6.165   4.230   4.837
11625TIP3    H134808   6.151   4.223   4.934
11625TIP3    H234809   6.083   4.276   4.810
11626TIP3   OH234810   5.702   4.274   5.710
11626TIP3    H134811   5.782   4.300   5.760
11626TIP3    H234812   5.737   4.236   5.627
11627TIP3   OH234813   5.676   4.252   5.230
11627TIP3    H134814   5.719   4.289   5.150
11627TIP3    H234815   5.612   4.323   5.249
11628TIP3   OH234816   6.836   4.967   5.823
11628TIP3    H134817   6.869   4.896   5.763
11628TIP3    H234818   6.806   4.913   5.899
11629TIP3   OH234819   6.506   4.435   5.495
11629TIP3    H134820   6.424   4.427   5.549
11629TIP3    H234821   6.575   4.421   5.562
11630TIP3   OH234822   5.937   4.483   5.502
11630TIP3    H134823   5.843   4.490   5.474
11630TIP3    H234824   5.959   4.391   5.479
11631TIP3   OH234825   6.206   4.486   5.192
11631TIP3    H134826   6.300   4.493   5.169
11631TIP3    H234827   6.160   4.503   5.106
11632TIP3   OH234828   6.993   4.507   5.701
11632TIP3    H134829   6.954   4.516   5.790
11632TIP3    H234830   6.932   4.443   5.660
11633TIP3   OH234831   6.050   4.525   4.969
11633TIP3    H134832   5.981   4.471   4.926
11633TIP3    H234833   6.101   4.553   4.890
11634TIP3   OH234834   7.153   6.203   5.916
11634TIP3    H134835   7.164   6.207   5.820
11634TIP3    H234836   7.240   6.232   5.948
11635TIP3   OH234837   6.120   5.303   6.336
11635TIP3    H134838   6.200   5.334   6.383
11635TIP3    H234839   6.056   5.301   6.410
11636TIP3   OH234840   6.585   4.759   5.592
11636TIP3    H134841   6.655   4.716   5.540
11636TIP3    H234842   6.592   4.713   5.677
11637TIP3   OH234843   6.110   4.242   5.472
11637TIP3    H134844   6.073   4.165   5.520
11637TIP3    H234845   6.156   4.200   5.399
11638TIP3   OH234846   6.561   4.654   5.879
11638TIP3    H134847   6.471   4.688   5.895
11638TIP3    H234848   6.618   4.714   5.931
11639TIP3   OH234849   6.296   5.043   4.972
11639TIP3    H134850   6.225   4.975   4.964
11639TIP3    H234851   6.280   5.076   5.064
11640TIP3   OH234852   7.196   5.284   5.606
11640TIP3    H134853   7.222   5.329   5.523
11640TIP3    H234854   7.113   5.238   5.579
11641TIP3   OH234855   6.757   4.354   4.844
11641TIP3    H134856   6.661   4.335   4.850
11641TIP3    H234857   6.763   4.450   4.865
11642TIP3   OH234858   6.716   5.371   5.972
11642TIP3    H134859   6.715   5.347   6.065
11642TIP3    H234860   6.674   5.460   5.973
11643TIP3   OH234861   6.825   4.605   4.946
11643TIP3    H134862   6.922   4.608   4.958
11643TIP3    H234863   6.808   4.683   4.889
11644TIP3   OH234864   5.993   5.068   5.651
11644TIP3    H134865   6.033   5.034   5.569
11644TIP3    H234866   6.027   5.005   5.717
11645TIP3   OH234867   6.447   5.195   4.800
11645TIP3    H134868   6.397   5.280   4.804
11645TIP3    H234869   6.391   5.138   4.856
11646TIP3   OH234870   5.872   4.984   6.265
11646TIP3    H134871   5.886   4.967   6.360
11646TIP3    H234872   5.801   4.920   6.244
11647TIP3   OH234873   6.596   5.101   6.286
11647TIP3    H134874   6.536   5.042   6.238
11647TIP3    H234875   6.683   5.065   6.257
11648TIP3   OH234876   7.267   4.693   4.778
11648TIP3    H134877   7.205   4.648   4.716
11648TIP3    H234878   7.264   4.782   4.736
11649TIP3   OH234879   7.483   5.554   5.854
11649TIP3    H134880   7.386   5.543   5.847
11649TIP3    H234881   7.511   5.521   5.766
11650TIP3   OH234882   6.980   5.510   4.689
11650TIP3    H134883   6.939   5.447   4.751
11650TIP3    H234884   6.980   5.463   4.605
11651TIP3   OH234885   6.966   5.138   5.529
11651TIP3    H134886   6.872   5.114   5.535
11651TIP3    H234887   7.002   5.059   5.482
11652TIP3   OH234888   6.082   5.365   5.268
11652TIP3    H134889   6.097   5.446   5.216
11652TIP3    H234890   5.995   5.383   5.304
11653TIP3   OH234891   5.647   4.665   4.976
11653TIP3    H134892   5.670   4.759   4.972
11653TIP3    H234893   5.571   4.667   5.039
11654TIP3   OH234894   6.222   5.132   5.217
11654TIP3    H134895   6.189   5.223   5.235
11654TIP3    H234896   6.195   5.084   5.297
11655TIP3   OH234897   6.364   5.708   5.746
11655TIP3    H134898   6.390   5.790   5.696
11655TIP3    H234899   6.451   5.666   5.755
11656TIP3   OH234900   6.014   5.609   5.133
11656TIP3    H134901   5.926   5.620   5.173
11656TIP3    H234902   6.046   5.702   5.132
11657TIP3   OH234903   6.768   5.334   5.707
11657TIP3    H134904   6.749   5.332   5.803
11657TIP3    H234905   6.830   5.261   5.694
11658TIP3   OH234906   6.726   5.242   4.586
11658TIP3    H134907   6.777   5.216   4.666
11658TIP3    H234908   6.637   5.213   4.613
11659TIP3   OH234909   7.062   5.716   4.407
11659TIP3    H134910   7.097   5.788   4.351
11659TIP3    H234911   6.982   5.761   4.442
11660TIP3   OH234912   6.081   4.495   6.272
11660TIP3    H134913   5.984   4.497   6.282
11660TIP3    H234914   6.106   4.431   6.341
11661TIP3   OH234915   6.886   5.174   4.802
11661TIP3    H134916   6.874   5.108   4.873
11661TIP3    H234917   6.983   5.172   4.792
11662TIP3   OH234918   5.801   5.576   5.904
11662TIP3    H134919   5.853   5.503   5.941
11662TIP3    H234920   5.831   5.651   5.958
11663TIP3   OH234921   6.097   5.220   4.589
11663TIP3    H134922   6.100   5.128   4.558
11663TIP3    H234923   6.070   5.207   4.683
11664TIP3   OH234924   6.057   5.227   4.876
11664TIP3    H134925   6.141   5.212   4.909
11664TIP3    H234926   6.049   5.325   4.865
11665TIP3   OH234927   6.915   4.563   5.962
11665TIP3    H134928   7.003   4.593   5.989
11665TIP3    H234929   6.905   4.478   6.012
11666TIP3   OH234930   6.798   4.308   5.122
11666TIP3    H134931   6.786   4.328   5.027
11666TIP3    H234932   6.840   4.390   5.156
11667TIP3   OH234933   6.301   5.424   4.810
11667TIP3    H134934   6.213   5.452   4.843
11667TIP3    H234935   6.318   5.495   4.746
11668TIP3   OH234936   6.489   4.489   5.223
11668TIP3    H134937   6.555   4.558   5.205
11668TIP3    H234938   6.495   4.480   5.321
11669TIP3   OH234939   6.759   4.804   6.028
11669TIP3    H134940   6.784   4.850   6.109
11669TIP3    H234941   6.813   4.722   6.032
11670TIP3   OH234942   6.633   4.212   5.325
11670TIP3    H134943   6.629   4.290   5.383
11670TIP3    H234944   6.694   4.246   5.255
11671TIP3   OH234945   6.046   5.499   4.878
11671TIP3    H134946   6.012   5.564   4.812
11671TIP3    H234947   6.027   5.546   4.962
11672TIP3   OH234948   6.144   4.212   5.114
11672TIP3    H134949   6.142   4.301   5.153
11672TIP3    H234950   6.240   4.193   5.120
11673TIP3   OH234951   7.401   4.706   6.018
11673TIP3    H134952   7.302   4.700   6.016
11673TIP3    H234953   7.423   4.672   5.930
11674TIP3   OH234954   7.049   4.900   5.399
11674TIP3    H134955   6.975   4.839   5.409
11674TIP3    H234956   7.122   4.853   5.446
11675TIP3   OH234957   5.848   5.167   4.765
11675TIP3    H134958   5.799   5.200   4.839
11675TIP3    H234959   5.785   5.098   4.804
11676TIP3   OH234960   5.708   4.399   5.004
11676TIP3    H134961   5.702   4.496   4.997
11676TIP3    H234962   5.633   4.369   4.952
11677TIP3   OH234963   7.025   5.855   5.355
11677TIP3    H134964   6.976   5.902   5.284
11677TIP3    H234965   7.117   5.879   5.330
11678TIP3   OH234966   6.095   4.124   5.875
11678TIP3    H134967   6.064   4.090   5.788
11678TIP3    H234968   6.084   4.045   5.932
11679TIP3   OH234969   5.633   5.334   5.247
11679TIP3    H134970   5.582   5.372   5.321
11679TIP3    H234971   5.594   5.389   5.174
11680TIP3   OH234972   5.792   5.885   6.330
11680TIP3    H134973   5.879   5.882   6.374
11680TIP3    H234974   5.770   5.790   6.324
11681TIP3   OH234975   6.272   5.844   6.374
11681TIP3    H134976   6.366   5.822   6.377
11681TIP3    H234977   6.242   5.788   6.300
11682TIP3   OH234978   6.255   5.424   4.500
11682TIP3    H134979   6.197   5.354   4.539
11682TIP3    H234980   6.328   5.369   4.466
11683TIP3   OH234981   6.690   5.466   4.414
11683TIP3    H134982   6.729   5.395   4.469
11683TIP3    H234983   6.742   5.462   4.332
11684TIP3   OH234984   5.920   5.291   6.529
11684TIP3    H134985   5.939   5.195   6.529
11684TIP3    H234986   5.834   5.294   6.482
11685TIP3   OH234987   5.899   4.921   4.726
11685TIP3    H134988   5.965   4.897   4.792
11685TIP3    H234989   5.956   4.950   4.652
11686TIP3   OH234990   6.527   5.377   6.302
11686TIP3    H134991   6.484   5.395   6.216
11686TIP3    H234992   6.557   5.284   6.291
11687TIP3   OH234993   6.415   5.142   4.529
11687TIP3    H134994   6.413   5.154   4.626
11687TIP3    H234995   6.413   5.044   4.523
11688TIP3   OH234996   7.023   5.385   5.922
11688TIP3    H134997   7.085   5.429   5.861
11688TIP3    H234998   6.938   5.392   5.878
11689TIP3   OH234999   6.039   5.032   6.510
11689TIP3    H135000   6.109   4.971   6.484
11689TIP3    H235001   6.069   5.059   6.599
11690TIP3   OH235002   6.105   4.834   4.952
11690TIP3    H135003   6.079   4.763   5.013
11690TIP3    H235004   6.147   4.779   4.882
11691TIP3   OH235005   6.378   4.913   6.174
11691TIP3    H135006   6.298   4.970   6.174
11691TIP3    H235007   6.426   4.946   6.095
11692TIP3   OH235008   6.209   4.648   4.780
11692TIP3    H135009   6.183   4.644   4.686
11692TIP3    H235010   6.307   4.647   4.772
11693TIP3   OH235011   6.896   5.320   6.307
11693TIP3    H135012   6.967   5.288   6.251
11693TIP3    H235013   6.888   5.248   6.372
11694TIP3   OH235014   7.034   4.974   4.444
11694TIP3    H135015   7.011   4.923   4.363
11694TIP3    H235016   6.995   5.061   4.420
11695TIP3   OH235017   6.499   4.699   6.297
11695TIP3    H135018   6.499   4.619   6.240
11695TIP3    H235019   6.455   4.765   6.239
11696TIP3   OH235020   6.502   4.487   6.105
11696TIP3    H135021   6.529   4.524   6.019
11696TIP3    H235022   6.409   4.461   6.087
11697TIP3   OH235023   6.528   5.024   5.981
11697TIP3    H135024   6.609   5.025   5.929
11697TIP3    H235025   6.471   5.088   5.933
11698TIP3   OH235026   7.116   4.986   6.362
11698TIP3    H135027   7.156   4.898   6.360
11698TIP3    H235028   7.184   5.040   6.319
11699TIP3   OH235029   7.156   5.239   6.103
11699TIP3    H135030   7.101   5.299   6.046
11699TIP3    H235031   7.244   5.255   6.061
11700TIP3   OH235032   6.379   4.808   6.530
11700TIP3    H135033   6.311   4.739   6.543
11700TIP3    H235034   6.412   4.784   6.441
11701TIP3   OH235035   6.634   4.250   6.174
11701TIP3    H135036   6.584   4.331   6.150
11701TIP3    H235037   6.566   4.181   6.161
11702TIP3   OH235038   6.757   4.753   6.388
11702TIP3    H135039   6.741   4.738   6.483
11702TIP3    H235040   6.669   4.728   6.353
11703TIP3   OH235041   7.002   4.713   6.248
11703TIP3    H135042   6.924   4.704   6.306
11703TIP3    H235043   7.074   4.675   6.302
11704TIP3   OH235044   7.228   4.644   6.396
11704TIP3    H135045   7.242   4.548   6.410
11704TIP3    H235046   7.228   4.679   6.488
11705TIP3   OH235047   6.218   4.589   6.582
11705TIP3    H135048   6.220   4.498   6.546
11705TIP3    H235049   6.254   4.573   6.671
11706TIP3   OH235050   6.728   4.258   6.431
11706TIP3    H135051   6.795   4.187   6.424
11706TIP3    H235052   6.688   4.253   6.342
11707TIP3   OH235053   6.794   4.472   6.589
11707TIP3    H135054   6.773   4.401   6.524
11707TIP3    H235055   6.716   4.530   6.580
11708TIP3   OH235056   6.019   5.703   4.692
11708TIP3    H135057   6.112   5.699   4.665
11708TIP3    H235058   5.981   5.748   4.615
11709TIP3   OH235059   5.523   5.051   4.938
11709TIP3    H135060   5.555   5.109   4.867
11709TIP3    H235061   5.487   4.976   4.880
11710TIP3   OH235062   5.408   5.695   5.322
11710TIP3    H135063   5.342   5.635   5.280
11710TIP3    H235064   5.452   5.633   5.383
11711TIP3   OH235065   5.553   5.537   5.500
11711TIP3    H135066   5.529   5.473   5.570
11711TIP3    H235067   5.598   5.604   5.554
11712TIP3   OH235068   7.277   5.948   5.304
11712TIP3    H135069   7.301   5.990   5.388
11712TIP3    H235070   7.339   5.989   5.243
11713TIP3   OH235071   7.306   5.968   5.591
11713TIP3    H135072   7.263   5.881   5.583
11713TIP3    H235073   7.386   5.943   5.640
11714TIP3   OH235074   7.348   5.649   6.158
11714TIP3    H135075   7.275   5.655   6.222
11714TIP3    H235076   7.391   5.736   6.168
11715TIP3   OH235077   7.168   5.158   4.781
11715TIP3    H135078   7.241   5.219   4.762
11715TIP3    H235079   7.203   5.113   4.862
11716TIP3   OH235080   7.290   5.026   4.985
11716TIP3    H135081   7.226   4.981   5.044
11716TIP3    H235082   7.358   5.059   5.047
11717TIP3   OH235083   7.344   5.416   5.414
11717TIP3    H135084   7.400   5.349   5.370
11717TIP3    H235085   7.343   5.488   5.348
11718TIP3   OH235086   7.152   5.721   5.600
11718TIP3    H135087   7.083   5.784   5.582
11718TIP3    H235088   7.127   5.651   5.536
11719TIP3   OH235089   7.231   4.933   4.631
11719TIP3    H135090   7.158   4.933   4.564
11719TIP3    H235091   7.201   5.007   4.687
11720TIP3   OH235092   7.098   4.608   4.583
11720TIP3    H135093   7.056   4.636   4.501
11720TIP3    H235094   7.077   4.511   4.581
11721TIP3   OH235095   7.105   4.880   5.128
11721TIP3    H135096   7.113   4.783   5.122
11721TIP3    H235097   7.092   4.893   5.225
11722TIP3   OH235098   5.732   4.954   5.878
11722TIP3    H135099   5.729   4.921   5.786
11722TIP3    H235100   5.829   4.955   5.894
11723TIP3   OH235101   7.400   5.301   5.990
11723TIP3    H135102   7.471   5.232   5.985
11723TIP3    H235103   7.430   5.365   5.924
11724TIP3   OH235104   7.588   5.112   6.010
11724TIP3    H135105   7.530   5.043   6.047
11724TIP3    H235106   7.677   5.069   6.014
11725TIP3   OH235107   7.042   4.343   4.574
11725TIP3    H135108   7.117   4.306   4.625
11725TIP3    H235109   6.969   4.281   4.592
11726TIP3   OH235110   7.102   4.598   5.023
11726TIP3    H135111   7.142   4.509   5.040
11726TIP3    H235112   7.161   4.628   4.952
11727TIP3   OH235113   7.263   4.773   5.520
11727TIP3    H135114   7.349   4.798   5.479
11727TIP3    H235115   7.278   4.807   5.610
11728TIP3   OH235116   7.328   4.919   5.755
11728TIP3    H135117   7.249   4.955   5.800
11728TIP3    H235118   7.362   4.998   5.706
11729TIP3   OH235119   5.952   4.645   6.562
11729TIP3    H135120   6.049   4.633   6.557
11729TIP3    H235121   5.925   4.556   6.594
11730TIP3   OH235122   7.792   4.506   6.317
11730TIP3    H135123   7.846   4.439   6.269
11730TIP3    H235124   7.755   4.558   6.242
11731TIP3   OH235125   7.209   4.348   5.064
11731TIP3    H135126   7.258   4.329   5.146
11731TIP3    H235127   7.150   4.270   5.060
11732TIP3   OH235128   5.912   4.333   5.884
11732TIP3    H135129   5.973   4.257   5.892
11732TIP3    H235130   5.975   4.406   5.876
11733TIP3   OH235131   5.713   4.607   5.956
11733TIP3    H135132   5.761   4.596   5.872
11733TIP3    H235133   5.745   4.694   5.984
11734TIP3   OH235134   7.641   4.634   6.136
11734TIP3    H135135   7.557   4.680   6.118
11734TIP3    H235136   7.647   4.580   6.056
11735TIP3   OH235137   7.290   4.280   4.695
11735TIP3    H135138   7.328   4.207   4.641
11735TIP3    H235139   7.360   4.349   4.688
11736TIP3   OH235140   5.697   4.119   5.464
11736TIP3    H135141   5.602   4.107   5.483
11736TIP3    H235142   5.694   4.170   5.380
11737TIP3   OH235143   6.858   5.815   4.963
11737TIP3    H135144   6.909   5.801   4.880
11737TIP3    H235145   6.913   5.880   5.009
11738TIP3   OH235146   5.919   4.195   6.273
11738TIP3    H135147   5.865   4.183   6.353
11738TIP3    H235148   5.851   4.229   6.211
11739TIP3   OH235149   5.956   5.619   6.346
11739TIP3    H135150   5.865   5.592   6.327
11739TIP3    H235151   5.964   5.598   6.440
11740TIP3   OH235152   6.139   5.653   5.897
11740TIP3    H135153   6.091   5.728   5.856
11740TIP3    H235154   6.226   5.666   5.852
11741TIP3   OH235155   6.585   5.902   6.034
11741TIP3    H135156   6.622   5.893   6.125
11741TIP3    H235157   6.660   5.943   5.988
11742TIP3   OH235158   6.815   5.980   5.882
11742TIP3    H135159   6.818   6.031   5.802
11742TIP3    H235160   6.844   6.052   5.947
11743TIP3   OH235161   7.551   4.402   5.987
11743TIP3    H135162   7.461   4.394   5.952
11743TIP3    H235163   7.585   4.311   5.976
11744TIP3   OH235164   5.811   5.903   5.922
11744TIP3    H135165   5.723   5.937   5.893
11744TIP3    H235166   5.820   5.950   6.006
11745TIP3   OH235167   6.048   5.884   5.777
11745TIP3    H135168   5.961   5.898   5.821
11745TIP3    H235169   6.029   5.920   5.688
11746TIP3   OH235170   6.433   5.921   5.592
11746TIP3    H135171   6.395   5.937   5.504
11746TIP3    H235172   6.507   5.982   5.594
11747TIP3   OH235173   6.968   6.061   5.554
11747TIP3    H135174   6.937   6.133   5.496
11747TIP3    H235175   6.965   5.984   5.494
11748TIP3   OH235176   5.722   5.699   5.661
11748TIP3    H135177   5.748   5.673   5.752
11748TIP3    H235178   5.795   5.658   5.611
11749TIP3   OH235179   5.917   5.569   5.519
11749TIP3    H135180   5.934   5.489   5.574
11749TIP3    H235181   6.007   5.610   5.519
11750TIP3   OH235182   6.181   5.668   5.526
11750TIP3    H135183   6.218   5.579   5.513
11750TIP3    H235184   6.228   5.694   5.607
11751TIP3   OH235185   6.755   4.322   5.609
11751TIP3    H135186   6.715   4.250   5.662
11751TIP3    H235187   6.829   4.276   5.565
11752TIP3   OH235188   7.280   4.209   5.519
11752TIP3    H135189   7.317   4.257   5.441
11752TIP3    H235190   7.184   4.221   5.507
11753TIP3   OH235191   7.376   4.304   5.280
11753TIP3    H135192   7.448   4.251   5.241
11753TIP3    H235193   7.410   4.395   5.265
11754TIP3   OH235194   6.007   4.032   5.627
11754TIP3    H135195   5.914   3.998   5.627
11754TIP3    H235196   6.056   3.947   5.623
11755TIP3   OH235197   5.799   3.901   5.278
11755TIP3    H135198   5.826   3.956   5.202
11755TIP3    H235199   5.767   3.968   5.341
11756TIP3   OH235200   6.450   4.066   5.507
11756TIP3    H135201   6.510   4.112   5.445
11756TIP3    H235202   6.480   4.100   5.592
11757TIP3   OH235203   6.996   4.211   5.490
11757TIP3    H135204   6.997   4.171   5.403
11757TIP3    H235205   6.985   4.132   5.548
11758TIP3   OH235206   7.028   4.134   5.054
11758TIP3    H135207   6.940   4.173   5.064
11758TIP3    H235208   7.015   4.048   5.099
11759TIP3   OH235209   5.509   5.475   5.057
11759TIP3    H135210   5.422   5.446   5.023
11759TIP3    H235211   5.507   5.565   5.017
11760TIP3   OH235212   5.911   4.059   5.039
11760TIP3    H135213   5.957   3.995   4.981
11760TIP3    H235214   5.986   4.111   5.074
11761TIP3   OH235215   6.420   4.238   5.137
11761TIP3    H135216   6.479   4.187   5.194
11761TIP3    H235217   6.446   4.329   5.163
11762TIP3   OH235218   6.286   5.659   4.637
11762TIP3    H135219   6.372   5.683   4.598
11762TIP3    H235220   6.261   5.585   4.577
11763TIP3   OH235221   7.004   5.780   4.730
11763TIP3    H135222   6.998   5.682   4.717
11763TIP3    H235223   6.957   5.812   4.651
11764TIP3   OH235224   6.214   4.316   6.523
11764TIP3    H135225   6.181   4.242   6.576
11764TIP3    H235226   6.309   4.314   6.547
11765TIP3   OH235227   6.466   4.312   6.638
11765TIP3    H135228   6.548   4.282   6.596
11765TIP3    H235229   6.451   4.241   6.704
11766TIP3   OH235230   5.637   5.554   4.727
11766TIP3    H135231   5.554   5.516   4.755
11766TIP3    H235232   5.685   5.477   4.692
11767TIP3   OH235233   7.291   4.375   6.423
11767TIP3    H135234   7.312   4.341   6.513
11767TIP3    H235235   7.378   4.367   6.378
11768TIP3   OH235236   8.494   5.298   4.682
11768TIP3    H135237   8.463   5.389   4.662
11768TIP3    H235238   8.417   5.247   4.653
11769TIP3   OH235239   8.487   5.297   5.066
11769TIP3    H135240   8.519   5.278   5.157
11769TIP3    H235241   8.450   5.210   5.041
11770TIP3   OH235242   7.791   5.188   5.435
11770TIP3    H135243   7.824   5.125   5.502
11770TIP3    H235244   7.870   5.243   5.422
11771TIP3   OH235245   8.736   5.594   4.747
11771TIP3    H135246   8.722   5.528   4.817
11771TIP3    H235247   8.767   5.671   4.797
11772TIP3   OH235248   7.765   5.600   5.153
11772TIP3    H135249   7.756   5.502   5.155
11772TIP3    H235250   7.862   5.608   5.148
11773TIP3   OH235251   7.470   4.806   4.936
11773TIP3    H135252   7.419   4.887   4.953
11773TIP3    H235253   7.401   4.748   4.899
11774TIP3   OH235254   7.529   5.090   5.112
11774TIP3    H135255   7.577   5.012   5.150
11774TIP3    H235256   7.593   5.122   5.047
11775TIP3   OH235257   8.385   6.059   4.763
11775TIP3    H135258   8.429   5.988   4.711
11775TIP3    H235259   8.386   6.022   4.852
11776TIP3   OH235260   8.291   5.522   5.112
11776TIP3    H135261   8.331   5.443   5.070
11776TIP3    H235262   8.375   5.567   5.137
11777TIP3   OH235263   8.699   5.043   5.141
11777TIP3    H135264   8.711   4.949   5.169
11777TIP3    H235265   8.655   5.027   5.055
11778TIP3   OH235266   8.038   4.683   5.113
11778TIP3    H135267   8.025   4.755   5.047
11778TIP3    H235268   7.993   4.609   5.066
11779TIP3   OH235269   8.732   4.774   4.745
11779TIP3    H135270   8.795   4.716   4.789
11779TIP3    H235271   8.789   4.814   4.678
11780TIP3   OH235272   7.677   4.884   5.216
11780TIP3    H135273   7.759   4.864   5.264
11780TIP3    H235274   7.690   4.828   5.137
11781TIP3   OH235275   8.117   5.082   5.012
11781TIP3    H135276   8.211   5.058   5.025
11781TIP3    H235277   8.079   4.998   4.980
11782TIP3   OH235278   8.040   4.663   5.545
11782TIP3    H135279   7.978   4.704   5.482
11782TIP3    H235280   7.985   4.653   5.624
11783TIP3   OH235281   8.384   5.518   4.549
11783TIP3    H135282   8.342   5.499   4.464
11783TIP3    H235283   8.338   5.600   4.576
11784TIP3   OH235284   8.145   5.441   5.336
11784TIP3    H135285   8.084   5.508   5.374
11784TIP3    H235286   8.190   5.491   5.265
11785TIP3   OH235287   7.909   4.781   5.331
11785TIP3    H135288   7.972   4.854   5.353
11785TIP3    H235289   7.957   4.740   5.256
11786TIP3   OH235290   7.974   5.637   5.436
11786TIP3    H135291   7.946   5.723   5.399
11786TIP3    H235292   7.897   5.618   5.493
11787TIP3   OH235293   7.373   5.339   4.658
11787TIP3    H135294   7.289   5.379   4.633
11787TIP3    H235295   7.412   5.413   4.710
11788TIP3   OH235296   8.807   5.842   4.912
11788TIP3    H135297   8.719   5.829   4.954
11788TIP3    H235298   8.793   5.929   4.871
11789TIP3   OH235299   8.387   4.377   5.260
11789TIP3    H135300   8.370   4.282   5.277
11789TIP3    H235301   8.309   4.417   5.304
11790TIP3   OH235302   8.505   5.888   4.585
11790TIP3    H135303   8.556   5.806   4.564
11790TIP3    H235304   8.565   5.954   4.544
11791TIP3   OH235305   8.644   5.670   4.496
11791TIP3    H135306   8.593   5.592   4.470
11791TIP3    H235307   8.688   5.638   4.578
11792TIP3   OH235308   9.030   5.750   5.269
11792TIP3    H135309   9.036   5.673   5.209
11792TIP3    H235310   9.031   5.824   5.206
11793TIP3   OH235311   8.324   5.148   4.513
11793TIP3    H135312   8.243   5.199   4.491
11793TIP3    H235313   8.368   5.143   4.427
11794TIP3   OH235314   8.282   4.933   4.231
11794TIP3    H135315   8.352   4.984   4.275
11794TIP3    H235316   8.337   4.869   4.181
11795TIP3   OH235317   8.666   5.229   4.485
11795TIP3    H135318   8.611   5.257   4.562
11795TIP3    H235319   8.739   5.184   4.533
11796TIP3   OH235320   8.889   5.251   5.395
11796TIP3    H135321   8.899   5.338   5.437
11796TIP3    H235322   8.802   5.261   5.353
11797TIP3   OH235323   7.906   5.228   4.903
11797TIP3    H135324   7.864   5.168   4.838
11797TIP3    H235325   7.982   5.174   4.934
11798TIP3   OH235326   8.035   5.640   5.050
11798TIP3    H135327   8.017   5.598   4.965
11798TIP3    H235328   8.125   5.606   5.070
11799TIP3   OH235329   8.035   5.201   5.255
11799TIP3    H135330   8.073   5.175   5.169
11799TIP3    H235331   8.083   5.284   5.276
11800TIP3   OH235332   8.568   5.837   5.034
11800TIP3    H135333   8.551   5.919   5.084
11800TIP3    H235334   8.548   5.766   5.099
11801TIP3   OH235335   8.178   5.766   5.575
11801TIP3    H135336   8.112   5.821   5.622
11801TIP3    H235337   8.117   5.706   5.526
11802TIP3   OH235338   8.511   5.083   4.311
11802TIP3    H135339   8.568   5.146   4.361
11802TIP3    H235340   8.536   5.106   4.218
11803TIP3   OH235341   7.935   5.321   5.673
11803TIP3    H135342   7.937   5.403   5.728
11803TIP3    H235343   7.842   5.294   5.687
11804TIP3   OH235344   8.256   5.768   4.588
11804TIP3    H135345   8.339   5.818   4.599
11804TIP3    H235346   8.197   5.833   4.547
11805TIP3   OH235347   7.972   5.927   5.666
11805TIP3    H135348   7.938   5.923   5.574
11805TIP3    H235349   7.893   5.898   5.717
11806TIP3   OH235350   7.763   5.071   4.712
11806TIP3    H135351   7.696   5.097   4.647
11806TIP3    H235352   7.743   4.978   4.726
11807TIP3   OH235353   8.828   5.700   3.913
11807TIP3    H135354   8.829   5.792   3.884
11807TIP3    H235355   8.910   5.666   3.875
11808TIP3   OH235356   7.550   5.456   5.613
11808TIP3    H135357   7.488   5.430   5.542
11808TIP3    H235358   7.590   5.370   5.640
11809TIP3   OH235359   7.406   5.647   5.247
11809TIP3    H135360   7.502   5.638   5.237
11809TIP3    H235361   7.400   5.729   5.300
11810TIP3   OH235362   8.368   5.902   5.432
11810TIP3    H135363   8.408   5.951   5.505
11810TIP3    H235364   8.302   5.846   5.479
11811TIP3   OH235365   8.134   6.010   4.392
11811TIP3    H135366   8.094   5.992   4.305
11811TIP3    H235367   8.104   6.101   4.412
11812TIP3   OH235368   7.575   5.863   4.775
11812TIP3    H135369   7.625   5.854   4.859
11812TIP3    H235370   7.517   5.785   4.779
11813TIP3   OH235371   8.337   5.916   4.030
11813TIP3    H135372   8.395   5.846   3.991
11813TIP3    H235373   8.376   5.924   4.120
11814TIP3   OH235374   8.388   5.965   4.300
11814TIP3    H135375   8.302   5.970   4.346
11814TIP3    H235376   8.444   5.923   4.368
11815TIP3   OH235377   7.756   5.639   5.602
11815TIP3    H135378   7.807   5.622   5.684
11815TIP3    H235379   7.684   5.572   5.609
11816TIP3   OH235380   8.155   4.459   5.388
11816TIP3    H135381   8.066   4.430   5.361
11816TIP3    H235382   8.131   4.543   5.432
11817TIP3   OH235383   8.662   4.593   5.570
11817TIP3    H135384   8.725   4.550   5.631
11817TIP3    H235385   8.575   4.570   5.612
11818TIP3   OH235386   8.966   5.005   5.510
11818TIP3    H135387   8.901   5.004   5.584
11818TIP3    H235388   8.938   5.086   5.461
11819TIP3   OH235389   8.589   5.136   4.057
11819TIP3    H135390   8.560   5.108   3.967
11819TIP3    H235391   8.662   5.195   4.034
11820TIP3   OH235392   8.311   4.510   4.359
11820TIP3    H135393   8.275   4.507   4.450
11820TIP3    H235394   8.271   4.428   4.323
11821TIP3   OH235395   8.083   4.979   5.408
11821TIP3    H135396   8.039   5.002   5.492
11821TIP3    H235397   8.067   5.060   5.355
11822TIP3   OH235398   7.969   4.865   4.920
11822TIP3    H135399   7.879   4.833   4.939
11822TIP3    H235400   7.985   4.822   4.832
11823TIP3   OH235401   8.463   4.950   4.647
11823TIP3    H135402   8.408   5.020   4.604
11823TIP3    H235403   8.519   4.921   4.573
11824TIP3   OH235404   8.626   5.224   5.727
11824TIP3    H135405   8.619   5.150   5.790
11824TIP3    H235406   8.722   5.247   5.735
11825TIP3   OH235407   8.608   4.982   4.886
11825TIP3    H135408   8.548   4.998   4.809
11825TIP3    H235409   8.645   4.896   4.857
11826TIP3   OH235410   7.907   5.013   5.628
11826TIP3    H135411   7.946   5.065   5.700
11826TIP3    H235412   7.867   4.942   5.680
11827TIP3   OH235413   7.958   4.486   4.324
11827TIP3    H135414   7.950   4.480   4.421
11827TIP3    H235415   7.876   4.532   4.300
11828TIP3   OH235416   7.499   4.530   5.195
11828TIP3    H135417   7.576   4.558   5.248
11828TIP3    H235418   7.537   4.492   5.115
11829TIP3   OH235419   7.470   4.506   4.714
11829TIP3    H135420   7.517   4.544   4.637
11829TIP3    H235421   7.409   4.580   4.735
11830TIP3   OH235422   8.611   5.232   5.310
11830TIP3    H135423   8.650   5.164   5.250
11830TIP3    H235424   8.589   5.176   5.387
11831TIP3   OH235425   8.293   4.708   4.982
11831TIP3    H135426   8.220   4.689   5.044
11831TIP3    H235427   8.370   4.667   5.026
11832TIP3   OH235428   7.733   4.740   4.988
11832TIP3    H135429   7.639   4.745   4.961
11832TIP3    H235430   7.758   4.648   4.966
11833TIP3   OH235431   7.999   4.738   4.678
11833TIP3    H135432   8.095   4.749   4.662
11833TIP3    H235433   7.957   4.760   4.592
11834TIP3   OH235434   8.713   4.776   5.177
11834TIP3    H135435   8.705   4.783   5.274
11834TIP3    H235436   8.793   4.719   5.168
11835TIP3   OH235437   7.840   4.778   4.454
11835TIP3    H135438   7.774   4.727   4.405
11835TIP3    H235439   7.895   4.811   4.379
11836TIP3   OH235440   7.918   5.567   5.824
11836TIP3    H135441   7.999   5.593   5.872
11836TIP3    H235442   7.856   5.557   5.898
11837TIP3   OH235443   8.384   5.018   5.082
11837TIP3    H135444   8.445   4.968   5.025
11837TIP3    H235445   8.389   4.968   5.165
11838TIP3   OH235446   7.902   4.500   4.958
11838TIP3    H135447   7.868   4.421   5.005
11838TIP3    H235448   7.956   4.460   4.888
11839TIP3   OH235449   8.356   4.909   5.374
11839TIP3    H135450   8.268   4.949   5.386
11839TIP3    H235451   8.415   4.972   5.420
11840TIP3   OH235452   8.093   5.300   4.460
11840TIP3    H135453   8.020   5.235   4.450
11840TIP3    H235454   8.076   5.333   4.551
11841TIP3   OH235455   8.992   5.549   5.084
11841TIP3    H135456   9.014   5.546   4.991
11841TIP3    H235457   8.906   5.502   5.084
11842TIP3   OH235458   8.564   4.609   4.326
11842TIP3    H135459   8.468   4.584   4.333
11842TIP3    H235460   8.560   4.706   4.337
11843TIP3   OH235461   8.485   5.603   5.472
11843TIP3    H135462   8.544   5.577   5.545
11843TIP3    H235463   8.481   5.699   5.481
11844TIP3   OH235464   8.646   4.868   4.414
11844TIP3    H135465   8.733   4.908   4.419
11844TIP3    H235466   8.595   4.937   4.367
11845TIP3   OH235467   7.786   5.321   5.138
11845TIP3    H135468   7.827   5.295   5.053
11845TIP3    H235469   7.834   5.264   5.200
11846TIP3   OH235470   8.243   5.450   4.284
11846TIP3    H135471   8.194   5.535   4.290
11846TIP3    H235472   8.188   5.393   4.343
11847TIP3   OH235473   7.665   5.249   5.749
11847TIP3    H135474   7.698   5.234   5.840
11847TIP3    H235475   7.607   5.172   5.737
11848TIP3   OH235476   8.387   5.344   5.780
11848TIP3    H135477   8.326   5.288   5.729
11848TIP3    H235478   8.474   5.316   5.743
11849TIP3   OH235479   8.653   5.859   5.383
11849TIP3    H135480   8.564   5.889   5.359
11849TIP3    H235481   8.672   5.912   5.462
11850TIP3   OH235482   8.746   5.776   4.171
11850TIP3    H135483   8.760   5.717   4.246
11850TIP3    H235484   8.781   5.727   4.095
11851TIP3   OH235485   8.756   5.401   5.012
11851TIP3    H135486   8.662   5.380   5.025
11851TIP3    H235487   8.790   5.316   4.980
11852TIP3   OH235488   7.889   5.627   4.765
11852TIP3    H135489   7.892   5.708   4.710
11852TIP3    H235490   7.794   5.614   4.774
11853TIP3   OH235491   7.445   4.935   4.462
11853TIP3    H135492   7.495   5.014   4.490
11853TIP3    H235493   7.372   4.933   4.529
11854TIP3   OH235494   8.022   5.391   4.705
11854TIP3    H135495   7.990   5.481   4.726
11854TIP3    H235496   7.991   5.341   4.782
11855TIP3   OH235497   8.159   5.969   5.233
11855TIP3    H135498   8.201   6.037   5.176
11855TIP3    H235499   8.237   5.937   5.283
11856TIP3   OH235500   7.807   5.866   4.615
11856TIP3    H135501   7.722   5.874   4.661
11856TIP3    H235502   7.839   5.959   4.618
11857TIP3   OH235503   8.541   5.606   5.196
11857TIP3    H135504   8.529   5.598   5.293
11857TIP3    H235505   8.629   5.566   5.186
11858TIP3   OH235506   8.503   5.498   4.088
11858TIP3    H135507   8.563   5.473   4.162
11858TIP3    H235508   8.417   5.472   4.125
11859TIP3   OH235509   8.671   5.426   4.294
11859TIP3    H135510   8.663   5.356   4.362
11859TIP3    H235511   8.757   5.464   4.315
11860TIP3   OH235512   7.596   5.833   5.393
11860TIP3    H135513   7.648   5.758   5.426
11860TIP3    H235514   7.630   5.905   5.447
11861TIP3   OH235515   7.880   5.479   4.075
11861TIP3    H135516   7.906   5.389   4.046
11861TIP3    H235517   7.865   5.465   4.170
11862TIP3   OH235518   7.836   5.474   4.347
11862TIP3    H135519   7.913   5.454   4.403
11862TIP3    H235520   7.829   5.571   4.356
11863TIP3   OH235521   7.565   5.182   4.532
11863TIP3    H135522   7.507   5.231   4.595
11863TIP3    H235523   7.635   5.247   4.517
11864TIP3   OH235524   8.716   4.832   5.449
11864TIP3    H135525   8.804   4.852   5.485
11864TIP3    H235526   8.694   4.748   5.494
11865TIP3   OH235527   8.572   4.580   4.614
11865TIP3    H135528   8.576   4.589   4.518
11865TIP3    H235529   8.624   4.656   4.646
11866TIP3   OH235530   8.096   5.677   4.295
11866TIP3    H135531   8.008   5.704   4.329
11866TIP3    H235532   8.116   5.750   4.235
11867TIP3   OH235533   8.278   4.748   4.710
11867TIP3    H135534   8.349   4.814   4.693
11867TIP3    H235535   8.287   4.736   4.807
11868TIP3   OH235536   8.551   5.060   5.511
11868TIP3    H135537   8.574   5.111   5.591
11868TIP3    H235538   8.612   4.984   5.516
11869TIP3   OH235539   8.422   4.462   4.809
11869TIP3    H135540   8.452   4.512   4.888
11869TIP3    H235541   8.477   4.504   4.739
11870TIP3   OH235542   7.837   5.752   4.362
11870TIP3    H135543   7.811   5.823   4.300
11870TIP3    H235544   7.825   5.796   4.449
11871TIP3   OH235545   7.941   4.469   4.600
11871TIP3    H135546   7.941   4.558   4.640
11871TIP3    H235547   8.037   4.448   4.607
11872TIP3   OH235548   8.841   5.142   4.919
11872TIP3    H135549   8.755   5.101   4.892
11872TIP3    H235550   8.855   5.097   5.003
11873TIP3   OH235551   7.503   4.661   4.491
11873TIP3    H135552   7.497   4.759   4.482
11873TIP3    H235553   7.425   4.630   4.444
11874TIP3   OH235554   8.825   6.122   4.838
11874TIP3    H135555   8.778   6.169   4.765
11874TIP3    H235556   8.912   6.112   4.799
11875TIP3   OH235557   7.890   4.382   5.362
11875TIP3    H135558   7.860   4.347   5.275
11875TIP3    H235559   7.880   4.303   5.419
11876TIP3   OH235560   7.424   5.597   4.743
11876TIP3    H135561   7.361   5.633   4.807
11876TIP3    H235562   7.395   5.641   4.660
11877TIP3   OH235563   7.573   6.129   5.796
11877TIP3    H135564   7.655   6.132   5.852
11877TIP3    H235565   7.559   6.033   5.792
11878TIP3   OH235566   8.033   6.129   5.844
11878TIP3    H135567   8.123   6.159   5.827
11878TIP3    H235568   8.023   6.054   5.781
11879TIP3   OH235569   8.049   5.682   3.987
11879TIP3    H135570   7.996   5.608   4.024
11879TIP3    H235571   8.125   5.633   3.949
11880TIP3   OH235572   8.478   5.724   3.895
11880TIP3    H135573   8.526   5.664   3.954
11880TIP3    H235574   8.532   5.722   3.813
11881TIP3   OH235575   7.711   5.550   6.012
11881TIP3    H135576   7.741   5.456   6.009
11881TIP3    H235577   7.625   5.545   5.966
11882TIP3   OH235578   7.662   5.200   4.199
11882TIP3    H135579   7.722   5.189   4.272
11882TIP3    H235580   7.730   5.208   4.126
11883TIP3   OH235581   8.311   5.607   5.775
11883TIP3    H135582   8.288   5.609   5.680
11883TIP3    H235583   8.355   5.519   5.782
11884TIP3   OH235584   8.193   5.394   4.017
11884TIP3    H135585   8.204   5.407   4.113
11884TIP3    H235586   8.204   5.296   4.011
11885TIP3   OH235587   8.796   5.632   5.349
11885TIP3    H135588   8.879   5.674   5.319
11885TIP3    H235589   8.739   5.711   5.359
11886TIP3   OH235590   7.830   5.309   5.983
11886TIP3    H135591   7.856   5.216   5.965
11886TIP3    H235592   7.859   5.315   6.077
11887TIP3   OH235593   7.895   5.102   4.431
11887TIP3    H135594   7.883   5.053   4.513
11887TIP3    H235595   7.934   5.033   4.372
11888TIP3   OH235596   8.177   5.169   5.664
11888TIP3    H135597   8.097   5.225   5.661
11888TIP3    H235598   8.224   5.197   5.582
11889TIP3   OH235599   8.004   4.901   4.270
11889TIP3    H135600   7.979   4.899   4.175
11889TIP3    H235601   8.101   4.903   4.263
11890TIP3   OH235602   8.654   5.544   5.714
11890TIP3    H135603   8.747   5.544   5.685
11890TIP3    H235604   8.659   5.484   5.790
11891TIP3   OH235605   8.309   4.947   5.793
11891TIP3    H135606   8.298   4.874   5.730
11891TIP3    H235607   8.252   5.016   5.755
11892TIP3   OH235608   8.299   4.739   5.590
11892TIP3    H135609   8.327   4.784   5.508
11892TIP3    H235610   8.205   4.719   5.571
11893TIP3   OH235611   8.323   5.273   5.462
11893TIP3    H135612   8.410   5.284   5.420
11893TIP3    H235613   8.271   5.343   5.417
11894TIP3   OH235614   8.894   5.261   5.788
11894TIP3    H135615   8.934   5.175   5.777
11894TIP3    H235616   8.970   5.320   5.803
11895TIP3   OH235617   8.899   5.495   5.554
11895TIP3    H135618   8.848   5.551   5.490
11895TIP3    H235619   8.989   5.509   5.522
11896TIP3   OH235620   8.421   4.504   5.663
11896TIP3    H135621   8.371   4.585   5.639
11896TIP3    H235622   8.352   4.435   5.650
11897TIP3   OH235623   8.566   5.002   5.872
11897TIP3    H135624   8.545   5.002   5.967
11897TIP3    H235625   8.476   4.980   5.837
11898TIP3   OH235626   8.800   4.961   5.726
11898TIP3    H135627   8.719   4.963   5.781
11898TIP3    H235628   8.864   4.922   5.790
11899TIP3   OH235629   8.989   4.875   5.901
11899TIP3    H135630   9.059   4.816   5.932
11899TIP3    H235631   8.988   4.945   5.969
11900TIP3   OH235632   8.525   4.511   5.914
11900TIP3    H135633   8.583   4.433   5.910
11900TIP3    H235634   8.483   4.508   5.826
11901TIP3   OH235635   8.581   4.719   6.075
11901TIP3    H135636   8.563   4.646   6.011
11901TIP3    H235637   8.519   4.788   6.046
11902TIP3   OH235638   7.811   5.955   4.174
11902TIP3    H135639   7.907   5.949   4.156
11902TIP3    H235640   7.784   6.007   4.095
11903TIP3   OH235641   7.329   5.335   4.361
11903TIP3    H135642   7.368   5.324   4.449
11903TIP3    H235643   7.281   5.252   4.348
11904TIP3   OH235644   7.206   5.952   4.807
11904TIP3    H135645   7.139   5.891   4.769
11904TIP3    H235646   7.250   5.893   4.871
11905TIP3   OH235647   7.343   5.799   4.990
11905TIP3    H135648   7.328   5.729   5.057
11905TIP3    H235649   7.395   5.862   5.044
11906TIP3   OH235650   8.996   5.959   5.085
11906TIP3    H135651   8.932   6.005   5.143
11906TIP3    H235652   8.935   5.913   5.023
11907TIP3   OH235653   8.878   5.105   4.610
11907TIP3    H135654   8.965   5.059   4.620
11907TIP3    H235655   8.879   5.156   4.694
11908TIP3   OH235656   7.527   5.215   5.363
11908TIP3    H135657   7.526   5.180   5.272
11908TIP3    H235658   7.624   5.213   5.382
11909TIP3   OH235659   7.706   4.590   5.370
11909TIP3    H135660   7.767   4.514   5.379
11909TIP3    H235661   7.770   4.663   5.361
11910TIP3   OH235662   7.506   4.865   5.438
11910TIP3    H135663   7.557   4.855   5.355
11910TIP3    H235664   7.545   4.946   5.474
11911TIP3   OH235665   7.493   4.372   4.947
11911TIP3    H135666   7.399   4.363   4.969
11911TIP3    H235667   7.490   4.426   4.865
11912TIP3   OH235668   8.647   6.073   4.451
11912TIP3    H135669   8.695   6.057   4.366
11912TIP3    H235670   8.708   6.134   4.496
11913TIP3   OH235671   7.710   4.436   5.750
11913TIP3    H135672   7.665   4.439   5.836
11913TIP3    H235673   7.642   4.477   5.693
11914TIP3   OH235674   7.757   5.868   5.828
11914TIP3    H135675   7.665   5.840   5.816
11914TIP3    H235676   7.766   5.869   5.924
11915TIP3   OH235677   7.932   5.909   5.383
11915TIP3    H135678   7.886   5.986   5.343
11915TIP3    H235679   8.018   5.919   5.337
11916TIP3   OH235680   7.608   6.164   5.406
11916TIP3    H135681   7.517   6.195   5.384
11916TIP3    H235682   7.621   6.210   5.489
11917TIP3   OH235683   7.845   6.144   5.265
11917TIP3    H135684   7.758   6.156   5.308
11917TIP3    H235685   7.826   6.176   5.174
11918TIP3   OH235686   8.259   6.166   5.057
11918TIP3    H135687   8.195   6.187   4.987
11918TIP3    H235688   8.278   6.255   5.094
11919TIP3   OH235689   8.522   6.098   5.118
11919TIP3    H135690   8.433   6.123   5.088
11919TIP3    H235691   8.576   6.172   5.082
11920TIP3   OH235692   8.665   6.300   5.000
11920TIP3    H135693   8.715   6.381   5.013
11920TIP3    H235694   8.729   6.242   4.956
11921TIP3   OH235695   7.519   5.957   5.148
11921TIP3    H135696   7.545   5.931   5.240
11921TIP3    H235697   7.593   5.914   5.099
11922TIP3   OH235698   7.714   5.828   5.008
11922TIP3    H135699   7.730   5.744   5.056
11922TIP3    H235700   7.805   5.865   5.004
11923TIP3   OH235701   7.980   5.923   5.012
11923TIP3    H135702   8.011   5.831   4.999
11923TIP3    H235703   8.027   5.944   5.095
11924TIP3   OH235704   8.509   4.550   5.057
11924TIP3    H135705   8.495   4.496   5.137
11924TIP3    H235706   8.606   4.543   5.045
11925TIP3   OH235707   7.802   4.288   5.114
11925TIP3    H135708   7.710   4.254   5.115
11925TIP3    H235709   7.852   4.203   5.110
11926TIP3   OH235710   7.590   4.158   4.764
11926TIP3    H135711   7.621   4.213   4.690
11926TIP3    H235712   7.564   4.225   4.830
11927TIP3   OH235713   8.245   4.323   4.994
11927TIP3    H135714   8.301   4.368   4.928
11927TIP3    H235715   8.280   4.360   5.077
11928TIP3   OH235716   8.763   4.454   4.976
11928TIP3    H135717   8.784   4.429   4.885
11928TIP3    H235718   8.760   4.366   5.020
11929TIP3   OH235719   7.305   5.728   4.540
11929TIP3    H135720   7.219   5.700   4.505
11929TIP3    H235721   7.300   5.823   4.518
11930TIP3   OH235722   7.709   4.319   4.523
11930TIP3    H135723   7.755   4.253   4.468
11930TIP3    H235724   7.784   4.370   4.560
11931TIP3   OH235725   8.217   4.496   4.622
11931TIP3    H135726   8.278   4.448   4.681
11931TIP3    H235727   8.240   4.588   4.648
11932TIP3   OH235728   8.079   5.916   4.125
11932TIP3    H135729   8.168   5.938   4.089
11932TIP3    H235730   8.058   5.841   4.065
11933TIP3   OH235731   8.782   6.041   4.219
11933TIP3    H135732   8.780   5.944   4.206
11933TIP3    H235733   8.759   6.070   4.128
11934TIP3   OH235734   8.013   4.512   5.991
11934TIP3    H135735   7.989   4.463   6.072
11934TIP3    H235736   8.082   4.571   6.022
11935TIP3   OH235737   8.258   4.582   6.133
11935TIP3    H135738   8.334   4.550   6.081
11935TIP3    H235739   8.243   4.505   6.192
11936TIP3   OH235740   7.381   5.746   4.180
11936TIP3    H135741   7.381   5.780   4.270
11936TIP3    H235742   7.472   5.710   4.171
11937TIP3   OH235743   0.946   6.087   6.370
11937TIP3    H135744   0.909   6.177   6.373
11937TIP3    H235745   0.875   6.040   6.322
11938TIP3   OH235746   0.962   6.071   6.743
11938TIP3    H135747   0.984   6.042   6.833
11938TIP3    H235748   0.914   5.994   6.709
11939TIP3   OH235749   1.189   6.387   6.436
11939TIP3    H135750   1.180   6.318   6.503
11939TIP3    H235751   1.219   6.463   6.489
11940TIP3   OH235752   0.891   6.871   6.436
11940TIP3    H135753   0.933   6.787   6.412
11940TIP3    H235754   0.828   6.842   6.505
11941TIP3   OH235755   0.771   6.276   6.817
11941TIP3    H135756   0.804   6.205   6.758
11941TIP3    H235757   0.854   6.328   6.829
11942TIP3   OH235758   1.758   5.628   6.799
11942TIP3    H135759   1.787   5.712   6.841
11942TIP3    H235760   1.782   5.644   6.706
11943TIP3   OH235761   1.155   5.811   6.837
11943TIP3    H135762   1.199   5.725   6.854
11943TIP3    H235763   1.125   5.797   6.745
11944TIP3   OH235764   1.189   5.567   6.422
11944TIP3    H135765   1.262   5.550   6.486
11944TIP3    H235766   1.240   5.597   6.345
11945TIP3   OH235767   1.832   5.836   6.971
11945TIP3    H135768   1.748   5.884   6.952
11945TIP3    H235769   1.852   5.870   7.060
11946TIP3   OH235770   0.808   6.323   6.253
11946TIP3    H135771   0.801   6.267   6.172
11946TIP3    H235772   0.888   6.373   6.236
11947TIP3   OH235773   1.397   5.567   6.595
11947TIP3    H135774   1.395   5.510   6.672
11947TIP3    H235775   1.453   5.641   6.624
11948TIP3   OH235776   1.259   6.628   6.600
11948TIP3    H135777   1.168   6.620   6.638
11948TIP3    H235778   1.253   6.716   6.559
11949TIP3   OH235779   1.551   5.531   6.967
11949TIP3    H135780   1.464   5.556   6.933
11949TIP3    H235781   1.611   5.560   6.895
11950TIP3   OH235782   0.854   5.162   6.936
11950TIP3    H135783   0.848   5.066   6.954
11950TIP3    H235784   0.799   5.197   7.006
11951TIP3   OH235785   0.956   6.658   6.262
11951TIP3    H135786   1.005   6.576   6.241
11951TIP3    H235787   1.019   6.726   6.228
11952TIP3   OH235788   1.073   6.425   6.187
11952TIP3    H135789   1.110   6.362   6.122
11952TIP3    H235790   1.129   6.406   6.267
11953TIP3   OH235791   1.484   6.541   6.948
11953TIP3    H135792   1.475   6.464   6.887
11953TIP3    H235793   1.469   6.616   6.887
11954TIP3   OH235794   0.775   5.961   6.200
11954TIP3    H135795   0.696   5.906   6.221
11954TIP3    H235796   0.804   5.928   6.113
11955TIP3   OH235797   0.751   5.727   5.920
11955TIP3    H135798   0.828   5.774   5.958
11955TIP3    H235799   0.797   5.656   5.870
11956TIP3   OH235800   1.680   6.179   6.792
11956TIP3    H135801   1.597   6.232   6.796
11956TIP3    H235802   1.711   6.202   6.702
11957TIP3   OH235803   1.126   6.019   6.175
11957TIP3    H135804   1.072   6.041   6.254
11957TIP3    H235805   1.209   5.990   6.217
11958TIP3   OH235806   1.360   6.056   7.089
11958TIP3    H135807   1.359   6.139   7.140
11958TIP3    H235808   1.275   6.062   7.041
11959TIP3   OH235809   1.015   6.622   6.713
11959TIP3    H135810   0.993   6.708   6.754
11959TIP3    H235811   1.002   6.557   6.784
11960TIP3   OH235812   0.967   5.875   6.002
11960TIP3    H135813   1.024   5.935   6.055
11960TIP3    H235814   0.994   5.901   5.910
11961TIP3   OH235815   1.481   5.116   6.051
11961TIP3    H135816   1.399   5.136   6.101
11961TIP3    H235817   1.493   5.199   6.000
11962TIP3   OH235818   1.282   6.485   5.602
11962TIP3    H135819   1.289   6.582   5.583
11962TIP3    H235820   1.374   6.456   5.587
11963TIP3   OH235821   1.727   6.885   6.992
11963TIP3    H135822   1.725   6.789   7.007
11963TIP3    H235823   1.643   6.911   7.037
11964TIP3   OH235824   0.793   6.706   5.717
11964TIP3    H135825   0.852   6.635   5.684
11964TIP3    H235826   0.813   6.709   5.812
11965TIP3   OH235827   0.838   6.754   5.996
11965TIP3    H135828   0.774   6.757   6.069
11965TIP3    H235829   0.918   6.729   6.044
11966TIP3   OH235830   1.610   6.016   7.270
11966TIP3    H135831   1.532   6.030   7.214
11966TIP3    H235832   1.627   5.921   7.257
11967TIP3   OH235833   1.149   5.367   7.270
11967TIP3    H135834   1.218   5.337   7.334
11967TIP3    H235835   1.066   5.345   7.316
11968TIP3   OH235836   1.380   5.792   7.188
11968TIP3    H135837   1.332   5.789   7.274
11968TIP3    H235838   1.358   5.880   7.153
11969TIP3   OH235839   1.042   5.928   5.748
11969TIP3    H135840   1.005   5.899   5.662
11969TIP3    H235841   1.127   5.967   5.719
11970TIP3   OH235842   0.752   5.298   6.028
11970TIP3    H135843   0.740   5.298   6.126
11970TIP3    H235844   0.712   5.211   6.008
11971TIP3   OH235845   0.922   5.747   6.341
11971TIP3    H135846   0.863   5.812   6.299
11971TIP3    H235847   0.970   5.711   6.264
11972TIP3   OH235848   1.111   6.007   7.413
11972TIP3    H135849   1.085   5.935   7.475
11972TIP3    H235850   1.206   6.014   7.433
11973TIP3   OH235851   1.070   5.765   6.577
11973TIP3    H135852   1.011   5.792   6.503
11973TIP3    H235853   1.107   5.684   6.535
11974TIP3   OH235854   1.078   6.010   7.001
11974TIP3    H135855   1.114   5.942   6.940
11974TIP3    H235856   1.052   5.951   7.076
11975TIP3   OH235857   0.762   5.470   6.660
11975TIP3    H135858   0.670   5.487   6.685
11975TIP3    H235859   0.810   5.477   6.743
11976TIP3   OH235860   1.242   5.549   6.880
11976TIP3    H135861   1.202   5.560   6.968
11976TIP3    H235862   1.182   5.484   6.840
11977TIP3   OH235863   1.417   7.229   7.055
11977TIP3    H135864   1.407   7.249   6.959
11977TIP3    H235865   1.443   7.316   7.088
11978TIP3   OH235866   0.845   5.792   6.768
11978TIP3    H135867   0.914   5.758   6.708
11978TIP3    H235868   0.866   5.749   6.852
11979TIP3   OH235869   0.834   5.682   7.059
11979TIP3    H135870   0.768   5.755   7.053
11979TIP3    H235871   0.907   5.730   7.105
11980TIP3   OH235872   1.447   6.325   6.781
11980TIP3    H135873   1.474   6.374   6.700
11980TIP3    H235874   1.363   6.283   6.754
11981TIP3   OH235875   1.004   5.400   6.019
11981TIP3    H135876   0.907   5.381   6.021
11981TIP3    H235877   1.009   5.494   6.044
11982TIP3   OH235878   0.936   6.409   7.149
11982TIP3    H135879   0.969   6.405   7.239
11982TIP3    H235880   0.886   6.494   7.149
11983TIP3   OH235881   1.073   5.649   6.123
11983TIP3    H135882   1.170   5.651   6.135
11983TIP3    H235883   1.058   5.726   6.065
11984TIP3   OH235884   0.687   6.239   5.984
11984TIP3    H135885   0.619   6.307   5.985
11984TIP3    H235886   0.643   6.166   6.030
11985TIP3   OH235887   0.891   6.118   7.532
11985TIP3    H135888   0.829   6.075   7.471
11985TIP3    H235889   0.976   6.100   7.487
11986TIP3   OH235890   1.109   6.662   7.046
11986TIP3    H135891   1.013   6.666   7.050
11986TIP3    H235892   1.134   6.718   7.122
11987TIP3   OH235893   1.517   5.739   5.954
11987TIP3    H135894   1.454   5.694   5.893
11987TIP3    H235895   1.513   5.828   5.912
11988TIP3   OH235896   1.736   6.596   7.035
11988TIP3    H135897   1.638   6.591   7.026
11988TIP3    H235898   1.762   6.567   6.945
11989TIP3   OH235899   1.216   6.555   5.863
11989TIP3    H135900   1.194   6.476   5.913
11989TIP3    H235901   1.231   6.520   5.774
11990TIP3   OH235902   1.217   6.186   6.698
11990TIP3    H135903   1.124   6.158   6.710
11990TIP3    H235904   1.253   6.107   6.653
11991TIP3   OH235905   1.011   6.392   6.883
11991TIP3    H135906   1.000   6.396   6.980
11991TIP3    H235907   1.095   6.345   6.873
11992TIP3   OH235908   0.980   6.287   5.763
11992TIP3    H135909   1.023   6.263   5.848
11992TIP3    H235910   0.890   6.251   5.775
11993TIP3   OH235911   1.255   6.912   6.924
11993TIP3    H135912   1.173   6.859   6.917
11993TIP3    H235913   1.235   6.985   6.860
11994TIP3   OH235914   1.313   6.759   5.583
11994TIP3    H135915   1.351   6.830   5.528
11994TIP3    H235916   1.234   6.806   5.616
11995TIP3   OH235917   1.138   6.231   5.996
11995TIP3    H135918   1.127   6.153   6.055
11995TIP3    H235919   1.233   6.219   5.972
11996TIP3   OH235920   1.161   5.610   7.141
11996TIP3    H135921   1.251   5.641   7.165
11996TIP3    H235922   1.155   5.524   7.189
11997TIP3   OH235923   1.060   5.346   6.298
11997TIP3    H135924   1.032   5.368   6.207
11997TIP3    H235925   1.090   5.432   6.332
11998TIP3   OH235926   0.727   5.554   6.399
11998TIP3    H135927   0.804   5.612   6.386
11998TIP3    H235928   0.735   5.531   6.494
11999TIP3   OH235929   1.015   5.844   7.205
11999TIP3    H135930   1.045   5.897   7.281
11999TIP3    H235931   1.072   5.765   7.210
12000TIP3   OH235932   0.904   5.260   6.527
12000TIP3    H135933   0.866   5.343   6.560
12000TIP3    H235934   0.940   5.289   6.441
12001TIP3   OH235935   1.647   5.751   7.189
12001TIP3    H135936   1.549   5.748   7.193
12001TIP3    H235937   1.662   5.711   7.102
12002TIP3   OH235938   1.299   5.944   6.576
12002TIP3    H135939   1.222   5.884   6.585
12002TIP3    H235940   1.370   5.895   6.623
12003TIP3   OH235941   1.270   6.896   6.526
12003TIP3    H135942   1.227   6.945   6.452
12003TIP3    H235943   1.364   6.917   6.506
12004TIP3   OH235944   1.151   6.806   7.277
12004TIP3    H135945   1.145   6.739   7.348
12004TIP3    H235946   1.234   6.853   7.300
12005TIP3   OH235947   0.940   6.512   5.590
12005TIP3    H135948   0.982   6.443   5.645
12005TIP3    H235949   0.994   6.509   5.508
12006TIP3   OH235950   0.676   6.190   5.708
12006TIP3    H135951   0.670   6.199   5.805
12006TIP3    H235952   0.671   6.093   5.698
12007TIP3   OH235953   1.267   6.433   7.084
12007TIP3    H135954   1.344   6.473   7.039
12007TIP3    H235955   1.200   6.503   7.068
12008TIP3   OH235956   0.488   5.713   6.004
12008TIP3    H135957   0.461   5.700   5.911
12008TIP3    H235958   0.585   5.707   5.995
12009TIP3   OH235959   1.134   6.359   7.487
12009TIP3    H135960   1.209   6.338   7.431
12009TIP3    H235961   1.137   6.285   7.551
12010TIP3   OH235962   1.276   6.014   5.626
12010TIP3    H135963   1.256   5.967   5.542
12010TIP3    H235964   1.246   6.104   5.601
12011TIP3   OH235965   0.717   5.482   7.208
12011TIP3    H135966   0.769   5.546   7.153
12011TIP3    H235967   0.675   5.540   7.271
12012TIP3   OH235968   0.829   6.124   7.105
12012TIP3    H135969   0.920   6.101   7.080
12012TIP3    H235970   0.816   6.205   7.058
12013TIP3   OH235971   1.375   6.023   7.525
12013TIP3    H135972   1.424   5.939   7.532
12013TIP3    H235973   1.442   6.083   7.489
12014TIP3   OH235974   1.398   6.281   7.263
12014TIP3    H135975   1.342   6.338   7.206
12014TIP3    H235976   1.487   6.303   7.226
12015TIP3   OH235977   0.891   5.295   7.339
12015TIP3    H135978   0.831   5.366   7.306
12015TIP3    H235979   0.833   5.217   7.325
12016TIP3   OH235980   1.014   5.801   7.569
12016TIP3    H135981   1.041   5.794   7.662
12016TIP3    H235982   0.930   5.754   7.568
12017TIP3   OH235983   1.253   5.746   7.422
12017TIP3    H135984   1.177   5.741   7.482
12017TIP3    H235985   1.327   5.714   7.478
12018TIP3   OH235986   1.480   5.689   7.573
12018TIP3    H135987   1.490   5.593   7.588
12018TIP3    H235988   1.473   5.725   7.664
12019TIP3   OH235989   0.988   5.310   7.595
12019TIP3    H135990   1.046   5.231   7.597
12019TIP3    H235991   0.944   5.299   7.508
12020TIP3   OH235992   1.057   5.521   7.748
12020TIP3    H135993   1.038   5.443   7.691
12020TIP3    H235994   0.968   5.563   7.752
12021TIP3   OH235995   1.522   6.990   6.481
12021TIP3    H135996   1.549   7.023   6.569
12021TIP3    H235997   1.585   7.033   6.422
12022TIP3   OH235998   1.552   7.008   6.762
12022TIP3    H135999   1.511   6.919   6.758
12022TIP3    H236000   1.628   6.989   6.819
12023TIP3   OH236001   1.602   6.685   7.331
12023TIP3    H136002   1.524   6.703   7.388
12023TIP3    H236003   1.646   6.773   7.330
12024TIP3   OH236004   1.411   6.203   5.957
12024TIP3    H136005   1.480   6.265   5.926
12024TIP3    H236006   1.456   6.162   6.035
12025TIP3   OH236007   1.539   6.070   6.160
12025TIP3    H136008   1.475   6.026   6.219
12025TIP3    H236009   1.606   6.105   6.222
12026TIP3   OH236010   1.595   6.460   6.592
12026TIP3    H136011   1.649   6.395   6.543
12026TIP3    H236012   1.591   6.535   6.529
12027TIP3   OH236013   1.431   6.755   6.784
12027TIP3    H136014   1.361   6.803   6.833
12027TIP3    H236015   1.379   6.710   6.714
12028TIP3   OH236016   1.478   5.977   5.807
12028TIP3    H136017   1.406   5.978   5.740
12028TIP3    H236018   1.451   6.054   5.862
12029TIP3   OH236019   1.347   5.650   5.761
12029TIP3    H136020   1.307   5.685   5.681
12029TIP3    H236021   1.325   5.555   5.754
12030TIP3   OH236022   1.353   5.924   6.305
12030TIP3    H136023   1.361   5.828   6.298
12030TIP3    H236024   1.340   5.937   6.402
12031TIP3   OH236025   1.643   6.350   7.164
12031TIP3    H136026   1.715   6.284   7.154
12031TIP3    H236027   1.669   6.419   7.102
12032TIP3   OH236028   1.826   6.154   7.181
12032TIP3    H136029   1.752   6.102   7.220
12032TIP3    H236030   1.900   6.090   7.195
12033TIP3   OH236031   1.292   5.384   5.747
12033TIP3    H136032   1.365   5.350   5.802
12033TIP3    H236033   1.217   5.326   5.768
12034TIP3   OH236034   1.351   5.642   6.200
12034TIP3    H136035   1.391   5.553   6.216
12034TIP3    H236036   1.409   5.674   6.128
12035TIP3   OH236037   1.512   5.815   6.697
12035TIP3    H136038   1.597   5.841   6.655
12035TIP3    H236039   1.527   5.852   6.786
12036TIP3   OH236040   1.583   5.960   6.930
12036TIP3    H136041   1.504   5.995   6.976
12036TIP3    H236042   1.615   6.040   6.882
12037TIP3   OH236043   2.031   5.550   7.485
12037TIP3    H136044   2.091   5.485   7.442
12037TIP3    H236045   2.003   5.605   7.408
12038TIP3   OH236046   1.459   5.392   6.240
12038TIP3    H136047   1.506   5.373   6.323
12038TIP3    H236048   1.398   5.316   6.236
12039TIP3   OH236049   1.901   5.688   7.290
12039TIP3    H136050   1.812   5.728   7.301
12039TIP3    H236051   1.877   5.614   7.230
12040TIP3   OH236052   1.539   5.325   5.873
12040TIP3    H136053   1.578   5.253   5.818
12040TIP3    H236054   1.607   5.395   5.865
12041TIP3   OH236055   1.105   6.844   6.139
12041TIP3    H136056   1.158   6.840   6.057
12041TIP3    H236057   1.146   6.919   6.185
12042TIP3   OH236058   1.028   7.068   7.010
12042TIP3    H136059   1.107   7.020   7.036
12042TIP3    H236060   1.037   7.152   7.057
12043TIP3   OH236061   1.801   5.451   7.169
12043TIP3    H136062   1.711   5.443   7.133
12043TIP3    H236063   1.834   5.359   7.157
12044TIP3   OH236064   0.974   6.891   6.787
12044TIP3    H136065   0.900   6.922   6.840
12044TIP3    H236066   1.020   6.976   6.771
12045TIP3   OH236067   1.208   7.091   6.716
12045TIP3    H136068   1.181   7.170   6.665
12045TIP3    H236069   1.224   7.026   6.645
12046TIP3   OH236070   1.022   5.370   6.806
12046TIP3    H136071   0.968   5.294   6.837
12046TIP3    H236072   1.072   5.330   6.734
12047TIP3   OH236073   1.530   5.255   6.697
12047TIP3    H136074   1.566   5.301   6.618
12047TIP3    H236075   1.434   5.264   6.684
12048TIP3   OH236076   1.625   5.347   6.458
12048TIP3    H136077   1.697   5.295   6.417
12048TIP3    H236078   1.658   5.438   6.441
12049TIP3   OH236079   0.716   5.105   6.688
12049TIP3    H136080   0.766   5.152   6.620
12049TIP3    H236081   0.759   5.137   6.768
12050TIP3   OH236082   1.253   5.255   6.665
12050TIP3    H136083   1.236   5.219   6.577
12050TIP3    H236084   1.234   5.177   6.722
12051TIP3   OH236085   1.277   5.179   6.230
12051TIP3    H136086   1.192   5.225   6.246
12051TIP3    H236087   1.260   5.093   6.275
12052TIP3   OH236088   0.729   5.288   6.297
12052TIP3    H136089   0.683   5.228   6.356
12052TIP3    H236090   0.697   5.376   6.326
12053TIP3   OH236091   1.249   6.823   5.907
12053TIP3    H136092   1.241   6.726   5.891
12053TIP3    H236093   1.208   6.859   5.825
12054TIP3   OH236094   1.539   5.419   7.600
12054TIP3    H136095   1.561   5.388   7.690
12054TIP3    H236096   1.626   5.414   7.555
12055TIP3   OH236097   1.479   6.964   7.086
12055TIP3    H136098   1.402   6.928   7.037
12055TIP3    H236099   1.462   7.060   7.073
12056TIP3   OH236100   2.744   6.341   5.858
12056TIP3    H136101   2.714   6.432   5.837
12056TIP3    H236102   2.667   6.291   5.826
12057TIP3   OH236103   2.741   6.341   6.243
12057TIP3    H136104   2.775   6.315   6.331
12057TIP3    H236105   2.701   6.258   6.212
12058TIP3   OH236106   2.040   6.236   6.609
12058TIP3    H136107   2.072   6.168   6.671
12058TIP3    H236108   2.121   6.286   6.593
12059TIP3   OH236109   2.987   6.644   5.923
12059TIP3    H136110   2.972   6.575   5.990
12059TIP3    H236111   3.015   6.719   5.978
12060TIP3   OH236112   2.014   6.645   6.330
12060TIP3    H136113   2.005   6.548   6.332
12060TIP3    H236114   2.111   6.654   6.323
12061TIP3   OH236115   1.718   5.849   6.115
12061TIP3    H136116   1.669   5.932   6.128
12061TIP3    H236117   1.649   5.794   6.073
12062TIP3   OH236118   1.777   6.135   6.289
12062TIP3    H136119   1.827   6.058   6.325
12062TIP3    H236120   1.837   6.167   6.221
12063TIP3   OH236121   2.636   7.105   5.940
12063TIP3    H136122   2.680   7.033   5.889
12063TIP3    H236123   2.630   7.066   6.027
12064TIP3   OH236124   2.540   6.566   6.290
12064TIP3    H136125   2.580   6.490   6.244
12064TIP3    H236126   2.623   6.612   6.314
12065TIP3   OH236127   3.554   5.888   6.286
12065TIP3    H136128   3.583   5.970   6.331
12065TIP3    H236129   3.574   5.908   6.193
12066TIP3   OH236130   2.953   6.068   6.320
12066TIP3    H136131   2.995   5.982   6.341
12066TIP3    H236132   2.921   6.051   6.229
12067TIP3   OH236133   2.291   5.727   6.286
12067TIP3    H136134   2.272   5.799   6.223
12067TIP3    H236135   2.244   5.653   6.242
12068TIP3   OH236136   2.986   5.819   5.908
12068TIP3    H136137   3.058   5.803   5.973
12068TIP3    H236138   3.038   5.854   5.833
12069TIP3   OH236139   1.924   5.928   6.394
12069TIP3    H136140   2.008   5.908   6.441
12069TIP3    H236141   1.937   5.874   6.314
12070TIP3   OH236142   2.364   6.127   6.190
12070TIP3    H136143   2.458   6.102   6.201
12070TIP3    H236144   2.326   6.043   6.156
12071TIP3   OH236145   3.629   6.096   6.454
12071TIP3    H136146   3.544   6.142   6.436
12071TIP3    H236147   3.637   6.113   6.549
12072TIP3   OH236148   2.287   5.711   6.721
12072TIP3    H136149   2.228   5.747   6.652
12072TIP3    H236150   2.235   5.730   6.801
12073TIP3   OH236151   2.634   6.562   5.728
12073TIP3    H136152   2.591   6.543   5.643
12073TIP3    H236153   2.589   6.645   5.753
12074TIP3   OH236154   2.393   6.486   6.514
12074TIP3    H136155   2.333   6.554   6.551
12074TIP3    H236156   2.438   6.535   6.442
12075TIP3   OH236157   3.194   5.822   6.083
12075TIP3    H136158   3.182   5.775   6.166
12075TIP3    H236159   3.247   5.899   6.110
12076TIP3   OH236160   2.159   5.825   6.505
12076TIP3    H136161   2.221   5.898   6.527
12076TIP3    H236162   2.208   5.784   6.429
12077TIP3   OH236163   2.223   6.681   6.613
12077TIP3    H136164   2.198   6.768   6.574
12077TIP3    H236165   2.143   6.666   6.669
12078TIP3   OH236166   1.614   6.371   5.850
12078TIP3    H136167   1.575   6.396   5.764
12078TIP3    H236168   1.646   6.457   5.884
12079TIP3   OH236169   3.054   6.885   6.088
12079TIP3    H136170   2.965   6.878   6.128
12079TIP3    H236171   3.048   6.973   6.045
12080TIP3   OH236172   3.347   5.787   6.452
12080TIP3    H136173   3.259   5.816   6.421
12080TIP3    H236174   3.406   5.819   6.381
12081TIP3   OH236175   2.642   5.429   6.433
12081TIP3    H136176   2.631   5.334   6.453
12081TIP3    H236177   2.564   5.466   6.481
12082TIP3   OH236178   2.755   6.932   5.760
12082TIP3    H136179   2.806   6.850   5.741
12082TIP3    H236180   2.816   6.998   5.720
12083TIP3   OH236181   2.900   6.717   5.671
12083TIP3    H136182   2.860   6.637   5.635
12083TIP3    H236183   2.938   6.684   5.756
12084TIP3   OH236184   3.282   6.798   6.433
12084TIP3    H136185   3.270   6.722   6.373
12084TIP3    H236186   3.264   6.874   6.374
12085TIP3   OH236187   2.573   6.192   5.691
12085TIP3    H136188   2.493   6.243   5.669
12085TIP3    H236189   2.619   6.190   5.605
12086TIP3   OH236190   2.532   5.979   5.405
12086TIP3    H136191   2.600   6.028   5.454
12086TIP3    H236192   2.588   5.915   5.358
12087TIP3   OH236193   3.478   6.437   6.278
12087TIP3    H136194   3.394   6.488   6.284
12087TIP3    H236195   3.506   6.460   6.187
12088TIP3   OH236196   2.921   6.275   5.661
12088TIP3    H136197   2.866   6.300   5.739
12088TIP3    H236198   3.004   6.249   5.705
12089TIP3   OH236199   3.156   6.314   6.576
12089TIP3    H136200   3.154   6.397   6.627
12089TIP3    H236201   3.070   6.319   6.530
12090TIP3   OH236202   2.153   6.272   6.079
12090TIP3    H136203   2.112   6.214   6.012
12090TIP3    H236204   2.230   6.219   6.109
12091TIP3   OH236205   2.282   6.683   6.227
12091TIP3    H136206   2.263   6.644   6.140
12091TIP3    H236207   2.372   6.649   6.246
12092TIP3   OH236208   2.285   6.245   6.434
12092TIP3    H136209   2.320   6.221   6.345
12092TIP3    H236210   2.331   6.330   6.453
12093TIP3   OH236211   2.814   6.881   6.210
12093TIP3    H136212   2.800   6.961   6.264
12093TIP3    H236213   2.800   6.809   6.274
12094TIP3   OH236214   2.428   6.802   6.758
12094TIP3    H136215   2.367   6.864   6.804
12094TIP3    H236216   2.363   6.748   6.708
12095TIP3   OH236217   2.761   6.133   5.489
12095TIP3    H136218   2.820   6.192   5.540
12095TIP3    H236219   2.787   6.157   5.396
12096TIP3   OH236220   2.183   6.355   6.863
12096TIP3    H136221   2.187   6.444   6.904
12096TIP3    H236222   2.087   6.337   6.868
12097TIP3   OH236223   2.506   6.811   5.764
12097TIP3    H136224   2.587   6.864   5.776
12097TIP3    H236225   2.445   6.875   5.724
12098TIP3   OH236226   2.221   6.970   6.844
12098TIP3    H136227   2.188   6.969   6.752
12098TIP3    H236228   2.141   6.947   6.896
12099TIP3   OH236229   3.278   5.373   5.538
12099TIP3    H136230   3.196   5.392   5.588
12099TIP3    H236231   3.289   5.456   5.487
12100TIP3   OH236232   2.019   6.116   5.884
12100TIP3    H136233   1.952   6.160   5.828
12100TIP3    H236234   1.981   6.028   5.894
12101TIP3   OH236235   3.076   6.740   5.085
12101TIP3    H136236   3.084   6.837   5.071
12101TIP3    H236237   3.169   6.711   5.072
12102TIP3   OH236238   1.800   6.500   6.791
12102TIP3    H136239   1.735   6.478   6.721
12102TIP3    H236240   1.838   6.413   6.814
12103TIP3   OH236241   1.655   6.690   6.426
12103TIP3    H136242   1.751   6.685   6.413
12103TIP3    H236243   1.646   6.770   6.479
12104TIP3   OH236244   3.525   7.146   6.481
12104TIP3    H136245   3.518   7.051   6.499
12104TIP3    H236246   3.440   7.177   6.521
12105TIP3   OH236247   2.624   6.931   6.612
12105TIP3    H136248   2.624   7.024   6.646
12105TIP3    H236249   2.554   6.891   6.668
12106TIP3   OH236250   2.387   7.058   5.566
12106TIP3    H136251   2.340   7.038   5.483
12106TIP3    H236252   2.353   7.146   5.590
12107TIP3   OH236253   1.823   6.907   5.950
12107TIP3    H136254   1.871   6.897   6.036
12107TIP3    H236255   1.769   6.827   5.950
12108TIP3   OH236256   2.588   6.960   5.205
12108TIP3    H136257   2.646   6.889   5.169
12108TIP3    H236258   2.622   6.969   5.297
12109TIP3   OH236259   2.638   7.008   5.475
12109TIP3    H136260   2.550   7.017   5.517
12109TIP3    H236261   2.689   6.968   5.547
12110TIP3   OH236262   3.410   6.276   6.754
12110TIP3    H136263   3.328   6.287   6.705
12110TIP3    H236264   3.426   6.180   6.744
12111TIP3   OH236265   2.006   6.682   6.779
12111TIP3    H136266   2.056   6.665   6.861
12111TIP3    H236267   1.931   6.619   6.786
12112TIP3   OH236268   2.404   5.505   6.565
12112TIP3    H136269   2.315   5.474   6.537
12112TIP3    H236270   2.379   5.587   6.611
12113TIP3   OH236271   2.942   5.620   6.760
12113TIP3    H136272   3.013   5.596   6.823
12113TIP3    H236273   2.860   5.599   6.809
12114TIP3   OH236274   3.178   6.049   6.676
12114TIP3    H136275   3.130   6.046   6.762
12114TIP3    H236276   3.153   6.137   6.642
12115TIP3   OH236277   2.837   6.179   5.232
12115TIP3    H136278   2.804   6.153   5.144
12115TIP3    H236279   2.920   6.225   5.208
12116TIP3   OH236280   2.550   5.554   5.535
12116TIP3    H136281   2.516   5.551   5.626
12116TIP3    H236282   2.512   5.471   5.501
12117TIP3   OH236283   2.336   6.021   6.581
12117TIP3    H136284   2.287   6.042   6.663
12117TIP3    H236285   2.320   6.103   6.528
12118TIP3   OH236286   2.220   5.908   6.096
12118TIP3    H136287   2.127   5.881   6.114
12118TIP3    H236288   2.233   5.867   6.008
12119TIP3   OH236289   2.711   5.993   5.825
12119TIP3    H136290   2.658   6.064   5.782
12119TIP3    H236291   2.765   5.961   5.751
12120TIP3   OH236292   2.886   6.270   6.910
12120TIP3    H136293   2.864   6.197   6.971
12120TIP3    H236294   2.980   6.284   6.932
12121TIP3   OH236295   2.867   6.020   6.062
12121TIP3    H136296   2.807   6.049   5.991
12121TIP3    H236297   2.902   5.939   6.019
12122TIP3   OH236298   2.155   6.051   6.791
12122TIP3    H136299   2.190   6.113   6.857
12122TIP3    H236300   2.145   5.968   6.843
12123TIP3   OH236301   2.206   5.529   5.501
12123TIP3    H136302   2.197   5.525   5.598
12123TIP3    H236303   2.127   5.580   5.476
12124TIP3   OH236304   1.748   5.572   6.374
12124TIP3    H136305   1.825   5.603   6.425
12124TIP3    H236306   1.786   5.539   6.291
12125TIP3   OH236307   1.719   5.552   5.891
12125TIP3    H136308   1.763   5.590   5.813
12125TIP3    H236309   1.657   5.625   5.912
12126TIP3   OH236310   2.876   6.267   6.485
12126TIP3    H136311   2.910   6.195   6.426
12126TIP3    H236312   2.849   6.213   6.562
12127TIP3   OH236313   2.550   5.731   6.158
12127TIP3    H136314   2.469   5.728   6.212
12127TIP3    H236315   2.619   5.724   6.225
12128TIP3   OH236316   1.981   5.785   6.166
12128TIP3    H136317   1.887   5.791   6.138
12128TIP3    H236318   2.006   5.694   6.142
12129TIP3   OH236319   2.249   5.781   5.855
12129TIP3    H136320   2.344   5.796   5.834
12129TIP3    H236321   2.203   5.804   5.771
12130TIP3   OH236322   3.039   5.806   6.360
12130TIP3    H136323   3.006   5.817   6.452
12130TIP3    H236324   2.973   5.744   6.324
12131TIP3   OH236325   2.093   5.817   5.632
12131TIP3    H136326   2.023   5.770   5.584
12131TIP3    H236327   2.146   5.852   5.557
12132TIP3   OH236328   2.166   6.603   7.000
12132TIP3    H136329   2.247   6.633   7.046
12132TIP3    H236330   2.102   6.605   7.074
12133TIP3   OH236331   2.631   6.059   6.255
12133TIP3    H136332   2.702   6.018   6.204
12133TIP3    H236333   2.639   6.015   6.342
12134TIP3   OH236334   2.152   5.545   6.135
12134TIP3    H136335   2.117   5.465   6.182
12134TIP3    H236336   2.201   5.505   6.062
12135TIP3   OH236337   2.607   5.955   6.545
12135TIP3    H136338   2.518   5.991   6.559
12135TIP3    H236339   2.665   6.015   6.596
12136TIP3   OH236340   2.343   6.345   5.639
12136TIP3    H136341   2.271   6.280   5.627
12136TIP3    H236342   2.325   6.378   5.730
12137TIP3   OH236343   3.244   6.580   6.267
12137TIP3    H136344   3.268   6.631   6.187
12137TIP3    H236345   3.158   6.540   6.242
12138TIP3   OH236346   2.801   5.657   5.504
12138TIP3    H136347   2.705   5.638   5.512
12138TIP3    H236348   2.809   5.751   5.528
12139TIP3   OH236349   2.737   6.659   6.639
12139TIP3    H136350   2.774   6.644   6.726
12139TIP3    H236351   2.707   6.752   6.643
12140TIP3   OH236352   2.870   5.905   5.607
12140TIP3    H136353   2.966   5.911   5.621
12140TIP3    H236354   2.852   5.984   5.553
12141TIP3   OH236355   2.035   6.366   6.314
12141TIP3    H136356   2.074   6.340   6.228
12141TIP3    H236357   2.081   6.306   6.375
12142TIP3   OH236358   2.489   6.495   5.461
12142TIP3    H136359   2.441   6.581   5.467
12142TIP3    H236360   2.435   6.439   5.521
12143TIP3   OH236361   1.916   6.289   6.930
12143TIP3    H136362   1.938   6.273   7.024
12143TIP3    H236363   1.849   6.221   6.913
12144TIP3   OH236364   2.644   6.401   6.950
12144TIP3    H136365   2.586   6.344   6.897
12144TIP3    H236366   2.732   6.369   6.923
12145TIP3   OH236367   2.901   6.915   6.537
12145TIP3    H136368   2.804   6.922   6.548
12145TIP3    H236369   2.931   6.972   6.611
12146TIP3   OH236370   3.314   5.995   5.440
12146TIP3    H136371   3.251   5.950   5.379
12146TIP3    H236372   3.309   6.085   5.400
12147TIP3   OH236373   3.532   6.850   6.524
12147TIP3    H136374   3.434   6.847   6.516
12147TIP3    H236375   3.557   6.822   6.433
12148TIP3   OH236376   3.015   6.815   5.351
12148TIP3    H136377   2.988   6.746   5.412
12148TIP3    H236378   3.026   6.766   5.267
12149TIP3   OH236379   3.009   6.444   6.185
12149TIP3    H136380   2.916   6.419   6.199
12149TIP3    H236381   3.043   6.363   6.141
12150TIP3   OH236382   2.138   6.672   5.942
12150TIP3    H136383   2.138   6.753   5.887
12150TIP3    H236384   2.043   6.655   5.949
12151TIP3   OH236385   1.701   5.975   5.645
12151TIP3    H136386   1.747   6.059   5.666
12151TIP3    H236387   1.624   5.981   5.705
12152TIP3   OH236388   2.273   6.436   5.884
12152TIP3    H136389   2.240   6.526   5.903
12152TIP3    H236390   2.237   6.386   5.959
12153TIP3   OH236391   2.408   7.014   6.409
12153TIP3    H136392   2.449   7.086   6.358
12153TIP3    H236393   2.484   6.979   6.457
12154TIP3   OH236394   2.057   6.910   5.793
12154TIP3    H136395   1.970   6.918   5.838
12154TIP3    H236396   2.089   7.003   5.796
12155TIP3   OH236397   2.793   6.649   6.369
12155TIP3    H136398   2.783   6.647   6.467
12155TIP3    H236399   2.874   6.599   6.357
12156TIP3   OH236400   2.770   6.543   5.251
12156TIP3    H136401   2.823   6.518   5.330
12156TIP3    H236402   2.682   6.515   5.280
12157TIP3   OH236403   3.041   7.175   6.411
12157TIP3    H136404   2.958   7.125   6.402
12157TIP3    H236405   3.027   7.247   6.347
12158TIP3   OH236406   3.108   7.016   5.070
12158TIP3    H136407   3.146   7.090   5.018
12158TIP3    H236408   3.028   7.061   5.105
12159TIP3   OH236409   2.128   5.795   6.937
12159TIP3    H136410   2.031   5.795   6.947
12159TIP3    H236411   2.155   5.733   7.006
12160TIP3   OH236412   2.930   6.475   5.466
12160TIP3    H136413   2.920   6.409   5.538
12160TIP3    H236414   3.027   6.473   5.455
12161TIP3   OH236415   1.844   6.878   6.568
12161TIP3    H136416   1.898   6.805   6.602
12161TIP3    H236417   1.873   6.951   6.625
12162TIP3   OH236418   2.136   6.522   5.251
12162TIP3    H136419   2.148   6.429   5.223
12162TIP3    H236420   2.115   6.511   5.346
12163TIP3   OH236421   2.080   6.527   5.523
12163TIP3    H136422   2.152   6.500   5.581
12163TIP3    H236423   2.083   6.625   5.531
12164TIP3   OH236424   1.814   6.220   5.727
12164TIP3    H136425   1.748   6.265   5.784
12164TIP3    H236426   1.829   6.289   5.659
12165TIP3   OH236427   2.966   5.857   6.620
12165TIP3    H136428   3.047   5.895   6.658
12165TIP3    H236429   2.954   5.776   6.673
12166TIP3   OH236430   2.845   5.608   5.785
12166TIP3    H136431   2.832   5.631   5.691
12166TIP3    H236432   2.886   5.690   5.820
12167TIP3   OH236433   2.346   6.725   5.471
12167TIP3    H136434   2.259   6.751   5.507
12167TIP3    H236435   2.363   6.799   5.411
12168TIP3   OH236436   2.533   5.789   5.886
12168TIP3    H136437   2.598   5.860   5.869
12168TIP3    H236438   2.539   5.781   5.984
12169TIP3   OH236439   2.804   6.105   6.693
12169TIP3    H136440   2.828   6.158   6.772
12169TIP3    H236441   2.859   6.026   6.704
12170TIP3   OH236442   2.678   5.513   5.987
12170TIP3    H136443   2.672   5.589   6.047
12170TIP3    H236444   2.739   5.548   5.919
12171TIP3   OH236445   2.090   6.800   5.540
12171TIP3    H136446   2.061   6.870   5.477
12171TIP3    H236447   2.074   6.844   5.626
12172TIP3   OH236448   2.190   5.513   5.777
12172TIP3    H136449   2.188   5.604   5.814
12172TIP3    H236450   2.286   5.495   5.785
12173TIP3   OH236451   3.445   6.008   6.671
12173TIP3    H136452   3.347   6.008   6.681
12173TIP3    H236453   3.453   5.955   6.591
12174TIP3   OH236454   3.095   6.201   6.062
12174TIP3    H136455   3.018   6.141   6.074
12174TIP3    H236456   3.166   6.153   6.110
12175TIP3   OH236457   1.808   6.428   5.532
12175TIP3    H136458   1.875   6.498   5.540
12175TIP3    H236459   1.852   6.372   5.465
12176TIP3   OH236460   1.751   5.705   5.666
12176TIP3    H136461   1.751   5.802   5.662
12176TIP3    H236462   1.671   5.682   5.619
12177TIP3   OH236463   3.064   7.156   6.010
12177TIP3    H136464   3.021   7.204   5.935
12177TIP3    H236465   3.158   7.176   5.990
12178TIP3   OH236466   2.138   5.425   6.538
12178TIP3    H136467   2.108   5.392   6.451
12178TIP3    H236468   2.128   5.346   6.595
12179TIP3   OH236469   1.677   6.644   5.917
12179TIP3    H136470   1.610   6.676   5.979
12179TIP3    H236471   1.647   6.686   5.834
12180TIP3   OH236472   1.836   7.171   6.987
12180TIP3    H136473   1.924   7.172   7.030
12180TIP3    H236474   1.816   7.076   6.986
12181TIP3   OH236475   2.323   7.148   7.033
12181TIP3    H136476   2.416   7.120   7.040
12181TIP3    H236477   2.294   7.091   6.959
12182TIP3   OH236478   2.298   6.725   5.162
12182TIP3    H136479   2.242   6.655   5.201
12182TIP3    H236480   2.373   6.673   5.131
12183TIP3   OH236481   2.950   7.057   6.769
12183TIP3    H136482   2.951   6.989   6.840
12183TIP3    H236483   3.026   7.113   6.790
12184TIP3   OH236484   2.734   6.765   5.075
12184TIP3    H136485   2.775   6.700   5.135
12184TIP3    H236486   2.793   6.763   4.997
12185TIP3   OH236487   1.965   6.593   7.193
12185TIP3    H136488   1.982   6.497   7.195
12185TIP3    H236489   1.878   6.596   7.147
12186TIP3   OH236490   1.944   6.242   5.385
12186TIP3    H136491   2.000   6.209   5.458
12186TIP3    H236492   2.011   6.246   5.313
12187TIP3   OH236493   2.570   6.676   6.966
12187TIP3    H136494   2.534   6.695   6.877
12187TIP3    H236495   2.605   6.585   6.956
12188TIP3   OH236496   2.456   6.442   5.192
12188TIP3    H136497   2.457   6.455   5.288
12188TIP3    H236498   2.455   6.343   5.187
12189TIP3   OH236499   3.065   6.688   6.570
12189TIP3    H136500   3.142   6.731   6.527
12189TIP3    H236501   2.997   6.757   6.557
12190TIP3   OH236502   2.083   6.325   7.174
12190TIP3    H136503   2.163   6.279   7.144
12190TIP3    H236504   2.112   6.358   7.262
12191TIP3   OH236505   2.150   6.147   5.605
12191TIP3    H136506   2.125   6.105   5.689
12191TIP3    H236507   2.187   6.071   5.555
12192TIP3   OH236508   2.418   6.208   6.833
12192TIP3    H136509   2.343   6.271   6.836
12192TIP3    H236510   2.469   6.243   6.756
12193TIP3   OH236511   2.253   5.942   5.447
12193TIP3    H136512   2.226   5.945   5.352
12193TIP3    H236513   2.350   5.947   5.438
12194TIP3   OH236514   2.936   6.611   6.967
12194TIP3    H136515   3.018   6.590   6.921
12194TIP3    H236516   2.935   6.546   7.039
12195TIP3   OH236517   3.073   6.271   5.111
12195TIP3    H136518   3.052   6.225   5.028
12195TIP3    H236519   3.041   6.361   5.087
12196TIP3   OH236520   2.540   5.999   6.963
12196TIP3    H136521   2.544   5.920   6.906
12196TIP3    H236522   2.499   6.065   6.903
12197TIP3   OH236523   2.546   5.787   6.769
12197TIP3    H136524   2.575   5.827   6.684
12197TIP3    H236525   2.453   5.763   6.749
12198TIP3   OH236526   2.571   6.320   6.643
12198TIP3    H136527   2.656   6.329   6.598
12198TIP3    H236528   2.517   6.388   6.597
12199TIP3   OH236529   3.154   6.287   7.022
12199TIP3    H136530   3.200   6.202   7.033
12199TIP3    H236531   3.225   6.344   6.988
12200TIP3   OH236532   3.194   6.541   6.756
12200TIP3    H136533   3.137   6.596   6.698
12200TIP3    H236534   3.283   6.561   6.717
12201TIP3   OH236535   2.418   6.111   7.193
12201TIP3    H136536   2.352   6.040   7.205
12201TIP3    H236537   2.456   6.087   7.105
12202TIP3   OH236538   2.679   5.550   6.836
12202TIP3    H136539   2.631   5.632   6.813
12202TIP3    H236540   2.610   5.482   6.824
12203TIP3   OH236541   2.804   6.054   7.051
12203TIP3    H136542   2.798   6.040   7.147
12203TIP3    H236543   2.713   6.028   7.024
12204TIP3   OH236544   3.047   6.003   6.907
12204TIP3    H136545   2.972   6.001   6.969
12204TIP3    H236546   3.120   5.970   6.963
12205TIP3   OH236547   3.281   5.956   7.057
12205TIP3    H136548   3.285   5.860   7.081
12205TIP3    H236549   3.272   5.994   7.147
12206TIP3   OH236550   2.259   5.889   7.247
12206TIP3    H136551   2.267   5.800   7.210
12206TIP3    H236552   2.298   5.876   7.336
12207TIP3   OH236553   2.769   5.557   7.096
12207TIP3    H136554   2.842   5.492   7.090
12207TIP3    H236555   2.733   5.551   7.005
12208TIP3   OH236556   2.834   5.771   7.257
12208TIP3    H136557   2.816   5.701   7.190
12208TIP3    H236558   2.758   5.831   7.245
12209TIP3   OH236559   2.060   7.002   5.352
12209TIP3    H136560   2.155   6.998   5.330
12209TIP3    H236561   2.028   7.053   5.275
12210TIP3   OH236562   1.540   6.383   5.569
12210TIP3    H136563   1.634   6.405   5.554
12210TIP3    H236564   1.533   6.295   5.526
12211TIP3   OH236565   1.452   6.995   5.986
12211TIP3    H136566   1.386   6.933   5.946
12211TIP3    H236567   1.498   6.936   6.049
12212TIP3   OH236568   1.590   6.844   6.169
12212TIP3    H136569   1.579   6.773   6.234
12212TIP3    H236570   1.641   6.908   6.222
12213TIP3   OH236571   3.318   7.245   5.967
12213TIP3    H136572   3.339   7.273   6.059
12213TIP3    H236573   3.380   7.298   5.915
12214TIP3   OH236574   3.350   7.265   6.245
12214TIP3    H136575   3.306   7.177   6.247
12214TIP3    H236576   3.412   7.254   6.318
12215TIP3   OH236577   3.390   6.946   6.828
12215TIP3    H136578   3.313   6.956   6.888
12215TIP3    H236579   3.426   7.037   6.830
12216TIP3   OH236580   3.210   6.457   5.443
12216TIP3    H136581   3.278   6.522   5.415
12216TIP3    H236582   3.253   6.418   5.522
12217TIP3   OH236583   3.337   6.325   5.647
12217TIP3    H136584   3.271   6.282   5.706
12217TIP3    H236585   3.401   6.363   5.711
12218TIP3   OH236586   3.392   6.718   6.080
12218TIP3    H136587   3.445   6.653   6.030
12218TIP3    H236588   3.384   6.791   6.016
12219TIP3   OH236589   3.222   7.016   6.276
12219TIP3    H136590   3.153   7.062   6.329
12219TIP3    H236591   3.168   6.971   6.207
12220TIP3   OH236592   3.274   6.233   5.293
12220TIP3    H136593   3.202   6.236   5.227
12220TIP3    H236594   3.247   6.309   5.349
12221TIP3   OH236595   3.146   5.905   5.247
12221TIP3    H136596   3.101   5.942   5.170
12221TIP3    H236597   3.122   5.810   5.239
12222TIP3   OH236598   3.150   6.182   5.792
12222TIP3    H136599   3.157   6.085   5.787
12222TIP3    H236600   3.136   6.196   5.888
12223TIP3   OH236601   1.776   6.254   6.541
12223TIP3    H136602   1.774   6.223   6.449
12223TIP3    H236603   1.873   6.257   6.557
12224TIP3   OH236604   3.439   6.606   6.652
12224TIP3    H136605   3.512   6.541   6.641
12224TIP3    H236606   3.466   6.677   6.591
12225TIP3   OH236607   3.626   6.410   6.661
12225TIP3    H136608   3.550   6.363   6.702
12225TIP3    H236609   3.697   6.346   6.678
12226TIP3   OH236610   3.089   5.640   5.232
12226TIP3    H136611   3.162   5.607   5.289
12226TIP3    H236612   3.014   5.581   5.255
12227TIP3   OH236613   3.146   5.898   5.687
12227TIP3    H136614   3.187   5.810   5.702
12227TIP3    H236615   3.205   5.931   5.616
12228TIP3   OH236616   3.307   6.070   6.183
12228TIP3    H136617   3.394   6.096   6.142
12228TIP3    H236618   3.321   6.108   6.272
12229TIP3   OH236619   3.377   6.216   6.413
12229TIP3    H136620   3.300   6.249   6.464
12229TIP3    H236621   3.409   6.298   6.370
12230TIP3   OH236622   1.992   5.941   7.216
12230TIP3    H136623   2.090   5.935   7.216
12230TIP3    H236624   1.970   5.855   7.256
12231TIP3   OH236625   3.866   5.832   6.971
12231TIP3    H136626   3.889   5.745   6.931
12231TIP3    H236627   3.807   5.867   6.902
12232TIP3   OH236628   3.256   5.648   5.725
12232TIP3    H136629   3.303   5.631   5.810
12232TIP3    H236630   3.195   5.572   5.723
12233TIP3   OH236631   1.956   5.635   6.550
12233TIP3    H136632   2.017   5.559   6.556
12233TIP3    H236633   2.018   5.708   6.539
12234TIP3   OH236634   1.757   5.908   6.619
12234TIP3    H136635   1.806   5.899   6.535
12234TIP3    H236636   1.789   5.995   6.648
12235TIP3   OH236637   3.698   5.944   6.779
12235TIP3    H136638   3.611   5.983   6.797
12235TIP3    H236639   3.672   5.870   6.721
12236TIP3   OH236640   3.335   5.582   5.359
12236TIP3    H136641   3.374   5.510   5.305
12236TIP3    H236642   3.403   5.652   5.352
12237TIP3   OH236643   1.741   5.415   6.123
12237TIP3    H136644   1.647   5.408   6.146
12237TIP3    H236645   1.738   5.470   6.042
12238TIP3   OH236646   2.899   7.115   5.625
12238TIP3    H136647   2.953   7.102   5.544
12238TIP3    H236648   2.952   7.180   5.674
12239TIP3   OH236649   1.962   5.493   6.936
12239TIP3    H136650   1.909   5.486   7.017
12239TIP3    H236651   1.896   5.529   6.873
12240TIP3   OH236652   2.003   6.917   7.010
12240TIP3    H136653   1.911   6.891   6.992
12240TIP3    H236654   2.011   6.899   7.104
12241TIP3   OH236655   2.181   6.953   6.559
12241TIP3    H136656   2.133   7.029   6.520
12241TIP3    H236657   2.267   6.965   6.514
12242TIP3   OH236658   2.629   7.200   6.694
12242TIP3    H136659   2.670   7.197   6.784
12242TIP3    H236660   2.699   7.249   6.646
12243TIP3   OH236661   2.820   7.346   6.563
12243TIP3    H136662   2.884   7.290   6.517
12243TIP3    H236663   2.885   7.391   6.624
12244TIP3   OH236664   3.596   5.716   6.636
12244TIP3    H136665   3.504   5.701   6.610
12244TIP3    H236666   3.629   5.623   6.640
12245TIP3   OH236667   1.857   7.207   6.584
12245TIP3    H136668   1.768   7.240   6.559
12245TIP3    H236669   1.870   7.254   6.667
12246TIP3   OH236670   2.092   7.187   6.441
12246TIP3    H136671   2.006   7.199   6.486
12246TIP3    H236672   2.072   7.219   6.351
12247TIP3   OH236673   2.517   7.215   6.238
12247TIP3    H136674   2.448   7.236   6.172
12247TIP3    H236675   2.531   7.302   6.280
12248TIP3   OH236676   2.786   7.153   6.289
12248TIP3    H136677   2.692   7.172   6.269
12248TIP3    H236678   2.831   7.228   6.248
12249TIP3   OH236679   2.987   7.345   6.203
12249TIP3    H136680   2.980   7.433   6.159
12249TIP3    H236681   3.018   7.288   6.130
12250TIP3   OH236682   1.767   7.002   6.326
12250TIP3    H136683   1.794   6.975   6.417
12250TIP3    H236684   1.839   6.959   6.275
12251TIP3   OH236685   1.962   6.874   6.185
12251TIP3    H136686   1.977   6.789   6.233
12251TIP3    H236687   2.052   6.910   6.181
12252TIP3   OH236688   2.228   6.968   6.189
12252TIP3    H136689   2.259   6.876   6.176
12252TIP3    H236690   2.275   6.989   6.272
12253TIP3   OH236691   2.801   5.623   6.272
12253TIP3    H136692   2.760   5.552   6.325
12253TIP3    H236693   2.876   5.577   6.229
12254TIP3   OH236694   3.325   5.505   6.178
12254TIP3    H136695   3.361   5.557   6.103
12254TIP3    H236696   3.230   5.524   6.172
12255TIP3   OH236697   3.421   5.605   5.942
12255TIP3    H136698   3.495   5.553   5.903
12255TIP3    H236699   3.455   5.696   5.928
12256TIP3   OH236700   2.051   5.332   6.291
12256TIP3    H136701   1.959   5.299   6.291
12256TIP3    H236702   2.101   5.247   6.287
12257TIP3   OH236703   1.841   5.203   5.941
12257TIP3    H136704   1.870   5.259   5.866
12257TIP3    H236705   1.812   5.269   6.006
12258TIP3   OH236706   2.496   5.366   6.172
12258TIP3    H136707   2.554   5.413   6.109
12258TIP3    H236708   2.525   5.402   6.257
12259TIP3   OH236709   3.041   5.512   6.155
12259TIP3    H136710   3.041   5.473   6.067
12259TIP3    H236711   3.029   5.432   6.212
12260TIP3   OH236712   3.073   5.436   5.717
12260TIP3    H136713   2.986   5.477   5.730
12260TIP3    H236714   3.059   5.349   5.763
12261TIP3   OH236715   1.554   6.777   5.719
12261TIP3    H136716   1.470   6.744   5.683
12261TIP3    H236717   1.547   6.871   5.693
12262TIP3   OH236718   1.957   5.362   5.701
12262TIP3    H136719   2.004   5.298   5.644
12262TIP3    H236720   2.031   5.415   5.737
12263TIP3   OH236721   2.467   5.539   5.799
12263TIP3    H136722   2.527   5.491   5.859
12263TIP3    H236723   2.489   5.631   5.825
12264TIP3   OH236724   2.328   6.960   5.300
12264TIP3    H136725   2.416   6.983   5.263
12264TIP3    H236726   2.306   6.885   5.241
12265TIP3   OH236727   3.049   7.082   5.393
12265TIP3    H136728   3.040   6.984   5.381
12265TIP3    H236729   3.002   7.114   5.313
12266TIP3   OH236730   2.259   5.613   7.182
12266TIP3    H136731   2.227   5.541   7.240
12266TIP3    H236732   2.354   5.614   7.207
12267TIP3   OH236733   2.508   5.612   7.300
12267TIP3    H136734   2.594   5.593   7.257
12267TIP3    H236735   2.502   5.537   7.363
12268TIP3   OH236736   1.630   6.795   5.354
12268TIP3    H136737   1.633   6.828   5.445
12268TIP3    H236738   1.719   6.755   5.343
12269TIP3   OH236739   3.279   7.241   6.565
12269TIP3    H136740   3.194   7.213   6.525
12269TIP3    H236741   3.247   7.302   6.633
12270TIP3   OH236742   4.540   6.600   5.346
12270TIP3    H136743   4.507   6.689   5.322
12270TIP3    H236744   4.466   6.546   5.312
12271TIP3   OH236745   4.543   6.598   5.729
12271TIP3    H136746   4.571   6.565   5.816
12271TIP3    H236747   4.498   6.521   5.691
12272TIP3   OH236748   3.838   6.490   6.090
12272TIP3    H136749   3.867   6.423   6.154
12272TIP3    H236750   3.913   6.551   6.091
12273TIP3   OH236751   4.786   6.893   5.411
12273TIP3    H136752   4.761   6.819   5.468
12273TIP3    H236753   4.807   6.962   5.475
12274TIP3   OH236754   3.810   6.903   5.815
12274TIP3    H136755   3.800   6.805   5.817
12274TIP3    H236756   3.907   6.911   5.813
12275TIP3   OH236757   3.516   6.107   5.601
12275TIP3    H136758   3.466   6.189   5.617
12275TIP3    H236759   3.447   6.051   5.561
12276TIP3   OH236760   3.575   6.393   5.776
12276TIP3    H136761   3.624   6.315   5.812
12276TIP3    H236762   3.633   6.421   5.704
12277TIP3   OH236763   4.435   7.361   5.430
12277TIP3    H136764   4.479   7.290   5.378
12277TIP3    H236765   4.417   7.317   5.513
12278TIP3   OH236766   4.336   6.824   5.775
12278TIP3    H136767   4.372   6.747   5.727
12278TIP3    H236768   4.420   6.868   5.799
12279TIP3   OH236769   5.353   6.141   5.774
12279TIP3    H136770   5.381   6.226   5.813
12279TIP3    H236771   5.379   6.154   5.680
12280TIP3   OH236772   4.752   6.324   5.807
12280TIP3    H136773   4.792   6.237   5.826
12280TIP3    H236774   4.718   6.309   5.717
12281TIP3   OH236775   4.090   5.984   5.772
12281TIP3    H136776   4.067   6.056   5.709
12281TIP3    H236777   4.041   5.910   5.730
12282TIP3   OH236778   4.782   6.076   5.394
12282TIP3    H136779   4.855   6.060   5.459
12282TIP3    H236780   4.833   6.110   5.318
12283TIP3   OH236781   3.721   6.186   5.881
12283TIP3    H136782   3.804   6.165   5.928
12283TIP3    H236783   3.733   6.130   5.801
12284TIP3   OH236784   4.161   6.384   5.673
12284TIP3    H136785   4.255   6.358   5.687
12284TIP3    H236786   4.121   6.300   5.641
12285TIP3   OH236787   5.421   6.355   5.940
12285TIP3    H136788   5.333   6.396   5.926
12285TIP3    H236789   5.437   6.377   6.033
12286TIP3   OH236790   4.085   5.967   6.208
12286TIP3    H136791   4.024   6.003   6.141
12286TIP3    H236792   4.032   5.983   6.289
12287TIP3   OH236793   4.427   6.817   5.218
12287TIP3    H136794   4.389   6.798   5.131
12287TIP3    H236795   4.384   6.902   5.239
12288TIP3   OH236796   4.191   6.743   6.002
12288TIP3    H136797   4.127   6.808   6.039
12288TIP3    H236798   4.231   6.794   5.928
12289TIP3   OH236799   4.990   6.078   5.568
12289TIP3    H136800   4.980   6.027   5.649
12289TIP3    H236801   5.044   6.154   5.597
12290TIP3   OH236802   3.956   6.082   5.991
12290TIP3    H136803   4.018   6.155   6.014
12290TIP3    H236804   4.005   6.041   5.916
12291TIP3   OH236805   4.020   6.937   6.099
12291TIP3    H136806   3.994   7.024   6.063
12291TIP3    H236807   3.941   6.919   6.155
12292TIP3   OH236808   3.413   6.628   5.336
12292TIP3    H136809   3.370   6.654   5.253
12292TIP3    H236810   3.443   6.714   5.371
12293TIP3   OH236811   4.858   7.143   5.582
12293TIP3    H136812   4.770   7.132   5.627
12293TIP3    H236813   4.831   7.184   5.499
12294TIP3   OH236814   5.144   6.045   5.942
12294TIP3    H136815   5.056   6.068   5.909
12294TIP3    H236816   5.202   6.074   5.868
12295TIP3   OH236817   4.440   5.685   5.924
12295TIP3    H136818   4.425   5.590   5.941
12295TIP3    H236819   4.362   5.723   5.970
12296TIP3   OH236820   4.562   7.192   5.256
12296TIP3    H136821   4.606   7.108   5.229
12296TIP3    H236822   4.622   7.257   5.213
12297TIP3   OH236823   4.693   6.974   5.162
12297TIP3    H136824   4.666   6.896   5.111
12297TIP3    H236825   4.731   6.933   5.243
12298TIP3   OH236826   5.083   7.051   5.922
12298TIP3    H136827   5.066   6.976   5.860
12298TIP3    H236828   5.064   7.128   5.864
12299TIP3   OH236829   4.371   6.450   5.179
12299TIP3    H136830   4.290   6.500   5.157
12299TIP3    H236831   4.415   6.446   5.092
12300TIP3   OH236832   4.328   6.235   4.892
12300TIP3    H136833   4.397   6.285   4.940
12300TIP3    H236834   4.384   6.171   4.845
12301TIP3   OH236835   5.276   6.702   5.770
12301TIP3    H136836   5.190   6.750   5.770
12301TIP3    H236837   5.299   6.709   5.675
12302TIP3   OH236838   4.717   6.532   5.148
12302TIP3    H136839   4.662   6.557   5.226
12302TIP3    H236840   4.800   6.505   5.192
12303TIP3   OH236841   4.953   6.574   6.058
12303TIP3    H136842   4.940   6.655   6.112
12303TIP3    H236843   4.865   6.570   6.014
12304TIP3   OH236844   3.949   6.529   5.565
12304TIP3    H136845   3.907   6.471   5.498
12304TIP3    H236846   4.026   6.475   5.594
12305TIP3   OH236847   4.081   6.945   5.711
12305TIP3    H136848   4.057   6.902   5.627
12305TIP3    H236849   4.169   6.907   5.729
12306TIP3   OH236850   4.091   6.498   5.921
12306TIP3    H136851   4.119   6.478   5.829
12306TIP3    H236852   4.129   6.586   5.938
12307TIP3   OH236853   4.618   7.136   5.698
12307TIP3    H136854   4.596   7.216   5.749
12307TIP3    H236855   4.597   7.063   5.760
12308TIP3   OH236856   4.224   7.055   6.244
12308TIP3    H136857   4.164   7.118   6.290
12308TIP3    H236858   4.157   7.003   6.194
12309TIP3   OH236859   4.557   6.389   4.975
12309TIP3    H136860   4.617   6.449   5.026
12309TIP3    H236861   4.583   6.412   4.882
12310TIP3   OH236862   3.978   6.612   6.345
12310TIP3    H136863   3.982   6.699   6.389
12310TIP3    H236864   3.883   6.592   6.358
12311TIP3   OH236865   4.305   7.068   5.249
12311TIP3    H136866   4.380   7.127   5.266
12311TIP3    H236867   4.240   7.127   5.207
12312TIP3   OH236868   4.019   7.223   6.332
12312TIP3    H136869   3.982   7.223   6.242
12312TIP3    H236870   3.940   7.200   6.387
12313TIP3   OH236871   5.074   5.635   5.027
12313TIP3    H136872   4.990   5.655   5.075
12313TIP3    H236873   5.084   5.716   4.972
12314TIP3   OH236874   3.816   6.372   5.370
12314TIP3    H136875   3.748   6.417   5.315
12314TIP3    H236876   3.776   6.285   5.383
12315TIP3   OH236877   4.872   6.994   4.575
12315TIP3    H136878   4.878   7.092   4.560
12315TIP3    H236879   4.966   6.969   4.563
12316TIP3   OH236880   3.597   6.755   6.278
12316TIP3    H136881   3.529   6.735   6.211
12316TIP3    H236882   3.633   6.667   6.301
12317TIP3   OH236883   3.451   6.949   5.908
12317TIP3    H136884   3.547   6.947   5.904
12317TIP3    H236885   3.436   7.028   5.964
12318TIP3   OH236886   5.324   7.401   5.975
12318TIP3    H136887   5.318   7.305   5.990
12318TIP3    H236888   5.238   7.430   6.012
12319TIP3   OH236889   4.421   7.184   6.101
12319TIP3    H136890   4.420   7.277   6.133
12319TIP3    H236891   4.349   7.145   6.155
12320TIP3   OH236892   4.182   7.313   5.053
12320TIP3    H136893   4.137   7.293   4.969
12320TIP3    H236894   4.149   7.403   5.074
12321TIP3   OH236895   3.620   7.164   5.436
12321TIP3    H136896   3.666   7.154   5.523
12321TIP3    H236897   3.565   7.084   5.436
12322TIP3   OH236898   4.383   7.215   4.693
12322TIP3    H136899   4.441   7.146   4.654
12322TIP3    H236900   4.421   7.225   4.782
12323TIP3   OH236901   4.435   7.265   4.964
12323TIP3    H136902   4.346   7.275   5.005
12323TIP3    H236903   4.481   7.214   5.032
12324TIP3   OH236904   5.213   6.549   6.244
12324TIP3    H136905   5.132   6.549   6.191
12324TIP3    H236906   5.241   6.456   6.233
12325TIP3   OH236907   3.803   6.937   6.263
12325TIP3    H136908   3.850   6.924   6.348
12325TIP3    H236909   3.727   6.875   6.272
12326TIP3   OH236910   4.201   5.763   6.051
12326TIP3    H136911   4.112   5.731   6.024
12326TIP3    H236912   4.174   5.844   6.099
12327TIP3   OH236913   4.733   5.879   6.246
12327TIP3    H136914   4.800   5.849   6.311
12327TIP3    H236915   4.649   5.857   6.290
12328TIP3   OH236916   4.979   6.311   6.168
12328TIP3    H136917   4.926   6.304   6.251
12328TIP3    H236918   4.947   6.394   6.129
12329TIP3   OH236919   4.634   6.436   4.719
12329TIP3    H136920   4.600   6.411   4.632
12329TIP3    H236921   4.717   6.481   4.694
12330TIP3   OH236922   4.346   5.810   5.021
12330TIP3    H136923   4.312   5.808   5.113
12330TIP3    H236924   4.307   5.727   4.987
12331TIP3   OH236925   4.135   6.277   6.071
12331TIP3    H136926   4.082   6.296   6.151
12331TIP3    H236927   4.118   6.358   6.017
12332TIP3   OH236928   4.016   6.165   5.583
12332TIP3    H136929   3.924   6.138   5.601
12332TIP3    H236930   4.029   6.124   5.494
12333TIP3   OH236931   4.508   6.251   5.313
12333TIP3    H136932   4.455   6.321   5.269
12333TIP3    H236933   4.562   6.218   5.238
12334TIP3   OH236934   4.682   6.527   6.398
12334TIP3    H136935   4.656   6.455   6.459
12334TIP3    H236936   4.776   6.537   6.421
12335TIP3   OH236937   4.666   6.279   5.548
12335TIP3    H136938   4.603   6.305   5.478
12335TIP3    H236939   4.700   6.197   5.506
12336TIP3   OH236940   3.954   6.305   6.278
12336TIP3    H136941   3.970   6.370   6.348
12336TIP3    H236942   3.939   6.223   6.328
12337TIP3   OH236943   4.003   5.785   4.988
12337TIP3    H136944   3.992   5.782   5.085
12337TIP3    H236945   3.923   5.836   4.963
12338TIP3   OH236946   3.544   5.830   5.858
12338TIP3    H136947   3.620   5.860   5.912
12338TIP3    H236948   3.585   5.795   5.777
12339TIP3   OH236949   3.515   5.809   5.377
12339TIP3    H136950   3.560   5.848   5.299
12339TIP3    H236951   3.454   5.882   5.399
12340TIP3   OH236952   4.684   6.524   5.974
12340TIP3    H136953   4.711   6.451   5.913
12340TIP3    H236954   4.648   6.471   6.048
12341TIP3   OH236955   4.347   5.987   5.645
12341TIP3    H136956   4.263   5.984   5.696
12341TIP3    H236957   4.413   5.982   5.716
12342TIP3   OH236958   3.779   6.043   5.652
12342TIP3    H136959   3.684   6.050   5.625
12342TIP3    H236960   3.800   5.950   5.629
12343TIP3   OH236961   4.046   6.038   5.341
12343TIP3    H136962   4.140   6.053   5.318
12343TIP3    H236963   3.998   6.060   5.258
12344TIP3   OH236964   4.837   6.061   5.849
12344TIP3    H136965   4.801   6.073   5.939
12344TIP3    H236966   4.771   6.000   5.811
12345TIP3   OH236967   3.890   6.073   5.119
12345TIP3    H136968   3.819   6.027   5.072
12345TIP3    H236969   3.942   6.108   5.044
12346TIP3   OH236970   5.009   7.750   6.065
12346TIP3    H136971   5.006   7.784   5.974
12346TIP3    H236972   5.084   7.801   6.101
12347TIP3   OH236973   3.964   6.859   6.486
12347TIP3    H136974   4.042   6.892   6.535
12347TIP3    H236975   3.897   6.859   6.557
12348TIP3   OH236976   4.428   6.317   5.744
12348TIP3    H136977   4.496   6.271   5.694
12348TIP3    H236978   4.432   6.272   5.831
12349TIP3   OH236979   3.949   5.800   5.623
12349TIP3    H136980   3.913   5.722   5.671
12349TIP3    H236981   3.994   5.759   5.549
12350TIP3   OH236982   4.403   6.214   6.028
12350TIP3    H136983   4.312   6.245   6.044
12350TIP3    H236984   4.458   6.274   6.081
12351TIP3   OH236985   4.140   6.601   5.127
12351TIP3    H136986   4.068   6.536   5.115
12351TIP3    H236987   4.122   6.635   5.218
12352TIP3   OH236988   5.038   6.835   5.756
12352TIP3    H136989   5.060   6.884   5.673
12352TIP3    H236990   4.953   6.792   5.733
12353TIP3   OH236991   4.598   5.912   4.994
12353TIP3    H136992   4.501   5.894   4.999
12353TIP3    H236993   4.605   6.007   5.014
12354TIP3   OH236994   4.551   6.927   6.123
12354TIP3    H136995   4.554   6.897   6.215
12354TIP3    H236996   4.501   7.010   6.129
12355TIP3   OH236997   4.666   6.162   5.095
12355TIP3    H136998   4.763   6.168   5.106
12355TIP3    H236999   4.647   6.240   5.039
12356TIP3   OH237000   3.836   6.627   5.803
12356TIP3    H137001   3.872   6.595   5.718
12356TIP3    H237002   3.869   6.561   5.865
12357TIP3   OH237003   4.286   6.751   4.950
12357TIP3    H137004   4.238   6.837   4.955
12357TIP3    H237005   4.231   6.696   5.009
12358TIP3   OH237006   3.716   6.540   6.413
12358TIP3    H137007   3.730   6.528   6.509
12358TIP3    H237008   3.643   6.477   6.397
12359TIP3   OH237009   4.438   6.659   6.435
12359TIP3    H137010   4.374   6.600   6.392
12359TIP3    H237011   4.523   6.622   6.405
12360TIP3   OH237012   4.700   7.185   6.015
12360TIP3    H137013   4.604   7.178   6.031
12360TIP3    H237014   4.728   7.233   6.096
12361TIP3   OH237015   5.110   6.253   4.928
12361TIP3    H137016   5.048   6.207   4.867
12361TIP3    H237017   5.106   6.341   4.886
12362TIP3   OH237018   5.331   7.111   6.011
12362TIP3    H137019   5.234   7.104   5.997
12362TIP3    H237020   5.363   7.080   5.924
12363TIP3   OH237021   4.806   7.062   4.837
12363TIP3    H137022   4.786   6.983   4.888
12363TIP3    H237023   4.827   7.026   4.748
12364TIP3   OH237024   4.807   6.699   5.675
12364TIP3    H137025   4.713   6.673   5.688
12364TIP3    H237026   4.840   6.619   5.629
12365TIP3   OH237027   3.933   6.928   5.427
12365TIP3    H137028   3.931   7.009   5.373
12365TIP3    H237029   3.839   6.911   5.439
12366TIP3   OH237030   3.497   6.232   5.132
12366TIP3    H137031   3.543   6.316   5.153
12366TIP3    H237032   3.420   6.237   5.192
12367TIP3   OH237033   4.071   6.693   5.372
12367TIP3    H137034   4.035   6.783   5.390
12367TIP3    H237035   4.033   6.643   5.446
12368TIP3   OH237036   4.203   7.271   5.896
12368TIP3    H137037   4.243   7.345   5.846
12368TIP3    H237038   4.279   7.238   5.946
12369TIP3   OH237039   3.852   7.167   5.280
12369TIP3    H137040   3.766   7.173   5.326
12369TIP3    H237041   3.882   7.261   5.283
12370TIP3   OH237042   4.591   6.906   5.854
12370TIP3    H137043   4.582   6.907   5.952
12370TIP3    H237044   4.665   6.845   5.843
12371TIP3   OH237045   4.566   6.798   4.739
12371TIP3    H137046   4.618   6.774   4.819
12371TIP3    H237047   4.477   6.770   4.767
12372TIP3   OH237048   4.841   7.435   5.906
12372TIP3    H137049   4.762   7.378   5.903
12372TIP3    H237050   4.821   7.501   5.837
12373TIP3   OH237051   4.899   7.263   4.555
12373TIP3    H137052   4.979   7.315   4.573
12373TIP3    H237053   4.828   7.329   4.574
12374TIP3   OH237054   3.923   6.050   6.422
12374TIP3    H137055   3.826   6.054   6.435
12374TIP3    H237056   3.949   5.990   6.494
12375TIP3   OH237057   4.727   6.738   4.959
12375TIP3    H137058   4.716   6.667   5.026
12375TIP3    H237059   4.823   6.732   4.942
12376TIP3   OH237060   3.644   7.133   6.052
12376TIP3    H137061   3.696   7.062   6.091
12376TIP3    H237062   3.656   7.203   6.118
12377TIP3   OH237063   3.931   6.778   4.737
12377TIP3    H137064   3.944   6.686   4.709
12377TIP3    H237065   3.911   6.767   4.832
12378TIP3   OH237066   3.876   6.784   5.010
12378TIP3    H137067   3.947   6.756   5.068
12378TIP3    H237068   3.880   6.882   5.017
12379TIP3   OH237069   3.611   6.477   5.214
12379TIP3    H137070   3.545   6.521   5.271
12379TIP3    H237071   3.625   6.546   5.146
12380TIP3   OH237072   4.762   6.116   6.108
12380TIP3    H137073   4.844   6.148   6.148
12380TIP3    H237074   4.745   6.033   6.159
12381TIP3   OH237075   4.640   5.864   5.272
12381TIP3    H137076   4.626   5.885   5.178
12381TIP3    H237077   4.681   5.947   5.306
12382TIP3   OH237078   4.143   6.982   4.960
12382TIP3    H137079   4.056   7.008   4.994
12382TIP3    H237080   4.159   7.052   4.895
12383TIP3   OH237081   4.331   6.045   5.373
12383TIP3    H137082   4.395   6.117   5.355
12383TIP3    H237083   4.335   6.038   5.471
12384TIP3   OH237084   4.601   6.363   6.177
12384TIP3    H137085   4.621   6.414   6.258
12384TIP3    H237086   4.652   6.282   6.190
12385TIP3   OH237087   4.474   5.770   5.476
12385TIP3    H137088   4.463   5.850   5.531
12385TIP3    H237089   4.535   5.805   5.407
12386TIP3   OH237090   3.887   7.057   5.027
12386TIP3    H137091   3.857   7.127   4.964
12386TIP3    H237092   3.870   7.100   5.113
12387TIP3   OH237093   3.986   5.770   5.264
12387TIP3    H137094   3.983   5.860   5.301
12387TIP3    H237095   4.083   5.752   5.272
12388TIP3   OH237096   5.245   6.270   6.162
12388TIP3    H137097   5.147   6.272   6.174
12388TIP3    H237098   5.249   6.219   6.079
12389TIP3   OH237099   4.891   6.458   5.550
12389TIP3    H137100   4.813   6.399   5.558
12389TIP3    H237101   4.960   6.407   5.597
12390TIP3   OH237102   3.604   6.685   5.019
12390TIP3    H137103   3.672   6.754   5.027
12390TIP3    H237104   3.648   6.628   4.951
12391TIP3   OH237105   3.548   5.961   5.152
12391TIP3    H137106   3.547   6.059   5.148
12391TIP3    H237107   3.466   5.938   5.109
12392TIP3   OH237108   3.938   5.682   6.024
12392TIP3    H137109   3.905   5.648   5.938
12392TIP3    H237110   3.926   5.604   6.082
12393TIP3   OH237111   3.474   6.902   5.404
12393TIP3    H137112   3.409   6.931   5.469
12393TIP3    H237113   3.440   6.944   5.322
12394TIP3   OH237114   3.632   7.439   6.468
12394TIP3    H137115   3.716   7.441   6.519
12394TIP3    H237116   3.607   7.345   6.475
12395TIP3   OH237117   4.115   7.405   6.522
12395TIP3    H137118   4.209   7.385   6.527
12395TIP3    H237119   4.086   7.346   6.450
12396TIP3   OH237120   4.094   6.982   4.650
12396TIP3    H137121   4.039   6.910   4.688
12396TIP3    H237122   4.170   6.932   4.615
12397TIP3   OH237123   4.757   7.310   6.251
12397TIP3    H137124   4.746   7.243   6.322
12397TIP3    H237125   4.830   7.365   6.285
12398TIP3   OH237126   4.529   7.022   4.561
12398TIP3    H137127   4.577   6.962   4.620
12398TIP3    H237128   4.587   7.025   4.482
12399TIP3   OH237129   3.763   6.850   6.677
12399TIP3    H137130   3.778   6.753   6.682
12399TIP3    H237131   3.674   6.853   6.635
12400TIP3   OH237132   3.740   6.499   4.872
12400TIP3    H137133   3.795   6.465   4.944
12400TIP3    H237134   3.807   6.503   4.800
12401TIP3   OH237135   4.373   6.935   6.449
12401TIP3    H137136   4.325   6.952   6.366
12401TIP3    H237137   4.399   6.841   6.441
12402TIP3   OH237138   4.251   6.698   4.680
12402TIP3    H137139   4.253   6.710   4.776
12402TIP3    H237140   4.251   6.600   4.674
12403TIP3   OH237141   4.869   6.941   6.063
12403TIP3    H137142   4.933   6.995   6.013
12403TIP3    H237143   4.788   6.994   6.052
12404TIP3   OH237144   3.882   6.585   6.661
12404TIP3    H137145   3.953   6.524   6.641
12404TIP3    H237146   3.907   6.618   6.750
12405TIP3   OH237147   3.947   6.404   5.093
12405TIP3    H137148   3.919   6.362   5.176
12405TIP3    H237149   3.983   6.328   5.042
12406TIP3   OH237150   4.220   6.472   6.326
12406TIP3    H137151   4.138   6.526   6.326
12406TIP3    H237152   4.266   6.505   6.245
12407TIP3   OH237153   4.049   6.198   4.933
12407TIP3    H137154   4.022   6.201   4.839
12407TIP3    H237155   4.146   6.203   4.925
12408TIP3   OH237156   4.738   6.871   6.457
12408TIP3    H137157   4.805   6.832   6.401
12408TIP3    H237158   4.727   6.804   6.527
12409TIP3   OH237159   4.869   6.527   4.599
12409TIP3    H137160   4.849   6.481   4.515
12409TIP3    H237161   4.838   6.617   4.575
12410TIP3   OH237162   4.344   6.257   6.445
12410TIP3    H137163   4.339   6.177   6.389
12410TIP3    H237164   4.297   6.324   6.389
12411TIP3   OH237165   4.343   6.043   6.253
12411TIP3    H137166   4.369   6.082   6.168
12411TIP3    H237167   4.249   6.019   6.237
12412TIP3   OH237168   4.370   6.581   6.129
12412TIP3    H137169   4.450   6.586   6.076
12412TIP3    H237170   4.310   6.645   6.084
12413TIP3   OH237171   4.952   6.544   6.507
12413TIP3    H137172   4.995   6.458   6.519
12413TIP3    H237173   5.024   6.598   6.470
12414TIP3   OH237174   5.000   6.801   6.251
12414TIP3    H137175   4.943   6.853   6.189
12414TIP3    H237176   5.088   6.819   6.214
12415TIP3   OH237177   4.222   6.364   6.679
12415TIP3    H137178   4.152   6.297   6.694
12415TIP3    H237179   4.253   6.340   6.590
12416TIP3   OH237180   4.474   5.806   6.323
12416TIP3    H137181   4.425   5.888   6.300
12416TIP3    H237182   4.405   5.738   6.311
12417TIP3   OH237183   4.600   6.310   6.538
12417TIP3    H137184   4.583   6.296   6.633
12417TIP3    H237185   4.511   6.286   6.503
12418TIP3   OH237186   4.841   6.261   6.395
12418TIP3    H137187   4.763   6.261   6.454
12418TIP3    H237188   4.911   6.227   6.453
12419TIP3   OH237189   5.079   6.203   6.544
12419TIP3    H137190   5.086   6.107   6.561
12419TIP3    H237191   5.069   6.241   6.634
12420TIP3   OH237192   4.059   6.146   6.731
12420TIP3    H137193   4.060   6.055   6.697
12420TIP3    H237194   4.093   6.133   6.822
12421TIP3   OH237195   4.571   5.817   6.579
12421TIP3    H137196   4.635   5.743   6.572
12421TIP3    H237197   4.528   5.812   6.492
12422TIP3   OH237198   4.636   6.031   6.738
12422TIP3    H137199   4.613   5.959   6.675
12422TIP3    H237200   4.557   6.089   6.733
12423TIP3   OH237201   3.857   7.260   4.840
12423TIP3    H137202   3.952   7.254   4.819
12423TIP3    H237203   3.826   7.309   4.761
12424TIP3   OH237204   3.335   6.641   5.054
12424TIP3    H137205   3.430   6.662   5.041
12424TIP3    H237206   3.330   6.552   5.012
12425TIP3   OH237207   3.252   7.253   5.470
12425TIP3    H137208   3.184   7.192   5.433
12425TIP3    H237209   3.295   7.195   5.535
12426TIP3   OH237210   3.387   7.102   5.656
12426TIP3    H137211   3.373   7.031   5.721
12426TIP3    H237212   3.435   7.166   5.712
12427TIP3   OH237213   5.077   7.580   5.410
12427TIP3    H137214   5.089   7.571   5.506
12427TIP3    H237215   5.165   7.553   5.379
12428TIP3   OH237216   5.131   7.517   5.711
12428TIP3    H137217   5.099   7.426   5.729
12428TIP3    H237218   5.208   7.520   5.770
12429TIP3   OH237219   5.198   7.182   6.322
12429TIP3    H137220   5.121   7.200   6.380
12429TIP3    H237221   5.237   7.272   6.317
12430TIP3   OH237222   5.005   6.715   4.930
12430TIP3    H137223   5.071   6.780   4.899
12430TIP3    H237224   5.051   6.676   5.008
12431TIP3   OH237225   5.133   6.583   5.136
12431TIP3    H137226   5.065   6.538   5.190
12431TIP3    H237227   5.193   6.621   5.202
12432TIP3   OH237228   5.194   6.972   5.569
12432TIP3    H137229   5.245   6.910   5.514
12432TIP3    H237230   5.180   7.047   5.507
12433TIP3   OH237231   5.018   7.269   5.767
12433TIP3    H137232   4.949   7.314   5.820
12433TIP3    H237233   4.964   7.223   5.698
12434TIP3   OH237234   5.070   6.490   4.781
12434TIP3    H137235   4.999   6.491   4.713
12434TIP3    H237236   5.043   6.567   4.834
12435TIP3   OH237237   4.940   6.163   4.737
12435TIP3    H137238   4.900   6.199   4.657
12435TIP3    H237239   4.917   6.068   4.728
12436TIP3   OH237240   4.947   6.438   5.279
12436TIP3    H137241   4.953   6.341   5.270
12436TIP3    H237242   4.932   6.450   5.375
12437TIP3   OH237243   3.572   6.511   6.027
12437TIP3    H137244   3.569   6.479   5.934
12437TIP3    H237245   3.670   6.512   6.043
12438TIP3   OH237246   5.311   6.862   6.168
12438TIP3    H137247   5.294   6.788   6.109
12438TIP3    H237248   5.284   6.941   6.114
12439TIP3   OH237249   4.884   5.898   4.723
12439TIP3    H137250   4.960   5.863   4.774
12439TIP3    H237251   4.812   5.836   4.742
12440TIP3   OH237252   4.944   6.157   5.174
12440TIP3    H137253   4.984   6.068   5.190
12440TIP3    H237254   5.001   6.188   5.101
12441TIP3   OH237255   5.103   6.327   5.671
12441TIP3    H137256   5.188   6.355   5.629
12441TIP3    H237257   5.118   6.362   5.761
12442TIP3   OH237258   5.173   6.476   5.904
12442TIP3    H137259   5.092   6.506   5.950
12442TIP3    H237260   5.200   6.556   5.855
12443TIP3   OH237261   3.791   6.198   6.706
12443TIP3    H137262   3.889   6.190   6.707
12443TIP3    H237263   3.766   6.112   6.745
12444TIP3   OH237264   5.627   6.065   6.457
12444TIP3    H137265   5.684   5.999   6.412
12444TIP3    H237266   5.597   6.120   6.382
12445TIP3   OH237267   5.050   5.906   5.215
12445TIP3    H137268   5.098   5.887   5.298
12445TIP3    H237269   4.990   5.829   5.210
12446TIP3   OH237270   3.753   5.890   6.030
12446TIP3    H137271   3.815   5.815   6.041
12446TIP3    H237272   3.815   5.965   6.025
12447TIP3   OH237273   3.554   6.164   6.105
12447TIP3    H137274   3.603   6.159   6.021
12447TIP3    H237275   3.581   6.249   6.139
12448TIP3   OH237276   5.494   6.205   6.264
12448TIP3    H137277   5.405   6.245   6.270
12448TIP3    H237278   5.474   6.131   6.204
12449TIP3   OH237279   5.133   5.836   4.843
12449TIP3    H137280   5.172   5.763   4.791
12449TIP3    H237281   5.200   5.906   4.834
12450TIP3   OH237282   3.538   5.669   5.607
12450TIP3    H137283   3.445   5.664   5.634
12450TIP3    H237284   3.534   5.726   5.528
12451TIP3   OH237285   4.710   7.377   5.120
12451TIP3    H137286   4.746   7.340   5.035
12451TIP3    H237287   4.753   7.463   5.119
12452TIP3   OH237288   3.761   5.750   6.414
12452TIP3    H137289   3.710   5.741   6.497
12452TIP3    H237290   3.693   5.788   6.355
12453TIP3   OH237291   3.802   7.168   6.498
12453TIP3    H137292   3.708   7.149   6.479
12453TIP3    H237293   3.804   7.158   6.594
12454TIP3   OH237294   3.978   7.207   6.046
12454TIP3    H137295   3.925   7.281   6.009
12454TIP3    H237296   4.062   7.224   5.999
12455TIP3   OH237297   4.421   7.450   6.180
12455TIP3    H137298   4.460   7.452   6.270
12455TIP3    H237299   4.487   7.503   6.130
12456TIP3   OH237300   4.602   7.603   6.041
12456TIP3    H137301   4.677   7.550   6.010
12456TIP3    H237302   4.648   7.665   6.102
12457TIP3   OH237303   5.393   5.965   6.143
12457TIP3    H137304   5.303   5.957   6.107
12457TIP3    H237305   5.425   5.873   6.130
12458TIP3   OH237306   3.655   7.467   6.068
12458TIP3    H137307   3.565   7.499   6.045
12458TIP3    H237308   3.662   7.500   6.158
12459TIP3   OH237309   3.890   7.445   5.927
12459TIP3    H137310   3.804   7.456   5.974
12459TIP3    H237311   3.867   7.476   5.837
12460TIP3   OH237312   4.314   7.470   5.725
12460TIP3    H137313   4.243   7.489   5.661
12460TIP3    H237314   4.325   7.557   5.769
12461TIP3   OH237315   4.582   7.413   5.768
12461TIP3    H137316   4.486   7.424   5.752
12461TIP3    H237317   4.615   7.502   5.748
12462TIP3   OH237318   4.791   7.606   5.694
12462TIP3    H137319   4.775   7.693   5.651
12462TIP3    H237320   4.800   7.550   5.616
12463TIP3   OH237321   3.566   7.261   5.812
12463TIP3    H137322   3.590   7.232   5.903
12463TIP3    H237323   3.637   7.215   5.762
12464TIP3   OH237324   3.759   7.130   5.670
12464TIP3    H137325   3.772   7.046   5.720
12464TIP3    H237326   3.850   7.165   5.668
12465TIP3   OH237327   4.027   7.225   5.673
12465TIP3    H137328   4.054   7.132   5.663
12465TIP3    H237329   4.070   7.245   5.759
12466TIP3   OH237330   4.602   5.881   5.766
12466TIP3    H137331   4.557   5.811   5.815
12466TIP3    H237332   4.670   5.832   5.717
12467TIP3   OH237333   5.123   5.767   5.670
12467TIP3    H137334   5.158   5.816   5.592
12467TIP3    H237335   5.026   5.779   5.659
12468TIP3   OH237336   5.217   5.861   5.432
12468TIP3    H137337   5.290   5.809   5.390
12468TIP3    H237338   5.250   5.952   5.416
12469TIP3   OH237339   3.848   5.589   5.776
12469TIP3    H137340   3.756   5.555   5.778
12469TIP3    H237341   3.897   5.504   5.773
12470TIP3   OH237342   3.637   5.460   5.427
12470TIP3    H137343   3.665   5.517   5.353
12470TIP3    H237344   3.607   5.525   5.493
12471TIP3   OH237345   4.293   5.621   5.656
12471TIP3    H137346   4.352   5.670   5.597
12471TIP3    H237347   4.314   5.659   5.742
12472TIP3   OH237348   4.842   5.769   5.640
12472TIP3    H137349   4.836   5.731   5.551
12472TIP3    H237350   4.828   5.689   5.696
12473TIP3   OH237351   4.868   5.694   5.206
12473TIP3    H137352   4.780   5.734   5.217
12473TIP3    H237353   4.853   5.607   5.249
12474TIP3   OH237354   3.352   7.031   5.202
12474TIP3    H137355   3.266   6.998   5.169
12474TIP3    H237356   3.341   7.126   5.182
12475TIP3   OH237357   3.753   5.619   5.187
12475TIP3    H137358   3.800   5.555   5.131
12475TIP3    H237359   3.826   5.672   5.224
12476TIP3   OH237360   4.263   5.795   5.286
12476TIP3    H137361   4.322   5.746   5.346
12476TIP3    H237362   4.286   5.887   5.312
12477TIP3   OH237363   4.125   7.217   4.788
12477TIP3    H137364   4.213   7.240   4.750
12477TIP3    H237365   4.102   7.143   4.727
12478TIP3   OH237366   4.827   7.329   4.877
12478TIP3    H137367   4.827   7.233   4.859
12478TIP3    H237368   4.796   7.364   4.791
12479TIP3   OH237369   4.055   5.873   6.669
12479TIP3    H137370   4.017   5.805   6.727
12479TIP3    H237371   4.149   5.871   6.698
12480TIP3   OH237372   4.306   5.869   6.789
12480TIP3    H137373   4.388   5.837   6.749
12480TIP3    H237374   4.287   5.799   6.855
12481TIP3   OH237375   3.428   7.055   4.842
12481TIP3    H137376   3.428   7.077   4.936
12481TIP3    H237377   3.516   7.012   4.830
12482TIP3   OH237378   5.131   5.930   6.574
12482TIP3    H137379   5.150   5.901   6.665
12482TIP3    H237380   5.219   5.925   6.532
12483TIP3   OH237381   5.073   7.482   6.062
12483TIP3    H137382   4.990   7.452   6.018
12483TIP3    H237383   5.054   7.579   6.068
12484TIP3   OH237384   6.336   6.857   4.831
12484TIP3    H137385   6.304   6.947   4.807
12484TIP3    H237386   6.262   6.804   4.797
12485TIP3   OH237387   6.336   6.855   5.214
12485TIP3    H137388   6.369   6.823   5.300
12485TIP3    H237389   6.292   6.776   5.180
12486TIP3   OH237390   6.586   7.155   4.896
12486TIP3    H137391   6.560   7.086   4.959
12486TIP3    H237392   6.603   7.231   4.954
12487TIP3   OH237393   5.310   6.365   5.090
12487TIP3    H137394   5.257   6.446   5.101
12487TIP3    H237395   5.244   6.307   5.048
12488TIP3   OH237396   5.378   6.654   5.262
12488TIP3    H137397   5.423   6.573   5.296
12488TIP3    H237398   5.421   6.665   5.176
12489TIP3   OH237399   6.229   7.619   4.912
12489TIP3    H137400   6.273   7.546   4.864
12489TIP3    H237401   6.217   7.581   5.000
12490TIP3   OH237402   6.134   7.080   5.271
12490TIP3    H137403   6.165   7.004   5.219
12490TIP3    H237404   6.221   7.123   5.289
12491TIP3   OH237405   7.146   6.398   5.261
12491TIP3    H137406   7.175   6.481   5.304
12491TIP3    H237407   7.169   6.416   5.168
12492TIP3   OH237408   6.550   6.580   5.294
12492TIP3    H137409   6.590   6.492   5.310
12492TIP3    H237410   6.513   6.567   5.204
12493TIP3   OH237411   5.891   6.244   5.259
12493TIP3    H137412   5.865   6.316   5.197
12493TIP3    H237413   5.841   6.169   5.220
12494TIP3   OH237414   6.577   6.333   4.881
12494TIP3    H137415   6.651   6.318   4.946
12494TIP3    H237416   6.628   6.367   4.805
12495TIP3   OH237417   5.515   6.442   5.368
12495TIP3    H137418   5.599   6.420   5.414
12495TIP3    H237419   5.527   6.387   5.288
12496TIP3   OH237420   5.948   6.640   5.170
12496TIP3    H137421   6.042   6.617   5.183
12496TIP3    H237422   5.911   6.556   5.135
12497TIP3   OH237423   7.221   6.607   5.430
12497TIP3    H137424   7.135   6.653   5.417
12497TIP3    H237425   7.246   6.639   5.518
12498TIP3   OH237426   5.880   6.222   5.698
12498TIP3    H137427   5.824   6.269   5.633
12498TIP3    H237428   5.834   6.246   5.781
12499TIP3   OH237429   6.229   7.078   4.700
12499TIP3    H137430   6.185   7.055   4.617
12499TIP3    H237431   6.181   7.160   4.725
12500TIP3   OH237432   5.997   7.020   5.497
12500TIP3    H137433   5.976   7.100   5.549
12500TIP3    H237434   6.058   7.053   5.426
12501TIP3   OH237435   6.786   6.336   5.055
12501TIP3    H137436   6.786   6.279   5.132
12501TIP3    H237437   6.840   6.412   5.085
12502TIP3   OH237438   5.744   6.340   5.483
12502TIP3    H137439   5.788   6.422   5.516
12502TIP3    H237440   5.807   6.313   5.413
12503TIP3   OH237441   5.766   7.164   5.531
12503TIP3    H137442   5.764   7.261   5.514
12503TIP3    H237443   5.709   7.162   5.612
12504TIP3   OH237444   5.206   6.884   4.823
12504TIP3    H137445   5.166   6.904   4.736
12504TIP3    H237446   5.231   6.975   4.852
12505TIP3   OH237447   6.651   7.401   5.062
12505TIP3    H137448   6.562   7.390   5.103
12505TIP3    H237449   6.639   7.487   5.017
12506TIP3   OH237450   6.931   6.311   5.427
12506TIP3    H137451   6.845   6.326   5.386
12506TIP3    H237452   6.994   6.334   5.356
12507TIP3   OH237453   6.224   5.947   5.391
12507TIP3    H137454   6.221   5.854   5.418
12507TIP3    H237455   6.151   5.984   5.446
12508TIP3   OH237456   6.351   7.443   4.739
12508TIP3    H137457   6.400   7.361   4.717
12508TIP3    H237458   6.410   7.509   4.697
12509TIP3   OH237459   6.495   7.230   4.644
12509TIP3    H137460   6.450   7.153   4.608
12509TIP3    H237461   6.532   7.193   4.728
12510TIP3   OH237462   6.857   7.312   5.401
12510TIP3    H137463   6.848   7.235   5.342
12510TIP3    H237464   6.842   7.388   5.340
12511TIP3   OH237465   6.168   6.707   4.666
12511TIP3    H137466   6.085   6.756   4.645
12511TIP3    H237467   6.210   6.701   4.578
12512TIP3   OH237468   6.125   6.490   4.382
12512TIP3    H137469   6.195   6.541   4.427
12512TIP3    H237470   6.180   6.426   4.332
12513TIP3   OH237471   7.074   6.953   5.252
12513TIP3    H137472   6.988   7.002   5.260
12513TIP3    H237473   7.094   6.971   5.158
12514TIP3   OH237474   6.514   6.790   4.635
12514TIP3    H137475   6.458   6.814   4.712
12514TIP3    H237476   6.596   6.763   4.680
12515TIP3   OH237477   6.746   6.810   5.543
12515TIP3    H137478   6.749   6.893   5.596
12515TIP3    H237479   6.658   6.821   5.500
12516TIP3   OH237480   5.752   6.792   5.036
12516TIP3    H137481   5.703   6.728   4.980
12516TIP3    H237482   5.817   6.735   5.081
12517TIP3   OH237483   5.865   7.147   5.224
12517TIP3    H137484   5.841   7.150   5.130
12517TIP3    H237485   5.963   7.144   5.219
12518TIP3   OH237486   5.847   6.823   5.364
12518TIP3    H137487   5.868   6.755   5.292
12518TIP3    H237488   5.891   6.773   5.438
12519TIP3   OH237489   6.412   7.394   5.184
12519TIP3    H137490   6.394   7.474   5.236
12519TIP3    H237491   6.395   7.322   5.248
12520TIP3   OH237492   6.015   7.312   5.730
12520TIP3    H137493   5.965   7.380   5.780
12520TIP3    H237494   5.941   7.266   5.688
12521TIP3   OH237495   6.355   6.644   4.462
12521TIP3    H137496   6.413   6.706   4.513
12521TIP3    H237497   6.379   6.668   4.369
12522TIP3   OH237498   5.774   6.898   5.829
12522TIP3    H137499   5.759   6.973   5.890
12522TIP3    H237500   5.687   6.859   5.820
12523TIP3   OH237501   6.098   7.324   4.742
12523TIP3    H137502   6.176   7.381   4.751
12523TIP3    H237503   6.035   7.381   4.695
12524TIP3   OH237504   5.812   7.479   5.819
12524TIP3    H137505   5.779   7.486   5.728
12524TIP3    H237506   5.734   7.450   5.869
12525TIP3   OH237507   6.870   5.885   4.512
12525TIP3    H137508   6.787   5.906   4.561
12525TIP3    H237509   6.882   5.968   4.461
12526TIP3   OH237510   5.608   6.626   4.859
12526TIP3    H137511   5.543   6.673   4.803
12526TIP3    H237512   5.570   6.538   4.863
12527TIP3   OH237513   6.669   7.255   4.061
12527TIP3    H137514   6.676   7.351   4.044
12527TIP3    H237515   6.761   7.225   4.047
12528TIP3   OH237516   5.395   7.010   5.765
12528TIP3    H137517   5.326   6.993   5.698
12528TIP3    H237518   5.417   6.920   5.795
12529TIP3   OH237519   5.243   7.209   5.408
12529TIP3    H137520   5.335   7.214   5.381
12529TIP3    H237521   5.240   7.280   5.474
12530TIP3   OH237522   6.217   7.442   5.587
12530TIP3    H137523   6.220   7.535   5.619
12530TIP3    H237524   6.146   7.404   5.643
12531TIP3   OH237525   5.983   7.573   4.539
12531TIP3    H137526   5.931   7.551   4.460
12531TIP3    H237527   5.946   7.659   4.566
12532TIP3   OH237528   5.437   7.427   4.919
12532TIP3    H137529   5.430   7.398   5.011
12532TIP3    H237530   5.357   7.389   4.877
12533TIP3   OH237531   6.182   7.475   4.178
12533TIP3    H137532   6.240   7.404   4.142
12533TIP3    H237533   6.214   7.482   4.270
12534TIP3   OH237534   6.233   7.522   4.448
12534TIP3    H137535   6.143   7.533   4.486
12534TIP3    H237536   6.279   7.478   4.521
12535TIP3   OH237537   7.021   6.787   5.715
12535TIP3    H137538   6.940   6.811   5.666
12535TIP3    H237539   7.029   6.692   5.695
12536TIP3   OH237540   5.603   7.190   5.748
12536TIP3    H137541   5.642   7.181   5.837
12536TIP3    H237542   5.526   7.129   5.756
12537TIP3   OH237543   5.995   6.019   5.542
12537TIP3    H137544   5.907   5.989   5.512
12537TIP3    H237545   5.968   6.101   5.588
12538TIP3   OH237546   6.533   6.148   5.751
12538TIP3    H137547   6.573   6.078   5.804
12538TIP3    H237548   6.438   6.123   5.760
12539TIP3   OH237549   6.762   6.562   5.664
12539TIP3    H137550   6.719   6.599   5.741
12539TIP3    H237551   6.753   6.637   5.600
12540TIP3   OH237552   6.434   6.694   4.209
12540TIP3    H137553   6.395   6.668   4.123
12540TIP3    H237554   6.515   6.739   4.180
12541TIP3   OH237555   6.146   6.064   4.509
12541TIP3    H137556   6.108   6.063   4.599
12541TIP3    H237557   6.102   5.984   4.473
12542TIP3   OH237558   5.812   6.421   5.069
12542TIP3    H137559   5.719   6.395   5.087
12542TIP3    H237560   5.824   6.381   4.980
12543TIP3   OH237561   6.304   6.508   4.800
12543TIP3    H137562   6.251   6.578   4.756
12543TIP3    H237563   6.357   6.475   4.725
12544TIP3   OH237564   6.464   6.780   5.872
12544TIP3    H137565   6.448   6.715   5.945
12544TIP3    H237566   6.558   6.796   5.873
12545TIP3   OH237567   6.462   6.536   5.035
12545TIP3    H137568   6.399   6.563   4.966
12545TIP3    H237569   6.495   6.454   4.992
12546TIP3   OH237570   5.802   6.044   4.476
12546TIP3    H137571   5.788   6.038   4.572
12546TIP3    H237572   5.721   6.090   4.447
12547TIP3   OH237573   5.339   6.087   5.350
12547TIP3    H137574   5.419   6.115   5.398
12547TIP3    H237575   5.372   6.053   5.265
12548TIP3   OH237576   5.312   6.066   4.867
12548TIP3    H137577   5.356   6.102   4.787
12548TIP3    H237578   5.250   6.138   4.885
12549TIP3   OH237579   6.474   6.783   5.454
12549TIP3    H137580   6.505   6.709   5.397
12549TIP3    H237581   6.435   6.732   5.528
12550TIP3   OH237582   6.146   6.242   5.131
12550TIP3    H137583   6.060   6.242   5.180
12550TIP3    H237584   6.209   6.238   5.205
12551TIP3   OH237585   5.573   6.299   5.140
12551TIP3    H137586   5.479   6.305   5.111
12551TIP3    H237587   5.598   6.208   5.117
12552TIP3   OH237588   5.843   6.296   4.827
12552TIP3    H137589   5.936   6.310   4.802
12552TIP3    H237590   5.793   6.317   4.745
12553TIP3   OH237591   6.629   6.317   5.343
12553TIP3    H137592   6.579   6.328   5.426
12553TIP3    H237593   6.572   6.254   5.296
12554TIP3   OH237594   5.686   6.331   4.607
12554TIP3    H137595   5.616   6.282   4.560
12554TIP3    H237596   5.738   6.365   4.531
12555TIP3   OH237597   5.739   7.121   5.998
12555TIP3    H137598   5.827   7.134   6.039
12555TIP3    H237599   5.693   7.199   6.031
12556TIP3   OH237600   6.224   6.576   5.230
12556TIP3    H137601   6.290   6.526   5.179
12556TIP3    H237602   6.223   6.530   5.316
12557TIP3   OH237603   5.747   6.059   5.111
12557TIP3    H137604   5.710   5.981   5.157
12557TIP3    H237605   5.786   6.020   5.032
12558TIP3   OH237606   6.184   6.476   5.522
12558TIP3    H137607   6.098   6.519   5.541
12558TIP3    H237608   6.248   6.536   5.567
12559TIP3   OH237609   5.938   6.857   4.615
12559TIP3    H137610   5.865   6.792   4.602
12559TIP3    H237611   5.917   6.893   4.704
12560TIP3   OH237612   6.835   7.090   5.240
12560TIP3    H137613   6.857   7.138   5.158
12560TIP3    H237614   6.749   7.047   5.217
12561TIP3   OH237615   6.395   6.168   4.482
12561TIP3    H137616   6.298   6.149   4.486
12561TIP3    H237617   6.400   6.264   4.500
12562TIP3   OH237618   6.329   7.177   5.609
12562TIP3    H137619   6.361   7.154   5.697
12562TIP3    H237620   6.301   7.270   5.619
12563TIP3   OH237621   6.462   6.419   4.583
12563TIP3    H137622   6.559   6.426   4.593
12563TIP3    H237623   6.441   6.496   4.527
12564TIP3   OH237624   6.083   7.010   4.440
12564TIP3    H137625   6.034   7.095   4.444
12564TIP3    H237626   6.027   6.953   4.497
12565TIP3   OH237627   5.491   6.784   5.918
12565TIP3    H137628   5.549   6.714   5.950
12565TIP3    H237629   5.419   6.735   5.874
12566TIP3   OH237630   6.224   6.916   5.929
12566TIP3    H137631   6.153   6.861   5.887
12566TIP3    H237632   6.302   6.882   5.881
12567TIP3   OH237633   6.491   7.431   5.496
12567TIP3    H137634   6.395   7.434   5.510
12567TIP3    H237635   6.521   7.477   5.578
12568TIP3   OH237636   6.906   6.509   4.414
12568TIP3    H137637   6.844   6.463   4.352
12568TIP3    H237638   6.902   6.598   4.372
12569TIP3   OH237639   7.110   7.318   5.489
12569TIP3    H137640   7.016   7.335   5.468
12569TIP3    H237641   7.146   7.307   5.399
12570TIP3   OH237642   6.618   7.327   4.328
12570TIP3    H137643   6.576   7.261   4.385
12570TIP3    H237644   6.619   7.283   4.241
12571TIP3   OH237645   6.602   6.956   5.160
12571TIP3    H137646   6.508   6.931   5.174
12571TIP3    H237647   6.635   6.876   5.115
12572TIP3   OH237648   5.724   7.194   4.929
12572TIP3    H137649   5.731   7.272   4.870
12572TIP3    H237650   5.636   7.163   4.906
12573TIP3   OH237651   5.295   6.489   4.619
12573TIP3    H137652   5.339   6.574   4.639
12573TIP3    H237653   5.216   6.495   4.678
12574TIP3   OH237654   5.869   6.960   4.856
12574TIP3    H137655   5.831   7.046   4.881
12574TIP3    H237656   5.832   6.901   4.926
12575TIP3   OH237657   6.001   7.524   5.382
12575TIP3    H137658   6.036   7.601   5.332
12575TIP3    H237659   6.081   7.497   5.431
12576TIP3   OH237660   5.663   7.418   4.768
12576TIP3    H137661   5.575   7.426   4.810
12576TIP3    H237662   5.690   7.513   4.767
12577TIP3   OH237663   6.387   7.162   5.341
12577TIP3    H137664   6.377   7.161   5.439
12577TIP3    H237665   6.466   7.108   5.330
12578TIP3   OH237666   6.362   7.059   4.223
12578TIP3    H137667   6.412   7.032   4.303
12578TIP3    H237668   6.273   7.027   4.246
12579TIP3   OH237669   6.623   7.700   5.396
12579TIP3    H137670   6.548   7.640   5.383
12579TIP3    H237671   6.612   7.761   5.320
12580TIP3   OH237672   6.702   7.529   4.045
12580TIP3    H137673   6.735   7.600   3.987
12580TIP3    H237674   6.622   7.574   4.080
12581TIP3   OH237675   5.737   6.283   5.927
12581TIP3    H137676   5.643   6.307   5.924
12581TIP3    H237677   5.740   6.215   5.995
12582TIP3   OH237678   6.521   6.991   4.440
12582TIP3    H137679   6.510   6.923   4.510
12582TIP3    H237680   6.618   6.987   4.428
12583TIP3   OH237681   5.437   7.391   5.552
12583TIP3    H137682   5.490   7.331   5.607
12583TIP3    H237683   5.456   7.477   5.592
12584TIP3   OH237684   5.731   7.034   4.223
12584TIP3    H137685   5.739   6.941   4.195
12584TIP3    H237686   5.709   7.024   4.318
12585TIP3   OH237687   5.675   7.040   4.494
12585TIP3    H137688   5.745   7.015   4.556
12585TIP3    H237689   5.675   7.138   4.502
12586TIP3   OH237690   5.407   6.735   4.702
12586TIP3    H137691   5.340   6.781   4.757
12586TIP3    H237692   5.419   6.803   4.632
12587TIP3   OH237693   6.548   6.384   5.613
12587TIP3    H137694   6.642   6.406   5.616
12587TIP3    H237695   6.542   6.297   5.658
12588TIP3   OH237696   6.440   6.119   4.758
12588TIP3    H137697   6.422   6.141   4.664
12588TIP3    H237698   6.477   6.203   4.792
12589TIP3   OH237699   5.941   7.241   4.448
12589TIP3    H137700   5.852   7.264   4.481
12589TIP3    H237701   5.953   7.311   4.382
12590TIP3   OH237702   6.130   6.301   4.860
12590TIP3    H137703   6.192   6.374   4.842
12590TIP3    H237704   6.132   6.295   4.958
12591TIP3   OH237705   6.392   6.615   5.650
12591TIP3    H137706   6.397   6.661   5.735
12591TIP3    H237707   6.443   6.532   5.660
12592TIP3   OH237708   6.272   6.027   4.964
12592TIP3    H137709   6.256   6.108   5.016
12592TIP3    H237710   6.332   6.062   4.894
12593TIP3   OH237711   5.684   7.312   4.512
12593TIP3    H137712   5.652   7.380   4.449
12593TIP3    H237713   5.666   7.355   4.598
12594TIP3   OH237714   5.782   6.027   4.753
12594TIP3    H137715   5.780   6.118   4.787
12594TIP3    H237716   5.879   6.009   4.759
12595TIP3   OH237717   7.031   6.521   5.644
12595TIP3    H137718   6.933   6.513   5.645
12595TIP3    H237719   7.051   6.472   5.562
12596TIP3   OH237720   6.687   6.714   5.035
12596TIP3    H137721   6.610   6.655   5.045
12596TIP3    H237722   6.757   6.664   5.084
12597TIP3   OH237723   5.399   6.940   4.507
12597TIP3    H137724   5.457   7.017   4.511
12597TIP3    H237725   5.447   6.887   4.439
12598TIP3   OH237726   5.344   6.218   4.642
12598TIP3    H137727   5.341   6.316   4.636
12598TIP3    H237728   5.268   6.193   4.589
12599TIP3   OH237729   6.659   7.668   4.981
12599TIP3    H137730   6.613   7.715   4.908
12599TIP3    H237731   6.752   7.690   4.959
12600TIP3   OH237732   5.731   5.937   5.511
12600TIP3    H137733   5.700   5.906   5.424
12600TIP3    H237734   5.720   5.858   5.567
12601TIP3   OH237735   5.261   7.151   4.878
12601TIP3    H137736   5.190   7.198   4.922
12601TIP3    H237737   5.265   7.209   4.798
12602TIP3   OH237738   5.431   7.695   5.960
12602TIP3    H137739   5.513   7.701   6.013
12602TIP3    H237740   5.404   7.603   5.972
12603TIP3   OH237741   5.915   7.654   6.016
12603TIP3    H137742   6.011   7.644   6.005
12603TIP3    H237743   5.883   7.604   5.939
12604TIP3   OH237744   5.892   7.238   4.137
12604TIP3    H137745   5.834   7.168   4.175
12604TIP3    H237746   5.965   7.185   4.102
12605TIP3   OH237747   6.540   7.541   5.739
12605TIP3    H137748   6.529   7.482   5.816
12605TIP3    H237749   6.613   7.599   5.766
12606TIP3   OH237750   6.328   7.280   4.050
12606TIP3    H137751   6.365   7.209   4.107
12606TIP3    H237752   6.383   7.275   3.970
12607TIP3   OH237753   5.536   6.756   4.357
12607TIP3    H137754   5.592   6.723   4.430
12607TIP3    H237755   5.603   6.760   4.285
12608TIP3   OH237756   6.169   7.190   5.934
12608TIP3    H137757   6.126   7.204   5.848
12608TIP3    H237758   6.196   7.095   5.929
12609TIP3   OH237759   6.054   6.957   4.168
12609TIP3    H137760   6.049   6.968   4.265
12609TIP3    H237761   6.052   6.859   4.161
12610TIP3   OH237762   6.650   7.201   5.544
12610TIP3    H137763   6.725   7.245   5.500
12610TIP3    H237764   6.580   7.268   5.528
12611TIP3   OH237765   5.747   6.660   4.581
12611TIP3    H137766   5.716   6.615   4.662
12611TIP3    H237767   5.781   6.584   4.528
12612TIP3   OH237768   6.018   6.748   5.835
12612TIP3    H137769   5.931   6.792   5.837
12612TIP3    H237770   6.012   6.709   5.745
12613TIP3   OH237771   5.845   6.455   4.420
12613TIP3    H137772   5.817   6.457   4.326
12613TIP3    H237773   5.942   6.459   4.411
12614TIP3   OH237774   6.530   7.128   5.939
12614TIP3    H137775   6.623   7.131   5.910
12614TIP3    H237776   6.535   7.085   6.025
12615TIP3   OH237777   6.669   6.785   4.084
12615TIP3    H137778   6.646   6.737   4.001
12615TIP3    H237779   6.635   6.874   4.060
12616TIP3   OH237780   6.147   6.516   5.929
12616TIP3    H137781   6.134   6.436   5.874
12616TIP3    H237782   6.095   6.582   5.878
12617TIP3   OH237783   6.137   6.299   5.740
12617TIP3    H137784   6.158   6.346   5.656
12617TIP3    H237785   6.042   6.278   5.726
12618TIP3   OH237786   6.197   6.852   5.607
12618TIP3    H137787   6.260   6.861   5.535
12618TIP3    H237788   6.120   6.902   5.575
12619TIP3   OH237789   6.776   7.027   5.705
12619TIP3    H137790   6.721   7.091   5.654
12619TIP3    H237791   6.866   7.053   5.671
12620TIP3   OH237792   6.017   6.619   6.173
12620TIP3    H137793   5.949   6.549   6.175
12620TIP3    H237794   6.045   6.616   6.080
12621TIP3   OH237795   6.270   6.070   5.812
12621TIP3    H137796   6.218   6.148   5.786
12621TIP3    H237797   6.208   5.997   5.792
12622TIP3   OH237798   6.402   6.564   6.027
12622TIP3    H137799   6.371   6.547   6.118
12622TIP3    H237800   6.316   6.547   5.981
12623TIP3   OH237801   6.670   6.524   5.961
12623TIP3    H137802   6.577   6.534   5.984
12623TIP3    H237803   6.670   6.450   5.912
12624TIP3   OH237804   5.850   6.406   6.224
12624TIP3    H137805   5.853   6.323   6.172
12624TIP3    H237806   5.890   6.377   6.308
12625TIP3   OH237807   6.358   6.067   6.069
12625TIP3    H137808   6.425   5.998   6.060
12625TIP3    H237809   6.320   6.068   5.978
12626TIP3   OH237810   6.427   6.277   6.228
12626TIP3    H137811   6.399   6.210   6.162
12626TIP3    H237812   6.359   6.346   6.219
12627TIP3   OH237813   5.654   7.515   4.325
12627TIP3    H137814   5.748   7.512   4.302
12627TIP3    H237815   5.619   7.564   4.249
12628TIP3   OH237816   5.132   6.891   4.547
12628TIP3    H137817   5.225   6.916   4.530
12628TIP3    H237818   5.126   6.806   4.500
12629TIP3   OH237819   5.011   7.507   4.987
12629TIP3    H137820   4.968   7.450   4.919
12629TIP3    H237821   5.083   7.450   5.016
12630TIP3   OH237822   5.194   7.357   5.132
12630TIP3    H137823   5.172   7.282   5.190
12630TIP3    H237824   5.241   7.415   5.195
12631TIP3   OH237825   6.919   7.749   4.936
12631TIP3    H137826   6.935   7.773   5.030
12631TIP3    H237827   6.945   7.831   4.892
12632TIP3   OH237828   6.959   7.760   5.213
12632TIP3    H137829   6.908   7.676   5.225
12632TIP3    H237830   6.963   7.793   5.303
12633TIP3   OH237831   6.801   6.970   4.418
12633TIP3    H137832   6.869   7.034   4.389
12633TIP3    H237833   6.844   6.930   4.497
12634TIP3   OH237834   6.930   6.841   4.623
12634TIP3    H137835   6.862   6.795   4.678
12634TIP3    H237836   6.991   6.875   4.690
12635TIP3   OH237837   6.978   7.226   5.048
12635TIP3    H137838   7.033   7.161   5.000
12635TIP3    H237839   6.954   7.290   4.979
12636TIP3   OH237840   6.808   7.536   5.249
12636TIP3    H137841   6.740   7.575   5.308
12636TIP3    H237842   6.754   7.491   5.181
12637TIP3   OH237843   6.867   6.747   4.267
12637TIP3    H137844   6.796   6.747   4.199
12637TIP3    H237845   6.836   6.822   4.322
12638TIP3   OH237846   6.739   6.419   4.220
12638TIP3    H137847   6.694   6.456   4.144
12638TIP3    H237848   6.715   6.324   4.212
12639TIP3   OH237849   6.745   6.694   4.766
12639TIP3    H137850   6.749   6.598   4.757
12639TIP3    H237851   6.729   6.707   4.862
12640TIP3   OH237852   5.387   6.767   5.509
12640TIP3    H137853   5.369   6.738   5.417
12640TIP3    H237854   5.481   6.748   5.514
12641TIP3   OH237855   7.017   7.094   5.611
12641TIP3    H137856   7.103   7.054   5.633
12641TIP3    H237857   7.046   7.177   5.568
12642TIP3   OH237858   7.242   6.937   5.648
12642TIP3    H137859   7.161   6.893   5.684
12642TIP3    H237860   7.302   6.859   5.652
12643TIP3   OH237861   6.681   6.154   4.208
12643TIP3    H137862   6.751   6.118   4.266
12643TIP3    H237863   6.604   6.097   4.228
12644TIP3   OH237864   6.741   6.413   4.662
12644TIP3    H137865   6.781   6.324   4.677
12644TIP3    H237866   6.797   6.444   4.588
12645TIP3   OH237867   6.900   6.583   5.158
12645TIP3    H137868   6.986   6.609   5.116
12645TIP3    H237869   6.915   6.621   5.247
12646TIP3   OH237870   6.971   6.731   5.389
12646TIP3    H137871   6.890   6.764   5.434
12646TIP3    H237872   7.003   6.812   5.345
12647TIP3   OH237873   5.584   6.470   6.195
12647TIP3    H137874   5.680   6.454   6.188
12647TIP3    H237875   5.555   6.388   6.237
12648TIP3   OH237876   7.425   6.306   5.943
12648TIP3    H137877   7.476   6.241   5.889
12648TIP3    H237878   7.390   6.366   5.873
12649TIP3   OH237879   6.848   6.161   4.699
12649TIP3    H137880   6.894   6.144   4.784
12649TIP3    H237881   6.786   6.086   4.696
12650TIP3   OH237882   5.548   6.146   5.527
12650TIP3    H137883   5.609   6.071   5.533
12650TIP3    H237884   5.611   6.219   5.513
12651TIP3   OH237885   5.347   6.426   5.592
12651TIP3    H137886   5.388   6.410   5.505
12651TIP3    H237887   5.410   6.487   5.631
12652TIP3   OH237888   7.289   6.452   5.755
12652TIP3    H137889   7.202   6.487   5.782
12652TIP3    H237890   7.259   6.380   5.695
12653TIP3   OH237891   6.930   6.092   4.336
12653TIP3    H137892   6.968   6.023   4.277
12653TIP3    H237893   6.994   6.165   4.325
12654TIP3   OH237894   5.333   5.937   5.103
12654TIP3    H137895   5.238   5.923   5.119
12654TIP3    H237896   5.331   5.987   5.018
12655TIP3   OH237897   6.499   7.621   4.602
12655TIP3    H137898   6.547   7.616   4.517
12655TIP3    H237899   6.538   7.699   4.644
12656TIP3   OH237900   5.554   6.003   5.910
12656TIP3    H137901   5.500   5.998   5.990
12656TIP3    H237902   5.490   6.042   5.847
12657TIP3   OH237903   5.601   7.385   6.003
12657TIP3    H137904   5.506   7.388   5.980
12657TIP3    H237905   5.604   7.446   6.078
12658TIP3   OH237906   5.778   7.451   5.530
12658TIP3    H137907   5.724   7.526   5.495
12658TIP3    H237908   5.862   7.474   5.485
12659TIP3   OH237909   6.221   7.707   5.668
12659TIP3    H137910   6.255   7.710   5.760
12659TIP3    H237911   6.291   7.758   5.621
12660TIP3   OH237912   6.417   7.854   5.542
12660TIP3    H137913   6.480   7.802   5.489
12660TIP3    H237914   6.456   7.942   5.541
12661TIP3   OH237915   7.192   6.219   5.628
12661TIP3    H137916   7.100   6.200   5.599
12661TIP3    H237917   7.230   6.129   5.619
12662TIP3   OH237918   5.448   7.711   5.568
12662TIP3    H137919   5.358   7.742   5.542
12662TIP3    H237920   5.468   7.776   5.637
12663TIP3   OH237921   5.682   7.690   5.415
12663TIP3    H137922   5.598   7.709   5.461
12663TIP3    H237923   5.665   7.730   5.327
12664TIP3   OH237924   6.109   7.726   5.213
12664TIP3    H137925   6.039   7.746   5.147
12664TIP3    H237926   6.122   7.814   5.253
12665TIP3   OH237927   6.376   7.666   5.261
12665TIP3    H137928   6.282   7.684   5.242
12665TIP3    H237929   6.420   7.741   5.218
12666TIP3   OH237930   6.580   7.853   5.175
12666TIP3    H137931   6.566   7.939   5.129
12666TIP3    H237932   6.606   7.795   5.100
12667TIP3   OH237933   5.345   7.510   5.311
12667TIP3    H137934   5.380   7.493   5.400
12667TIP3    H237935   5.421   7.474   5.258
12668TIP3   OH237936   5.552   7.390   5.179
12668TIP3    H137937   5.587   7.304   5.154
12668TIP3    H237938   5.631   7.446   5.161
12669TIP3   OH237939   5.817   7.487   5.161
12669TIP3    H137940   5.855   7.403   5.135
12669TIP3    H237941   5.864   7.506   5.244
12670TIP3   OH237942   6.402   6.139   5.258
12670TIP3    H137943   6.347   6.069   5.298
12670TIP3    H237944   6.466   6.087   5.205
12671TIP3   OH237945   6.920   6.019   5.157
12671TIP3    H137946   6.954   6.069   5.079
12671TIP3    H237947   6.823   6.031   5.148
12672TIP3   OH237948   7.014   6.118   4.918
12672TIP3    H137949   7.087   6.066   4.877
12672TIP3    H237950   7.046   6.209   4.901
12673TIP3   OH237951   5.643   5.847   5.265
12673TIP3    H137952   5.551   5.814   5.261
12673TIP3    H237953   5.693   5.763   5.256
12674TIP3   OH237954   5.443   5.717   4.929
12674TIP3    H137955   5.471   5.762   4.848
12674TIP3    H237956   5.406   5.789   4.983
12675TIP3   OH237957   6.092   5.876   5.145
12675TIP3    H137958   6.147   5.927   5.083
12675TIP3    H237959   6.119   5.913   5.230
12676TIP3   OH237960   6.638   6.020   5.133
12676TIP3    H137961   6.630   5.980   5.046
12676TIP3    H237962   6.624   5.941   5.192
12677TIP3   OH237963   6.665   5.949   4.692
12677TIP3    H137964   6.579   5.992   4.703
12677TIP3    H237965   6.649   5.863   4.737
12678TIP3   OH237966   5.546   5.882   4.672
12678TIP3    H137967   5.592   5.810   4.625
12678TIP3    H237968   5.622   5.930   4.712
12679TIP3   OH237969   6.060   6.052   4.773
12679TIP3    H137970   6.118   6.003   4.834
12679TIP3    H237971   6.082   6.144   4.798
12680TIP3   OH237972   5.922   7.474   4.273
12680TIP3    H137973   6.009   7.497   4.234
12680TIP3    H237974   5.898   7.399   4.213
12681TIP3   OH237975   6.644   7.597   4.367
12681TIP3    H137976   6.637   7.499   4.355
12681TIP3    H237977   6.594   7.628   4.288
12682TIP3   OH237978   5.846   6.119   6.161
12682TIP3    H137979   5.819   6.047   6.220
12682TIP3    H237980   5.941   6.126   6.184
12683TIP3   OH237981   6.101   6.126   6.275
12683TIP3    H137982   6.183   6.101   6.231
12683TIP3    H237983   6.090   6.053   6.339
12684TIP3   OH237984   5.224   7.321   4.346
12684TIP3    H137985   5.221   7.346   4.440
12684TIP3    H237986   5.312   7.279   4.339
12685TIP3   OH237987   6.914   6.185   6.051
12685TIP3    H137988   6.938   6.163   6.144
12685TIP3    H237989   7.004   6.194   6.011
12686TIP3   OH237990   8.123   7.110   4.326
12686TIP3    H137991   8.090   7.199   4.302
12686TIP3    H237992   8.053   7.054   4.286
12687TIP3   OH237993   8.091   7.114   4.714
12687TIP3    H137994   8.158   7.070   4.767
12687TIP3    H237995   8.070   7.045   4.650
12688TIP3   OH237996   7.428   7.005   5.069
12688TIP3    H137997   7.457   6.938   5.134
12688TIP3    H237998   7.511   7.050   5.050
12689TIP3   OH237999   7.378   7.397   4.764
12689TIP3    H138000   7.381   7.299   4.777
12689TIP3    H238001   7.473   7.413   4.780
12690TIP3   OH238002   7.107   6.622   4.575
12690TIP3    H138003   7.053   6.702   4.588
12690TIP3    H238004   7.040   6.564   4.535
12691TIP3   OH238005   7.173   6.907   4.749
12691TIP3    H138006   7.218   6.828   4.788
12691TIP3    H238007   7.221   6.918   4.666
12692TIP3   OH238008   7.913   7.322   4.731
12692TIP3    H138009   7.976   7.249   4.714
12692TIP3    H238010   7.970   7.388   4.774
12693TIP3   OH238011   8.357   6.830   4.753
12693TIP3    H138012   8.380   6.737   4.774
12693TIP3    H238013   8.308   6.817   4.670
12694TIP3   OH238014   7.678   6.498   4.747
12694TIP3    H138015   7.660   6.569   4.683
12694TIP3    H238016   7.632   6.423   4.703
12695TIP3   OH238017   8.374   6.589   4.371
12695TIP3    H138018   8.447   6.567   4.435
12695TIP3    H238019   8.427   6.623   4.297
12696TIP3   OH238020   7.313   6.698   4.855
12696TIP3    H138021   7.397   6.677   4.901
12696TIP3    H238022   7.324   6.642   4.775
12697TIP3   OH238023   7.752   6.895   4.647
12697TIP3    H138024   7.846   6.870   4.660
12697TIP3    H238025   7.714   6.811   4.614
12698TIP3   OH238026   7.672   6.479   5.180
12698TIP3    H138027   7.612   6.514   5.113
12698TIP3    H238028   7.622   6.497   5.262
12699TIP3   OH238029   8.025   7.337   4.184
12699TIP3    H138030   7.971   7.301   4.111
12699TIP3    H238031   7.971   7.415   4.210
12700TIP3   OH238032   7.772   7.243   4.958
12700TIP3    H138033   7.712   7.318   4.971
12700TIP3    H238034   7.833   7.279   4.890
12701TIP3   OH238035   8.582   6.572   4.550
12701TIP3    H138036   8.545   6.536   4.632
12701TIP3    H238037   8.643   6.639   4.583
12702TIP3   OH238038   7.548   6.598   4.964
12702TIP3    H138039   7.614   6.666   4.988
12702TIP3    H238040   7.595   6.555   4.889
12703TIP3   OH238041   6.996   7.143   4.301
12703TIP3    H138042   6.958   7.141   4.210
12703TIP3    H238043   6.985   7.236   4.322
12704TIP3   OH238044   8.026   6.197   4.889
12704TIP3    H138045   8.017   6.102   4.912
12704TIP3    H238046   7.950   6.234   4.939
12705TIP3   OH238047   8.267   7.493   4.133
12705TIP3    H138048   8.195   7.433   4.105
12705TIP3    H238049   8.284   7.457   4.221
12706TIP3   OH238050   7.963   6.967   4.150
12706TIP3    H138051   7.880   7.012   4.124
12706TIP3    H238052   8.008   6.955   4.064
12707TIP3   OH238053   7.921   6.747   3.866
12707TIP3    H138054   7.991   6.797   3.911
12707TIP3    H238055   7.976   6.682   3.818
12708TIP3   OH238056   8.300   7.031   4.132
12708TIP3    H138057   8.250   7.053   4.215
12708TIP3    H238058   8.386   7.003   4.171
12709TIP3   OH238059   7.543   7.043   4.539
12709TIP3    H138060   7.499   6.984   4.474
12709TIP3    H238061   7.619   6.988   4.568
12710TIP3   OH238062   7.672   7.452   4.688
12710TIP3    H138063   7.646   7.407   4.606
12710TIP3    H238064   7.760   7.411   4.704
12711TIP3   OH238065   7.671   7.001   4.891
12711TIP3    H138066   7.705   6.974   4.802
12711TIP3    H238067   7.719   7.085   4.906
12712TIP3   OH238068   8.142   6.904   3.946
12712TIP3    H138069   8.205   6.954   4.003
12712TIP3    H238070   8.173   6.931   3.856
12713TIP3   OH238071   7.560   7.137   5.337
12713TIP3    H138072   7.551   7.234   5.337
12713TIP3    H238073   7.467   7.109   5.345
12714TIP3   OH238074   7.896   7.584   4.221
12714TIP3    H138075   7.944   7.655   4.263
12714TIP3    H238076   7.830   7.632   4.168
12715TIP3   OH238077   8.657   6.146   3.990
12715TIP3    H138078   8.580   6.156   4.050
12715TIP3    H238079   8.680   6.237   3.971
12716TIP3   OH238080   7.404   6.888   4.351
12716TIP3    H138081   7.338   6.929   4.291
12716TIP3    H238082   7.373   6.797   4.355
12717TIP3   OH238083   7.186   7.249   5.237
12717TIP3    H138084   7.112   7.230   5.175
12717TIP3    H238085   7.216   7.160   5.263
12718TIP3   OH238086   7.076   7.471   4.871
12718TIP3    H138087   7.146   7.469   4.937
12718TIP3    H238088   7.013   7.533   4.914
12719TIP3   OH238089   7.739   7.833   4.040
12719TIP3    H138090   7.721   7.799   3.950
12719TIP3    H238091   7.801   7.905   4.025
12720TIP3   OH238092   7.202   7.668   4.391
12720TIP3    H138093   7.228   7.680   4.484
12720TIP3    H238094   7.114   7.628   4.398
12721TIP3   OH238095   7.355   7.456   5.190
12721TIP3    H138096   7.431   7.455   5.251
12721TIP3    H238097   7.306   7.375   5.215
12722TIP3   OH238098   7.792   6.275   5.025
12722TIP3    H138099   7.703   6.244   4.998
12722TIP3    H238100   7.767   6.356   5.074
12723TIP3   OH238101   8.308   6.392   5.203
12723TIP3    H138102   8.379   6.383   5.268
12723TIP3    H238103   8.228   6.368   5.254
12724TIP3   OH238104   8.229   6.971   3.696
12724TIP3    H138105   8.186   6.933   3.617
12724TIP3    H238106   8.319   6.987   3.664
12725TIP3   OH238107   7.936   6.325   3.995
12725TIP3    H138108   7.904   6.321   4.087
12725TIP3    H238109   7.900   6.241   3.961
12726TIP3   OH238110   7.730   6.790   5.051
12726TIP3    H138111   7.672   6.807   5.129
12726TIP3    H238112   7.708   6.867   4.993
12727TIP3   OH238113   7.607   6.678   4.556
12727TIP3    H138114   7.515   6.649   4.574
12727TIP3    H238115   7.621   6.637   4.468
12728TIP3   OH238116   8.096   6.763   4.280
12728TIP3    H138117   8.045   6.833   4.235
12728TIP3    H238118   8.153   6.730   4.207
12729TIP3   OH238119   8.241   6.787   4.513
12729TIP3    H138120   8.181   6.807   4.437
12729TIP3    H238121   8.287   6.710   4.474
12730TIP3   OH238122   7.545   6.819   5.254
12730TIP3    H138123   7.561   6.875   5.332
12730TIP3    H238124   7.535   6.732   5.296
12731TIP3   OH238125   7.595   6.298   3.961
12731TIP3    H138126   7.585   6.295   4.058
12731TIP3    H238127   7.515   6.348   3.935
12732TIP3   OH238128   7.137   6.343   4.833
12732TIP3    H138129   7.214   6.372   4.884
12732TIP3    H238130   7.175   6.308   4.751
12733TIP3   OH238131   7.108   6.323   4.353
12733TIP3    H138132   7.151   6.361   4.273
12733TIP3    H238133   7.045   6.395   4.373
12734TIP3   OH238134   7.936   6.502   4.617
12734TIP3    H138135   7.856   6.497   4.674
12734TIP3    H238136   8.007   6.493   4.683
12735TIP3   OH238137   7.370   6.555   4.626
12735TIP3    H138138   7.276   6.561   4.598
12735TIP3    H238139   7.394   6.463   4.603
12736TIP3   OH238140   7.637   6.552   4.316
12736TIP3    H138141   7.732   6.565   4.295
12736TIP3    H238142   7.593   6.574   4.231
12737TIP3   OH238143   8.392   6.564   4.800
12737TIP3    H138144   8.365   6.578   4.893
12737TIP3    H238145   8.325   6.499   4.771
12738TIP3   OH238146   7.482   6.590   4.093
12738TIP3    H138147   7.412   6.541   4.046
12738TIP3    H238148   7.534   6.623   4.017
12739TIP3   OH238149   8.013   6.819   4.711
12739TIP3    H138150   8.088   6.784   4.660
12739TIP3    H238151   8.025   6.778   4.798
12740TIP3   OH238152   7.541   6.315   4.596
12740TIP3    H138153   7.506   6.236   4.643
12740TIP3    H238154   7.591   6.275   4.524
12741TIP3   OH238155   7.996   6.719   4.996
12741TIP3    H138156   7.906   6.751   5.019
12741TIP3    H238157   8.051   6.750   5.069
12742TIP3   OH238158   7.729   7.119   4.098
12742TIP3    H138159   7.660   7.050   4.086
12742TIP3    H238160   7.710   7.149   4.190
12743TIP3   OH238161   8.190   6.424   3.969
12743TIP3    H138162   8.093   6.408   3.974
12743TIP3    H238163   8.198   6.519   3.987
12744TIP3   OH238164   8.257   6.675   4.068
12744TIP3    H138165   8.354   6.676   4.083
12744TIP3    H238166   8.245   6.748   4.004
12745TIP3   OH238167   7.426   7.133   4.775
12745TIP3    H138168   7.466   7.103   4.691
12745TIP3    H238169   7.461   7.067   4.837
12746TIP3   OH238170   7.877   7.264   3.920
12746TIP3    H138171   7.828   7.350   3.928
12746TIP3    H238172   7.823   7.207   3.978
12747TIP3   OH238173   7.304   7.037   5.389
12747TIP3    H138174   7.291   7.020   5.484
12747TIP3    H238175   7.229   6.986   5.352
12748TIP3   OH238176   7.515   7.440   4.404
12748TIP3    H138177   7.539   7.529   4.370
12748TIP3    H238178   7.438   7.423   4.349
12749TIP3   OH238179   7.092   6.744   4.108
12749TIP3    H138180   7.135   6.829   4.128
12749TIP3    H238181   7.012   6.749   4.166
12750TIP3   OH238182   7.661   7.210   4.345
12750TIP3    H138183   7.622   7.296   4.370
12750TIP3    H238184   7.629   7.153   4.417
12751TIP3   OH238185   7.450   7.676   4.253
12751TIP3    H138186   7.360   7.683   4.291
12751TIP3    H238187   7.481   7.769   4.258
12752TIP3   OH238188   8.083   7.338   3.702
12752TIP3    H138189   8.156   7.283   3.735
12752TIP3    H238190   8.007   7.296   3.746
12753TIP3   OH238191   7.515   6.563   5.394
12753TIP3    H138192   7.419   6.567   5.410
12753TIP3    H238193   7.544   6.504   5.465
12754TIP3   OH238194   8.336   7.224   3.944
12754TIP3    H138195   8.294   7.170   4.015
12754TIP3    H238196   8.411   7.168   3.924
12755TIP3   OH238197   7.257   7.640   5.034
12755TIP3    H138198   7.295   7.566   5.090
12755TIP3    H238199   7.229   7.700   5.104
12756TIP3   OH238200   7.521   7.292   3.712
12756TIP3    H138201   7.535   7.201   3.681
12756TIP3    H238202   7.499   7.278   3.806
12757TIP3   OH238203   7.469   7.296   3.985
12757TIP3    H138204   7.546   7.268   4.036
12757TIP3    H238205   7.473   7.394   3.991
12758TIP3   OH238206   7.205   6.992   4.188
12758TIP3    H138207   7.138   7.039   4.243
12758TIP3    H238208   7.217   7.058   4.117
12759TIP3   OH238209   8.341   6.626   5.060
12759TIP3    H138210   8.384   6.674   5.132
12759TIP3    H238211   8.313   6.545   5.107
12760TIP3   OH238212   8.230   6.379   4.247
12760TIP3    H138213   8.220   6.399   4.151
12760TIP3    H238214   8.274   6.460   4.281
12761TIP3   OH238215   7.735   7.493   3.941
12761TIP3    H138216   7.646   7.517   3.974
12761TIP3    H238217   7.746   7.566   3.877
12762TIP3   OH238218   7.919   6.560   4.346
12762TIP3    H138219   7.986   6.629   4.328
12762TIP3    H238220   7.927   6.550   4.444
12763TIP3   OH238221   8.066   6.281   4.447
12763TIP3    H138222   8.066   6.355   4.510
12763TIP3    H238223   8.127   6.316   4.378
12764TIP3   OH238224   7.478   7.569   4.000
12764TIP3    H138225   7.447   7.638   3.937
12764TIP3    H238226   7.467   7.615   4.086
12765TIP3   OH238227   7.579   6.283   4.238
12765TIP3    H138228   7.576   6.373   4.276
12765TIP3    H238229   7.675   6.265   4.245
12766TIP3   OH238230   8.504   6.939   4.514
12766TIP3    H138231   8.412   6.913   4.531
12766TIP3    H238232   8.537   6.951   4.603
12767TIP3   OH238233   7.196   7.197   3.991
12767TIP3    H138234   7.264   7.267   3.996
12767TIP3    H238235   7.240   7.140   3.924
12768TIP3   OH238236   7.140   6.473   4.127
12768TIP3    H138237   7.137   6.571   4.122
12768TIP3    H238238   7.060   6.448   4.078
12769TIP3   OH238239   7.527   6.196   4.999
12769TIP3    H138240   7.497   6.162   4.912
12769TIP3    H238241   7.518   6.117   5.056
12770TIP3   OH238242   7.688   7.494   3.626
12770TIP3    H138243   7.630   7.423   3.663
12770TIP3    H238244   7.758   7.440   3.585
12771TIP3   OH238245   7.333   7.012   3.845
12771TIP3    H138246   7.388   6.975   3.916
12771TIP3    H238247   7.399   7.016   3.773
12772TIP3   OH238248   7.825   7.201   3.654
12772TIP3    H138249   7.822   7.212   3.750
12772TIP3    H238250   7.838   7.104   3.647
12773TIP3   OH238251   7.544   6.916   4.067
12773TIP3    H138252   7.514   6.869   4.147
12773TIP3    H238253   7.579   6.842   4.013
12774TIP3   OH238254   7.799   7.007   5.322
12774TIP3    H138255   7.717   7.058   5.308
12774TIP3    H238256   7.844   7.017   5.237
12775TIP3   OH238257   7.642   6.713   3.906
12775TIP3    H138258   7.615   6.714   3.812
12775TIP3    H238259   7.740   6.715   3.898
12776TIP3   OH238260   7.889   6.759   5.452
12776TIP3    H138261   7.940   6.695   5.397
12776TIP3    H238262   7.888   6.838   5.394
12777TIP3   OH238263   7.935   6.537   5.219
12777TIP3    H138264   7.961   6.580   5.136
12777TIP3    H238265   7.839   6.526   5.207
12778TIP3   OH238266   8.067   6.320   5.316
12778TIP3    H138267   8.019   6.400   5.284
12778TIP3    H238268   8.001   6.251   5.296
12779TIP3   OH238269   7.644   6.664   5.710
12779TIP3    H138270   7.659   6.584   5.654
12779TIP3    H238271   7.694   6.639   5.789
12780TIP3   OH238272   8.163   6.323   5.575
12780TIP3    H138273   8.232   6.260   5.550
12780TIP3    H238274   8.116   6.330   5.489
12781TIP3   OH238275   7.444   7.777   3.819
12781TIP3    H138276   7.539   7.764   3.802
12781TIP3    H238277   7.418   7.820   3.736
12782TIP3   OH238278   6.929   7.146   4.033
12782TIP3    H138279   7.022   7.170   4.013
12782TIP3    H238280   6.920   7.061   3.986
12783TIP3   OH238281   6.852   7.757   4.446
12783TIP3    H138282   6.780   7.710   4.398
12783TIP3    H238283   6.882   7.686   4.503
12784TIP3   OH238284   7.041   7.583   4.624
12784TIP3    H138285   6.965   7.545   4.670
12784TIP3    H238286   7.053   7.667   4.674
12785TIP3   OH238287   8.491   6.693   3.716
12785TIP3    H138288   8.489   6.703   3.620
12785TIP3    H238289   8.487   6.595   3.724
12786TIP3   OH238290   8.533   6.944   4.243
12786TIP3    H138291   8.545   6.849   4.232
12786TIP3    H238292   8.534   6.953   4.342
12787TIP3   OH238293   7.164   7.028   4.997
12787TIP3    H138294   7.165   6.992   4.906
12787TIP3    H238295   7.261   7.028   5.017
12788TIP3   OH238296   8.470   6.418   3.726
12788TIP3    H138297   8.540   6.354   3.738
12788TIP3    H238298   8.392   6.362   3.708
12789TIP3   OH238299   8.531   6.667   4.151
12789TIP3    H138300   8.567   6.577   4.169
12789TIP3    H238301   8.585   6.692   4.075
12790TIP3   OH238302   7.376   6.699   5.662
12790TIP3    H138303   7.473   6.702   5.676
12790TIP3    H238304   7.355   6.617   5.710
12791TIP3   OH238305   8.625   6.419   4.201
12791TIP3    H138306   8.687   6.392   4.271
12791TIP3    H238307   8.570   6.338   4.194
12792TIP3   OH238308   7.345   6.405   5.007
12792TIP3    H138309   7.406   6.329   5.016
12792TIP3    H238310   7.408   6.479   4.999
12793TIP3   OH238311   7.145   6.678   5.078
12793TIP3    H138312   7.194   6.668   4.995
12793TIP3    H238313   7.181   6.761   5.111
12794TIP3   OH238314   7.130   6.184   4.584
12794TIP3    H138315   7.035   6.177   4.606
12794TIP3    H238316   7.127   6.240   4.503
12795TIP3   OH238317   7.349   6.257   5.393
12795TIP3    H138318   7.299   6.254   5.477
12795TIP3    H238319   7.282   6.296   5.334
12796TIP3   OH238320   7.164   7.775   4.785
12796TIP3    H138321   7.175   7.755   4.880
12796TIP3    H238322   7.248   7.743   4.749
12797TIP3   OH238323   7.338   7.627   4.643
12797TIP3    H138324   7.387   7.567   4.703
12797TIP3    H238325   7.417   7.677   4.611
12798TIP3   OH238326   7.590   7.715   4.640
12798TIP3    H138327   7.638   7.630   4.649
12798TIP3    H238328   7.632   7.770   4.707
12799TIP3   OH238329   8.184   6.383   4.726
12799TIP3    H138330   8.143   6.313   4.780
12799TIP3    H238331   8.259   6.336   4.685
12800TIP3   OH238332   8.721   6.275   4.637
12800TIP3    H138333   8.751   6.326   4.559
12800TIP3    H238334   8.626   6.295   4.638
12801TIP3   OH238335   8.824   6.370   4.394
12801TIP3    H138336   8.890   6.309   4.360
12801TIP3    H238337   8.868   6.456   4.387
12802TIP3   OH238338   7.440   6.103   4.751
12802TIP3    H138339   7.348   6.069   4.751
12802TIP3    H238340   7.490   6.018   4.747
12803TIP3   OH238341   7.233   5.972   4.399
12803TIP3    H138342   7.259   6.029   4.325
12803TIP3    H238343   7.200   6.037   4.464
12804TIP3   OH238344   7.883   6.137   4.632
12804TIP3    H138345   7.941   6.182   4.569
12804TIP3    H238346   7.915   6.170   4.717
12805TIP3   OH238347   8.430   6.279   4.613
12805TIP3    H138348   8.439   6.236   4.527
12805TIP3    H238349   8.419   6.200   4.672
12806TIP3   OH238350   8.458   6.202   4.178
12806TIP3    H138351   8.369   6.241   4.189
12806TIP3    H238352   8.446   6.116   4.223
12807TIP3   OH238353   6.941   7.547   4.198
12807TIP3    H138354   6.861   7.505   4.162
12807TIP3    H238355   6.932   7.635   4.159
12808TIP3   OH238356   7.345   6.130   4.163
12808TIP3    H138357   7.393   6.068   4.105
12808TIP3    H238358   7.418   6.185   4.198
12809TIP3   OH238359   7.855   6.308   4.261
12809TIP3    H138360   7.917   6.261   4.320
12809TIP3    H238361   7.877   6.401   4.286
12810TIP3   OH238362   7.714   7.722   3.778
12810TIP3    H138363   7.788   7.772   3.736
12810TIP3    H238364   7.699   7.652   3.709
12811TIP3   OH238365   7.643   6.379   5.633
12811TIP3    H138366   7.608   6.308   5.691
12811TIP3    H238367   7.737   6.378   5.663
12812TIP3   OH238368   7.893   6.361   5.739
12812TIP3    H138369   7.981   6.367   5.698
12812TIP3    H238370   7.908   6.290   5.804
12813TIP3   OH238371   7.021   7.569   3.816
12813TIP3    H138372   7.019   7.594   3.909
12813TIP3    H238373   7.109   7.526   3.807
12814TIP3   OH238374   1.389   7.433   6.419
12814TIP3    H138375   1.420   7.515   6.463
12814TIP3    H238376   1.424   7.445   6.329
12815TIP3   OH238377   0.822   7.350   6.051
12815TIP3    H138378   0.883   7.362   6.126
12815TIP3    H238379   0.867   7.400   5.981
12816TIP3   OH238380   1.467   7.633   6.591
12816TIP3    H138381   1.412   7.709   6.570
12816TIP3    H238382   1.447   7.618   6.685
12817TIP3   OH238383   1.019   7.393   6.243
12817TIP3    H138384   1.046   7.305   6.271
12817TIP3    H238385   1.098   7.447   6.256
12818TIP3   OH238386   1.193   7.352   6.600
12818TIP3    H138387   1.110   7.382   6.560
12818TIP3    H238388   1.257   7.371   6.528
12819TIP3   OH238389   1.124   6.931   5.686
12819TIP3    H138390   1.043   6.953   5.736
12819TIP3    H238391   1.136   7.013   5.633
12820TIP3   OH238392   1.154   7.551   5.593
12820TIP3    H138393   1.088   7.509   5.533
12820TIP3    H238394   1.156   7.639   5.549
12821TIP3   OH238395   1.266   7.536   6.796
12821TIP3    H138396   1.179   7.535   6.838
12821TIP3    H238397   1.255   7.469   6.728
12822TIP3   OH238398   0.919   7.741   6.222
12822TIP3    H138399   0.873   7.656   6.216
12822TIP3    H238400   1.006   7.713   6.258
12823TIP3   OH238401   0.926   7.828   5.254
12823TIP3    H138402   0.878   7.778   5.185
12823TIP3    H238403   0.917   7.919   5.224
12824TIP3   OH238404   1.052   8.013   5.594
12824TIP3    H138405   1.128   8.068   5.571
12824TIP3    H238406   1.086   7.967   5.674
12825TIP3   OH238407   1.177   7.884   5.796
12825TIP3    H138408   1.118   7.834   5.857
12825TIP3    H238409   1.248   7.917   5.855
12826TIP3   OH238410   1.115   7.786   5.449
12826TIP3    H138411   1.046   7.788   5.379
12826TIP3    H238412   1.086   7.863   5.502
12827TIP3   OH238413   0.972   7.467   5.407
12827TIP3    H138414   0.945   7.507   5.324
12827TIP3    H238415   0.960   7.371   5.386
12828TIP3   OH238416   1.014   7.734   5.953
12828TIP3    H138417   0.999   7.641   5.929
12828TIP3    H238418   0.978   7.740   6.043
12829TIP3   OH238419   0.943   7.198   5.381
12829TIP3    H138420   1.021   7.173   5.436
12829TIP3    H238421   0.874   7.136   5.416
12830TIP3   OH238422   0.997   7.463   5.857
12830TIP3    H138423   1.036   7.373   5.863
12830TIP3    H238424   1.032   7.492   5.772
12831TIP3   OH238425   1.150   7.645   6.335
12831TIP3    H138426   1.237   7.671   6.295
12831TIP3    H238427   1.166   7.666   6.428
12832TIP3   OH238428   1.728   7.385   7.112
12832TIP3    H138429   1.754   7.305   7.060
12832TIP3    H238430   1.679   7.433   7.043
12833TIP3   OH238431   1.102   7.204   5.874
12833TIP3    H138432   1.147   7.189   5.959
12833TIP3    H238433   1.038   7.130   5.874
12834TIP3   OH238434   1.613   7.450   6.869
12834TIP3    H138435   1.550   7.513   6.907
12834TIP3    H238436   1.553   7.383   6.832
12835TIP3   OH238437   1.182   7.140   5.511
12835TIP3    H138438   1.222   7.071   5.454
12835TIP3    H238439   1.248   7.212   5.506
12836TIP3   OH238440   1.436   7.256   6.779
12836TIP3    H138441   1.344   7.239   6.752
12836TIP3    H238442   1.473   7.164   6.775
12837TIP3   OH238443   1.185   7.062   6.333
12837TIP3    H138444   1.221   7.109   6.254
12837TIP3    H238445   1.089   7.080   6.322
12838TIP3   OH238446   1.262   7.163   6.095
12838TIP3    H138447   1.333   7.109   6.054
12838TIP3    H238448   1.299   7.253   6.077
12839TIP3   OH238449   0.924   7.099   6.295
12839TIP3    H138450   0.857   7.097   6.226
12839TIP3    H238451   0.903   7.018   6.347
12840TIP3   OH238452   0.921   6.988   5.866
12840TIP3    H138453   0.833   7.013   5.835
12840TIP3    H238454   0.901   6.904   5.914
12841TIP3   OH238455   2.382   8.141   5.504
12841TIP3    H138456   2.346   8.228   5.477
12841TIP3    H238457   2.311   8.085   5.468
12842TIP3   OH238458   2.381   8.155   5.879
12842TIP3    H138459   2.414   8.127   5.967
12842TIP3    H238460   2.341   8.072   5.847
12843TIP3   OH238461   1.711   8.080   6.263
12843TIP3    H138462   1.714   7.995   6.313
12843TIP3    H238463   1.782   8.067   6.198
12844TIP3   OH238464   2.599   8.455   5.567
12844TIP3    H138465   2.598   8.381   5.631
12844TIP3    H238466   2.651   8.521   5.614
12845TIP3   OH238467   1.724   8.384   6.053
12845TIP3    H138468   1.683   8.310   6.005
12845TIP3    H238469   1.799   8.407   5.993
12846TIP3   OH238470   1.356   7.661   5.754
12846TIP3    H138471   1.308   7.745   5.767
12846TIP3    H238472   1.286   7.608   5.711
12847TIP3   OH238473   1.414   7.947   5.918
12847TIP3    H138474   1.461   7.872   5.960
12847TIP3    H238475   1.483   7.990   5.868
12848TIP3   OH238476   2.193   8.371   5.920
12848TIP3    H138477   2.239   8.293   5.885
12848TIP3    H238478   2.272   8.423   5.946
12849TIP3   OH238479   3.189   7.702   5.923
12849TIP3    H138480   3.220   7.783   5.969
12849TIP3    H238481   3.211   7.724   5.831
12850TIP3   OH238482   2.591   7.883   5.957
12850TIP3    H138483   2.632   7.798   5.978
12850TIP3    H238484   2.558   7.866   5.866
12851TIP3   OH238485   1.929   7.542   5.922
12851TIP3    H138486   1.908   7.613   5.858
12851TIP3    H238487   1.883   7.467   5.879
12852TIP3   OH238488   2.623   7.633   5.545
12852TIP3    H138489   2.695   7.618   5.610
12852TIP3    H238490   2.675   7.668   5.470
12853TIP3   OH238491   1.562   7.743   6.033
12853TIP3    H138492   1.644   7.718   6.079
12853TIP3    H238493   1.570   7.690   5.951
12854TIP3   OH238494   1.997   7.940   5.833
12854TIP3    H138495   2.092   7.917   5.841
12854TIP3    H238496   1.960   7.856   5.796
12855TIP3   OH238497   3.266   7.911   6.090
12855TIP3    H138498   3.179   7.955   6.075
12855TIP3    H238499   3.274   7.921   6.186
12856TIP3   OH238500   1.926   7.524   6.358
12856TIP3    H138501   1.864   7.559   6.291
12856TIP3    H238502   1.874   7.540   6.440
12857TIP3   OH238503   2.263   8.343   5.365
12857TIP3    H138504   2.217   8.335   5.281
12857TIP3    H238505   2.282   8.439   5.371
12858TIP3   OH238506   2.032   8.306   6.153
12858TIP3    H138507   1.982   8.381   6.192
12858TIP3    H238508   2.072   8.351   6.076
12859TIP3   OH238509   2.832   7.637   5.720
12859TIP3    H138510   2.819   7.589   5.803
12859TIP3    H238511   2.885   7.713   5.748
12860TIP3   OH238512   1.796   7.638   6.142
12860TIP3    H138513   1.859   7.710   6.164
12860TIP3    H238514   1.844   7.597   6.066
12861TIP3   OH238515   1.263   8.157   5.497
12861TIP3    H138516   1.218   8.157   5.410
12861TIP3    H238517   1.270   8.253   5.510
12862TIP3   OH238518   2.982   7.601   6.089
12862TIP3    H138519   2.895   7.631   6.057
12862TIP3    H238520   3.043   7.632   6.019
12863TIP3   OH238521   2.280   7.243   6.072
12863TIP3    H138522   2.267   7.148   6.090
12863TIP3    H238523   2.202   7.280   6.119
12864TIP3   OH238524   2.624   8.472   5.286
12864TIP3    H138525   2.592   8.392   5.242
12864TIP3    H238526   2.632   8.444   5.380
12865TIP3   OH238527   2.915   8.613   6.073
12865TIP3    H138528   2.900   8.535   6.017
12865TIP3    H238529   2.938   8.682   6.007
12866TIP3   OH238530   2.214   8.002   5.332
12866TIP3    H138531   2.130   8.050   5.313
12866TIP3    H238532   2.254   7.998   5.243
12867TIP3   OH238533   2.181   7.792   5.035
12867TIP3    H138534   2.247   7.841   5.085
12867TIP3    H238535   2.238   7.727   4.989
12868TIP3   OH238536   3.117   8.252   5.915
12868TIP3    H138537   3.032   8.302   5.922
12868TIP3    H238538   3.143   8.276   5.824
12869TIP3   OH238539   2.560   8.084   5.305
12869TIP3    H138540   2.504   8.105   5.383
12869TIP3    H238541   2.643   8.056   5.349
12870TIP3   OH238542   2.793   8.127   6.213
12870TIP3    H138543   2.791   8.209   6.267
12870TIP3    H238544   2.706   8.133   6.168
12871TIP3   OH238545   1.797   8.088   5.706
12871TIP3    H138546   1.752   8.027   5.643
12871TIP3    H238547   1.871   8.032   5.739
12872TIP3   OH238548   1.935   8.465   5.906
12872TIP3    H138549   1.896   8.457   5.817
12872TIP3    H238550   2.030   8.445   5.892
12873TIP3   OH238551   1.912   8.064   6.075
12873TIP3    H138552   1.950   8.037   5.988
12873TIP3    H238553   1.959   8.149   6.092
12874TIP3   OH238554   2.400   7.945   5.128
12874TIP3    H138555   2.459   8.005   5.179
12874TIP3    H238556   2.427   7.965   5.035
12875TIP3   OH238557   2.914   7.187   5.174
12875TIP3    H138558   2.833   7.207   5.225
12875TIP3    H238559   2.927   7.270   5.124
12876TIP3   OH238560   1.656   7.926   5.530
12876TIP3    H138561   1.596   7.973   5.468
12876TIP3    H238562   1.611   7.841   5.539
12877TIP3   OH238563   3.049   8.091   6.392
12877TIP3    H138564   2.964   8.102   6.345
12877TIP3    H238565   3.065   7.995   6.378
12878TIP3   OH238566   2.041   7.319   6.201
12878TIP3    H138567   1.952   7.289   6.174
12878TIP3    H238568   2.016   7.401   6.248
12879TIP3   OH238569   2.577   7.434   6.396
12879TIP3    H138570   2.647   7.410   6.461
12879TIP3    H238571   2.495   7.413   6.444
12880TIP3   OH238572   2.812   7.864   6.310
12880TIP3    H138573   2.767   7.859   6.397
12880TIP3    H238574   2.789   7.953   6.278
12881TIP3   OH238575   2.478   7.978   4.871
12881TIP3    H138576   2.443   7.957   4.782
12881TIP3    H238577   2.540   8.050   4.850
12882TIP3   OH238578   2.192   7.365   5.174
12882TIP3    H138579   2.154   7.364   5.264
12882TIP3    H238580   2.147   7.287   5.137
12883TIP3   OH238581   1.973   7.836   6.218
12883TIP3    H138582   1.933   7.860   6.303
12883TIP3    H238583   1.958   7.918   6.166
12884TIP3   OH238584   1.857   7.720   5.729
12884TIP3    H138585   1.764   7.695   5.748
12884TIP3    H238586   1.867   7.684   5.639
12885TIP3   OH238587   2.349   7.805   5.463
12885TIP3    H138588   2.295   7.874   5.419
12885TIP3    H238589   2.403   7.772   5.389
12886TIP3   OH238590   2.524   8.083   6.536
12886TIP3    H138591   2.504   8.013   6.602
12886TIP3    H238592   2.618   8.101   6.556
12887TIP3   OH238593   2.505   7.835   5.699
12887TIP3    H138594   2.444   7.863   5.628
12887TIP3    H238595   2.540   7.754   5.657
12888TIP3   OH238596   1.792   7.863   6.433
12888TIP3    H138597   1.838   7.903   6.507
12888TIP3    H238598   1.770   7.775   6.469
12889TIP3   OH238599   1.837   7.354   5.136
12889TIP3    H138600   1.822   7.346   5.232
12889TIP3    H238601   1.767   7.419   5.114
12890TIP3   OH238602   1.386   7.385   6.016
12890TIP3    H138603   1.465   7.418   6.062
12890TIP3    H238604   1.419   7.358   5.929
12891TIP3   OH238605   1.354   7.366   5.537
12891TIP3    H138606   1.390   7.407   5.455
12891TIP3    H238607   1.290   7.436   5.560
12892TIP3   OH238608   2.514   8.082   6.121
12892TIP3    H138609   2.548   8.010   6.063
12892TIP3    H238610   2.486   8.029   6.199
12893TIP3   OH238611   2.187   7.545   5.795
12893TIP3    H138612   2.105   7.542   5.848
12893TIP3    H238613   2.256   7.538   5.864
12894TIP3   OH238614   1.618   7.601   5.803
12894TIP3    H138615   1.523   7.610   5.775
12894TIP3    H238616   1.639   7.510   5.777
12895TIP3   OH238617   1.891   7.604   5.476
12895TIP3    H138618   1.988   7.610   5.476
12895TIP3    H238619   1.867   7.634   5.388
12896TIP3   OH238620   2.675   7.621   5.996
12896TIP3    H138621   2.642   7.632   6.089
12896TIP3    H238622   2.609   7.558   5.961
12897TIP3   OH238623   2.268   7.874   5.893
12897TIP3    H138624   2.338   7.832   5.841
12897TIP3    H238625   2.276   7.829   5.979
12898TIP3   OH238626   1.793   7.358   5.772
12898TIP3    H138627   1.756   7.280   5.818
12898TIP3    H238628   1.831   7.318   5.692
12899TIP3   OH238629   2.244   7.769   6.180
12899TIP3    H138630   2.155   7.805   6.196
12899TIP3    H238631   2.302   7.828   6.232
12900TIP3   OH238632   1.985   8.147   5.285
12900TIP3    H138633   1.907   8.088   5.271
12900TIP3    H238634   1.961   8.190   5.370
12901TIP3   OH238635   2.881   8.392   5.909
12901TIP3    H138636   2.908   8.440   5.828
12901TIP3    H238637   2.796   8.352   5.882
12902TIP3   OH238638   2.440   7.471   5.141
12902TIP3    H138639   2.344   7.451   5.149
12902TIP3    H238640   2.446   7.565   5.165
12903TIP3   OH238641   2.416   8.482   6.271
12903TIP3    H138642   2.452   8.437   6.348
12903TIP3    H238643   2.338   8.526   6.310
12904TIP3   OH238644   2.508   7.718   5.246
12904TIP3    H138645   2.605   7.725   5.258
12904TIP3    H238646   2.488   7.797   5.192
12905TIP3   OH238647   1.655   8.142   5.935
12905TIP3    H138648   1.703   8.130   5.851
12905TIP3    H238649   1.714   8.098   5.998
12906TIP3   OH238650   2.093   8.329   5.115
12906TIP3    H138651   2.052   8.399   5.170
12906TIP3    H238652   2.058   8.250   5.162
12907TIP3   OH238653   2.280   8.207   6.587
12907TIP3    H138654   2.247   8.187   6.499
12907TIP3    H238655   2.373   8.183   6.578
12908TIP3   OH238656   2.951   7.811   5.078
12908TIP3    H138657   2.889   7.765   5.016
12908TIP3    H238658   2.947   7.900   5.037
12909TIP3   OH238659   3.168   8.653   6.167
12909TIP3    H138660   3.071   8.660   6.149
12909TIP3    H238661   3.199   8.640   6.074
12910TIP3   OH238662   2.645   8.263   5.812
12910TIP3    H138663   2.554   8.234   5.834
12910TIP3    H238664   2.681   8.179   5.775
12911TIP3   OH238665   1.313   7.822   5.257
12911TIP3    H138666   1.381   7.878   5.298
12911TIP3    H238667   1.259   7.796   5.334
12912TIP3   OH238668   1.914   8.266   5.525
12912TIP3    H138669   1.866   8.344   5.556
12912TIP3    H238670   1.886   8.201   5.593
12913TIP3   OH238671   2.438   8.466   5.997
12913TIP3    H138672   2.430   8.471   6.095
12913TIP3    H238673   2.520   8.415   5.987
12914TIP3   OH238674   2.440   8.294   4.861
12914TIP3    H138675   2.472   8.285   4.953
12914TIP3    H238676   2.355   8.341   4.873
12915TIP3   OH238677   1.767   7.603   6.575
12915TIP3    H138678   1.670   7.598   6.587
12915TIP3    H238679   1.798   7.544   6.647
12916TIP3   OH238680   2.564   8.270   5.107
12916TIP3    H138681   2.560   8.198   5.174
12916TIP3    H238682   2.660   8.272   5.088
12917TIP3   OH238683   1.762   8.294   4.934
12917TIP3    H138684   1.789   8.204   4.906
12917TIP3    H238685   1.777   8.290   5.028
12918TIP3   OH238686   1.468   8.035   5.366
12918TIP3    H138687   1.399   8.071   5.426
12918TIP3    H238688   1.470   8.105   5.298
12919TIP3   OH238689   2.601   7.673   6.257
12919TIP3    H138690   2.684   7.710   6.292
12919TIP3    H238691   2.591   7.591   6.310
12920TIP3   OH238692   2.484   7.421   5.422
12920TIP3    H138693   2.469   7.444   5.328
12920TIP3    H238694   2.523   7.504   5.457
12921TIP3   OH238695   2.167   7.604   5.525
12921TIP3    H138696   2.233   7.674   5.506
12921TIP3    H238697   2.176   7.595   5.623
12922TIP3   OH238698   2.438   7.919   6.327
12922TIP3    H138699   2.463   7.974   6.404
12922TIP3    H238700   2.495   7.841   6.338
12923TIP3   OH238701   2.315   7.328   5.625
12923TIP3    H138702   2.309   7.405   5.684
12923TIP3    H238703   2.377   7.362   5.556
12924TIP3   OH238704   1.827   7.328   5.418
12924TIP3    H138705   1.824   7.421   5.447
12924TIP3    H238706   1.923   7.312   5.421
12925TIP3   OH238707   3.080   7.826   6.305
12925TIP3    H138708   2.982   7.824   6.312
12925TIP3    H238709   3.092   7.764   6.232
12926TIP3   OH238710   2.731   8.017   5.701
12926TIP3    H138711   2.655   7.957   5.712
12926TIP3    H238712   2.802   7.968   5.749
12927TIP3   OH238713   1.448   8.246   5.174
12927TIP3    H138714   1.482   8.336   5.162
12927TIP3    H238715   1.503   8.194   5.111
12928TIP3   OH238716   1.377   7.521   5.315
12928TIP3    H138717   1.455   7.558   5.271
12928TIP3    H238718   1.321   7.502   5.239
12929TIP3   OH238719   1.776   7.241   6.175
12929TIP3    H138720   1.746   7.207   6.088
12929TIP3    H238721   1.765   7.162   6.232
12930TIP3   OH238722   1.577   8.054   5.027
12930TIP3    H138723   1.617   8.000   5.097
12930TIP3    H238724   1.650   8.052   4.961
12931TIP3   OH238725   2.040   8.235   4.833
12931TIP3    H138726   2.060   8.248   4.927
12931TIP3    H238727   2.066   8.141   4.821
12932TIP3   OH238728   2.704   8.488   6.205
12932TIP3    H138729   2.761   8.554   6.162
12932TIP3    H238730   2.618   8.533   6.206
12933TIP3   OH238731   1.778   7.972   5.249
12933TIP3    H138732   1.745   7.917   5.322
12933TIP3    H238733   1.823   7.903   5.194
12934TIP3   OH238734   2.060   8.007   6.461
12934TIP3    H138735   2.034   8.088   6.508
12934TIP3    H238736   2.114   8.045   6.389
12935TIP3   OH238737   1.904   7.784   5.106
12935TIP3    H138738   1.845   7.721   5.063
12935TIP3    H238739   1.991   7.768   5.065
12936TIP3   OH238740   2.572   8.407   6.563
12936TIP3    H138741   2.667   8.418   6.553
12936TIP3    H238742   2.564   8.368   6.651
12937TIP3   OH238743   2.712   8.095   4.743
12937TIP3    H138744   2.686   8.041   4.666
12937TIP3    H238745   2.689   8.184   4.709
12938TIP3   OH238746   2.189   7.807   6.589
12938TIP3    H138747   2.189   7.727   6.533
12938TIP3    H238748   2.146   7.873   6.529
12939TIP3   OH238749   2.185   7.599   6.403
12939TIP3    H138750   2.212   7.638   6.317
12939TIP3    H238751   2.091   7.575   6.385
12940TIP3   OH238752   2.211   8.142   6.284
12940TIP3    H138753   2.292   8.144   6.232
12940TIP3    H238754   2.154   8.207   6.237
12941TIP3   OH238755   2.796   8.100   6.635
12941TIP3    H138756   2.842   8.014   6.637
12941TIP3    H238757   2.871   8.161   6.625
12942TIP3   OH238758   2.838   8.349   6.391
12942TIP3    H138759   2.778   8.402   6.332
12942TIP3    H238760   2.925   8.371   6.351
12943TIP3   OH238761   2.049   7.913   6.806
12943TIP3    H138762   1.991   7.835   6.813
12943TIP3    H238763   2.092   7.899   6.719
12944TIP3   OH238764   2.316   7.364   6.475
12944TIP3    H138765   2.267   7.446   6.451
12944TIP3    H238766   2.247   7.296   6.462
12945TIP3   OH238767   2.447   7.863   6.679
12945TIP3    H138768   2.423   7.845   6.772
12945TIP3    H238769   2.360   7.844   6.638
12946TIP3   OH238770   2.689   7.815   6.544
12946TIP3    H138771   2.610   7.817   6.601
12946TIP3    H238772   2.756   7.769   6.601
12947TIP3   OH238773   2.909   7.727   6.702
12947TIP3    H138774   2.953   7.639   6.714
12947TIP3    H238775   2.914   7.765   6.792
12948TIP3   OH238776   1.894   7.704   6.881
12948TIP3    H138777   1.881   7.620   6.833
12948TIP3    H238778   1.941   7.671   6.960
12949TIP3   OH238779   2.409   7.369   6.734
12949TIP3    H138780   2.480   7.301   6.724
12949TIP3    H238781   2.370   7.365   6.644
12950TIP3   OH238782   2.479   7.586   6.888
12950TIP3    H138783   2.462   7.511   6.826
12950TIP3    H238784   2.399   7.640   6.876
12951TIP3   OH238785   1.185   8.166   5.202
12951TIP3    H138786   1.275   8.194   5.178
12951TIP3    H238787   1.176   8.083   5.149
12952TIP3   OH238788   2.838   8.265   5.086
12952TIP3    H138789   2.909   8.325   5.054
12952TIP3    H238790   2.882   8.225   5.164
12953TIP3   OH238791   2.972   8.136   5.284
12953TIP3    H138792   2.909   8.093   5.346
12953TIP3    H238793   3.041   8.172   5.344
12954TIP3   OH238794   3.014   8.525   5.713
12954TIP3    H138795   3.080   8.471   5.665
12954TIP3    H238796   3.013   8.609   5.665
12955TIP3   OH238797   2.909   8.048   4.929
12955TIP3    H138798   2.838   8.053   4.861
12955TIP3    H238799   2.882   8.123   4.986
12956TIP3   OH238800   2.785   7.719   4.884
12956TIP3    H138801   2.736   7.759   4.811
12956TIP3    H238802   2.760   7.624   4.874
12957TIP3   OH238803   2.788   7.994   5.432
12957TIP3    H138804   2.796   7.897   5.425
12957TIP3    H238805   2.774   8.006   5.529
12958TIP3   OH238806   1.422   8.043   6.184
12958TIP3    H138807   1.415   8.041   6.087
12958TIP3    H238808   1.512   8.079   6.198
12959TIP3   OH238809   3.081   8.420   6.293
12959TIP3    H138810   3.151   8.352   6.281
12959TIP3    H238811   3.105   8.487   6.227
12960TIP3   OH238812   3.265   8.224   6.299
12960TIP3    H138813   3.190   8.175   6.338
12960TIP3    H238814   3.337   8.159   6.317
12961TIP3   OH238815   2.726   7.453   4.868
12961TIP3    H138816   2.799   7.422   4.926
12961TIP3    H238817   2.651   7.396   4.893
12962TIP3   OH238818   2.785   7.714   5.324
12962TIP3    H138819   2.825   7.625   5.340
12962TIP3    H238820   2.843   7.746   5.253
12963TIP3   OH238821   2.943   7.885   5.819
12963TIP3    H138822   3.030   7.911   5.779
12963TIP3    H238823   2.958   7.921   5.909
12964TIP3   OH238824   3.013   8.031   6.050
12964TIP3    H138825   2.937   8.063   6.101
12964TIP3    H238826   3.046   8.113   6.007
12965TIP3   OH238827   3.501   7.643   6.608
12965TIP3    H138828   3.528   7.559   6.567
12965TIP3    H238829   3.442   7.679   6.540
12966TIP3   OH238830   2.893   7.463   5.362
12966TIP3    H138831   2.940   7.446   5.447
12966TIP3    H238832   2.832   7.386   5.360
12967TIP3   OH238833   1.592   7.449   6.192
12967TIP3    H138834   1.655   7.374   6.196
12967TIP3    H238835   1.654   7.523   6.180
12968TIP3   OH238836   1.394   7.744   6.261
12968TIP3    H138837   1.443   7.724   6.178
12968TIP3    H238838   1.405   7.840   6.264
12969TIP3   OH238839   3.336   7.757   6.416
12969TIP3    H138840   3.248   7.790   6.437
12969TIP3    H238841   3.312   7.677   6.365
12970TIP3   OH238842   2.972   7.396   4.997
12970TIP3    H138843   3.012   7.325   4.943
12970TIP3    H238844   3.039   7.467   4.990
12971TIP3   OH238845   1.379   7.227   5.766
12971TIP3    H138846   1.284   7.220   5.787
12971TIP3    H238847   1.377   7.283   5.685
12972TIP3   OH238848   1.601   7.304   6.557
12972TIP3    H138849   1.548   7.297   6.639
12972TIP3    H238850   1.534   7.341   6.497
12973TIP3   OH238851   3.246   7.530   6.277
12973TIP3    H138852   3.150   7.519   6.283
12973TIP3    H238853   3.275   7.436   6.282
12974TIP3   OH238854   2.439   7.438   5.910
12974TIP3    H138855   2.397   7.367   5.963
12974TIP3    H238856   2.513   7.391   5.867
12975TIP3   OH238857   2.962   7.317   5.814
12975TIP3    H138858   2.998   7.370   5.740
12975TIP3    H238859   2.867   7.338   5.810
12976TIP3   OH238860   3.058   7.419   5.579
12976TIP3    H138861   3.132   7.368   5.541
12976TIP3    H238862   3.092   7.511   5.564
12977TIP3   OH238863   1.688   7.147   5.928
12977TIP3    H138864   1.596   7.116   5.927
12977TIP3    H238865   1.737   7.062   5.924
12978TIP3   OH238866   1.481   7.016   5.576
12978TIP3    H138867   1.511   7.072   5.501
12978TIP3    H238868   1.449   7.083   5.639
12979TIP3   OH238869   2.135   7.178   5.808
12979TIP3    H138870   2.192   7.227   5.747
12979TIP3    H238871   2.159   7.216   5.893
12980TIP3   OH238872   2.678   7.327   5.792
12980TIP3    H138873   2.678   7.288   5.704
12980TIP3    H238874   2.666   7.247   5.849
12981TIP3   OH238875   2.710   7.250   5.354
12981TIP3    H138876   2.623   7.293   5.368
12981TIP3    H238877   2.695   7.164   5.400
12982TIP3   OH238878   1.597   7.166   5.356
12982TIP3    H138879   1.639   7.114   5.286
12982TIP3    H238880   1.669   7.228   5.381
12983TIP3   OH238881   2.104   7.353   5.437
12983TIP3    H138882   2.164   7.306   5.497
12983TIP3    H238883   2.126   7.445   5.462
12984TIP3   OH238884   1.908   7.435   6.798
12984TIP3    H138885   1.854   7.385   6.861
12984TIP3    H238886   1.998   7.425   6.835
12985TIP3   OH238887   2.153   7.416   6.930
12985TIP3    H138888   2.236   7.391   6.887
12985TIP3    H238889   2.142   7.342   6.994
12986TIP3   OH238890   4.168   8.394   4.999
12986TIP3    H138891   4.136   8.484   4.977
12986TIP3    H238892   4.104   8.343   4.947
12987TIP3   OH238893   4.166   8.413   5.370
12987TIP3    H138894   4.207   8.385   5.454
12987TIP3    H238895   4.168   8.333   5.316
12988TIP3   OH238896   3.486   8.312   5.717
12988TIP3    H138897   3.509   8.241   5.780
12988TIP3    H238898   3.532   8.387   5.757
12989TIP3   OH238899   4.391   8.715   5.058
12989TIP3    H138900   4.402   8.642   5.121
12989TIP3    H238901   4.452   8.781   5.094
12990TIP3   OH238902   3.515   8.627   5.545
12990TIP3    H138903   3.441   8.615   5.485
12990TIP3    H238904   3.587   8.658   5.484
12991TIP3   OH238905   3.159   7.920   5.239
12991TIP3    H138906   3.110   8.003   5.253
12991TIP3    H238907   3.089   7.865   5.200
12992TIP3   OH238908   3.208   8.206   5.413
12992TIP3    H138909   3.256   8.127   5.448
12992TIP3    H238910   3.280   8.255   5.371
12993TIP3   OH238911   3.986   8.624   5.411
12993TIP3    H138912   4.038   8.548   5.379
12993TIP3    H238913   4.062   8.681   5.436
12994TIP3   OH238914   4.993   7.943   5.395
12994TIP3    H138915   5.005   8.019   5.456
12994TIP3    H238916   5.022   7.986   5.312
12995TIP3   OH238917   4.375   8.136   5.443
12995TIP3    H138918   4.422   8.054   5.467
12995TIP3    H238919   4.351   8.118   5.350
12996TIP3   OH238920   3.722   7.795   5.410
12996TIP3    H138921   3.687   7.858   5.344
12996TIP3    H238922   3.679   7.714   5.376
12997TIP3   OH238923   4.420   7.894   5.033
12997TIP3    H138924   4.495   7.877   5.095
12997TIP3    H238925   4.470   7.927   4.955
12998TIP3   OH238926   3.357   8.000   5.520
12998TIP3    H138927   3.439   7.977   5.567
12998TIP3    H238928   3.369   7.947   5.439
12999TIP3   OH238929   5.025   8.144   5.590
12999TIP3    H138930   4.959   8.212   5.565
12999TIP3    H238931   5.095   8.202   5.627
13000TIP3   OH238932   3.722   7.781   5.845
13000TIP3    H138933   3.658   7.816   5.780
13000TIP3    H238934   3.671   7.796   5.928
13001TIP3   OH238935   4.049   8.600   4.860
13001TIP3    H138936   4.025   8.595   4.767
13001TIP3    H238937   4.087   8.690   4.867
13002TIP3   OH238938   3.819   8.562   5.647
13002TIP3    H138939   3.752   8.627   5.678
13002TIP3    H238940   3.857   8.609   5.571
13003TIP3   OH238941   4.628   7.891   5.212
13003TIP3    H138942   4.602   7.856   5.297
13003TIP3    H238943   4.680   7.971   5.237
13004TIP3   OH238944   3.590   7.896   5.630
13004TIP3    H138945   3.652   7.969   5.653
13004TIP3    H238946   3.641   7.853   5.557
13005TIP3   OH238947   3.657   8.779   5.745
13005TIP3    H138948   3.613   8.779   5.659
13005TIP3    H238949   3.578   8.768   5.803
13006TIP3   OH238950   3.048   8.408   4.981
13006TIP3    H138951   3.014   8.415   4.889
13006TIP3    H238952   3.062   8.502   4.999
13007TIP3   OH238953   4.775   7.831   5.541
13007TIP3    H138954   4.689   7.877   5.536
13007TIP3    H238955   4.834   7.894   5.498
13008TIP3   OH238956   4.075   7.497   5.560
13008TIP3    H138957   4.062   7.403   5.580
13008TIP3    H238958   3.998   7.536   5.607
13009TIP3   OH238959   4.415   8.733   4.773
13009TIP3    H138960   4.399   8.654   4.720
13009TIP3    H238961   4.434   8.697   4.862
13010TIP3   OH238962   4.709   8.867   5.561
13010TIP3    H138963   4.700   8.791   5.500
13010TIP3    H238964   4.739   8.938   5.500
13011TIP3   OH238965   4.011   8.260   4.819
13011TIP3    H138966   3.929   8.310   4.797
13011TIP3    H238967   4.056   8.257   4.732
13012TIP3   OH238968   3.967   8.047   4.531
13012TIP3    H138969   4.035   8.100   4.577
13012TIP3    H238970   4.024   7.984   4.483
13013TIP3   OH238971   4.915   8.509   5.401
13013TIP3    H138972   4.831   8.559   5.405
13013TIP3    H238973   4.943   8.530   5.309
13014TIP3   OH238974   4.346   8.339   4.792
13014TIP3    H138975   4.298   8.363   4.874
13014TIP3    H238976   4.432   8.308   4.830
13015TIP3   OH238977   4.588   8.386   5.699
13015TIP3    H138978   4.588   8.465   5.756
13015TIP3    H238979   4.502   8.397   5.654
13016TIP3   OH238980   3.719   8.709   5.392
13016TIP3    H138981   3.696   8.718   5.299
13016TIP3    H238982   3.816   8.721   5.391
13017TIP3   OH238983   3.758   8.321   5.534
13017TIP3    H138984   3.789   8.367   5.456
13017TIP3    H238985   3.766   8.394   5.599
13018TIP3   OH238986   3.899   8.774   5.882
13018TIP3    H138987   3.869   8.864   5.907
13018TIP3    H238988   3.823   8.747   5.828
13019TIP3   OH238989   4.188   8.204   4.612
13019TIP3    H138990   4.251   8.260   4.663
13019TIP3    H238991   4.218   8.222   4.520
13020TIP3   OH238992   3.608   8.430   5.972
13020TIP3    H138993   3.619   8.515   6.020
13020TIP3    H238994   3.517   8.407   5.999
13021TIP3   OH238995   4.710   7.447   4.657
13021TIP3    H138996   4.630   7.470   4.708
13021TIP3    H238997   4.725   7.529   4.605
13022TIP3   OH238998   3.459   8.172   4.992
13022TIP3    H138999   3.394   8.226   4.943
13022TIP3    H239000   3.405   8.100   5.023
13023TIP3   OH239001   3.249   8.569   5.919
13023TIP3    H139002   3.177   8.552   5.856
13023TIP3    H239003   3.278   8.480   5.945
13024TIP3   OH239004   4.844   8.357   5.889
13024TIP3    H139005   4.776   8.360   5.821
13024TIP3    H239006   4.874   8.265   5.885
13025TIP3   OH239007   3.443   8.766   5.913
13025TIP3    H139008   3.493   8.733   5.991
13025TIP3    H239009   3.368   8.702   5.910
13026TIP3   OH239010   3.837   7.579   5.687
13026TIP3    H139011   3.749   7.546   5.662
13026TIP3    H239012   3.810   7.658   5.739
13027TIP3   OH239013   4.372   7.689   5.882
13027TIP3    H139014   4.439   7.666   5.950
13027TIP3    H239015   4.287   7.672   5.929
13028TIP3   OH239016   4.609   8.120   5.792
13028TIP3    H139017   4.567   8.117   5.881
13028TIP3    H239018   4.590   8.212   5.764
13029TIP3   OH239019   4.267   8.234   4.357
13029TIP3    H139020   4.241   8.215   4.265
13029TIP3    H239021   4.346   8.291   4.340
13030TIP3   OH239022   3.982   7.625   4.659
13030TIP3    H139023   3.948   7.622   4.750
13030TIP3    H239024   3.945   7.542   4.624
13031TIP3   OH239025   3.766   8.096   5.698
13031TIP3    H139026   3.718   8.117   5.781
13031TIP3    H239027   3.755   8.179   5.646
13032TIP3   OH239028   3.688   7.995   5.223
13032TIP3    H139029   3.591   7.998   5.240
13032TIP3    H239030   3.684   7.953   5.133
13033TIP3   OH239031   4.144   8.059   4.947
13033TIP3    H139032   4.094   8.131   4.902
13033TIP3    H239033   4.204   8.031   4.875
13034TIP3   OH239034   4.321   8.338   6.029
13034TIP3    H139035   4.299   8.268   6.095
13034TIP3    H239036   4.414   8.357   6.055
13035TIP3   OH239037   4.294   8.093   5.184
13035TIP3    H139038   4.242   8.123   5.106
13035TIP3    H239039   4.333   8.012   5.144
13036TIP3   OH239040   3.589   8.119   5.912
13036TIP3    H139041   3.615   8.181   5.981
13036TIP3    H239042   3.575   8.037   5.963
13037TIP3   OH239043   3.638   7.598   4.625
13037TIP3    H139044   3.628   7.596   4.722
13037TIP3    H239045   3.561   7.651   4.599
13038TIP3   OH239046   3.181   7.644   5.494
13038TIP3    H139047   3.257   7.673   5.548
13038TIP3    H239048   3.221   7.609   5.414
13039TIP3   OH239049   3.152   7.624   5.015
13039TIP3    H139050   3.196   7.662   4.936
13039TIP3    H239051   3.091   7.696   5.037
13040TIP3   OH239052   4.303   8.337   5.605
13040TIP3    H139053   4.339   8.264   5.550
13040TIP3    H239054   4.279   8.287   5.686
13041TIP3   OH239055   3.971   7.834   5.293
13041TIP3    H139056   3.899   7.790   5.342
13041TIP3    H239057   4.050   7.799   5.339
13042TIP3   OH239058   3.428   7.866   5.288
13042TIP3    H139059   3.333   7.874   5.260
13042TIP3    H239060   3.448   7.774   5.264
13043TIP3   OH239061   3.684   7.866   4.985
13043TIP3    H139062   3.776   7.868   4.954
13043TIP3    H239063   3.632   7.881   4.903
13044TIP3   OH239064   4.474   7.877   5.479
13044TIP3    H139065   4.441   7.888   5.572
13044TIP3    H239066   4.410   7.813   5.444
13045TIP3   OH239067   3.532   7.879   4.759
13045TIP3    H139068   3.459   7.839   4.709
13045TIP3    H239069   3.583   7.920   4.685
13046TIP3   OH239070   3.601   8.674   6.125
13046TIP3    H139071   3.682   8.701   6.173
13046TIP3    H239072   3.538   8.670   6.200
13047TIP3   OH239073   4.024   8.105   5.360
13047TIP3    H139074   4.110   8.091   5.318
13047TIP3    H239075   4.046   8.091   5.455
13048TIP3   OH239076   3.590   7.612   5.261
13048TIP3    H139077   3.550   7.535   5.308
13048TIP3    H239078   3.631   7.569   5.185
13049TIP3   OH239079   4.037   8.036   5.659
13049TIP3    H139080   3.949   8.069   5.686
13049TIP3    H239081   4.098   8.088   5.715
13050TIP3   OH239082   3.778   8.400   4.771
13050TIP3    H139083   3.700   8.342   4.755
13050TIP3    H239084   3.756   8.436   4.860
13051TIP3   OH239085   4.680   8.648   5.395
13051TIP3    H139086   4.709   8.697   5.314
13051TIP3    H239087   4.595   8.609   5.366
13052TIP3   OH239088   4.237   7.725   4.634
13052TIP3    H139089   4.140   7.712   4.635
13052TIP3    H239090   4.248   7.821   4.649
13053TIP3   OH239091   4.186   8.751   5.762
13053TIP3    H139092   4.217   8.706   5.843
13053TIP3    H239093   4.108   8.797   5.795
13054TIP3   OH239094   4.306   7.977   4.732
13054TIP3    H139095   4.403   7.980   4.742
13054TIP3    H239096   4.289   8.052   4.672
13055TIP3   OH239097   3.455   8.362   5.420
13055TIP3    H139098   3.524   8.424   5.397
13055TIP3    H239099   3.478   8.343   5.513
13056TIP3   OH239100   3.891   8.588   4.608
13056TIP3    H139101   3.849   8.657   4.663
13056TIP3    H239102   3.855   8.508   4.652
13057TIP3   OH239103   3.354   8.349   6.053
13057TIP3    H139104   3.370   8.336   6.148
13057TIP3    H239105   3.283   8.285   6.037
13058TIP3   OH239106   4.080   8.462   6.078
13058TIP3    H139107   4.019   8.407   6.026
13058TIP3    H239108   4.167   8.431   6.046
13059TIP3   OH239109   4.966   8.903   5.656
13059TIP3    H139110   4.869   8.916   5.646
13059TIP3    H239111   4.990   8.894   5.561
13060TIP3   OH239112   4.446   8.523   5.302
13060TIP3    H139113   4.354   8.499   5.323
13060TIP3    H239114   4.479   8.438   5.265
13061TIP3   OH239115   3.136   8.045   4.769
13061TIP3    H139116   3.182   8.129   4.788
13061TIP3    H239117   3.057   8.053   4.828
13062TIP3   OH239118   3.705   8.503   5.017
13062TIP3    H139119   3.689   8.598   5.014
13062TIP3    H239120   3.648   8.475   5.089
13063TIP3   OH239121   4.231   8.717   5.491
13063TIP3    H139122   4.220   8.728   5.588
13063TIP3    H239123   4.321   8.684   5.485
13064TIP3   OH239124   4.237   8.551   4.349
13064TIP3    H139125   4.272   8.541   4.440
13064TIP3    H239126   4.156   8.603   4.364
13065TIP3   OH239127   3.562   7.864   6.059
13065TIP3    H139128   3.465   7.867   6.073
13065TIP3    H239129   3.590   7.806   6.132
13066TIP3   OH239130   4.357   8.530   4.597
13066TIP3    H139131   4.357   8.456   4.661
13066TIP3    H239132   4.453   8.533   4.573
13067TIP3   OH239133   3.546   8.543   4.424
13067TIP3    H139134   3.589   8.461   4.394
13067TIP3    H239135   3.594   8.562   4.505
13068TIP3   OH239136   3.256   8.288   4.847
13068TIP3    H139137   3.188   8.326   4.907
13068TIP3    H239138   3.262   8.361   4.781
13069TIP3   OH239139   4.401   7.923   5.737
13069TIP3    H139140   4.475   7.971   5.780
13069TIP3    H239141   4.388   7.847   5.797
13070TIP3   OH239142   4.275   7.682   4.910
13070TIP3    H139143   4.264   7.701   4.814
13070TIP3    H239144   4.319   7.764   4.941
13071TIP3   OH239145   3.966   7.861   5.012
13071TIP3    H139146   4.035   7.927   4.986
13071TIP3    H239147   3.983   7.849   5.107
13072TIP3   OH239148   4.238   8.176   5.817
13072TIP3    H139149   4.259   8.233   5.894
13072TIP3    H239150   4.294   8.099   5.834
13073TIP3   OH239151   4.111   7.587   5.110
13073TIP3    H139152   4.134   7.651   5.179
13073TIP3    H239153   4.171   7.618   5.038
13074TIP3   OH239154   3.622   7.584   4.902
13074TIP3    H139155   3.616   7.675   4.938
13074TIP3    H239156   3.719   7.569   4.909
13075TIP3   OH239157   4.876   8.056   5.807
13075TIP3    H139158   4.780   8.069   5.794
13075TIP3    H239159   4.915   8.085   5.723
13076TIP3   OH239160   4.529   8.276   5.198
13076TIP3    H139161   4.456   8.211   5.195
13076TIP3    H239162   4.601   8.225   5.240
13077TIP3   OH239163   3.247   8.504   4.663
13077TIP3    H139164   3.274   8.597   4.649
13077TIP3    H239165   3.300   8.457   4.595
13078TIP3   OH239166   3.185   7.775   4.790
13078TIP3    H139167   3.185   7.873   4.787
13078TIP3    H239168   3.103   7.754   4.745
13079TIP3   OH239169   3.575   7.496   5.661
13079TIP3    H139170   3.542   7.462   5.576
13079TIP3    H239171   3.564   7.419   5.720
13080TIP3   OH239172   3.398   8.652   6.314
13080TIP3    H139173   3.424   8.558   6.314
13080TIP3    H239174   3.313   8.648   6.264
13081TIP3   OH239175   3.371   8.305   4.513
13081TIP3    H139176   3.423   8.270   4.587
13081TIP3    H239177   3.442   8.313   4.446
13082TIP3   OH239178   4.020   8.726   6.118
13082TIP3    H139179   3.985   8.740   6.027
13082TIP3    H239180   4.056   8.636   6.110
13083TIP3   OH239181   3.817   8.482   4.334
13083TIP3    H139182   3.870   8.508   4.410
13083TIP3    H239183   3.852   8.392   4.315
13084TIP3   OH239184   4.498   8.749   5.691
13084TIP3    H139185   4.566   8.803   5.646
13084TIP3    H239186   4.423   8.811   5.689
13085TIP3   OH239187   3.521   8.399   6.294
13085TIP3    H139188   3.591   8.336   6.273
13085TIP3    H239189   3.550   8.429   6.383
13086TIP3   OH239190   3.576   8.215   4.727
13086TIP3    H139191   3.550   8.175   4.812
13086TIP3    H239192   3.616   8.140   4.679
13087TIP3   OH239193   3.853   8.281   5.953
13087TIP3    H139194   3.778   8.343   5.957
13087TIP3    H239195   3.904   8.316   5.877
13088TIP3   OH239196   3.688   8.010   4.574
13088TIP3    H139197   3.661   8.011   4.480
13088TIP3    H239198   3.785   8.018   4.565
13089TIP3   OH239199   4.374   8.671   6.088
13089TIP3    H139200   4.459   8.654   6.046
13089TIP3    H239201   4.375   8.609   6.164
13090TIP3   OH239202   4.491   8.346   4.227
13090TIP3    H139203   4.475   8.297   4.145
13090TIP3    H239204   4.478   8.438   4.196
13091TIP3   OH239205   3.977   8.072   6.085
13091TIP3    H139206   3.977   7.991   6.029
13091TIP3    H239207   3.933   8.137   6.026
13092TIP3   OH239208   3.981   7.858   5.889
13092TIP3    H139209   4.006   7.896   5.803
13092TIP3    H239210   3.887   7.834   5.873
13093TIP3   OH239211   4.003   8.391   5.758
13093TIP3    H139212   4.088   8.403   5.715
13093TIP3    H239213   3.950   8.464   5.720
13094TIP3   OH239214   4.592   8.360   6.144
13094TIP3    H139215   4.641   8.278   6.158
13094TIP3    H239216   4.661   8.419   6.111
13095TIP3   OH239217   4.633   8.609   5.877
13095TIP3    H139218   4.579   8.665   5.817
13095TIP3    H239219   4.723   8.625   5.841
13096TIP3   OH239220   3.852   8.181   6.313
13096TIP3    H139221   3.786   8.111   6.330
13096TIP3    H239222   3.889   8.153   6.227
13097TIP3   OH239223   4.111   7.620   5.958
13097TIP3    H139224   4.062   7.702   5.937
13097TIP3    H239225   4.041   7.553   5.949
13098TIP3   OH239226   4.239   8.124   6.175
13098TIP3    H139227   4.228   8.113   6.272
13098TIP3    H239228   4.148   8.100   6.146
13099TIP3   OH239229   4.475   8.068   6.024
13099TIP3    H139230   4.402   8.074   6.088
13099TIP3    H239231   4.550   8.042   6.082
13100TIP3   OH239232   4.698   8.009   6.179
13100TIP3    H139233   4.714   7.915   6.200
13100TIP3    H239234   4.696   8.051   6.268
13101TIP3   OH239235   3.696   7.960   6.368
13101TIP3    H139236   3.698   7.868   6.336
13101TIP3    H239237   3.731   7.948   6.459
13102TIP3   OH239238   4.208   7.630   6.215
13102TIP3    H139239   4.273   7.558   6.209
13102TIP3    H239240   4.166   7.624   6.127
13103TIP3   OH239241   4.271   7.844   6.377
13103TIP3    H139242   4.248   7.774   6.312
13103TIP3    H239243   4.193   7.903   6.371
13104TIP3   OH239244   2.983   8.408   4.708
13104TIP3    H139245   3.061   8.454   4.673
13104TIP3    H239246   2.971   8.336   4.643
13105TIP3   OH239247   4.851   9.048   5.938
13105TIP3    H139248   4.774   9.017   5.990
13105TIP3    H239249   4.901   9.093   6.009
13106TIP3   OH239250   4.623   8.545   4.576
13106TIP3    H139251   4.704   8.580   4.535
13106TIP3    H239252   4.663   8.502   4.656
13107TIP3   OH239253   4.743   8.436   4.792
13107TIP3    H139254   4.718   8.344   4.806
13107TIP3    H239255   4.836   8.437   4.822
13108TIP3   OH239256   4.813   8.783   5.201
13108TIP3    H139257   4.874   8.725   5.151
13108TIP3    H239258   4.811   8.864   5.147
13109TIP3   OH239259   4.525   7.976   4.391
13109TIP3    H139260   4.545   8.029   4.313
13109TIP3    H239261   4.533   7.885   4.358
13110TIP3   OH239262   4.564   8.238   4.918
13110TIP3    H139263   4.595   8.146   4.913
13110TIP3    H239264   4.576   8.261   5.012
13111TIP3   OH239265   3.213   8.331   5.663
13111TIP3    H139266   3.206   8.293   5.573
13111TIP3    H239267   3.311   8.330   5.675
13112TIP3   OH239268   4.887   8.662   5.779
13112TIP3    H139269   4.945   8.591   5.747
13112TIP3    H239270   4.910   8.735   5.719
13113TIP3   OH239271   4.535   7.700   4.341
13113TIP3    H139272   4.608   7.684   4.405
13113TIP3    H239273   4.460   7.655   4.382
13114TIP3   OH239274   4.581   7.967   4.814
13114TIP3    H139275   4.624   7.878   4.823
13114TIP3    H239276   4.638   8.006   4.746
13115TIP3   OH239277   4.742   8.136   5.309
13115TIP3    H139278   4.827   8.164   5.265
13115TIP3    H239279   4.754   8.181   5.394
13116TIP3   OH239280   4.800   8.292   5.532
13116TIP3    H139281   4.725   8.329   5.584
13116TIP3    H239282   4.839   8.373   5.491
13117TIP3   OH239283   3.429   8.012   6.343
13117TIP3    H139284   3.526   8.003   6.345
13117TIP3    H239285   3.403   7.925   6.381
13118TIP3   OH239286   5.266   7.869   6.095
13118TIP3    H139287   5.325   7.809   6.045
13118TIP3    H239288   5.230   7.925   6.022
13119TIP3   OH239289   4.685   7.717   4.855
13119TIP3    H139290   4.735   7.697   4.936
13119TIP3    H239291   4.626   7.641   4.849
13120TIP3   OH239292   3.389   7.703   5.666
13120TIP3    H139293   3.450   7.629   5.679
13120TIP3    H239294   3.451   7.778   5.664
13121TIP3   OH239295   3.189   7.978   5.741
13121TIP3    H139296   3.239   7.974   5.657
13121TIP3    H239297   3.221   8.061   5.779
13122TIP3   OH239298   5.132   8.006   5.914
13122TIP3    H139299   5.059   8.069   5.929
13122TIP3    H239300   5.095   7.956   5.839
13123TIP3   OH239301   4.768   7.656   4.488
13123TIP3    H139302   4.813   7.590   4.432
13123TIP3    H239303   4.830   7.733   4.483
13124TIP3   OH239304   3.175   7.483   5.245
13124TIP3    H139305   3.082   7.478   5.271
13124TIP3    H239306   3.171   7.541   5.165
13125TIP3   OH239307   3.398   7.563   6.048
13125TIP3    H139308   3.350   7.554   6.133
13125TIP3    H239309   3.328   7.601   5.992
13126TIP3   OH239310   5.036   7.776   5.773
13126TIP3    H139311   4.941   7.784   5.755
13126TIP3    H239312   5.054   7.681   5.756
13127TIP3   OH239313   4.215   7.690   5.381
13127TIP3    H139314   4.189   7.622   5.447
13127TIP3    H239315   4.301   7.654   5.350
13128TIP3   OH239316   4.886   7.683   5.142
13128TIP3    H139317   4.924   7.619   5.081
13128TIP3    H239318   4.888   7.761   5.094
13129TIP3   OH239319   3.485   7.403   5.413
13129TIP3    H139320   3.393   7.370   5.415
13129TIP3    H239321   3.534   7.318   5.410
13130TIP3   OH239322   3.273   7.274   5.064
13130TIP3    H139323   3.302   7.331   4.990
13130TIP3    H239324   3.244   7.340   5.129
13131TIP3   OH239325   3.928   7.439   5.295
13131TIP3    H139326   3.990   7.483   5.234
13131TIP3    H239327   3.959   7.469   5.381
13132TIP3   OH239328   4.450   7.590   5.286
13132TIP3    H139329   4.490   7.561   5.202
13132TIP3    H239330   4.453   7.506   5.338
13133TIP3   OH239331   4.506   7.507   4.844
13133TIP3    H139332   4.417   7.547   4.851
13133TIP3    H239333   4.490   7.419   4.886
13134TIP3   OH239334   3.389   7.432   4.825
13134TIP3    H139335   3.437   7.369   4.768
13134TIP3    H239336   3.463   7.486   4.861
13135TIP3   OH239337   3.898   7.611   4.924
13135TIP3    H139338   3.959   7.562   4.983
13135TIP3    H239339   3.923   7.703   4.948
13136TIP3   OH239340   3.693   7.688   6.303
13136TIP3    H139341   3.653   7.621   6.362
13136TIP3    H239342   3.786   7.685   6.333
13137TIP3   OH239343   3.941   7.682   6.425
13137TIP3    H139344   4.026   7.653   6.389
13137TIP3    H239345   3.924   7.612   6.492
13138TIP3   OH239346   4.768   7.741   6.210
13138TIP3    H139347   4.787   7.714   6.302
13138TIP3    H239348   4.857   7.741   6.170
13139TIP3   OH239349   5.975   8.653   4.477
13139TIP3    H139350   5.940   8.741   4.450
13139TIP3    H239351   5.902   8.598   4.445
13140TIP3   OH239352   5.965   8.663   4.853
13140TIP3    H139353   5.998   8.633   4.940
13140TIP3    H239354   5.922   8.582   4.821
13141TIP3   OH239355   5.268   8.560   5.218
13141TIP3    H139356   5.305   8.493   5.278
13141TIP3    H239357   5.343   8.621   5.211
13142TIP3   OH239358   6.191   8.965   4.542
13142TIP3    H139359   6.189   8.892   4.608
13142TIP3    H239360   6.242   9.032   4.591
13143TIP3   OH239361   5.293   8.915   5.012
13143TIP3    H139362   5.271   8.824   4.984
13143TIP3    H239363   5.381   8.927   4.969
13144TIP3   OH239364   5.004   8.460   4.903
13144TIP3    H139365   5.053   8.380   4.932
13144TIP3    H239366   5.058   8.491   4.830
13145TIP3   OH239367   5.784   8.883   4.885
13145TIP3    H139368   5.829   8.803   4.853
13145TIP3    H239369   5.860   8.941   4.902
13146TIP3   OH239370   6.785   8.211   4.905
13146TIP3    H139371   6.790   8.292   4.957
13146TIP3    H239372   6.795   8.244   4.815
13147TIP3   OH239373   6.186   8.397   4.929
13147TIP3    H139374   6.225   8.311   4.950
13147TIP3    H239375   6.151   8.381   4.840
13148TIP3   OH239376   5.524   8.053   4.894
13148TIP3    H139377   5.497   8.125   4.834
13148TIP3    H239378   5.476   7.978   4.851
13149TIP3   OH239379   6.217   8.145   4.521
13149TIP3    H139380   6.290   8.130   4.584
13149TIP3    H239381   6.267   8.182   4.445
13150TIP3   OH239382   5.150   8.248   5.005
13150TIP3    H139383   5.237   8.231   5.046
13150TIP3    H239384   5.160   8.197   4.922
13151TIP3   OH239385   5.594   8.453   4.795
13151TIP3    H139386   5.687   8.426   4.810
13151TIP3    H239387   5.552   8.369   4.766
13152TIP3   OH239388   5.515   8.034   5.332
13152TIP3    H139389   5.458   8.076   5.265
13152TIP3    H239390   5.462   8.052   5.413
13153TIP3   OH239391   5.857   8.855   4.336
13153TIP3    H139392   5.807   8.851   4.254
13153TIP3    H239393   5.875   8.950   4.347
13154TIP3   OH239394   5.623   8.817   5.123
13154TIP3    H139395   5.563   8.882   5.164
13154TIP3    H239396   5.653   8.867   5.045
13155TIP3   OH239397   6.428   8.145   4.695
13155TIP3    H139398   6.398   8.108   4.779
13155TIP3    H239399   6.475   8.226   4.724
13156TIP3   OH239400   5.389   8.151   5.115
13156TIP3    H139401   5.448   8.227   5.138
13156TIP3    H239402   5.440   8.113   5.039
13157TIP3   OH239403   5.457   9.011   5.234
13157TIP3    H139404   5.419   9.033   5.147
13157TIP3    H239405   5.376   9.015   5.289
13158TIP3   OH239406   4.848   8.662   4.464
13158TIP3    H139407   4.809   8.670   4.375
13158TIP3    H239408   4.855   8.757   4.486
13159TIP3   OH239409   6.559   8.098   5.055
13159TIP3    H139410   6.476   8.129   5.017
13159TIP3    H239411   6.627   8.138   4.996
13160TIP3   OH239412   5.877   7.761   5.051
13160TIP3    H139413   5.856   7.666   5.058
13160TIP3    H239414   5.798   7.799   5.095
13161TIP3   OH239415   6.218   8.984   4.261
13161TIP3    H139416   6.180   8.905   4.218
13161TIP3    H239417   6.225   8.956   4.355
13162TIP3   OH239418   5.805   8.514   4.306
13162TIP3    H139419   5.722   8.565   4.290
13162TIP3    H239420   5.846   8.515   4.217
13163TIP3   OH239421   5.762   8.306   4.017
13163TIP3    H139422   5.831   8.355   4.066
13163TIP3    H239423   5.818   8.241   3.969
13164TIP3   OH239424   6.152   8.596   4.278
13164TIP3    H139425   6.096   8.618   4.356
13164TIP3    H239426   6.235   8.570   4.322
13165TIP3   OH239427   5.388   8.596   4.677
13165TIP3    H139428   5.343   8.535   4.616
13165TIP3    H239429   5.463   8.542   4.710
13166TIP3   OH239430   5.520   8.965   4.882
13166TIP3    H139431   5.477   8.965   4.795
13166TIP3    H239432   5.615   8.959   4.861
13167TIP3   OH239433   5.518   8.573   5.042
13167TIP3    H139434   5.551   8.555   4.952
13167TIP3    H239435   5.558   8.660   5.063
13168TIP3   OH239436   5.588   8.921   5.464
13168TIP3    H139437   5.675   8.960   5.446
13168TIP3    H239438   5.546   8.942   5.377
13169TIP3   OH239439   5.991   8.457   4.101
13169TIP3    H139440   6.049   8.518   4.152
13169TIP3    H239441   6.019   8.476   4.008
13170TIP3   OH239442   5.410   8.675   5.461
13170TIP3    H139443   5.440   8.766   5.477
13170TIP3    H239444   5.314   8.679   5.476
13171TIP3   OH239445   6.508   7.700   4.150
13171TIP3    H139446   6.425   7.719   4.198
13171TIP3    H239447   6.520   7.783   4.099
13172TIP3   OH239448   5.247   8.432   4.496
13172TIP3    H139449   5.184   8.480   4.439
13172TIP3    H239450   5.194   8.355   4.521
13173TIP3   OH239451   5.044   8.831   5.404
13173TIP3    H139452   4.977   8.815   5.335
13173TIP3    H239453   5.066   8.741   5.434
13174TIP3   OH239454   5.241   9.026   5.399
13174TIP3    H139455   5.260   9.027   5.494
13174TIP3    H239456   5.167   8.960   5.394
13175TIP3   OH239457   5.635   7.830   5.179
13175TIP3    H139458   5.546   7.802   5.148
13175TIP3    H239459   5.610   7.914   5.223
13176TIP3   OH239460   6.163   7.946   5.372
13176TIP3    H139461   6.221   7.922   5.446
13176TIP3    H239462   6.074   7.931   5.409
13177TIP3   OH239463   6.071   8.489   3.844
13177TIP3    H139464   6.037   8.469   3.754
13177TIP3    H239465   6.116   8.573   3.828
13178TIP3   OH239466   5.784   7.879   4.145
13178TIP3    H139467   5.748   7.878   4.236
13178TIP3    H239468   5.740   7.799   4.110
13179TIP3   OH239469   5.565   8.348   5.190
13179TIP3    H139470   5.522   8.370   5.275
13179TIP3    H239471   5.549   8.431   5.140
13180TIP3   OH239472   5.445   8.233   4.708
13180TIP3    H139473   5.350   8.212   4.723
13180TIP3    H239474   5.457   8.194   4.619
13181TIP3   OH239475   5.943   8.320   4.437
13181TIP3    H139476   5.888   8.389   4.394
13181TIP3    H239477   5.995   8.287   4.361
13182TIP3   OH239478   6.098   8.348   4.673
13182TIP3    H139479   6.036   8.378   4.603
13182TIP3    H239480   6.130   8.267   4.629
13183TIP3   OH239481   5.385   8.378   5.398
13183TIP3    H139482   5.398   8.443   5.469
13183TIP3    H239483   5.356   8.302   5.450
13184TIP3   OH239484   5.439   7.857   4.115
13184TIP3    H139485   5.422   7.849   4.211
13184TIP3    H239486   5.359   7.906   4.088
13185TIP3   OH239487   4.965   7.892   5.008
13185TIP3    H139488   5.048   7.935   5.030
13185TIP3    H239489   4.977   7.872   4.909
13186TIP3   OH239490   4.939   7.876   4.489
13186TIP3    H139491   5.004   7.902   4.422
13186TIP3    H239492   4.927   7.964   4.534
13187TIP3   OH239493   6.080   8.589   5.093
13187TIP3    H139494   6.130   8.522   5.039
13187TIP3    H239495   6.055   8.532   5.170
13188TIP3   OH239496   5.780   8.052   4.769
13188TIP3    H139497   5.694   8.053   4.816
13188TIP3    H239498   5.842   8.060   4.843
13189TIP3   OH239499   5.203   8.110   4.776
13189TIP3    H139500   5.120   8.127   4.725
13189TIP3    H239501   5.223   8.019   4.748
13190TIP3   OH239502   5.482   8.110   4.466
13190TIP3    H139503   5.572   8.128   4.436
13190TIP3    H239504   5.427   8.132   4.387
13191TIP3   OH239505   6.270   8.129   4.959
13191TIP3    H139506   6.248   8.142   5.055
13191TIP3    H239507   6.196   8.071   4.932
13192TIP3   OH239508   5.325   8.141   4.247
13192TIP3    H139509   5.248   8.098   4.207
13192TIP3    H239510   5.372   8.173   4.168
13193TIP3   OH239511   5.342   9.062   5.662
13193TIP3    H139512   5.430   9.023   5.653
13193TIP3    H239513   5.299   9.000   5.725
13194TIP3   OH239514   5.860   8.386   4.867
13194TIP3    H139515   5.932   8.342   4.820
13194TIP3    H239516   5.863   8.345   4.955
13195TIP3   OH239517   5.392   7.868   4.743
13195TIP3    H139518   5.349   7.791   4.785
13195TIP3    H239519   5.416   7.833   4.656
13196TIP3   OH239520   5.832   8.280   5.148
13196TIP3    H139521   5.743   8.317   5.166
13196TIP3    H239522   5.890   8.336   5.204
13197TIP3   OH239523   5.575   8.661   4.260
13197TIP3    H139524   5.500   8.598   4.248
13197TIP3    H239525   5.550   8.705   4.345
13198TIP3   OH239526   6.032   7.984   4.113
13198TIP3    H139527   5.935   7.964   4.122
13198TIP3    H239528   6.037   8.079   4.139
13199TIP3   OH239529   6.100   8.231   4.218
13199TIP3    H139530   6.196   8.240   4.232
13199TIP3    H239531   6.078   8.311   4.166
13200TIP3   OH239532   5.257   8.664   4.915
13200TIP3    H139533   5.301   8.644   4.830
13200TIP3    H239534   5.304   8.607   4.978
13201TIP3   OH239535   5.685   8.843   4.090
13201TIP3    H139536   5.642   8.914   4.142
13201TIP3    H239537   5.649   8.764   4.137
13202TIP3   OH239538   5.127   8.609   5.557
13202TIP3    H139539   5.173   8.538   5.608
13202TIP3    H239540   5.062   8.555   5.508
13203TIP3   OH239541   6.544   8.323   4.049
13203TIP3    H139542   6.483   8.277   3.986
13203TIP3    H239543   6.535   8.413   4.010
13204TIP3   OH239544   6.207   8.779   4.775
13204TIP3    H139545   6.123   8.731   4.791
13204TIP3    H239546   6.267   8.705   4.755
13205TIP3   OH239547   4.917   8.308   4.260
13205TIP3    H139548   4.972   8.387   4.280
13205TIP3    H239549   4.856   8.310   4.336
13206TIP3   OH239550   5.499   8.783   4.501
13206TIP3    H139551   5.456   8.857   4.547
13206TIP3    H239552   5.473   8.712   4.563
13207TIP3   OH239553   6.041   8.962   4.979
13207TIP3    H139554   6.014   8.903   5.050
13207TIP3    H239555   6.103   8.906   4.928
13208TIP3   OH239556   6.031   8.797   3.834
13208TIP3    H139557   6.064   8.796   3.927
13208TIP3    H239558   5.950   8.851   3.844
13209TIP3   OH239559   5.365   8.106   5.554
13209TIP3    H139560   5.318   8.178   5.603
13209TIP3    H239561   5.388   8.046   5.627
13210TIP3   OH239562   6.156   8.782   4.080
13210TIP3    H139563   6.152   8.711   4.148
13210TIP3    H239564   6.252   8.786   4.062
13211TIP3   OH239565   5.359   8.808   3.913
13211TIP3    H139566   5.385   8.721   3.876
13211TIP3    H239567   5.374   8.793   4.006
13212TIP3   OH239568   5.056   8.543   4.335
13212TIP3    H139569   4.987   8.577   4.397
13212TIP3    H239570   5.059   8.618   4.272
13213TIP3   OH239571   6.219   8.175   5.222
13213TIP3    H139572   6.245   8.240   5.287
13213TIP3    H239573   6.186   8.101   5.277
13214TIP3   OH239574   6.080   7.933   4.394
13214TIP3    H139575   6.060   7.956   4.302
13214TIP3    H239576   6.116   8.017   4.430
13215TIP3   OH239577   5.771   8.113   4.497
13215TIP3    H139578   5.832   8.188   4.481
13215TIP3    H239579   5.769   8.109   4.595
13216TIP3   OH239580   6.010   8.425   5.304
13216TIP3    H139581   5.977   8.460   5.388
13216TIP3    H239582   6.098   8.395   5.333
13217TIP3   OH239583   5.910   7.843   4.603
13217TIP3    H139584   5.890   7.924   4.654
13217TIP3    H239585   5.969   7.878   4.533
13218TIP3   OH239586   5.424   7.842   4.395
13218TIP3    H139587   5.420   7.935   4.425
13218TIP3    H239588   5.521   7.827   4.399
13219TIP3   OH239589   6.325   8.527   4.672
13219TIP3    H139590   6.246   8.471   4.686
13219TIP3    H239591   6.393   8.480   4.724
13220TIP3   OH239592   5.047   8.756   4.155
13220TIP3    H139593   5.044   8.848   4.125
13220TIP3    H239594   5.090   8.710   4.080
13221TIP3   OH239595   4.986   8.038   4.247
13221TIP3    H139596   4.982   8.132   4.273
13221TIP3    H239597   4.900   8.007   4.278
13222TIP3   OH239598   5.369   7.748   5.147
13222TIP3    H139599   5.339   7.718   5.058
13222TIP3    H239600   5.354   7.670   5.202
13223TIP3   OH239601   5.199   8.863   5.796
13223TIP3    H139602   5.204   8.770   5.770
13223TIP3    H239603   5.110   8.886   5.759
13224TIP3   OH239604   5.170   8.568   3.998
13224TIP3    H139605   5.214   8.526   4.073
13224TIP3    H239606   5.243   8.566   3.932
13225TIP3   OH239607   5.633   8.745   3.808
13225TIP3    H139608   5.655   8.762   3.901
13225TIP3    H239609   5.658   8.651   3.797
13226TIP3   OH239610   5.378   8.471   4.219
13226TIP3    H139611   5.343   8.429   4.300
13226TIP3    H239612   5.412   8.394   4.170
13227TIP3   OH239613   5.653   8.526   5.436
13227TIP3    H139614   5.578   8.588   5.446
13227TIP3    H239615   5.709   8.574   5.372
13228TIP3   OH239616   5.482   8.268   4.058
13228TIP3    H139617   5.454   8.267   3.964
13228TIP3    H239618   5.579   8.275   4.049
13229TIP3   OH239619   6.314   8.607   3.712
13229TIP3    H139620   6.279   8.556   3.637
13229TIP3    H239621   6.288   8.697   3.684
13230TIP3   OH239622   5.764   8.322   5.572
13230TIP3    H139623   5.763   8.244   5.514
13230TIP3    H239624   5.722   8.391   5.515
13231TIP3   OH239625   5.776   8.108   5.372
13231TIP3    H139626   5.800   8.155   5.291
13231TIP3    H239627   5.680   8.090   5.358
13232TIP3   OH239628   5.801   8.647   5.242
13232TIP3    H139629   5.878   8.652   5.184
13232TIP3    H239630   5.741   8.715   5.204
13233TIP3   OH239631   5.651   8.447   5.795
13233TIP3    H139632   5.583   8.379   5.813
13233TIP3    H239633   5.681   8.417   5.706
13234TIP3   OH239634   5.906   7.875   5.443
13234TIP3    H139635   5.858   7.959   5.420
13234TIP3    H239636   5.834   7.810   5.432
13235TIP3   OH239637   6.036   8.376   5.598
13235TIP3    H139638   6.060   8.398   5.689
13235TIP3    H239639   5.941   8.354   5.606
13236TIP3   OH239640   5.541   8.202   5.865
13236TIP3    H139641   5.493   8.138   5.811
13236TIP3    H239642   5.479   8.223   5.934
13237TIP3   OH239643   5.998   7.875   5.701
13237TIP3    H139644   6.069   7.810   5.691
13237TIP3    H239645   5.959   7.876   5.611
13238TIP3   OH239646   6.033   8.080   5.882
13238TIP3    H139647   6.019   8.014   5.810
13238TIP3    H239648   5.966   8.148   5.864
13239TIP3   OH239649   4.780   8.669   4.193
13239TIP3    H139650   4.864   8.705   4.159
13239TIP3    H239651   4.761   8.599   4.128
13240TIP3   OH239652   6.430   8.777   4.058
13240TIP3    H139653   6.501   8.839   4.028
13240TIP3    H239654   6.475   8.737   4.136
13241TIP3   OH239655   6.563   8.647   4.256
13241TIP3    H139656   6.501   8.607   4.320
13241TIP3    H239657   6.633   8.685   4.313
13242TIP3   OH239658   6.499   8.558   3.904
13242TIP3    H139659   6.429   8.566   3.835
13242TIP3    H239660   6.475   8.635   3.960
13243TIP3   OH239661   6.383   8.230   3.853
13243TIP3    H139662   6.326   8.274   3.789
13243TIP3    H239663   6.354   8.136   3.841
13244TIP3   OH239664   6.380   8.507   4.405
13244TIP3    H139665   6.386   8.410   4.399
13244TIP3    H239666   6.366   8.521   4.502
13245TIP3   OH239667   5.004   8.583   5.151
13245TIP3    H139668   4.999   8.549   5.058
13245TIP3    H239669   5.101   8.584   5.163
13246TIP3   OH239670   6.319   7.964   3.840
13246TIP3    H139671   6.387   7.933   3.903
13246TIP3    H239672   6.240   7.911   3.863
13247TIP3   OH239673   6.377   8.226   4.299
13247TIP3    H139674   6.418   8.137   4.313
13247TIP3    H239675   6.434   8.260   4.228
13248TIP3   OH239676   6.539   8.397   4.794
13248TIP3    H139677   6.622   8.428   4.752
13248TIP3    H239678   6.552   8.438   4.882
13249TIP3   OH239679   6.488   7.975   4.335
13249TIP3    H139680   6.531   7.959   4.421
13249TIP3    H239681   6.424   7.901   4.332
13250TIP3   OH239682   5.188   7.958   5.174
13250TIP3    H139683   5.257   7.888   5.167
13250TIP3    H239684   5.243   8.037   5.157
13251TIP3   OH239685   4.987   8.232   5.230
13251TIP3    H139686   5.034   8.228   5.144
13251TIP3    H239687   5.015   8.318   5.262
13252TIP3   OH239688   6.567   7.908   3.973
13252TIP3    H139689   6.603   7.838   3.915
13252TIP3    H239690   6.631   7.981   3.962
13253TIP3   OH239691   4.965   7.781   4.753
13253TIP3    H139692   4.873   7.749   4.752
13253TIP3    H239693   4.977   7.805   4.660
13254TIP3   OH239694   5.193   7.808   5.541
13254TIP3    H139695   5.151   7.817   5.628
13254TIP3    H239696   5.145   7.875   5.490
13255TIP3   OH239697   6.824   8.016   5.235
13255TIP3    H139698   6.728   8.025   5.244
13255TIP3    H239699   6.836   7.921   5.233
13256TIP3   OH239700   6.041   7.955   4.895
13256TIP3    H139701   5.990   7.886   4.942
13256TIP3    H239702   6.102   7.901   4.841
13257TIP3   OH239703   6.559   7.827   4.786
13257TIP3    H139704   6.591   7.885   4.714
13257TIP3    H239705   6.463   7.848   4.785
13258TIP3   OH239706   6.655   7.929   4.552
13258TIP3    H139707   6.730   7.882   4.510
13258TIP3    H239708   6.683   8.022   4.540
13259TIP3   OH239709   5.281   7.660   4.899
13259TIP3    H139710   5.192   7.634   4.866
13259TIP3    H239711   5.331   7.580   4.874
13260TIP3   OH239712   5.736   7.687   4.780
13260TIP3    H139713   5.790   7.742   4.721
13260TIP3    H239714   5.733   7.739   4.860
13261TIP3   OH239715   6.280   7.838   4.763
13261TIP3    H139716   6.261   7.804   4.675
13261TIP3    H239717   6.262   7.759   4.819
13262TIP3   OH239718   6.303   7.764   4.329
13262TIP3    H139719   6.217   7.809   4.342
13262TIP3    H239720   6.285   7.678   4.372
13263TIP3   OH239721   5.188   7.715   4.285
13263TIP3    H139722   5.231   7.633   4.254
13263TIP3    H239723   5.255   7.750   4.346
13264TIP3   OH239724   5.701   7.866   4.408
13264TIP3    H139725   5.755   7.817   4.472
13264TIP3    H239726   5.721   7.958   4.435
13265TIP3   OH239727   5.486   7.921   5.774
13265TIP3    H139728   5.454   7.862   5.844
13265TIP3    H239729   5.576   7.942   5.809
13266TIP3   OH239730   5.729   7.935   5.910
13266TIP3    H139731   5.821   7.927   5.879
13266TIP3    H239732   5.723   7.865   5.977
13267TIP3   OH239733   6.742   8.430   4.211
13267TIP3    H139734   6.698   8.515   4.230
13267TIP3    H239735   6.669   8.382   4.168
13268TIP3   OH239736   6.802   8.710   4.373
13268TIP3    H139737   6.853   8.648   4.428
13268TIP3    H239738   6.871   8.756   4.324
13269TIP3   OH239739   7.309   8.308   4.390
13269TIP3    H139740   7.292   8.384   4.332
13269TIP3    H239741   7.258   8.239   4.345
13270TIP3   OH239742   6.955   8.514   4.499
13270TIP3    H139743   7.049   8.512   4.520
13270TIP3    H239744   6.954   8.454   4.421
13271TIP3   OH239745   6.646   8.922   3.970
13271TIP3    H139746   6.620   8.950   3.881
13271TIP3    H239747   6.681   9.006   4.002
13272TIP3   OH239748   7.024   8.676   3.922
13272TIP3    H139749   7.025   8.767   3.952
13272TIP3    H239750   6.979   8.631   3.995
13273TIP3   OH239751   7.228   8.467   4.172
13273TIP3    H139752   7.142   8.445   4.215
13273TIP3    H239753   7.197   8.519   4.096
13274TIP3   OH239754   7.219   8.084   3.598
13274TIP3    H139755   7.208   8.084   3.695
13274TIP3    H239756   7.142   8.136   3.570
13275TIP3   OH239757   6.775   8.155   4.471
13275TIP3    H139758   6.852   8.190   4.520
13275TIP3    H239759   6.812   8.129   4.385
13276TIP3   OH239760   6.747   8.139   3.987
13276TIP3    H139761   6.791   8.177   3.909
13276TIP3    H239762   6.685   8.211   4.010
13277TIP3   OH239763   6.997   8.365   4.271
13277TIP3    H139764   6.903   8.376   4.242
13277TIP3    H239765   7.018   8.274   4.244
13278TIP3   OH239766   7.085   8.370   3.762
13278TIP3    H139767   7.007   8.333   3.716
13278TIP3    H239768   7.077   8.463   3.745
13279TIP3   OH239769   7.176   8.126   4.227
13279TIP3    H139770   7.142   8.050   4.278
13279TIP3    H239771   7.228   8.083   4.158
13280TIP3   OH239772   6.721   8.554   3.746
13280TIP3    H139773   6.754   8.644   3.760
13280TIP3    H239774   6.640   8.556   3.803
13281TIP3   OH239775   7.191   8.092   3.873
13281TIP3    H139776   7.172   8.187   3.890
13281TIP3    H239777   7.284   8.085   3.904
13282TIP3   OH239778   6.776   8.287   3.752
13282TIP3    H139779   6.766   8.384   3.758
13282TIP3    H239780   6.687   8.260   3.727
13283TIP3   OH239781   7.154   8.014   4.640
13283TIP3    H139782   7.137   7.978   4.551
13283TIP3    H239783   7.155   7.935   4.696
13284TIP3   OH239784   6.554   8.926   3.657
13284TIP3    H139785   6.632   8.974   3.629
13284TIP3    H239786   6.553   8.849   3.597
13285TIP3   OH239787   6.986   8.225   4.631
13285TIP3    H139788   7.049   8.150   4.639
13285TIP3    H239789   7.037   8.297   4.669
13286TIP3   OH239790   6.788   8.499   4.721
13286TIP3    H139791   6.836   8.482   4.637
13286TIP3    H239792   6.809   8.591   4.735
13287TIP3   OH239793   6.767   7.995   4.218
13287TIP3    H139794   6.674   7.991   4.244
13287TIP3    H239795   6.764   8.053   4.139
13288TIP3   OH239796   6.992   8.062   5.032
13288TIP3    H139797   6.935   8.062   5.112
13288TIP3    H239798   6.934   8.114   4.972
13289TIP3   OH239799   7.083   7.914   4.384
13289TIP3    H139800   6.989   7.887   4.388
13289TIP3    H239801   7.124   7.831   4.355
13290TIP3   OH239802   6.876   7.785   4.042
13290TIP3    H139803   6.896   7.840   3.964
13290TIP3    H239804   6.837   7.851   4.103
13291TIP3   OH239805   7.515   7.943   4.295
13291TIP3    H139806   7.584   7.998   4.253
13291TIP3    H239807   7.487   7.997   4.369
13292TIP3   OH239808   6.972   7.939   3.796
13292TIP3    H139809   7.022   7.878   3.739
13292TIP3    H239810   7.045   7.994   3.834
13293TIP3   OH239811   7.465   8.108   3.935
13293TIP3    H139812   7.503   8.043   3.879
13293TIP3    H239813   7.492   8.190   3.889
13294TIP3   OH239814   4.609   1.747   7.955
13294TIP3    H139815   4.622   1.842   7.930
13294TIP3    H239816   4.699   1.712   7.936
13295TIP3   OH239817   4.149   1.966   8.029
13295TIP3    H139818   4.203   1.886   8.022
13295TIP3    H239819   4.132   1.974   8.125
13296TIP3   OH239820   4.366   1.234   8.093
13296TIP3    H139821   4.332   1.196   8.010
13296TIP3    H239822   4.461   1.245   8.069
13297TIP3   OH239823   4.526   1.808   8.209
13297TIP3    H139824   4.526   1.717   8.240
13297TIP3    H239825   4.566   1.796   8.120
13298TIP3   OH239826   4.642   2.017   7.935
13298TIP3    H139827   4.685   2.087   7.883
13298TIP3    H239828   4.562   2.067   7.962
13299TIP3   OH239829   3.807   1.714   8.002
13299TIP3    H139830   3.825   1.633   8.053
13299TIP3    H239831   3.891   1.721   7.954
13300TIP3   OH239832   4.287   1.740   7.935
13300TIP3    H139833   4.372   1.745   7.980
13300TIP3    H239834   4.314   1.756   7.842
13301TIP3   OH239835   4.605   1.275   7.969
13301TIP3    H139836   4.592   1.217   7.892
13301TIP3    H239837   4.577   1.361   7.930
13302TIP3   OH239838   4.823   1.311   8.132
13302TIP3    H139839   4.742   1.284   8.084
13302TIP3    H239840   4.805   1.286   8.223
13303TIP3   OH239841   4.572   2.088   8.250
13303TIP3    H139842   4.566   1.992   8.233
13303TIP3    H239843   4.532   2.125   8.168
13304TIP3   OH239844   6.049   1.609   8.228
13304TIP3    H139845   6.026   1.699   8.193
13304TIP3    H239846   5.988   1.556   8.172
13305TIP3   OH239847   6.271   1.875   8.265
13305TIP3    H139848   6.209   1.836   8.327
13305TIP3    H239849   6.293   1.961   8.308
13306TIP3   OH239850   5.951   2.356   8.269
13306TIP3    H139851   6.010   2.282   8.241
13306TIP3    H239852   5.951   2.349   8.365
13307TIP3   OH239853   5.964   1.822   8.078
13307TIP3    H139854   5.922   1.801   7.993
13307TIP3    H239855   5.919   1.907   8.100
13308TIP3   OH239856   4.939   1.633   8.181
13308TIP3    H139857   4.892   1.629   8.096
13308TIP3    H239858   4.957   1.729   8.191
13309TIP3   OH239859   6.348   2.108   8.379
13309TIP3    H139860   6.271   2.127   8.436
13309TIP3    H239861   6.376   2.200   8.356
13310TIP3   OH239862   6.098   2.184   8.119
13310TIP3    H139863   6.146   2.105   8.087
13310TIP3    H239864   6.152   2.254   8.077
13311TIP3   OH239865   6.230   1.971   8.011
13311TIP3    H139866   6.190   1.898   7.961
13311TIP3    H239867   6.244   1.928   8.098
13312TIP3   OH239868   5.905   1.478   8.034
13312TIP3    H139869   5.818   1.519   8.013
13312TIP3    H239870   5.944   1.467   7.946
13313TIP3   OH239871   5.861   1.234   7.761
13313TIP3    H139872   5.932   1.285   7.803
13313TIP3    H239873   5.913   1.172   7.707
13314TIP3   OH239874   6.233   1.554   8.019
13314TIP3    H139875   6.171   1.588   8.087
13314TIP3    H239876   6.291   1.503   8.079
13315TIP3   OH239877   6.132   2.151   8.546
13315TIP3    H139878   6.190   2.217   8.589
13315TIP3    H239879   6.142   2.073   8.603
13316TIP3   OH239880   6.088   1.400   7.836
13316TIP3    H139881   6.146   1.462   7.886
13316TIP3    H239882   6.114   1.421   7.743
13317TIP3   OH239883   5.835   2.069   8.111
13317TIP3    H139884   5.910   2.124   8.140
13317TIP3    H239885   5.775   2.134   8.074
13318TIP3   OH239886   5.363   1.350   8.192
13318TIP3    H139887   5.287   1.401   8.157
13318TIP3    H239888   5.324   1.302   8.265
13319TIP3   OH239889   6.406   1.999   7.442
13319TIP3    H139890   6.415   2.095   7.424
13319TIP3    H239891   6.498   1.968   7.424
13320TIP3   OH239892   5.715   2.315   7.919
13320TIP3    H139893   5.668   2.298   7.835
13320TIP3    H239894   5.683   2.404   7.944
13321TIP3   OH239895   5.139   2.154   8.275
13321TIP3    H139896   5.150   2.103   8.357
13321TIP3    H239897   5.053   2.122   8.245
13322TIP3   OH239898   5.917   2.218   7.558
13322TIP3    H139899   5.975   2.148   7.522
13322TIP3    H239900   5.951   2.227   7.650
13323TIP3   OH239901   5.967   2.266   7.829
13323TIP3    H139902   5.878   2.276   7.871
13323TIP3    H239903   6.017   2.226   7.901
13324TIP3   OH239904   6.163   1.445   7.582
13324TIP3    H139905   6.130   1.411   7.497
13324TIP3    H239906   6.250   1.480   7.555
13325TIP3   OH239907   6.002   1.252   8.149
13325TIP3    H139908   5.966   1.336   8.115
13325TIP3    H239909   6.065   1.228   8.076
13326TIP3   OH239910   5.560   1.049   8.212
13326TIP3    H139911   5.651   1.036   8.178
13326TIP3    H239912   5.508   1.056   8.129
13327TIP3   OH239913   5.409   1.053   7.978
13327TIP3    H139914   5.345   1.029   7.907
13327TIP3    H239915   5.473   1.101   7.923
13328TIP3   OH239916   5.665   1.602   7.977
13328TIP3    H139917   5.594   1.535   7.964
13328TIP3    H239918   5.639   1.638   8.066
13329TIP3   OH239919   6.108   0.958   7.792
13329TIP3    H139920   6.046   0.909   7.850
13329TIP3    H239921   6.130   1.033   7.851
13330TIP3   OH239922   6.170   1.167   7.951
13330TIP3    H139923   6.260   1.181   7.986
13330TIP3    H239924   6.158   1.247   7.896
13331TIP3   OH239925   5.821   1.755   7.815
13331TIP3    H139926   5.772   1.840   7.820
13331TIP3    H239927   5.763   1.697   7.869
13332TIP3   OH239928   6.348   2.071   7.705
13332TIP3    H139929   6.312   2.001   7.761
13332TIP3    H239930   6.359   2.028   7.619
13333TIP3   OH239931   5.439   1.936   8.270
13333TIP3    H139932   5.495   2.010   8.239
13333TIP3    H239933   5.354   1.968   8.237
13334TIP3   OH239934   5.040   1.235   7.988
13334TIP3    H139935   5.094   1.313   8.011
13334TIP3    H239936   4.960   1.257   8.042
13335TIP3   OH239937   5.592   1.710   8.212
13335TIP3    H139938   5.551   1.794   8.239
13335TIP3    H239939   5.637   1.682   8.294
13336TIP3   OH239940   5.382   2.181   8.135
13336TIP3    H139941   5.293   2.189   8.174
13336TIP3    H239942   5.415   2.274   8.142
13337TIP3   OH239943   6.094   1.804   7.600
13337TIP3    H139944   6.146   1.780   7.680
13337TIP3    H239945   6.006   1.773   7.627
13338TIP3   OH239946   6.438   2.274   7.424
13338TIP3    H139947   6.475   2.345   7.369
13338TIP3    H239948   6.358   2.319   7.458
13339TIP3   OH239949   6.244   1.744   7.820
13339TIP3    H139950   6.237   1.676   7.890
13339TIP3    H239951   6.340   1.739   7.802
13340TIP3   OH239952   5.464   1.780   7.605
13340TIP3    H139953   5.477   1.688   7.577
13340TIP3    H239954   5.444   1.768   7.700
13341TIP3   OH239955   5.405   1.785   7.878
13341TIP3    H139956   5.477   1.755   7.936
13341TIP3    H239957   5.413   1.883   7.886
13342TIP3   OH239958   5.147   1.482   8.084
13342TIP3    H139959   5.071   1.521   8.132
13342TIP3    H239960   5.161   1.550   8.016
13343TIP3   OH239961   5.675   1.982   7.824
13343TIP3    H139962   5.588   2.008   7.859
13343TIP3    H239963   5.692   2.056   7.764
13344TIP3   OH239964   5.838   1.030   8.167
13344TIP3    H139965   5.887   1.113   8.151
13344TIP3    H239966   5.859   1.015   8.260
13345TIP3   OH239967   5.420   2.058   7.892
13345TIP3    H139968   5.391   2.127   7.828
13345TIP3    H239969   5.405   2.106   7.977
13346TIP3   OH239970   5.134   1.687   7.883
13346TIP3    H139971   5.205   1.754   7.892
13346TIP3    H239972   5.179   1.628   7.818
13347TIP3   OH239973   5.061   0.947   7.951
13347TIP3    H139974   5.068   1.041   7.976
13347TIP3    H239975   5.018   0.911   8.029
13348TIP3   OH239976   6.428   2.385   8.325
13348TIP3    H139977   6.368   2.439   8.270
13348TIP3    H239978   6.469   2.457   8.377
13349TIP3   OH239979   4.999   1.885   8.253
13349TIP3    H139980   4.968   1.934   8.331
13349TIP3    H239981   4.965   1.941   8.179
13350TIP3   OH239982   5.627   1.983   7.515
13350TIP3    H139983   5.571   1.912   7.555
13350TIP3    H239984   5.702   1.931   7.483
13351TIP3   OH239985   6.063   2.025   7.428
13351TIP3    H139986   6.103   1.957   7.486
13351TIP3    H239987   6.120   2.022   7.349
13352TIP3   OH239988   5.273   1.500   7.740
13352TIP3    H139989   5.329   1.466   7.812
13352TIP3    H239990   5.340   1.504   7.668
13353TIP3   OH239991   5.784   1.701   7.546
13353TIP3    H139992   5.785   1.713   7.643
13353TIP3    H239993   5.786   1.602   7.540
13354TIP3   OH239994   5.474   1.408   7.947
13354TIP3    H139995   5.448   1.378   8.037
13354TIP3    H239996   5.511   1.327   7.908
13355TIP3   OH239997   5.580   1.194   7.808
13355TIP3    H139998   5.552   1.197   7.714
13355TIP3    H239999   5.677   1.200   7.798
13356TIP3   OH240000   6.394   1.526   7.458
13356TIP3    H140001   6.375   1.481   7.373
13356TIP3    H240002   6.364   1.617   7.434
13357TIP3   OH240003   5.389   2.259   7.704
13357TIP3    H140004   5.485   2.254   7.685
13357TIP3    H240005   5.360   2.311   7.627
13358TIP3   OH240006   4.863   1.643   7.909
13358TIP3    H140007   4.958   1.664   7.900
13358TIP3    H240008   4.861   1.552   7.870
13359TIP3   OH240009   4.798   2.240   8.319
13359TIP3    H140010   4.716   2.202   8.282
13359TIP3    H240011   4.820   2.174   8.386
13360TIP3   OH240012   6.726   2.550   8.248
13360TIP3    H140013   6.708   2.587   8.331
13360TIP3    H240014   6.692   2.628   8.192
13361TIP3   OH240015   6.511   1.720   7.790
13361TIP3    H140016   6.573   1.788   7.754
13361TIP3    H240017   6.573   1.652   7.821
13362TIP3   OH240018   6.586   1.507   7.642
13362TIP3    H140019   6.523   1.483   7.572
13362TIP3    H240020   6.543   1.588   7.672
13363TIP3   OH240021   6.405   1.165   7.600
13363TIP3    H140022   6.447   1.225   7.539
13363TIP3    H240023   6.432   1.078   7.567
13364TIP3   OH240024   6.230   2.371   7.978
13364TIP3    H140025   6.284   2.360   7.897
13364TIP3    H240026   6.279   2.440   8.026
13365TIP3   OH240027   5.884   2.475   8.515
13365TIP3    H140028   5.796   2.487   8.479
13365TIP3    H240029   5.872   2.505   8.606
13366TIP3   OH240030   6.106   2.445   8.663
13366TIP3    H140031   6.052   2.450   8.583
13366TIP3    H240032   6.185   2.495   8.630
13367TIP3   OH240033   6.268   2.618   8.532
13367TIP3    H140034   6.278   2.711   8.505
13367TIP3    H240035   6.359   2.591   8.550
13368TIP3   OH240036   4.886   2.044   8.071
13368TIP3    H140037   4.803   2.010   8.033
13368TIP3    H240038   4.876   2.138   8.045
13369TIP3   OH240039   5.657   2.218   7.653
13369TIP3    H140040   5.745   2.241   7.616
13369TIP3    H240041   5.635   2.143   7.593
13370TIP3   OH240042   6.378   2.339   7.746
13370TIP3    H140043   6.370   2.241   7.734
13370TIP3    H240044   6.331   2.371   7.666
13371TIP3   OH240045   4.959   2.054   7.709
13371TIP3    H140046   4.964   2.085   7.800
13371TIP3    H240047   5.048   2.013   7.696
13372TIP3   OH240048   6.713   1.884   7.733
13372TIP3    H140049   6.726   1.881   7.637
13372TIP3    H240050   6.743   1.977   7.753
13373TIP3   OH240051   7.492   2.593   7.396
13373TIP3    H140052   7.457   2.549   7.317
13373TIP3    H240053   7.442   2.676   7.399
13374TIP3   OH240054   6.920   2.457   7.790
13374TIP3    H140055   6.983   2.386   7.817
13374TIP3    H240056   6.839   2.404   7.782
13375TIP3   OH240057   7.692   2.460   7.020
13375TIP3    H140058   7.730   2.378   6.984
13375TIP3    H240059   7.758   2.480   7.091
13376TIP3   OH240060   6.796   1.483   7.474
13376TIP3    H140061   6.840   1.570   7.484
13376TIP3    H240062   6.725   1.492   7.543
13377TIP3   OH240063   7.191   2.437   7.610
13377TIP3    H140064   7.126   2.408   7.676
13377TIP3    H240065   7.191   2.535   7.621
13378TIP3   OH240066   7.274   2.030   7.072
13378TIP3    H140067   7.273   1.936   7.046
13378TIP3    H240068   7.246   2.024   7.166
13379TIP3   OH240069   7.202   2.051   7.332
13379TIP3    H140070   7.224   2.017   7.421
13379TIP3    H240071   7.208   2.148   7.348
13380TIP3   OH240072   6.875   1.756   7.536
13380TIP3    H140073   6.902   1.759   7.629
13380TIP3    H240074   6.950   1.798   7.491
13381TIP3   OH240075   7.477   2.246   7.305
13381TIP3    H140076   7.391   2.273   7.344
13381TIP3    H240077   7.483   2.308   7.232
13382TIP3   OH240078   7.218   2.319   7.368
13382TIP3    H140079   7.182   2.390   7.311
13382TIP3    H240080   7.205   2.359   7.457
13383TIP3   OH240081   6.930   1.973   7.348
13383TIP3    H140082   7.004   2.034   7.357
13383TIP3    H240083   6.972   1.907   7.289
13384TIP3   OH240084   6.885   1.222   7.453
13384TIP3    H140085   6.859   1.314   7.475
13384TIP3    H240086   6.851   1.172   7.528
13385TIP3   OH240087   6.782   2.143   7.777
13385TIP3    H140088   6.702   2.197   7.764
13385TIP3    H240089   6.833   2.173   7.701
13386TIP3   OH240090   7.420   2.248   7.003
13386TIP3    H140091   7.366   2.171   7.035
13386TIP3    H240092   7.491   2.200   6.956
13387TIP3   OH240093   7.832   2.247   6.895
13387TIP3    H140094   7.911   2.247   6.952
13387TIP3    H240095   7.875   2.255   6.807
13388TIP3   OH240096   7.070   1.765   7.219
13388TIP3    H140097   7.117   1.731   7.297
13388TIP3    H240098   7.143   1.769   7.155
13389TIP3   OH240099   7.571   1.949   7.037
13389TIP3    H140100   7.547   1.979   7.126
13389TIP3    H240101   7.537   1.859   7.036
13390TIP3   OH240102   7.177   2.531   7.195
13390TIP3    H140103   7.272   2.521   7.174
13390TIP3    H240104   7.146   2.572   7.113
13391TIP3   OH240105   6.660   1.906   7.395
13391TIP3    H140106   6.756   1.925   7.394
13391TIP3    H240107   6.660   1.812   7.365
13392TIP3   OH240108   6.576   2.517   7.819
13392TIP3    H140109   6.512   2.452   7.783
13392TIP3    H240110   6.622   2.461   7.886
13393TIP3   OH240111   6.714   2.378   8.006
13393TIP3    H140112   6.730   2.290   8.044
13393TIP3    H240113   6.746   2.435   8.078
13394TIP3   OH240114   6.676   2.302   7.573
13394TIP3    H140115   6.598   2.257   7.534
13394TIP3    H240116   6.663   2.390   7.535
13395TIP3   OH240117   7.441   2.484   7.135
13395TIP3    H140118   7.530   2.502   7.098
13395TIP3    H240119   7.416   2.408   7.077
13396TIP3   OH240120   6.757   2.316   7.197
13396TIP3    H140121   6.758   2.332   7.292
13396TIP3    H240122   6.843   2.270   7.182
13397TIP3   OH240123   2.450   3.289   8.022
13397TIP3    H140124   2.453   3.385   8.028
13397TIP3    H240125   2.545   3.266   8.033
13398TIP3   OH240126   2.495   3.591   8.076
13398TIP3    H140127   2.538   3.671   8.037
13398TIP3    H240128   2.403   3.611   8.054
13399TIP3   OH240129   3.927   3.165   8.367
13399TIP3    H140130   3.891   3.254   8.346
13399TIP3    H240131   3.856   3.111   8.327
13400TIP3   OH240132   4.140   3.494   8.394
13400TIP3    H140133   4.154   3.406   8.434
13400TIP3    H240134   4.181   3.555   8.456
13401TIP3   OH240135   3.784   3.916   8.432
13401TIP3    H140136   3.833   3.851   8.376
13401TIP3    H240137   3.815   3.887   8.520
13402TIP3   OH240138   3.797   3.375   8.238
13402TIP3    H140139   3.761   3.355   8.151
13402TIP3    H240140   3.765   3.467   8.250
13403TIP3   OH240141   3.926   3.760   8.260
13403TIP3    H140142   3.973   3.675   8.244
13403TIP3    H240143   3.990   3.822   8.218
13404TIP3   OH240144   4.051   3.543   8.146
13404TIP3    H140145   4.030   3.455   8.110
13404TIP3    H240146   4.089   3.518   8.234
13405TIP3   OH240147   3.749   3.022   8.193
13405TIP3    H140148   3.661   3.057   8.170
13405TIP3    H240149   3.789   3.011   8.105
13406TIP3   OH240150   3.704   2.800   7.903
13406TIP3    H140151   3.773   2.847   7.952
13406TIP3    H240152   3.757   2.731   7.859
13407TIP3   OH240153   4.080   3.099   8.148
13407TIP3    H140154   4.034   3.114   8.234
13407TIP3    H240155   4.166   3.062   8.178
13408TIP3   OH240156   3.928   2.944   7.989
13408TIP3    H140157   3.985   3.005   8.041
13408TIP3    H240158   3.955   2.968   7.897
13409TIP3   OH240159   3.685   3.638   8.266
13409TIP3    H140160   3.761   3.697   8.255
13409TIP3    H240161   3.614   3.687   8.222
13410TIP3   OH240162   4.446   2.185   8.027
13410TIP3    H140163   4.358   2.200   8.068
13410TIP3    H240164   4.460   2.271   7.981
13411TIP3   OH240165   4.246   3.556   7.587
13411TIP3    H140166   4.254   3.653   7.575
13411TIP3    H240167   4.339   3.527   7.574
13412TIP3   OH240168   3.556   3.873   8.070
13412TIP3    H140169   3.509   3.853   7.987
13412TIP3    H240170   3.528   3.964   8.090
13413TIP3   OH240171   3.756   3.775   7.708
13413TIP3    H140172   3.816   3.705   7.673
13413TIP3    H240173   3.791   3.786   7.799
13414TIP3   OH240174   3.807   3.823   7.976
13414TIP3    H140175   3.720   3.832   8.021
13414TIP3    H240176   3.860   3.779   8.045
13415TIP3   OH240177   4.005   2.991   7.733
13415TIP3    H140178   3.975   2.967   7.643
13415TIP3    H240179   4.088   3.040   7.712
13416TIP3   OH240180   3.732   2.372   8.037
13416TIP3    H140181   3.695   2.391   8.124
13416TIP3    H240182   3.687   2.289   8.013
13417TIP3   OH240183   3.924   2.846   8.309
13417TIP3    H140184   3.854   2.883   8.252
13417TIP3    H240185   3.964   2.779   8.251
13418TIP3   OH240186   3.396   2.363   8.000
13418TIP3    H140187   3.405   2.376   8.095
13418TIP3    H240188   3.334   2.433   7.976
13419TIP3   OH240189   3.246   2.612   8.116
13419TIP3    H140190   3.187   2.633   8.043
13419TIP3    H240191   3.329   2.651   8.077
13420TIP3   OH240192   3.515   3.185   8.141
13420TIP3    H140193   3.467   3.104   8.112
13420TIP3    H240194   3.486   3.195   8.233
13421TIP3   OH240195   3.963   2.493   7.956
13421TIP3    H140196   3.880   2.461   7.997
13421TIP3    H240197   3.988   2.570   8.012
13422TIP3   OH240198   4.049   2.708   8.099
13422TIP3    H140199   4.145   2.714   8.120
13422TIP3    H240200   4.033   2.792   8.053
13423TIP3   OH240201   3.666   3.316   7.958
13423TIP3    H140202   3.619   3.403   7.964
13423TIP3    H240203   3.611   3.263   8.020
13424TIP3   OH240204   4.482   2.800   7.939
13424TIP3    H140205   4.418   2.766   7.873
13424TIP3    H240206   4.485   2.893   7.911
13425TIP3   OH240207   4.182   3.631   7.853
13425TIP3    H140208   4.156   3.563   7.917
13425TIP3    H240209   4.196   3.580   7.771
13426TIP3   OH240210   3.201   3.742   8.251
13426TIP3    H140211   3.164   3.737   8.339
13426TIP3    H240212   3.252   3.825   8.255
13427TIP3   OH240213   3.938   3.359   7.753
13427TIP3    H140214   3.994   3.337   7.831
13427TIP3    H240215   3.851   3.332   7.786
13428TIP3   OH240216   4.279   3.832   7.573
13428TIP3    H140217   4.318   3.908   7.527
13428TIP3    H240218   4.198   3.877   7.607
13429TIP3   OH240219   4.101   3.301   7.966
13429TIP3    H140220   4.087   3.230   8.032
13429TIP3    H240221   4.198   3.294   7.954
13430TIP3   OH240222   3.301   3.340   7.760
13430TIP3    H140223   3.298   3.248   7.729
13430TIP3    H240224   3.278   3.327   7.854
13431TIP3   OH240225   3.242   3.343   8.029
13431TIP3    H140226   3.313   3.311   8.086
13431TIP3    H240227   3.252   3.441   8.034
13432TIP3   OH240228   4.049   2.433   8.256
13432TIP3    H140229   4.004   2.495   8.198
13432TIP3    H240230   4.075   2.492   8.330
13433TIP3   OH240231   3.523   3.545   7.975
13433TIP3    H140232   3.432   3.563   8.005
13433TIP3    H240233   3.534   3.618   7.912
13434TIP3   OH240234   3.261   3.612   8.022
13434TIP3    H140235   3.232   3.683   7.960
13434TIP3    H240236   3.234   3.653   8.108
13435TIP3   OH240237   2.977   3.257   8.038
13435TIP3    H140238   3.057   3.313   8.043
13435TIP3    H240239   3.019   3.179   7.995
13436TIP3   OH240240   4.230   3.998   8.531
13436TIP3    H140241   4.197   4.043   8.450
13436TIP3    H240242   4.326   4.004   8.514
13437TIP3   OH240243   3.466   3.540   7.667
13437TIP3    H140244   3.409   3.470   7.708
13437TIP3    H240245   3.542   3.486   7.639
13438TIP3   OH240246   3.904   3.581   7.579
13438TIP3    H140247   3.945   3.516   7.639
13438TIP3    H240248   3.964   3.580   7.502
13439TIP3   OH240249   3.624   3.256   7.692
13439TIP3    H140250   3.627   3.271   7.788
13439TIP3    H240251   3.626   3.158   7.688
13440TIP3   OH240252   3.396   2.954   8.078
13440TIP3    H140253   3.331   2.952   8.150
13440TIP3    H240254   3.337   2.939   8.001
13441TIP3   OH240255   3.434   2.690   7.942
13441TIP3    H140256   3.397   2.714   7.854
13441TIP3    H240257   3.513   2.748   7.945
13442TIP3   OH240258   4.241   3.086   7.614
13442TIP3    H140259   4.220   3.041   7.530
13442TIP3    H240260   4.210   3.177   7.591
13443TIP3   OH240261   3.230   3.825   7.851
13443TIP3    H140262   3.326   3.818   7.835
13443TIP3    H240263   3.203   3.875   7.772
13444TIP3   OH240264   2.709   3.208   8.048
13444TIP3    H140265   2.806   3.224   8.047
13444TIP3    H240266   2.707   3.114   8.021
13445TIP3   OH240267   4.499   4.068   8.486
13445TIP3    H140268   4.530   4.131   8.554
13445TIP3    H240269   4.555   4.090   8.410
13446TIP3   OH240270   4.378   3.278   7.941
13446TIP3    H140271   4.447   3.341   7.912
13446TIP3    H240272   4.423   3.239   8.019
13447TIP3   OH240273   4.514   3.151   8.136
13447TIP3    H140274   4.447   3.100   8.186
13447TIP3    H240275   4.578   3.179   8.206
13448TIP3   OH240276   4.547   3.533   8.558
13448TIP3    H140277   4.623   3.471   8.544
13448TIP3    H240278   4.573   3.608   8.504
13449TIP3   OH240279   4.444   3.049   7.796
13449TIP3    H140280   4.371   3.053   7.731
13449TIP3    H240281   4.420   3.124   7.853
13450TIP3   OH240282   4.316   2.719   7.742
13450TIP3    H140283   4.265   2.759   7.671
13450TIP3    H240284   4.292   2.624   7.732
13451TIP3   OH240285   4.313   2.985   8.226
13451TIP3    H140286   4.314   2.889   8.206
13451TIP3    H240287   4.323   2.983   8.323
13452TIP3   OH240288   4.263   2.450   7.726
13452TIP3    H140289   4.335   2.426   7.788
13452TIP3    H240290   4.186   2.400   7.759
13453TIP3   OH240291   4.321   2.718   8.157
13453TIP3    H140292   4.352   2.643   8.211
13453TIP3    H240293   4.395   2.730   8.094
13454TIP3   OH240294   4.430   2.446   8.231
13454TIP3    H140295   4.401   2.459   8.322
13454TIP3    H240296   4.359   2.388   8.197
13455TIP3   OH240297   4.504   2.400   7.860
13455TIP3    H140298   4.550   2.331   7.808
13455TIP3    H240299   4.570   2.473   7.859
13456TIP3   OH240300   4.075   3.935   8.125
13456TIP3    H140301   4.127   3.921   8.043
13456TIP3    H240302   4.128   4.002   8.171
13457TIP3   OH240303   4.230   2.247   8.179
13457TIP3    H140304   4.153   2.309   8.186
13457TIP3    H240305   4.231   2.216   8.270
13458TIP3   OH240306   2.764   3.625   8.201
13458TIP3    H140307   2.686   3.604   8.148
13458TIP3    H240308   2.729   3.698   8.256
13459TIP3   OH240309   3.497   3.777   7.803
13459TIP3    H140310   3.585   3.799   7.767
13459TIP3    H240311   3.474   3.701   7.744
13460TIP3   OH240312   4.219   3.897   7.894
13460TIP3    H140313   4.209   3.799   7.882
13460TIP3    H240314   4.173   3.929   7.815
13461TIP3   OH240315   2.804   3.613   7.868
13461TIP3    H140316   2.817   3.632   7.962
13461TIP3    H240317   2.890   3.571   7.845
13462TIP3   OH240318   5.714   3.416   7.846
13462TIP3    H140319   5.683   3.507   7.828
13462TIP3    H240320   5.633   3.365   7.827
13463TIP3   OH240321   5.730   3.403   8.229
13463TIP3    H140322   5.751   3.375   8.320
13463TIP3    H240323   5.672   3.331   8.200
13464TIP3   OH240324   5.021   3.354   8.591
13464TIP3    H140325   5.041   3.277   8.648
13464TIP3    H240326   5.103   3.362   8.540
13465TIP3   OH240327   5.959   3.714   7.911
13465TIP3    H140328   5.929   3.646   7.974
13465TIP3    H240329   5.975   3.790   7.969
13466TIP3   OH240330   4.973   3.719   8.330
13466TIP3    H140331   4.963   3.621   8.324
13466TIP3    H240332   5.067   3.727   8.305
13467TIP3   OH240333   4.699   2.940   8.085
13467TIP3    H140334   4.639   3.016   8.098
13467TIP3    H240335   4.644   2.865   8.114
13468TIP3   OH240336   4.745   3.206   8.277
13468TIP3    H140337   4.793   3.131   8.320
13468TIP3    H240338   4.810   3.237   8.213
13469TIP3   OH240339   5.598   4.182   7.919
13469TIP3    H140340   5.650   4.104   7.891
13469TIP3    H240341   5.574   4.162   8.011
13470TIP3   OH240342   5.520   3.593   8.209
13470TIP3    H140343   5.605   3.546   8.209
13470TIP3    H240344   5.539   3.672   8.263
13471TIP3   OH240345   6.553   2.967   8.343
13471TIP3    H140346   6.573   3.058   8.368
13471TIP3    H240347   6.593   2.961   8.253
13472TIP3   OH240348   5.925   3.139   8.311
13472TIP3    H140349   5.963   3.050   8.326
13472TIP3    H240350   5.889   3.128   8.221
13473TIP3   OH240351   5.263   2.790   8.278
13473TIP3    H140352   5.239   2.870   8.227
13473TIP3    H240353   5.211   2.723   8.228
13474TIP3   OH240354   5.953   2.888   7.897
13474TIP3    H140355   6.025   2.872   7.963
13474TIP3    H240356   6.004   2.926   7.824
13475TIP3   OH240357   4.895   3.007   8.382
13475TIP3    H140358   4.953   2.964   8.448
13475TIP3    H240359   4.911   2.949   8.305
13476TIP3   OH240360   5.327   3.201   8.177
13476TIP3    H140361   5.423   3.179   8.186
13476TIP3    H240362   5.290   3.115   8.149
13477TIP3   OH240363   6.595   3.213   8.484
13477TIP3    H140364   6.517   3.260   8.449
13477TIP3    H240365   6.550   3.161   8.554
13478TIP3   OH240366   5.614   3.642   7.710
13478TIP3    H140367   5.557   3.610   7.638
13478TIP3    H240368   5.565   3.723   7.735
13479TIP3   OH240369   5.358   3.553   8.533
13479TIP3    H140370   5.278   3.600   8.568
13479TIP3    H240371   5.392   3.628   8.479
13480TIP3   OH240372   6.161   2.892   8.075
13480TIP3    H140373   6.129   2.855   8.159
13480TIP3    H240374   6.210   2.970   8.105
13481TIP3   OH240375   5.116   2.887   8.502
13481TIP3    H140376   5.183   2.960   8.499
13481TIP3    H240377   5.149   2.833   8.429
13482TIP3   OH240378   5.152   3.707   8.622
13482TIP3    H140379   5.159   3.788   8.568
13482TIP3    H240380   5.102   3.738   8.699
13483TIP3   OH240381   4.583   3.445   7.839
13483TIP3    H140382   4.542   3.475   7.756
13483TIP3    H240383   4.615   3.528   7.878
13484TIP3   OH240384   6.030   3.960   8.079
13484TIP3    H140385   5.942   3.948   8.124
13484TIP3    H240386   6.013   4.044   8.033
13485TIP3   OH240387   6.295   2.885   8.453
13485TIP3    H140388   6.203   2.893   8.422
13485TIP3    H240389   6.345   2.906   8.373
13486TIP3   OH240390   5.610   2.495   8.400
13486TIP3    H140391   5.621   2.403   8.430
13486TIP3    H240392   5.590   2.538   8.485
13487TIP3   OH240393   5.738   4.003   7.765
13487TIP3    H140394   5.784   3.921   7.737
13487TIP3    H240395   5.790   4.069   7.716
13488TIP3   OH240396   5.872   3.786   7.658
13488TIP3    H140397   5.807   3.716   7.638
13488TIP3    H240398   5.910   3.753   7.742
13489TIP3   OH240399   6.250   3.873   8.417
13489TIP3    H140400   6.231   3.791   8.366
13489TIP3    H240401   6.223   3.943   8.354
13490TIP3   OH240402   5.539   3.261   7.681
13490TIP3    H140403   5.458   3.312   7.663
13490TIP3    H240404   5.584   3.263   7.595
13491TIP3   OH240405   5.498   3.052   7.394
13491TIP3    H140406   5.564   3.100   7.446
13491TIP3    H240407   5.555   2.988   7.347
13492TIP3   OH240408   6.453   3.525   8.269
13492TIP3    H140409   6.365   3.567   8.278
13492TIP3    H240410   6.470   3.540   8.174
13493TIP3   OH240411   5.889   3.348   7.650
13493TIP3    H140412   5.831   3.373   7.726
13493TIP3    H240413   5.971   3.322   7.697
13494TIP3   OH240414   6.121   3.383   8.565
13494TIP3    H140415   6.119   3.462   8.622
13494TIP3    H240416   6.032   3.387   8.525
13495TIP3   OH240417   5.121   3.343   8.064
13495TIP3    H140418   5.083   3.283   7.997
13495TIP3    H240419   5.198   3.291   8.097
13496TIP3   OH240420   5.213   3.752   8.184
13496TIP3    H140421   5.263   3.688   8.133
13496TIP3    H240422   5.283   3.788   8.243
13497TIP3   OH240423   5.242   3.337   8.414
13497TIP3    H140424   5.277   3.312   8.326
13497TIP3    H240425   5.293   3.419   8.434
13498TIP3   OH240426   5.794   3.955   8.203
13498TIP3    H140427   5.754   4.027   8.255
13498TIP3    H240428   5.775   3.876   8.258
13499TIP3   OH240429   5.378   3.888   8.730
13499TIP3    H140430   5.322   3.964   8.713
13499TIP3    H240431   5.378   3.845   8.642
13500TIP3   OH240432   5.730   3.203   7.478
13500TIP3    H140433   5.788   3.264   7.530
13500TIP3    H240434   5.755   3.228   7.386
13501TIP3   OH240435   5.478   3.881   7.741
13501TIP3    H140436   5.544   3.940   7.780
13501TIP3    H240437   5.406   3.940   7.718
13502TIP3   OH240438   6.244   2.446   7.528
13502TIP3    H140439   6.162   2.465   7.578
13502TIP3    H240440   6.255   2.528   7.477
13503TIP3   OH240441   4.991   3.184   7.864
13503TIP3    H140442   4.919   3.229   7.814
13503TIP3    H240443   4.946   3.105   7.896
13504TIP3   OH240444   6.042   3.812   7.075
13504TIP3    H140445   6.050   3.909   7.061
13504TIP3    H240446   6.135   3.783   7.063
13505TIP3   OH240447   4.628   3.770   8.404
13505TIP3    H140448   4.722   3.754   8.392
13505TIP3    H240449   4.630   3.850   8.460
13506TIP3   OH240450   6.490   4.217   8.468
13506TIP3    H140451   6.488   4.120   8.483
13506TIP3    H240452   6.403   4.241   8.508
13507TIP3   OH240453   5.623   3.998   8.627
13507TIP3    H140454   5.595   4.092   8.624
13507TIP3    H240455   5.534   3.957   8.620
13508TIP3   OH240456   5.355   4.136   7.551
13508TIP3    H140457   5.301   4.114   7.473
13508TIP3    H240458   5.317   4.221   7.581
13509TIP3   OH240459   4.792   3.978   7.943
13509TIP3    H140460   4.843   3.969   8.027
13509TIP3    H240461   4.739   3.897   7.945
13510TIP3   OH240462   5.555   4.034   7.196
13510TIP3    H140463   5.612   3.962   7.161
13510TIP3    H240464   5.586   4.041   7.288
13511TIP3   OH240465   5.605   4.079   7.465
13511TIP3    H140466   5.515   4.092   7.505
13511TIP3    H240467   5.649   4.032   7.538
13512TIP3   OH240468   6.388   3.355   8.710
13512TIP3    H140469   6.294   3.374   8.699
13512TIP3    H240470   6.387   3.257   8.715
13513TIP3   OH240471   6.159   3.137   8.695
13513TIP3    H140472   6.112   3.147   8.778
13513TIP3    H240473   6.122   3.210   8.641
13514TIP3   OH240474   5.804   3.250   7.222
13514TIP3    H140475   5.771   3.225   7.133
13514TIP3    H240476   5.886   3.298   7.198
13515TIP3   OH240477   5.517   2.626   7.525
13515TIP3    H140478   5.484   2.624   7.617
13515TIP3    H240479   5.477   2.543   7.492
13516TIP3   OH240480   5.293   3.088   8.508
13516TIP3    H140481   5.334   3.096   8.595
13516TIP3    H240482   5.278   3.180   8.480
13517TIP3   OH240483   5.190   2.976   8.090
13517TIP3    H140484   5.098   2.951   8.110
13517TIP3    H240485   5.199   2.934   8.001
13518TIP3   OH240486   5.678   3.065   7.816
13518TIP3    H140487   5.624   3.136   7.774
13518TIP3    H240488   5.731   3.034   7.740
13519TIP3   OH240489   5.842   3.095   8.051
13519TIP3    H140490   5.774   3.124   7.987
13519TIP3    H240491   5.870   3.012   8.006
13520TIP3   OH240492   5.171   2.600   7.491
13520TIP3    H140493   5.163   2.598   7.589
13520TIP3    H240494   5.094   2.655   7.468
13521TIP3   OH240495   4.681   2.696   8.244
13521TIP3    H140496   4.729   2.707   8.330
13521TIP3    H240497   4.721   2.613   8.214
13522TIP3   OH240498   4.686   2.623   7.880
13522TIP3    H140499   4.733   2.666   7.805
13522TIP3    H240500   4.628   2.697   7.908
13523TIP3   OH240501   5.852   3.340   8.477
13523TIP3    H140502   5.882   3.265   8.419
13523TIP3    H240503   5.827   3.290   8.557
13524TIP3   OH240504   5.516   2.797   8.145
13524TIP3    H140505   5.431   2.794   8.193
13524TIP3    H240506   5.579   2.806   8.218
13525TIP3   OH240507   4.952   2.861   8.155
13525TIP3    H140508   4.859   2.873   8.125
13525TIP3    H240509   4.968   2.767   8.137
13526TIP3   OH240510   5.217   2.850   7.845
13526TIP3    H140511   5.310   2.871   7.823
13526TIP3    H240512   5.168   2.875   7.763
13527TIP3   OH240513   6.014   2.873   8.333
13527TIP3    H140514   5.995   2.879   8.430
13527TIP3    H240515   5.942   2.812   8.306
13528TIP3   OH240516   5.062   2.884   7.622
13528TIP3    H140517   4.987   2.843   7.575
13528TIP3    H240518   5.112   2.922   7.548
13529TIP3   OH240519   6.192   4.561   8.557
13529TIP3    H140520   6.184   4.582   8.462
13529TIP3    H240521   6.224   4.644   8.594
13530TIP3   OH240522   5.595   3.141   8.230
13530TIP3    H140523   5.669   3.086   8.201
13530TIP3    H240524   5.590   3.118   8.326
13531TIP3   OH240525   5.122   2.621   8.116
13531TIP3    H140526   5.081   2.544   8.161
13531TIP3    H240527   5.167   2.579   8.043
13532TIP3   OH240528   5.584   3.071   8.492
13532TIP3    H140529   5.497   3.036   8.518
13532TIP3    H240530   5.641   3.040   8.565
13533TIP3   OH240531   5.313   3.414   7.628
13533TIP3    H140532   5.238   3.351   7.617
13533TIP3    H240533   5.295   3.448   7.719
13534TIP3   OH240534   6.210   3.650   8.259
13534TIP3    H140535   6.226   3.702   8.178
13534TIP3    H240536   6.124   3.606   8.239
13535TIP3   OH240537   5.767   2.729   7.492
13535TIP3    H140538   5.671   2.711   7.502
13535TIP3    H240539   5.776   2.823   7.518
13536TIP3   OH240540   5.735   3.742   8.625
13536TIP3    H140541   5.693   3.686   8.690
13536TIP3    H240542   5.679   3.823   8.628
13537TIP3   OH240543   5.837   2.976   7.596
13537TIP3    H140544   5.933   2.984   7.611
13537TIP3    H240545   5.816   3.056   7.544
13538TIP3   OH240546   4.994   3.446   8.289
13538TIP3    H140547   5.039   3.417   8.207
13538TIP3    H240548   5.035   3.389   8.355
13539TIP3   OH240549   5.454   3.566   7.449
13539TIP3    H140550   5.407   3.652   7.456
13539TIP3    H240551   5.400   3.510   7.510
13540TIP3   OH240552   5.881   4.014   8.524
13540TIP3    H140553   5.790   3.978   8.520
13540TIP3    H240554   5.869   4.075   8.598
13541TIP3   OH240555   6.282   3.068   7.430
13541TIP3    H140556   6.219   3.023   7.369
13541TIP3    H240557   6.277   3.157   7.389
13542TIP3   OH240558   6.498   3.937   8.495
13542TIP3    H140559   6.402   3.918   8.484
13542TIP3    H240560   6.533   3.900   8.414
13543TIP3   OH240561   5.988   3.886   7.344
13543TIP3    H140562   5.952   3.821   7.406
13543TIP3    H240563   5.992   3.837   7.260
13544TIP3   OH240564   5.981   3.512   8.177
13544TIP3    H140565   5.888   3.485   8.193
13544TIP3    H240566   6.014   3.433   8.131
13545TIP3   OH240567   5.083   3.719   7.884
13545TIP3    H140568   5.102   3.813   7.871
13545TIP3    H240569   5.008   3.721   7.944
13546TIP3   OH240570   4.666   3.048   7.634
13546TIP3    H140571   4.713   3.131   7.657
13546TIP3    H240572   4.590   3.052   7.697
13547TIP3   OH240573   5.247   3.503   7.872
13547TIP3    H140574   5.196   3.587   7.877
13547TIP3    H240575   5.212   3.456   7.950
13548TIP3   OH240576   5.398   4.131   8.457
13548TIP3    H140577   5.349   4.179   8.383
13548TIP3    H240578   5.412   4.048   8.425
13549TIP3   OH240579   5.017   3.992   7.773
13549TIP3    H140580   4.934   3.993   7.825
13549TIP3    H240581   5.045   4.086   7.781
13550TIP3   OH240582   5.792   3.728   8.358
13550TIP3    H140583   5.761   3.724   8.452
13550TIP3    H240584   5.842   3.646   8.350
13551TIP3   OH240585   5.735   3.618   7.240
13551TIP3    H140586   5.789   3.590   7.318
13551TIP3    H240587   5.647   3.589   7.269
13552TIP3   OH240588   6.011   4.254   8.409
13552TIP3    H140589   5.933   4.196   8.401
13552TIP3    H240590   5.994   4.318   8.337
13553TIP3   OH240591   6.075   4.088   7.060
13553TIP3    H140592   6.108   4.161   7.005
13553TIP3    H240593   5.995   4.132   7.097
13554TIP3   OH240594   5.896   3.542   7.448
13554TIP3    H140595   5.884   3.482   7.525
13554TIP3    H240596   5.994   3.543   7.442
13555TIP3   OH240597   4.817   3.952   8.537
13555TIP3    H140598   4.870   3.877   8.568
13555TIP3    H240599   4.834   4.019   8.606
13556TIP3   OH240600   5.102   3.594   7.241
13556TIP3    H140601   5.114   3.501   7.215
13556TIP3    H240602   5.084   3.585   7.337
13557TIP3   OH240603   5.047   3.600   7.512
13557TIP3    H140604   5.106   3.572   7.583
13557TIP3    H240605   5.049   3.698   7.522
13558TIP3   OH240606   4.780   3.291   7.717
13558TIP3    H140607   4.715   3.336   7.776
13558TIP3    H240608   4.795   3.362   7.652
13559TIP3   OH240609   5.966   2.907   8.594
13559TIP3    H140610   6.016   2.947   8.667
13559TIP3    H240611   5.876   2.897   8.631
13560TIP3   OH240612   5.815   2.677   7.774
13560TIP3    H140613   5.798   2.703   7.681
13560TIP3    H240614   5.853   2.760   7.811
13561TIP3   OH240615   5.313   3.798   7.459
13561TIP3    H140616   5.226   3.819   7.498
13561TIP3    H240617   5.327   3.876   7.404
13562TIP3   OH240618   5.502   2.860   7.875
13562TIP3    H140619   5.565   2.933   7.860
13562TIP3    H240620   5.504   2.853   7.973
13563TIP3   OH240621   5.800   3.200   8.705
13563TIP3    H140622   5.806   3.259   8.784
13563TIP3    H240623   5.810   3.114   8.745
13564TIP3   OH240624   5.642   2.585   7.978
13564TIP3    H140625   5.628   2.663   8.035
13564TIP3    H240626   5.705   2.622   7.912
13565TIP3   OH240627   5.057   3.873   7.529
13565TIP3    H140628   5.026   3.944   7.469
13565TIP3    H240629   5.040   3.913   7.617
13566TIP3   OH240630   5.157   2.585   7.767
13566TIP3    H140631   5.153   2.675   7.805
13566TIP3    H240632   5.254   2.569   7.776
13567TIP3   OH240633   6.415   3.066   8.634
13567TIP3    H140634   6.321   3.082   8.657
13567TIP3    H240635   6.400   2.997   8.566
13568TIP3   OH240636   6.066   3.270   8.052
13568TIP3    H140637   5.986   3.216   8.063
13568TIP3    H240638   6.132   3.219   8.104
13569TIP3   OH240639   4.774   3.502   7.522
13569TIP3    H140640   4.841   3.571   7.534
13569TIP3    H240641   4.820   3.446   7.456
13570TIP3   OH240642   4.719   2.777   7.650
13570TIP3    H140643   4.721   2.875   7.651
13570TIP3    H240644   4.627   2.760   7.627
13571TIP3   OH240645   6.031   4.234   8.003
13571TIP3    H140646   5.987   4.278   7.927
13571TIP3    H240647   6.125   4.247   7.978
13572TIP3   OH240648   4.643   3.716   7.909
13572TIP3    H140649   4.576   3.747   7.971
13572TIP3    H240650   4.613   3.758   7.825
13573TIP3   OH240651   5.263   3.797   7.151
13573TIP3    H140652   5.206   3.728   7.192
13573TIP3    H240653   5.339   3.742   7.123
13574TIP3   OH240654   5.934   4.117   8.783
13574TIP3    H140655   5.957   4.026   8.759
13574TIP3    H240656   6.014   4.166   8.761
13575TIP3   OH240657   5.701   3.838   7.067
13575TIP3    H140658   5.738   3.769   7.126
13575TIP3    H240659   5.759   3.834   6.989
13576TIP3   OH240660   4.911   3.314   7.375
13576TIP3    H140661   4.965   3.283   7.450
13576TIP3    H240662   4.980   3.319   7.305
13577TIP3   OH240663   5.423   3.514   7.181
13577TIP3    H140664   5.422   3.527   7.278
13577TIP3    H240665   5.421   3.416   7.176
13578TIP3   OH240666   6.041   3.760   8.579
13578TIP3    H140667   6.100   3.810   8.521
13578TIP3    H240668   5.953   3.795   8.554
13579TIP3   OH240669   5.114   3.221   7.595
13579TIP3    H140670   5.087   3.185   7.682
13579TIP3    H240671   5.150   3.141   7.550
13580TIP3   OH240672   5.219   3.012   7.437
13580TIP3    H140673   5.192   3.017   7.343
13580TIP3    H240674   5.316   3.019   7.429
13581TIP3   OH240675   6.041   3.343   7.100
13581TIP3    H140676   6.019   3.297   7.018
13581TIP3    H240677   6.008   3.433   7.077
13582TIP3   OH240678   5.548   3.408   8.663
13582TIP3    H140679   5.619   3.376   8.606
13582TIP3    H240680   5.495   3.462   8.600
13583TIP3   OH240681   6.169   3.592   8.748
13583TIP3    H140682   6.108   3.652   8.701
13583TIP3    H240683   6.254   3.627   8.713
13584TIP3   OH240684   5.027   4.078   7.341
13584TIP3    H140685   5.121   4.069   7.322
13584TIP3    H240686   4.997   4.127   7.262
13585TIP3   OH240687   4.505   3.459   7.553
13585TIP3    H140688   4.601   3.480   7.544
13585TIP3    H240689   4.501   3.369   7.515
13586TIP3   OH240690   4.422   4.068   7.973
13586TIP3    H140691   4.355   4.006   7.937
13586TIP3    H240692   4.466   4.011   8.039
13587TIP3   OH240693   4.555   3.916   8.159
13587TIP3    H140694   4.550   3.846   8.226
13587TIP3    H240695   4.612   3.980   8.206
13588TIP3   OH240696   6.293   4.306   7.958
13588TIP3    H140697   6.307   4.342   8.048
13588TIP3    H240698   6.337   4.373   7.903
13589TIP3   OH240699   6.314   4.338   8.236
13589TIP3    H140700   6.265   4.252   8.234
13589TIP3    H240701   6.378   4.319   8.305
13590TIP3   OH240702   6.177   3.529   7.433
13590TIP3    H140703   6.245   3.594   7.406
13590TIP3    H240704   6.218   3.490   7.513
13591TIP3   OH240705   6.303   3.398   7.639
13591TIP3    H140706   6.234   3.354   7.694
13591TIP3    H240707   6.359   3.441   7.706
13592TIP3   OH240708   6.377   3.799   8.082
13592TIP3    H140709   6.410   3.727   8.025
13592TIP3    H240710   6.348   3.865   8.015
13593TIP3   OH240711   6.187   4.093   8.261
13593TIP3    H140712   6.115   4.131   8.315
13593TIP3    H240713   6.137   4.046   8.192
13594TIP3   OH240714   6.241   3.306   7.284
13594TIP3    H140715   6.169   3.307   7.216
13594TIP3    H240716   6.212   3.382   7.339
13595TIP3   OH240717   6.114   2.978   7.237
13595TIP3    H140718   6.068   3.015   7.161
13595TIP3    H240719   6.089   2.883   7.230
13596TIP3   OH240720   6.119   3.254   7.783
13596TIP3    H140721   6.122   3.157   7.776
13596TIP3    H240722   6.103   3.266   7.879
13597TIP3   OH240723   4.754   3.369   8.505
13597TIP3    H140724   4.749   3.313   8.425
13597TIP3    H240725   4.848   3.359   8.531
13598TIP3   OH240726   6.401   3.692   8.639
13598TIP3    H140727   6.474   3.627   8.637
13598TIP3    H240728   6.444   3.772   8.605
13599TIP3   OH240729   6.602   3.502   8.639
13599TIP3    H140730   6.524   3.446   8.659
13599TIP3    H240731   6.654   3.486   8.720
13600TIP3   OH240732   6.055   2.713   7.225
13600TIP3    H140733   6.128   2.679   7.280
13600TIP3    H240734   5.981   2.654   7.246
13601TIP3   OH240735   6.114   2.972   7.678
13601TIP3    H140736   6.154   2.883   7.694
13601TIP3    H240737   6.171   3.003   7.606
13602TIP3   OH240738   6.279   3.135   8.178
13602TIP3    H140739   6.366   3.160   8.139
13602TIP3    H240740   6.288   3.178   8.265
13603TIP3   OH240741   6.338   3.298   8.399
13603TIP3    H140742   6.262   3.323   8.456
13603TIP3    H240743   6.364   3.384   8.362
13604TIP3   OH240744   6.223   2.720   7.714
13604TIP3    H140745   6.268   2.704   7.800
13604TIP3    H240746   6.160   2.645   7.713
13605TIP3   OH240747   6.303   2.653   7.351
13605TIP3    H140748   6.340   2.581   7.295
13605TIP3    H240749   6.369   2.724   7.340
13606TIP3   OH240750   4.697   2.458   8.095
13606TIP3    H140751   4.604   2.463   8.125
13606TIP3    H240752   4.700   2.527   8.025
13607TIP3   OH240753   5.869   4.186   7.614
13607TIP3    H140754   5.921   4.174   7.533
13607TIP3    H240755   5.919   4.255   7.661
13608TIP3   OH240756   5.153   4.017   8.576
13608TIP3    H140757   5.095   4.076   8.526
13608TIP3    H240758   5.233   4.022   8.521
13609TIP3   OH240759   5.607   4.267   8.705
13609TIP3    H140760   5.678   4.253   8.767
13609TIP3    H240761   5.653   4.321   8.637
13610TIP3   OH240762   5.779   4.413   8.550
13610TIP3    H140763   5.825   4.359   8.484
13610TIP3    H240764   5.845   4.478   8.574
13611TIP3   OH240765   4.813   4.259   8.588
13611TIP3    H140766   4.762   4.317   8.528
13611TIP3    H240767   4.806   4.306   8.671
13612TIP3   OH240768   5.524   4.314   8.185
13612TIP3    H140769   5.429   4.291   8.187
13612TIP3    H240770   5.520   4.391   8.246
13613TIP3   OH240771   5.761   4.238   8.290
13613TIP3    H140772   5.666   4.242   8.264
13613TIP3    H240773   5.795   4.305   8.230
13614TIP3   OH240774   5.972   4.424   8.195
13614TIP3    H140775   5.949   4.505   8.146
13614TIP3    H240776   5.989   4.360   8.123
13615TIP3   OH240777   4.734   4.071   8.307
13615TIP3    H140778   4.765   4.048   8.398
13615TIP3    H240779   4.809   4.033   8.257
13616TIP3   OH240780   4.935   3.941   8.173
13616TIP3    H140781   4.944   3.857   8.224
13616TIP3    H240782   5.027   3.972   8.174
13617TIP3   OH240783   5.779   2.697   8.266
13617TIP3    H140784   5.727   2.624   8.303
13617TIP3    H240785   5.850   2.650   8.219
13618TIP3   OH240786   6.295   2.570   8.166
13618TIP3    H140787   6.326   2.628   8.094
13618TIP3    H240788   6.201   2.595   8.172
13619TIP3   OH240789   6.387   2.678   7.933
13619TIP3    H140790   6.458   2.625   7.892
13619TIP3    H240791   6.421   2.769   7.917
13620TIP3   OH240792   5.017   2.403   8.234
13620TIP3    H140793   4.926   2.380   8.262
13620TIP3    H240794   5.064   2.321   8.256
13621TIP3   OH240795   4.805   2.269   7.923
13621TIP3    H140796   4.836   2.330   7.854
13621TIP3    H240797   4.772   2.332   7.991
13622TIP3   OH240798   5.466   2.440   8.164
13622TIP3    H140799   5.518   2.491   8.099
13622TIP3    H240800   5.507   2.470   8.247
13623TIP3   OH240801   6.009   2.584   8.142
13623TIP3    H140802   6.008   2.547   8.054
13623TIP3    H240803   5.994   2.503   8.196
13624TIP3   OH240804   6.039   2.508   7.708
13624TIP3    H140805   5.953   2.552   7.722
13624TIP3    H240806   6.023   2.423   7.753
13625TIP3   OH240807   4.523   3.845   7.705
13625TIP3    H140808   4.437   3.814   7.672
13625TIP3    H240809   4.513   3.941   7.691
13626TIP3   OH240810   4.923   2.433   7.691
13626TIP3    H140811   4.974   2.373   7.634
13626TIP3    H240812   4.994   2.489   7.728
13627TIP3   OH240813   5.435   2.610   7.789
13627TIP3    H140814   5.495   2.565   7.851
13627TIP3    H240815   5.453   2.703   7.814
13628TIP3   OH240816   5.293   4.032   7.288
13628TIP3    H140817   5.381   4.055   7.252
13628TIP3    H240818   5.271   3.956   7.229
13629TIP3   OH240819   6.018   4.154   7.383
13629TIP3    H140820   6.010   4.056   7.372
13629TIP3    H240821   5.969   4.185   7.304
13630TIP3   OH240822   4.597   3.871   7.347
13630TIP3    H140823   4.597   3.892   7.441
13630TIP3    H240824   4.686   3.829   7.335
13631TIP3   OH240825   6.244   4.291   8.554
13631TIP3    H140826   6.160   4.266   8.510
13631TIP3    H240827   6.227   4.386   8.572
13632TIP3   OH240828   7.503   3.667   7.340
13632TIP3    H140829   7.476   3.759   7.319
13632TIP3    H240830   7.430   3.618   7.297
13633TIP3   OH240831   7.493   3.668   7.718
13633TIP3    H140832   7.567   3.618   7.755
13633TIP3    H240833   7.452   3.604   7.658
13634TIP3   OH240834   6.817   3.577   8.072
13634TIP3    H140835   6.836   3.506   8.137
13634TIP3    H240836   6.901   3.577   8.022
13635TIP3   OH240837   7.745   3.969   7.399
13635TIP3    H140838   7.742   3.895   7.462
13635TIP3    H240839   7.785   4.039   7.453
13636TIP3   OH240840   6.793   3.972   7.837
13636TIP3    H140841   6.779   3.876   7.821
13636TIP3    H240842   6.882   3.983   7.800
13637TIP3   OH240843   6.479   3.182   7.596
13637TIP3    H140844   6.423   3.261   7.609
13637TIP3    H240845   6.413   3.122   7.556
13638TIP3   OH240846   6.545   3.477   7.763
13638TIP3    H140847   6.593   3.398   7.797
13638TIP3    H240848   6.583   3.486   7.674
13639TIP3   OH240849   7.446   4.469   7.432
13639TIP3    H140850   7.463   4.399   7.365
13639TIP3    H240851   7.400   4.420   7.501
13640TIP3   OH240852   7.302   3.889   7.776
13640TIP3    H140853   7.344   3.808   7.740
13640TIP3    H240854   7.384   3.941   7.789
13641TIP3   OH240855   7.043   3.066   7.754
13641TIP3    H140856   7.021   3.137   7.690
13641TIP3    H240857   7.003   2.988   7.708
13642TIP3   OH240858   7.722   3.189   7.363
13642TIP3    H140859   7.784   3.123   7.403
13642TIP3    H240860   7.771   3.216   7.284
13643TIP3   OH240861   6.692   3.274   7.869
13643TIP3    H140862   6.780   3.259   7.910
13643TIP3    H240863   6.695   3.208   7.797
13644TIP3   OH240864   7.123   3.455   7.678
13644TIP3    H140865   7.217   3.428   7.683
13644TIP3    H240866   7.083   3.375   7.637
13645TIP3   OH240867   7.023   2.997   8.164
13645TIP3    H140868   6.976   3.073   8.127
13645TIP3    H240869   7.008   3.005   8.259
13646TIP3   OH240870   7.394   3.887   7.207
13646TIP3    H140871   7.356   3.868   7.121
13646TIP3    H240872   7.348   3.970   7.232
13647TIP3   OH240873   7.130   3.866   7.992
13647TIP3    H140874   7.058   3.886   7.933
13647TIP3    H240875   7.207   3.892   7.937
13648TIP3   OH240876   6.940   3.189   7.973
13648TIP3    H140877   7.011   3.247   8.007
13648TIP3    H240878   6.991   3.139   7.905
13649TIP3   OH240879   6.380   3.699   7.326
13649TIP3    H140880   6.335   3.721   7.242
13649TIP3    H240881   6.408   3.787   7.359
13650TIP3   OH240882   7.817   4.218   7.561
13650TIP3    H140883   7.734   4.194   7.607
13650TIP3    H240884   7.790   4.305   7.528
13651TIP3   OH240885   7.514   4.278   7.237
13651TIP3    H140886   7.559   4.190   7.225
13651TIP3    H240887   7.583   4.336   7.201
13652TIP3   OH240888   7.654   4.055   7.154
13652TIP3    H140889   7.631   3.974   7.105
13652TIP3    H240890   7.691   4.016   7.237
13653TIP3   OH240891   7.336   3.530   7.163
13653TIP3    H140892   7.254   3.578   7.141
13653TIP3    H240893   7.379   3.522   7.076
13654TIP3   OH240894   7.296   3.305   6.885
13654TIP3    H140895   7.366   3.357   6.928
13654TIP3    H240896   7.350   3.240   6.836
13655TIP3   OH240897   7.681   3.607   7.139
13655TIP3    H140898   7.626   3.630   7.217
13655TIP3    H240899   7.764   3.580   7.182
13656TIP3   OH240900   6.915   3.602   7.555
13656TIP3    H140901   6.870   3.544   7.489
13656TIP3    H240902   6.989   3.546   7.584
13657TIP3   OH240903   7.039   3.994   7.710
13657TIP3    H140904   7.021   3.971   7.618
13657TIP3    H240905   7.133   3.967   7.720
13658TIP3   OH240906   7.046   3.573   7.918
13658TIP3    H140907   7.071   3.540   7.829
13658TIP3    H240908   7.116   3.639   7.934
13659TIP3   OH240909   7.576   4.217   7.679
13659TIP3    H140910   7.569   4.295   7.738
13659TIP3    H240911   7.563   4.141   7.739
13660TIP3   OH240912   7.192   4.152   8.233
13660TIP3    H140913   7.122   4.201   8.280
13660TIP3    H240914   7.140   4.101   8.169
13661TIP3   OH240915   7.522   3.462   6.964
13661TIP3    H140916   7.581   3.522   7.015
13661TIP3    H240917   7.548   3.485   6.871
13662TIP3   OH240918   6.902   3.728   8.310
13662TIP3    H140919   6.928   3.775   8.393
13662TIP3    H240920   6.839   3.661   8.345
13663TIP3   OH240921   7.269   4.143   7.248
13663TIP3    H140922   7.349   4.197   7.252
13663TIP3    H240923   7.209   4.197   7.194
13664TIP3   OH240924   6.984   4.295   8.331
13664TIP3    H140925   6.952   4.304   8.239
13664TIP3    H240926   6.901   4.279   8.381
13665TIP3   OH240927   7.973   2.702   6.965
13665TIP3    H140928   7.917   2.719   7.044
13665TIP3    H240929   7.989   2.792   6.931
13666TIP3   OH240930   6.779   3.446   7.367
13666TIP3    H140931   6.713   3.488   7.307
13666TIP3    H240932   6.745   3.356   7.373
13667TIP3   OH240933   7.840   4.069   6.568
13667TIP3    H140934   7.848   4.165   6.547
13667TIP3    H240935   7.932   4.038   6.551
13668TIP3   OH240936   6.612   3.825   8.240
13668TIP3    H140937   6.526   3.826   8.191
13668TIP3    H240938   6.605   3.740   8.290
13669TIP3   OH240939   6.414   4.025   7.902
13669TIP3    H140940   6.508   4.038   7.890
13669TIP3    H240941   6.386   4.110   7.941
13670TIP3   OH240942   7.372   4.285   8.087
13670TIP3    H140943   7.417   4.335   8.156
13670TIP3    H240944   7.309   4.230   8.140
13671TIP3   OH240945   7.154   4.386   7.042
13671TIP3    H140946   7.105   4.361   6.961
13671TIP3    H240947   7.117   4.473   7.063
13672TIP3   OH240948   6.587   4.237   7.425
13672TIP3    H140949   6.630   4.225   7.513
13672TIP3    H240950   6.532   4.156   7.421
13673TIP3   OH240951   7.352   4.290   6.684
13673TIP3    H140952   7.408   4.219   6.644
13673TIP3    H240953   7.389   4.295   6.775
13674TIP3   OH240954   7.407   4.338   6.958
13674TIP3    H140955   7.315   4.351   6.991
13674TIP3    H240956   7.442   4.279   7.026
13675TIP3   OH240957   0.684   6.217   1.430
13675TIP3    H140958   0.667   6.121   1.423
13675TIP3    H240959   0.631   6.237   1.509
13676TIP3   OH240960   7.603   3.512   6.712
13676TIP3    H140961   7.565   3.485   6.626
13676TIP3    H240962   7.687   3.552   6.683
13677TIP3   OH240963   7.314   2.881   7.010
13677TIP3    H140964   7.275   2.879   7.100
13677TIP3    H240965   7.274   2.799   6.974
13678TIP3   OH240966   7.122   3.363   8.081
13678TIP3    H140967   7.057   3.380   8.152
13678TIP3    H240968   7.109   3.441   8.023
13679TIP3   OH240969   6.981   3.247   7.564
13679TIP3    H140970   6.889   3.219   7.581
13679TIP3    H240971   6.997   3.203   7.477
13680TIP3   OH240972   7.459   3.328   7.298
13680TIP3    H140973   7.411   3.398   7.250
13680TIP3    H240974   7.522   3.296   7.231
13681TIP3   OH240975   7.605   3.369   7.536
13681TIP3    H140976   7.547   3.397   7.463
13681TIP3    H240977   7.646   3.292   7.492
13682TIP3   OH240978   6.909   3.391   8.261
13682TIP3    H140979   6.945   3.423   8.345
13682TIP3    H240980   6.859   3.312   8.288
13683TIP3   OH240981   6.971   2.860   6.979
13683TIP3    H140982   6.957   2.854   7.075
13683TIP3    H240983   6.890   2.907   6.951
13684TIP3   OH240984   6.510   2.899   7.838
13684TIP3    H140985   6.596   2.939   7.860
13684TIP3    H240986   6.527   2.857   7.752
13685TIP3   OH240987   6.482   2.882   7.368
13685TIP3    H140988   6.526   2.920   7.289
13685TIP3    H240989   6.420   2.953   7.388
13686TIP3   OH240990   7.300   3.054   7.646
13686TIP3    H140991   7.210   3.048   7.682
13686TIP3    H240992   7.349   3.056   7.729
13687TIP3   OH240993   6.744   3.126   7.632
13687TIP3    H140994   6.648   3.135   7.609
13687TIP3    H240995   6.762   3.032   7.611
13688TIP3   OH240996   7.014   3.114   7.328
13688TIP3    H140997   7.106   3.124   7.299
13688TIP3    H240998   6.962   3.133   7.247
13689TIP3   OH240999   6.856   3.148   7.111
13689TIP3    H141000   6.785   3.099   7.065
13689TIP3    H241001   6.907   3.180   7.034
13690TIP3   OH241002   6.916   3.924   8.491
13690TIP3    H141003   6.983   3.979   8.534
13690TIP3    H241004   6.850   3.914   8.561
13691TIP3   OH241005   7.394   3.382   7.718
13691TIP3    H141006   7.470   3.365   7.658
13691TIP3    H241007   7.429   3.350   7.802
13692TIP3   OH241008   6.919   2.876   7.607
13692TIP3    H141009   6.878   2.803   7.659
13692TIP3    H241010   6.961   2.827   7.535
13693TIP3   OH241011   7.102   3.677   7.116
13693TIP3    H141012   7.033   3.608   7.106
13693TIP3    H241013   7.085   3.708   7.209
13694TIP3   OH241014   7.564   2.983   6.988
13694TIP3    H141015   7.467   2.963   6.989
13694TIP3    H241016   7.568   3.079   7.001
13695TIP3   OH241017   7.442   3.988   8.072
13695TIP3    H141018   7.461   3.934   8.151
13695TIP3    H241019   7.450   4.078   8.106
13696TIP3   OH241020   7.634   3.239   7.079
13696TIP3    H141021   7.731   3.248   7.073
13696TIP3    H241022   7.603   3.315   7.024
13697TIP3   OH241023   6.805   3.705   7.787
13697TIP3    H141024   6.836   3.676   7.699
13697TIP3    H241025   6.824   3.628   7.841
13698TIP3   OH241026   7.254   3.825   6.944
13698TIP3    H141027   7.206   3.911   6.949
13698TIP3    H241028   7.196   3.769   7.000
13699TIP3   OH241029   6.681   3.603   8.399
13699TIP3    H141030   6.668   3.575   8.492
13699TIP3    H241031   6.608   3.551   8.358
13700TIP3   OH241032   7.646   4.282   8.019
13700TIP3    H141033   7.551   4.281   8.000
13700TIP3    H241034   7.651   4.341   8.095
13701TIP3   OH241035   8.074   3.325   6.924
13701TIP3    H141036   8.015   3.281   6.858
13701TIP3    H241037   8.075   3.414   6.881
13702TIP3   OH241038   7.780   4.141   6.831
13702TIP3    H141039   7.751   4.065   6.883
13702TIP3    H241040   7.792   4.101   6.742
13703TIP3   OH241041   7.763   3.770   7.599
13703TIP3    H141042   7.672   3.757   7.630
13703TIP3    H241043   7.790   3.679   7.576
13704TIP3   OH241044   6.900   4.003   7.428
13704TIP3    H141045   6.899   4.082   7.370
13704TIP3    H241046   6.807   3.978   7.423
13705TIP3   OH241047   6.465   3.304   7.124
13705TIP3    H141048   6.509   3.389   7.144
13705TIP3    H241049   6.386   3.309   7.182
13706TIP3   OH241050   7.037   3.768   7.364
13706TIP3    H141051   7.003   3.857   7.384
13706TIP3    H241052   6.998   3.715   7.436
13707TIP3   OH241053   7.169   4.338   7.884
13707TIP3    H141054   7.213   4.407   7.831
13707TIP3    H241055   7.244   4.309   7.940
13708TIP3   OH241056   6.820   4.237   7.272
13708TIP3    H141057   6.733   4.245   7.316
13708TIP3    H241058   6.849   4.331   7.272
13709TIP3   OH241059   7.558   3.989   7.829
13709TIP3    H141060   7.525   3.985   7.922
13709TIP3    H241061   7.642   3.939   7.840
13710TIP3   OH241062   7.532   3.875   6.728
13710TIP3    H141063   7.583   3.850   6.808
13710TIP3    H241064   7.444   3.841   6.751
13711TIP3   OH241065   7.870   4.342   6.549
13711TIP3    H141066   7.895   4.401   6.476
13711TIP3    H241067   7.792   4.392   6.582
13712TIP3   OH241068   7.691   3.815   6.950
13712TIP3    H141069   7.679   3.743   7.016
13712TIP3    H241070   7.787   3.806   6.932
13713TIP3   OH241071   6.606   4.220   8.034
13713TIP3    H141072   6.630   4.140   8.082
13713TIP3    H241073   6.618   4.289   8.101
13714TIP3   OH241074   6.898   3.851   6.728
13714TIP3    H141075   6.909   3.760   6.697
13714TIP3    H241076   6.876   3.837   6.822
13715TIP3   OH241077   6.842   3.856   7.001
13715TIP3    H141078   6.916   3.827   7.056
13715TIP3    H241079   6.848   3.954   7.009
13716TIP3   OH241080   6.580   3.550   7.204
13716TIP3    H141081   6.511   3.593   7.260
13716TIP3    H241082   6.592   3.618   7.135
13717TIP3   OH241083   7.604   2.948   7.260
13717TIP3    H141084   7.591   2.951   7.162
13717TIP3    H241085   7.629   3.040   7.279
13718TIP3   OH241086   7.113   4.057   6.954
13718TIP3    H141087   7.024   4.083   6.986
13718TIP3    H241088   7.121   4.113   6.876
13719TIP3   OH241089   7.302   3.115   7.369
13719TIP3    H141090   7.359   3.191   7.345
13719TIP3    H241091   7.295   3.125   7.466
13720TIP3   OH241092   7.439   2.867   7.464
13720TIP3    H141093   7.403   2.953   7.493
13720TIP3    H241094   7.501   2.896   7.393
13721TIP3   OH241095   6.856   4.130   7.017
13721TIP3    H141096   6.824   4.199   6.954
13721TIP3    H241097   6.837   4.172   7.103
13722TIP3   OH241098   6.949   2.842   7.255
13722TIP3    H141099   6.948   2.932   7.293
13722TIP3    H241100   7.045   2.823   7.260
13723TIP3   OH241101   7.862   3.492   7.533
13723TIP3    H141102   7.772   3.457   7.555
13723TIP3    H241103   7.899   3.507   7.621
13724TIP3   OH241104   6.571   3.757   7.009
13724TIP3    H141105   6.641   3.825   7.016
13724TIP3    H241106   6.613   3.699   6.941
13725TIP3   OH241107   6.516   3.034   7.143
13725TIP3    H141108   6.511   3.132   7.139
13725TIP3    H241109   6.436   3.008   7.096
13726TIP3   OH241110   7.813   4.509   7.491
13726TIP3    H141111   7.797   4.532   7.398
13726TIP3    H241112   7.904   4.475   7.491
13727TIP3   OH241113   0.584   5.934   1.394
13727TIP3    H141114   0.513   5.893   1.346
13727TIP3    H241115   0.571   5.894   1.483
13728TIP3   OH241116   6.444   3.981   7.396
13728TIP3    H141117   6.374   4.004   7.459
13728TIP3    H241118   6.408   4.019   7.312
13729TIP3   OH241119   6.604   4.504   8.439
13729TIP3    H141120   6.654   4.508   8.521
13729TIP3    H241121   6.558   4.419   8.447
13730TIP3   OH241122   7.064   4.055   6.646
13730TIP3    H141123   7.007   3.981   6.678
13730TIP3    H241124   7.136   4.005   6.603
13731TIP3   OH241125   7.497   4.097   6.554
13731TIP3    H141126   7.539   4.028   6.609
13731TIP3    H241127   7.550   4.094   6.471
13732TIP3   OH241128   6.706   3.572   6.861
13732TIP3    H141129   6.761   3.535   6.933
13732TIP3    H241130   6.772   3.575   6.789
13733TIP3   OH241131   7.221   3.771   6.672
13733TIP3    H141132   7.220   3.781   6.769
13733TIP3    H241133   7.221   3.673   6.665
13734TIP3   OH241134   6.918   3.474   7.085
13734TIP3    H141135   6.886   3.428   7.164
13734TIP3    H241136   6.952   3.400   7.031
13735TIP3   OH241137   7.149   3.588   8.319
13735TIP3    H141138   7.066   3.632   8.297
13735TIP3    H241139   7.201   3.598   8.236
13736TIP3   OH241140   7.015   3.271   6.923
13736TIP3    H141141   6.988   3.272   6.829
13736TIP3    H241142   7.113   3.275   6.914
13737TIP3   OH241143   7.837   3.599   6.589
13737TIP3    H141144   7.817   3.552   6.506
13737TIP3    H241145   7.804   3.689   6.564
13738TIP3   OH241146   7.284   3.647   8.085
13738TIP3    H141147   7.376   3.648   8.051
13738TIP3    H241148   7.256   3.740   8.070
13739TIP3   OH241149   6.825   4.338   6.833
13739TIP3    H141150   6.919   4.329   6.808
13739TIP3    H241151   6.791   4.381   6.753
13740TIP3   OH241152   6.302   3.712   7.046
13740TIP3    H141153   6.397   3.733   7.031
13740TIP3    H241154   6.294   3.624   7.003
13741TIP3   OH241155   6.219   4.327   7.458
13741TIP3    H141156   6.151   4.266   7.421
13741TIP3    H241157   6.262   4.268   7.523
13742TIP3   OH241158   6.352   4.177   7.645
13742TIP3    H141159   6.331   4.105   7.707
13742TIP3    H241160   6.399   4.239   7.703
13743TIP3   OH241161   7.967   3.789   6.920
13743TIP3    H141162   8.032   3.855   6.888
13743TIP3    H241163   8.015   3.749   6.995
13744TIP3   OH241164   8.097   3.659   7.127
13744TIP3    H141165   8.025   3.607   7.169
13744TIP3    H241166   8.126   3.714   7.200
13745TIP3   OH241167   8.081   4.004   7.480
13745TIP3    H141168   8.173   3.994   7.505
13745TIP3    H241169   8.067   4.100   7.485
13746TIP3   OH241170   7.994   4.381   7.707
13746TIP3    H141171   7.968   4.376   7.801
13746TIP3    H241172   7.943   4.305   7.672
13747TIP3   OH241173   8.034   3.562   6.775
13747TIP3    H141174   7.966   3.560   6.704
13747TIP3    H241175   8.005   3.641   6.824
13748TIP3   OH241176   7.905   3.238   6.731
13748TIP3    H141177   7.872   3.273   6.648
13748TIP3    H241178   7.881   3.143   6.721
13749TIP3   OH241179   7.913   3.508   7.262
13749TIP3    H141180   7.917   3.413   7.241
13749TIP3    H241181   7.896   3.507   7.359
13750TIP3   OH241182   6.543   3.582   8.015
13750TIP3    H141183   6.536   3.553   7.922
13750TIP3    H241184   6.641   3.584   8.026
13751TIP3   OH241185   7.849   2.974   6.717
13751TIP3    H141186   7.925   2.934   6.763
13751TIP3    H241187   7.775   2.912   6.732
13752TIP3   OH241188   7.915   3.241   7.151
13752TIP3    H141189   7.939   3.148   7.159
13752TIP3    H241190   7.974   3.269   7.077
13753TIP3   OH241191   6.762   2.983   7.916
13753TIP3    H141192   6.823   2.931   7.863
13753TIP3    H241193   6.818   3.055   7.948
13754TIP3   OH241194   6.527   3.235   8.098
13754TIP3    H141195   6.572   3.234   8.011
13754TIP3    H241196   6.541   3.326   8.126
13755TIP3   OH241197   8.105   2.911   6.833
13755TIP3    H141198   8.146   2.849   6.770
13755TIP3    H241199   8.169   2.985   6.834
13756TIP3   OH241200   6.502   2.748   7.601
13756TIP3    H141201   6.407   2.732   7.619
13756TIP3    H241202   6.499   2.799   7.518
13757TIP3   OH241203   7.688   4.464   7.119
13757TIP3    H141204   7.684   4.416   7.034
13757TIP3    H241205   7.770   4.512   7.102
13758TIP3   OH241206   6.562   2.689   8.425
13758TIP3    H141207   6.551   2.692   8.523
13758TIP3    H241208   6.552   2.779   8.400
13759TIP3   OH241209   6.764   4.228   8.487
13759TIP3    H141210   6.668   4.222   8.467
13759TIP3    H241211   6.763   4.218   8.582
13760TIP3   OH241212   6.949   4.277   8.053
13760TIP3    H141213   6.888   4.338   8.008
13760TIP3    H241214   7.028   4.290   7.998
13761TIP3   OH241215   6.622   4.537   8.063
13761TIP3    H141216   6.531   4.566   8.039
13761TIP3    H241217   6.633   4.585   8.146
13762TIP3   OH241218   6.859   4.516   7.919
13762TIP3    H141219   6.773   4.526   7.966
13762TIP3    H241220   6.835   4.548   7.830
13763TIP3   OH241221   7.281   4.542   7.692
13763TIP3    H141222   7.195   4.563   7.649
13763TIP3    H241223   7.293   4.620   7.751
13764TIP3   OH241224   7.539   4.480   7.766
13764TIP3    H141225   7.447   4.500   7.743
13764TIP3    H241226   7.585   4.562   7.742
13765TIP3   OH241227   7.658   4.695   7.618
13765TIP3    H141228   7.731   4.747   7.657
13765TIP3    H241229   7.712   4.620   7.583
13766TIP3   OH241230   6.533   4.338   7.796
13766TIP3    H141231   6.557   4.312   7.888
13766TIP3    H241232   6.604   4.290   7.747
13767TIP3   OH241233   6.726   4.200   7.662
13767TIP3    H141234   6.745   4.119   7.713
13767TIP3    H241235   6.815   4.241   7.656
13768TIP3   OH241236   6.991   4.302   7.662
13768TIP3    H141237   7.026   4.213   7.642
13768TIP3    H241238   7.034   4.318   7.748
13769TIP3   OH241239   6.796   2.698   7.772
13769TIP3    H141240   6.705   2.661   7.769
13769TIP3    H241241   6.846   2.613   7.778
13770TIP3   OH241242   6.605   2.531   7.419
13770TIP3    H141243   6.632   2.586   7.343
13770TIP3    H241244   6.574   2.598   7.483
13771TIP3   OH241245   7.228   2.709   7.649
13771TIP3    H141246   7.285   2.780   7.618
13771TIP3    H241247   7.232   2.718   7.746
13772TIP3   OH241248   7.831   2.774   7.188
13772TIP3    H141249   7.752   2.818   7.223
13772TIP3    H241250   7.832   2.691   7.239
13773TIP3   OH241251   6.319   4.103   7.192
13773TIP3    H141252   6.233   4.068   7.160
13773TIP3    H241253   6.306   4.197   7.169
13774TIP3   OH241254   6.718   2.691   7.178
13774TIP3    H141255   6.765   2.626   7.122
13774TIP3    H241256   6.793   2.743   7.214
13775TIP3   OH241257   7.224   2.871   7.272
13775TIP3    H141258   7.276   2.816   7.333
13775TIP3    H241259   7.252   2.961   7.301
13776TIP3   OH241260   7.091   4.293   6.775
13776TIP3    H141261   7.179   4.314   6.738
13776TIP3    H241262   7.068   4.217   6.717
13777TIP3   OH241263   7.804   4.408   6.873
13777TIP3    H141264   7.801   4.310   6.858
13777TIP3    H241265   7.763   4.440   6.790
13778TIP3   OH241266   6.396   4.130   6.833
13778TIP3    H141267   6.393   4.147   6.928
13778TIP3    H241268   6.483   4.085   6.822
13779TIP3   OH241269   8.263   3.429   7.129
13779TIP3    H141270   8.217   3.514   7.114
13779TIP3    H241271   8.222   3.375   7.059
13780TIP3   OH241272   8.158   3.968   6.819
13780TIP3    H141273   8.123   3.986   6.729
13780TIP3    H241274   8.195   4.054   6.844
13781TIP3   OH241275   8.548   3.670   6.759
13781TIP3    H141276   8.462   3.713   6.745
13781TIP3    H241277   8.540   3.623   6.843
13782TIP3   OH241278   8.189   4.299   7.405
13782TIP3    H141279   8.283   4.279   7.378
13782TIP3    H241280   8.192   4.282   7.497
13783TIP3   OH241281   8.898   4.620   6.541
13783TIP3    H141282   8.887   4.610   6.444
13783TIP3    H241283   8.888   4.715   6.555
13784TIP3   OH241284   8.381   4.501   6.921
13784TIP3    H141285   8.422   4.469   7.003
13784TIP3    H241286   8.324   4.425   6.899
13785TIP3   OH241287   8.732   3.204   6.467
13785TIP3    H141288   8.721   3.119   6.511
13785TIP3    H241289   8.650   3.213   6.416
13786TIP3   OH241290   8.277   3.132   6.864
13786TIP3    H141291   8.320   3.170   6.783
13786TIP3    H241292   8.215   3.204   6.883
13787TIP3   OH241293   8.611   3.432   6.585
13787TIP3    H141294   8.561   3.362   6.541
13787TIP3    H241295   8.691   3.436   6.530
13788TIP3   OH241296   8.867   3.956   6.607
13788TIP3    H141297   8.818   3.873   6.585
13788TIP3    H241298   8.847   3.964   6.702
13789TIP3   OH241299   9.016   4.076   6.406
13789TIP3    H141300   8.987   4.166   6.433
13789TIP3    H241301   8.978   4.023   6.479
13790TIP3   OH241302   8.699   4.267   6.871
13790TIP3    H141303   8.683   4.348   6.819
13790TIP3    H241304   8.617   4.258   6.921
13791TIP3   OH241305   8.253   3.558   6.603
13791TIP3    H141306   8.300   3.643   6.620
13791TIP3    H241307   8.180   3.564   6.668
13792TIP3   OH241308   8.822   4.028   6.886
13792TIP3    H141309   8.786   4.118   6.869
13792TIP3    H241310   8.754   3.991   6.943
13793TIP3   OH241311   8.608   4.502   6.755
13793TIP3    H141312   8.522   4.517   6.799
13793TIP3    H241313   8.656   4.583   6.776
13794TIP3   OH241314   8.690   4.106   6.217
13794TIP3    H141315   8.692   4.014   6.185
13794TIP3    H241316   8.670   4.094   6.312
13795TIP3   OH241317   8.639   4.112   6.488
13795TIP3    H141318   8.718   4.080   6.533
13795TIP3    H241319   8.646   4.210   6.499
13796TIP3   OH241320   8.338   3.816   6.677
13796TIP3    H141321   8.280   3.865   6.738
13796TIP3    H241322   8.364   3.886   6.614
13797TIP3   OH241323   8.910   4.320   6.458
13797TIP3    H141324   8.820   4.350   6.483
13797TIP3    H241325   8.929   4.382   6.386
13798TIP3   OH241326   8.646   4.387   6.503
13798TIP3    H141327   8.615   4.454   6.438
13798TIP3    H241328   8.631   4.434   6.587
13799TIP3   OH241329   8.368   4.021   6.488
13799TIP3    H141330   8.442   4.084   6.497
13799TIP3    H241331   8.409   3.960   6.422
13800TIP3   OH241332   8.303   3.285   6.639
13800TIP3    H141333   8.321   3.381   6.628
13800TIP3    H241334   8.234   3.271   6.573
13801TIP3   OH241335   8.243   4.244   6.883
13801TIP3    H141336   8.167   4.267   6.938
13801TIP3    H241337   8.213   4.278   6.796
13802TIP3   OH241338   8.856   4.306   6.136
13802TIP3    H141339   8.791   4.239   6.167
13802TIP3    H241340   8.936   4.252   6.133
13803TIP3   OH241341   8.504   3.829   6.346
13803TIP3    H141342   8.551   3.787   6.419
13803TIP3    H241343   8.575   3.831   6.278
13804TIP3   OH241344   8.997   4.013   6.145
13804TIP3    H141345   9.015   4.042   6.238
13804TIP3    H241346   8.928   3.948   6.162
13805TIP3   OH241347   8.728   3.729   6.570
13805TIP3    H141348   8.667   3.695   6.640
13805TIP3    H241349   8.750   3.645   6.524
13806TIP3   OH241350   8.821   3.522   6.413
13806TIP3    H141351   8.782   3.521   6.324
13806TIP3    H241352   8.915   3.508   6.389
13807TIP3   OH241353   8.609   4.591   6.321
13807TIP3    H141354   8.705   4.586   6.302
13807TIP3    H241355   8.578   4.634   6.239
13808TIP3   OH241356   8.100   3.969   6.538
13808TIP3    H141357   8.193   3.992   6.516
13808TIP3    H241358   8.093   3.880   6.495
13809TIP3   OH241359   8.003   4.585   6.948
13809TIP3    H141360   7.944   4.521   6.903
13809TIP3    H241361   8.057   4.524   7.004
13810TIP3   OH241362   8.143   4.427   7.121
13810TIP3    H141363   8.127   4.352   7.181
13810TIP3    H241364   8.193   4.486   7.180
13811TIP3   OH241365   8.111   4.365   6.685
13811TIP3    H141366   8.028   4.328   6.649
13811TIP3    H241367   8.104   4.455   6.647
13812TIP3   OH241368   8.504   2.990   6.647
13812TIP3    H141369   8.574   2.923   6.649
13812TIP3    H241370   8.518   3.037   6.732
13813TIP3   OH241371   8.874   4.547   6.268
13813TIP3    H141372   8.962   4.563   6.228
13813TIP3    H241373   8.847   4.470   6.213
13814TIP3   OH241374   8.194   4.384   6.318
13814TIP3    H141375   8.199   4.409   6.411
13814TIP3    H241376   8.281   4.341   6.303
13815TIP3   OH241377   1.869   5.080   8.292
13815TIP3    H141378   1.895   5.027   8.214
13815TIP3    H241379   1.952   5.123   8.319
13816TIP3   OH241380   1.568   4.344   8.071
13816TIP3    H141381   1.641   4.405   8.095
13816TIP3    H241382   1.616   4.281   8.013
13817TIP3   OH241383   1.783   4.504   8.132
13817TIP3    H141384   1.793   4.596   8.158
13817TIP3    H241385   1.804   4.512   8.035
13818TIP3   OH241386   2.091   5.116   7.744
13818TIP3    H141387   2.099   5.211   7.719
13818TIP3    H241388   2.182   5.084   7.728
13819TIP3   OH241389   1.609   5.332   7.858
13819TIP3    H141390   1.656   5.260   7.809
13819TIP3    H241391   1.664   5.338   7.937
13820TIP3   OH241392   1.603   5.417   8.208
13820TIP3    H141393   1.556   5.343   8.168
13820TIP3    H241394   1.692   5.378   8.227
13821TIP3   OH241395   1.851   4.561   7.882
13821TIP3    H141396   1.812   4.532   7.796
13821TIP3    H241397   1.936   4.596   7.851
13822TIP3   OH241398   1.508   4.870   8.071
13822TIP3    H141399   1.485   4.963   8.097
13822TIP3    H241400   1.467   4.821   8.144
13823TIP3   OH241401   2.331   4.368   8.079
13823TIP3    H141402   2.260   4.324   8.026
13823TIP3    H241403   2.330   4.454   8.034
13824TIP3   OH241404   2.021   5.182   8.001
13824TIP3    H141405   2.012   5.094   8.039
13824TIP3    H241406   2.040   5.160   7.908
13825TIP3   OH241407   1.774   4.919   7.905
13825TIP3    H141408   1.827   4.897   7.984
13825TIP3    H241409   1.686   4.890   7.934
13826TIP3   OH241410   2.118   5.390   7.725
13826TIP3    H141411   2.158   5.458   7.667
13826TIP3    H241412   2.039   5.439   7.754
13827TIP3   OH241413   1.948   4.875   8.121
13827TIP3    H141414   1.933   4.808   8.188
13827TIP3    H241415   2.044   4.861   8.102
13828TIP3   OH241416   1.154   4.894   7.911
13828TIP3    H141417   1.170   4.805   7.876
13828TIP3    H241418   1.106   4.875   7.995
13829TIP3   OH241419   1.418   5.130   8.121
13829TIP3    H141420   1.344   5.131   8.186
13829TIP3    H241421   1.375   5.168   8.043
13830TIP3   OH241422   0.991   5.188   8.145
13830TIP3    H141423   1.002   5.261   8.080
13830TIP3    H241424   0.999   5.237   8.228
13831TIP3   OH241425   1.313   5.097   7.820
13831TIP3    H141426   1.255   5.025   7.856
13831TIP3    H241427   1.382   5.045   7.776
13832TIP3   OH241428   1.748   5.142   7.728
13832TIP3    H141429   1.792   5.073   7.782
13832TIP3    H241430   1.799   5.138   7.644
13833TIP3   OH241431   0.928   4.647   7.971
13833TIP3    H141432   0.959   4.695   8.050
13833TIP3    H241433   1.014   4.629   7.926
13834TIP3   OH241434   1.455   4.804   7.816
13834TIP3    H141435   1.463   4.826   7.911
13834TIP3    H241436   1.461   4.706   7.821
13835TIP3   OH241437   1.216   4.365   8.081
13835TIP3    H141438   1.214   4.352   7.983
13835TIP3    H241439   1.310   4.372   8.099
13836TIP3   OH241440   2.087   4.644   7.767
13836TIP3    H141441   2.069   4.597   7.683
13836TIP3    H241442   2.054   4.734   7.741
13837TIP3   OH241443   1.083   5.400   7.999
13837TIP3    H141444   1.179   5.388   7.987
13837TIP3    H241445   1.061   5.445   7.916
13838TIP3   OH241446   2.217   4.853   8.093
13838TIP3    H141447   2.288   4.909   8.054
13838TIP3    H241448   2.252   4.840   8.183
13839TIP3   OH241449   2.350   4.663   8.266
13839TIP3    H141450   2.275   4.685   8.323
13839TIP3    H241451   2.308   4.617   8.191
13840TIP3   OH241452   2.280   4.616   7.958
13840TIP3    H141453   2.213   4.608   7.887
13840TIP3    H241454   2.256   4.705   7.992
13841TIP3   OH241455   2.144   4.283   7.900
13841TIP3    H141456   2.112   4.312   7.814
13841TIP3    H241457   2.126   4.187   7.894
13842TIP3   OH241458   2.098   4.016   7.891
13842TIP3    H141459   2.177   3.986   7.939
13842TIP3    H241460   2.027   3.961   7.926
13843TIP3   OH241461   2.344   3.967   8.008
13843TIP3    H141462   2.388   3.889   7.967
13843TIP3    H241463   2.417   4.032   8.009
13844TIP3   OH241464   1.912   5.452   8.283
13844TIP3    H141465   1.962   5.455   8.199
13844TIP3    H241466   1.960   5.519   8.336
13845TIP3   OH241467   1.344   5.341   7.937
13845TIP3    H141468   1.434   5.359   7.905
13845TIP3    H241469   1.320   5.264   7.880
13846TIP3   OH241470   2.053   5.451   8.048
13846TIP3    H141471   2.047   5.355   8.029
13846TIP3    H241472   2.014   5.489   7.966
13847TIP3   OH241473   3.549   4.966   8.000
13847TIP3    H141474   3.525   5.060   7.985
13847TIP3    H241475   3.470   4.922   7.967
13848TIP3   OH241476   3.487   4.970   8.391
13848TIP3    H141477   3.567   4.971   8.446
13848TIP3    H241478   3.511   4.908   8.321
13849TIP3   OH241479   3.798   5.275   8.069
13849TIP3    H141480   3.805   5.204   8.134
13849TIP3    H241481   3.830   5.349   8.123
13850TIP3   OH241482   2.822   5.288   8.462
13850TIP3    H141483   2.811   5.191   8.468
13850TIP3    H241484   2.920   5.293   8.454
13851TIP3   OH241485   2.561   4.495   8.200
13851TIP3    H141486   2.511   4.573   8.230
13851TIP3    H241487   2.492   4.427   8.210
13852TIP3   OH241488   2.703   4.717   8.398
13852TIP3    H141489   2.663   4.758   8.474
13852TIP3    H241490   2.678   4.778   8.327
13853TIP3   OH241491   3.446   5.734   8.084
13853TIP3    H141492   3.486   5.665   8.026
13853TIP3    H241493   3.446   5.689   8.169
13854TIP3   OH241494   3.346   5.206   8.415
13854TIP3    H141495   3.378   5.115   8.395
13854TIP3    H241496   3.431   5.245   8.442
13855TIP3   OH241497   4.362   4.527   8.409
13855TIP3    H141498   4.383   4.611   8.453
13855TIP3    H241499   4.390   4.546   8.317
13856TIP3   OH241500   3.749   4.679   8.462
13856TIP3    H141501   3.798   4.597   8.483
13856TIP3    H241502   3.724   4.663   8.369
13857TIP3   OH241503   3.133   4.345   8.389
13857TIP3    H141504   3.096   4.429   8.355
13857TIP3    H241505   3.067   4.282   8.354
13858TIP3   OH241506   3.792   4.448   8.050
13858TIP3    H141507   3.863   4.436   8.117
13858TIP3    H241508   3.844   4.488   7.978
13859TIP3   OH241509   3.172   4.756   8.330
13859TIP3    H141510   3.265   4.727   8.339
13859TIP3    H241511   3.130   4.675   8.294
13860TIP3   OH241512   4.428   4.730   8.595
13860TIP3    H141513   4.342   4.772   8.572
13860TIP3    H241514   4.419   4.724   8.690
13861TIP3   OH241515   3.440   5.191   7.867
13861TIP3    H141516   3.400   5.175   7.781
13861TIP3    H241517   3.395   5.273   7.895
13862TIP3   OH241518   4.002   4.451   8.224
13862TIP3    H141519   3.999   4.403   8.307
13862TIP3    H241520   4.051   4.532   8.249
13863TIP3   OH241521   2.419   5.006   7.989
13863TIP3    H141522   2.389   5.029   7.898
13863TIP3    H241523   2.455   5.091   8.021
13864TIP3   OH241524   3.868   5.530   8.220
13864TIP3    H141525   3.782   5.504   8.260
13864TIP3    H241526   3.846   5.618   8.185
13865TIP3   OH241527   4.141   4.453   8.573
13865TIP3    H141528   4.054   4.479   8.538
13865TIP3    H241529   4.203   4.484   8.504
13866TIP3   OH241530   3.560   5.563   7.902
13866TIP3    H141531   3.612   5.481   7.885
13866TIP3    H241532   3.620   5.628   7.860
13867TIP3   OH241533   3.707   5.348   7.817
13867TIP3    H141534   3.670   5.267   7.780
13867TIP3    H241535   3.744   5.314   7.903
13868TIP3   OH241536   4.115   5.394   8.539
13868TIP3    H141537   4.059   5.335   8.483
13868TIP3    H241538   4.092   5.481   8.504
13869TIP3   OH241539   3.377   4.821   7.829
13869TIP3    H141540   3.298   4.874   7.806
13869TIP3    H241541   3.427   4.822   7.745
13870TIP3   OH241542   3.338   4.609   7.546
13870TIP3    H141543   3.405   4.658   7.598
13870TIP3    H241544   3.396   4.545   7.499
13871TIP3   OH241545   4.262   5.080   8.420
13871TIP3    H141546   4.173   5.120   8.415
13871TIP3    H241547   4.295   5.095   8.329
13872TIP3   OH241548   3.727   4.903   7.803
13872TIP3    H141549   3.674   4.927   7.882
13872TIP3    H241550   3.812   4.877   7.845
13873TIP3   OH241551   3.950   4.967   8.692
13873TIP3    H141552   3.955   5.063   8.706
13873TIP3    H241553   3.878   4.965   8.626
13874TIP3   OH241554   2.962   4.908   8.217
13874TIP3    H141555   2.922   4.844   8.155
13874TIP3    H241556   3.037   4.856   8.253
13875TIP3   OH241557   3.089   5.313   8.370
13875TIP3    H141558   3.078   5.270   8.284
13875TIP3    H241559   3.178   5.280   8.395
13876TIP3   OH241560   3.090   4.896   8.552
13876TIP3    H141561   3.114   4.842   8.474
13876TIP3    H241562   3.176   4.900   8.596
13877TIP3   OH241563   3.625   5.509   8.340
13877TIP3    H141564   3.611   5.588   8.395
13877TIP3    H241565   3.616   5.434   8.404
13878TIP3   OH241566   3.568   4.763   7.630
13878TIP3    H141567   3.627   4.822   7.681
13878TIP3    H241568   3.594   4.785   7.537
13879TIP3   OH241569   3.310   5.444   7.905
13879TIP3    H141570   3.394   5.493   7.915
13879TIP3    H241571   3.253   5.509   7.860
13880TIP3   OH241572   4.083   4.003   7.677
13880TIP3    H141573   4.003   4.024   7.729
13880TIP3    H241574   4.097   4.087   7.628
13881TIP3   OH241575   2.827   4.744   8.021
13881TIP3    H141576   2.759   4.785   7.963
13881TIP3    H241577   2.787   4.659   8.043
13882TIP3   OH241578   3.882   5.373   7.227
13882TIP3    H141579   3.891   5.469   7.209
13882TIP3    H241580   3.973   5.342   7.212
13883TIP3   OH241581   4.344   5.776   8.604
13883TIP3    H141582   4.337   5.682   8.627
13883TIP3    H241583   4.263   5.806   8.650
13884TIP3   OH241584   3.180   5.677   7.708
13884TIP3    H141585   3.155   5.661   7.615
13884TIP3    H241586   3.159   5.771   7.721
13885TIP3   OH241587   2.625   5.538   8.088
13885TIP3    H141588   2.682   5.528   8.167
13885TIP3    H241589   2.577   5.454   8.090
13886TIP3   OH241590   3.445   5.662   7.637
13886TIP3    H141591   3.352   5.651   7.665
13886TIP3    H241592   3.489   5.591   7.687
13887TIP3   OH241593   3.644   4.801   7.372
13887TIP3    H141594   3.612   4.780   7.282
13887TIP3    H241595   3.718   4.861   7.352
13888TIP3   OH241596   3.356   4.184   7.675
13888TIP3    H141597   3.323   4.182   7.767
13888TIP3    H241598   3.318   4.101   7.642
13889TIP3   OH241599   3.027   4.547   8.233
13889TIP3    H141600   2.935   4.524   8.257
13889TIP3    H241601   3.036   4.502   8.146
13890TIP3   OH241602   3.517   4.623   7.959
13890TIP3    H141603   3.465   4.696   7.918
13890TIP3    H241604   3.574   4.594   7.886
13891TIP3   OH241605   3.655   4.644   8.207
13891TIP3    H141606   3.608   4.679   8.128
13891TIP3    H241607   3.701   4.569   8.164
13892TIP3   OH241608   3.011   4.157   7.639
13892TIP3    H141609   3.005   4.155   7.736
13892TIP3    H241610   2.934   4.211   7.616
13893TIP3   OH241611   2.536   4.188   8.033
13893TIP3    H141612   2.577   4.225   7.952
13893TIP3    H241613   2.471   4.259   8.051
13894TIP3   OH241614   3.692   4.921   8.570
13894TIP3    H141615   3.716   4.830   8.542
13894TIP3    H241616   3.658   4.908   8.660
13895TIP3   OH241617   3.379   4.365   8.273
13895TIP3    H141618   3.290   4.362   8.315
13895TIP3    H241619   3.430   4.410   8.341
13896TIP3   OH241620   2.797   4.397   8.289
13896TIP3    H141621   2.714   4.440   8.259
13896TIP3    H241622   2.818   4.337   8.217
13897TIP3   OH241623   3.056   4.412   7.994
13897TIP3    H141624   3.151   4.427   7.975
13897TIP3    H241625   3.011   4.434   7.909
13898TIP3   OH241626   3.850   4.430   8.514
13898TIP3    H141627   3.825   4.430   8.608
13898TIP3    H241628   3.779   4.373   8.476
13899TIP3   OH241629   2.899   4.445   7.770
13899TIP3    H141630   2.831   4.399   7.718
13899TIP3    H241631   2.954   4.484   7.698
13900TIP3   OH241632   3.996   6.162   8.708
13900TIP3    H141633   4.007   6.155   8.612
13900TIP3    H241634   4.081   6.198   8.737
13901TIP3   OH241635   3.434   4.652   8.381
13901TIP3    H141636   3.512   4.646   8.322
13901TIP3    H241637   3.475   4.672   8.465
13902TIP3   OH241638   2.980   4.177   8.219
13902TIP3    H141639   2.949   4.107   8.278
13902TIP3    H241640   3.048   4.133   8.167
13903TIP3   OH241641   3.148   4.975   7.776
13903TIP3    H141642   3.075   4.910   7.766
13903TIP3    H241643   3.131   5.009   7.867
13904TIP3   OH241644   3.608   4.287   7.641
13904TIP3    H141645   3.512   4.271   7.652
13904TIP3    H241646   3.619   4.381   7.667
13905TIP3   OH241647   3.678   4.533   7.744
13905TIP3    H141648   3.774   4.540   7.762
13905TIP3    H241649   3.660   4.615   7.693
13906TIP3   OH241650   2.841   5.009   8.446
13906TIP3    H141651   2.880   4.989   8.358
13906TIP3    H241652   2.889   4.942   8.498
13907TIP3   OH241653   3.298   5.125   7.602
13907TIP3    H141654   3.250   5.211   7.606
13907TIP3    H241655   3.243   5.070   7.661
13908TIP3   OH241656   3.725   5.544   8.690
13908TIP3    H141657   3.635   5.575   8.682
13908TIP3    H241658   3.765   5.605   8.755
13909TIP3   OH241659   4.122   4.625   7.581
13909TIP3    H141660   4.059   4.580   7.519
13909TIP3    H241661   4.117   4.715   7.541
13910TIP3   OH241662   4.371   5.477   8.664
13910TIP3    H141663   4.283   5.499   8.699
13910TIP3    H241664   4.350   5.440   8.576
13911TIP3   OH241665   3.833   5.443   7.495
13911TIP3    H141666   3.795   5.376   7.553
13911TIP3    H241667   3.837   5.397   7.409
13912TIP3   OH241668   2.945   5.304   8.085
13912TIP3    H141669   2.951   5.383   8.028
13912TIP3    H241670   2.851   5.284   8.081
13913TIP3   OH241671   2.505   4.605   7.787
13913TIP3    H141672   2.556   4.686   7.805
13913TIP3    H241673   2.432   4.614   7.851
13914TIP3   OH241674   3.078   5.068   8.019
13914TIP3    H141675   3.050   5.158   8.044
13914TIP3    H241676   3.048   5.016   8.096
13915TIP3   OH241677   3.204   5.650   8.537
13915TIP3    H141678   3.258   5.719   8.493
13915TIP3    H241679   3.271   5.593   8.577
13916TIP3   OH241680   2.863   5.542   7.933
13916TIP3    H141681   2.777   5.553   7.977
13916TIP3    H241682   2.897   5.635   7.935
13917TIP3   OH241683   3.628   5.280   8.501
13917TIP3    H141684   3.656   5.259   8.590
13917TIP3    H241685   3.706   5.248   8.452
13918TIP3   OH241686   3.579   5.150   7.399
13918TIP3    H141687   3.630   5.132   7.481
13918TIP3    H241688   3.488   5.145   7.431
13919TIP3   OH241689   3.826   5.820   8.572
13919TIP3    H141690   3.757   5.760   8.539
13919TIP3    H241691   3.835   5.882   8.497
13920TIP3   OH241692   3.917   5.648   7.207
13920TIP3    H141693   3.942   5.719   7.145
13920TIP3    H241694   3.838   5.692   7.247
13921TIP3   OH241695   3.739   5.106   7.616
13921TIP3    H141696   3.730   5.038   7.686
13921TIP3    H241697   3.836   5.103   7.600
13922TIP3   OH241698   2.937   5.149   7.393
13922TIP3    H141699   2.958   5.058   7.365
13922TIP3    H241700   2.920   5.137   7.488
13923TIP3   OH241701   2.884   5.156   7.669
13923TIP3    H141702   2.963   5.131   7.719
13923TIP3    H241703   2.890   5.255   7.672
13924TIP3   OH241704   2.619   4.848   7.866
13924TIP3    H141705   2.557   4.898   7.923
13924TIP3    H241706   2.641   4.915   7.799
13925TIP3   OH241707   3.656   4.238   7.924
13925TIP3    H141708   3.642   4.264   7.831
13925TIP3    H241709   3.696   4.320   7.961
13926TIP3   OH241710   3.154   5.354   7.612
13926TIP3    H141711   3.067   5.386   7.644
13926TIP3    H241712   3.176   5.425   7.549
13927TIP3   OH241713   3.338   4.421   8.011
13927TIP3    H141714   3.403   4.493   7.992
13927TIP3    H241715   3.352   4.411   8.108
13928TIP3   OH241716   3.487   4.147   8.124
13928TIP3    H141717   3.471   4.227   8.179
13928TIP3    H241718   3.551   4.183   8.059
13929TIP3   OH241719   2.894   5.429   7.679
13929TIP3    H141720   2.872   5.500   7.615
13929TIP3    H241721   2.883   5.476   7.765
13930TIP3   OH241722   2.998   4.142   7.912
13930TIP3    H141723   2.993   4.229   7.957
13930TIP3    H241724   3.095   4.126   7.920
13931TIP3   OH241725   3.911   4.800   8.178
13931TIP3    H141726   3.829   4.796   8.228
13931TIP3    H241727   3.978   4.778   8.245
13932TIP3   OH241728   2.616   5.060   7.672
13932TIP3    H141729   2.688   5.125   7.681
13932TIP3    H241730   2.658   5.002   7.606
13933TIP3   OH241731   2.558   4.333   7.804
13933TIP3    H141732   2.560   4.431   7.802
13933TIP3    H241733   2.480   4.314   7.753
13934TIP3   OH241734   3.867   5.800   8.151
13934TIP3    H141735   3.826   5.848   8.076
13934TIP3    H241736   3.962   5.810   8.129
13935TIP3   OH241737   2.485   5.276   8.061
13935TIP3    H141738   2.408   5.310   8.108
13935TIP3    H241739   2.468   5.313   7.972
13936TIP3   OH241740   3.100   5.356   7.306
13936TIP3    H141741   3.052   5.278   7.340
13936TIP3    H241742   3.180   5.316   7.268
13937TIP3   OH241743   3.537   5.360   7.197
13937TIP3    H141744   3.589   5.351   7.277
13937TIP3    H241745   3.592   5.413   7.139
13938TIP3   OH241746   2.750   4.871   7.529
13938TIP3    H141747   2.809   4.839   7.600
13938TIP3    H241748   2.815   4.876   7.455
13939TIP3   OH241749   3.253   5.067   7.334
13939TIP3    H141750   3.263   5.083   7.430
13939TIP3    H241751   3.257   4.969   7.331
13940TIP3   OH241752   3.870   5.304   8.706
13940TIP3    H141753   3.954   5.317   8.660
13940TIP3    H241754   3.829   5.392   8.696
13941TIP3   OH241755   2.951   4.777   7.744
13941TIP3    H141756   2.934   4.738   7.831
13941TIP3    H241757   2.992   4.702   7.695
13942TIP3   OH241758   3.060   4.572   7.588
13942TIP3    H141759   3.035   4.575   7.494
13942TIP3    H241760   3.158   4.577   7.581
13943TIP3   OH241761   3.886   4.900   7.250
13943TIP3    H141762   3.859   4.855   7.168
13943TIP3    H241763   3.851   4.990   7.230
13944TIP3   OH241764   2.876   5.632   7.493
13944TIP3    H141765   2.971   5.624   7.472
13944TIP3    H241766   2.847   5.681   7.413
13945TIP3   OH241767   2.349   5.012   7.712
13945TIP3    H141768   2.442   5.035   7.694
13945TIP3    H241769   2.342   4.925   7.668
13946TIP3   OH241770   2.259   5.627   8.117
13946TIP3    H141771   2.193   5.562   8.083
13946TIP3    H241772   2.304   5.573   8.186
13947TIP3   OH241773   2.390   5.485   8.309
13947TIP3    H141774   2.402   5.405   8.361
13947TIP3    H241775   2.444   5.549   8.358
13948TIP3   OH241776   4.131   5.875   8.104
13948TIP3    H141777   4.145   5.896   8.199
13948TIP3    H241778   4.166   5.955   8.062
13949TIP3   OH241779   4.161   5.891   8.377
13949TIP3    H141780   4.114   5.804   8.379
13949TIP3    H241781   4.199   5.886   8.467
13950TIP3   OH241782   4.018   5.086   7.584
13950TIP3    H141783   4.085   5.150   7.556
13950TIP3    H241784   4.060   5.047   7.664
13951TIP3   OH241785   4.148   4.958   7.787
13951TIP3    H141786   4.080   4.912   7.841
13951TIP3    H241787   4.207   4.995   7.855
13952TIP3   OH241788   4.227   5.383   8.180
13952TIP3    H141789   4.256   5.290   8.170
13952TIP3    H241790   4.135   5.372   8.206
13953TIP3   OH241791   4.032   5.650   8.410
13953TIP3    H141792   3.969   5.669   8.481
13953TIP3    H241793   3.977   5.599   8.346
13954TIP3   OH241794   4.083   4.863   7.434
13954TIP3    H141795   4.011   4.865   7.367
13954TIP3    H241796   4.054   4.938   7.490
13955TIP3   OH241797   3.955   4.534   7.386
13955TIP3    H141798   3.906   4.575   7.314
13955TIP3    H241799   3.930   4.440   7.376
13956TIP3   OH241800   3.961   4.808   7.917
13956TIP3    H141801   3.966   4.711   7.913
13956TIP3    H241802   3.946   4.820   8.014
13957TIP3   OH241803   4.216   5.208   8.774
13957TIP3    H141804   4.312   5.207   8.788
13957TIP3    H241805   4.203   5.290   8.724
13958TIP3   OH241806   4.443   5.051   8.813
13958TIP3    H141807   4.353   5.020   8.833
13958TIP3    H241808   4.485   4.973   8.776
13959TIP3   OH241809   3.897   4.268   7.370
13959TIP3    H141810   3.971   4.239   7.427
13959TIP3    H241811   3.823   4.211   7.398
13960TIP3   OH241812   3.952   4.527   7.826
13960TIP3    H141813   3.993   4.439   7.843
13960TIP3    H241814   4.012   4.560   7.757
13961TIP3   OH241815   4.117   4.700   8.335
13961TIP3    H141816   4.201   4.726   8.292
13961TIP3    H241817   4.128   4.745   8.421
13962TIP3   OH241818   4.184   4.856   8.564
13962TIP3    H141819   4.104   4.887   8.612
13962TIP3    H241820   4.207   4.938   8.515
13963TIP3   OH241821   4.065   4.278   7.865
13963TIP3    H141822   4.112   4.262   7.949
13963TIP3    H241823   4.003   4.201   7.864
13964TIP3   OH241824   4.141   4.213   7.498
13964TIP3    H141825   4.183   4.140   7.448
13964TIP3    H241826   4.209   4.283   7.495
13965TIP3   OH241827   2.556   4.033   8.249
13965TIP3    H141828   2.474   4.064   8.289
13965TIP3    H241829   2.567   4.098   8.176
13966TIP3   OH241830   3.716   5.743   7.774
13966TIP3    H141831   3.758   5.728   7.687
13966TIP3    H241832   3.772   5.813   7.811
13967TIP3   OH241833   2.979   5.599   8.704
13967TIP3    H141834   2.966   5.674   8.644
13967TIP3    H241835   3.068   5.571   8.676
13968TIP3   OH241836   3.596   5.975   8.665
13968TIP3    H141837   3.681   5.931   8.649
13968TIP3    H241838   3.614   6.019   8.752
13969TIP3   OH241839   2.892   5.831   8.582
13969TIP3    H141840   2.798   5.840   8.602
13969TIP3    H241841   2.892   5.853   8.486
13970TIP3   OH241842   3.326   5.849   8.379
13970TIP3    H141843   3.260   5.866   8.309
13970TIP3    H241844   3.338   5.938   8.418
13971TIP3   OH241845   3.591   5.774   8.423
13971TIP3    H141846   3.498   5.798   8.405
13971TIP3    H241847   3.637   5.855   8.394
13972TIP3   OH241848   3.805   5.980   8.348
13972TIP3    H141849   3.788   6.063   8.297
13972TIP3    H241850   3.827   5.917   8.276
13973TIP3   OH241851   2.584   5.635   8.450
13973TIP3    H141852   2.619   5.594   8.532
13973TIP3    H241853   2.651   5.598   8.388
13974TIP3   OH241854   2.774   5.507   8.310
13974TIP3    H141855   2.790   5.421   8.354
13974TIP3    H241856   2.866   5.543   8.310
13975TIP3   OH241857   3.036   5.596   8.328
13975TIP3    H141858   3.066   5.504   8.315
13975TIP3    H241859   3.088   5.618   8.408
13976TIP3   OH241860   3.639   4.272   8.423
13976TIP3    H141861   3.564   4.216   8.449
13976TIP3    H241862   3.695   4.212   8.370
13977TIP3   OH241863   4.133   4.138   8.319
13977TIP3    H141864   4.169   4.190   8.244
13977TIP3    H241865   4.037   4.154   8.311
13978TIP3   OH241866   4.229   4.234   8.082
13978TIP3    H141867   4.304   4.183   8.044
13978TIP3    H241868   4.262   4.326   8.069
13979TIP3   OH241869   2.616   3.843   8.055
13979TIP3    H141870   2.669   3.893   7.991
13979TIP3    H241871   2.610   3.907   8.130
13980TIP3   OH241872   3.304   4.019   8.296
13980TIP3    H141873   3.367   4.051   8.228
13980TIP3    H241874   3.332   4.076   8.371
13981TIP3   OH241875   3.852   4.135   8.291
13981TIP3    H141876   3.850   4.101   8.201
13981TIP3    H241877   3.828   4.056   8.344
13982TIP3   OH241878   3.880   4.066   7.857
13982TIP3    H141879   3.794   4.110   7.872
13982TIP3    H241880   3.865   3.980   7.903
13983TIP3   OH241881   2.358   5.407   7.863
13983TIP3    H141882   2.275   5.375   7.823
13983TIP3    H241883   2.354   5.500   7.835
13984TIP3   OH241884   2.765   3.991   7.843
13984TIP3    H141885   2.813   3.928   7.786
13984TIP3    H241886   2.838   4.046   7.877
13985TIP3   OH241887   3.273   4.167   7.940
13985TIP3    H141888   3.338   4.123   7.998
13985TIP3    H241889   3.293   4.260   7.961
13986TIP3   OH241890   3.144   5.595   7.436
13986TIP3    H141891   3.202   5.640   7.370
13986TIP3    H241892   3.125   5.515   7.381
13987TIP3   OH241893   3.857   5.712   7.536
13987TIP3    H141894   3.850   5.614   7.523
13987TIP3    H241895   3.808   5.744   7.457
13988TIP3   OH241896   2.438   5.424   7.498
13988TIP3    H141897   2.451   5.454   7.588
13988TIP3    H241898   2.526   5.382   7.478
13989TIP3   OH241899   4.109   5.911   8.659
13989TIP3    H141900   4.089   5.826   8.703
13989TIP3    H241901   4.043   5.969   8.701
13990TIP3   OH241902   5.357   5.233   7.471
13990TIP3    H141903   5.322   5.323   7.461
13990TIP3    H241904   5.276   5.180   7.456
13991TIP3   OH241905   5.345   5.224   7.870
13991TIP3    H141906   5.380   5.203   7.959
13991TIP3    H241907   5.302   5.140   7.847
13992TIP3   OH241908   4.645   5.121   8.227
13992TIP3    H141909   4.669   5.050   8.290
13992TIP3    H241910   4.724   5.176   8.232
13993TIP3   OH241911   5.600   5.534   7.548
13993TIP3    H141912   5.576   5.462   7.608
13993TIP3    H241913   5.625   5.604   7.610
13994TIP3   OH241914   4.646   5.538   7.997
13994TIP3    H141915   4.619   5.443   7.988
13994TIP3    H241916   4.733   5.533   7.950
13995TIP3   OH241917   4.324   4.739   7.740
13995TIP3    H141918   4.273   4.820   7.758
13995TIP3    H241919   4.254   4.682   7.704
13996TIP3   OH241920   4.388   5.024   7.916
13996TIP3    H141921   4.434   4.946   7.955
13996TIP3    H241922   4.440   5.039   7.836
13997TIP3   OH241923   5.231   5.992   7.563
13997TIP3    H141924   5.280   5.917   7.523
13997TIP3    H241925   5.228   5.968   7.657
13998TIP3   OH241926   5.145   5.456   7.914
13998TIP3    H141927   5.182   5.375   7.874
13998TIP3    H241928   5.230   5.499   7.940
13999TIP3   OH241929   6.161   4.773   7.915
13999TIP3    H141930   6.186   4.856   7.960
13999TIP3    H241931   6.174   4.797   7.822
14000TIP3   OH241932   5.567   4.958   7.944
14000TIP3    H141933   5.601   4.869   7.967
14000TIP3    H241934   5.525   4.940   7.858
14001TIP3   OH241935   4.899   4.615   7.907
14001TIP3    H141936   4.872   4.687   7.847
14001TIP3    H241937   4.847   4.540   7.869
14002TIP3   OH241938   5.590   4.703   7.534
14002TIP3    H141939   5.661   4.687   7.601
14002TIP3    H241940   5.643   4.740   7.461
14003TIP3   OH241941   4.530   4.816   8.021
14003TIP3    H141942   4.612   4.794   8.070
14003TIP3    H241943   4.541   4.759   7.943
14004TIP3   OH241944   4.969   5.016   7.811
14004TIP3    H141945   5.061   4.989   7.828
14004TIP3    H241946   4.928   4.931   7.783
14005TIP3   OH241947   6.229   4.983   8.082
14005TIP3    H141948   6.142   5.027   8.068
14005TIP3    H241949   6.246   5.008   8.174
14006TIP3   OH241950   4.890   4.606   8.368
14006TIP3    H141951   4.849   4.601   8.280
14006TIP3    H241952   4.825   4.655   8.420
14007TIP3   OH241953   5.246   5.459   7.348
14007TIP3    H141954   5.191   5.427   7.276
14007TIP3    H241955   5.196   5.540   7.374
14008TIP3   OH241956   5.000   5.376   8.142
14008TIP3    H141957   4.941   5.442   8.184
14008TIP3    H241958   5.041   5.428   8.070
14009TIP3   OH241959   5.799   4.708   7.709
14009TIP3    H141960   5.778   4.660   7.790
14009TIP3    H241961   5.847   4.786   7.742
14010TIP3   OH241962   4.764   4.707   8.130
14010TIP3    H141963   4.827   4.776   8.159
14010TIP3    H241964   4.817   4.666   8.058
14011TIP3   OH241965   4.814   5.569   8.232
14011TIP3    H141966   4.756   5.551   8.158
14011TIP3    H241967   4.750   5.564   8.307
14012TIP3   OH241968   4.220   5.256   7.475
14012TIP3    H141969   4.174   5.279   7.393
14012TIP3    H241970   4.247   5.344   7.509
14013TIP3   OH241971   5.660   5.774   7.717
14013TIP3    H141972   5.571   5.764   7.759
14013TIP3    H241973   5.649   5.862   7.674
14014TIP3   OH241974   5.949   4.676   8.081
14014TIP3    H141975   5.860   4.699   8.051
14014TIP3    H241976   6.005   4.706   8.007
14015TIP3   OH241977   5.362   5.814   7.395
14015TIP3    H141978   5.419   5.739   7.419
14015TIP3    H241979   5.425   5.875   7.351
14016TIP3   OH241980   5.873   5.688   8.052
14016TIP3    H141981   5.860   5.607   7.998
14016TIP3    H241982   5.855   5.759   7.988
14017TIP3   OH241983   5.177   5.079   7.317
14017TIP3    H141984   5.094   5.127   7.299
14017TIP3    H241985   5.217   5.073   7.229
14018TIP3   OH241986   5.135   4.865   7.032
14018TIP3    H141987   5.205   4.910   7.083
14018TIP3    H241988   5.189   4.799   6.985
14019TIP3   OH241989   6.087   5.332   7.906
14019TIP3    H141990   6.000   5.377   7.917
14019TIP3    H241991   6.104   5.350   7.812
14020TIP3   OH241992   5.540   5.187   7.275
14020TIP3    H141993   5.475   5.199   7.349
14020TIP3    H241994   5.609   5.139   7.326
14021TIP3   OH241995   5.756   5.190   8.193
14021TIP3    H141996   5.763   5.269   8.251
14021TIP3    H241997   5.667   5.204   8.155
14022TIP3   OH241998   4.760   5.162   7.701
14022TIP3    H141999   4.716   5.101   7.638
14022TIP3    H242000   4.834   5.106   7.735
14023TIP3   OH242001   4.881   5.554   7.864
14023TIP3    H142002   4.872   5.534   7.770
14023TIP3    H242003   4.975   5.531   7.880
14024TIP3   OH242004   4.898   5.130   8.060
14024TIP3    H142005   4.929   5.107   7.971
14024TIP3    H242006   4.940   5.216   8.078
14025TIP3   OH242007   5.420   5.768   7.838
14025TIP3    H142008   5.404   5.845   7.895
14025TIP3    H242009   5.405   5.693   7.899
14026TIP3   OH242010   5.025   5.693   8.380
14026TIP3    H142011   4.965   5.755   8.428
14026TIP3    H242012   4.959   5.644   8.327
14027TIP3   OH242013   5.371   5.021   7.116
14027TIP3    H142014   5.428   5.081   7.168
14027TIP3    H242015   5.393   5.046   7.024
14028TIP3   OH242016   4.783   5.248   8.471
14028TIP3    H142017   4.780   5.329   8.526
14028TIP3    H242018   4.690   5.218   8.482
14029TIP3   OH242019   5.106   5.697   7.390
14029TIP3    H142020   5.181   5.756   7.408
14029TIP3    H242021   5.043   5.757   7.347
14030TIP3   OH242022   4.810   5.842   8.471
14030TIP3    H142023   4.750   5.814   8.401
14030TIP3    H242024   4.749   5.841   8.548
14031TIP3   OH242025   5.881   4.259   7.166
14031TIP3    H142026   5.799   4.277   7.216
14031TIP3    H242027   5.891   4.343   7.116
14032TIP3   OH242028   4.624   5.003   7.508
14032TIP3    H142029   4.554   5.045   7.454
14032TIP3    H242030   4.587   4.917   7.527
14033TIP3   OH242031   5.677   5.630   6.722
14033TIP3    H142032   5.685   5.726   6.706
14033TIP3    H242033   5.770   5.600   6.709
14034TIP3   OH242034   4.419   5.389   8.396
14034TIP3    H142035   4.347   5.376   8.333
14034TIP3    H242036   4.441   5.298   8.424
14035TIP3   OH242037   4.299   5.619   8.041
14035TIP3    H142038   4.308   5.528   8.066
14035TIP3    H242039   4.220   5.642   8.093
14036TIP3   OH242040   5.243   5.810   8.256
14036TIP3    H142041   5.226   5.904   8.269
14036TIP3    H242042   5.163   5.770   8.298
14037TIP3   OH242043   4.993   5.948   7.190
14037TIP3    H142044   4.940   5.926   7.111
14037TIP3    H242045   4.957   6.035   7.217
14038TIP3   OH242046   4.432   5.792   7.580
14038TIP3    H142047   4.445   5.783   7.675
14038TIP3    H242048   4.376   5.714   7.562
14039TIP3   OH242049   5.194   5.848   6.832
14039TIP3    H142050   5.248   5.774   6.799
14039TIP3    H242051   5.224   5.855   6.925
14040TIP3   OH242052   5.243   5.892   7.105
14040TIP3    H142053   5.151   5.905   7.139
14040TIP3    H242054   5.286   5.856   7.185
14041TIP3   OH242055   6.035   5.167   8.351
14041TIP3    H142056   5.943   5.196   8.344
14041TIP3    H242057   6.028   5.070   8.347
14042TIP3   OH242058   4.613   5.577   8.412
14042TIP3    H142059   4.651   5.555   8.500
14042TIP3    H242060   4.538   5.512   8.411
14043TIP3   OH242061   5.530   4.510   8.388
14043TIP3    H142062   5.586   4.475   8.460
14043TIP3    H242063   5.442   4.492   8.424
14044TIP3   OH242064   5.786   4.941   8.313
14044TIP3    H142065   5.729   4.940   8.392
14044TIP3    H242066   5.759   5.024   8.268
14045TIP3   OH242067   5.444   5.097   6.866
14045TIP3    H142068   5.399   5.057   6.788
14045TIP3    H242069   5.533   5.112   6.828
14046TIP3   OH242070   5.156   4.440   7.163
14046TIP3    H142071   5.122   4.438   7.254
14046TIP3    H242072   5.115   4.358   7.129
14047TIP3   OH242073   4.939   4.904   8.207
14047TIP3    H142074   4.892   4.923   8.291
14047TIP3    H242075   4.924   4.987   8.157
14048TIP3   OH242076   4.821   4.798   7.721
14048TIP3    H142077   4.729   4.768   7.742
14048TIP3    H242078   4.834   4.754   7.634
14049TIP3   OH242079   5.316   4.883   7.455
14049TIP3    H142080   5.261   4.952   7.411
14049TIP3    H242081   5.367   4.847   7.380
14050TIP3   OH242082   5.475   5.158   8.536
14050TIP3    H142083   5.460   5.088   8.602
14050TIP3    H242084   5.564   5.189   8.556
14051TIP3   OH242085   5.478   4.909   7.687
14051TIP3    H142086   5.409   4.933   7.621
14051TIP3    H242087   5.508   4.825   7.646
14052TIP3   OH242088   4.759   4.938   8.418
14052TIP3    H142089   4.783   5.002   8.486
14052TIP3    H242090   4.743   4.857   8.471
14053TIP3   OH242091   4.812   4.417   7.127
14053TIP3    H142092   4.802   4.412   7.225
14053TIP3    H242093   4.731   4.466   7.103
14054TIP3   OH242094   4.353   4.458   7.996
14054TIP3    H142095   4.424   4.493   8.054
14054TIP3    H242096   4.400   4.422   7.920
14055TIP3   OH242097   4.322   4.439   7.516
14055TIP3    H142098   4.368   4.479   7.439
14055TIP3    H242099   4.261   4.512   7.539
14056TIP3   OH242100   5.481   5.157   8.106
14056TIP3    H142101   5.517   5.084   8.050
14056TIP3    H242102   5.453   5.104   8.184
14057TIP3   OH242103   5.153   4.621   7.786
14057TIP3    H142104   5.069   4.617   7.836
14057TIP3    H242105   5.219   4.610   7.856
14058TIP3   OH242106   4.587   4.673   7.790
14058TIP3    H142107   4.492   4.679   7.765
14058TIP3    H242108   4.610   4.580   7.771
14059TIP3   OH242109   4.853   4.668   7.483
14059TIP3    H142110   4.947   4.682   7.460
14059TIP3    H242111   4.805   4.690   7.399
14060TIP3   OH242112   5.645   4.691   7.985
14060TIP3    H142113   5.612   4.703   8.077
14060TIP3    H242114   5.577   4.630   7.950
14061TIP3   OH242115   4.697   4.705   7.261
14061TIP3    H142116   4.624   4.658   7.217
14061TIP3    H242117   4.747   4.737   7.184
14062TIP3   OH242118   4.748   5.487   8.638
14062TIP3    H142119   4.832   5.499   8.684
14062TIP3    H242120   4.696   5.436   8.702
14063TIP3   OH242121   5.233   4.954   7.881
14063TIP3    H142122   5.297   4.891   7.844
14063TIP3    H242123   5.227   4.920   7.974
14064TIP3   OH242124   4.753   4.431   7.763
14064TIP3    H142125   4.717   4.354   7.813
14064TIP3    H242126   4.809   4.386   7.698
14065TIP3   OH242127   5.213   4.868   8.138
14065TIP3    H142128   5.123   4.866   8.176
14065TIP3    H242129   5.266   4.901   8.212
14066TIP3   OH242130   4.948   5.232   7.268
14066TIP3    H142131   4.877   5.165   7.256
14066TIP3    H242132   4.927   5.266   7.358
14067TIP3   OH242133   5.847   5.464   7.894
14067TIP3    H142134   5.867   5.513   7.811
14067TIP3    H242135   5.761   5.422   7.872
14068TIP3   OH242136   5.403   4.546   7.127
14068TIP3    H142137   5.308   4.523   7.140
14068TIP3    H242138   5.409   4.638   7.157
14069TIP3   OH242139   5.353   5.554   8.263
14069TIP3    H142140   5.346   5.518   8.352
14069TIP3    H242141   5.312   5.642   8.274
14070TIP3   OH242142   5.473   4.791   7.236
14070TIP3    H142143   5.569   4.794   7.250
14070TIP3    H242144   5.455   4.869   7.180
14071TIP3   OH242145   4.646   5.268   7.943
14071TIP3    H142146   4.682   5.229   7.861
14071TIP3    H242147   4.669   5.200   8.009
14072TIP3   OH242148   5.095   5.383   7.095
14072TIP3    H142149   5.046   5.469   7.099
14072TIP3    H242150   5.038   5.326   7.151
14073TIP3   OH242151   4.523   5.165   8.539
14073TIP3    H142152   4.538   5.174   8.635
14073TIP3    H242153   4.437   5.120   8.535
14074TIP3   OH242154   5.233   5.292   8.564
14074TIP3    H142155   5.174   5.223   8.529
14074TIP3    H242156   5.320   5.251   8.551
14075TIP3   OH242157   5.505   5.820   8.146
14075TIP3    H142158   5.411   5.805   8.165
14075TIP3    H242159   5.534   5.854   8.233
14076TIP3   OH242160   5.917   4.880   7.068
14076TIP3    H142161   5.854   4.835   7.007
14076TIP3    H242162   5.917   4.968   7.024
14077TIP3   OH242163   6.128   5.698   8.134
14077TIP3    H142164   6.033   5.707   8.112
14077TIP3    H242165   6.167   5.692   8.044
14078TIP3   OH242166   5.613   5.330   7.809
14078TIP3    H142167   5.520   5.304   7.828
14078TIP3    H242168   5.646   5.248   7.769
14079TIP3   OH242169   4.732   5.567   7.582
14079TIP3    H142170   4.733   5.641   7.518
14079TIP3    H242171   4.646   5.527   7.565
14080TIP3   OH242172   4.305   4.862   7.273
14080TIP3    H142173   4.349   4.946   7.295
14080TIP3    H242174   4.227   4.866   7.333
14081TIP3   OH242175   4.876   5.330   7.511
14081TIP3    H142176   4.845   5.417   7.540
14081TIP3    H242177   4.844   5.273   7.583
14082TIP3   OH242178   4.663   5.796   7.423
14082TIP3    H142179   4.575   5.805   7.466
14082TIP3    H242180   4.694   5.889   7.424
14083TIP3   OH242181   5.400   5.536   7.995
14083TIP3    H142182   5.387   5.537   8.093
14083TIP3    H242183   5.476   5.478   7.988
14084TIP3   OH242184   5.379   5.402   6.917
14084TIP3    H142185   5.362   5.308   6.922
14084TIP3    H242186   5.287   5.436   6.908
14085TIP3   OH242187   5.635   6.077   8.056
14085TIP3    H142188   5.565   6.010   8.046
14085TIP3    H242189   5.622   6.133   7.977
14086TIP3   OH242190   5.708   5.905   6.703
14086TIP3    H142191   5.745   5.968   6.639
14086TIP3    H242192   5.630   5.956   6.731
14087TIP3   OH242193   4.711   4.685   8.562
14087TIP3    H142194   4.614   4.691   8.563
14087TIP3    H242195   4.724   4.589   8.558
14088TIP3   OH242196   4.529   5.782   8.189
14088TIP3    H142197   4.517   5.692   8.226
14088TIP3    H242198   4.481   5.835   8.254
14089TIP3   OH242199   4.746   5.406   6.877
14089TIP3    H142200   4.749   5.313   6.848
14089TIP3    H242201   4.722   5.396   6.972
14090TIP3   OH242202   4.685   5.414   7.147
14090TIP3    H142203   4.751   5.384   7.210
14090TIP3    H242204   4.690   5.512   7.157
14091TIP3   OH242205   4.419   5.107   7.354
14091TIP3    H142206   4.351   5.150   7.411
14091TIP3    H242207   4.430   5.177   7.286
14092TIP3   OH242208   5.572   4.740   8.244
14092TIP3    H142209   5.648   4.775   8.293
14092TIP3    H242210   5.548   4.660   8.296
14093TIP3   OH242211   5.453   4.493   7.410
14093TIP3    H142212   5.436   4.518   7.318
14093TIP3    H242213   5.490   4.575   7.448
14094TIP3   OH242214   4.953   5.614   7.099
14094TIP3    H142215   4.866   5.637   7.136
14094TIP3    H242216   4.962   5.684   7.033
14095TIP3   OH242217   5.139   4.676   7.514
14095TIP3    H142218   5.203   4.748   7.502
14095TIP3    H242219   5.141   4.666   7.612
14096TIP3   OH242220   5.413   4.997   8.315
14096TIP3    H142221   5.425   5.050   8.396
14096TIP3    H242222   5.459   4.914   8.334
14097TIP3   OH242223   5.283   4.402   7.617
14097TIP3    H142224   5.278   4.478   7.678
14097TIP3    H242225   5.344   4.437   7.548
14098TIP3   OH242226   4.698   5.687   7.169
14098TIP3    H142227   4.666   5.754   7.104
14098TIP3    H242228   4.678   5.731   7.254
14099TIP3   OH242229   4.794   4.399   7.402
14099TIP3    H142230   4.790   4.487   7.445
14099TIP3    H242231   4.890   4.381   7.412
14100TIP3   OH242232   6.048   4.885   8.302
14100TIP3    H142233   5.950   4.893   8.310
14100TIP3    H242234   6.052   4.838   8.217
14101TIP3   OH242235   5.701   5.086   7.685
14101TIP3    H142236   5.622   5.031   7.700
14101TIP3    H242237   5.768   5.038   7.738
14102TIP3   OH242238   4.412   5.314   7.160
14102TIP3    H142239   4.477   5.386   7.164
14102TIP3    H242240   4.456   5.258   7.092
14103TIP3   OH242241   4.357   4.592   7.289
14103TIP3    H142242   4.354   4.690   7.288
14103TIP3    H242243   4.271   4.569   7.255
14104TIP3   OH242244   5.661   6.040   7.634
14104TIP3    H142245   5.619   6.087   7.558
14104TIP3    H242246   5.755   6.059   7.616
14105TIP3   OH242247   4.709   4.317   8.172
14105TIP3    H142248   4.711   4.280   8.082
14105TIP3    H242249   4.735   4.241   8.226
14106TIP3   OH242250   4.287   5.547   7.547
14106TIP3    H142251   4.216   5.561   7.610
14106TIP3    H242252   4.246   5.580   7.464
14107TIP3   OH242253   4.447   6.064   8.592
14107TIP3    H142254   4.518   6.022   8.642
14107TIP3    H242255   4.384   5.990   8.590
14108TIP3   OH242256   4.904   5.612   6.791
14108TIP3    H142257   4.847   5.541   6.829
14108TIP3    H242258   4.975   5.559   6.751
14109TIP3   OH242259   5.553   5.913   8.400
14109TIP3    H142260   5.545   5.855   8.477
14109TIP3    H242261   5.621   5.976   8.429
14110TIP3   OH242262   5.341   5.645   6.706
14110TIP3    H142263   5.414   5.608   6.755
14110TIP3    H242264   5.381   5.655   6.616
14111TIP3   OH242265   4.548   5.130   7.011
14111TIP3    H142266   4.600   5.093   7.084
14111TIP3    H242267   4.617   5.133   6.940
14112TIP3   OH242268   5.215   5.564   8.569
14112TIP3    H142269   5.140   5.582   8.510
14112TIP3    H242270   5.215   5.467   8.578
14113TIP3   OH242271   5.078   5.332   6.822
14113TIP3    H142272   5.063   5.342   6.918
14113TIP3    H242273   5.072   5.234   6.814
14114TIP3   OH242274   5.667   5.572   8.200
14114TIP3    H142275   5.738   5.622   8.156
14114TIP3    H242276   5.591   5.630   8.187
14115TIP3   OH242277   4.715   5.207   8.774
14115TIP3    H142278   4.796   5.156   8.765
14115TIP3    H242279   4.684   5.180   8.863
14116TIP3   OH242280   4.759   5.034   7.236
14116TIP3    H142281   4.726   4.994   7.318
14116TIP3    H242282   4.791   4.955   7.186
14117TIP3   OH242283   5.024   5.102   8.465
14117TIP3    H142284   4.945   5.160   8.462
14117TIP3    H242285   5.073   5.131   8.385
14118TIP3   OH242286   4.855   4.829   7.073
14118TIP3    H142287   4.828   4.830   6.979
14118TIP3    H242288   4.952   4.833   7.064
14119TIP3   OH242289   5.682   5.157   6.741
14119TIP3    H142290   5.663   5.108   6.657
14119TIP3    H242291   5.649   5.246   6.714
14120TIP3   OH242292   5.151   4.892   8.590
14120TIP3    H142293   5.151   4.813   8.530
14120TIP3    H242294   5.104   4.957   8.534
14121TIP3   OH242295   5.147   4.696   8.397
14121TIP3    H142296   5.189   4.660   8.318
14121TIP3    H242297   5.061   4.649   8.393
14122TIP3   OH242298   5.174   5.205   8.267
14122TIP3    H142299   5.256   5.206   8.218
14122TIP3    H242300   5.120   5.274   8.222
14123TIP3   OH242301   5.795   5.395   8.365
14123TIP3    H142302   5.738   5.463   8.322
14123TIP3    H242303   5.883   5.432   8.342
14124TIP3   OH242304   4.984   5.008   8.796
14124TIP3    H142305   4.934   4.924   8.800
14124TIP3    H242306   5.051   4.987   8.729
14125TIP3   OH242307   5.408   4.935   8.680
14125TIP3    H142308   5.392   4.920   8.774
14125TIP3    H242309   5.319   4.912   8.643
14126TIP3   OH242310   5.641   4.890   8.537
14126TIP3    H142311   5.554   4.896   8.582
14126TIP3    H242312   5.691   4.842   8.603
14127TIP3   OH242313   4.863   4.768   8.853
14127TIP3    H142314   4.904   4.707   8.789
14127TIP3    H242315   4.896   4.733   8.936
14128TIP3   OH242316   5.404   4.455   8.667
14128TIP3    H142317   5.455   4.375   8.691
14128TIP3    H242318   5.318   4.419   8.645
14129TIP3   OH242319   4.665   5.890   6.982
14129TIP3    H142320   4.759   5.887   6.957
14129TIP3    H242321   4.628   5.937   6.905
14130TIP3   OH242322   4.142   5.271   7.195
14130TIP3    H142323   4.238   5.291   7.181
14130TIP3    H242324   4.134   5.183   7.152
14131TIP3   OH242325   4.058   5.884   7.608
14131TIP3    H142326   3.990   5.824   7.571
14131TIP3    H242327   4.102   5.824   7.672
14132TIP3   OH242328   4.202   5.739   7.792
14132TIP3    H142329   4.194   5.660   7.849
14132TIP3    H242330   4.224   5.805   7.860
14133TIP3   OH242331   5.917   6.121   7.596
14133TIP3    H142332   5.947   6.155   7.682
14133TIP3    H242333   5.971   6.171   7.533
14134TIP3   OH242334   5.986   6.130   7.874
14134TIP3    H142335   5.928   6.049   7.872
14134TIP3    H242336   5.962   6.168   7.959
14135TIP3   OH242337   5.796   5.374   7.092
14135TIP3    H142338   5.863   5.426   7.045
14135TIP3    H242339   5.851   5.327   7.155
14136TIP3   OH242340   5.930   5.221   7.270
14136TIP3    H142341   5.871   5.169   7.329
14136TIP3    H242342   6.000   5.252   7.332
14137TIP3   OH242343   5.992   5.603   7.703
14137TIP3    H142344   6.046   5.538   7.655
14137TIP3    H242345   5.987   5.677   7.639
14138TIP3   OH242346   5.820   5.915   7.899
14138TIP3    H142347   5.752   5.946   7.961
14138TIP3    H242348   5.767   5.865   7.832
14139TIP3   OH242349   5.881   5.122   6.923
14139TIP3    H142350   5.812   5.121   6.854
14139TIP3    H242351   5.850   5.195   6.979
14140TIP3   OH242352   5.745   4.796   6.873
14140TIP3    H142353   5.707   4.823   6.789
14140TIP3    H242354   5.724   4.699   6.872
14141TIP3   OH242355   5.754   5.067   7.416
14141TIP3    H142356   5.761   4.970   7.412
14141TIP3    H242357   5.740   5.082   7.512
14142TIP3   OH242358   4.375   5.134   8.172
14142TIP3    H142359   4.373   5.105   8.079
14142TIP3    H242360   4.473   5.136   8.188
14143TIP3   OH242361   6.034   5.477   8.264
14143TIP3    H142362   6.116   5.436   8.296
14143TIP3    H242363   6.068   5.555   8.216
14144TIP3   OH242364   6.257   5.315   8.322
14144TIP3    H142365   6.170   5.269   8.338
14144TIP3    H242366   6.313   5.234   8.320
14145TIP3   OH242367   5.691   4.530   6.865
14145TIP3    H142368   5.764   4.493   6.919
14145TIP3    H242369   5.616   4.471   6.883
14146TIP3   OH242370   5.751   4.785   7.313
14146TIP3    H142371   5.789   4.696   7.331
14146TIP3    H242372   5.811   4.814   7.241
14147TIP3   OH242373   5.912   4.954   7.810
14147TIP3    H142374   5.998   4.982   7.772
14147TIP3    H242375   5.921   4.994   7.899
14148TIP3   OH242376   5.979   5.103   8.039
14148TIP3    H142377   5.903   5.131   8.093
14148TIP3    H242378   6.009   5.188   8.002
14149TIP3   OH242379   5.858   4.535   7.353
14149TIP3    H142380   5.904   4.518   7.438
14149TIP3    H242381   5.797   4.458   7.350
14150TIP3   OH242382   4.550   4.534   8.175
14150TIP3    H142383   4.603   4.451   8.183
14150TIP3    H242384   4.621   4.599   8.166
14151TIP3   OH242385   4.361   4.796   8.249
14151TIP3    H142386   4.411   4.785   8.166
14151TIP3    H242387   4.383   4.887   8.272
14152TIP3   OH242388   6.293   4.835   8.409
14152TIP3    H142389   6.200   4.862   8.396
14152TIP3    H242390   6.293   4.751   8.361
14153TIP3   OH242391   5.940   4.468   6.987
14153TIP3    H142392   5.976   4.395   6.932
14153TIP3    H242393   6.008   4.537   6.977
14154TIP3   OH242394   4.344   4.293   7.743
14154TIP3    H142395   4.252   4.294   7.775
14154TIP3    H242396   4.340   4.354   7.667
14155TIP3   OH242397   5.518   5.984   7.256
14155TIP3    H142398   5.567   5.989   7.172
14155TIP3    H242399   5.550   6.062   7.305
14156TIP3   OH242400   4.580   4.429   8.546
14156TIP3    H142401   4.542   4.356   8.598
14156TIP3    H242402   4.504   4.451   8.488
14157TIP3   OH242403   4.606   5.817   8.657
14157TIP3    H142404   4.517   5.795   8.619
14157TIP3    H242405   4.611   5.749   8.725
14158TIP3   OH242406   5.235   6.087   8.330
14158TIP3    H142407   5.289   6.057   8.404
14158TIP3    H242408   5.301   6.135   8.276
14159TIP3   OH242409   5.429   6.229   8.194
14159TIP3    H142410   5.485   6.170   8.139
14159TIP3    H242411   5.474   6.313   8.185
14160TIP3   OH242412   6.204   4.593   8.276
14160TIP3    H142413   6.112   4.588   8.245
14160TIP3    H242414   6.233   4.500   8.264
14161TIP3   OH242415   4.466   6.095   8.211
14161TIP3    H142416   4.377   6.128   8.186
14161TIP3    H242417   4.471   6.128   8.301
14162TIP3   OH242418   4.669   6.018   8.044
14162TIP3    H142419   4.607   6.061   8.107
14162TIP3    H242420   4.672   6.084   7.972
14163TIP3   OH242421   5.139   6.122   7.838
14163TIP3    H142422   5.058   6.142   7.789
14163TIP3    H242423   5.144   6.198   7.899
14164TIP3   OH242424   5.390   6.044   7.916
14164TIP3    H142425   5.296   6.059   7.892
14164TIP3    H242426   5.433   6.117   7.871
14165TIP3   OH242427   5.598   6.227   7.829
14165TIP3    H142428   5.581   6.313   7.783
14165TIP3    H242429   5.618   6.168   7.754
14166TIP3   OH242430   4.384   5.904   7.953
14166TIP3    H142431   4.359   5.853   8.033
14166TIP3    H242432   4.436   5.838   7.903
14167TIP3   OH242433   4.601   5.763   7.856
14167TIP3    H142434   4.593   5.667   7.884
14167TIP3    H242435   4.657   5.755   7.780
14168TIP3   OH242436   5.412   4.514   7.899
14168TIP3    H142437   5.385   4.460   7.974
14168TIP3    H242438   5.481   4.459   7.858
14169TIP3   OH242439   5.933   4.392   7.805
14169TIP3    H142440   5.964   4.446   7.729
14169TIP3    H242441   5.836   4.406   7.800
14170TIP3   OH242442   6.026   4.494   7.568
14170TIP3    H142443   6.100   4.443   7.529
14170TIP3    H242444   6.058   4.586   7.554
14171TIP3   OH242445   4.658   4.217   7.908
14171TIP3    H142446   4.566   4.183   7.917
14171TIP3    H242447   4.708   4.133   7.911
14172TIP3   OH242448   4.437   4.090   7.565
14172TIP3    H142449   4.470   4.148   7.494
14172TIP3    H242450   4.411   4.154   7.634
14173TIP3   OH242451   5.092   4.257   7.799
14173TIP3    H142452   5.161   4.308   7.753
14173TIP3    H242453   5.103   4.285   7.891
14174TIP3   OH242454   5.656   4.400   7.778
14174TIP3    H142455   5.641   4.360   7.692
14174TIP3    H242456   5.638   4.323   7.837
14175TIP3   OH242457   5.676   4.322   7.346
14175TIP3    H142458   5.590   4.364   7.361
14175TIP3    H242459   5.662   4.236   7.391
14176TIP3   OH242460   4.159   5.663   7.342
14176TIP3    H142461   4.073   5.628   7.309
14176TIP3    H242462   4.148   5.756   7.314
14177TIP3   OH242463   4.560   4.251   7.326
14177TIP3    H142464   4.609   4.186   7.272
14177TIP3    H242465   4.633   4.303   7.364
14178TIP3   OH242466   5.072   4.425   7.426
14178TIP3    H142467   5.126   4.376   7.490
14178TIP3    H242468   5.094   4.517   7.454
14179TIP3   OH242469   4.932   5.848   6.925
14179TIP3    H142470   5.018   5.873   6.886
14179TIP3    H242471   4.908   5.773   6.866
14180TIP3   OH242472   5.651   5.965   7.011
14180TIP3    H142473   5.650   5.877   6.972
14180TIP3    H242474   5.604   6.016   6.941
14181TIP3   OH242475   4.235   5.687   6.983
14181TIP3    H142476   4.228   5.711   7.076
14181TIP3    H242477   4.324   5.645   6.977
14182TIP3   OH242478   7.135   5.485   6.975
14182TIP3    H142479   7.104   5.574   6.951
14182TIP3    H242480   7.066   5.430   6.932
14183TIP3   OH242481   7.103   5.491   7.386
14183TIP3    H142482   7.164   5.432   7.431
14183TIP3    H242483   7.086   5.440   7.305
14184TIP3   OH242484   6.442   5.365   7.706
14184TIP3    H142485   6.467   5.300   7.775
14184TIP3    H242486   6.531   5.391   7.675
14185TIP3   OH242487   6.416   5.791   7.440
14185TIP3    H142488   6.399   5.694   7.444
14185TIP3    H242489   6.512   5.791   7.446
14186TIP3   OH242490   6.120   4.998   7.228
14186TIP3    H142491   6.065   5.077   7.241
14186TIP3    H242492   6.053   4.935   7.195
14187TIP3   OH242493   6.176   5.276   7.396
14187TIP3    H142494   6.223   5.200   7.438
14187TIP3    H242495   6.234   5.297   7.322
14188TIP3   OH242496   6.930   5.711   7.349
14188TIP3    H142497   6.947   5.616   7.340
14188TIP3    H242498   7.020   5.744   7.359
14189TIP3   OH242499   7.331   5.186   7.427
14189TIP3    H142500   7.389   5.110   7.439
14189TIP3    H242501   7.308   5.181   7.332
14190TIP3   OH242502   6.695   4.870   7.396
14190TIP3    H142503   6.668   4.943   7.336
14190TIP3    H242504   6.645   4.795   7.356
14191TIP3   OH242505   7.385   4.963   7.023
14191TIP3    H142506   7.457   4.946   7.089
14191TIP3    H242507   7.438   4.996   6.948
14192TIP3   OH242508   6.325   5.075   7.507
14192TIP3    H142509   6.406   5.051   7.555
14192TIP3    H242510   6.334   5.016   7.429
14193TIP3   OH242511   6.763   5.269   7.298
14193TIP3    H142512   6.856   5.241   7.313
14193TIP3    H242513   6.723   5.186   7.266
14194TIP3   OH242514   6.684   4.852   7.835
14194TIP3    H142515   6.623   4.888   7.769
14194TIP3    H242516   6.633   4.869   7.917
14195TIP3   OH242517   7.026   5.710   6.847
14195TIP3    H142518   6.994   5.678   6.762
14195TIP3    H242519   6.970   5.790   6.860
14196TIP3   OH242520   6.780   5.618   7.583
14196TIP3    H142521   6.736   5.678   7.647
14196TIP3    H242522   6.844   5.679   7.543
14197TIP3   OH242523   7.588   4.953   7.204
14197TIP3    H142524   7.631   4.878   7.245
14197TIP3    H242525   7.636   5.029   7.241
14198TIP3   OH242526   6.558   4.967   7.616
14198TIP3    H142527   6.621   5.037   7.642
14198TIP3    H242528   6.608   4.925   7.542
14199TIP3   OH242529   6.006   5.512   6.964
14199TIP3    H142530   5.977   5.535   6.874
14199TIP3    H242531   6.042   5.598   6.996
14200TIP3   OH242532   7.042   4.577   7.553
14200TIP3    H142533   7.024   4.482   7.566
14200TIP3    H242534   6.962   4.615   7.596
14201TIP3   OH242535   7.302   5.844   6.835
14201TIP3    H142536   7.237   5.820   6.767
14201TIP3    H242537   7.375   5.788   6.810
14202TIP3   OH242538   6.974   5.339   6.804
14202TIP3    H142539   6.892   5.386   6.780
14202TIP3    H242540   7.018   5.330   6.717
14203TIP3   OH242541   6.933   5.119   6.523
14203TIP3    H142542   7.004   5.172   6.564
14203TIP3    H242543   6.987   5.055   6.473
14204TIP3   OH242544   7.320   5.421   6.778
14204TIP3    H142545   7.267   5.442   6.859
14204TIP3    H242546   7.404   5.392   6.819
14205TIP3   OH242547   6.553   5.417   7.191
14205TIP3    H142548   6.509   5.358   7.126
14205TIP3    H242549   6.629   5.362   7.220
14206TIP3   OH242550   6.691   5.843   7.324
14206TIP3    H142551   6.645   5.803   7.247
14206TIP3    H242552   6.770   5.785   7.332
14207TIP3   OH242553   6.685   5.369   7.546
14207TIP3    H142554   6.714   5.344   7.455
14207TIP3    H242555   6.727   5.458   7.555
14208TIP3   OH242556   7.159   5.277   6.603
14208TIP3    H142557   7.220   5.335   6.653
14208TIP3    H242558   7.185   5.299   6.510
14209TIP3   OH242559   6.511   5.538   7.923
14209TIP3    H142560   6.455   5.535   7.844
14209TIP3    H242561   6.453   5.490   7.987
14210TIP3   OH242562   6.896   5.963   6.867
14210TIP3    H142563   6.940   6.047   6.885
14210TIP3    H242564   6.819   5.991   6.815
14211TIP3   OH242565   7.680   4.518   6.654
14211TIP3    H142566   7.595   4.538   6.698
14211TIP3    H242567   7.693   4.598   6.598
14212TIP3   OH242568   6.416   5.259   7.003
14212TIP3    H142569   6.350   5.302   6.944
14212TIP3    H242570   6.381   5.170   7.009
14213TIP3   OH242571   7.476   5.890   6.196
14213TIP3    H142572   7.491   5.987   6.195
14213TIP3    H242573   7.567   5.858   6.178
14214TIP3   OH242574   6.208   5.634   7.882
14214TIP3    H142575   6.132   5.614   7.824
14214TIP3    H242576   6.227   5.548   7.923
14215TIP3   OH242577   6.049   5.834   7.535
14215TIP3    H142578   6.144   5.842   7.524
14215TIP3    H242579   6.023   5.918   7.575
14216TIP3   OH242580   6.784   6.199   6.682
14216TIP3    H142581   6.732   6.181   6.601
14216TIP3    H242582   6.754   6.289   6.707
14217TIP3   OH242583   6.221   6.050   7.058
14217TIP3    H142584   6.265   6.040   7.145
14217TIP3    H242585   6.159   5.975   7.061
14218TIP3   OH242586   6.983   6.095   6.313
14218TIP3    H142587   7.037   6.027   6.266
14218TIP3    H242588   7.034   6.104   6.395
14219TIP3   OH242589   7.034   6.135   6.604
14219TIP3    H142590   6.942   6.158   6.631
14219TIP3    H242591   7.036   6.041   6.628
14220TIP3   OH242592   6.804   4.651   7.678
14220TIP3    H142593   6.716   4.618   7.652
14220TIP3    H242594   6.776   4.730   7.730
14221TIP3   OH242595   7.336   4.744   7.862
14221TIP3    H142596   7.391   4.789   7.927
14221TIP3    H242597   7.247   4.746   7.904
14222TIP3   OH242598   7.240   5.327   6.351
14222TIP3    H142599   7.204   5.297   6.265
14222TIP3    H242600   7.324   5.367   6.321
14223TIP3   OH242601   6.950   4.696   6.648
14223TIP3    H142602   6.913   4.693   6.738
14223TIP3    H242603   6.911   4.614   6.612
14224TIP3   OH242604   6.743   5.152   7.695
14224TIP3    H142605   6.698   5.174   7.780
14224TIP3    H242606   6.723   5.232   7.642
14225TIP3   OH242607   6.619   5.052   7.209
14225TIP3    H142608   6.526   5.024   7.228
14225TIP3    H242609   6.631   5.012   7.120
14226TIP3   OH242610   7.107   5.137   6.936
14226TIP3    H142611   7.056   5.208   6.891
14226TIP3    H242612   7.164   5.105   6.862
14227TIP3   OH242613   7.261   5.161   7.167
14227TIP3    H142614   7.198   5.190   7.098
14227TIP3    H242615   7.296   5.082   7.121
14228TIP3   OH242616   6.565   5.191   7.903
14228TIP3    H142617   6.598   5.247   7.976
14228TIP3    H242618   6.543   5.109   7.952
14229TIP3   OH242619   6.608   4.674   6.616
14229TIP3    H142620   6.594   4.668   6.712
14229TIP3    H242621   6.527   4.721   6.588
14230TIP3   OH242622   6.147   4.722   7.481
14230TIP3    H142623   6.225   4.745   7.536
14230TIP3    H242624   6.185   4.677   7.403
14231TIP3   OH242625   6.121   4.696   7.007
14231TIP3    H142626   6.164   4.734   6.927
14231TIP3    H242627   6.057   4.767   7.027
14232TIP3   OH242628   6.951   4.868   7.280
14232TIP3    H142629   6.858   4.858   7.312
14232TIP3    H242630   6.989   4.910   7.358
14233TIP3   OH242631   6.382   4.929   7.278
14233TIP3    H142632   6.287   4.938   7.252
14233TIP3    H242633   6.402   4.836   7.258
14234TIP3   OH242634   6.651   4.929   6.967
14234TIP3    H142635   6.743   4.938   6.938
14234TIP3    H242636   6.600   4.948   6.885
14235TIP3   OH242637   6.493   4.962   6.748
14235TIP3    H142638   6.423   4.913   6.701
14235TIP3    H242639   6.545   4.995   6.672
14236TIP3   OH242640   7.019   5.184   7.366
14236TIP3    H142641   7.104   5.164   7.325
14236TIP3    H242642   7.035   5.161   7.460
14237TIP3   OH242643   6.556   4.685   7.251
14237TIP3    H142644   6.516   4.609   7.299
14237TIP3    H242645   6.591   4.642   7.172
14238TIP3   OH242646   7.010   5.101   7.651
14238TIP3    H142647   6.916   5.124   7.668
14238TIP3    H242648   7.055   5.132   7.731
14239TIP3   OH242649   6.741   5.490   6.756
14239TIP3    H142650   6.671   5.423   6.744
14239TIP3    H242651   6.723   5.521   6.847
14240TIP3   OH242652   7.202   4.794   6.629
14240TIP3    H142653   7.105   4.776   6.627
14240TIP3    H242654   7.207   4.891   6.638
14241TIP3   OH242655   7.270   5.052   6.724
14241TIP3    H142656   7.367   5.055   6.729
14241TIP3    H242657   7.249   5.126   6.664
14242TIP3   OH242658   6.440   5.517   7.427
14242TIP3    H142659   6.479   5.485   7.343
14242TIP3    H242660   6.462   5.445   7.488
14243TIP3   OH242661   6.893   5.642   6.586
14243TIP3    H142662   6.843   5.726   6.588
14243TIP3    H242663   6.834   5.583   6.639
14244TIP3   OH242664   6.303   5.411   8.061
14244TIP3    H142665   6.285   5.388   8.154
14244TIP3    H242666   6.229   5.365   8.016
14245TIP3   OH242667   7.710   5.135   6.551
14245TIP3    H142668   7.646   5.089   6.491
14245TIP3    H242669   7.706   5.222   6.505
14246TIP3   OH242670   7.361   5.937   6.452
14246TIP3    H142671   7.407   5.874   6.508
14246TIP3    H242672   7.403   5.918   6.365
14247TIP3   OH242673   6.538   5.819   7.064
14247TIP3    H142674   6.533   5.899   7.007
14247TIP3    H242675   6.444   5.794   7.067
14248TIP3   OH242676   6.104   5.118   6.760
14248TIP3    H142677   6.149   5.203   6.780
14248TIP3    H242678   6.026   5.123   6.820
14249TIP3   OH242679   6.677   5.584   7.002
14249TIP3    H142680   6.639   5.672   7.022
14249TIP3    H242681   6.639   5.530   7.074
14250TIP3   OH242682   6.460   6.048   6.911
14250TIP3    H142683   6.372   6.059   6.952
14250TIP3    H242684   6.493   6.141   6.915
14251TIP3   OH242685   7.169   5.688   6.362
14251TIP3    H142686   7.215   5.672   6.447
14251TIP3    H242687   7.081   5.652   6.381
14252TIP3   OH242688   7.498   6.162   6.198
14252TIP3    H142689   7.542   6.204   6.123
14252TIP3    H242690   7.417   6.216   6.204
14253TIP3   OH242691   6.526   4.934   8.049
14253TIP3    H142692   6.430   4.942   8.065
14253TIP3    H242693   6.553   4.875   8.121
14254TIP3   OH242694   7.318   5.637   6.602
14254TIP3    H142695   7.306   5.560   6.661
14254TIP3    H242696   7.412   5.623   6.577
14255TIP3   OH242697   6.260   6.029   7.691
14255TIP3    H142698   6.261   5.937   7.722
14255TIP3    H242699   6.221   6.075   7.767
14256TIP3   OH242700   6.525   5.670   6.367
14256TIP3    H142701   6.546   5.580   6.333
14256TIP3    H242702   6.508   5.652   6.461
14257TIP3   OH242703   6.478   5.670   6.640
14257TIP3    H142704   6.552   5.643   6.696
14257TIP3    H242705   6.483   5.768   6.647
14258TIP3   OH242706   6.215   5.365   6.842
14258TIP3    H142707   6.148   5.409   6.898
14258TIP3    H242708   6.228   5.432   6.774
14259TIP3   OH242709   7.237   4.753   6.903
14259TIP3    H142710   7.223   4.768   6.807
14259TIP3    H242711   7.280   4.836   6.930
14260TIP3   OH242712   6.752   5.876   6.594
14260TIP3    H142713   6.660   5.896   6.622
14260TIP3    H242714   6.761   5.938   6.520
14261TIP3   OH242715   6.942   4.926   7.004
14261TIP3    H142716   7.001   5.001   6.980
14261TIP3    H242717   6.940   4.933   7.102
14262TIP3   OH242718   7.090   4.668   7.123
14262TIP3    H142719   7.048   4.751   7.154
14262TIP3    H242720   7.143   4.700   7.046
14263TIP3   OH242721   6.494   5.943   6.654
14263TIP3    H142722   6.462   6.011   6.589
14263TIP3    H242723   6.473   5.988   6.739
14264TIP3   OH242724   6.588   4.656   6.893
14264TIP3    H142725   6.586   4.747   6.929
14264TIP3    H242726   6.684   4.639   6.898
14265TIP3   OH242727   7.528   5.278   7.176
14265TIP3    H142728   7.437   5.244   7.177
14265TIP3    H242729   7.562   5.245   7.262
14266TIP3   OH242730   6.207   5.571   6.647
14266TIP3    H142731   6.275   5.641   6.652
14266TIP3    H242732   6.250   5.514   6.579
14267TIP3   OH242733   6.152   4.847   6.782
14267TIP3    H142734   6.148   4.945   6.775
14267TIP3    H242735   6.076   4.819   6.729
14268TIP3   OH242736   6.543   4.570   7.648
14268TIP3    H142737   6.508   4.536   7.563
14268TIP3    H242738   6.531   4.492   7.707
14269TIP3   OH242739   6.074   5.779   7.031
14269TIP3    H142740   6.019   5.819   7.099
14269TIP3    H242741   6.043   5.826   6.949
14270TIP3   OH242742   6.706   5.854   6.279
14270TIP3    H142743   6.634   5.796   6.314
14270TIP3    H242744   6.777   5.787   6.279
14271TIP3   OH242745   7.140   5.917   6.185
14271TIP3    H142746   7.160   5.838   6.239
14271TIP3    H242747   7.225   5.940   6.148
14272TIP3   OH242748   6.342   5.386   6.499
14272TIP3    H142749   6.398   5.350   6.570
14272TIP3    H242750   6.408   5.391   6.426
14273TIP3   OH242751   6.842   5.599   6.312
14273TIP3    H142752   6.856   5.600   6.408
14273TIP3    H242753   6.851   5.502   6.294
14274TIP3   OH242754   6.555   5.289   6.723
14274TIP3    H142755   6.524   5.242   6.802
14274TIP3    H242756   6.590   5.215   6.668
14275TIP3   OH242757   6.837   5.339   7.925
14275TIP3    H142758   6.776   5.376   7.992
14275TIP3    H242759   6.836   5.406   7.856
14276TIP3   OH242760   6.652   5.086   6.561
14276TIP3    H142761   6.625   5.087   6.466
14276TIP3    H242762   6.750   5.089   6.552
14277TIP3   OH242763   7.471   5.417   6.227
14277TIP3    H142764   7.456   5.368   6.144
14277TIP3    H242765   7.440   5.506   6.198
14278TIP3   OH242766   2.013   0.227   3.188
14278TIP3    H142767   2.037   0.156   3.127
14278TIP3    H242768   1.990   0.300   3.126
14279TIP3   OH242769   6.945   4.917   7.876
14279TIP3    H142770   6.968   4.959   7.791
14279TIP3    H242771   6.849   4.901   7.865
14280TIP3   OH242772   7.079   4.697   7.963
14280TIP3    H142773   7.029   4.777   7.935
14280TIP3    H242774   7.012   4.627   7.949
14281TIP3   OH242775   6.653   5.030   8.363
14281TIP3    H142776   6.659   4.948   8.312
14281TIP3    H242777   6.699   5.004   8.444
14282TIP3   OH242778   7.179   4.697   8.224
14282TIP3    H142779   7.248   4.638   8.193
14282TIP3    H242780   7.125   4.705   8.143
14283TIP3   OH242781   6.460   6.142   6.466
14283TIP3    H142782   6.555   6.144   6.444
14283TIP3    H242783   6.427   6.193   6.390
14284TIP3   OH242784   5.940   5.524   6.689
14284TIP3    H142785   6.033   5.547   6.669
14284TIP3    H242786   5.931   5.437   6.642
14285TIP3   OH242787   5.855   6.136   7.095
14285TIP3    H142788   5.788   6.076   7.057
14285TIP3    H242789   5.897   6.077   7.160
14286TIP3   OH242790   5.987   5.975   7.274
14286TIP3    H142791   5.970   5.909   7.343
14286TIP3    H242792   6.035   6.042   7.326
14287TIP3   OH242793   7.587   5.595   6.573
14287TIP3    H142794   7.643   5.649   6.513
14287TIP3    H242795   7.648   5.578   6.646
14288TIP3   OH242796   7.666   5.376   6.415
14288TIP3    H142797   7.600   5.370   6.343
14288TIP3    H242798   7.636   5.457   6.458
14289TIP3   OH242799   7.534   5.056   6.365
14289TIP3    H142800   7.508   5.081   6.276
14289TIP3    H242801   7.509   4.961   6.365
14290TIP3   OH242802   7.553   5.313   6.896
14290TIP3    H142803   7.554   5.218   6.876
14290TIP3    H242804   7.554   5.313   6.994
14291TIP3   OH242805   6.173   5.399   7.647
14291TIP3    H142806   6.168   5.365   7.555
14291TIP3    H242807   6.270   5.395   7.663
14292TIP3   OH242808   7.478   4.793   6.377
14292TIP3    H142809   7.558   4.742   6.397
14292TIP3    H242810   7.409   4.726   6.367
14293TIP3   OH242811   7.553   5.044   6.800
14293TIP3    H142812   7.589   4.953   6.817
14293TIP3    H242813   7.604   5.067   6.720
14294TIP3   OH242814   6.387   5.078   8.318
14294TIP3    H142815   6.484   5.070   8.330
14294TIP3    H242816   6.358   4.998   8.368
14295TIP3   OH242817   7.648   4.792   6.849
14295TIP3    H142818   7.699   4.766   6.928
14295TIP3    H242819   7.588   4.714   6.839
14296TIP3   OH242820   6.357   4.775   7.653
14296TIP3    H142821   6.418   4.701   7.667
14296TIP3    H242822   6.418   4.850   7.651
14297TIP3   OH242823   6.158   5.050   7.732
14297TIP3    H142824   6.206   5.045   7.648
14297TIP3    H242825   6.189   5.133   7.769
14298TIP3   OH242826   7.751   4.721   6.478
14298TIP3    H142827   7.776   4.646   6.419
14298TIP3    H242828   7.802   4.793   6.438
14299TIP3   OH242829   6.142   4.560   7.239
14299TIP3    H142830   6.048   4.549   7.263
14299TIP3    H242831   6.137   4.613   7.158
14300TIP3   OH242832   6.362   4.628   8.043
14300TIP3    H142833   6.314   4.626   8.128
14300TIP3    H242834   6.295   4.672   7.986
14301TIP3   OH242835   6.150   6.128   7.438
14301TIP3    H142836   6.191   6.121   7.526
14301TIP3    H242837   6.225   6.096   7.383
14302TIP3   OH242838   6.345   6.010   7.295
14302TIP3    H142839   6.368   5.929   7.345
14302TIP3    H242840   6.434   6.048   7.277
14303TIP3   OH242841   6.597   6.104   7.265
14303TIP3    H142842   6.641   6.018   7.256
14303TIP3    H242843   6.657   6.151   7.324
14304TIP3   OH242844   7.286   4.709   7.399
14304TIP3    H142845   7.207   4.696   7.455
14304TIP3    H242846   7.245   4.706   7.312
14305TIP3   OH242847   7.657   4.677   7.288
14305TIP3    H142848   7.734   4.714   7.238
14305TIP3    H242849   7.639   4.602   7.229
14306TIP3   OH242850   7.825   4.749   7.072
14306TIP3    H142851   7.892   4.693   7.024
14306TIP3    H242852   7.867   4.837   7.056
14307TIP3   OH242853   6.451   4.476   7.403
14307TIP3    H142854   6.358   4.443   7.405
14307TIP3    H242855   6.499   4.391   7.400
14308TIP3   OH242856   6.244   4.346   7.056
14308TIP3    H142857   6.269   4.402   6.980
14308TIP3    H242858   6.211   4.411   7.120
14309TIP3   OH242859   6.900   4.508   7.282
14309TIP3    H142860   6.964   4.558   7.230
14309TIP3    H242861   6.909   4.548   7.369
14310TIP3   OH242862   7.472   4.579   6.833
14310TIP3    H142863   7.383   4.618   6.839
14310TIP3    H242864   7.456   4.492   6.877
14311TIP3   OH242865   5.953   5.921   6.835
14311TIP3    H142866   5.870   5.890   6.795
14311TIP3    H242867   5.949   6.015   6.811
14312TIP3   OH242868   6.355   4.505   6.815
14312TIP3    H142869   6.402   4.441   6.758
14312TIP3    H242870   6.430   4.557   6.851
14313TIP3   OH242871   6.864   4.681   6.913
14313TIP3    H142872   6.918   4.624   6.969
14313TIP3    H242873   6.895   4.770   6.941
14314TIP3   OH242874   6.729   6.099   6.414
14314TIP3    H142875   6.817   6.121   6.375
14314TIP3    H242876   6.704   6.026   6.352
14315TIP3   OH242877   7.436   6.199   6.492
14315TIP3    H142878   7.406   6.106   6.485
14315TIP3    H242879   7.470   6.213   6.403
14316TIP3   OH242880   6.650   4.753   8.280
14316TIP3    H142881   6.613   4.686   8.340
14316TIP3    H242882   6.745   4.748   8.307
14317TIP3   OH242883   6.898   4.732   8.391
14317TIP3    H142884   6.991   4.731   8.363
14317TIP3    H242885   6.904   4.719   8.487
14318TIP3   OH242886   6.032   5.940   6.470
14318TIP3    H142887   6.037   5.971   6.561
14318TIP3    H242888   6.120   5.898   6.457
14319TIP3   OH242889   7.887   5.298   6.699
14319TIP3    H142890   7.797   5.322   6.721
14319TIP3    H242891   7.868   5.212   6.656
14320TIP3   OH242892   7.755   5.725   6.409
14320TIP3    H142893   7.739   5.751   6.316
14320TIP3    H242894   7.751   5.811   6.455
14321TIP3   OH242895   8.750   4.933   6.126
14321TIP3    H142896   8.734   4.899   6.214
14321TIP3    H242897   8.713   4.860   6.073
14322TIP3   OH242898   8.410   4.938   6.093
14322TIP3    H142899   8.387   4.889   6.172
14322TIP3    H242900   8.327   4.942   6.043
14323TIP3   OH242901   7.975   4.967   6.982
14323TIP3    H142902   8.025   5.035   6.938
14323TIP3    H242903   7.953   4.914   6.901
14324TIP3   OH242904   7.934   4.977   6.510
14324TIP3    H142905   7.965   5.000   6.419
14324TIP3    H242906   7.853   5.029   6.515
14325TIP3   OH242907   8.118   5.119   6.817
14325TIP3    H142908   8.078   5.161   6.739
14325TIP3    H242909   8.192   5.070   6.774
14326TIP3   OH242910   8.275   5.194   6.248
14326TIP3    H142911   8.198   5.167   6.194
14326TIP3    H242912   8.337   5.220   6.175
14327TIP3   OH242913   8.328   4.944   6.703
14327TIP3    H142914   8.304   4.862   6.750
14327TIP3    H242915   8.412   4.922   6.662
14328TIP3   OH242916   7.887   5.348   6.247
14328TIP3    H142917   7.927   5.438   6.245
14328TIP3    H242918   7.810   5.366   6.305
14329TIP3   OH242919   8.332   5.873   5.829
14329TIP3    H142920   8.297   5.799   5.776
14329TIP3    H242921   8.413   5.832   5.861
14330TIP3   OH242922   7.971   5.603   6.263
14330TIP3    H142923   7.925   5.652   6.333
14330TIP3    H242924   8.062   5.634   6.271
14331TIP3   OH242925   8.000   5.870   6.099
14331TIP3    H142926   8.028   5.846   6.188
14331TIP3    H242927   8.044   5.799   6.045
14332TIP3   OH242928   7.974   5.090   6.263
14332TIP3    H142929   7.939   5.182   6.255
14332TIP3    H242930   7.948   5.053   6.177
14333TIP3   OH242931   8.149   5.664   5.987
14333TIP3    H142932   8.202   5.617   6.055
14333TIP3    H242933   8.206   5.647   5.909
14334TIP3   OH242934   8.317   5.556   6.172
14334TIP3    H142935   8.303   5.524   6.263
14334TIP3    H242936   8.369   5.483   6.133
14335TIP3   OH242937   8.432   5.322   6.053
14335TIP3    H142938   8.403   5.319   5.959
14335TIP3    H242939   8.517   5.368   6.041
14336TIP3   OH242940   7.732   5.789   6.141
14336TIP3    H142941   7.825   5.815   6.124
14336TIP3    H242942   7.730   5.698   6.102
14337TIP3   OH242943   7.921   4.842   6.747
14337TIP3    H142944   7.831   4.810   6.736
14337TIP3    H242945   7.939   4.885   6.660
14338TIP3   OH242946   8.253   4.750   6.897
14338TIP3    H142947   8.160   4.721   6.889
14338TIP3    H242948   8.298   4.663   6.900
14339TIP3   OH242949   8.053   4.595   6.552
14339TIP3    H142950   8.084   4.643   6.471
14339TIP3    H242951   7.997   4.662   6.592
14340TIP3   OH242952   8.148   4.734   6.338
14340TIP3    H142953   8.170   4.686   6.255
14340TIP3    H242954   8.219   4.798   6.342
14341TIP3   OH242955   8.607   4.912   6.461
14341TIP3    H142956   8.669   4.842   6.484
14341TIP3    H242957   8.664   4.991   6.456
14342TIP3   OH242958   7.785   6.149   5.960
14342TIP3    H142959   7.811   6.227   6.013
14342TIP3    H242960   7.873   6.119   5.929
14343TIP3   OH242961   2.135   6.108   8.501
14343TIP3    H142962   2.160   6.147   8.586
14343TIP3    H242963   2.218   6.112   8.450
14344TIP3   OH242964   1.641   5.992   8.192
14344TIP3    H142965   1.702   5.997   8.268
14344TIP3    H242966   1.689   6.041   8.125
14345TIP3   OH242967   1.844   6.017   8.389
14345TIP3    H142968   1.853   5.971   8.473
14345TIP3    H242969   1.931   6.058   8.381
14346TIP3   OH242970   1.196   6.291   7.928
14346TIP3    H142971   1.107   6.328   7.913
14346TIP3    H242972   1.246   6.320   7.849
14347TIP3   OH242973   1.190   6.151   7.677
14347TIP3    H142974   1.257   6.185   7.737
14347TIP3    H242975   1.246   6.092   7.622
14348TIP3   OH242976   1.586   6.417   7.948
14348TIP3    H142977   1.571   6.487   8.016
14348TIP3    H242978   1.675   6.387   7.975
14349TIP3   OH242979   1.409   6.317   7.766
14349TIP3    H142980   1.481   6.363   7.813
14349TIP3    H242981   1.431   6.342   7.672
14350TIP3   OH242982   1.926   5.563   7.830
14350TIP3    H142983   1.843   5.585   7.876
14350TIP3    H242984   1.940   5.643   7.775
14351TIP3   OH242985   1.739   6.918   7.344
14351TIP3    H142986   1.749   7.014   7.339
14351TIP3    H242987   1.832   6.889   7.352
14352TIP3   OH242988   1.484   6.358   7.513
14352TIP3    H142989   1.453   6.336   7.423
14352TIP3    H242990   1.564   6.410   7.493
14353TIP3   OH242991   1.188   5.753   7.803
14353TIP3    H142992   1.181   5.746   7.901
14353TIP3    H242993   1.159   5.661   7.780
14354TIP3   OH242994   1.347   6.173   8.113
14354TIP3    H142995   1.294   6.211   8.039
14354TIP3    H242996   1.424   6.140   8.063
14355TIP3   OH242997   1.446   5.844   7.798
14355TIP3    H142998   1.349   5.829   7.796
14355TIP3    H242999   1.455   5.939   7.817
14356TIP3   OH243000   1.521   6.093   7.899
14356TIP3    H143001   1.618   6.098   7.909
14356TIP3    H243002   1.502   6.168   7.839
14357TIP3   OH243003   1.956   6.185   7.735
14357TIP3    H143004   1.896   6.139   7.672
14357TIP3    H243005   1.956   6.272   7.690
14358TIP3   OH243006   1.408   6.732   7.518
14358TIP3    H143007   1.458   6.687   7.589
14358TIP3    H243008   1.319   6.705   7.543
14359TIP3   OH243009   1.819   7.244   7.323
14359TIP3    H143010   1.795   7.292   7.242
14359TIP3    H243011   1.731   7.231   7.364
14360TIP3   OH243012   1.548   6.593   7.712
14360TIP3    H143013   1.561   6.555   7.799
14360TIP3    H243014   1.634   6.635   7.696
14361TIP3   OH243015   1.509   5.786   8.064
14361TIP3    H143016   1.479   5.814   7.975
14361TIP3    H243017   1.543   5.869   8.103
14362TIP3   OH243018   1.202   5.959   8.211
14362TIP3    H143019   1.257   6.025   8.164
14362TIP3    H243020   1.182   6.007   8.292
14363TIP3   OH243021   1.401   5.677   8.288
14363TIP3    H143022   1.340   5.741   8.328
14363TIP3    H243023   1.413   5.718   8.200
14364TIP3   OH243024   1.379   6.958   7.346
14364TIP3    H143025   1.418   6.899   7.413
14364TIP3    H243026   1.439   6.947   7.270
14365TIP3   OH243027   1.116   6.637   7.490
14365TIP3    H143028   1.132   6.642   7.586
14365TIP3    H243029   1.109   6.540   7.478
14366TIP3   OH243030   0.940   6.166   7.793
14366TIP3    H143031   0.905   6.148   7.702
14366TIP3    H243032   1.034   6.150   7.772
14367TIP3   OH243033   1.723   6.457   7.403
14367TIP3    H143034   1.703   6.411   7.319
14367TIP3    H243035   1.691   6.547   7.378
14368TIP3   OH243036   1.862   6.646   7.731
14368TIP3    H143037   1.932   6.705   7.694
14368TIP3    H243038   1.913   6.598   7.801
14369TIP3   OH243039   1.980   6.507   7.929
14369TIP3    H143040   1.930   6.464   8.001
14369TIP3    H243041   2.059   6.542   7.976
14370TIP3   OH243042   1.922   6.417   7.584
14370TIP3    H143043   1.852   6.418   7.515
14370TIP3    H243044   1.895   6.496   7.635
14371TIP3   OH243045   1.788   6.096   7.543
14371TIP3    H143046   1.754   6.132   7.460
14371TIP3    H243047   1.766   6.001   7.532
14372TIP3   OH243048   1.814   6.349   8.100
14372TIP3    H143049   1.818   6.255   8.073
14372TIP3    H243050   1.764   6.345   8.182
14373TIP3   OH243051   1.735   5.831   7.530
14373TIP3    H143052   1.811   5.795   7.580
14373TIP3    H243053   1.664   5.767   7.546
14374TIP3   OH243054   1.799   6.097   7.976
14374TIP3    H143055   1.832   6.005   7.988
14374TIP3    H243056   1.856   6.124   7.901
14375TIP3   OH243057   1.891   5.842   8.006
14375TIP3    H143058   1.951   5.826   8.082
14375TIP3    H243059   1.835   5.763   8.008
14376TIP3   OH243060   1.985   5.768   7.652
14376TIP3    H143061   2.024   5.698   7.594
14376TIP3    H243062   2.050   5.840   7.643
14377TIP3   OH243063   1.983   5.690   8.416
14377TIP3    H143064   2.034   5.736   8.346
14377TIP3    H243065   1.893   5.700   8.382
14378TIP3   OH243066   2.077   5.811   8.200
14378TIP3    H143067   2.150   5.755   8.163
14378TIP3    H243068   2.117   5.901   8.189
14379TIP3   OH243069   1.717   5.619   8.009
14379TIP3    H143070   1.636   5.675   8.012
14379TIP3    H243071   1.691   5.548   8.069
14380TIP3   OH243072   1.175   5.725   8.072
14380TIP3    H143073   1.140   5.659   8.133
14380TIP3    H243074   1.164   5.809   8.120
14381TIP3   OH243075   3.187   6.784   7.637
14381TIP3    H143076   3.158   6.875   7.616
14381TIP3    H243077   3.111   6.734   7.603
14382TIP3   OH243078   3.198   6.769   8.007
14382TIP3    H143079   3.218   6.751   8.100
14382TIP3    H243080   3.152   6.688   7.980
14383TIP3   OH243081   3.434   7.081   7.698
14383TIP3    H143082   3.414   7.018   7.768
14383TIP3    H243083   3.465   7.159   7.748
14384TIP3   OH243084   2.164   6.279   7.895
14384TIP3    H143085   2.133   6.370   7.908
14384TIP3    H243086   2.088   6.241   7.848
14385TIP3   OH243087   2.225   6.571   8.030
14385TIP3    H143088   2.279   6.517   8.092
14385TIP3    H243089   2.281   6.649   8.024
14386TIP3   OH243090   3.085   7.531   7.723
14386TIP3    H143091   3.130   7.471   7.659
14386TIP3    H243092   3.111   7.489   7.806
14387TIP3   OH243093   3.014   6.973   8.047
14387TIP3    H143094   3.060   6.902   8.001
14387TIP3    H243095   3.093   7.023   8.079
14388TIP3   OH243096   4.001   6.330   8.065
14388TIP3    H143097   4.027   6.412   8.110
14388TIP3    H243098   4.018   6.352   7.972
14389TIP3   OH243099   3.393   6.514   8.102
14389TIP3    H143100   3.440   6.430   8.120
14389TIP3    H243101   3.364   6.501   8.010
14390TIP3   OH243102   2.733   6.170   8.065
14390TIP3    H143103   2.718   6.242   8.001
14390TIP3    H243104   2.689   6.096   8.018
14391TIP3   OH243105   3.430   6.266   7.687
14391TIP3    H143106   3.503   6.250   7.751
14391TIP3    H243107   3.481   6.298   7.610
14392TIP3   OH243108   2.380   6.384   8.172
14392TIP3    H143109   2.464   6.353   8.210
14392TIP3    H243110   2.382   6.336   8.086
14393TIP3   OH243111   2.809   6.563   7.974
14393TIP3    H143112   2.905   6.541   7.978
14393TIP3    H243113   2.771   6.481   7.935
14394TIP3   OH243114   4.073   6.537   8.234
14394TIP3    H143115   3.989   6.584   8.218
14394TIP3    H243116   4.095   6.570   8.323
14395TIP3   OH243117   2.743   6.146   8.490
14395TIP3    H143118   2.679   6.187   8.428
14395TIP3    H243119   2.701   6.158   8.576
14396TIP3   OH243120   3.075   7.002   7.508
14396TIP3    H143121   3.039   6.987   7.420
14396TIP3    H243122   3.033   7.088   7.531
14397TIP3   OH243123   3.639   6.268   7.860
14397TIP3    H143124   3.641   6.211   7.938
14397TIP3    H243125   3.692   6.344   7.889
14398TIP3   OH243126   2.604   6.264   8.284
14398TIP3    H143127   2.666   6.340   8.301
14398TIP3    H243128   2.650   6.223   8.207
14399TIP3   OH243129   2.054   6.812   7.626
14399TIP3    H143130   2.029   6.836   7.534
14399TIP3    H243131   2.108   6.886   7.656
14400TIP3   OH243132   3.516   7.318   7.850
14400TIP3    H143133   3.428   7.304   7.892
14400TIP3    H243134   3.502   7.407   7.810
14401TIP3   OH243135   3.789   6.234   8.229
14401TIP3    H143136   3.702   6.260   8.194
14401TIP3    H243137   3.850   6.263   8.158
14402TIP3   OH243138   3.089   5.870   8.208
14402TIP3    H143139   3.080   5.775   8.228
14402TIP3    H243140   3.010   5.905   8.254
14403TIP3   OH243141   3.207   7.375   7.538
14403TIP3    H143142   3.255   7.292   7.515
14403TIP3    H243143   3.267   7.440   7.496
14404TIP3   OH243144   3.344   7.157   7.447
14404TIP3    H143145   3.320   7.076   7.400
14404TIP3    H243146   3.380   7.121   7.531
14405TIP3   OH243147   3.724   7.248   8.173
14405TIP3    H143148   3.716   7.157   8.138
14405TIP3    H243149   3.739   7.299   8.090
14406TIP3   OH243150   3.018   6.636   7.468
14406TIP3    H143151   2.939   6.688   7.446
14406TIP3    H243152   3.065   6.633   7.383
14407TIP3   OH243153   2.976   6.423   7.184
14407TIP3    H143154   3.044   6.473   7.232
14407TIP3    H243155   3.032   6.358   7.136
14408TIP3   OH243156   3.929   6.878   8.055
14408TIP3    H143157   3.843   6.927   8.063
14408TIP3    H243158   3.953   6.903   7.963
14409TIP3   OH243159   3.365   6.719   7.440
14409TIP3    H143160   3.310   6.744   7.518
14409TIP3    H243161   3.449   6.693   7.484
14410TIP3   OH243162   3.595   6.733   8.335
14410TIP3    H143163   3.608   6.813   8.392
14410TIP3    H243164   3.518   6.762   8.283
14411TIP3   OH243165   2.604   6.713   7.854
14411TIP3    H143166   2.557   6.658   7.788
14411TIP3    H243167   2.677   6.655   7.883
14412TIP3   OH243168   2.770   7.085   8.033
14412TIP3    H143169   2.727   7.030   7.966
14412TIP3    H243170   2.862   7.053   8.029
14413TIP3   OH243171   2.749   6.698   8.203
14413TIP3    H143172   2.770   6.658   8.115
14413TIP3    H243173   2.835   6.736   8.228
14414TIP3   OH243174   3.274   7.291   7.965
14414TIP3    H143175   3.272   7.356   8.038
14414TIP3    H243176   3.255   7.207   8.011
14415TIP3   OH243177   3.204   6.578   7.266
14415TIP3    H143178   3.264   6.637   7.317
14415TIP3    H243179   3.230   6.600   7.173
14416TIP3   OH243180   2.953   7.252   7.535
14416TIP3    H143181   3.031   7.307   7.556
14416TIP3    H243182   2.887   7.318   7.509
14417TIP3   OH243183   3.727   5.817   7.316
14417TIP3    H143184   3.640   5.830   7.361
14417TIP3    H243185   3.734   5.900   7.265
14418TIP3   OH243186   2.468   6.557   7.660
14418TIP3    H143187   2.402   6.605   7.606
14418TIP3    H243188   2.424   6.472   7.672
14419TIP3   OH243189   3.523   7.186   6.864
14419TIP3    H143190   3.527   7.282   6.844
14419TIP3    H243191   3.616   7.158   6.850
14420TIP3   OH243192   2.820   7.496   7.338
14420TIP3    H143193   2.793   7.466   7.249
14420TIP3    H243194   2.806   7.591   7.334
14421TIP3   OH243195   3.082   7.469   7.267
14421TIP3    H143196   2.994   7.459   7.307
14421TIP3    H243197   3.134   7.405   7.316
14422TIP3   OH243198   3.873   6.717   8.525
14422TIP3    H143199   3.788   6.748   8.491
14422TIP3    H243200   3.873   6.623   8.501
14423TIP3   OH243201   2.850   5.943   8.335
14423TIP3    H143202   2.760   5.918   8.306
14423TIP3    H243203   2.830   6.028   8.378
14424TIP3   OH243204   3.384   6.075   8.529
14424TIP3    H143205   3.459   6.036   8.581
14424TIP3    H243206   3.305   6.042   8.577
14425TIP3   OH243207   3.616   6.488   8.461
14425TIP3    H143208   3.579   6.507   8.549
14425TIP3    H243209   3.603   6.573   8.413
14426TIP3   OH243210   3.282   6.618   7.010
14426TIP3    H143211   3.249   6.595   6.921
14426TIP3    H243212   3.357   6.675   6.987
14427TIP3   OH243213   2.991   6.003   7.312
14427TIP3    H143214   2.958   5.997   7.403
14427TIP3    H243215   2.965   5.915   7.278
14428TIP3   OH243216   2.774   6.466   8.354
14428TIP3    H143217   2.783   6.501   8.443
14428TIP3    H243218   2.763   6.548   8.300
14429TIP3   OH243219   2.666   6.350   7.875
14429TIP3    H143220   2.572   6.327   7.890
14429TIP3    H243221   2.679   6.312   7.785
14430TIP3   OH243222   3.155   6.437   7.604
14430TIP3    H143223   3.103   6.508   7.560
14430TIP3    H243224   3.210   6.405   7.530
14431TIP3   OH243225   3.310   6.465   7.842
14431TIP3    H143226   3.252   6.495   7.769
14431TIP3    H243227   3.346   6.385   7.799
14432TIP3   OH243228   2.646   5.971   7.278
14432TIP3    H143229   2.641   5.970   7.376
14432TIP3    H243230   2.570   6.026   7.255
14433TIP3   OH243231   2.203   6.040   8.146
14433TIP3    H143232   2.283   6.061   8.196
14433TIP3    H243233   2.236   6.009   8.060
14434TIP3   OH243234   2.161   5.995   7.671
14434TIP3    H143235   2.206   6.032   7.591
14434TIP3    H243236   2.103   6.070   7.691
14435TIP3   OH243237   3.304   6.710   8.265
14435TIP3    H143238   3.346   6.646   8.203
14435TIP3    H243239   3.284   6.651   8.340
14436TIP3   OH243240   2.996   6.179   7.937
14436TIP3    H143241   2.916   6.171   7.993
14436TIP3    H243242   3.068   6.167   8.001
14437TIP3   OH243243   2.426   6.228   7.948
14437TIP3    H143244   2.332   6.233   7.919
14437TIP3    H243245   2.454   6.140   7.917
14438TIP3   OH243246   2.693   6.226   7.633
14438TIP3    H143247   2.788   6.239   7.613
14438TIP3    H243248   2.649   6.249   7.548
14439TIP3   OH243249   3.483   6.253   8.146
14439TIP3    H143250   3.438   6.261   8.232
14439TIP3    H243251   3.425   6.189   8.100
14440TIP3   OH243252   2.538   6.259   7.408
14440TIP3    H143253   2.469   6.214   7.355
14440TIP3    H243254   2.592   6.298   7.336
14441TIP3   OH243255   3.078   6.501   8.030
14441TIP3    H143256   3.147   6.463   7.974
14441TIP3    H243257   3.092   6.454   8.114
14442TIP3   OH243258   2.597   5.990   7.910
14442TIP3    H143259   2.566   5.908   7.954
14442TIP3    H243260   2.649   5.955   7.836
14443TIP3   OH243261   3.053   6.393   8.321
14443TIP3    H143262   2.966   6.435   8.327
14443TIP3    H243263   3.111   6.453   8.371
14444TIP3   OH243264   2.788   6.787   7.412
14444TIP3    H143265   2.714   6.724   7.404
14444TIP3    H243266   2.779   6.815   7.507
14445TIP3   OH243267   3.692   7.013   8.039
14445TIP3    H143268   3.712   7.064   7.959
14445TIP3    H243269   3.602   6.976   8.019
14446TIP3   OH243270   3.244   6.105   7.283
14446TIP3    H143271   3.148   6.085   7.290
14446TIP3    H243272   3.251   6.199   7.308
14447TIP3   OH243273   3.314   6.352   7.387
14447TIP3    H143274   3.411   6.356   7.399
14447TIP3    H243275   3.296   6.430   7.332
14448TIP3   OH243276   2.462   6.738   8.088
14448TIP3    H143277   2.499   6.763   8.001
14448TIP3    H243278   2.542   6.711   8.135
14449TIP3   OH243279   2.936   6.938   7.239
14449TIP3    H143280   2.887   7.023   7.245
14449TIP3    H243281   2.882   6.882   7.298
14450TIP3   OH243282   3.760   6.440   7.217
14450TIP3    H143283   3.697   6.394   7.156
14450TIP3    H243284   3.754   6.529   7.177
14451TIP3   OH243285   3.978   7.247   8.275
14451TIP3    H143286   3.884   7.256   8.245
14451TIP3    H243287   4.023   7.238   8.189
14452TIP3   OH243288   3.471   7.256   7.130
14452TIP3    H143289   3.430   7.187   7.184
14452TIP3    H243290   3.471   7.215   7.041
14453TIP3   OH243291   3.452   6.886   7.965
14453TIP3    H143292   3.358   6.859   7.973
14453TIP3    H243293   3.488   6.808   7.919
14454TIP3   OH243294   2.575   7.063   7.670
14454TIP3    H143295   2.617   7.141   7.711
14454TIP3    H243296   2.484   7.072   7.702
14455TIP3   OH243297   2.147   6.419   7.421
14455TIP3    H143298   2.194   6.503   7.442
14455TIP3    H243299   2.070   6.425   7.482
14456TIP3   OH243300   2.743   6.856   7.667
14456TIP3    H143301   2.691   6.939   7.662
14456TIP3    H243302   2.698   6.813   7.742
14457TIP3   OH243303   3.257   7.074   8.130
14457TIP3    H143304   3.264   7.132   8.209
14457TIP3    H243305   3.343   7.029   8.131
14458TIP3   OH243306   3.204   6.962   7.033
14458TIP3    H143307   3.262   6.950   7.111
14458TIP3    H243308   3.117   6.954   7.074
14459TIP3   OH243309   3.554   7.461   6.841
14459TIP3    H143310   3.581   7.533   6.783
14459TIP3    H243311   3.473   7.501   6.879
14460TIP3   OH243312   3.374   6.925   7.252
14460TIP3    H143313   3.366   6.854   7.319
14460TIP3    H243314   3.470   6.921   7.234
14461TIP3   OH243315   2.574   6.970   7.030
14461TIP3    H143316   2.594   6.880   7.000
14461TIP3    H243317   2.560   6.956   7.126
14462TIP3   OH243318   2.521   6.975   7.305
14462TIP3    H143319   2.593   6.947   7.364
14462TIP3    H243320   2.527   7.073   7.314
14463TIP3   OH243321   2.260   6.661   7.504
14463TIP3    H143322   2.197   6.707   7.562
14463TIP3    H243323   2.280   6.731   7.439
14464TIP3   OH243324   3.398   6.321   8.410
14464TIP3    H143325   3.491   6.348   8.425
14464TIP3    H243326   3.395   6.232   8.454
14465TIP3   OH243327   3.276   6.061   7.564
14465TIP3    H143328   3.272   6.075   7.468
14465TIP3    H243329   3.325   6.139   7.596
14466TIP3   OH243330   2.788   7.165   7.249
14466TIP3    H143331   2.704   7.197   7.286
14466TIP3    H243332   2.809   7.234   7.186
14467TIP3   OH243333   2.974   6.234   7.664
14467TIP3    H143334   3.041   6.303   7.644
14467TIP3    H243335   2.984   6.227   7.762
14468TIP3   OH243336   3.233   6.547   8.474
14468TIP3    H143337   3.273   6.609   8.537
14468TIP3    H243338   3.298   6.473   8.470
14469TIP3   OH243339   3.122   5.956   7.765
14469TIP3    H143340   3.119   6.034   7.824
14469TIP3    H243341   3.181   5.991   7.694
14470TIP3   OH243342   2.532   7.251   7.319
14470TIP3    H143343   2.505   7.316   7.251
14470TIP3    H243344   2.531   7.307   7.399
14471TIP3   OH243345   2.633   5.958   7.556
14471TIP3    H143346   2.634   6.049   7.590
14471TIP3    H243347   2.730   5.939   7.562
14472TIP3   OH243348   3.885   6.448   8.452
14472TIP3    H143349   3.787   6.442   8.456
14472TIP3    H243350   3.901   6.403   8.367
14473TIP3   OH243351   3.539   6.645   7.841
14473TIP3    H143352   3.463   6.585   7.851
14473TIP3    H243353   3.610   6.597   7.888
14474TIP3   OH243354   2.258   6.875   7.311
14474TIP3    H143355   2.332   6.939   7.319
14474TIP3    H243356   2.298   6.817   7.242
14475TIP3   OH243357   2.192   6.148   7.448
14475TIP3    H143358   2.197   6.246   7.441
14475TIP3    H243359   2.120   6.127   7.388
14476TIP3   OH243360   3.514   7.581   7.775
14476TIP3    H143361   3.461   7.641   7.720
14476TIP3    H243362   3.602   7.622   7.763
14477TIP3   OH243363   2.575   5.880   8.315
14477TIP3    H143364   2.551   5.847   8.226
14477TIP3    H243365   2.568   5.798   8.369
14478TIP3   OH243366   2.743   7.171   6.942
14478TIP3    H143367   2.690   7.097   6.979
14478TIP3    H243368   2.818   7.123   6.903
14479TIP3   OH243369   2.387   6.685   7.165
14479TIP3    H143370   2.445   6.654   7.236
14479TIP3    H243371   2.452   6.691   7.091
14480TIP3   OH243372   2.888   6.883   6.971
14480TIP3    H143373   2.899   6.897   7.067
14480TIP3    H243374   2.895   6.785   6.966
14481TIP3   OH243375   3.510   7.094   8.303
14481TIP3    H143376   3.585   7.150   8.277
14481TIP3    H243377   3.448   7.159   8.339
14482TIP3   OH243378   2.590   6.591   7.381
14482TIP3    H143379   2.571   6.549   7.466
14482TIP3    H243380   2.630   6.518   7.330
14483TIP3   OH243381   2.698   6.386   7.225
14483TIP3    H143382   2.672   6.389   7.131
14483TIP3    H243383   2.795   6.391   7.218
14484TIP3   OH243384   3.520   6.718   6.887
14484TIP3    H143385   3.495   6.673   6.805
14484TIP3    H243386   3.486   6.808   6.867
14485TIP3   OH243387   2.928   6.439   8.684
14485TIP3    H143388   2.959   6.347   8.675
14485TIP3    H243389   3.006   6.487   8.657
14486TIP3   OH243390   3.004   6.212   8.531
14486TIP3    H143391   3.033   6.258   8.450
14486TIP3    H243392   2.910   6.193   8.511
14487TIP3   OH243393   2.995   6.768   8.360
14487TIP3    H143394   3.089   6.742   8.354
14487TIP3    H243395   3.002   6.862   8.376
14488TIP3   OH243396   3.642   6.937   8.499
14488TIP3    H143397   3.597   7.012   8.456
14488TIP3    H243398   3.735   6.969   8.490
14489TIP3   OH243399   3.139   5.986   8.614
14489TIP3    H143400   3.092   6.070   8.597
14489TIP3    H243401   3.068   5.921   8.606
14490TIP3   OH243402   3.501   6.454   8.718
14490TIP3    H143403   3.417   6.415   8.746
14490TIP3    H243404   3.561   6.380   8.734
14491TIP3   OH243405   2.514   7.461   7.136
14491TIP3    H143406   2.607   7.444   7.111
14491TIP3    H243407   2.481   7.498   7.052
14492TIP3   OH243408   1.996   6.823   7.351
14492TIP3    H143409   2.089   6.846   7.330
14492TIP3    H243410   1.986   6.736   7.305
14493TIP3   OH243411   3.746   7.725   7.751
14493TIP3    H143412   3.810   7.762   7.815
14493TIP3    H243413   3.800   7.725   7.671
14494TIP3   OH243414   3.653   6.900   7.221
14494TIP3    H143415   3.719   6.966   7.192
14494TIP3    H243416   3.698   6.862   7.300
14495TIP3   OH243417   3.783   6.768   7.425
14495TIP3    H143418   3.715   6.726   7.483
14495TIP3    H243419   3.845   6.807   7.490
14496TIP3   OH243420   3.835   7.161   7.855
14496TIP3    H143421   3.885   7.095   7.803
14496TIP3    H243422   3.821   7.233   7.790
14497TIP3   OH243423   3.726   7.449   7.975
14497TIP3    H143424   3.694   7.539   7.974
14497TIP3    H243425   3.658   7.402   7.923
14498TIP3   OH243426   3.719   6.677   7.071
14498TIP3    H143427   3.647   6.680   7.003
14498TIP3    H243428   3.691   6.753   7.126
14499TIP3   OH243429   3.592   6.348   7.025
14499TIP3    H143430   3.544   6.386   6.951
14499TIP3    H243431   3.567   6.253   7.016
14500TIP3   OH243432   3.595   6.626   7.570
14500TIP3    H143433   3.601   6.529   7.564
14500TIP3    H243434   3.581   6.640   7.667
14501TIP3   OH243435   3.880   7.011   8.382
14501TIP3    H143436   3.959   6.972   8.423
14501TIP3    H243437   3.914   7.099   8.357
14502TIP3   OH243438   4.095   6.868   8.476
14502TIP3    H143439   4.013   6.822   8.507
14502TIP3    H243440   4.153   6.789   8.469
14503TIP3   OH243441   3.533   6.082   7.011
14503TIP3    H143442   3.604   6.050   7.070
14503TIP3    H243443   3.456   6.027   7.034
14504TIP3   OH243444   3.592   6.343   7.466
14504TIP3    H143445   3.632   6.254   7.480
14504TIP3    H243446   3.649   6.375   7.394
14505TIP3   OH243447   3.753   6.514   7.961
14505TIP3    H143448   3.838   6.540   7.919
14505TIP3    H243449   3.767   6.553   8.050
14506TIP3   OH243450   3.825   6.658   8.191
14506TIP3    H143451   3.746   6.690   8.239
14506TIP3    H243452   3.857   6.742   8.150
14507TIP3   OH243453   3.700   6.093   7.503
14507TIP3    H143454   3.746   6.074   7.588
14507TIP3    H243455   3.639   6.016   7.499
14508TIP3   OH243456   2.396   6.090   8.343
14508TIP3    H143457   2.451   6.009   8.342
14508TIP3    H243458   2.463   6.157   8.319
14509TIP3   OH243459   2.215   6.375   8.392
14509TIP3    H143460   2.205   6.296   8.337
14509TIP3    H243461   2.285   6.419   8.341
14510TIP3   OH243462   4.137   6.395   8.560
14510TIP3    H143463   4.042   6.418   8.554
14510TIP3    H243464   4.137   6.309   8.515
14511TIP3   OH243465   3.783   6.028   7.140
14511TIP3    H143466   3.822   5.959   7.082
14511TIP3    H243467   3.846   6.101   7.129
14512TIP3   OH243468   2.183   5.866   7.905
14512TIP3    H143469   2.088   5.856   7.916
14512TIP3    H243470   2.187   5.918   7.822
14513TIP3   OH243471   3.359   7.557   7.408
14513TIP3    H143472   3.396   7.536   7.320
14513TIP3    H243473   3.416   7.629   7.435
14514TIP3   OH243474   4.048   6.148   8.427
14514TIP3    H143475   3.954   6.137   8.402
14514TIP3    H243476   4.078   6.054   8.423
14515TIP3   OH243477   3.245   6.067   8.050
14515TIP3    H143478   3.205   5.994   8.101
14515TIP3    H243479   3.319   6.023   8.004
14516TIP3   OH243480   3.769   5.963   7.959
14516TIP3    H143481   3.803   6.007   7.878
14516TIP3    H243482   3.672   5.968   7.946
14517TIP3   OH243483   3.866   6.048   7.721
14517TIP3    H143484   3.939   5.998   7.678
14517TIP3    H243485   3.898   6.140   7.705
14518TIP3   OH243486   2.495   5.778   8.071
14518TIP3    H143487   2.404   5.743   8.067
14518TIP3    H243488   2.546   5.694   8.065
14519TIP3   OH243489   2.286   5.647   7.717
14519TIP3    H143490   2.317   5.700   7.642
14519TIP3    H243491   2.258   5.715   7.780
14520TIP3   OH243492   2.938   5.814   7.952
14520TIP3    H143493   2.995   5.853   7.884
14520TIP3    H243494   2.980   5.845   8.033
14521TIP3   OH243495   3.485   5.954   7.931
14521TIP3    H143496   3.485   5.913   7.843
14521TIP3    H243497   3.474   5.875   7.989
14522TIP3   OH243498   3.521   5.879   7.494
14522TIP3    H143499   3.429   5.906   7.481
14522TIP3    H243500   3.507   5.795   7.543
14523TIP3   OH243501   2.402   5.803   7.482
14523TIP3    H143502   2.449   5.742   7.423
14523TIP3    H243503   2.475   5.859   7.515
14524TIP3   OH243504   2.909   5.983   7.578
14524TIP3    H143505   2.973   5.934   7.633
14524TIP3    H243506   2.934   6.074   7.603
14525TIP3   OH243507   2.783   7.407   7.074
14525TIP3    H143508   2.863   7.439   7.029
14525TIP3    H243509   2.762   7.330   7.015
14526TIP3   OH243510   3.495   7.524   7.172
14526TIP3    H143511   3.489   7.426   7.157
14526TIP3    H243512   3.451   7.558   7.091
14527TIP3   OH243513   2.083   7.239   7.128
14527TIP3    H143514   2.077   7.252   7.223
14527TIP3    H243515   2.172   7.197   7.117
14528TIP3   OH243516   4.983   7.043   7.120
14528TIP3    H143517   4.955   7.135   7.101
14528TIP3    H243518   4.905   6.994   7.090
14529TIP3   OH243519   4.964   7.034   7.509
14529TIP3    H143520   5.004   7.008   7.595
14529TIP3    H243521   4.924   6.950   7.481
14530TIP3   OH243522   4.281   6.936   7.868
14530TIP3    H143523   4.311   6.866   7.930
14530TIP3    H243524   4.356   6.998   7.873
14531TIP3   OH243525   5.229   7.332   7.191
14531TIP3    H143526   5.216   7.258   7.253
14531TIP3    H243527   5.232   7.405   7.254
14532TIP3   OH243528   4.250   7.347   7.595
14532TIP3    H143529   4.240   7.249   7.593
14532TIP3    H243530   4.344   7.353   7.615
14533TIP3   OH243531   3.961   6.551   7.379
14533TIP3    H143532   3.910   6.633   7.394
14533TIP3    H243533   3.892   6.496   7.338
14534TIP3   OH243534   4.020   6.838   7.555
14534TIP3    H143535   4.069   6.760   7.590
14534TIP3    H243536   4.076   6.866   7.482
14535TIP3   OH243537   4.851   7.793   7.194
14535TIP3    H143538   4.903   7.726   7.146
14535TIP3    H243539   4.897   7.790   7.281
14536TIP3   OH243540   4.777   7.268   7.545
14536TIP3    H143541   4.813   7.186   7.507
14536TIP3    H243542   4.861   7.315   7.564
14537TIP3   OH243543   5.730   6.563   7.497
14537TIP3    H143544   5.803   6.587   7.558
14537TIP3    H243545   5.770   6.583   7.412
14538TIP3   OH243546   5.194   6.771   7.584
14538TIP3    H143547   5.238   6.686   7.604
14538TIP3    H243548   5.162   6.753   7.493
14539TIP3   OH243549   4.536   6.427   7.550
14539TIP3    H143550   4.512   6.500   7.489
14539TIP3    H243551   4.486   6.354   7.507
14540TIP3   OH243552   5.227   6.518   7.175
14540TIP3    H143553   5.299   6.505   7.241
14540TIP3    H243554   5.278   6.557   7.101
14541TIP3   OH243555   4.165   6.630   7.659
14541TIP3    H143556   4.248   6.610   7.706
14541TIP3    H243557   4.177   6.574   7.580
14542TIP3   OH243558   4.607   6.828   7.446
14542TIP3    H143559   4.699   6.800   7.463
14542TIP3    H243560   4.566   6.744   7.418
14543TIP3   OH243561   4.528   6.410   7.986
14543TIP3    H143562   4.469   6.449   7.918
14543TIP3    H243563   4.475   6.429   8.067
14544TIP3   OH243564   4.883   7.270   6.986
14544TIP3    H143565   4.831   7.244   6.909
14544TIP3    H243566   4.835   7.352   7.013
14545TIP3   OH243567   4.635   7.186   7.779
14545TIP3    H143568   4.569   7.247   7.820
14545TIP3    H243569   4.673   7.242   7.710
14546TIP3   OH243570   5.438   6.519   7.348
14546TIP3    H143571   5.417   6.480   7.434
14546TIP3    H243572   5.499   6.591   7.374
14547TIP3   OH243573   4.400   6.526   7.769
14547TIP3    H143574   4.459   6.600   7.793
14547TIP3    H243575   4.451   6.486   7.694
14548TIP3   OH243576   4.445   7.366   7.858
14548TIP3    H143577   4.454   7.464   7.856
14548TIP3    H243578   4.376   7.359   7.928
14549TIP3   OH243579   3.856   7.071   7.114
14549TIP3    H143580   3.812   7.095   7.030
14549TIP3    H243581   3.884   7.158   7.147
14550TIP3   OH243582   5.563   6.467   7.700
14550TIP3    H143583   5.475   6.499   7.674
14550TIP3    H243584   5.620   6.503   7.628
14551TIP3   OH243585   4.891   6.152   7.699
14551TIP3    H143586   4.885   6.056   7.698
14551TIP3    H243587   4.810   6.178   7.747
14552TIP3   OH243588   5.005   7.629   7.041
14552TIP3    H143589   5.054   7.548   7.013
14552TIP3    H243590   5.058   7.696   6.991
14553TIP3   OH243591   5.144   7.412   6.939
14553TIP3    H143592   5.078   7.345   6.916
14553TIP3    H243593   5.180   7.375   7.023
14554TIP3   OH243594   4.814   6.891   6.954
14554TIP3    H143595   4.731   6.942   6.937
14554TIP3    H243596   4.855   6.893   6.866
14555TIP3   OH243597   4.773   6.680   6.669
14555TIP3    H143598   4.840   6.728   6.720
14555TIP3    H243599   4.829   6.615   6.623
14556TIP3   OH243600   5.162   6.975   6.927
14556TIP3    H143601   5.106   7.001   7.004
14556TIP3    H243602   5.245   6.950   6.972
14557TIP3   OH243603   4.394   6.973   7.342
14557TIP3    H143604   4.352   6.915   7.275
14557TIP3    H243605   4.471   6.919   7.371
14558TIP3   OH243606   4.531   7.402   7.490
14558TIP3    H143607   4.498   7.358   7.411
14558TIP3    H243608   4.615   7.355   7.506
14559TIP3   OH243609   4.535   6.942   7.696
14559TIP3    H143610   4.566   6.926   7.605
14559TIP3    H243611   4.574   7.030   7.718
14560TIP3   OH243612   5.009   6.832   6.748
14560TIP3    H143613   5.062   6.893   6.805
14560TIP3    H243614   5.040   6.858   6.659
14561TIP3   OH243615   4.419   7.053   8.120
14561TIP3    H143616   4.421   7.142   8.160
14561TIP3    H243617   4.325   7.029   8.134
14562TIP3   OH243618   4.745   7.509   7.024
14562TIP3    H143619   4.811   7.571   7.059
14562TIP3    H243620   4.679   7.569   6.985
14563TIP3   OH243621   5.516   6.078   6.804
14563TIP3    H143622   5.433   6.100   6.851
14563TIP3    H243623   5.530   6.161   6.752
14564TIP3   OH243624   4.261   6.816   7.145
14564TIP3    H143625   4.194   6.863   7.092
14564TIP3    H243626   4.217   6.731   7.161
14565TIP3   OH243627   5.311   7.439   6.348
14565TIP3    H143628   5.315   7.537   6.337
14565TIP3    H243629   5.407   7.418   6.343
14566TIP3   OH243630   4.064   7.191   8.023
14566TIP3    H143631   3.988   7.171   7.964
14566TIP3    H243632   4.093   7.102   8.051
14567TIP3   OH243633   3.891   7.394   7.684
14567TIP3    H143634   3.987   7.387   7.676
14567TIP3    H243635   3.879   7.454   7.759
14568TIP3   OH243636   4.626   7.757   6.831
14568TIP3    H143637   4.579   7.742   6.747
14568TIP3    H243638   4.598   7.847   6.856
14569TIP3   OH243639   4.064   7.606   7.212
14569TIP3    H143640   4.107   7.597   7.299
14569TIP3    H243641   4.010   7.525   7.209
14570TIP3   OH243642   4.827   7.660   6.467
14570TIP3    H143643   4.887   7.590   6.433
14570TIP3    H243644   4.860   7.671   6.559
14571TIP3   OH243645   4.877   7.707   6.736
14571TIP3    H143646   4.790   7.720   6.780
14571TIP3    H243647   4.930   7.674   6.809
14572TIP3   OH243648   4.247   7.391   8.044
14572TIP3    H143649   4.290   7.370   8.130
14572TIP3    H243650   4.178   7.321   8.040
14573TIP3   OH243651   4.650   6.201   7.838
14573TIP3    H143652   4.560   6.175   7.808
14573TIP3    H243653   4.626   6.286   7.880
14574TIP3   OH243654   5.177   6.321   8.028
14574TIP3    H143655   5.239   6.287   8.095
14574TIP3    H243656   5.090   6.304   8.070
14575TIP3   OH243657   5.105   6.890   6.492
14575TIP3    H143658   5.058   6.851   6.415
14575TIP3    H243659   5.105   6.983   6.470
14576TIP3   OH243660   4.794   6.252   6.800
14576TIP3    H143661   4.757   6.251   6.890
14576TIP3    H243662   4.750   6.172   6.765
14577TIP3   OH243663   4.577   6.720   7.845
14577TIP3    H143664   4.531   6.743   7.929
14577TIP3    H243665   4.563   6.802   7.793
14578TIP3   OH243666   4.461   6.607   7.361
14578TIP3    H143667   4.368   6.582   7.379
14578TIP3    H243668   4.473   6.567   7.272
14579TIP3   OH243669   4.951   6.695   7.089
14579TIP3    H143670   4.898   6.766   7.047
14579TIP3    H243671   5.005   6.663   7.014
14580TIP3   OH243672   5.103   6.719   7.329
14580TIP3    H143673   5.044   6.749   7.257
14580TIP3    H243674   5.139   6.639   7.286
14581TIP3   OH243675   4.393   6.749   8.053
14581TIP3    H143676   4.425   6.815   8.117
14581TIP3    H243677   4.381   6.670   8.109
14582TIP3   OH243678   4.450   6.231   6.766
14582TIP3    H143679   4.436   6.226   6.863
14582TIP3    H243680   4.370   6.280   6.739
14583TIP3   OH243681   3.986   6.275   7.638
14583TIP3    H143682   4.065   6.304   7.688
14583TIP3    H243683   4.022   6.242   7.554
14584TIP3   OH243684   3.962   6.256   7.156
14584TIP3    H143685   4.005   6.294   7.077
14584TIP3    H243686   3.899   6.327   7.177
14585TIP3   OH243687   5.091   6.963   7.747
14585TIP3    H143688   5.140   6.897   7.692
14585TIP3    H243689   5.068   6.907   7.824
14586TIP3   OH243690   4.789   6.424   7.421
14586TIP3    H143691   4.705   6.427   7.472
14586TIP3    H243692   4.855   6.434   7.492
14587TIP3   OH243693   4.222   6.487   7.429
14587TIP3    H143694   4.127   6.498   7.403
14587TIP3    H243695   4.240   6.395   7.406
14588TIP3   OH243696   4.492   6.482   7.119
14588TIP3    H143697   4.584   6.500   7.093
14588TIP3    H243698   4.441   6.505   7.038
14589TIP3   OH243699   5.277   6.505   7.620
14589TIP3    H143700   5.247   6.518   7.713
14589TIP3    H243701   5.206   6.447   7.587
14590TIP3   OH243702   4.336   6.515   6.899
14590TIP3    H143703   4.262   6.470   6.854
14590TIP3    H243704   4.386   6.550   6.822
14591TIP3   OH243705   4.387   7.302   8.272
14591TIP3    H143706   4.475   7.322   8.306
14591TIP3    H243707   4.348   7.250   8.344
14592TIP3   OH243708   4.871   6.756   7.518
14592TIP3    H143709   4.947   6.718   7.471
14592TIP3    H243710   4.878   6.715   7.607
14593TIP3   OH243711   4.399   6.242   7.401
14593TIP3    H143712   4.358   6.165   7.446
14593TIP3    H243713   4.427   6.204   7.318
14594TIP3   OH243714   4.844   6.652   7.805
14594TIP3    H143715   4.755   6.690   7.821
14594TIP3    H243716   4.902   6.711   7.857
14595TIP3   OH243717   4.587   7.044   6.906
14595TIP3    H143718   4.513   6.981   6.893
14595TIP3    H243719   4.566   7.080   6.996
14596TIP3   OH243720   5.042   6.356   6.768
14596TIP3    H143721   4.946   6.337   6.777
14596TIP3    H243722   5.049   6.451   6.793
14597TIP3   OH243723   5.110   6.605   6.871
14597TIP3    H143724   5.206   6.612   6.888
14597TIP3    H243725   5.090   6.685   6.819
14598TIP3   OH243726   4.277   7.071   7.580
14598TIP3    H143727   4.317   7.039   7.496
14598TIP3    H243728   4.313   7.008   7.644
14599TIP3   OH243729   4.731   7.196   6.727
14599TIP3    H143730   4.682   7.282   6.732
14599TIP3    H243731   4.675   7.141   6.786
14600TIP3   OH243732   4.159   6.980   8.188
14600TIP3    H143733   4.157   6.976   8.285
14600TIP3    H243734   4.080   6.927   8.165
14601TIP3   OH243735   5.544   6.682   6.708
14601TIP3    H143736   5.486   6.644   6.638
14601TIP3    H243737   5.562   6.768   6.668
14602TIP3   OH243738   5.256   7.523   6.613
14602TIP3    H143739   5.227   7.458   6.679
14602TIP3    H243740   5.266   7.471   6.532
14603TIP3   OH243741   5.195   7.169   7.421
14603TIP3    H143742   5.119   7.109   7.431
14603TIP3    H243743   5.270   7.106   7.418
14604TIP3   OH243744   4.377   7.372   7.206
14604TIP3    H143745   4.377   7.455   7.154
14604TIP3    H243746   4.282   7.355   7.214
14605TIP3   OH243747   3.943   6.676   6.911
14605TIP3    H143748   3.986   6.762   6.931
14605TIP3    H243749   3.864   6.682   6.969
14606TIP3   OH243750   4.516   7.139   7.149
14606TIP3    H143751   4.480   7.228   7.168
14606TIP3    H243752   4.478   7.088   7.224
14607TIP3   OH243753   4.298   7.609   7.059
14607TIP3    H143754   4.211   7.619   7.102
14607TIP3    H243755   4.329   7.703   7.061
14608TIP3   OH243756   5.042   7.331   7.632
14608TIP3    H143757   5.038   7.269   7.704
14608TIP3    H243758   5.102   7.286   7.569
14609TIP3   OH243759   5.008   7.230   6.514
14609TIP3    H143760   5.059   7.213   6.597
14609TIP3    H243761   4.917   7.218   6.545
14610TIP3   OH243762   5.342   7.714   6.333
14610TIP3    H143763   5.381   7.789   6.283
14610TIP3    H243764   5.261   7.760   6.365
14611TIP3   OH243765   4.368   6.490   8.202
14611TIP3    H143766   4.272   6.498   8.214
14611TIP3    H243767   4.392   6.429   8.274
14612TIP3   OH243768   5.172   7.165   6.723
14612TIP3    H143769   5.161   7.109   6.803
14612TIP3    H243770   5.269   7.170   6.718
14613TIP3   OH243771   4.112   7.592   7.857
14613TIP3    H143772   4.126   7.497   7.851
14613TIP3    H243773   4.174   7.611   7.929
14614TIP3   OH243774   4.379   7.222   6.514
14614TIP3    H143775   4.388   7.128   6.487
14614TIP3    H243776   4.358   7.213   6.609
14615TIP3   OH243777   4.324   7.229   6.784
14615TIP3    H143778   4.389   7.203   6.850
14615TIP3    H243779   4.324   7.327   6.793
14616TIP3   OH243780   4.057   6.923   6.992
14616TIP3    H143781   3.989   6.966   7.048
14616TIP3    H243782   4.068   6.992   6.924
14617TIP3   OH243783   5.216   6.554   7.881
14617TIP3    H143784   5.297   6.581   7.928
14617TIP3    H243785   5.191   6.474   7.932
14618TIP3   OH243786   5.092   6.305   7.049
14618TIP3    H143787   5.072   6.330   6.956
14618TIP3    H243788   5.128   6.389   7.085
14619TIP3   OH243789   4.588   7.426   6.734
14619TIP3    H143790   4.500   7.450   6.771
14619TIP3    H243791   4.604   7.504   6.679
14620TIP3   OH243792   4.779   6.488   7.150
14620TIP3    H143793   4.841   6.562   7.134
14620TIP3    H243794   4.780   6.481   7.248
14621TIP3   OH243795   5.027   6.798   7.956
14621TIP3    H143796   5.009   6.822   8.049
14621TIP3    H243797   5.102   6.737   7.969
14622TIP3   OH243798   4.918   6.215   7.254
14622TIP3    H143799   4.903   6.293   7.310
14622TIP3    H243800   4.980   6.251   7.186
14623TIP3   OH243801   4.332   7.500   6.805
14623TIP3    H143802   4.302   7.570   6.742
14623TIP3    H243803   4.315   7.544   6.891
14624TIP3   OH243804   4.432   6.214   7.044
14624TIP3    H143805   4.428   6.305   7.078
14624TIP3    H243806   4.528   6.198   7.050
14625TIP3   OH243807   5.329   6.903   7.313
14625TIP3    H143808   5.254   6.847   7.339
14625TIP3    H243809   5.402   6.866   7.369
14626TIP3   OH243810   4.051   7.128   6.798
14626TIP3    H143811   4.113   7.202   6.803
14626TIP3    H243812   4.095   7.074   6.729
14627TIP3   OH243813   3.994   6.406   6.929
14627TIP3    H143814   3.990   6.504   6.926
14627TIP3    H243815   3.911   6.382   6.887
14628TIP3   OH243816   4.388   6.131   7.796
14628TIP3    H143817   4.349   6.098   7.712
14628TIP3    H243818   4.373   6.055   7.857
14629TIP3   OH243819   3.918   7.350   7.182
14629TIP3    H143820   3.848   7.375   7.244
14629TIP3    H243821   3.885   7.390   7.099
14630TIP3   OH243822   4.538   7.426   6.425
14630TIP3    H143823   4.481   7.357   6.466
14630TIP3    H243824   4.613   7.372   6.397
14631TIP3   OH243825   4.976   7.465   6.339
14631TIP3    H143826   5.024   7.404   6.397
14631TIP3    H243827   5.034   7.470   6.261
14632TIP3   OH243828   4.186   6.944   6.648
14632TIP3    H143829   4.239   6.911   6.722
14632TIP3    H243830   4.254   6.948   6.577
14633TIP3   OH243831   4.701   7.145   6.457
14633TIP3    H143832   4.696   7.158   6.554
14633TIP3    H243833   4.697   7.047   6.452
14634TIP3   OH243834   4.365   7.050   8.448
14634TIP3    H143835   4.415   6.973   8.418
14634TIP3    H243836   4.317   7.014   8.523
14635TIP3   OH243837   4.395   6.848   6.872
14635TIP3    H143838   4.362   6.808   6.955
14635TIP3    H243839   4.427   6.770   6.823
14636TIP3   OH243840   4.655   6.900   8.091
14636TIP3    H143841   4.585   6.968   8.099
14636TIP3    H243842   4.717   6.943   8.028
14637TIP3   OH243843   4.492   6.641   6.711
14637TIP3    H143844   4.464   6.645   6.617
14637TIP3    H243845   4.590   6.648   6.702
14638TIP3   OH243846   4.773   6.697   8.229
14638TIP3    H143847   4.775   6.620   8.169
14638TIP3    H243848   4.731   6.765   8.172
14639TIP3   OH243849   4.787   6.485   8.028
14639TIP3    H143850   4.812   6.530   7.946
14639TIP3    H243851   4.692   6.466   8.012
14640TIP3   OH243852   4.811   7.016   7.901
14640TIP3    H143853   4.889   7.022   7.846
14640TIP3    H243854   4.752   7.085   7.863
14641TIP3   OH243855   4.643   6.824   8.443
14641TIP3    H143856   4.588   6.747   8.466
14641TIP3    H243857   4.694   6.787   8.368
14642TIP3   OH243858   4.923   6.262   8.114
14642TIP3    H143859   4.875   6.343   8.086
14642TIP3    H243860   4.859   6.193   8.092
14643TIP3   OH243861   5.044   6.756   8.244
14643TIP3    H143862   5.069   6.768   8.337
14643TIP3    H243863   4.950   6.731   8.252
14644TIP3   OH243864   4.502   6.591   8.504
14644TIP3    H143865   4.505   6.504   8.460
14644TIP3    H243866   4.534   6.568   8.592
14645TIP3   OH243867   5.006   6.250   8.385
14645TIP3    H143868   5.079   6.187   8.369
14645TIP3    H243869   4.973   6.262   8.294
14646TIP3   OH243870   4.301   7.702   6.617
14646TIP3    H143871   4.396   7.699   6.596
14646TIP3    H243872   4.269   7.753   6.540
14647TIP3   OH243873   3.782   7.085   6.833
14647TIP3    H143874   3.877   7.105   6.818
14647TIP3    H243875   3.774   6.997   6.790
14648TIP3   OH243876   3.693   7.699   7.249
14648TIP3    H143877   3.627   7.638   7.210
14648TIP3    H243878   3.737   7.640   7.313
14649TIP3   OH243879   3.828   7.547   7.435
14649TIP3    H143880   3.817   7.472   7.496
14649TIP3    H243881   3.886   7.605   7.487
14650TIP3   OH243882   5.458   7.143   6.695
14650TIP3    H143883   5.520   7.217   6.674
14650TIP3    H243884   5.498   7.109   6.778
14651TIP3   OH243885   5.578   7.024   6.910
14651TIP3    H143886   5.511   6.983   6.970
14651TIP3    H243887   5.640   7.065   6.974
14652TIP3   OH243888   5.467   6.951   6.487
14652TIP3    H143889   5.392   6.938   6.545
14652TIP3    H243890   5.516   7.015   6.542
14653TIP3   OH243891   5.379   6.618   6.487
14653TIP3    H143892   5.321   6.621   6.409
14653TIP3    H243893   5.371   6.522   6.505
14654TIP3   OH243894   5.393   6.880   7.052
14654TIP3    H143895   5.397   6.784   7.051
14654TIP3    H243896   5.374   6.898   7.147
14655TIP3   OH243897   4.017   6.956   7.804
14655TIP3    H143898   4.014   6.923   7.712
14655TIP3    H243899   4.114   6.957   7.819
14656TIP3   OH243900   5.329   6.353   6.513
14656TIP3    H143901   5.402   6.309   6.561
14656TIP3    H243902   5.254   6.291   6.524
14657TIP3   OH243903   5.387   6.598   6.952
14657TIP3    H143904   5.427   6.510   6.968
14657TIP3    H243905   5.444   6.630   6.880
14658TIP3   OH243906   5.542   6.795   7.445
14658TIP3    H143907   5.632   6.809   7.409
14658TIP3    H243908   5.557   6.824   7.536
14659TIP3   OH243909   4.231   6.634   8.466
14659TIP3    H143910   4.329   6.630   8.475
14659TIP3    H243911   4.205   6.552   8.514
14660TIP3   OH243912   5.497   6.348   6.988
14660TIP3    H143913   5.543   6.335   7.073
14660TIP3    H243914   5.433   6.274   6.989
14661TIP3   OH243915   4.198   6.334   7.807
14661TIP3    H143916   4.263   6.262   7.817
14661TIP3    H243917   4.258   6.411   7.803
14662TIP3   OH243918   3.998   6.607   7.883
14662TIP3    H143919   4.048   6.605   7.799
14662TIP3    H243920   4.025   6.693   7.919
14663TIP3   OH243921   5.578   6.280   6.625
14663TIP3    H143922   5.616   6.210   6.568
14663TIP3    H243923   5.645   6.351   6.619
14664TIP3   OH243924   3.982   6.120   7.390
14664TIP3    H143925   3.888   6.109   7.411
14664TIP3    H243926   3.978   6.173   7.307
14665TIP3   OH243927   5.146   7.789   6.876
14665TIP3    H143928   5.189   7.799   6.789
14665TIP3    H243929   5.083   7.864   6.881
14666TIP3   OH243930   4.205   6.187   8.193
14666TIP3    H143931   4.157   6.181   8.278
14666TIP3    H243932   4.138   6.232   8.138
14667TIP3   OH243933   4.446   7.640   7.814
14667TIP3    H143934   4.377   7.709   7.807
14667TIP3    H243935   4.456   7.618   7.722
14668TIP3   OH243936   5.857   6.393   7.880
14668TIP3    H143937   5.763   6.415   7.883
14668TIP3    H243938   5.854   6.299   7.865
14669TIP3   OH243939   4.339   7.834   7.651
14669TIP3    H143940   4.307   7.880   7.731
14669TIP3    H243941   4.323   7.904   7.584
14670TIP3   OH243942   4.004   7.695   7.597
14670TIP3    H143943   4.040   7.683   7.687
14670TIP3    H243944   4.078   7.657   7.544
14671TIP3   OH243945   4.198   7.574   7.448
14671TIP3    H143946   4.217   7.489   7.494
14671TIP3    H243947   4.288   7.607   7.430
14672TIP3   OH243948   4.462   7.672   7.431
14672TIP3    H143949   4.503   7.584   7.447
14672TIP3    H243950   4.453   7.710   7.520
14673TIP3   OH243951   5.051   6.332   7.540
14673TIP3    H143952   5.002   6.266   7.593
14673TIP3    H243953   5.120   6.279   7.497
14674TIP3   OH243954   5.565   6.194   7.433
14674TIP3    H143955   5.602   6.256   7.366
14674TIP3    H243956   5.472   6.224   7.437
14675TIP3   OH243957   5.663   6.306   7.203
14675TIP3    H143958   5.738   6.257   7.165
14675TIP3    H243959   5.694   6.399   7.191
14676TIP3   OH243960   4.291   6.033   7.554
14676TIP3    H143961   4.198   6.002   7.554
14676TIP3    H243962   4.337   5.947   7.547
14677TIP3   OH243963   4.098   5.905   7.212
14677TIP3    H143964   4.108   5.957   7.131
14677TIP3    H243965   4.053   5.968   7.271
14678TIP3   OH243966   4.745   6.062   7.437
14678TIP3    H143967   4.798   6.112   7.373
14678TIP3    H243968   4.743   6.123   7.511
14679TIP3   OH243969   5.284   6.213   7.420
14679TIP3    H143970   5.269   6.179   7.331
14679TIP3    H243971   5.268   6.132   7.475
14680TIP3   OH243972   5.313   6.136   6.984
14680TIP3    H143973   5.228   6.183   6.998
14680TIP3    H243974   5.294   6.051   7.028
14681TIP3   OH243975   3.795   7.476   6.979
14681TIP3    H143976   3.710   7.443   6.945
14681TIP3    H243977   3.787   7.570   6.951
14682TIP3   OH243978   4.196   6.066   6.964
14682TIP3    H143979   4.243   6.000   6.908
14682TIP3    H243980   4.271   6.116   7.002
14683TIP3   OH243981   4.709   6.239   7.063
14683TIP3    H143982   4.768   6.193   7.125
14683TIP3    H243983   4.729   6.332   7.089
14684TIP3   OH243984   4.569   7.661   6.565
14684TIP3    H143985   4.655   7.686   6.527
14684TIP3    H243986   4.546   7.586   6.505
14685TIP3   OH243987   5.292   7.797   6.648
14685TIP3    H143988   5.292   7.699   6.637
14685TIP3    H243989   5.251   7.823   6.562
14686TIP3   OH243990   4.494   6.316   8.443
14686TIP3    H143991   4.456   6.245   8.499
14686TIP3    H243992   4.588   6.309   8.468
14687TIP3   OH243993   4.750   6.295   8.539
14687TIP3    H143994   4.834   6.293   8.490
14687TIP3    H243995   4.771   6.243   8.617
14688TIP3   OH243996   3.871   7.500   6.620
14688TIP3    H143997   3.865   7.527   6.713
14688TIP3    H243998   3.960   7.460   6.614
14689TIP3   OH243999   5.751   6.808   6.863
14689TIP3    H144000   5.703   6.890   6.883
14689TIP3    H244001   5.679   6.747   6.842
14690TIP3   OH244002   5.812   7.094   7.039
14690TIP3    H144003   5.864   7.032   7.095
14690TIP3    H244004   5.868   7.102   6.962
14691TIP3   OH244005   6.295   6.705   7.063
14691TIP3    H144006   6.293   6.768   6.988
14691TIP3    H244007   6.262   6.626   7.017
14692TIP3   OH244008   5.971   6.889   7.147
14692TIP3    H144009   6.065   6.869   7.162
14692TIP3    H244010   5.955   6.831   7.071
14693TIP3   OH244011   5.648   7.323   6.602
14693TIP3    H144012   5.605   7.354   6.520
14693TIP3    H244013   5.679   7.409   6.639
14694TIP3   OH244014   6.582   6.946   6.172
14694TIP3    H144015   6.659   6.983   6.218
14694TIP3    H244016   6.623   6.906   6.096
14695TIP3   OH244017   7.284   6.323   6.246
14695TIP3    H144018   7.211   6.323   6.311
14695TIP3    H244019   7.288   6.418   6.227
14696TIP3   OH244020   6.061   7.064   6.605
14696TIP3    H144021   5.986   7.113   6.564
14696TIP3    H244022   6.016   6.989   6.646
14697TIP3   OH244023   6.865   7.138   5.937
14697TIP3    H144024   6.828   7.097   5.857
14697TIP3    H244025   6.959   7.121   5.924
14698TIP3   OH244026   6.243   6.855   6.837
14698TIP3    H144027   6.152   6.831   6.865
14698TIP3    H244028   6.247   6.812   6.749
14699TIP3   OH244029   6.254   6.493   6.249
14699TIP3    H144030   6.242   6.485   6.346
14699TIP3    H244031   6.168   6.534   6.224
14700TIP3   OH244032   5.780   6.533   7.114
14700TIP3    H144033   5.856   6.567   7.167
14700TIP3    H244034   5.824   6.493   7.038
14701TIP3   OH244035   5.757   6.506   6.648
14701TIP3    H144036   5.797   6.550   6.570
14701TIP3    H244037   5.692   6.575   6.672
14702TIP3   OH244038   6.010   6.737   6.917
14702TIP3    H144039   5.916   6.741   6.886
14702TIP3    H244040   6.038   6.646   6.898
14703TIP3   OH244041   6.283   6.732   6.597
14703TIP3    H144042   6.377   6.750   6.575
14703TIP3    H244043   6.234   6.761   6.517
14704TIP3   OH244044   6.124   6.773   6.378
14704TIP3    H144045   6.069   6.717   6.320
14704TIP3    H244046   6.182   6.814   6.310
14705TIP3   OH244047   6.189   6.506   6.887
14705TIP3    H144048   6.156   6.426   6.934
14705TIP3    H244049   6.235   6.468   6.811
14706TIP3   OH244050   6.352   7.320   6.397
14706TIP3    H144051   6.292   7.242   6.388
14706TIP3    H244052   6.332   7.351   6.487
14707TIP3   OH244053   6.165   7.472   5.985
14707TIP3    H144054   6.190   7.383   5.953
14707TIP3    H244055   6.144   7.451   6.078
14708TIP3   OH244056   6.155   7.472   6.260
14708TIP3    H144057   6.231   7.423   6.295
14708TIP3    H244058   6.193   7.559   6.239
14709TIP3   OH244059   5.855   7.189   6.481
14709TIP3    H144060   5.784   7.228   6.536
14709TIP3    H244061   5.862   7.256   6.412
14710TIP3   OH244062   6.883   6.578   6.519
14710TIP3    H144063   6.878   6.659   6.466
14710TIP3    H244064   6.960   6.602   6.576
14711TIP3   OH244065   6.570   6.745   6.628
14711TIP3    H144066   6.641   6.813   6.622
14711TIP3    H244067   6.544   6.761   6.720
14712TIP3   OH244068   6.728   6.475   6.735
14712TIP3    H144069   6.755   6.540   6.801
14712TIP3    H244070   6.776   6.511   6.656
14713TIP3   OH244071   6.225   6.468   6.525
14713TIP3    H144072   6.224   6.559   6.562
14713TIP3    H244073   6.321   6.448   6.537
14714TIP3   OH244074   5.840   7.391   6.285
14714TIP3    H144075   5.887   7.473   6.303
14714TIP3    H244076   5.898   7.349   6.218
14715TIP3   OH244077   5.765   6.674   6.423
14715TIP3    H144078   5.828   6.732   6.379
14715TIP3    H244079   5.737   6.615   6.352
14716TIP3   OH244080   6.138   6.379   7.300
14716TIP3    H144081   6.138   6.351   7.207
14716TIP3    H244082   6.159   6.295   7.346
14717TIP3   OH244083   5.702   7.581   6.657
14717TIP3    H144084   5.640   7.629   6.714
14717TIP3    H244085   5.700   7.637   6.577
14718TIP3   OH244086   6.330   7.681   5.918
14718TIP3    H144087   6.275   7.605   5.946
14718TIP3    H244088   6.412   7.635   5.892
14719TIP3   OH244089   5.978   7.199   6.130
14719TIP3    H144090   6.030   7.167   6.206
14719TIP3    H244091   6.047   7.200   6.060
14720TIP3   OH244092   6.471   7.394   5.956
14720TIP3    H144093   6.503   7.403   6.046
14720TIP3    H244094   6.477   7.297   5.942
14721TIP3   OH244095   6.195   7.101   6.366
14721TIP3    H144096   6.150   7.068   6.446
14721TIP3    H244097   6.218   7.019   6.318
14722TIP3   OH244098   6.288   6.896   6.199
14722TIP3    H144099   6.260   6.902   6.105
14722TIP3    H244100   6.384   6.909   6.191
14723TIP3   OH244101   5.574   7.352   6.326
14723TIP3    H144102   5.668   7.379   6.316
14723TIP3    H244103   5.571   7.272   6.272
14724TIP3   OH244104   7.080   6.850   6.039
14724TIP3    H144105   7.121   6.927   5.993
14724TIP3    H244106   7.122   6.776   5.993
14725TIP3   OH244107   7.123   6.561   6.007
14725TIP3    H144108   7.221   6.571   5.994
14725TIP3    H244109   7.126   6.533   6.099
14726TIP3   OH244110   5.983   6.599   7.283
14726TIP3    H144111   6.041   6.520   7.290
14726TIP3    H244112   6.032   6.666   7.330
14727TIP3   OH244113   5.799   6.886   7.382
14727TIP3    H144114   5.857   6.877   7.304
14727TIP3    H244115   5.779   6.982   7.381
14728TIP3   OH244116   7.399   6.570   6.040
14728TIP3    H144117   7.433   6.479   6.032
14728TIP3    H244118   7.466   6.614   6.093
14729TIP3   OH244119   5.777   6.361   6.875
14729TIP3    H144120   5.684   6.361   6.902
14729TIP3    H244121   5.776   6.421   6.797
14730TIP3   OH244122   6.091   6.291   7.035
14730TIP3    H144123   5.998   6.259   7.038
14730TIP3    H244124   6.139   6.205   7.032
14731TIP3   OH244125   5.883   6.160   6.694
14731TIP3    H144126   5.908   6.217   6.619
14731TIP3    H244127   5.850   6.225   6.758
14732TIP3   OH244128   6.540   6.314   6.926
14732TIP3    H144129   6.589   6.375   6.870
14732TIP3    H244130   6.520   6.367   7.004
14733TIP3   OH244131   7.075   6.366   6.447
14733TIP3    H144132   7.011   6.435   6.473
14733TIP3    H244133   7.047   6.290   6.502
14734TIP3   OH244134   5.602   7.727   6.442
14734TIP3    H144135   5.510   7.707   6.418
14734TIP3    H244136   5.599   7.824   6.446
14735TIP3   OH244137   5.993   6.318   6.453
14735TIP3    H144138   6.041   6.254   6.396
14735TIP3    H244139   6.067   6.371   6.488
14736TIP3   OH244140   6.495   6.486   6.570
14736TIP3    H144141   6.568   6.447   6.621
14736TIP3    H244142   6.521   6.580   6.574
14737TIP3   OH244143   5.662   7.735   6.107
14737TIP3    H144144   5.651   7.773   6.196
14737TIP3    H244145   5.757   7.710   6.106
14738TIP3   OH244146   2.635   8.228   6.816
14738TIP3    H144147   2.686   8.308   6.832
14738TIP3    H244148   2.689   8.183   6.747
14739TIP3   OH244149   3.371   7.635   6.953
14739TIP3    H144150   3.281   7.642   6.991
14739TIP3    H244151   3.374   7.715   6.897
14740TIP3   OH244152   2.914   8.418   6.647
14740TIP3    H144153   2.885   8.396   6.556
14740TIP3    H244154   2.988   8.478   6.629
14741TIP3   OH244155   2.607   7.832   6.956
14741TIP3    H144156   2.611   7.796   7.046
14741TIP3    H244157   2.581   7.752   6.907
14742TIP3   OH244158   2.289   7.783   6.894
14742TIP3    H144159   2.279   7.814   6.986
14742TIP3    H244160   2.208   7.819   6.854
14743TIP3   OH244161   2.880   7.899   6.918
14743TIP3    H144162   2.784   7.899   6.903
14743TIP3    H244163   2.908   7.987   6.885
14744TIP3   OH244164   2.974   8.150   6.871
14744TIP3    H144165   3.038   8.149   6.944
14744TIP3    H244166   2.961   8.244   6.856
14745TIP3   OH244167   3.387   8.242   6.836
14745TIP3    H144168   3.325   8.197   6.774
14745TIP3    H244169   3.388   8.330   6.794
14746TIP3   OH244170   2.931   7.872   7.181
14746TIP3    H144171   2.925   7.876   7.083
14746TIP3    H244172   2.980   7.953   7.200
14747TIP3   OH244173   3.151   8.542   6.525
14747TIP3    H144174   3.126   8.487   6.447
14747TIP3    H244175   3.155   8.629   6.485
14748TIP3   OH244176   3.354   8.501   6.705
14748TIP3    H144177   3.279   8.488   6.642
14748TIP3    H244178   3.363   8.597   6.700
14749TIP3   OH244179   3.221   8.165   6.638
14749TIP3    H144180   3.163   8.186   6.564
14749TIP3    H244181   3.199   8.069   6.648
14750TIP3   OH244182   3.168   7.899   6.659
14750TIP3    H144183   3.252   7.871   6.703
14750TIP3    H244184   3.110   7.823   6.675
14751TIP3   OH244185   3.250   8.149   7.064
14751TIP3    H144186   3.295   8.071   7.102
14751TIP3    H244187   3.310   8.173   6.991
14752TIP3   OH244188   3.349   7.901   7.135
14752TIP3    H144189   3.385   7.890   7.225
14752TIP3    H244190   3.288   7.824   7.129
14753TIP3   OH244191   3.419   7.846   6.770
14753TIP3    H144192   3.460   7.775   6.715
14753TIP3    H244193   3.487   7.916   6.765
14754TIP3   OH244194   3.420   7.790   7.602
14754TIP3    H144195   3.456   7.821   7.515
14754TIP3    H244196   3.325   7.775   7.578
14755TIP3   OH244197   3.509   7.873   7.360
14755TIP3    H144198   3.580   7.823   7.314
14755TIP3    H244199   3.536   7.965   7.340
14756TIP3   OH244200   3.157   7.751   7.571
14756TIP3    H144201   3.114   7.735   7.486
14756TIP3    H244202   3.118   7.679   7.626
14757TIP3   OH244203   3.159   7.694   7.132
14757TIP3    H144204   3.074   7.737   7.149
14757TIP3    H244205   3.144   7.606   7.174
14758TIP3   OH244206   2.041   7.608   7.094
14758TIP3    H144207   2.077   7.538   7.034
14758TIP3    H244208   2.097   7.596   7.171
14759TIP3   OH244209   3.600   8.325   6.991
14759TIP3    H144210   3.578   8.420   6.993
14759TIP3    H244211   3.516   8.285   6.963
14760TIP3   OH244212   4.171   8.242   7.180
14760TIP3    H144213   4.145   8.313   7.118
14760TIP3    H244214   4.125   8.166   7.138
14761TIP3   OH244215   4.865   8.298   6.802
14761TIP3    H144216   4.923   8.317   6.877
14761TIP3    H244217   4.871   8.381   6.753
14762TIP3   OH244218   4.254   8.627   7.105
14762TIP3    H144219   4.340   8.595   7.080
14762TIP3    H244220   4.195   8.556   7.069
14763TIP3   OH244221   4.042   8.348   7.397
14763TIP3    H144222   4.088   8.432   7.387
14763TIP3    H244223   4.087   8.296   7.327
14764TIP3   OH244224   4.500   7.935   7.317
14764TIP3    H144225   4.503   7.843   7.348
14764TIP3    H244226   4.432   7.973   7.378
14765TIP3   OH244227   4.447   8.691   6.583
14765TIP3    H144228   4.370   8.750   6.568
14765TIP3    H244229   4.501   8.706   6.504
14766TIP3   OH244230   4.409   8.492   6.304
14766TIP3    H144231   4.468   8.535   6.368
14766TIP3    H244232   4.472   8.432   6.259
14767TIP3   OH244233   4.050   8.773   6.932
14767TIP3    H144234   4.043   8.684   6.896
14767TIP3    H244235   4.118   8.764   7.001
14768TIP3   OH244236   4.647   8.664   6.391
14768TIP3    H144237   4.715   8.724   6.422
14768TIP3    H244238   4.661   8.669   6.293
14769TIP3   OH244239   5.148   7.887   6.432
14769TIP3    H144240   5.069   7.910   6.484
14769TIP3    H244241   5.163   7.969   6.381
14770TIP3   OH244242   3.918   8.591   6.759
14770TIP3    H144243   3.859   8.668   6.761
14770TIP3    H244244   3.860   8.519   6.784
14771TIP3   OH244245   4.284   8.030   7.466
14771TIP3    H144246   4.191   8.005   7.447
14771TIP3    H244247   4.273   8.119   7.501
14772TIP3   OH244248   4.712   8.674   6.132
14772TIP3    H144249   4.686   8.649   6.041
14772TIP3    H244250   4.769   8.751   6.115
14773TIP3   OH244251   4.426   8.068   6.435
14773TIP3    H144252   4.395   8.067   6.528
14773TIP3    H244253   4.386   7.985   6.403
14774TIP3   OH244254   4.101   8.428   6.991
14774TIP3    H144255   4.010   8.392   7.005
14774TIP3    H244256   4.118   8.389   6.903
14775TIP3   OH244257   4.582   8.502   6.721
14775TIP3    H144258   4.531   8.576   6.683
14775TIP3    H244259   4.630   8.470   6.642
14776TIP3   OH244260   4.083   8.043   6.403
14776TIP3    H144261   4.075   8.040   6.500
14776TIP3    H244262   4.004   8.095   6.380
14777TIP3   OH244263   3.633   8.105   7.268
14777TIP3    H144264   3.718   8.114   7.316
14777TIP3    H244265   3.657   8.058   7.186
14778TIP3   OH244266   3.600   8.060   6.791
14778TIP3    H144267   3.649   8.099   6.715
14778TIP3    H244268   3.541   8.135   6.812
14779TIP3   OH244269   4.424   8.261   7.059
14779TIP3    H144270   4.340   8.248   7.108
14779TIP3    H244271   4.488   8.222   7.121
14780TIP3   OH244272   3.872   8.303   7.039
14780TIP3    H144273   3.774   8.311   7.039
14780TIP3    H244274   3.884   8.207   7.033
14781TIP3   OH244275   4.131   8.296   6.754
14781TIP3    H144276   4.223   8.312   6.728
14781TIP3    H244277   4.079   8.320   6.673
14782TIP3   OH244278   3.973   8.325   6.533
14782TIP3    H144279   3.900   8.284   6.484
14782TIP3    H244280   4.024   8.364   6.460
14783TIP3   OH244281   4.036   8.052   7.037
14783TIP3    H144282   3.999   7.975   7.085
14783TIP3    H244283   4.074   8.012   6.958
14784TIP3   OH244284   4.221   8.844   6.546
14784TIP3    H144285   4.144   8.785   6.531
14784TIP3    H244286   4.199   8.883   6.632
14785TIP3   OH244287   4.677   8.166   6.400
14785TIP3    H144288   4.581   8.147   6.410
14785TIP3    H244289   4.682   8.262   6.422
14786TIP3   OH244290   4.715   8.417   6.493
14786TIP3    H144291   4.812   8.415   6.512
14786TIP3    H244292   4.707   8.502   6.443
14787TIP3   OH244293   4.326   9.016   6.360
14787TIP3    H144294   4.298   9.091   6.416
14787TIP3    H244295   4.298   8.942   6.420
14788TIP3   OH244296   5.196   8.458   6.303
14788TIP3    H144297   5.114   8.433   6.256
14788TIP3    H244298   5.207   8.546   6.259
14789TIP3   OH244299   3.582   8.488   6.543
14789TIP3    H144300   3.625   8.574   6.564
14789TIP3    H244301   3.507   8.490   6.606
14790TIP3   OH244302   4.696   8.982   6.156
14790TIP3    H144303   4.745   9.055   6.195
14790TIP3    H244304   4.606   9.022   6.147
14791TIP3   OH244305   3.993   8.990   6.200
14791TIP3    H144306   4.036   8.906   6.175
14791TIP3    H244307   4.034   9.010   6.284
14792TIP3   OH244308   3.678   8.738   6.630
14792TIP3    H144309   3.720   8.783   6.706
14792TIP3    H244310   3.693   8.803   6.559
14793TIP3   OH244311   4.718   8.106   6.677
14793TIP3    H144312   4.704   8.139   6.586
14793TIP3    H244313   4.767   8.182   6.718
14794TIP3   OH244314   4.414   8.299   6.787
14794TIP3    H144315   4.477   8.372   6.766
14794TIP3    H244316   4.415   8.301   6.885
14795TIP3   OH244317   4.556   8.031   6.889
14795TIP3    H144318   4.538   8.117   6.933
14795TIP3    H244319   4.618   8.059   6.818
14796TIP3   OH244320   4.069   8.028   6.680
14796TIP3    H144321   4.065   8.120   6.715
14796TIP3    H244322   4.166   8.013   6.688
14797TIP3   OH244323   3.695   8.956   6.443
14797TIP3    H144324   3.728   9.047   6.431
14797TIP3    H244325   3.744   8.907   6.374
14798TIP3   OH244326   3.631   8.217   6.566
14798TIP3    H144327   3.632   8.314   6.559
14798TIP3    H244328   3.548   8.193   6.525
14799TIP3   OH244329   4.026   7.933   7.439
14799TIP3    H144330   3.995   7.900   7.352
14799TIP3    H244331   4.012   7.855   7.496
14800TIP3   OH244332   3.815   8.751   6.294
14800TIP3    H144333   3.869   8.715   6.367
14800TIP3    H244334   3.885   8.758   6.225
14801TIP3   OH244335   4.261   8.922   6.100
14801TIP3    H144336   4.290   8.944   6.189
14801TIP3    H244337   4.297   8.832   6.089
14802TIP3   OH244338   4.017   8.659   6.505
14802TIP3    H144339   3.991   8.618   6.591
14802TIP3    H244340   4.058   8.583   6.459
14803TIP3   OH244341   4.131   8.455   6.350
14803TIP3    H144342   4.104   8.456   6.256
14803TIP3    H244343   4.228   8.463   6.341
14804TIP3   OH244344   4.954   8.793   6.013
14804TIP3    H144345   4.929   8.740   5.935
14804TIP3    H244346   4.935   8.883   5.981
14805TIP3   OH244347   3.430   8.874   6.490
14805TIP3    H144348   3.517   8.912   6.464
14805TIP3    H244349   3.422   8.798   6.430
14806TIP3   OH244350   5.163   8.696   6.183
14806TIP3    H144351   5.088   8.703   6.120
14806TIP3    H244352   5.218   8.770   6.152
14807TIP3   OH244353   4.985   8.421   6.137
14807TIP3    H144354   4.952   8.443   6.048
14807TIP3    H244355   4.969   8.324   6.135
14808TIP3   OH244356   4.953   8.154   6.128
14808TIP3    H144357   5.034   8.123   6.175
14808TIP3    H244358   4.885   8.089   6.155
14809TIP3   OH244359   4.974   8.405   6.566
14809TIP3    H144360   5.012   8.325   6.606
14809TIP3    H244361   5.042   8.471   6.580
14810TIP3   OH244362   5.115   8.171   6.646
14810TIP3    H144363   5.133   8.160   6.741
14810TIP3    H244364   5.053   8.096   6.633
14811TIP3   OH244365   3.855   8.145   7.432
14811TIP3    H144366   3.919   8.071   7.438
14811TIP3    H244367   3.915   8.220   7.412
14812TIP3   OH244368   5.194   8.089   6.241
14812TIP3    H144369   5.239   8.016   6.193
14812TIP3    H244370   5.262   8.158   6.239
14813TIP3   OH244371   3.619   7.937   7.032
14813TIP3    H144372   3.524   7.921   7.049
14813TIP3    H244373   3.617   7.986   6.948
14814TIP3   OH244374   4.631   8.126   7.176
14814TIP3    H144375   4.595   8.044   7.219
14814TIP3    H244376   4.698   8.089   7.115
14815TIP3   OH244377   3.929   7.845   7.194
14815TIP3    H144378   3.836   7.814   7.193
14815TIP3    H244379   3.977   7.760   7.187
14816TIP3   OH244380   3.733   7.718   6.848
14816TIP3    H144381   3.746   7.772   6.768
14816TIP3    H244382   3.692   7.781   6.909
14817TIP3   OH244383   4.373   7.879   7.071
14817TIP3    H144384   4.433   7.928   7.013
14817TIP3    H244385   4.401   7.908   7.159
14818TIP3   OH244386   4.956   7.952   6.991
14818TIP3    H144387   4.953   8.043   7.028
14818TIP3    H244388   4.913   7.902   7.064
14819TIP3   OH244389   4.947   7.951   6.619
14819TIP3    H144390   4.860   7.995   6.633
14819TIP3    H244391   4.929   7.865   6.662
14820TIP3   OH244392   3.834   7.882   6.600
14820TIP3    H144393   3.882   7.816   6.545
14820TIP3    H244394   3.908   7.933   6.639
14821TIP3   OH244395   4.346   8.051   6.700
14821TIP3    H144396   4.405   8.004   6.761
14821TIP3    H244397   4.366   8.144   6.725
14822TIP3   OH244398   5.866   8.305   5.904
14822TIP3    H144399   5.836   8.299   5.995
14822TIP3    H244400   5.784   8.337   5.859
14823TIP3   OH244401   5.395   8.283   6.264
14823TIP3    H144402   5.432   8.321   6.182
14823TIP3    H244403   5.333   8.356   6.286
14824TIP3   OH244404   5.402   8.420   6.022
14824TIP3    H144405   5.429   8.512   6.007
14824TIP3    H244406   5.330   8.409   5.958
14825TIP3   OH244407   5.354   8.122   6.478
14825TIP3    H144408   5.272   8.157   6.516
14825TIP3    H244409   5.378   8.195   6.415
14826TIP3   OH244410   5.488   7.955   6.300
14826TIP3    H144411   5.529   8.018   6.237
14826TIP3    H244412   5.442   8.015   6.362
14827TIP3   OH244413   5.636   8.104   6.127
14827TIP3    H144414   5.660   8.076   6.036
14827TIP3    H244415   5.674   8.192   6.132
   8.50000   8.01388   6.94022   0.00000   0.00000  -2.83333   0.00000  -2.83333  -4.00694
