Title
44415
    1GLY      N    1   6.382   4.596   3.761
    1GLY    HT1    2   6.477   4.554   3.761
    1GLY    HT2    3   6.386   4.695   3.793
    1GLY    HT3    4   6.347   4.593   3.663
    1GLY     CA    5   6.289   4.521   3.852
    1GLY    HA1    6   6.283   4.575   3.946
    1GLY    HA2    7   6.324   4.420   3.863
    1GLY      C    8   6.153   4.515   3.795
    1GLY      O    9   6.099   4.616   3.752
    2ASP      N   10   6.094   4.394   3.791
    2ASP     HN   11   6.141   4.310   3.819
    2ASP     CA   12   5.965   4.367   3.733
    2ASP     HA   13   5.969   4.401   3.631
    2ASP     CB   14   5.933   4.214   3.732
    2ASP    HB1   15   5.831   4.196   3.693
    2ASP    HB2   16   5.939   4.173   3.835
    2ASP     CG   17   6.029   4.135   3.645
    2ASP    OD1   18   6.134   4.190   3.603
    2ASP    OD2   19   6.002   4.014   3.620
    2ASP      C   20   5.855   4.449   3.802
    2ASP      O   21   5.865   4.486   3.919
    3SER      N   22   5.748   4.484   3.729
    3SER     HN   23   5.740   4.457   3.633
    3SER     CA   24   5.634   4.552   3.789
    3SER     HA   25   5.671   4.643   3.834
    3SER     CB   26   5.523   4.590   3.687
    3SER    HB1   27   5.430   4.622   3.738
    3SER    HB2   28   5.499   4.500   3.626
    3SER     OG   29   5.568   4.697   3.604
    3SER    HG1   30   5.520   4.688   3.520
    3SER      C   31   5.572   4.471   3.900
    3SER      O   32   5.571   4.348   3.895
    4GLY      N   33   5.522   4.537   4.006
    4GLY     HN   34   5.526   4.637   4.011
    4GLY     CA   35   5.448   4.468   4.112
    4GLY    HA1   36   5.412   4.542   4.181
    4GLY    HA2   37   5.514   4.395   4.157
    4GLY      C   38   5.327   4.393   4.060
    4GLY      O   39   5.275   4.423   3.952
    5SER      N   40   5.275   4.296   4.138
    5SER     HN   41   5.320   4.265   4.221
    5SER     CA   42   5.149   4.230   4.104
    5SER     HA   43   5.161   4.186   4.006
    5SER     CB   44   5.105   4.119   4.204
    5SER    HB1   45   5.025   4.058   4.159
    5SER    HB2   46   5.064   4.165   4.297
    5SER     OG   47   5.215   4.036   4.244
    5SER    HG1   48   5.253   3.997   4.165
    5SER      C   49   5.037   4.332   4.098
    5SER      O   50   5.037   4.431   4.171
    6GLY      N   51   4.940   4.314   4.005
    6GLY     HN   52   4.937   4.230   3.951
    6GLY     CA   53   4.824   4.403   3.995
    6GLY    HA1   54   4.761   4.366   3.915
    6GLY    HA2   55   4.861   4.503   3.977
    6GLY      C   56   4.740   4.406   4.120
    6GLY      O   57   4.757   4.321   4.207
    7PRO      N   58   4.647   4.499   4.136
    7PRO     CD   59   4.609   4.597   4.033
    7PRO    HD1   60   4.609   4.552   3.931
    7PRO    HD2   61   4.679   4.683   4.037
    7PRO     CA   62   4.545   4.488   4.239
    7PRO     HA   63   4.594   4.483   4.335
    7PRO     CB   64   4.459   4.613   4.220
    7PRO    HB1   65   4.508   4.697   4.274
    7PRO    HB2   66   4.355   4.602   4.257
    7PRO     CG   67   4.466   4.640   4.069
    7PRO    HG1   68   4.394   4.575   4.017
    7PRO    HG2   69   4.446   4.746   4.043
    7PRO      C   70   4.463   4.360   4.227
    7PRO      O   71   4.442   4.310   4.117
    8GLY      N   72   4.417   4.306   4.341
    8GLY     HN   73   4.451   4.340   4.428
    8GLY     CA   74   4.320   4.198   4.345
    8GLY    HA1   75   4.292   4.184   4.449
    8GLY    HA2   76   4.367   4.110   4.303
    8GLY      C   77   4.192   4.222   4.268
    8GLY      O   78   4.152   4.335   4.238
    9ASP      N   79   4.122   4.112   4.237
    9ASP     HN   80   4.159   4.021   4.255
    9ASP     CA   81   3.993   4.113   4.173
    9ASP     HA   82   4.006   4.168   4.081
    9ASP     CB   83   3.947   3.969   4.141
    9ASP    HB1   84   3.851   3.968   4.085
    9ASP    HB2   85   3.932   3.913   4.236
    9ASP     CG   86   4.049   3.895   4.056
    9ASP    OD1   87   4.124   3.958   3.977
    9ASP    OD2   88   4.048   3.769   4.064
    9ASP      C   89   3.888   4.184   4.260
    9ASP      O   90   3.899   4.180   4.383
   10PRO      N   91   3.787   4.252   4.206
   10PRO     CD   92   3.758   4.260   4.063
   10PRO    HD1   93   3.705   4.167   4.032
   10PRO    HD2   94   3.849   4.274   4.001
   10PRO     CA   95   3.677   4.307   4.285
   10PRO     HA   96   3.719   4.380   4.351
   10PRO     CB   97   3.581   4.369   4.181
   10PRO    HB1   98   3.543   4.468   4.215
   10PRO    HB2   99   3.495   4.303   4.160
   10PRO     CG  100   3.665   4.381   4.053
   10PRO    HG1  101   3.604   4.381   3.961
   10PRO    HG2  102   3.727   4.473   4.057
   10PRO      C  103   3.607   4.203   4.371
   10PRO      O  104   3.564   4.099   4.319
   11GLY      N  105   3.593   4.230   4.503
   11GLY     HN  106   3.630   4.314   4.540
   11GLY     CA  107   3.519   4.145   4.596
   11GLY    HA1  108   3.512   4.198   4.689
   11GLY    HA2  109   3.573   4.051   4.604
   11GLY      C  110   3.379   4.113   4.552
   11GLY      O  111   3.314   4.192   4.483
   12SER      N  112   3.326   3.997   4.595
   12SER     HN  113   3.378   3.934   4.651
   12SER     CA  114   3.194   3.948   4.557
   12SER     HA  115   3.195   3.935   4.450
   12SER     CB  116   3.160   3.814   4.626
   12SER    HB1  117   3.075   3.764   4.575
   12SER    HB2  118   3.131   3.832   4.732
   12SER     OG  119   3.273   3.727   4.630
   12SER    HG1  120   3.300   3.702   4.542
   12SER      C  121   3.083   4.046   4.593
   12SER      O  122   3.089   4.114   4.695
   13GLY      N  123   2.980   4.057   4.506
   13GLY     HN  124   2.979   4.002   4.422
   13GLY     CA  125   2.860   4.135   4.534
   13GLY    HA1  126   2.797   4.132   4.446
   13GLY    HA2  127   2.890   4.235   4.562
   13GLY      C  128   2.777   4.080   4.647
   13GLY      O  129   2.781   3.959   4.676
   14ASP      N  130   2.698   4.166   4.711
   14ASP     HN  131   2.703   4.264   4.693
   14ASP     CA  132   2.607   4.134   4.819
   14ASP     HA  133   2.666   4.090   4.898
   14ASP     CB  134   2.540   4.264   4.871
   14ASP    HB1  135   2.469   4.240   4.953
   14ASP    HB2  136   2.485   4.312   4.788
   14ASP     CG  137   2.640   4.366   4.926
   14ASP    OD1  138   2.754   4.328   4.963
   14ASP    OD2  139   2.600   4.484   4.939
   14ASP      C  140   2.498   4.031   4.780
   14ASP      O  141   2.440   4.037   4.673
   15SER      N  142   2.471   3.934   4.871
   15SER     HN  143   2.517   3.934   4.960
   15SER     CA  144   2.386   3.819   4.847
   15SER     HA  145   2.393   3.792   4.743
   15SER     CB  146   2.433   3.699   4.935
   15SER    HB1  147   2.539   3.676   4.909
   15SER    HB2  148   2.373   3.608   4.913
   15SER     OG  149   2.425   3.730   5.074
   15SER    HG1  150   2.347   3.785   5.081
   15SER      C  151   2.235   3.839   4.880
   15SER    OT1  152   2.195   3.942   4.938
   15SER    OT2  153   2.157   3.742   4.854
   16LIT    LIT  154   2.872   1.962   5.037
   17LIT    LIT  155   7.489   3.245   1.377
   18LIT    LIT  156   1.734   1.821   1.065
   19LIT    LIT  157   6.734   5.781   5.844
   20LIT    LIT  158   4.320   2.704   5.730
   21LIT    LIT  159   5.489   1.764   6.264
   22LIT    LIT  160   4.325   2.353   2.647
   23LIT    LIT  161   4.973   7.752   5.362
   24LIT    LIT  162   5.891   1.607   0.705
   25LIT    LIT  163   5.656   5.255   5.100
   26LIT    LIT  164   4.263   7.950   1.254
   27LIT    LIT  165   2.731   1.354   0.187
   28LIT    LIT  166   1.097   7.784   1.217
   29LIT    LIT  167   5.775   2.490   0.968
   30LIT    LIT  168   7.153   1.462   1.437
   31LIT    LIT  169   3.766   6.861   1.799
   32LIT    LIT  170   4.233   0.701   1.699
   33LIT    LIT  171   1.858   1.417   6.895
   34LIT    LIT  172   5.207   2.071   1.483
   35LIT    LIT  173   3.891   8.004   5.287
   36LIT    LIT  174   6.893   6.471   5.992
   37LIT    LIT  175   2.266   1.497   2.780
   38LIT    LIT  176   6.876   1.097   5.689
   39LIT    LIT  177   8.194   4.987   6.234
   40LIT    LIT  178   2.851   2.297   0.664
   41LIT    LIT  179   3.178   0.574   1.834
   42LIT    LIT  180   3.131   4.474   0.401
   43LIT    LIT  181   2.858   2.248   6.500
   44LIT    LIT  182   5.034   3.691   0.549
   45LIT    LIT  183   4.667   0.613   0.479
   46LIT    LIT  184   3.924   0.789   2.398
   47LIT    LIT  185   2.365   1.029   2.130
   48LIT    LIT  186   5.856   7.039   5.405
   49LIT    LIT  187   0.871   1.122   5.127
   50LIT    LIT  188   1.050   4.235   4.945
   51LIT    LIT  189   1.885   4.480   2.541
   52LIT    LIT  190   1.689   6.317   2.865
   53LIT    LIT  191   1.920   1.431   5.660
   54LIT    LIT  192   0.188   3.004   5.508
   55LIT    LIT  193   3.633   7.199   3.172
   56LIT    LIT  194   1.523   2.310   6.875
   57LIT    LIT  195   7.319   0.582   2.768
   58LIT    LIT  196   5.309   6.837   6.398
   59LIT    LIT  197   7.190   7.478   4.757
   60LIT    LIT  198   7.474   5.205   4.247
   61CLA    CLA  199   1.645   7.601   5.109
   62CLA    CLA  200   6.802   1.482   6.257
   63CLA    CLA  201   6.877   2.140   4.021
   64CLA    CLA  202   3.356   2.019   3.994
   65CLA    CLA  203   1.233   4.792   1.554
   66CLA    CLA  204   4.411   2.695   2.097
   67CLA    CLA  205   5.811   1.786   0.814
   68CLA    CLA  206   5.997   7.015   0.934
   69CLA    CLA  207   8.274   7.844   1.493
   70CLA    CLA  208   5.513   2.572   5.515
   71CLA    CLA  209   1.130   1.184   1.413
   72CLA    CLA  210   3.493   7.235   2.725
   73CLA    CLA  211   3.186   0.537   1.610
   74CLA    CLA  212   7.104   0.896   2.926
   75CLA    CLA  213   3.838   2.510   0.657
   76CLA    CLA  214   5.207   1.601   6.059
   77CLA    CLA  215   6.130   0.821   5.144
   78CLA    CLA  216   5.906   4.125   0.404
   79CLA    CLA  217   5.376   5.417   4.534
   80CLA    CLA  218   0.597   5.107   5.707
   81CLA    CLA  219   0.044   5.460   3.740
   82CLA    CLA  220   5.202   7.368   4.674
   83CLA    CLA  221   2.669   2.550   1.276
   84CLA    CLA  222   7.867   5.012   5.969
   85CLA    CLA  223   1.234   1.606   1.765
   86CLA    CLA  224   2.389   0.251   1.232
   87CLA    CLA  225   6.781   5.759   5.626
   88CLA    CLA  226   0.468   1.703   0.204
   89CLA    CLA  227   6.635   6.771   1.780
   90CLA    CLA  228   0.534   3.943   4.821
   91CLA    CLA  229   8.076   0.290   5.696
   92CLA    CLA  230   7.857   0.143   4.525
   93CLA    CLA  231   5.276   2.665   1.449
   94CLA    CLA  232   2.993   7.414   6.780
   95CLA    CLA  233   3.420   0.895   1.930
   96CLA    CLA  234   5.924   6.615   5.573
   97CLA    CLA  235   2.527   2.038   1.680
   98CLA    CLA  236   3.932   1.031   3.064
   99CLA    CLA  237   4.446   0.636   1.650
  100CLA    CLA  238   7.947   2.588   5.310
  101CLA    CLA  239   5.784   6.104   3.449
  102CLA    CLA  240   0.839   3.909   5.949
  103TIP3   OH2  241   3.272   0.361   2.226
  103TIP3    H1  242   3.280   0.266   2.233
  103TIP3    H2  243   3.189   0.381   2.271
  104TIP3   OH2  244   2.985   0.709   2.365
  104TIP3    H1  245   2.972   0.730   2.273
  104TIP3    H2  246   3.063   0.758   2.390
  105TIP3   OH2  247   3.284   0.056   2.231
  105TIP3    H1  248   3.189   0.057   2.224
  105TIP3    H2  249   3.313   0.005   2.156
  106TIP3   OH2  250   2.699   0.325   2.555
  106TIP3    H1  251   2.701   0.241   2.600
  106TIP3    H2  252   2.786   0.362   2.570
  107TIP3   OH2  253   3.121   0.459   1.980
  107TIP3    H1  254   3.048   0.396   1.981
  107TIP3    H2  255   3.169   0.441   2.061
  108TIP3   OH2  256   3.157   0.183   2.587
  108TIP3    H1  257   3.085   0.189   2.650
  108TIP3    H2  258   3.202   0.267   2.594
  109TIP3   OH2  259   0.364   7.848   2.404
  109TIP3    H1  260   0.412   7.766   2.409
  109TIP3    H2  261   0.410   7.900   2.338
  110TIP3   OH2  262   0.528   7.641   2.459
  110TIP3    H1  263   0.547   7.547   2.464
  110TIP3    H2  264   0.605   7.683   2.496
  111TIP3   OH2  265   2.594   0.669   2.265
  111TIP3    H1  266   2.577   0.576   2.276
  111TIP3    H2  267   2.638   0.695   2.346
  112TIP3   OH2  268   3.028   0.439   2.320
  112TIP3    H1  269   2.957   0.391   2.362
  112TIP3    H2  270   3.010   0.531   2.340
  113TIP3   OH2  271   1.509   7.849   1.475
  113TIP3    H1  272   1.518   7.841   1.570
  113TIP3    H2  273   1.492   7.759   1.445
  114TIP3   OH2  274   4.540   0.107   1.278
  114TIP3    H1  275   4.548   0.050   1.354
  114TIP3    H2  276   4.572   0.192   1.308
  115TIP3   OH2  277   4.147   0.514   1.228
  115TIP3    H1  278   4.203   0.483   1.156
  115TIP3    H2  279   4.207   0.561   1.285
  116TIP3   OH2  280   4.120   0.054   1.523
  116TIP3    H1  281   4.158   0.059   1.436
  116TIP3    H2  282   4.188   0.090   1.581
  117TIP3   OH2  283   3.946   0.003   1.775
  117TIP3    H1  284   3.867   0.044   1.810
  117TIP3    H2  285   3.974   0.061   1.704
  118TIP3   OH2  286   3.755   0.180   1.875
  118TIP3    H1  287   3.729   0.270   1.860
  118TIP3    H2  288   3.682   0.142   1.924
  119TIP3   OH2  289   4.618   0.379   1.311
  119TIP3    H1  290   4.544   0.374   1.371
  119TIP3    H2  291   4.626   0.472   1.289
  120TIP3   OH2  292   4.316   0.405   1.043
  120TIP3    H1  293   4.406   0.375   1.054
  120TIP3    H2  294   4.325   0.495   1.012
  121TIP3   OH2  295   4.814   0.318   1.705
  121TIP3    H1  296   4.810   0.252   1.635
  121TIP3    H2  297   4.783   0.399   1.664
  122TIP3   OH2  298   1.888   7.838   1.817
  122TIP3    H1  299   1.860   7.913   1.869
  122TIP3    H2  300   1.807   7.795   1.792
  123TIP3   OH2  301   3.897   0.102   1.356
  123TIP3    H1  302   3.947   0.163   1.302
  123TIP3    H2  303   3.955   0.084   1.431
  124TIP3   OH2  304   4.415   0.354   1.484
  124TIP3    H1  305   4.391   0.440   1.518
  124TIP3    H2  306   4.369   0.292   1.540
  125TIP3   OH2  307   3.974   0.268   2.017
  125TIP3    H1  308   3.927   0.337   2.063
  125TIP3    H2  309   3.905   0.215   1.977
  126TIP3   OH2  310   0.896   7.900   2.097
  126TIP3    H1  311   0.910   7.981   2.145
  126TIP3    H2  312   0.811   7.868   2.128
  127TIP3   OH2  313   4.006   0.289   1.192
  127TIP3    H1  314   4.060   0.368   1.197
  127TIP3    H2  315   3.932   0.315   1.136
  128TIP3   OH2  316   3.779   0.437   2.116
  128TIP3    H1  317   3.739   0.449   2.030
  128TIP3    H2  318   3.706   0.432   2.177
  129TIP3   OH2  319   5.056   0.632   1.733
  129TIP3    H1  320   5.064   0.537   1.747
  129TIP3    H2  321   4.979   0.657   1.784
  130TIP3   OH2  322   4.272   0.458   0.740
  130TIP3    H1  323   4.231   0.503   0.814
  130TIP3    H2  324   4.220   0.377   0.731
  131TIP3   OH2  325   2.127   7.736   1.905
  131TIP3    H1  326   2.054   7.792   1.876
  131TIP3    H2  327   2.101   7.648   1.879
  132TIP3   OH2  328   3.537   0.161   2.051
  132TIP3    H1  329   3.605   0.167   2.118
  132TIP3    H2  330   3.488   0.082   2.074
  133TIP3   OH2  331   1.995   7.504   1.872
  133TIP3    H1  332   1.929   7.496   1.941
  133TIP3    H2  333   1.944   7.518   1.792
  134TIP3   OH2  334   1.600   7.811   2.114
  134TIP3    H1  335   1.575   7.730   2.160
  134TIP3    H2  336   1.696   7.814   2.122
  135TIP3   OH2  337   1.615   7.789   1.721
  135TIP3    H1  338   1.658   7.706   1.699
  135TIP3    H2  339   1.563   7.770   1.798
  136TIP3   OH2  340   4.769   0.972   1.823
  136TIP3    H1  341   4.763   0.994   1.730
  136TIP3    H2  342   4.849   1.017   1.852
  137TIP3   OH2  343   3.730   0.120   2.246
  137TIP3    H1  344   3.810   0.137   2.295
  137TIP3    H2  345   3.662   0.111   2.314
  138TIP3   OH2  346   1.304   7.421   1.917
  138TIP3    H1  347   1.253   7.386   1.844
  138TIP3    H2  348   1.345   7.500   1.882
  139TIP3   OH2  349   4.790   0.134   1.511
  139TIP3    H1  350   4.847   0.143   1.435
  139TIP3    H2  351   4.733   0.061   1.490
  140TIP3   OH2  352   4.290   0.135   1.928
  140TIP3    H1  353   4.343   0.110   2.004
  140TIP3    H2  354   4.281   0.230   1.934
  141TIP3   OH2  355   1.366   7.929   2.171
  141TIP3    H1  356   1.318   7.907   2.091
  141TIP3    H2  357   1.456   7.902   2.154
  142TIP3   OH2  358   4.438   0.390   1.842
  142TIP3    H1  359   4.438   0.451   1.768
  142TIP3    H2  360   4.455   0.445   1.919
  143TIP3   OH2  361   5.076   0.356   1.764
  143TIP3    H1  362   4.981   0.346   1.768
  143TIP3    H2  363   5.100   0.322   1.678
  144TIP3   OH2  364   1.764   7.944   1.479
  144TIP3    H1  365   1.672   7.916   1.472
  144TIP3    H2  366   1.794   7.905   1.562
  145TIP3   OH2  367   4.345   0.136   1.659
  145TIP3    H1  368   4.316   0.135   1.750
  145TIP3    H2  369   4.440   0.119   1.664
  146TIP3   OH2  370   3.429   0.319   1.851
  146TIP3    H1  371   3.458   0.263   1.923
  146TIP3    H2  372   3.392   0.396   1.894
  147TIP3   OH2  373   1.489   7.632   1.916
  147TIP3    H1  374   1.462   7.704   1.973
  147TIP3    H2  375   1.557   7.586   1.965
  148TIP3   OH2  376   4.653   0.643   1.272
  148TIP3    H1  377   4.613   0.701   1.207
  148TIP3    H2  378   4.745   0.668   1.273
  149TIP3   OH2  379   3.377   0.641   2.261
  149TIP3    H1  380   3.460   0.594   2.267
  149TIP3    H2  381   3.311   0.573   2.251
  150TIP3   OH2  382   4.491   0.561   2.052
  150TIP3    H1  383   4.505   0.490   2.115
  150TIP3    H2  384   4.569   0.615   2.060
  151TIP3   OH2  385   3.509   0.090   2.412
  151TIP3    H1  386   3.544   0.001   2.418
  151TIP3    H2  387   3.424   0.080   2.369
  152TIP3   OH2  388   4.137   0.178   2.214
  152TIP3    H1  389   4.090   0.202   2.134
  152TIP3    H2  390   4.167   0.089   2.198
  153TIP3   OH2  391   4.599   0.174   1.802
  153TIP3    H1  392   4.674   0.222   1.769
  153TIP3    H2  393   4.533   0.241   1.821
  154TIP3   OH2  394   0.809   7.863   2.377
  154TIP3    H1  395   0.901   7.841   2.362
  154TIP3    H2  396   0.785   7.812   2.455
  155TIP3   OH2  397   1.102   7.729   2.049
  155TIP3    H1  398   1.031   7.792   2.059
  155TIP3    H2  399   1.166   7.773   1.993
  156TIP3   OH2  400   4.483   0.101   2.158
  156TIP3    H1  401   4.560   0.070   2.110
  156TIP3    H2  402   4.480   0.046   2.237
  157TIP3   OH2  403   1.260   7.528   2.159
  157TIP3    H1  404   1.270   7.474   2.080
  157TIP3    H2  405   1.214   7.606   2.128
  158TIP3   OH2  406   1.295   7.861   1.911
  158TIP3    H1  407   1.326   7.823   1.828
  158TIP3    H2  408   1.246   7.939   1.884
  159TIP3   OH2  409   1.863   7.768   2.169
  159TIP3    H1  410   1.858   7.760   2.264
  159TIP3    H2  411   1.929   7.836   2.154
  160TIP3   OH2  412   4.733   0.045   1.998
  160TIP3    H1  413   4.679   0.094   1.936
  160TIP3    H2  414   4.822   0.051   1.963
  161TIP3   OH2  415   1.123   7.682   2.411
  161TIP3    H1  416   1.062   7.633   2.466
  161TIP3    H2  417   1.193   7.620   2.393
  162TIP3   OH2  418   1.524   7.579   2.225
  162TIP3    H1  419   1.545   7.557   2.316
  162TIP3    H2  420   1.433   7.553   2.215
  163TIP3   OH2  421   4.911   0.732   1.260
  163TIP3    H1  422   4.918   0.736   1.356
  163TIP3    H2  423   4.919   0.824   1.232
  164TIP3   OH2  424   4.888   0.742   1.531
  164TIP3    H1  425   4.825   0.670   1.542
  164TIP3    H2  426   4.960   0.719   1.590
  165TIP3   OH2  427   4.951   0.438   2.072
  165TIP3    H1  428   4.881   0.445   2.137
  165TIP3    H2  429   4.998   0.521   2.079
  166TIP3   OH2  430   4.971   0.200   1.310
  166TIP3    H1  431   4.957   0.168   1.221
  166TIP3    H2  432   4.978   0.295   1.301
  167TIP3   OH2  433   4.718   0.527   1.556
  167TIP3    H1  434   4.633   0.563   1.583
  167TIP3    H2  435   4.698   0.478   1.476
  168TIP3   OH2  436   4.992   0.071   1.894
  168TIP3    H1  437   5.062   0.005   1.892
  168TIP3    H2  438   5.011   0.128   1.819
  169TIP3   OH2  439   2.351   7.887   1.917
  169TIP3    H1  440   2.285   7.818   1.909
  169TIP3    H2  441   2.434   7.839   1.926
  170TIP3   OH2  442   0.602   7.386   2.537
  170TIP3    H1  443   0.653   7.327   2.480
  170TIP3    H2  444   0.666   7.421   2.599
  171TIP3   OH2  445   4.538   0.574   1.000
  171TIP3    H1  446   4.562   0.535   0.916
  171TIP3    H2  447   4.578   0.661   0.999
  172TIP3   OH2  448   3.547   0.422   2.277
  172TIP3    H1  449   3.463   0.386   2.250
  172TIP3    H2  450   3.555   0.399   2.369
  173TIP3   OH2  451   3.682   0.450   1.852
  173TIP3    H1  452   3.591   0.431   1.830
  173TIP3    H2  453   3.693   0.543   1.831
  174TIP3   OH2  454   4.256   0.701   1.893
  174TIP3    H1  455   4.233   0.687   1.985
  174TIP3    H2  456   4.350   0.687   1.889
  175TIP3   OH2  457   3.373   0.592   1.877
  175TIP3    H1  458   3.418   0.594   1.792
  175TIP3    H2  459   3.394   0.676   1.917
  176TIP3   OH2  460   3.665   0.733   1.786
  176TIP3    H1  461   3.606   0.793   1.832
  176TIP3    H2  462   3.611   0.696   1.716
  177TIP3   OH2  463   4.099   0.612   1.597
  177TIP3    H1  464   4.106   0.528   1.551
  177TIP3    H2  465   4.020   0.653   1.559
  178TIP3   OH2  466   3.768   0.404   1.346
  178TIP3    H1  467   3.747   0.316   1.379
  178TIP3    H2  468   3.774   0.459   1.424
  179TIP3   OH2  469   4.807   0.699   1.833
  179TIP3    H1  470   4.729   0.661   1.793
  179TIP3    H2  471   4.791   0.793   1.835
  180TIP3   OH2  472   5.565   0.446   1.330
  180TIP3    H1  473   5.548   0.534   1.296
  180TIP3    H2  474   5.488   0.425   1.382
  181TIP3   OH2  475   5.770   0.538   1.492
  181TIP3    H1  476   5.706   0.598   1.530
  181TIP3    H2  477   5.720   0.488   1.428
  182TIP3   OH2  478   5.560   0.704   1.565
  182TIP3    H1  479   5.538   0.714   1.472
  182TIP3    H2  480   5.476   0.689   1.608
  183TIP3   OH2  481   5.149   0.240   1.527
  183TIP3    H1  482   5.092   0.210   1.455
  183TIP3    H2  483   5.180   0.159   1.567
  184TIP3   OH2  484   4.990   0.470   1.245
  184TIP3    H1  485   5.079   0.494   1.270
  184TIP3    H2  486   4.943   0.553   1.242
  185TIP3   OH2  487   5.931   0.707   1.327
  185TIP3    H1  488   5.937   0.792   1.371
  185TIP3    H2  489   5.890   0.650   1.391
  186TIP3   OH2  490   5.344   0.437   1.497
  186TIP3    H1  491   5.398   0.433   1.576
  186TIP3    H2  492   5.279   0.367   1.509
  187TIP3   OH2  493   6.532   1.271   1.321
  187TIP3    H1  494   6.496   1.297   1.237
  187TIP3    H2  495   6.590   1.343   1.346
  188TIP3   OH2  496   5.499   0.401   1.732
  188TIP3    H1  497   5.583   0.390   1.776
  188TIP3    H2  498   5.434   0.389   1.802
  189TIP3   OH2  499   5.236   0.040   1.693
  189TIP3    H1  500   5.302   0.084   1.746
  189TIP3    H2  501   5.215  -0.040   1.741
  190TIP3   OH2  502   5.748   0.757   1.131
  190TIP3    H1  503   5.784   0.816   1.065
  190TIP3    H2  504   5.822   0.736   1.187
  191TIP3   OH2  505   5.215   0.617   1.322
  191TIP3    H1  506   5.265   0.558   1.379
  191TIP3    H2  507   5.237   0.705   1.354
  192TIP3   OH2  508   5.207   0.951   1.724
  192TIP3    H1  509   5.287   0.964   1.776
  192TIP3    H2  510   5.204   0.857   1.707
  193TIP3   OH2  511   5.666   0.859   1.766
  193TIP3    H1  512   5.760   0.840   1.769
  193TIP3    H2  513   5.634   0.808   1.692
  194TIP3   OH2  514   6.288   0.829   1.536
  194TIP3    H1  515   6.291   0.744   1.579
  194TIP3    H2  516   6.376   0.865   1.547
  195TIP3   OH2  517   5.297   0.368   1.923
  195TIP3    H1  518   5.320   0.275   1.926
  195TIP3    H2  519   5.212   0.370   1.880
  196TIP3   OH2  520   5.924   0.442   1.693
  196TIP3    H1  521   5.872   0.473   1.619
  196TIP3    H2  522   5.969   0.365   1.660
  197TIP3   OH2  523   5.410   0.113   1.898
  197TIP3    H1  524   5.449   0.026   1.892
  197TIP3    H2  525   5.446   0.150   1.979
  198TIP3   OH2  526   4.752   0.749   0.849
  198TIP3    H1  527   4.763   0.710   0.763
  198TIP3    H2  528   4.808   0.697   0.907
  199TIP3   OH2  529   4.923   0.567   0.963
  199TIP3    H1  530   4.931   0.483   1.006
  199TIP3    H2  531   4.995   0.620   1.000
  200TIP3   OH2  532   5.326   0.683   1.718
  200TIP3    H1  533   5.235   0.653   1.718
  200TIP3    H2  534   5.361   0.653   1.802
  201TIP3   OH2  535   5.528   0.721   1.286
  201TIP3    H1  536   5.482   0.800   1.257
  201TIP3    H2  537   5.610   0.721   1.236
  202TIP3   OH2  538   5.942   0.965   1.437
  202TIP3    H1  539   5.984   0.955   1.522
  202TIP3    H2  540   6.006   1.012   1.384
  203TIP3   OH2  541   6.130   1.106   1.293
  203TIP3    H1  542   6.197   1.050   1.254
  203TIP3    H2  543   6.179   1.159   1.357
  204TIP3   OH2  544   5.203   0.954   1.326
  204TIP3    H1  545   5.110   0.968   1.307
  204TIP3    H2  546   5.223   1.018   1.394
  205TIP3   OH2  547   5.432   0.953   1.176
  205TIP3    H1  548   5.348   0.958   1.222
  205TIP3    H2  549   5.411   0.981   1.086
  206TIP3   OH2  550   5.843   0.952   0.955
  206TIP3    H1  551   5.775   0.995   0.904
  206TIP3    H2  552   5.879   1.021   1.011
  207TIP3   OH2  553   5.149   0.713   1.058
  207TIP3    H1  554   5.142   0.699   1.153
  207TIP3    H2  555   5.238   0.683   1.036
  208TIP3   OH2  556   0.818   2.287   2.507
  208TIP3    H1  557   0.820   2.287   2.411
  208TIP3    H2  558   0.906   2.316   2.533
  209TIP3   OH2  559   1.052   1.700   2.789
  209TIP3    H1  560   0.968   1.700   2.835
  209TIP3    H2  561   1.073   1.793   2.779
  210TIP3   OH2  562   2.370   1.708   1.440
  210TIP3    H1  563   2.401   1.705   1.531
  210TIP3    H2  564   2.275   1.704   1.447
  211TIP3   OH2  565   2.024   1.999   1.314
  211TIP3    H1  566   2.091   1.931   1.304
  211TIP3    H2  567   1.962   1.964   1.377
  212TIP3   OH2  568   2.997   0.938   1.729
  212TIP3    H1  569   3.004   1.026   1.765
  212TIP3    H2  570   3.072   0.930   1.670
  213TIP3   OH2  571   3.016   1.161   1.902
  213TIP3    H1  572   2.936   1.211   1.889
  213TIP3    H2  573   3.064   1.212   1.968
  214TIP3   OH2  574   2.671   1.866   1.885
  214TIP3    H1  575   2.673   1.790   1.827
  214TIP3    H2  576   2.627   1.934   1.835
  215TIP3   OH2  577   2.885   1.473   1.696
  215TIP3    H1  578   2.823   1.544   1.713
  215TIP3    H2  579   2.887   1.465   1.600
  216TIP3   OH2  580   2.561   1.371   2.004
  216TIP3    H1  581   2.556   1.457   2.045
  216TIP3    H2  582   2.475   1.358   1.963
  217TIP3   OH2  583   2.182   1.949   1.643
  217TIP3    H1  584   2.275   1.959   1.662
  217TIP3    H2  585   2.156   1.872   1.693
  218TIP3   OH2  586   1.797   1.841   2.164
  218TIP3    H1  587   1.741   1.904   2.210
  218TIP3    H2  588   1.736   1.784   2.118
  219TIP3   OH2  589   1.605   2.020   2.254
  219TIP3    H1  590   1.585   2.020   2.160
  219TIP3    H2  591   1.520   2.005   2.296
  220TIP3   OH2  592   2.908   2.198   1.882
  220TIP3    H1  593   2.915   2.104   1.894
  220TIP3    H2  594   2.830   2.223   1.932
  221TIP3   OH2  595   1.997   1.972   2.030
  221TIP3    H1  596   1.994   2.065   2.054
  221TIP3    H2  597   1.929   1.931   2.082
  222TIP3   OH2  598   2.793   1.313   2.171
  222TIP3    H1  599   2.721   1.338   2.114
  222TIP3    H2  600   2.801   1.219   2.161
  223TIP3   OH2  601   2.531   1.107   2.077
  223TIP3    H1  602   2.622   1.079   2.089
  223TIP3    H2  603   2.537   1.196   2.043
  224TIP3   OH2  604   2.275   1.317   2.331
  224TIP3    H1  605   2.250   1.243   2.386
  224TIP3    H2  606   2.370   1.325   2.342
  225TIP3   OH2  607   2.321   1.285   1.912
  225TIP3    H1  608   2.309   1.295   1.818
  225TIP3    H2  609   2.251   1.224   1.938
  226TIP3   OH2  610   2.618   2.544   1.980
  226TIP3    H1  611   2.612   2.551   1.885
  226TIP3    H2  612   2.698   2.591   2.003
  227TIP3   OH2  613   1.564   1.681   2.414
  227TIP3    H1  614   1.641   1.687   2.470
  227TIP3    H2  615   1.492   1.662   2.475
  228TIP3   OH2  616   2.682   1.648   1.733
  228TIP3    H1  617   2.711   1.684   1.649
  228TIP3    H2  618   2.615   1.584   1.709
  229TIP3   OH2  619   2.120   1.714   2.082
  229TIP3    H1  620   2.196   1.721   2.139
  229TIP3    H2  621   2.094   1.805   2.066
  230TIP3   OH2  622   2.049   1.476   2.334
  230TIP3    H1  623   1.992   1.442   2.265
  230TIP3    H2  624   2.127   1.421   2.330
  231TIP3   OH2  625   2.270   1.960   1.966
  231TIP3    H1  626   2.176   1.974   1.957
  231TIP3    H2  627   2.298   2.027   2.029
  232TIP3   OH2  628   2.934   1.922   1.910
  232TIP3    H1  629   2.839   1.912   1.919
  232TIP3    H2  630   2.954   1.884   1.824
  233TIP3   OH2  631   2.529   1.461   1.615
  233TIP3    H1  632   2.436   1.482   1.627
  233TIP3    H2  633   2.534   1.367   1.630
  234TIP3   OH2  634   1.811   1.998   1.825
  234TIP3    H1  635   1.828   2.083   1.784
  234TIP3    H2  636   1.887   1.983   1.881
  235TIP3   OH2  637   2.131   1.721   1.800
  235TIP3    H1  638   2.132   1.708   1.895
  235TIP3    H2  639   2.193   1.656   1.767
  236TIP3   OH2  640   2.418   2.264   1.858
  236TIP3    H1  641   2.437   2.176   1.823
  236TIP3    H2  642   2.419   2.321   1.782
  237TIP3   OH2  643   2.199   1.125   2.126
  237TIP3    H1  644   2.187   1.208   2.171
  237TIP3    H2  645   2.121   1.116   2.071
  238TIP3   OH2  646   2.798   1.048   2.048
  238TIP3    H1  647   2.763   1.008   1.969
  238TIP3    H2  648   2.890   1.065   2.028
  239TIP3   OH2  649   1.262   2.249   2.382
  239TIP3    H1  650   1.340   2.261   2.437
  239TIP3    H2  651   1.268   2.158   2.353
  240TIP3   OH2  652   1.720   2.160   2.458
  240TIP3    H1  653   1.815   2.155   2.448
  240TIP3    H2  654   1.684   2.113   2.383
  241TIP3   OH2  655   2.332   2.113   2.189
  241TIP3    H1  656   2.348   2.039   2.248
  241TIP3    H2  657   2.411   2.167   2.197
  242TIP3   OH2  658   1.345   1.638   2.594
  242TIP3    H1  659   1.375   1.547   2.593
  242TIP3    H2  660   1.249   1.631   2.599
  243TIP3   OH2  661   1.972   1.741   2.356
  243TIP3    H1  662   1.926   1.759   2.274
  243TIP3    H2  663   2.012   1.655   2.342
  244TIP3   OH2  664   2.436   1.746   1.968
  244TIP3    H1  665   2.514   1.791   1.935
  244TIP3    H2  666   2.366   1.811   1.958
  245TIP3   OH2  667   1.473   1.395   2.600
  245TIP3    H1  668   1.543   1.370   2.540
  245TIP3    H2  669   1.517   1.414   2.683
  246TIP3   OH2  670   2.348   1.646   2.325
  246TIP3    H1  671   2.421   1.628   2.265
  246TIP3    H2  672   2.307   1.560   2.338
  247TIP3   OH2  673   2.540   1.330   2.419
  247TIP3    H1  674   2.595   1.252   2.418
  247TIP3    H2  675   2.600   1.402   2.400
  248TIP3   OH2  676   2.571   1.608   2.151
  248TIP3    H1  677   2.517   1.659   2.091
  248TIP3    H2  678   2.661   1.622   2.120
  249TIP3   OH2  679   1.801   1.115   2.621
  249TIP3    H1  680   1.748   1.138   2.697
  249TIP3    H2  681   1.744   1.061   2.567
  250TIP3   OH2  682   2.220   1.102   2.493
  250TIP3    H1  683   2.273   1.096   2.572
  250TIP3    H2  684   2.132   1.075   2.520
  251TIP3   OH2  685   2.401   0.988   2.314
  251TIP3    H1  686   2.341   1.012   2.384
  251TIP3    H2  687   2.486   0.978   2.357
  252TIP3   OH2  688   2.649   1.001   2.455
  252TIP3    H1  689   2.675   0.909   2.466
  252TIP3    H2  690   2.649   1.036   2.544
  253TIP3   OH2  691   2.230   0.812   2.651
  253TIP3    H1  692   2.207   0.753   2.580
  253TIP3    H2  693   2.154   0.870   2.659
  254TIP3   OH2  694   2.733   2.302   1.674
  254TIP3    H1  695   2.667   2.234   1.658
  254TIP3    H2  696   2.797   2.261   1.732
  255TIP3   OH2  697   2.807   1.983   2.242
  255TIP3    H1  698   2.734   1.996   2.302
  255TIP3    H2  699   2.849   2.069   2.237
  256TIP3   OH2  700   2.779   1.712   1.494
  256TIP3    H1  701   2.850   1.691   1.434
  256TIP3    H2  702   2.762   1.805   1.479
  257TIP3   OH2  703   2.823   1.640   2.045
  257TIP3    H1  704   2.893   1.578   2.022
  257TIP3    H2  705   2.822   1.703   1.974
  258TIP3   OH2  706   3.004   1.434   2.040
  258TIP3    H1  707   2.935   1.394   2.093
  258TIP3    H2  708   3.085   1.396   2.073
  259TIP3   OH2  709   2.748   1.008   1.569
  259TIP3    H1  710   2.814   1.072   1.596
  259TIP3    H2  711   2.703   0.985   1.650
  260TIP3   OH2  712   2.777   1.284   1.855
  260TIP3    H1  713   2.693   1.311   1.893
  260TIP3    H2  714   2.804   1.358   1.802
  261TIP3   OH2  715   3.225   0.853   2.354
  261TIP3    H1  716   3.283   0.783   2.326
  261TIP3    H2  717   3.206   0.902   2.273
  262TIP3   OH2  718   3.072   1.001   2.172
  262TIP3    H1  719   3.013   1.035   2.240
  262TIP3    H2  720   3.029   0.922   2.140
  263TIP3   OH2  721   2.320   2.063   1.102
  263TIP3    H1  722   2.306   2.047   1.008
  263TIP3    H2  723   2.236   2.097   1.133
  264TIP3   OH2  724   1.369   1.963   2.395
  264TIP3    H1  725   1.363   1.872   2.364
  264TIP3    H2  726   1.365   1.956   2.491
  265TIP3   OH2  727   1.577   1.992   1.982
  265TIP3    H1  728   1.505   2.014   1.924
  265TIP3    H2  729   1.656   1.998   1.928
  266TIP3   OH2  730   1.998   2.244   2.089
  266TIP3    H1  731   2.035   2.240   2.177
  266TIP3    H2  732   2.064   2.289   2.036
  267TIP3   OH2  733   2.196   2.392   1.969
  267TIP3    H1  734   2.262   2.336   1.928
  267TIP3    H2  735   2.246   2.453   2.023
  268TIP3   OH2  736   2.960   0.758   2.096
  268TIP3    H1  737   2.876   0.725   2.065
  268TIP3    H2  738   3.021   0.743   2.024
  269TIP3   OH2  739   1.275   2.250   2.028
  269TIP3    H1  740   1.209   2.237   1.959
  269TIP3    H2  741   1.251   2.333   2.069
  270TIP3   OH2  742   1.468   2.260   1.836
  270TIP3    H1  743   1.421   2.235   1.916
  270TIP3    H2  744   1.408   2.320   1.791
  271TIP3   OH2  745   1.837   2.235   1.696
  271TIP3    H1  746   1.890   2.246   1.618
  271TIP3    H2  747   1.873   2.298   1.759
  272TIP3   OH2  748   2.146   2.222   1.694
  272TIP3    H1  749   2.150   2.131   1.667
  272TIP3    H2  750   2.237   2.253   1.686
  273TIP3   OH2  751   2.381   2.383   1.616
  273TIP3    H1  752   2.331   2.459   1.587
  273TIP3    H2  753   2.416   2.345   1.535
  274TIP3   OH2  754   2.741   0.743   2.491
  274TIP3    H1  755   2.750   0.708   2.580
  274TIP3    H2  756   2.827   0.728   2.451
  275TIP3   OH2  757   2.666   2.272   1.994
  275TIP3    H1  758   2.588   2.242   1.948
  275TIP3    H2  759   2.657   2.367   1.999
  276TIP3   OH2  760   3.925   1.635   0.918
  276TIP3    H1  761   3.981   1.712   0.925
  276TIP3    H2  762   3.929   1.610   0.826
  277TIP3   OH2  763   3.970   1.708   1.185
  277TIP3    H1  764   4.004   1.654   1.257
  277TIP3    H2  765   3.934   1.645   1.123
  278TIP3   OH2  766   3.274   1.646   1.541
  278TIP3    H1  767   3.246   1.559   1.513
  278TIP3    H2  768   3.351   1.666   1.488
  279TIP3   OH2  769   4.194   1.963   0.800
  279TIP3    H1  770   4.186   1.899   0.871
  279TIP3    H2  771   4.214   2.046   0.843
  280TIP3   OH2  772   3.229   2.003   1.258
  280TIP3    H1  773   3.142   1.971   1.282
  280TIP3    H2  774   3.289   1.935   1.289
  281TIP3   OH2  775   3.010   1.383   1.148
  281TIP3    H1  776   3.089   1.331   1.130
  281TIP3    H2  777   2.995   1.433   1.068
  282TIP3   OH2  778   3.722   1.888   1.169
  282TIP3    H1  779   3.764   1.809   1.134
  282TIP3    H2  780   3.794   1.942   1.201
  283TIP3   OH2  781   4.779   1.186   1.157
  283TIP3    H1  782   4.788   1.270   1.202
  283TIP3    H2  783   4.810   1.203   1.068
  284TIP3   OH2  784   4.182   1.369   1.183
  284TIP3    H1  785   4.195   1.277   1.207
  284TIP3    H2  786   4.114   1.367   1.116
  285TIP3   OH2  787   3.535   1.051   1.138
  285TIP3    H1  788   3.525   1.132   1.089
  285TIP3    H2  789   3.450   1.008   1.132
  286TIP3   OH2  790   4.282   1.166   0.860
  286TIP3    H1  791   4.346   1.150   0.929
  286TIP3    H2  792   4.332   1.209   0.790
  287TIP3   OH2  793   3.192   1.188   1.216
  287TIP3    H1  794   3.210   1.181   1.309
  287TIP3    H2  795   3.114   1.134   1.202
  288TIP3   OH2  796   3.620   1.465   1.092
  288TIP3    H1  797   3.674   1.414   1.153
  288TIP3    H2  798   3.531   1.433   1.106
  289TIP3   OH2  799   4.809   1.392   1.346
  289TIP3    H1  800   4.737   1.450   1.322
  289TIP3    H2  801   4.788   1.361   1.434
  290TIP3   OH2  802   3.496   1.003   1.649
  290TIP3    H1  803   3.412   0.999   1.604
  290TIP3    H2  804   3.478   0.973   1.738
  291TIP3   OH2  805   3.832   1.937   0.605
  291TIP3    H1  806   3.837   1.931   0.509
  291TIP3    H2  807   3.821   2.031   0.622
  292TIP3   OH2  808   3.619   1.815   1.417
  292TIP3    H1  809   3.543   1.868   1.439
  292TIP3    H2  810   3.651   1.852   1.334
  293TIP3   OH2  811   4.425   1.117   1.088
  293TIP3    H1  812   4.347   1.116   1.144
  293TIP3    H2  813   4.458   1.207   1.095
  294TIP3   OH2  814   3.377   0.985   1.386
  294TIP3    H1  815   3.309   1.046   1.414
  294TIP3    H2  816   3.448   1.040   1.353
  295TIP3   OH2  817   3.419   1.994   1.489
  295TIP3    H1  818   3.401   2.080   1.451
  295TIP3    H2  819   3.341   1.974   1.541
  296TIP3   OH2  820   4.243   2.201   0.939
  296TIP3    H1  821   4.165   2.186   0.993
  296TIP3    H2  822   4.229   2.287   0.901
  297TIP3   OH2  823   4.597   1.090   1.348
  297TIP3    H1  824   4.514   1.059   1.313
  297TIP3    H2  825   4.647   1.115   1.270
  298TIP3   OH2  826   3.869   0.666   1.255
  298TIP3    H1  827   3.854   0.571   1.252
  298TIP3    H2  828   3.793   0.704   1.213
  299TIP3   OH2  829   4.143   2.016   0.529
  299TIP3    H1  830   4.051   1.991   0.542
  299TIP3    H2  831   4.181   2.015   0.617
  300TIP3   OH2  832   4.466   2.097   1.305
  300TIP3    H1  833   4.451   2.021   1.248
  300TIP3    H2  834   4.444   2.172   1.250
  301TIP3   OH2  835   3.704   1.566   0.616
  301TIP3    H1  836   3.651   1.601   0.544
  301TIP3    H2  837   3.787   1.612   0.609
  302TIP3   OH2  838   4.663   1.758   1.160
  302TIP3    H1  839   4.578   1.802   1.163
  302TIP3    H2  840   4.693   1.770   1.070
  303TIP3   OH2  841   4.139   1.496   0.592
  303TIP3    H1  842   4.074   1.545   0.642
  303TIP3    H2  843   4.217   1.496   0.648
  304TIP3   OH2  844   4.356   1.611   1.478
  304TIP3    H1  845   4.353   1.694   1.526
  304TIP3    H2  846   4.273   1.608   1.430
  305TIP3   OH2  847   3.317   1.509   0.904
  305TIP3    H1  848   3.276   1.516   0.817
  305TIP3    H2  849   3.399   1.461   0.888
  306TIP3   OH2  850   3.502   2.003   1.053
  306TIP3    H1  851   3.448   1.925   1.043
  306TIP3    H2  852   3.581   1.972   1.097
  307TIP3   OH2  853   3.531   1.556   1.372
  307TIP3    H1  854   3.501   1.543   1.282
  307TIP3    H2  855   3.552   1.649   1.377
  308TIP3   OH2  856   4.035   2.175   1.106
  308TIP3    H1  857   4.001   2.259   1.139
  308TIP3    H2  858   4.009   2.111   1.173
  309TIP3   OH2  859   3.622   2.095   1.643
  309TIP3    H1  860   3.562   2.154   1.688
  309TIP3    H2  861   3.565   2.041   1.587
  310TIP3   OH2  862   3.948   1.506   0.394
  310TIP3    H1  863   4.025   1.510   0.451
  310TIP3    H2  864   3.984   1.493   0.306
  311TIP3   OH2  865   3.393   1.658   1.795
  311TIP3    H1  866   3.389   1.749   1.824
  311TIP3    H2  867   3.329   1.652   1.725
  312TIP3   OH2  868   3.774   2.198   0.638
  312TIP3    H1  869   3.795   2.290   0.656
  312TIP3    H2  870   3.699   2.179   0.694
  313TIP3   OH2  871   3.407   2.250   1.722
  313TIP3    H1  872   3.381   2.258   1.630
  313TIP3    H2  873   3.326   2.233   1.769
  314TIP3   OH2  874   7.126   6.077   6.926
  314TIP3    H1  875   7.121   6.171   6.909
  314TIP3    H2  876   7.219   6.058   6.927
  315TIP3   OH2  877   3.006   1.800   1.676
  315TIP3    H1  878   2.978   1.770   1.589
  315TIP3    H2  879   3.049   1.723   1.714
  316TIP3   OH2  880   2.956   1.992   1.269
  316TIP3    H1  881   2.979   2.060   1.333
  316TIP3    H2  882   2.882   1.945   1.309
  317TIP3   OH2  883   4.708   2.453   1.369
  317TIP3    H1  884   4.713   2.359   1.387
  317TIP3    H2  885   4.628   2.482   1.413
  318TIP3   OH2  886   3.810   2.231   1.501
  318TIP3    H1  887   3.805   2.322   1.531
  318TIP3    H2  888   3.743   2.185   1.552
  319TIP3   OH2  889   3.669   2.409   0.400
  319TIP3    H1  890   3.575   2.401   0.410
  319TIP3    H2  891   3.698   2.457   0.477
  320TIP3   OH2  892   3.749   2.342   0.130
  320TIP3    H1  893   3.824   2.285   0.118
  320TIP3    H2  894   3.744   2.356   0.224
  321TIP3   OH2  895   3.929   2.333   0.406
  321TIP3    H1  896   3.834   2.338   0.414
  321TIP3    H2  897   3.963   2.364   0.490
  322TIP3   OH2  898   4.606   1.571   1.629
  322TIP3    H1  899   4.522   1.587   1.587
  322TIP3    H2  900   4.621   1.477   1.618
  323TIP3   OH2  901   3.195   1.995   1.649
  323TIP3    H1  902   3.245   1.990   1.730
  323TIP3    H2  903   3.128   1.927   1.657
  324TIP3   OH2  904   4.156   0.888   1.689
  324TIP3    H1  905   4.191   0.937   1.763
  324TIP3    H2  906   4.061   0.889   1.701
  325TIP3   OH2  907   4.351   1.342   1.568
  325TIP3    H1  908   4.309   1.338   1.655
  325TIP3    H2  909   4.333   1.431   1.538
  326TIP3   OH2  910   4.063   1.499   0.137
  326TIP3    H1  911   3.982   1.510   0.088
  326TIP3    H2  912   4.106   1.584   0.133
  327TIP3   OH2  913   3.618   1.391   1.565
  327TIP3    H1  914   3.536   1.379   1.612
  327TIP3    H2  915   3.597   1.447   1.491
  328TIP3   OH2  916   3.422   1.225   0.961
  328TIP3    H1  917   3.373   1.148   0.932
  328TIP3    H2  918   3.480   1.245   0.887
  329TIP3   OH2  919   3.905   1.406   0.737
  329TIP3    H1  920   3.826   1.431   0.689
  329TIP3    H2  921   3.956   1.354   0.674
  330TIP3   OH2  922   4.086   1.572   1.815
  330TIP3    H1  923   4.055   1.503   1.874
  330TIP3    H2  924   4.179   1.581   1.837
  331TIP3   OH2  925   4.163   1.411   0.859
  331TIP3    H1  926   4.070   1.410   0.840
  331TIP3    H2  927   4.186   1.319   0.871
  332TIP3   OH2  928   3.370   1.368   1.673
  332TIP3    H1  929   3.347   1.444   1.727
  332TIP3    H2  930   3.338   1.293   1.723
  333TIP3   OH2  931   4.106   1.554   1.365
  333TIP3    H1  932   4.136   1.486   1.305
  333TIP3    H2  933   4.074   1.505   1.441
  334TIP3   OH2  934   3.821   1.069   1.111
  334TIP3    H1  935   3.741   1.035   1.149
  334TIP3    H2  936   3.891   1.016   1.150
  335TIP3   OH2  937   4.195   1.104   1.241
  335TIP3    H1  938   4.186   1.105   1.336
  335TIP3    H2  939   4.132   1.039   1.211
  336TIP3   OH2  940   4.409   2.800   1.465
  336TIP3    H1  941   4.410   2.811   1.370
  336TIP3    H2  942   4.488   2.845   1.496
  337TIP3   OH2  943   3.356   1.916   1.886
  337TIP3    H1  944   3.436   1.938   1.933
  337TIP3    H2  945   3.287   1.920   1.952
  338TIP3   OH2  946   3.790   1.313   1.240
  338TIP3    H1  947   3.805   1.225   1.206
  338TIP3    H2  948   3.803   1.305   1.334
  339TIP3   OH2  949   3.852   1.279   1.503
  339TIP3    H1  950   3.773   1.329   1.526
  339TIP3    H2  951   3.924   1.335   1.532
  340TIP3   OH2  952   3.422   1.633   0.491
  340TIP3    H1  953   3.388   1.546   0.513
  340TIP3    H2  954   3.427   1.679   0.575
  341TIP3   OH2  955   4.427   1.894   1.124
  341TIP3    H1  956   4.465   1.945   1.053
  341TIP3    H2  957   4.340   1.869   1.091
  342TIP3   OH2  958   3.938   1.956   1.553
  342TIP3    H1  959   3.987   1.950   1.635
  342TIP3    H2  960   3.894   2.041   1.558
  343TIP3   OH2  961   4.019   1.222   0.566
  343TIP3    H1  962   4.089   1.249   0.507
  343TIP3    H2  963   3.938   1.239   0.518
  344TIP3   OH2  964   3.176   1.620   1.168
  344TIP3    H1  965   3.174   1.686   1.099
  344TIP3    H2  966   3.236   1.552   1.136
  345TIP3   OH2  967   3.643   1.643   0.319
  345TIP3    H1  968   3.619   1.732   0.291
  345TIP3    H2  969   3.566   1.611   0.365
  346TIP3   OH2  970   3.106   1.589   1.816
  346TIP3    H1  971   3.127   1.572   1.908
  346TIP3    H2  972   3.038   1.525   1.795
  347TIP3   OH2  973   3.861   1.734   1.836
  347TIP3    H1  974   3.788   1.678   1.809
  347TIP3    H2  975   3.939   1.687   1.808
  348TIP3   OH2  976   4.079   2.236   1.424
  348TIP3    H1  977   3.984   2.228   1.434
  348TIP3    H2  978   4.107   2.283   1.502
  349TIP3   OH2  979   4.483   1.353   0.332
  349TIP3    H1  980   4.417   1.304   0.282
  349TIP3    H2  981   4.496   1.434   0.283
  350TIP3   OH2  982   4.713   2.167   1.392
  350TIP3    H1  983   4.618   2.157   1.382
  350TIP3    H2  984   4.749   2.139   1.308
  351TIP3   OH2  985   4.219   2.129   0.281
  351TIP3    H1  986   4.194   2.089   0.364
  351TIP3    H2  987   4.195   2.063   0.215
  352TIP3   OH2  988   4.186   1.784   1.020
  352TIP3    H1  989   4.124   1.763   1.089
  352TIP3    H2  990   4.242   1.706   1.013
  353TIP3   OH2  991   3.306   1.948   0.829
  353TIP3    H1  992   3.280   2.040   0.836
  353TIP3    H2  993   3.261   1.905   0.902
  354TIP3   OH2  994   3.471   1.754   0.729
  354TIP3    H1  995   3.415   1.813   0.779
  354TIP3    H2  996   3.534   1.721   0.793
  355TIP3   OH2  997   3.626   2.305   1.299
  355TIP3    H1  998   3.663   2.382   1.255
  355TIP3    H2  999   3.698   2.272   1.353
  356TIP3   OH2 1000   3.312   2.262   0.749
  356TIP3    H1 1001   3.236   2.257   0.808
  356TIP3    H2 1002   3.323   2.356   0.733
  357TIP3   OH2 1003   3.960   1.970   1.277
  357TIP3    H1 1004   3.962   1.968   1.373
  357TIP3    H2 1005   3.986   1.882   1.251
  358TIP3   OH2 1006   4.010   1.920   0.107
  358TIP3    H1 1007   4.067   1.847   0.130
  358TIP3    H2 1008   3.921   1.883   0.112
  359TIP3   OH2 1009   4.220   2.474   1.295
  359TIP3    H1 1010   4.144   2.416   1.298
  359TIP3    H2 1011   4.200   2.536   1.225
  360TIP3   OH2 1012   7.112   6.343   6.872
  360TIP3    H1 1013   7.171   6.417   6.866
  360TIP3    H2 1014   7.030   6.381   6.905
  361TIP3   OH2 1015   3.278   1.154   1.810
  361TIP3    H1 1016   3.188   1.146   1.843
  361TIP3    H2 1017   3.325   1.080   1.850
  362TIP3   OH2 1018   4.208   1.730   0.159
  362TIP3    H1 1019   4.232   1.678   0.237
  362TIP3    H2 1020   4.277   1.796   0.153
  363TIP3   OH2 1021   3.033   2.165   1.475
  363TIP3    H1 1022   3.092   2.112   1.530
  363TIP3    H2 1023   3.044   2.254   1.508
  364TIP3   OH2 1024   3.234   1.755   0.317
  364TIP3    H1 1025   3.290   1.720   0.387
  364TIP3    H2 1026   3.257   1.848   0.311
  365TIP3   OH2 1027   4.176   1.128   1.511
  365TIP3    H1 1028   4.239   1.198   1.528
  365TIP3    H2 1029   4.187   1.067   1.584
  366TIP3   OH2 1030   4.009   0.820   0.637
  366TIP3    H1 1031   3.966   0.825   0.552
  366TIP3    H2 1032   4.072   0.892   0.637
  367TIP3   OH2 1033   3.550   2.142   0.309
  367TIP3    H1 1034   3.515   2.150   0.397
  367TIP3    H2 1035   3.645   2.136   0.322
  368TIP3   OH2 1036   3.639   1.110   0.714
  368TIP3    H1 1037   3.682   1.183   0.757
  368TIP3    H2 1038   3.629   1.044   0.783
  369TIP3   OH2 1039   4.063   1.415   1.598
  369TIP3    H1 1040   4.058   1.483   1.664
  369TIP3    H2 1041   4.100   1.340   1.644
  370TIP3   OH2 1042   3.925   0.830   0.910
  370TIP3    H1 1043   3.865   0.902   0.931
  370TIP3    H2 1044   3.933   0.833   0.815
  371TIP3   OH2 1045   3.163   2.133   0.431
  371TIP3    H1 1046   3.180   2.195   0.359
  371TIP3    H2 1047   3.249   2.116   0.469
  372TIP3   OH2 1048   4.614   1.297   1.534
  372TIP3    H1 1049   4.521   1.309   1.554
  372TIP3    H2 1050   4.615   1.225   1.471
  373TIP3   OH2 1051   4.344   1.561   0.988
  373TIP3    H1 1052   4.271   1.508   0.956
  373TIP3    H2 1053   4.398   1.500   1.038
  374TIP3   OH2 1054   4.242   2.472   0.870
  374TIP3    H1 1055   4.196   2.525   0.804
  374TIP3    H2 1056   4.334   2.484   0.850
  375TIP3   OH2 1057   2.968   1.885   0.780
  375TIP3    H1 1058   2.910   1.923   0.846
  375TIP3    H2 1059   2.920   1.810   0.745
  376TIP3   OH2 1060   3.037   2.501   1.866
  376TIP3    H1 1061   3.119   2.499   1.914
  376TIP3    H2 1062   3.012   2.409   1.859
  377TIP3   OH2 1063   3.507   2.420   1.914
  377TIP3    H1 1064   3.601   2.402   1.919
  377TIP3    H2 1065   3.476   2.363   1.844
  378TIP3   OH2 1066   6.261   5.964   6.926
  378TIP3    H1 1067   6.300   5.895   6.979
  378TIP3    H2 1068   6.297   5.951   6.838
  379TIP3   OH2 1069   4.139   2.359   1.661
  379TIP3    H1 1070   4.138   2.288   1.725
  379TIP3    H2 1071   4.222   2.405   1.678
  380TIP3   OH2 1072   6.766   6.179   6.949
  380TIP3    H1 1073   6.803   6.105   6.997
  380TIP3    H2 1074   6.800   6.170   6.860
  381TIP3   OH2 1075   3.153   1.894   2.074
  381TIP3    H1 1076   3.166   1.799   2.081
  381TIP3    H2 1077   3.071   1.903   2.026
  382TIP3   OH2 1078   3.774   1.995   1.847
  382TIP3    H1 1079   3.728   2.012   1.764
  382TIP3    H2 1080   3.813   1.908   1.836
  383TIP3   OH2 1081   3.530   1.639   0.040
  383TIP3    H1 1082   3.556   1.616   0.129
  383TIP3    H2 1083   3.436   1.654   0.045
  384TIP3   OH2 1084   4.250   2.014   1.457
  384TIP3    H1 1085   4.325   2.050   1.410
  384TIP3    H2 1086   4.180   2.078   1.444
  385TIP3   OH2 1087   3.259   1.627   2.063
  385TIP3    H1 1088   3.328   1.625   1.996
  385TIP3    H2 1089   3.304   1.653   2.143
  386TIP3   OH2 1090   3.654   1.574   1.770
  386TIP3    H1 1091   3.563   1.602   1.778
  386TIP3    H2 1092   3.667   1.563   1.676
  387TIP3   OH2 1093   4.128   1.902   1.815
  387TIP3    H1 1094   4.204   1.868   1.769
  387TIP3    H2 1095   4.120   1.848   1.893
  388TIP3   OH2 1096   7.121   5.527   6.781
  388TIP3    H1 1097   7.102   5.500   6.691
  388TIP3    H2 1098   7.104   5.622   6.781
  389TIP3   OH2 1099   3.743   1.328   1.861
  389TIP3    H1 1100   3.734   1.253   1.802
  389TIP3    H2 1101   3.711   1.402   1.809
  390TIP3   OH2 1102   3.745   1.109   1.695
  390TIP3    H1 1103   3.767   1.156   1.615
  390TIP3    H2 1104   3.655   1.079   1.680
  391TIP3   OH2 1105   3.806   1.643   1.523
  391TIP3    H1 1106   3.882   1.701   1.526
  391TIP3    H2 1107   3.735   1.697   1.489
  392TIP3   OH2 1108   4.352   1.587   1.899
  392TIP3    H1 1109   4.404   1.507   1.912
  392TIP3    H2 1110   4.416   1.654   1.879
  393TIP3   OH2 1111   4.383   1.849   1.624
  393TIP3    H1 1112   4.325   1.907   1.575
  393TIP3    H2 1113   4.470   1.868   1.590
  394TIP3   OH2 1114   3.611   1.397   2.093
  394TIP3    H1 1115   3.543   1.330   2.105
  394TIP3    H2 1116   3.642   1.384   2.003
  395TIP3   OH2 1117   3.894   0.895   1.770
  395TIP3    H1 1118   3.850   0.978   1.749
  395TIP3    H2 1119   3.827   0.828   1.755
  396TIP3   OH2 1120   4.001   1.349   1.950
  396TIP3    H1 1121   3.992   1.338   2.044
  396TIP3    H2 1122   3.912   1.337   1.916
  397TIP3   OH2 1123   4.221   1.274   1.799
  397TIP3    H1 1124   4.149   1.290   1.861
  397TIP3    H2 1125   4.298   1.266   1.855
  398TIP3   OH2 1126   4.463   1.271   1.944
  398TIP3    H1 1127   4.482   1.177   1.955
  398TIP3    H2 1128   4.459   1.304   2.034
  399TIP3   OH2 1129   3.453   1.170   2.130
  399TIP3    H1 1130   3.458   1.088   2.080
  399TIP3    H2 1131   3.483   1.146   2.218
  400TIP3   OH2 1132   3.954   0.831   2.025
  400TIP3    H1 1133   4.018   0.761   2.013
  400TIP3    H2 1134   3.926   0.852   1.936
  401TIP3   OH2 1135   4.029   1.076   2.131
  401TIP3    H1 1136   3.997   1.001   2.080
  401TIP3    H2 1137   3.954   1.135   2.135
  402TIP3   OH2 1138   3.249   2.299   0.232
  402TIP3    H1 1139   3.299   2.305   0.151
  402TIP3    H2 1140   3.163   2.336   0.211
  403TIP3   OH2 1141   2.561   2.210   0.832
  403TIP3    H1 1142   2.518   2.266   0.767
  403TIP3    H2 1143   2.593   2.270   0.898
  404TIP3   OH2 1144   2.713   2.215   1.104
  404TIP3    H1 1145   2.715   2.120   1.092
  404TIP3    H2 1146   2.796   2.236   1.147
  405TIP3   OH2 1147   4.516   2.519   0.863
  405TIP3    H1 1148   4.533   2.536   0.956
  405TIP3    H2 1149   4.555   2.594   0.817
  406TIP3   OH2 1150   4.551   2.539   1.140
  406TIP3    H1 1151   4.496   2.461   1.141
  406TIP3    H2 1152   4.615   2.525   1.210
  407TIP3   OH2 1153   4.593   2.241   1.720
  407TIP3    H1 1154   4.519   2.252   1.780
  407TIP3    H2 1155   4.626   2.329   1.706
  408TIP3   OH2 1156   4.430   1.795   0.335
  408TIP3    H1 1157   4.490   1.866   0.311
  408TIP3    H2 1158   4.471   1.755   0.412
  409TIP3   OH2 1159   4.557   1.649   0.529
  409TIP3    H1 1160   4.500   1.614   0.598
  409TIP3    H2 1161   4.632   1.684   0.577
  410TIP3   OH2 1162   4.602   2.029   0.958
  410TIP3    H1 1163   4.653   1.963   0.911
  410TIP3    H2 1164   4.596   2.102   0.897
  411TIP3   OH2 1165   4.395   2.311   1.147
  411TIP3    H1 1166   4.326   2.352   1.199
  411TIP3    H2 1167   4.349   2.270   1.074
  412TIP3   OH2 1168   4.513   1.579   0.181
  412TIP3    H1 1169   4.433   1.547   0.140
  412TIP3    H2 1170   4.486   1.657   0.229
  413TIP3   OH2 1171   4.234   1.148   0.133
  413TIP3    H1 1172   4.258   1.237   0.107
  413TIP3    H2 1173   4.225   1.100   0.050
  414TIP3   OH2 1174   4.400   1.525   0.711
  414TIP3    H1 1175   4.409   1.430   0.707
  414TIP3    H2 1176   4.387   1.544   0.804
  415TIP3   OH2 1177   3.039   1.709   1.401
  415TIP3    H1 1178   3.060   1.672   1.315
  415TIP3    H2 1179   3.117   1.694   1.454
  416TIP3   OH2 1180   4.636   1.907   1.524
  416TIP3    H1 1181   4.709   1.847   1.506
  416TIP3    H2 1182   4.657   1.986   1.475
  417TIP3   OH2 1183   4.828   1.700   1.529
  417TIP3    H1 1184   4.748   1.661   1.565
  417TIP3    H2 1185   4.897   1.638   1.553
  418TIP3   OH2 1186   4.405   1.258   0.632
  418TIP3    H1 1187   4.434   1.167   0.628
  418TIP3    H2 1188   4.379   1.279   0.543
  419TIP3   OH2 1189   4.519   1.371   1.092
  419TIP3    H1 1190   4.600   1.388   1.043
  419TIP3    H2 1191   4.532   1.416   1.176
  420TIP3   OH2 1192   4.574   1.537   1.303
  420TIP3    H1 1193   4.499   1.561   1.357
  420TIP3    H2 1194   4.601   1.619   1.260
  421TIP3   OH2 1195   3.190   1.243   2.111
  421TIP3    H1 1196   3.285   1.232   2.109
  421TIP3    H2 1197   3.156   1.159   2.142
  422TIP3   OH2 1198   5.016   1.115   1.833
  422TIP3    H1 1199   5.082   1.055   1.800
  422TIP3    H2 1200   4.989   1.167   1.757
  423TIP3   OH2 1201   4.484   0.987   0.622
  423TIP3    H1 1202   4.507   0.972   0.714
  423TIP3    H2 1203   4.408   0.932   0.607
  424TIP3   OH2 1204   3.214   0.848   1.585
  424TIP3    H1 1205   3.200   0.753   1.590
  424TIP3    H2 1206   3.239   0.864   1.494
  425TIP3   OH2 1207   2.930   1.208   1.605
  425TIP3    H1 1208   2.912   1.261   1.528
  425TIP3    H2 1209   2.930   1.270   1.678
  426TIP3   OH2 1210   4.883   1.253   1.635
  426TIP3    H1 1211   4.813   1.287   1.691
  426TIP3    H2 1212   4.845   1.177   1.593
  427TIP3   OH2 1213   3.135   0.759   1.882
  427TIP3    H1 1214   3.214   0.811   1.899
  427TIP3    H2 1215   3.082   0.815   1.825
  428TIP3   OH2 1216   3.185   2.216   1.885
  428TIP3    H1 1217   3.091   2.202   1.875
  428TIP3    H2 1218   3.199   2.214   1.980
  429TIP3   OH2 1219   3.390   2.267   1.439
  429TIP3    H1 1220   3.339   2.343   1.410
  429TIP3    H2 1221   3.475   2.277   1.396
  430TIP3   OH2 1222   3.797   2.499   1.578
  430TIP3    H1 1223   3.835   2.493   1.665
  430TIP3    H2 1224   3.860   2.551   1.528
  431TIP3   OH2 1225   3.986   2.653   1.446
  431TIP3    H1 1226   4.051   2.598   1.403
  431TIP3    H2 1227   4.036   2.710   1.503
  432TIP3   OH2 1228   4.787   1.005   1.537
  432TIP3    H1 1229   4.708   1.012   1.484
  432TIP3    H2 1230   4.809   0.912   1.535
  433TIP3   OH2 1231   3.012   2.493   1.449
  433TIP3    H1 1232   2.925   2.503   1.410
  433TIP3    H2 1233   3.013   2.555   1.522
  434TIP3   OH2 1234   3.273   2.498   1.344
  434TIP3    H1 1235   3.184   2.498   1.381
  434TIP3    H2 1236   3.260   2.522   1.252
  435TIP3   OH2 1237   3.703   2.515   1.136
  435TIP3    H1 1238   3.634   2.529   1.072
  435TIP3    H2 1239   3.716   2.601   1.176
  436TIP3   OH2 1240   3.967   2.440   1.162
  436TIP3    H1 1241   3.873   2.456   1.153
  436TIP3    H2 1242   4.007   2.501   1.099
  437TIP3   OH2 1243   4.189   2.646   1.078
  437TIP3    H1 1244   4.168   2.729   1.035
  437TIP3    H2 1245   4.206   2.586   1.006
  438TIP3   OH2 1246   2.947   2.291   1.221
  438TIP3    H1 1247   2.947   2.281   1.316
  438TIP3    H2 1248   3.039   2.281   1.196
  439TIP3   OH2 1249   3.204   2.243   1.145
  439TIP3    H1 1250   3.218   2.164   1.196
  439TIP3    H2 1251   3.292   2.275   1.125
  440TIP3   OH2 1252   3.469   2.272   1.076
  440TIP3    H1 1253   3.474   2.177   1.062
  440TIP3    H2 1254   3.523   2.288   1.153
  441TIP3   OH2 1255   4.028   0.893   1.172
  441TIP3    H1 1256   4.043   0.854   1.258
  441TIP3    H2 1257   3.990   0.823   1.120
  442TIP3   OH2 1258   4.578   0.849   1.107
  442TIP3    H1 1259   4.600   0.924   1.052
  442TIP3    H2 1260   4.485   0.859   1.126
  443TIP3   OH2 1261   4.613   0.982   0.866
  443TIP3    H1 1262   4.675   0.908   0.862
  443TIP3    H2 1263   4.662   1.056   0.831
  444TIP3   OH2 1264   3.685   0.628   0.985
  444TIP3    H1 1265   3.597   0.600   0.960
  444TIP3    H2 1266   3.672   0.690   1.057
  445TIP3   OH2 1267   4.313   0.845   1.144
  445TIP3    H1 1268   4.270   0.880   1.066
  445TIP3    H2 1269   4.249   0.857   1.214
  446TIP3   OH2 1270   4.296   0.756   0.588
  446TIP3    H1 1271   4.214   0.707   0.587
  446TIP3    H2 1272   4.320   0.760   0.680
  447TIP3   OH2 1273   3.493   2.270   0.085
  447TIP3    H1 1274   3.573   2.323   0.088
  447TIP3    H2 1275   3.494   2.218   0.166
  448TIP3   OH2 1276   4.260   2.394   0.237
  448TIP3    H1 1277   4.250   2.301   0.261
  448TIP3    H2 1278   4.182   2.414   0.185
  449TIP3   OH2 1279   3.544   0.862   2.208
  449TIP3    H1 1280   3.481   0.799   2.243
  449TIP3    H2 1281   3.516   0.877   2.117
  450TIP3   OH2 1282   3.803   0.801   2.252
  450TIP3    H1 1283   3.843   0.806   2.166
  450TIP3    H2 1284   3.709   0.815   2.236
  451TIP3   OH2 1285   4.536   1.010   1.979
  451TIP3    H1 1286   4.549   0.969   2.064
  451TIP3    H2 1287   4.613   0.985   1.928
  452TIP3   OH2 1288   4.455   2.527   1.442
  452TIP3    H1 1289   4.374   2.494   1.404
  452TIP3    H2 1290   4.434   2.617   1.468
  453TIP3   OH2 1291   5.666   1.887   0.305
  453TIP3    H1 1292   5.671   1.975   0.266
  453TIP3    H2 1293   5.618   1.835   0.240
  454TIP3   OH2 1294   5.721   1.963   0.571
  454TIP3    H1 1295   5.738   1.895   0.637
  454TIP3    H2 1296   5.702   1.913   0.492
  455TIP3   OH2 1297   5.031   1.756   0.980
  455TIP3    H1 1298   5.062   1.703   1.053
  455TIP3    H2 1299   5.108   1.773   0.927
  456TIP3   OH2 1300   5.988   2.206   0.321
  456TIP3    H1 1301   5.991   2.137   0.386
  456TIP3    H2 1302   6.047   2.274   0.355
  457TIP3   OH2 1303   5.015   2.195   0.682
  457TIP3    H1 1304   4.995   2.101   0.688
  457TIP3    H2 1305   5.108   2.198   0.661
  458TIP3   OH2 1306   4.718   1.435   0.451
  458TIP3    H1 1307   4.667   1.514   0.469
  458TIP3    H2 1308   4.653   1.365   0.444
  459TIP3   OH2 1309   4.794   1.713   0.658
  459TIP3    H1 1310   4.841   1.634   0.686
  459TIP3    H2 1311   4.863   1.778   0.646
  460TIP3   OH2 1312   5.604   2.671   0.319
  460TIP3    H1 1313   5.641   2.592   0.280
  460TIP3    H2 1314   5.579   2.644   0.407
  461TIP3   OH2 1315   5.521   2.143   0.640
  461TIP3    H1 1316   5.568   2.071   0.598
  461TIP3    H2 1317   5.590   2.199   0.675
  462TIP3   OH2 1318   5.278   1.289   0.645
  462TIP3    H1 1319   5.253   1.347   0.573
  462TIP3    H2 1320   5.261   1.201   0.612
  463TIP3   OH2 1321   4.920   1.484   0.755
  463TIP3    H1 1322   4.996   1.463   0.808
  463TIP3    H2 1323   4.928   1.429   0.677
  464TIP3   OH2 1324   5.332   1.671   0.576
  464TIP3    H1 1325   5.425   1.649   0.576
  464TIP3    H2 1326   5.288   1.593   0.543
  465TIP3   OH2 1327   6.540   1.638   0.864
  465TIP3    H1 1328   6.462   1.693   0.855
  465TIP3    H2 1329   6.600   1.690   0.918
  466TIP3   OH2 1330   5.251   1.270   1.104
  466TIP3    H1 1331   5.205   1.316   1.033
  466TIP3    H2 1332   5.197   1.284   1.181
  467TIP3   OH2 1333   5.618   2.106   0.122
  467TIP3    H1 1334   5.587   2.077   0.036
  467TIP3    H2 1335   5.566   2.184   0.141
  468TIP3   OH2 1336   5.387   2.035   0.858
  468TIP3    H1 1337   5.327   2.099   0.895
  468TIP3    H2 1338   5.427   2.079   0.783
  469TIP3   OH2 1339   5.151   1.380   0.870
  469TIP3    H1 1340   5.206   1.453   0.897
  469TIP3    H2 1341   5.197   1.342   0.795
  470TIP3   OH2 1342   5.224   2.229   0.973
  470TIP3    H1 1343   5.197   2.314   0.938
  470TIP3    H2 1344   5.163   2.212   1.045
  471TIP3   OH2 1345   4.618   1.969   0.239
  471TIP3    H1 1346   4.587   1.987   0.151
  471TIP3    H2 1347   4.639   2.055   0.276
  472TIP3   OH2 1348   6.017   2.464   0.443
  472TIP3    H1 1349   5.934   2.426   0.414
  472TIP3    H2 1350   6.019   2.551   0.404
  473TIP3   OH2 1351   5.729   2.488   0.152
  473TIP3    H1 1352   5.773   2.405   0.133
  473TIP3    H2 1353   5.776   2.553   0.099
  474TIP3   OH2 1354   5.852   2.258   0.088
  474TIP3    H1 1355   5.786   2.188   0.082
  474TIP3    H2 1356   5.911   2.228   0.157
  475TIP3   OH2 1357   6.203   2.365   0.801
  475TIP3    H1 1358   6.225   2.291   0.744
  475TIP3    H2 1359   6.213   2.442   0.744
  476TIP3   OH2 1360   6.417   1.963   0.635
  476TIP3    H1 1361   6.351   2.032   0.644
  476TIP3    H2 1362   6.443   1.965   0.543
  477TIP3   OH2 1363   6.099   1.861   0.974
  477TIP3    H1 1364   6.100   1.941   1.026
  477TIP3    H2 1365   6.012   1.861   0.933
  478TIP3   OH2 1366   5.131   1.814   0.438
  478TIP3    H1 1367   5.091   1.756   0.374
  478TIP3    H2 1368   5.204   1.764   0.473
  479TIP3   OH2 1369   5.267   2.239   0.566
  479TIP3    H1 1370   5.245   2.223   0.474
  479TIP3    H2 1371   5.355   2.204   0.576
  480TIP3   OH2 1372   5.246   1.804   0.807
  480TIP3    H1 1373   5.281   1.767   0.725
  480TIP3    H2 1374   5.299   1.882   0.822
  481TIP3   OH2 1375   5.792   2.482   0.775
  481TIP3    H1 1376   5.778   2.537   0.698
  481TIP3    H2 1377   5.792   2.393   0.741
  482TIP3   OH2 1378   5.453   2.319   1.102
  482TIP3    H1 1379   5.398   2.375   1.155
  482TIP3    H2 1380   5.392   2.273   1.044
  483TIP3   OH2 1381   5.122   1.991   1.332
  483TIP3    H1 1382   5.101   2.056   1.265
  483TIP3    H2 1383   5.058   1.921   1.319
  484TIP3   OH2 1384   5.486   2.357   0.135
  484TIP3    H1 1385   5.566   2.408   0.141
  484TIP3    H2 1386   5.427   2.411   0.082
  485TIP3   OH2 1387   5.248   2.466   1.196
  485TIP3    H1 1388   5.191   2.506   1.130
  485TIP3    H2 1389   5.242   2.525   1.271
  486TIP3   OH2 1390   5.000   1.652   0.242
  486TIP3    H1 1391   4.945   1.721   0.205
  486TIP3    H2 1392   4.939   1.580   0.258
  487TIP3   OH2 1393   4.800   2.066   1.153
  487TIP3    H1 1394   4.728   2.059   1.090
  487TIP3    H2 1395   4.823   1.975   1.172
  488TIP3   OH2 1396   4.628   2.267   0.807
  488TIP3    H1 1397   4.716   2.297   0.832
  488TIP3    H2 1398   4.570   2.338   0.833
  489TIP3   OH2 1399   6.502   2.749   0.852
  489TIP3    H1 1400   6.519   2.656   0.839
  489TIP3    H2 1401   6.415   2.752   0.892
  490TIP3   OH2 1402   5.589   2.536   0.994
  490TIP3    H1 1403   5.572   2.624   1.029
  490TIP3    H2 1404   5.533   2.479   1.046
  491TIP3   OH2 1405   8.189   6.594   6.898
  491TIP3    H1 1406   8.110   6.572   6.849
  491TIP3    H2 1407   8.174   6.683   6.930
  492TIP3   OH2 1408   4.822   2.451   0.317
  492TIP3    H1 1409   4.865   2.443   0.402
  492TIP3    H2 1410   4.769   2.371   0.309
  493TIP3   OH2 1411   8.423   6.534   6.763
  493TIP3    H1 1412   8.349   6.558   6.820
  493TIP3    H2 1413   8.498   6.528   6.822
  494TIP3   OH2 1414   6.357   1.796   1.162
  494TIP3    H1 1415   6.267   1.802   1.129
  494TIP3    H2 1416   6.374   1.702   1.168
  495TIP3   OH2 1417   5.039   2.203   1.182
  495TIP3    H1 1418   5.027   2.279   1.239
  495TIP3    H2 1419   4.950   2.172   1.166
  496TIP3   OH2 1420   5.350   1.071   0.940
  496TIP3    H1 1421   5.268   1.028   0.916
  496TIP3    H2 1422   5.323   1.144   0.996
  497TIP3   OH2 1423   5.911   1.157   1.128
  497TIP3    H1 1424   5.981   1.142   1.192
  497TIP3    H2 1425   5.830   1.142   1.178
  498TIP3   OH2 1426   6.152   1.600   1.044
  498TIP3    H1 1427   6.103   1.586   1.125
  498TIP3    H2 1428   6.120   1.683   1.010
  499TIP3   OH2 1429   5.321   1.572   0.954
  499TIP3    H1 1430   5.283   1.590   1.040
  499TIP3    H2 1431   5.319   1.656   0.908
  500TIP3   OH2 1432   5.193   1.468   0.452
  500TIP3    H1 1433   5.105   1.437   0.474
  500TIP3    H2 1434   5.191   1.478   0.357
  501TIP3   OH2 1435   5.824   1.580   0.522
  501TIP3    H1 1436   5.782   1.636   0.457
  501TIP3    H2 1437   5.793   1.492   0.501
  502TIP3   OH2 1438   5.152   1.592   1.174
  502TIP3    H1 1439   5.212   1.635   1.235
  502TIP3    H2 1440   5.121   1.515   1.222
  503TIP3   OH2 1441   4.764   1.163   0.737
  503TIP3    H1 1442   4.829   1.184   0.804
  503TIP3    H2 1443   4.807   1.186   0.654
  504TIP3   OH2 1444   4.882   1.142   0.347
  504TIP3    H1 1445   4.872   1.183   0.261
  504TIP3    H2 1446   4.796   1.149   0.388
  505TIP3   OH2 1447   5.551   1.354   0.641
  505TIP3    H1 1448   5.457   1.339   0.652
  505TIP3    H2 1449   5.592   1.281   0.687
  506TIP3   OH2 1450   4.959   1.342   0.517
  506TIP3    H1 1451   4.876   1.384   0.496
  506TIP3    H2 1452   4.959   1.261   0.465
  507TIP3   OH2 1453   5.968   1.432   0.733
  507TIP3    H1 1454   5.955   1.410   0.825
  507TIP3    H2 1455   6.028   1.364   0.700
  508TIP3   OH2 1456   6.209   3.052   0.961
  508TIP3    H1 1457   6.205   3.067   0.866
  508TIP3    H2 1458   6.288   3.099   0.989
  509TIP3   OH2 1459   5.265   1.927  -0.005
  509TIP3    H1 1460   5.226   1.840  -0.010
  509TIP3    H2 1461   5.271   1.946   0.088
  510TIP3   OH2 1462   6.218   2.152   0.624
  510TIP3    H1 1463   6.251   2.196   0.546
  510TIP3    H2 1464   6.134   2.114   0.596
  511TIP3   OH2 1465   5.760   2.302   1.037
  511TIP3    H1 1466   5.810   2.250   1.099
  511TIP3    H2 1467   5.668   2.285   1.059
  512TIP3   OH2 1468   5.010   1.902   0.668
  512TIP3    H1 1469   5.047   1.885   0.581
  512TIP3    H2 1470   5.077   1.873   0.729
  513TIP3   OH2 1471   8.318   6.062   6.828
  513TIP3    H1 1472   8.279   6.137   6.783
  513TIP3    H2 1473   8.244   6.008   6.855
  514TIP3   OH2 1474   4.900   1.822   1.296
  514TIP3    H1 1475   4.889   1.780   1.382
  514TIP3    H2 1476   4.830   1.785   1.242
  515TIP3   OH2 1477   5.653   1.949   1.294
  515TIP3    H1 1478   5.610   1.889   1.234
  515TIP3    H2 1479   5.746   1.935   1.280
  516TIP3   OH2 1480   6.445   2.446   0.926
  516TIP3    H1 1481   6.349   2.441   0.930
  516TIP3    H2 1482   6.467   2.412   0.839
  517TIP3   OH2 1483   5.988   2.025   0.530
  517TIP3    H1 1484   5.894   2.012   0.541
  517TIP3    H2 1485   6.025   1.936   0.528
  518TIP3   OH2 1486   5.132   2.234   0.317
  518TIP3    H1 1487   5.133   2.311   0.260
  518TIP3    H2 1488   5.039   2.218   0.333
  519TIP3   OH2 1489   4.728   1.572   0.016
  519TIP3    H1 1490   4.767   1.659   0.025
  519TIP3    H2 1491   4.649   1.575   0.071
  520TIP3   OH2 1492   5.251   1.989   0.260
  520TIP3    H1 1493   5.222   2.080   0.273
  520TIP3    H2 1494   5.207   1.940   0.328
  521TIP3   OH2 1495   5.407   2.560   0.778
  521TIP3    H1 1496   5.443   2.626   0.719
  521TIP3    H2 1497   5.475   2.547   0.844
  522TIP3   OH2 1498   5.051   2.464   0.167
  522TIP3    H1 1499   4.964   2.466   0.208
  522TIP3    H2 1500   5.083   2.554   0.175
  523TIP3   OH2 1501   5.778   2.211   0.742
  523TIP3    H1 1502   5.789   2.182   0.832
  523TIP3    H2 1503   5.813   2.140   0.689
  524TIP3   OH2 1504   5.084   1.353   1.309
  524TIP3    H1 1505   4.990   1.368   1.321
  524TIP3    H2 1506   5.111   1.308   1.389
  525TIP3   OH2 1507   4.837   2.449   0.914
  525TIP3    H1 1508   4.923   2.411   0.928
  525TIP3    H2 1509   4.831   2.519   0.979
  526TIP3   OH2 1510   7.906   5.976   6.577
  526TIP3    H1 1511   7.980   6.017   6.531
  526TIP3    H2 1512   7.899   6.023   6.659
  527TIP3   OH2 1513   7.906   6.098   6.825
  527TIP3    H1 1514   7.979   6.053   6.867
  527TIP3    H2 1515   7.922   6.191   6.842
  528TIP3   OH2 1516   4.820   1.819   0.123
  528TIP3    H1 1517   4.752   1.858   0.178
  528TIP3    H2 1518   4.828   1.877   0.048
  529TIP3   OH2 1519   5.929   1.392   0.993
  529TIP3    H1 1520   5.969   1.452   1.057
  529TIP3    H2 1521   5.918   1.310   1.040
  530TIP3   OH2 1522   8.178   6.281   6.731
  530TIP3    H1 1523   8.102   6.312   6.780
  530TIP3    H2 1524   8.233   6.359   6.719
  531TIP3   OH2 1525   7.949   6.368   6.862
  531TIP3    H1 1526   7.921   6.435   6.800
  531TIP3    H2 1527   7.922   6.401   6.948
  532TIP3   OH2 1528   6.409   1.520   1.088
  532TIP3    H1 1529   6.314   1.525   1.076
  532TIP3    H2 1530   6.445   1.535   1.001
  533TIP3   OH2 1531   6.062   1.759   0.520
  533TIP3    H1 1532   6.017   1.693   0.466
  533TIP3    H2 1533   6.147   1.720   0.539
  534TIP3   OH2 1534   7.654   5.992   6.843
  534TIP3    H1 1535   7.732   6.046   6.839
  534TIP3    H2 1536   7.673   5.918   6.784
  535TIP3   OH2 1537   6.032   2.730   0.370
  535TIP3    H1 1538   5.990   2.772   0.296
  535TIP3    H2 1539   6.125   2.753   0.361
  536TIP3   OH2 1540   5.104   0.946   0.909
  536TIP3    H1 1541   5.070   0.901   0.832
  536TIP3    H2 1542   5.114   0.877   0.975
  537TIP3   OH2 1543   4.652   2.234   0.306
  537TIP3    H1 1544   4.603   2.271   0.379
  537TIP3    H2 1545   4.609   2.269   0.228
  538TIP3   OH2 1546   4.811   2.744   1.354
  538TIP3    H1 1547   4.881   2.749   1.419
  538TIP3    H2 1548   4.778   2.654   1.361
  539TIP3   OH2 1549   5.915   2.558   1.082
  539TIP3    H1 1550   5.915   2.514   1.167
  539TIP3    H2 1551   5.980   2.627   1.090
  540TIP3   OH2 1552   7.782   5.775   6.727
  540TIP3    H1 1553   7.847   5.748   6.792
  540TIP3    H2 1554   7.832   5.827   6.664
  541TIP3   OH2 1555   5.537   2.199   1.334
  541TIP3    H1 1556   5.513   2.230   1.247
  541TIP3    H2 1557   5.585   2.117   1.318
  542TIP3   OH2 1558   6.021   2.225   0.943
  542TIP3    H1 1559   6.092   2.268   0.895
  542TIP3    H2 1560   5.950   2.289   0.944
  543TIP3   OH2 1561   5.129   1.683  -0.012
  543TIP3    H1 1562   5.089   1.667   0.073
  543TIP3    H2 1563   5.152   1.595  -0.044
  544TIP3   OH2 1564   5.385   1.764   1.193
  544TIP3    H1 1565   5.335   1.844   1.210
  544TIP3    H2 1566   5.445   1.788   1.122
  545TIP3   OH2 1567   5.923   2.153   1.288
  545TIP3    H1 1568   6.006   2.127   1.247
  545TIP3    H2 1569   5.923   2.108   1.373
  546TIP3   OH2 1570   5.521   1.562   1.328
  546TIP3    H1 1571   5.526   1.483   1.274
  546TIP3    H2 1572   5.479   1.627   1.271
  547TIP3   OH2 1573   5.510   1.355   1.137
  547TIP3    H1 1574   5.526   1.401   1.055
  547TIP3    H2 1575   5.421   1.322   1.130
  548TIP3   OH2 1576   5.559   1.861   1.007
  548TIP3    H1 1577   5.636   1.832   0.957
  548TIP3    H2 1578   5.515   1.923   0.949
  549TIP3   OH2 1579   6.168   1.840   1.409
  549TIP3    H1 1580   6.184   1.745   1.405
  549TIP3    H2 1581   6.253   1.879   1.389
  550TIP3   OH2 1582   6.155   2.097   1.135
  550TIP3    H1 1583   6.101   2.144   1.073
  550TIP3    H2 1584   6.245   2.113   1.105
  551TIP3   OH2 1585   5.406   1.652   1.564
  551TIP3    H1 1586   5.341   1.585   1.588
  551TIP3    H2 1587   5.441   1.622   1.479
  552TIP3   OH2 1588   5.649   1.124   1.219
  552TIP3    H1 1589   5.604   1.204   1.192
  552TIP3    H2 1590   5.586   1.054   1.203
  553TIP3   OH2 1591   5.790   1.604   1.412
  553TIP3    H1 1592   5.790   1.597   1.507
  553TIP3    H2 1593   5.700   1.586   1.386
  554TIP3   OH2 1594   6.023   1.550   1.273
  554TIP3    H1 1595   5.942   1.570   1.321
  554TIP3    H2 1596   6.086   1.526   1.341
  555TIP3   OH2 1597   6.243   1.506   1.447
  555TIP3    H1 1598   6.252   1.411   1.457
  555TIP3    H2 1599   6.235   1.538   1.537
  556TIP3   OH2 1600   5.260   1.418   1.628
  556TIP3    H1 1601   5.262   1.331   1.589
  556TIP3    H2 1602   5.300   1.407   1.715
  557TIP3   OH2 1603   5.711   1.107   1.484
  557TIP3    H1 1604   5.785   1.046   1.481
  557TIP3    H2 1605   5.683   1.116   1.393
  558TIP3   OH2 1606   5.813   1.320   1.627
  558TIP3    H1 1607   5.781   1.249   1.571
  558TIP3    H2 1608   5.743   1.385   1.625
  559TIP3   OH2 1609   7.930   6.571   6.679
  559TIP3    H1 1610   7.963   6.558   6.590
  559TIP3    H2 1611   7.856   6.630   6.668
  560TIP3   OH2 1612   7.391   6.012   6.916
  560TIP3    H1 1613   7.479   6.030   6.884
  560TIP3    H2 1614   7.367   5.929   6.875
  561TIP3   OH2 1615   4.443   2.544   0.369
  561TIP3    H1 1616   4.381   2.494   0.317
  561TIP3    H2 1617   4.479   2.481   0.431
  562TIP3   OH2 1618   4.577   2.373   0.541
  562TIP3    H1 1619   4.568   2.307   0.610
  562TIP3    H2 1620   4.628   2.443   0.583
  563TIP3   OH2 1621   6.293   2.799   0.342
  563TIP3    H1 1622   6.332   2.821   0.427
  563TIP3    H2 1623   6.363   2.814   0.279
  564TIP3   OH2 1624   6.346   2.816   0.626
  564TIP3    H1 1625   6.313   2.727   0.615
  564TIP3    H2 1626   6.420   2.807   0.685
  565TIP3   OH2 1627   6.370   2.497   1.232
  565TIP3    H1 1628   6.299   2.510   1.295
  565TIP3    H2 1629   6.408   2.584   1.221
  566TIP3   OH2 1630   6.344   2.277   0.420
  566TIP3    H1 1631   6.402   2.216   0.374
  566TIP3    H2 1632   6.340   2.353   0.363
  567TIP3   OH2 1633   6.192   2.578   0.623
  567TIP3    H1 1634   6.129   2.645   0.649
  567TIP3    H2 1635   6.148   2.528   0.556
  568TIP3   OH2 1636   4.770   1.806   0.915
  568TIP3    H1 1637   4.762   1.777   0.824
  568TIP3    H2 1638   4.864   1.800   0.934
  569TIP3   OH2 1639   6.392   2.173   1.027
  569TIP3    H1 1640   6.442   2.095   1.005
  569TIP3    H2 1641   6.430   2.243   0.973
  570TIP3   OH2 1642   6.531   1.943   1.016
  570TIP3    H1 1643   6.471   1.891   1.071
  570TIP3    H2 1644   6.616   1.933   1.058
  571TIP3   OH2 1645   6.283   1.613   0.594
  571TIP3    H1 1646   6.356   1.552   0.597
  571TIP3    H2 1647   6.291   1.664   0.674
  572TIP3   OH2 1648   6.314   1.779   0.812
  572TIP3    H1 1649   6.244   1.815   0.866
  572TIP3    H2 1650   6.346   1.854   0.761
  573TIP3   OH2 1651   5.002   1.506   1.610
  573TIP3    H1 1652   5.095   1.489   1.617
  573TIP3    H2 1653   4.960   1.421   1.621
  574TIP3   OH2 1654   6.855   1.370   1.341
  574TIP3    H1 1655   6.842   1.285   1.299
  574TIP3    H2 1656   6.824   1.434   1.276
  575TIP3   OH2 1657   4.957   1.187   0.927
  575TIP3    H1 1658   5.008   1.106   0.935
  575TIP3    H2 1659   5.024   1.256   0.919
  576TIP3   OH2 1660   4.753   1.461   0.982
  576TIP3    H1 1661   4.796   1.459   0.896
  576TIP3    H2 1662   4.767   1.551   1.013
  577TIP3   OH2 1663   6.661   1.521   1.195
  577TIP3    H1 1664   6.567   1.531   1.186
  577TIP3    H2 1665   6.685   1.455   1.129
  578TIP3   OH2 1666   4.739   0.889   0.527
  578TIP3    H1 1667   4.654   0.900   0.570
  578TIP3    H2 1668   4.753   0.972   0.481
  579TIP3   OH2 1669   0.195   6.670   6.930
  579TIP3    H1 1670   0.255   6.638   6.863
  579TIP3    H2 1671   0.245   6.736   6.978
  580TIP3   OH2 1672   4.935   1.008   1.292
  580TIP3    H1 1673   4.896   1.019   1.378
  580TIP3    H2 1674   4.885   1.066   1.234
  581TIP3   OH2 1675   4.984   2.402   1.370
  581TIP3    H1 1676   4.892   2.429   1.373
  581TIP3    H2 1677   5.030   2.466   1.424
  582TIP3   OH2 1678   5.167   2.498   0.907
  582TIP3    H1 1679   5.119   2.578   0.883
  582TIP3    H2 1680   5.254   2.510   0.870
  583TIP3   OH2 1681   5.607   2.795   1.072
  583TIP3    H1 1682   5.647   2.776   1.157
  583TIP3    H2 1683   5.676   2.835   1.021
  584TIP3   OH2 1684   5.802   2.902   0.906
  584TIP3    H1 1685   5.856   2.900   0.827
  584TIP3    H2 1686   5.853   2.956   0.967
  585TIP3   OH2 1687   4.847   2.784   0.964
  585TIP3    H1 1688   4.754   2.797   0.949
  585TIP3    H2 1689   4.867   2.838   1.040
  586TIP3   OH2 1690   5.073   2.742   0.817
  586TIP3    H1 1691   4.993   2.756   0.867
  586TIP3    H2 1692   5.051   2.770   0.728
  587TIP3   OH2 1693   5.498   2.746   0.597
  587TIP3    H1 1694   5.422   2.775   0.546
  587TIP3    H2 1695   5.529   2.825   0.640
  588TIP3   OH2 1696   5.981   2.907   0.590
  588TIP3    H1 1697   5.962   2.988   0.543
  588TIP3    H2 1698   5.991   2.841   0.521
  589TIP3   OH2 1699   4.753   2.553   0.672
  589TIP3    H1 1700   4.767   2.527   0.763
  589TIP3    H2 1701   4.826   2.515   0.624
  590TIP3   OH2 1702   4.962   2.430   0.552
  590TIP3    H1 1703   4.971   2.347   0.600
  590TIP3    H2 1704   5.049   2.469   0.555
  591TIP3   OH2 1705   5.229   2.516   0.567
  591TIP3    H1 1706   5.245   2.423   0.553
  591TIP3    H2 1707   5.278   2.538   0.646
  592TIP3   OH2 1708   4.537   2.338   0.081
  592TIP3    H1 1709   4.457   2.288   0.064
  592TIP3    H2 1710   4.517   2.427   0.051
  593TIP3   OH2 1711   5.252   1.147   1.533
  593TIP3    H1 1712   5.218   1.083   1.596
  593TIP3    H2 1713   5.345   1.154   1.556
  594TIP3   OH2 1714   5.498   1.157   1.658
  594TIP3    H1 1715   5.576   1.138   1.605
  594TIP3    H2 1716   5.496   1.088   1.724
  595TIP3   OH2 1717   7.491   6.414   6.685
  595TIP3    H1 1718   7.479   6.366   6.767
  595TIP3    H2 1719   7.482   6.347   6.617
  596TIP3   OH2 1720   6.302   1.235   1.470
  596TIP3    H1 1721   6.319   1.202   1.558
  596TIP3    H2 1722   6.387   1.231   1.426
  597TIP3   OH2 1723   6.244   2.778   0.946
  597TIP3    H1 1724   6.195   2.742   1.020
  597TIP3    H2 1725   6.229   2.873   0.951
  598TIP3   OH2 1726   6.885   2.162   0.474
  598TIP3    H1 1727   6.947   2.091   0.459
  598TIP3    H2 1728   6.871   2.200   0.387
  599TIP3   OH2 1729   6.839   2.291   0.242
  599TIP3    H1 1730   6.780   2.258   0.174
  599TIP3    H2 1731   6.848   2.384   0.223
  600TIP3   OH2 1732   7.086   2.473   0.212
  600TIP3    H1 1733   7.086   2.480   0.308
  600TIP3    H2 1734   7.178   2.465   0.188
  601TIP3   OH2 1735   7.037   2.473   0.480
  601TIP3    H1 1736   7.008   2.562   0.461
  601TIP3    H2 1737   6.977   2.442   0.548
  602TIP3   OH2 1738   7.267   2.528   0.627
  602TIP3    H1 1739   7.296   2.612   0.592
  602TIP3    H2 1740   7.195   2.501   0.569
  603TIP3   OH2 1741   6.883   2.357   0.679
  603TIP3    H1 1742   6.931   2.384   0.757
  603TIP3    H2 1743   6.903   2.264   0.670
  604TIP3   OH2 1744   6.919   2.916   0.766
  604TIP3    H1 1745   6.871   2.913   0.683
  604TIP3    H2 1746   6.867   2.863   0.826
  605TIP3   OH2 1747   6.478   2.372   0.656
  605TIP3    H1 1748   6.420   2.373   0.580
  605TIP3    H2 1749   6.533   2.295   0.643
  606TIP3   OH2 1750   6.359   2.520   0.292
  606TIP3    H1 1751   6.420   2.557   0.356
  606TIP3    H2 1752   6.294   2.589   0.279
  607TIP3   OH2 1753   7.382   2.773   0.576
  607TIP3    H1 1754   7.382   2.869   0.584
  607TIP3    H2 1755   7.377   2.758   0.481
  608TIP3   OH2 1756   6.668   2.539   0.762
  608TIP3    H1 1757   6.739   2.479   0.787
  608TIP3    H2 1758   6.603   2.482   0.719
  609TIP3   OH2 1759   6.944   1.854   0.659
  609TIP3    H1 1760   6.936   1.937   0.706
  609TIP3    H2 1761   6.912   1.788   0.721
  610TIP3   OH2 1762   6.938   2.544   0.879
  610TIP3    H1 1763   7.024   2.585   0.885
  610TIP3    H2 1764   6.876   2.613   0.903
  611TIP3   OH2 1765   7.576   2.562   0.536
  611TIP3    H1 1766   7.531   2.618   0.599
  611TIP3    H2 1767   7.591   2.618   0.460
  612TIP3   OH2 1768   6.675   1.935   0.785
  612TIP3    H1 1769   6.633   1.928   0.870
  612TIP3    H2 1770   6.608   1.972   0.728
  613TIP3   OH2 1771   7.407   2.161   0.806
  613TIP3    H1 1772   7.330   2.114   0.776
  613TIP3    H2 1773   7.463   2.168   0.728
  614TIP3   OH2 1774   7.188   2.855   0.272
  614TIP3    H1 1775   7.162   2.912   0.199
  614TIP3    H2 1776   7.280   2.877   0.288
  615TIP3   OH2 1777   6.533   2.634   0.463
  615TIP3    H1 1778   6.596   2.564   0.481
  615TIP3    H2 1779   6.586   2.709   0.439
  616TIP3   OH2 1780   6.630   3.011   0.852
  616TIP3    H1 1781   6.709   3.009   0.906
  616TIP3    H2 1782   6.598   2.920   0.852
  617TIP3   OH2 1783   7.110   2.966   0.958
  617TIP3    H1 1784   7.201   2.944   0.938
  617TIP3    H2 1785   7.062   2.946   0.878
  618TIP3   OH2 1786   6.684   2.445   1.078
  618TIP3    H1 1787   6.669   2.377   1.144
  618TIP3    H2 1788   6.605   2.442   1.023
  619TIP3   OH2 1789   7.377   2.438   0.852
  619TIP3    H1 1790   7.359   2.488   0.772
  619TIP3    H2 1791   7.439   2.370   0.825
  620TIP3   OH2 1792   6.793   2.055   1.050
  620TIP3    H1 1793   6.864   1.991   1.057
  620TIP3    H2 1794   6.837   2.140   1.044
  621TIP3   OH2 1795   7.222   1.996   0.695
  621TIP3    H1 1796   7.191   2.068   0.640
  621TIP3    H2 1797   7.283   1.948   0.640
  622TIP3   OH2 1798   6.996   1.876   1.096
  622TIP3    H1 1799   7.035   1.789   1.085
  622TIP3    H2 1800   7.058   1.936   1.055
  623TIP3   OH2 1801   6.967   1.576   1.092
  623TIP3    H1 1802   7.002   1.495   1.055
  623TIP3    H2 1803   7.014   1.587   1.175
  624TIP3   OH2 1804   6.318   2.648   0.035
  624TIP3    H1 1805   6.335   2.563   0.076
  624TIP3    H2 1806   6.382   2.707   0.074
  625TIP3   OH2 1807   6.521   2.049   0.375
  625TIP3    H1 1808   6.500   2.055   0.281
  625TIP3    H2 1809   6.601   1.997   0.378
  626TIP3   OH2 1810   6.729   1.743   1.046
  626TIP3    H1 1811   6.817   1.775   1.068
  626TIP3    H2 1812   6.721   1.661   1.095
  627TIP3   OH2 1813   6.771   2.756   0.934
  627TIP3    H1 1814   6.687   2.724   0.900
  627TIP3    H2 1815   6.758   2.760   1.029
  628TIP3   OH2 1816   6.972   2.708   0.342
  628TIP3    H1 1817   6.971   2.780   0.406
  628TIP3    H2 1818   7.041   2.732   0.281
  629TIP3   OH2 1819   7.406   3.050   0.577
  629TIP3    H1 1820   7.459   3.057   0.657
  629TIP3    H2 1821   7.466   3.073   0.506
  630TIP3   OH2 1822   7.605   3.119   0.386
  630TIP3    H1 1823   7.670   3.133   0.317
  630TIP3    H2 1824   7.564   3.204   0.398
  631TIP3   OH2 1825   6.646   3.106   0.453
  631TIP3    H1 1826   6.551   3.097   0.446
  631TIP3    H2 1827   6.660   3.147   0.538
  632TIP3   OH2 1828   6.831   3.101   0.260
  632TIP3    H1 1829   6.777   3.099   0.339
  632TIP3    H2 1830   6.811   3.186   0.220
  633TIP3   OH2 1831   6.516   2.793   0.168
  633TIP3    H1 1832   6.577   2.810   0.240
  633TIP3    H2 1833   6.571   2.796   0.090
  634TIP3   OH2 1834   1.054   6.702   6.935
  634TIP3    H1 1835   0.999   6.630   6.904
  634TIP3    H2 1836   1.139   6.687   6.893
  635TIP3   OH2 1837   0.893   2.697   2.062
  635TIP3    H1 1838   0.813   2.742   2.035
  635TIP3    H2 1839   0.932   2.755   2.127
  636TIP3   OH2 1840   0.306   3.524   1.648
  636TIP3    H1 1841   0.224   3.478   1.630
  636TIP3    H2 1842   0.298   3.607   1.601
  637TIP3   OH2 1843   0.524   3.390   1.989
  637TIP3    H1 1844   0.523   3.323   1.919
  637TIP3    H2 1845   0.507   3.472   1.943
  638TIP3   OH2 1846   0.720   3.026   1.826
  638TIP3    H1 1847   0.650   3.091   1.819
  638TIP3    H2 1848   0.722   2.984   1.740
  639TIP3   OH2 1849   0.437   2.921   2.143
  639TIP3    H1 1850   0.418   3.001   2.191
  639TIP3    H2 1851   0.352   2.886   2.118
  640TIP3   OH2 1852   0.754   3.767   2.037
  640TIP3    H1 1853   0.761   3.673   2.048
  640TIP3    H2 1854   0.670   3.790   2.078
  641TIP3   OH2 1855   8.355   3.502   2.159
  641TIP3    H1 1856   8.367   3.596   2.173
  641TIP3    H2 1857   8.262   3.487   2.179
  642TIP3   OH2 1858   0.643   2.876   2.327
  642TIP3    H1 1859   0.570   2.894   2.267
  642TIP3    H2 1860   0.652   2.781   2.326
  643TIP3   OH2 1861   0.108   2.846   2.519
  643TIP3    H1 1862   0.096   2.752   2.528
  643TIP3    H2 1863   0.203   2.859   2.525
  644TIP3   OH2 1864   0.464   4.094   2.125
  644TIP3    H1 1865   0.457   4.114   2.032
  644TIP3    H2 1866   0.542   4.142   2.154
  645TIP3   OH2 1867   0.508   3.204   1.787
  645TIP3    H1 1868   0.530   3.254   1.709
  645TIP3    H2 1869   0.420   3.169   1.769
  646TIP3   OH2 1870   8.480   3.263   2.215
  646TIP3    H1 1871   8.575   3.278   2.210
  646TIP3    H2 1872   8.442   3.344   2.184
  647TIP3   OH2 1873   0.129   3.538   2.081
  647TIP3    H1 1874   0.033   3.530   2.080
  647TIP3    H2 1875   0.148   3.586   2.162
  648TIP3   OH2 1876   0.769   3.492   2.069
  648TIP3    H1 1877   0.676   3.471   2.080
  648TIP3    H2 1878   0.794   3.450   1.987
  649TIP3   OH2 1879   0.266   3.781   1.966
  649TIP3    H1 1880   0.194   3.718   1.966
  649TIP3    H2 1881   0.248   3.839   1.892
  650TIP3   OH2 1882   0.631   2.607   2.268
  650TIP3    H1 1883   0.576   2.545   2.317
  650TIP3    H2 1884   0.638   2.569   2.181
  651TIP3   OH2 1885   0.302   3.779   1.540
  651TIP3    H1 1886   0.258   3.837   1.477
  651TIP3    H2 1887   0.395   3.792   1.523
  652TIP3   OH2 1888   8.150   3.772   2.414
  652TIP3    H1 1889   8.236   3.787   2.452
  652TIP3    H2 1890   8.095   3.747   2.487
  653TIP3   OH2 1891   0.185   3.659   2.324
  653TIP3    H1 1892   0.189   3.585   2.384
  653TIP3    H2 1893   0.263   3.711   2.343
  654TIP3   OH2 1894   8.393   3.264   2.473
  654TIP3    H1 1895   8.394   3.251   2.378
  654TIP3    H2 1896   8.478   3.232   2.502
  655TIP3   OH2 1897   0.288   3.318   2.119
  655TIP3    H1 1898   0.372   3.342   2.079
  655TIP3    H2 1899   0.229   3.389   2.097
  656TIP3   OH2 1900   0.158   3.193   2.510
  656TIP3    H1 1901   0.210   3.149   2.442
  656TIP3    H2 1902   0.171   3.139   2.588
  657TIP3   OH2 1903   0.387   2.866   2.565
  657TIP3    H1 1904   0.432   2.782   2.576
  657TIP3    H2 1905   0.453   2.924   2.529
  658TIP3   OH2 1906   0.417   3.153   2.294
  658TIP3    H1 1907   0.361   3.212   2.243
  658TIP3    H2 1908   0.506   3.172   2.264
  659TIP3   OH2 1909   0.536   2.581   2.615
  659TIP3    H1 1910   0.543   2.485   2.622
  659TIP3    H2 1911   0.523   2.611   2.705
  660TIP3   OH2 1912   0.574   3.827   1.533
  660TIP3    H1 1913   0.592   3.849   1.624
  660TIP3    H2 1914   0.621   3.894   1.483
  661TIP3   OH2 1915   0.599   3.856   1.811
  661TIP3    H1 1916   0.552   3.773   1.817
  661TIP3    H2 1917   0.675   3.845   1.868
  662TIP3   OH2 1918   0.633   3.543   2.380
  662TIP3    H1 1919   0.564   3.550   2.445
  662TIP3    H2 1920   0.680   3.626   2.386
  663TIP3   OH2 1921   0.604   3.337   1.569
  663TIP3    H1 1922   0.693   3.305   1.587
  663TIP3    H2 1923   0.617   3.425   1.534
  664TIP3   OH2 1924   0.461   3.619   1.849
  664TIP3    H1 1925   0.391   3.666   1.894
  664TIP3    H2 1926   0.419   3.580   1.773
  665TIP3   OH2 1927   0.668   3.201   2.191
  665TIP3    H1 1928   0.737   3.136   2.175
  665TIP3    H2 1929   0.666   3.254   2.111
  666TIP3   OH2 1930   0.853   2.997   2.196
  666TIP3    H1 1931   0.780   2.953   2.238
  666TIP3    H2 1932   0.931   2.954   2.231
  667TIP3   OH2 1933   0.661   2.822   2.001
  667TIP3    H1 1934   0.580   2.850   2.045
  667TIP3    H2 1935   0.679   2.891   1.937
  668TIP3   OH2 1936   1.076   2.412   2.502
  668TIP3    H1 1937   1.139   2.354   2.458
  668TIP3    H2 1938   1.036   2.461   2.431
  669TIP3   OH2 1939   0.924   2.559   2.324
  669TIP3    H1 1940   0.861   2.589   2.389
  669TIP3    H2 1941   0.876   2.561   2.241
  670TIP3   OH2 1942   8.400   3.763   2.208
  670TIP3    H1 1943   8.422   3.767   2.302
  670TIP3    H2 1944   8.464   3.821   2.167
  671TIP3   OH2 1945   0.076   3.945   2.108
  671TIP3    H1 1946   0.150   3.899   2.069
  671TIP3    H2 1947   0.116   4.007   2.169
  672TIP3   OH2 1948   0.005   3.796   1.828
  672TIP3    H1 1949  -0.066   3.852   1.860
  672TIP3    H2 1950   0.066   3.856   1.786
  673TIP3   OH2 1951   0.228   3.950   1.746
  673TIP3    H1 1952   0.214   4.035   1.705
  673TIP3    H2 1953   0.251   3.892   1.673
  674TIP3   OH2 1954   0.586   2.314   2.656
  674TIP3    H1 1955   0.595   2.265   2.737
  674TIP3    H2 1956   0.664   2.291   2.605
  675TIP3   OH2 1957   0.498   3.821   2.127
  675TIP3    H1 1958   0.420   3.792   2.080
  675TIP3    H2 1959   0.486   3.916   2.137
  676TIP3   OH2 1960   1.796   3.305   1.024
  676TIP3    H1 1961   1.823   3.396   1.011
  676TIP3    H2 1962   1.707   3.302   0.988
  677TIP3   OH2 1963   1.839   3.252   1.342
  677TIP3    H1 1964   1.877   3.216   1.422
  677TIP3    H2 1965   1.822   3.175   1.287
  678TIP3   OH2 1966   1.074   3.094   1.690
  678TIP3    H1 1967   1.090   3.022   1.751
  678TIP3    H2 1968   1.161   3.119   1.660
  679TIP3   OH2 1969   1.983   3.527   0.992
  679TIP3    H1 1970   2.015   3.455   1.046
  679TIP3    H2 1971   2.031   3.604   1.023
  680TIP3   OH2 1972   0.998   3.531   1.378
  680TIP3    H1 1973   0.964   3.443   1.359
  680TIP3    H2 1974   1.093   3.519   1.382
  681TIP3   OH2 1975   1.689   3.940   0.998
  681TIP3    H1 1976   1.753   3.881   0.957
  681TIP3    H2 1977   1.699   3.925   1.092
  682TIP3   OH2 1978   1.561   3.552   1.333
  682TIP3    H1 1979   1.568   3.520   1.243
  682TIP3    H2 1980   1.652   3.556   1.364
  683TIP3   OH2 1981   2.029   3.016   1.298
  683TIP3    H1 1982   2.088   2.954   1.341
  683TIP3    H2 1983   1.950   2.965   1.280
  684TIP3   OH2 1984   2.103   2.591   0.978
  684TIP3    H1 1985   2.137   2.551   1.058
  684TIP3    H2 1986   2.139   2.680   0.979
  685TIP3   OH2 1987   1.403   2.910   1.226
  685TIP3    H1 1988   1.480   2.891   1.280
  685TIP3    H2 1989   1.404   2.842   1.158
  686TIP3   OH2 1990   2.671   2.960   1.503
  686TIP3    H1 1991   2.592   2.998   1.465
  686TIP3    H2 1992   2.642   2.920   1.585
  687TIP3   OH2 1993   1.334   2.526   1.817
  687TIP3    H1 1994   1.279   2.472   1.761
  687TIP3    H2 1995   1.273   2.571   1.875
  688TIP3   OH2 1996   1.750   3.480   0.714
  688TIP3    H1 1997   1.731   3.425   0.638
  688TIP3    H2 1998   1.667   3.525   0.732
  689TIP3   OH2 1999   1.435   3.384   1.547
  689TIP3    H1 2000   1.366   3.444   1.572
  689TIP3    H2 2001   1.477   3.425   1.472
  690TIP3   OH2 2002   2.292   2.647   1.189
  690TIP3    H1 2003   2.234   2.595   1.244
  690TIP3    H2 2004   2.322   2.718   1.245
  691TIP3   OH2 2005   1.161   2.621   1.604
  691TIP3    H1 2006   1.254   2.599   1.606
  691TIP3    H2 2007   1.120   2.547   1.560
  692TIP3   OH2 2008   1.242   3.556   1.627
  692TIP3    H1 2009   1.230   3.644   1.592
  692TIP3    H2 2010   1.165   3.542   1.683
  693TIP3   OH2 2011   2.078   3.761   1.111
  693TIP3    H1 2012   1.989   3.753   1.146
  693TIP3    H2 2013   2.077   3.845   1.065
  694TIP3   OH2 2014   2.439   2.663   1.501
  694TIP3    H1 2015   2.353   2.626   1.479
  694TIP3    H2 2016   2.496   2.634   1.430
  695TIP3   OH2 2017   1.724   2.185   1.406
  695TIP3    H1 2018   1.732   2.110   1.463
  695TIP3    H2 2019   1.673   2.249   1.457
  696TIP3   OH2 2020   1.848   3.768   0.863
  696TIP3    H1 2021   1.894   3.684   0.851
  696TIP3    H2 2022   1.894   3.829   0.805
  697TIP3   OH2 2023   2.002   3.580   0.708
  697TIP3    H1 2024   1.917   3.537   0.712
  697TIP3    H2 2025   2.055   3.536   0.774
  698TIP3   OH2 2026   2.313   3.656   1.467
  698TIP3    H1 2027   2.299   3.580   1.410
  698TIP3    H2 2028   2.297   3.731   1.410
  699TIP3   OH2 2029   2.500   3.304   1.320
  699TIP3    H1 2030   2.417   3.352   1.323
  699TIP3    H2 2031   2.530   3.315   1.229
  700TIP3   OH2 2032   1.913   2.996   0.718
  700TIP3    H1 2033   1.864   3.077   0.703
  700TIP3    H2 2034   1.996   3.009   0.672
  701TIP3   OH2 2035   2.197   3.168   1.633
  701TIP3    H1 2036   2.195   3.251   1.681
  701TIP3    H2 2037   2.110   3.160   1.595
  702TIP3   OH2 2038   1.294   3.605   1.303
  702TIP3    H1 2039   1.265   3.517   1.276
  702TIP3    H2 2040   1.387   3.594   1.321
  703TIP3   OH2 2041   1.292   3.147   1.527
  703TIP3    H1 2042   1.350   3.099   1.469
  703TIP3    H2 2043   1.332   3.234   1.535
  704TIP3   OH2 2044   1.832   3.749   1.232
  704TIP3    H1 2045   1.826   3.828   1.285
  704TIP3    H2 2046   1.835   3.677   1.295
  705TIP3   OH2 2047   1.452   3.648   1.786
  705TIP3    H1 2048   1.395   3.709   1.833
  705TIP3    H2 2049   1.392   3.598   1.731
  706TIP3   OH2 2050   1.220   3.202   1.947
  706TIP3    H1 2051   1.220   3.296   1.962
  706TIP3    H2 2052   1.128   3.179   1.937
  707TIP3   OH2 2053   1.601   3.725   0.739
  707TIP3    H1 2054   1.672   3.725   0.803
  707TIP3    H2 2055   1.525   3.693   0.788
  708TIP3   OH2 2056   1.248   3.813   1.875
  708TIP3    H1 2057   1.221   3.822   1.784
  708TIP3    H2 2058   1.167   3.793   1.922
  709TIP3   OH2 2059   2.037   3.684   0.052
  709TIP3    H1 2060   2.101   3.724   0.111
  709TIP3    H2 2061   2.044   3.590   0.070
  710TIP3   OH2 2062   0.853   3.353   1.851
  710TIP3    H1 2063   0.833   3.323   1.762
  710TIP3    H2 2064   0.893   3.277   1.894
  711TIP3   OH2 2065   0.697   3.578   1.466
  711TIP3    H1 2066   0.791   3.594   1.468
  711TIP3    H2 2067   0.658   3.659   1.499
  712TIP3   OH2 2068   2.543   4.011   1.518
  712TIP3    H1 2069   2.551   3.916   1.529
  712TIP3    H2 2070   2.463   4.034   1.565
  713TIP3   OH2 2071   1.650   3.781   1.649
  713TIP3    H1 2072   1.641   3.872   1.675
  713TIP3    H2 2073   1.579   3.736   1.695
  714TIP3   OH2 2074   1.318   3.868   0.612
  714TIP3    H1 2075   1.359   3.913   0.538
  714TIP3    H2 2076   1.353   3.912   0.689
  715TIP3   OH2 2077   0.846   3.759   1.000
  715TIP3    H1 2078   0.903   3.758   1.076
  715TIP3    H2 2079   0.760   3.732   1.034
  716TIP3   OH2 2080   1.555   3.684   0.275
  716TIP3    H1 2081   1.623   3.702   0.210
  716TIP3    H2 2082   1.603   3.670   0.356
  717TIP3   OH2 2083   1.706   3.937   0.600
  717TIP3    H1 2084   1.672   3.848   0.608
  717TIP3    H2 2085   1.797   3.931   0.626
  718TIP3   OH2 2086   2.438   3.126   1.786
  718TIP3    H1 2087   2.357   3.136   1.735
  718TIP3    H2 2088   2.459   3.033   1.778
  719TIP3   OH2 2089   1.034   3.558   1.805
  719TIP3    H1 2090   1.088   3.549   1.884
  719TIP3    H2 2091   0.964   3.493   1.816
  720TIP3   OH2 2092   1.967   2.458   1.822
  720TIP3    H1 2093   2.047   2.429   1.865
  720TIP3    H2 2094   1.898   2.442   1.886
  721TIP3   OH2 2095   2.198   2.903   1.722
  721TIP3    H1 2096   2.159   2.902   1.809
  721TIP3    H2 2097   2.182   2.992   1.690
  722TIP3   OH2 2098   1.370   2.940   1.701
  722TIP3    H1 2099   1.298   2.918   1.760
  722TIP3    H2 2100   1.331   2.996   1.635
  723TIP3   OH2 2101   1.732   2.899   0.895
  723TIP3    H1 2102   1.662   2.911   0.832
  723TIP3    H2 2103   1.808   2.941   0.855
  724TIP3   OH2 2104   1.917   3.124   1.956
  724TIP3    H1 2105   1.893   3.055   2.017
  724TIP3    H2 2106   2.011   3.135   1.969
  725TIP3   OH2 2107   1.952   2.816   1.071
  725TIP3    H1 2108   1.929   2.902   1.035
  725TIP3    H2 2109   1.917   2.753   1.008
  726TIP3   OH2 2110   1.162   2.895   1.871
  726TIP3    H1 2111   1.160   2.948   1.951
  726TIP3    H2 2112   1.156   2.804   1.902
  727TIP3   OH2 2113   1.937   3.110   1.557
  727TIP3    H1 2114   1.952   3.045   1.489
  727TIP3    H2 2115   1.886   3.064   1.624
  728TIP3   OH2 2116   2.152   2.603   1.504
  728TIP3    H1 2117   2.090   2.630   1.571
  728TIP3    H2 2118   2.101   2.551   1.442
  729TIP3   OH2 2119   2.254   4.350   1.611
  729TIP3    H1 2120   2.251   4.368   1.517
  729TIP3    H2 2121   2.332   4.397   1.641
  730TIP3   OH2 2122   1.197   3.469   2.030
  730TIP3    H1 2123   1.278   3.488   2.077
  730TIP3    H2 2124   1.129   3.472   2.097
  731TIP3   OH2 2125   1.640   2.805   1.328
  731TIP3    H1 2126   1.699   2.874   1.297
  731TIP3    H2 2127   1.685   2.768   1.404
  732TIP3   OH2 2128   1.607   2.833   1.644
  732TIP3    H1 2129   1.527   2.877   1.670
  732TIP3    H2 2130   1.677   2.886   1.682
  733TIP3   OH2 2131   2.276   3.457   1.289
  733TIP3    H1 2132   2.313   3.505   1.215
  733TIP3    H2 2133   2.194   3.421   1.255
  734TIP3   OH2 2134   1.773   3.512   1.683
  734TIP3    H1 2135   1.824   3.510   1.764
  734TIP3    H2 2136   1.730   3.598   1.684
  735TIP3   OH2 2137   1.030   3.182   1.412
  735TIP3    H1 2138   1.059   3.125   1.341
  735TIP3    H2 2139   1.080   3.153   1.488
  736TIP3   OH2 2140   0.946   3.122   1.966
  736TIP3    H1 2141   0.935   3.093   2.056
  736TIP3    H2 2142   0.880   3.073   1.917
  737TIP3   OH2 2143   1.689   3.281   1.985
  737TIP3    H1 2144   1.618   3.219   1.964
  737TIP3    H2 2145   1.769   3.235   1.961
  738TIP3   OH2 2146   1.918   3.813   1.568
  738TIP3    H1 2147   1.824   3.794   1.575
  738TIP3    H2 2148   1.941   3.849   1.654
  739TIP3   OH2 2149   2.287   2.874   0.443
  739TIP3    H1 2150   2.252   2.792   0.409
  739TIP3    H2 2151   2.288   2.933   0.367
  740TIP3   OH2 2152   2.563   3.734   1.542
  740TIP3    H1 2153   2.469   3.716   1.543
  740TIP3    H2 2154   2.593   3.698   1.458
  741TIP3   OH2 2155   2.043   3.650   0.447
  741TIP3    H1 2156   2.035   3.636   0.541
  741TIP3    H2 2157   2.041   3.562   0.409
  742TIP3   OH2 2158   2.058   3.339   1.178
  742TIP3    H1 2159   1.978   3.305   1.218
  742TIP3    H2 2160   2.107   3.262   1.152
  743TIP3   OH2 2161   1.151   3.537   1.028
  743TIP3    H1 2162   1.133   3.625   0.996
  743TIP3    H2 2163   1.065   3.495   1.033
  744TIP3   OH2 2164   1.283   3.327   0.830
  744TIP3    H1 2165   1.376   3.347   0.840
  744TIP3    H2 2166   1.257   3.288   0.913
  745TIP3   OH2 2167   1.457   3.878   1.449
  745TIP3    H1 2168   1.498   3.944   1.394
  745TIP3    H2 2169   1.530   3.826   1.483
  746TIP3   OH2 2170   1.111   3.787   0.902
  746TIP3    H1 2171   1.027   3.814   0.940
  746TIP3    H2 2172   1.153   3.868   0.877
  747TIP3   OH2 2173   1.825   3.528   1.408
  747TIP3    H1 2174   1.823   3.518   1.503
  747TIP3    H2 2175   1.851   3.442   1.375
  748TIP3   OH2 2176   1.793   3.460   0.240
  748TIP3    H1 2177   1.867   3.429   0.293
  748TIP3    H2 2178   1.715   3.427   0.286
  749TIP3   OH2 2179   2.071   4.024   1.452
  749TIP3    H1 2180   2.001   3.961   1.470
  749TIP3    H2 2181   2.037   4.077   1.381
  750TIP3   OH2 2182   2.173   3.885   0.185
  750TIP3    H1 2183   2.221   3.964   0.163
  750TIP3    H2 2184   2.094   3.917   0.231
  751TIP3   OH2 2185   1.155   2.637   1.995
  751TIP3    H1 2186   1.060   2.643   2.009
  751TIP3    H2 2187   1.188   2.593   2.074
  752TIP3   OH2 2188   2.004   3.380   0.399
  752TIP3    H1 2189   1.953   3.341   0.469
  752TIP3    H2 2190   2.095   3.369   0.427
  753TIP3   OH2 2191   0.891   3.770   1.615
  753TIP3    H1 2192   0.941   3.708   1.670
  753TIP3    H2 2193   0.909   3.855   1.654
  754TIP3   OH2 2194   1.977   2.706   1.710
  754TIP3    H1 2195   2.054   2.751   1.744
  754TIP3    H2 2196   1.973   2.624   1.758
  755TIP3   OH2 2197   1.293   3.576   0.425
  755TIP3    H1 2198   1.259   3.589   0.514
  755TIP3    H2 2199   1.305   3.664   0.391
  756TIP3   OH2 2200   1.826   2.952   1.761
  756TIP3    H1 2201   1.855   3.012   1.830
  756TIP3    H2 2202   1.879   2.873   1.773
  757TIP3   OH2 2203   2.464   2.858   1.691
  757TIP3    H1 2204   2.371   2.862   1.712
  757TIP3    H2 2205   2.470   2.788   1.626
  758TIP3   OH2 2206   2.218   3.118   1.134
  758TIP3    H1 2207   2.148   3.083   1.188
  758TIP3    H2 2208   2.294   3.063   1.153
  759TIP3   OH2 2209   2.100   4.024   1.028
  759TIP3    H1 2210   2.060   4.076   0.958
  759TIP3    H2 2211   2.194   4.033   1.014
  760TIP3   OH2 2212   0.882   4.052   2.023
  760TIP3    H1 2213   0.967   4.052   2.067
  760TIP3    H2 2214   0.856   3.960   2.021
  761TIP3   OH2 2215   1.358   3.972   2.069
  761TIP3    H1 2216   1.449   3.941   2.074
  761TIP3    H2 2217   1.319   3.922   1.998
  762TIP3   OH2 2218   1.970   3.912   1.821
  762TIP3    H1 2219   1.983   3.841   1.883
  762TIP3    H2 2220   2.046   3.969   1.832
  763TIP3   OH2 2221   1.754   3.693   0.096
  763TIP3    H1 2222   1.776   3.607   0.132
  763TIP3    H2 2223   1.804   3.699   0.015
  764TIP3   OH2 2224   0.997   3.455   2.222
  764TIP3    H1 2225   1.011   3.361   2.232
  764TIP3    H2 2226   0.910   3.462   2.182
  765TIP3   OH2 2227   1.611   3.549   1.990
  765TIP3    H1 2228   1.564   3.565   1.908
  765TIP3    H2 2229   1.648   3.462   1.981
  766TIP3   OH2 2230   2.089   3.588   1.615
  766TIP3    H1 2231   2.168   3.616   1.568
  766TIP3    H2 2232   2.022   3.652   1.589
  767TIP3   OH2 2233   1.110   3.198   2.224
  767TIP3    H1 2234   1.185   3.184   2.166
  767TIP3    H2 2235   1.150   3.219   2.309
  768TIP3   OH2 2236   1.484   3.110   1.913
  768TIP3    H1 2237   1.393   3.136   1.924
  768TIP3    H2 2238   1.502   3.125   1.820
  769TIP3   OH2 2239   1.972   3.462   1.969
  769TIP3    H1 2240   2.040   3.423   1.914
  769TIP3    H2 2241   1.967   3.404   2.045
  770TIP3   OH2 2242   1.578   2.864   2.005
  770TIP3    H1 2243   1.575   2.787   1.947
  770TIP3    H2 2244   1.544   2.936   1.952
  771TIP3   OH2 2245   1.582   2.639   1.834
  771TIP3    H1 2246   1.592   2.692   1.754
  771TIP3    H2 2247   1.494   2.602   1.826
  772TIP3   OH2 2248   1.603   3.209   1.675
  772TIP3    H1 2249   1.686   3.253   1.691
  772TIP3    H2 2250   1.546   3.277   1.640
  773TIP3   OH2 2251   2.187   3.141   2.037
  773TIP3    H1 2252   2.225   3.054   2.045
  773TIP3    H2 2253   2.262   3.197   2.016
  774TIP3   OH2 2254   2.212   3.409   1.778
  774TIP3    H1 2255   2.159   3.471   1.728
  774TIP3    H2 2256   2.301   3.423   1.746
  775TIP3   OH2 2257   1.456   2.954   2.238
  775TIP3    H1 2258   1.388   2.889   2.258
  775TIP3    H2 2259   1.486   2.931   2.150
  776TIP3   OH2 2260   1.698   2.403   1.907
  776TIP3    H1 2261   1.661   2.489   1.885
  776TIP3    H2 2262   1.629   2.341   1.884
  777TIP3   OH2 2263   1.838   2.902   2.094
  777TIP3    H1 2264   1.833   2.887   2.189
  777TIP3    H2 2265   1.750   2.882   2.062
  778TIP3   OH2 2266   2.078   2.856   1.959
  778TIP3    H1 2267   2.002   2.859   2.016
  778TIP3    H2 2268   2.150   2.830   2.016
  779TIP3   OH2 2269   2.310   2.816   2.107
  779TIP3    H1 2270   2.327   2.722   2.113
  779TIP3    H2 2271   2.307   2.846   2.198
  780TIP3   OH2 2272   1.299   2.733   2.303
  780TIP3    H1 2273   1.297   2.644   2.267
  780TIP3    H2 2274   1.339   2.723   2.389
  781TIP3   OH2 2275   1.773   2.394   2.167
  781TIP3    H1 2276   1.845   2.332   2.159
  781TIP3    H2 2277   1.735   2.398   2.079
  782TIP3   OH2 2278   1.865   2.620   2.295
  782TIP3    H1 2279   1.834   2.545   2.243
  782TIP3    H2 2280   1.791   2.681   2.294
  783TIP3   OH2 2281   0.659   3.710   1.196
  783TIP3    H1 2282   0.635   3.636   1.252
  783TIP3    H2 2283   0.689   3.777   1.258
  784TIP3   OH2 2284   2.371   4.073   1.018
  784TIP3    H1 2285   2.388   4.097   1.110
  784TIP3    H2 2286   2.415   4.142   0.968
  785TIP3   OH2 2287   2.387   4.104   1.296
  785TIP3    H1 2288   2.338   4.021   1.293
  785TIP3    H2 2289   2.455   4.088   1.361
  786TIP3   OH2 2290   2.436   3.805   1.864
  786TIP3    H1 2291   2.366   3.812   1.929
  786TIP3    H2 2292   2.482   3.888   1.870
  787TIP3   OH2 2293   2.259   3.394   0.519
  787TIP3    H1 2294   2.308   3.465   0.477
  787TIP3    H2 2295   2.314   3.317   0.506
  788TIP3   OH2 2296   2.425   3.169   0.717
  788TIP3    H1 2297   2.378   3.118   0.782
  788TIP3    H2 2298   2.489   3.219   0.768
  789TIP3   OH2 2299   2.437   3.587   1.111
  789TIP3    H1 2300   2.487   3.517   1.069
  789TIP3    H2 2301   2.436   3.658   1.047
  790TIP3   OH2 2302   2.246   3.867   1.303
  790TIP3    H1 2303   2.177   3.910   1.354
  790TIP3    H2 2304   2.199   3.823   1.232
  791TIP3   OH2 2305   2.287   3.047   0.235
  791TIP3    H1 2306   2.195   3.024   0.219
  791TIP3    H2 2307   2.288   3.142   0.240
  792TIP3   OH2 2308   2.189   3.093   0.855
  792TIP3    H1 2309   2.180   3.000   0.832
  792TIP3    H2 2310   2.203   3.092   0.950
  793TIP3   OH2 2311   0.847   3.224   1.609
  793TIP3    H1 2312   0.882   3.227   1.519
  793TIP3    H2 2313   0.910   3.169   1.657
  794TIP3   OH2 2314   2.467   3.453   1.677
  794TIP3    H1 2315   2.537   3.388   1.667
  794TIP3    H2 2316   2.478   3.512   1.603
  795TIP3   OH2 2317   2.656   3.253   1.678
  795TIP3    H1 2318   2.581   3.204   1.713
  795TIP3    H2 2319   2.732   3.202   1.706
  796TIP3   OH2 2320   2.159   2.838   0.721
  796TIP3    H1 2321   2.175   2.746   0.745
  796TIP3    H2 2322   2.099   2.834   0.647
  797TIP3   OH2 2323   2.401   2.919   1.210
  797TIP3    H1 2324   2.485   2.951   1.179
  797TIP3    H2 2325   2.396   2.948   1.301
  798TIP3   OH2 2326   2.410   3.075   1.445
  798TIP3    H1 2327   2.337   3.107   1.498
  798TIP3    H2 2328   2.445   3.153   1.403
  799TIP3   OH2 2329   1.040   2.813   2.277
  799TIP3    H1 2330   1.135   2.800   2.282
  799TIP3    H2 2331   1.003   2.734   2.317
  800TIP3   OH2 2332   2.866   2.680   1.984
  800TIP3    H1 2333   2.927   2.618   1.943
  800TIP3    H2 2334   2.834   2.733   1.911
  801TIP3   OH2 2335   2.186   2.562   0.723
  801TIP3    H1 2336   2.179   2.544   0.817
  801TIP3    H2 2337   2.182   2.475   0.682
  802TIP3   OH2 2338   2.729   2.813   1.786
  802TIP3    H1 2339   2.645   2.844   1.819
  802TIP3    H2 2340   2.708   2.732   1.741
  803TIP3   OH2 2341   1.961   3.953   0.697
  803TIP3    H1 2342   2.029   3.937   0.631
  803TIP3    H2 2343   1.983   4.037   0.736
  804TIP3   OH2 2344   1.032   3.774   2.046
  804TIP3    H1 2345   0.938   3.761   2.032
  804TIP3    H2 2346   1.044   3.761   2.140
  805TIP3   OH2 2347   1.228   3.830   1.594
  805TIP3    H1 2348   1.174   3.900   1.558
  805TIP3    H2 2349   1.313   3.840   1.551
  806TIP3   OH2 2350   1.636   4.050   1.730
  806TIP3    H1 2351   1.673   4.047   1.818
  806TIP3    H2 2352   1.697   4.103   1.680
  807TIP3   OH2 2353   1.820   4.207   1.599
  807TIP3    H1 2354   1.882   4.157   1.546
  807TIP3    H2 2355   1.876   4.264   1.652
  808TIP3   OH2 2356   2.640   2.562   1.702
  808TIP3    H1 2357   2.569   2.569   1.638
  808TIP3    H2 2358   2.678   2.475   1.686
  809TIP3   OH2 2359   0.893   4.062   1.641
  809TIP3    H1 2360   0.803   4.079   1.613
  809TIP3    H2 2361   0.912   4.132   1.703
  810TIP3   OH2 2362   1.117   4.051   1.478
  810TIP3    H1 2363   1.034   4.059   1.526
  810TIP3    H2 2364   1.096   4.081   1.389
  811TIP3   OH2 2365   1.544   4.078   1.274
  811TIP3    H1 2366   1.473   4.091   1.211
  811TIP3    H2 2367   1.552   4.162   1.318
  812TIP3   OH2 2368   1.807   4.012   1.318
  812TIP3    H1 2369   1.715   4.036   1.307
  812TIP3    H2 2370   1.856   4.084   1.278
  813TIP3   OH2 2371   2.007   4.187   1.230
  813TIP3    H1 2372   2.002   4.274   1.190
  813TIP3    H2 2373   2.038   4.130   1.159
  814TIP3   OH2 2374   0.812   3.873   1.369
  814TIP3    H1 2375   0.833   3.845   1.458
  814TIP3    H2 2376   0.882   3.837   1.315
  815TIP3   OH2 2377   1.006   3.758   1.219
  815TIP3    H1 2378   1.011   3.677   1.269
  815TIP3    H2 2379   1.094   3.795   1.225
  816TIP3   OH2 2380   1.267   3.862   1.239
  816TIP3    H1 2381   1.279   3.767   1.237
  816TIP3    H2 2382   1.310   3.890   1.320
  817TIP3   OH2 2383   1.826   2.420   1.296
  817TIP3    H1 2384   1.780   2.336   1.297
  817TIP3    H2 2385   1.876   2.420   1.378
  818TIP3   OH2 2386   2.392   2.423   1.335
  818TIP3    H1 2387   2.478   2.455   1.307
  818TIP3    H2 2388   2.339   2.424   1.255
  819TIP3   OH2 2389   2.620   2.455   0.972
  819TIP3    H1 2390   2.646   2.457   1.064
  819TIP3    H2 2391   2.528   2.482   0.973
  820TIP3   OH2 2392   2.120   2.434   1.232
  820TIP3    H1 2393   2.032   2.410   1.201
  820TIP3    H2 2394   2.146   2.361   1.289
  821TIP3   OH2 2395   1.328   3.825   0.312
  821TIP3    H1 2396   1.415   3.789   0.294
  821TIP3    H2 2397   1.300   3.864   0.229
  822TIP3   OH2 2398   2.129   3.908   0.486
  822TIP3    H1 2399   2.115   3.816   0.465
  822TIP3    H2 2400   2.084   3.955   0.415
  823TIP3   OH2 2401   1.288   2.471   2.211
  823TIP3    H1 2402   1.258   2.397   2.264
  823TIP3    H2 2403   1.383   2.473   2.223
  824TIP3   OH2 2404   1.545   2.460   2.323
  824TIP3    H1 2405   1.624   2.435   2.275
  824TIP3    H2 2406   1.535   2.393   2.390
  825TIP3   OH2 2407   2.375   2.548   2.119
  825TIP3    H1 2408   2.393   2.515   2.207
  825TIP3    H2 2409   2.458   2.539   2.072
  826TIP3   OH2 2410   2.293   4.076   1.615
  826TIP3    H1 2411   2.218   4.046   1.564
  826TIP3    H2 2412   2.279   4.170   1.624
  827TIP3   OH2 2413   3.571   3.461   0.360
  827TIP3    H1 2414   3.545   3.547   0.328
  827TIP3    H2 2415   3.504   3.402   0.328
  828TIP3   OH2 2416   3.568   3.454   0.783
  828TIP3    H1 2417   3.621   3.437   0.861
  828TIP3    H2 2418   3.528   3.370   0.762
  829TIP3   OH2 2419   2.865   3.323   1.137
  829TIP3    H1 2420   2.900   3.267   1.206
  829TIP3    H2 2421   2.943   3.357   1.092
  830TIP3   OH2 2422   3.834   3.761   0.453
  830TIP3    H1 2423   3.821   3.693   0.518
  830TIP3    H2 2424   3.855   3.840   0.503
  831TIP3   OH2 2425   2.855   3.746   0.831
  831TIP3    H1 2426   2.833   3.653   0.831
  831TIP3    H2 2427   2.943   3.750   0.868
  832TIP3   OH2 2428   2.606   2.972   0.651
  832TIP3    H1 2429   2.558   3.053   0.670
  832TIP3    H2 2430   2.565   2.906   0.708
  833TIP3   OH2 2431   2.651   3.277   0.824
  833TIP3    H1 2432   2.705   3.204   0.853
  833TIP3    H2 2433   2.714   3.347   0.806
  834TIP3   OH2 2434   3.469   4.202   0.456
  834TIP3    H1 2435   3.519   4.137   0.405
  834TIP3    H2 2436   3.471   4.169   0.545
  835TIP3   OH2 2437   3.380   3.676   0.790
  835TIP3    H1 2438   3.421   3.594   0.764
  835TIP3    H2 2439   3.453   3.731   0.820
  836TIP3   OH2 2440   4.398   2.994   0.796
  836TIP3    H1 2441   4.413   3.076   0.843
  836TIP3    H2 2442   4.419   3.014   0.704
  837TIP3   OH2 2443   3.798   3.168   0.829
  837TIP3    H1 2444   3.841   3.086   0.852
  837TIP3    H2 2445   3.751   3.149   0.747
  838TIP3   OH2 2446   3.161   2.858   0.824
  838TIP3    H1 2447   3.141   2.925   0.757
  838TIP3    H2 2448   3.119   2.779   0.792
  839TIP3   OH2 2449   3.832   2.944   0.414
  839TIP3    H1 2450   3.896   2.924   0.483
  839TIP3    H2 2451   3.886   2.971   0.340
  840TIP3   OH2 2452   2.796   3.066   0.919
  840TIP3    H1 2453   2.867   3.043   0.978
  840TIP3    H2 2454   2.808   3.009   0.843
  841TIP3   OH2 2455   3.195   3.248   0.729
  841TIP3    H1 2456   3.288   3.232   0.739
  841TIP3    H2 2457   3.161   3.166   0.692
  842TIP3   OH2 2458   4.450   3.205   0.974
  842TIP3    H1 2459   4.371   3.254   0.953
  842TIP3    H2 2460   4.435   3.172   1.063
  843TIP3   OH2 2461   3.121   2.819   1.250
  843TIP3    H1 2462   3.071   2.858   1.178
  843TIP3    H2 2463   3.066   2.832   1.327
  844TIP3   OH2 2464   3.486   3.676   0.205
  844TIP3    H1 2465   3.445   3.654   0.121
  844TIP3    H2 2466   3.432   3.747   0.239
  845TIP3   OH2 2467   3.218   3.608   1.004
  845TIP3    H1 2468   3.163   3.679   1.036
  845TIP3    H2 2469   3.268   3.647   0.932
  846TIP3   OH2 2470   4.024   2.927   0.604
  846TIP3    H1 2471   4.054   2.851   0.655
  846TIP3    H2 2472   4.063   3.002   0.649
  847TIP3   OH2 2473   3.016   2.951   1.036
  847TIP3    H1 2474   3.073   3.024   1.061
  847TIP3    H2 2475   3.062   2.908   0.965
  848TIP3   OH2 2476   3.049   3.806   1.097
  848TIP3    H1 2477   3.036   3.898   1.075
  848TIP3    H2 2478   2.975   3.785   1.154
  849TIP3   OH2 2479   2.444   3.548   0.368
  849TIP3    H1 2480   2.403   3.588   0.291
  849TIP3    H2 2481   2.482   3.621   0.416
  850TIP3   OH2 2482   3.872   4.008   0.594
  850TIP3    H1 2483   3.785   3.999   0.633
  850TIP3    H2 2484   3.870   4.091   0.548
  851TIP3   OH2 2485   4.175   2.900   0.961
  851TIP3    H1 2486   4.086   2.912   0.928
  851TIP3    H2 2487   4.231   2.922   0.886
  852TIP3   OH2 2488   3.469   2.530   0.968
  852TIP3    H1 2489   3.467   2.437   0.990
  852TIP3    H2 2490   3.392   2.567   1.010
  853TIP3   OH2 2491   3.596   4.043   0.270
  853TIP3    H1 2492   3.645   3.962   0.256
  853TIP3    H2 2493   3.653   4.112   0.236
  854TIP3   OH2 2494   3.731   3.817   0.201
  854TIP3    H1 2495   3.663   3.751   0.190
  854TIP3    H2 2496   3.777   3.790   0.280
  855TIP3   OH2 2497   4.105   3.902   0.937
  855TIP3    H1 2498   4.087   3.826   0.882
  855TIP3    H2 2499   4.089   3.977   0.880
  856TIP3   OH2 2500   3.407   3.304   0.196
  856TIP3    H1 2501   3.330   3.362   0.188
  856TIP3    H2 2502   3.424   3.274   0.106
  857TIP3   OH2 2503   6.217   7.122   6.878
  857TIP3    H1 2504   6.301   7.166   6.879
  857TIP3    H2 2505   6.238   7.030   6.860
  858TIP3   OH2 2506   4.293   3.562   0.798
  858TIP3    H1 2507   4.207   3.606   0.799
  858TIP3    H2 2508   4.327   3.579   0.710
  859TIP3   OH2 2509   3.757   3.383   0.177
  859TIP3    H1 2510   3.699   3.409   0.249
  859TIP3    H2 2511   3.838   3.356   0.220
  860TIP3   OH2 2512   3.984   3.423   1.110
  860TIP3    H1 2513   3.981   3.505   1.160
  860TIP3    H2 2514   3.901   3.420   1.063
  861TIP3   OH2 2515   3.003   3.397   0.592
  861TIP3    H1 2516   2.950   3.337   0.539
  861TIP3    H2 2517   3.072   3.343   0.629
  862TIP3   OH2 2518   3.140   3.805   0.713
  862TIP3    H1 2519   3.098   3.754   0.644
  862TIP3    H2 2520   3.222   3.760   0.731
  863TIP3   OH2 2521   3.089   3.371   0.956
  863TIP3    H1 2522   3.128   3.333   0.878
  863TIP3    H2 2523   3.139   3.451   0.972
  864TIP3   OH2 2524   3.634   3.999   0.724
  864TIP3    H1 2525   3.617   4.079   0.774
  864TIP3    H2 2526   3.622   3.929   0.787
  865TIP3   OH2 2527   3.251   3.902   1.269
  865TIP3    H1 2528   3.192   3.959   1.318
  865TIP3    H2 2529   3.194   3.849   1.213
  866TIP3   OH2 2530   6.457   7.252   6.917
  866TIP3    H1 2531   6.498   7.313   6.978
  866TIP3    H2 2532   6.482   7.285   6.830
  867TIP3   OH2 2533   3.007   3.459   1.398
  867TIP3    H1 2534   3.010   3.550   1.428
  867TIP3    H2 2535   2.914   3.436   1.401
  868TIP3   OH2 2536   3.356   3.906   0.281
  868TIP3    H1 2537   3.434   3.960   0.294
  868TIP3    H2 2538   3.284   3.959   0.318
  869TIP3   OH2 2539   3.043   4.062   1.356
  869TIP3    H1 2540   3.014   4.072   1.266
  869TIP3    H2 2541   2.962   4.046   1.405
  870TIP3   OH2 2542   4.072   2.498   0.033
  870TIP3    H1 2543   4.005   2.506   0.101
  870TIP3    H2 2544   4.114   2.584   0.031
  871TIP3   OH2 2545   2.840   3.247   0.430
  871TIP3    H1 2546   2.768   3.296   0.390
  871TIP3    H2 2547   2.827   3.156   0.401
  872TIP3   OH2 2548   2.637   3.615   1.308
  872TIP3    H1 2549   2.568   3.598   1.244
  872TIP3    H2 2550   2.670   3.529   1.332
  873TIP3   OH2 2551   2.477   3.819   0.958
  873TIP3    H1 2552   2.569   3.838   0.979
  873TIP3    H2 2553   2.429   3.896   0.988
  874TIP3   OH2 2554   4.336   4.256   1.006
  874TIP3    H1 2555   4.341   4.162   1.022
  874TIP3    H2 2556   4.257   4.284   1.052
  875TIP3   OH2 2557   3.438   4.047   1.129
  875TIP3    H1 2558   3.434   4.137   1.161
  875TIP3    H2 2559   3.373   4.000   1.181
  876TIP3   OH2 2560   2.686   4.018   0.467
  876TIP3    H1 2561   2.728   4.011   0.552
  876TIP3    H2 2562   2.636   3.936   0.458
  877TIP3   OH2 2563   0.593   0.055   6.702
  877TIP3    H1 2564   0.655  -0.013   6.677
  877TIP3    H2 2565   0.606   0.066   6.796
  878TIP3   OH2 2566   3.438   4.088   0.035
  878TIP3    H1 2567   3.368   4.025   0.049
  878TIP3    H2 2568   3.499   4.072   0.107
  879TIP3   OH2 2569   4.234   3.372   1.268
  879TIP3    H1 2570   4.148   3.381   1.225
  879TIP3    H2 2571   4.248   3.278   1.275
  880TIP3   OH2 2572   2.838   3.801   1.275
  880TIP3    H1 2573   2.888   3.790   1.355
  880TIP3    H2 2574   2.766   3.738   1.283
  881TIP3   OH2 2575   3.235   2.613   1.096
  881TIP3    H1 2576   3.151   2.575   1.068
  881TIP3    H2 2577   3.210   2.692   1.144
  882TIP3   OH2 2578   3.762   2.735   1.293
  882TIP3    H1 2579   3.833   2.709   1.352
  882TIP3    H2 2580   3.682   2.716   1.342
  883TIP3   OH2 2581   3.994   3.163   1.212
  883TIP3    H1 2582   3.949   3.157   1.296
  883TIP3    H2 2583   3.969   3.249   1.178
  884TIP3   OH2 2584   6.517   7.341   6.659
  884TIP3    H1 2585   6.470   7.320   6.578
  884TIP3    H2 2586   6.501   7.434   6.673
  885TIP3   OH2 2587   3.222   2.633   0.068
  885TIP3    H1 2588   3.264   2.631   0.153
  885TIP3    H2 2589   3.277   2.578   0.012
  886TIP3   OH2 2590   3.172   3.160   1.116
  886TIP3    H1 2591   3.121   3.167   1.197
  886TIP3    H2 2592   3.148   3.239   1.067
  887TIP3   OH2 2593   3.070   3.026   0.620
  887TIP3    H1 2594   2.991   2.983   0.651
  887TIP3    H2 2595   3.096   2.975   0.543
  888TIP3   OH2 2596   3.545   3.110   0.338
  888TIP3    H1 2597   3.493   3.178   0.294
  888TIP3    H2 2598   3.601   3.074   0.269
  889TIP3   OH2 2599   3.705   3.367   1.423
  889TIP3    H1 2600   3.678   3.298   1.483
  889TIP3    H2 2601   3.797   3.382   1.443
  890TIP3   OH2 2602   3.695   3.124   0.575
  890TIP3    H1 2603   3.629   3.150   0.511
  890TIP3    H2 2604   3.739   3.049   0.535
  891TIP3   OH2 2605   2.990   3.156   1.323
  891TIP3    H1 2606   3.001   3.214   1.398
  891TIP3    H2 2607   2.970   3.071   1.362
  892TIP3   OH2 2608   2.959   2.633  -0.017
  892TIP3    H1 2609   3.051   2.608  -0.007
  892TIP3    H2 2610   2.948   2.706   0.044
  893TIP3   OH2 2611   2.665   2.718   0.828
  893TIP3    H1 2612   2.706   2.737   0.912
  893TIP3    H2 2613   2.627   2.631   0.839
  894TIP3   OH2 2614   2.501   2.689   0.363
  894TIP3    H1 2615   2.592   2.697   0.392
  894TIP3    H2 2616   2.450   2.687   0.444
  895TIP3   OH2 2617   3.729   3.369   0.997
  895TIP3    H1 2618   3.758   3.302   0.935
  895TIP3    H2 2619   3.688   3.320   1.068
  896TIP3   OH2 2620   3.430   2.880   0.720
  896TIP3    H1 2621   3.353   2.865   0.775
  896TIP3    H2 2622   3.497   2.822   0.756
  897TIP3   OH2 2623   2.855   2.893   0.710
  897TIP3    H1 2624   2.765   2.916   0.687
  897TIP3    H2 2625   2.847   2.808   0.755
  898TIP3   OH2 2626   3.143   2.889   0.391
  898TIP3    H1 2627   3.229   2.881   0.433
  898TIP3    H2 2628   3.163   2.903   0.298
  899TIP3   OH2 2629   3.890   2.914   0.902
  899TIP3    H1 2630   3.845   2.927   0.985
  899TIP3    H2 2631   3.839   2.844   0.859
  900TIP3   OH2 2632   2.934   2.859   0.120
  900TIP3    H1 2633   2.839   2.856   0.136
  900TIP3    H2 2634   2.954   2.952   0.113
  901TIP3   OH2 2635   4.050   4.606   1.104
  901TIP3    H1 2636   4.048   4.623   1.010
  901TIP3    H2 2637   4.129   4.651   1.135
  902TIP3   OH2 2638   2.995   3.721   1.507
  902TIP3    H1 2639   3.075   3.737   1.556
  902TIP3    H2 2640   2.926   3.723   1.573
  903TIP3   OH2 2641   3.462   3.186   0.782
  903TIP3    H1 2642   3.505   3.119   0.730
  903TIP3    H2 2643   3.455   3.147   0.870
  904TIP3   OH2 2644   3.034   2.647   0.708
  904TIP3    H1 2645   3.034   2.568   0.762
  904TIP3    H2 2646   3.096   2.628   0.637
  905TIP3   OH2 2647   3.428   3.089   1.045
  905TIP3    H1 2648   3.343   3.123   1.072
  905TIP3    H2 2649   3.491   3.138   1.098
  906TIP3   OH2 2650   3.193   3.478   0.158
  906TIP3    H1 2651   3.110   3.436   0.135
  906TIP3    H2 2652   3.177   3.517   0.244
  907TIP3   OH2 2653   4.052   3.695   0.761
  907TIP3    H1 2654   4.085   3.743   0.684
  907TIP3    H2 2655   3.972   3.653   0.730
  908TIP3   OH2 2656   6.580   6.813   6.886
  908TIP3    H1 2657   6.525   6.747   6.929
  908TIP3    H2 2658   6.568   6.892   6.939
  909TIP3   OH2 2659   3.571   3.780   1.169
  909TIP3    H1 2660   3.616   3.761   1.252
  909TIP3    H2 2661   3.526   3.863   1.185
  910TIP3   OH2 2662   3.709   3.023   0.118
  910TIP3    H1 2663   3.800   3.038   0.143
  910TIP3    H2 2664   3.686   3.101   0.067
  911TIP3   OH2 2665   2.861   3.463   0.817
  911TIP3    H1 2666   2.902   3.451   0.732
  911TIP3    H2 2667   2.924   3.428   0.880
  912TIP3   OH2 2668   6.161   7.642   6.911
  912TIP3    H1 2669   6.116   7.727   6.915
  912TIP3    H2 2670   6.109   7.585   6.967
  913TIP3   OH2 2671   2.738   3.385   1.441
  913TIP3    H1 2672   2.742   3.360   1.534
  913TIP3    H2 2673   2.663   3.336   1.407
  914TIP3   OH2 2674   3.471   3.520   1.459
  914TIP3    H1 2675   3.402   3.459   1.433
  914TIP3    H2 2676   3.552   3.477   1.431
  915TIP3   OH2 2677   3.711   4.066   1.049
  915TIP3    H1 2678   3.618   4.048   1.057
  915TIP3    H2 2679   3.736   4.100   1.135
  916TIP3   OH2 2680   6.946   7.127   6.900
  916TIP3    H1 2681   6.894   7.090   6.829
  916TIP3    H2 2682   6.951   7.221   6.879
  917TIP3   OH2 2683   4.351   3.972   1.035
  917TIP3    H1 2684   4.256   3.962   1.029
  917TIP3    H2 2685   4.383   3.942   0.949
  918TIP3   OH2 2686   6.644   7.913   6.843
  918TIP3    H1 2687   6.630   7.878   6.931
  918TIP3    H2 2688   6.633   7.838   6.785
  919TIP3   OH2 2689   3.822   3.560   0.660
  919TIP3    H1 2690   3.732   3.537   0.685
  919TIP3    H2 2691   3.858   3.478   0.627
  920TIP3   OH2 2692   2.935   3.782   0.480
  920TIP3    H1 2693   2.922   3.875   0.463
  920TIP3    H2 2694   2.850   3.751   0.511
  921TIP3   OH2 2695   2.543   3.116   0.115
  921TIP3    H1 2696   2.559   3.204   0.150
  921TIP3    H2 2697   2.464   3.086   0.160
  922TIP3   OH2 2698   3.084   3.571   0.390
  922TIP3    H1 2699   3.039   3.651   0.417
  922TIP3    H2 2700   3.063   3.507   0.458
  923TIP3   OH2 2701   3.261   4.129   0.921
  923TIP3    H1 2702   3.310   4.198   0.877
  923TIP3    H2 2703   3.326   4.086   0.977
  924TIP3   OH2 2704   3.616   3.780   0.897
  924TIP3    H1 2705   3.601   3.777   0.992
  924TIP3    H2 2706   3.689   3.720   0.883
  925TIP3   OH2 2707   6.435   7.597   6.714
  925TIP3    H1 2708   6.483   7.606   6.797
  925TIP3    H2 2709   6.343   7.602   6.740
  926TIP3   OH2 2710   3.862   4.278   0.942
  926TIP3    H1 2711   3.795   4.212   0.960
  926TIP3    H2 2712   3.827   4.328   0.869
  927TIP3   OH2 2713   2.939   2.907   1.448
  927TIP3    H1 2714   2.845   2.920   1.459
  927TIP3    H2 2715   2.966   2.861   1.528
  928TIP3   OH2 2716   3.768   3.585  -0.011
  928TIP3    H1 2717   3.753   3.525   0.061
  928TIP3    H2 2718   3.863   3.589  -0.020
  929TIP3   OH2 2719   2.688   3.996   1.089
  929TIP3    H1 2720   2.737   3.932   1.141
  929TIP3    H2 2721   2.697   4.078   1.137
  930TIP3   OH2 2722   5.875   7.602   6.766
  930TIP3    H1 2723   5.794   7.589   6.716
  930TIP3    H2 2724   5.844   7.621   6.855
  931TIP3   OH2 2725   2.942   3.670   0.075
  931TIP3    H1 2726   2.973   3.633   0.157
  931TIP3    H2 2727   2.944   3.765   0.089
  932TIP3   OH2 2728   2.657   3.373   0.279
  932TIP3    H1 2729   2.592   3.412   0.338
  932TIP3    H2 2730   2.627   3.399   0.192
  933TIP3   OH2 2731   3.788   2.971   1.154
  933TIP3    H1 2732   3.870   3.009   1.187
  933TIP3    H2 2733   3.777   2.891   1.205
  934TIP3   OH2 2734   3.696   2.719   0.316
  934TIP3    H1 2735   3.643   2.733   0.238
  934TIP3    H2 2736   3.727   2.806   0.340
  935TIP3   OH2 2737   6.027   7.892   6.931
  935TIP3    H1 2738   5.944   7.909   6.974
  935TIP3    H2 2739   6.017   7.926   6.842
  936TIP3   OH2 2740   3.406   2.897   0.445
  936TIP3    H1 2741   3.459   2.972   0.417
  936TIP3    H2 2742   3.428   2.887   0.538
  937TIP3   OH2 2743   3.634   3.205   1.195
  937TIP3    H1 2744   3.657   3.245   1.279
  937TIP3    H2 2745   3.682   3.122   1.193
  938TIP3   OH2 2746   3.548   2.644   0.536
  938TIP3    H1 2747   3.602   2.660   0.614
  938TIP3    H2 2748   3.606   2.663   0.462
  939TIP3   OH2 2749   2.923   3.946   0.083
  939TIP3    H1 2750   2.919   4.010   0.013
  939TIP3    H2 2751   2.841   3.957   0.131
  940TIP3   OH2 2752   2.998   2.653   0.320
  940TIP3    H1 2753   3.033   2.742   0.328
  940TIP3    H2 2754   3.051   2.601   0.380
  941TIP3   OH2 2755   4.247   3.086   1.156
  941TIP3    H1 2756   4.158   3.109   1.182
  941TIP3    H2 2757   4.235   3.017   1.091
  942TIP3   OH2 2758   3.917   3.302   0.578
  942TIP3    H1 2759   3.837   3.250   0.589
  942TIP3    H2 2760   3.982   3.257   0.632
  943TIP3   OH2 2761   5.540   7.627   6.877
  943TIP3    H1 2762   5.611   7.661   6.931
  943TIP3    H2 2763   5.562   7.534   6.865
  944TIP3   OH2 2764   2.675   2.830   0.174
  944TIP3    H1 2765   2.640   2.885   0.244
  944TIP3    H2 2766   2.663   2.741   0.206
  945TIP3   OH2 2767   3.894   4.275   0.510
  945TIP3    H1 2768   3.855   4.329   0.441
  945TIP3    H2 2769   3.988   4.286   0.498
  946TIP3   OH2 2770   2.969   2.529   1.073
  946TIP3    H1 2771   2.902   2.598   1.072
  946TIP3    H2 2772   2.937   2.466   1.138
  947TIP3   OH2 2773   2.525   3.790   0.477
  947TIP3    H1 2774   2.476   3.830   0.549
  947TIP3    H2 2775   2.488   3.830   0.398
  948TIP3   OH2 2776   2.679   4.314   1.510
  948TIP3    H1 2777   2.762   4.317   1.558
  948TIP3    H2 2778   2.658   4.220   1.503
  949TIP3   OH2 2779   3.146   4.233   1.547
  949TIP3    H1 2780   3.237   4.205   1.560
  949TIP3    H2 2781   3.114   4.176   1.477
  950TIP3   OH2 2782   5.998   7.810   6.634
  950TIP3    H1 2783   5.951   7.742   6.682
  950TIP3    H2 2784   6.062   7.762   6.580
  951TIP3   OH2 2785   3.773   4.167   1.296
  951TIP3    H1 2786   3.778   4.097   1.361
  951TIP3    H2 2787   3.847   4.224   1.315
  952TIP3   OH2 2788   2.791   3.716   1.698
  952TIP3    H1 2789   2.813   3.623   1.706
  952TIP3    H2 2790   2.704   3.717   1.657
  953TIP3   OH2 2791   5.636   7.373   6.861
  953TIP3    H1 2792   5.695   7.373   6.937
  953TIP3    H2 2793   5.682   7.322   6.795
  954TIP3   OH2 2794   3.406   3.796   1.474
  954TIP3    H1 2795   3.359   3.815   1.393
  954TIP3    H2 2796   3.439   3.707   1.464
  955TIP3   OH2 2797   6.136   7.517   6.655
  955TIP3    H1 2798   6.140   7.562   6.739
  955TIP3    H2 2799   6.047   7.482   6.651
  956TIP3   OH2 2800   3.884   3.837   1.091
  956TIP3    H1 2801   3.961   3.868   1.044
  956TIP3    H2 2802   3.817   3.903   1.073
  957TIP3   OH2 2803   2.911   3.466   1.700
  957TIP3    H1 2804   2.986   3.422   1.659
  957TIP3    H2 2805   2.938   3.480   1.790
  958TIP3   OH2 2806   2.940   3.364   0.158
  958TIP3    H1 2807   2.871   3.374   0.224
  958TIP3    H2 2808   2.970   3.274   0.169
  959TIP3   OH2 2809   3.261   3.345   1.366
  959TIP3    H1 2810   3.176   3.387   1.372
  959TIP3    H2 2811   3.294   3.369   1.280
  960TIP3   OH2 2812   5.945   7.109   6.813
  960TIP3    H1 2813   5.946   7.016   6.787
  960TIP3    H2 2814   6.037   7.133   6.821
  961TIP3   OH2 2815   3.763   3.718   1.452
  961TIP3    H1 2816   3.834   3.679   1.400
  961TIP3    H2 2817   3.759   3.664   1.531
  962TIP3   OH2 2818   3.369   3.114   1.470
  962TIP3    H1 2819   3.372   3.042   1.407
  962TIP3    H2 2820   3.332   3.188   1.422
  963TIP3   OH2 2821   3.379   2.911   1.272
  963TIP3    H1 2822   3.402   2.947   1.186
  963TIP3    H2 2823   3.288   2.882   1.262
  964TIP3   OH2 2824   3.381   3.432   1.139
  964TIP3    H1 2825   3.473   3.453   1.121
  964TIP3    H2 2826   3.331   3.500   1.093
  965TIP3   OH2 2827   3.971   3.397   1.524
  965TIP3    H1 2828   4.007   3.309   1.537
  965TIP3    H2 2829   4.048   3.452   1.513
  966TIP3   OH2 2830   4.008   3.663   1.259
  966TIP3    H1 2831   3.954   3.724   1.209
  966TIP3    H2 2832   4.097   3.678   1.227
  967TIP3   OH2 2833   3.253   3.202   1.712
  967TIP3    H1 2834   3.187   3.137   1.735
  967TIP3    H2 2835   3.283   3.177   1.625
  968TIP3   OH2 2836   3.496   2.676   1.371
  968TIP3    H1 2837   3.457   2.757   1.339
  968TIP3    H2 2838   3.426   2.611   1.363
  969TIP3   OH2 2839   3.624   3.154   1.573
  969TIP3    H1 2840   3.614   3.140   1.667
  969TIP3    H2 2841   3.538   3.132   1.536
  970TIP3   OH2 2842   3.870   3.111   1.445
  970TIP3    H1 2843   3.791   3.108   1.499
  970TIP3    H2 2844   3.940   3.080   1.503
  971TIP3   OH2 2845   4.112   3.073   1.587
  971TIP3    H1 2846   4.123   2.978   1.596
  971TIP3    H2 2847   4.106   3.105   1.676
  972TIP3   OH2 2848   3.099   2.978   1.779
  972TIP3    H1 2849   3.095   2.890   1.741
  972TIP3    H2 2850   3.138   2.966   1.865
  973TIP3   OH2 2851   3.569   2.658   1.636
  973TIP3    H1 2852   3.639   2.592   1.630
  973TIP3    H2 2853   3.537   2.666   1.546
  974TIP3   OH2 2854   3.663   2.877   1.773
  974TIP3    H1 2855   3.632   2.803   1.721
  974TIP3    H2 2856   3.589   2.937   1.776
  975TIP3   OH2 2857   0.079   0.127   6.823
  975TIP3    H1 2858   0.162   0.114   6.777
  975TIP3    H2 2859   0.013   0.129   6.753
  976TIP3   OH2 2860   2.531   3.446   0.053
  976TIP3    H1 2861   2.570   3.524   0.014
  976TIP3    H2 2862   2.455   3.426  -0.001
  977TIP3   OH2 2863   2.307   4.108   0.531
  977TIP3    H1 2864   2.242   4.050   0.492
  977TIP3    H2 2865   2.352   4.054   0.595
  978TIP3   OH2 2866   2.436   3.936   0.701
  978TIP3    H1 2867   2.417   3.867   0.765
  978TIP3    H2 2868   2.492   3.998   0.748
  979TIP3   OH2 2869   4.166   4.328   0.507
  979TIP3    H1 2870   4.179   4.349   0.600
  979TIP3    H2 2871   4.212   4.398   0.460
  980TIP3   OH2 2872   4.179   4.359   0.785
  980TIP3    H1 2873   4.131   4.276   0.782
  980TIP3    H2 2874   4.249   4.343   0.848
  981TIP3   OH2 2875   4.226   4.061   1.350
  981TIP3    H1 2876   4.156   4.067   1.415
  981TIP3    H2 2877   4.274   4.144   1.357
  982TIP3   OH2 2878   6.875   7.573   6.915
  982TIP3    H1 2879   6.937   7.640   6.884
  982TIP3    H2 2880   6.921   7.532   6.988
  983TIP3   OH2 2881   4.174   3.423   0.170
  983TIP3    H1 2882   4.108   3.383   0.226
  983TIP3    H2 2883   4.237   3.462   0.230
  984TIP3   OH2 2884   4.235   3.829   0.595
  984TIP3    H1 2885   4.289   3.763   0.551
  984TIP3    H2 2886   4.235   3.903   0.535
  985TIP3   OH2 2887   4.037   4.122   0.787
  985TIP3    H1 2888   3.970   4.164   0.841
  985TIP3    H2 2889   3.988   4.080   0.716
  986TIP3   OH2 2890   6.909   7.359   6.750
  986TIP3    H1 2891   6.825   7.332   6.713
  986TIP3    H2 2892   6.889   7.437   6.802
  987TIP3   OH2 2893   6.805   7.057   6.678
  987TIP3    H1 2894   6.733   7.083   6.620
  987TIP3    H2 2895   6.801   6.962   6.680
  988TIP3   OH2 2896   3.981   3.285   0.310
  988TIP3    H1 2897   3.987   3.190   0.298
  988TIP3    H2 2898   3.962   3.296   0.404
  989TIP3   OH2 2899   2.605   3.371   1.075
  989TIP3    H1 2900   2.600   3.337   0.986
  989TIP3    H2 2901   2.698   3.366   1.097
  990TIP3   OH2 2902   4.267   3.711   1.166
  990TIP3    H1 2903   4.333   3.643   1.153
  990TIP3    H2 2904   4.292   3.780   1.104
  991TIP3   OH2 2905   4.448   3.503   1.160
  991TIP3    H1 2906   4.373   3.456   1.196
  991TIP3    H2 2907   4.524   3.449   1.185
  992TIP3   OH2 2908   6.790   6.789   6.712
  992TIP3    H1 2909   6.868   6.745   6.746
  992TIP3    H2 2910   6.727   6.785   6.784
  993TIP3   OH2 2911   3.986   3.017   0.190
  993TIP3    H1 2912   4.030   2.933   0.204
  993TIP3    H2 2913   4.032   3.057   0.116
  994TIP3   OH2 2914   4.128   3.168   0.711
  994TIP3    H1 2915   4.211   3.187   0.667
  994TIP3    H2 2916   4.137   3.208   0.798
  995TIP3   OH2 2917   4.201   3.333   0.929
  995TIP3    H1 2918   4.129   3.357   0.987
  995TIP3    H2 2919   4.229   3.416   0.890
  996TIP3   OH2 2920   2.844   3.076   1.778
  996TIP3    H1 2921   2.937   3.052   1.774
  996TIP3    H2 2922   2.798   2.992   1.784
  997TIP3   OH2 2923   4.654   2.944   1.466
  997TIP3    H1 2924   4.713   2.874   1.436
  997TIP3    H2 2925   4.627   2.989   1.386
  998TIP3   OH2 2926   4.100   2.765   0.231
  998TIP3    H1 2927   4.141   2.756   0.317
  998TIP3    H2 2928   4.030   2.700   0.231
  999TIP3   OH2 2929   2.788   2.744   1.068
  999TIP3    H1 2930   2.743   2.700   1.140
  999TIP3    H2 2931   2.827   2.823   1.107
 1000TIP3   OH2 2932   2.624   3.054   1.136
 1000TIP3    H1 2933   2.666   3.050   1.050
 1000TIP3    H2 2934   2.662   3.130   1.179
 1001TIP3   OH2 2935   4.514   3.070   1.264
 1001TIP3    H1 2936   4.449   3.102   1.325
 1001TIP3    H2 2937   4.471   2.997   1.219
 1002TIP3   OH2 2938   7.042   6.690   6.774
 1002TIP3    H1 2939   7.113   6.631   6.800
 1002TIP3    H2 2940   7.077   6.777   6.789
 1003TIP3   OH2 2941   2.623   2.530   0.585
 1003TIP3    H1 2942   2.547   2.499   0.633
 1003TIP3    H2 2943   2.611   2.625   0.580
 1004TIP3   OH2 2944   3.743   4.232   0.150
 1004TIP3    H1 2945   3.780   4.223   0.062
 1004TIP3    H2 2946   3.781   4.313   0.184
 1005TIP3   OH2 2947   2.820   4.032   1.523
 1005TIP3    H1 2948   2.727   4.015   1.514
 1005TIP3    H2 2949   2.840   4.014   1.614
 1006TIP3   OH2 2950   3.029   4.081   1.070
 1006TIP3    H1 2951   2.974   4.153   1.038
 1006TIP3    H2 2952   3.113   4.094   1.026
 1007TIP3   OH2 2953   3.434   4.314   1.210
 1007TIP3    H1 2954   3.469   4.303   1.299
 1007TIP3    H2 2955   3.501   4.364   1.164
 1008TIP3   OH2 2956   3.631   4.464   1.086
 1008TIP3    H1 2957   3.698   4.407   1.047
 1008TIP3    H2 2958   3.680   4.524   1.142
 1009TIP3   OH2 2959   4.427   2.791   1.176
 1009TIP3    H1 2960   4.337   2.770   1.151
 1009TIP3    H2 2961   4.472   2.707   1.174
 1010TIP3   OH2 2962   2.690   4.332   1.115
 1010TIP3    H1 2963   2.598   4.345   1.093
 1010TIP3    H2 2964   2.708   4.395   1.184
 1011TIP3   OH2 2965   2.917   4.310   0.961
 1011TIP3    H1 2966   2.835   4.318   1.011
 1011TIP3    H2 2967   2.892   4.333   0.872
 1012TIP3   OH2 2968   3.334   4.359   0.740
 1012TIP3    H1 2969   3.239   4.358   0.734
 1012TIP3    H2 2970   3.354   4.430   0.801
 1013TIP3   OH2 2971   3.590   4.264   0.799
 1013TIP3    H1 2972   3.503   4.297   0.775
 1013TIP3    H2 2973   3.650   4.330   0.765
 1014TIP3   OH2 2974   3.796   4.432   0.715
 1014TIP3    H1 2975   3.793   4.520   0.678
 1014TIP3    H2 2976   3.830   4.377   0.644
 1015TIP3   OH2 2977   2.614   4.102   0.839
 1015TIP3    H1 2978   2.630   4.074   0.929
 1015TIP3    H2 2979   2.687   4.067   0.788
 1016TIP3   OH2 2980   2.819   3.985   0.704
 1016TIP3    H1 2981   2.825   3.900   0.747
 1016TIP3    H2 2982   2.907   4.022   0.710
 1017TIP3   OH2 2983   3.084   4.074   0.709
 1017TIP3    H1 2984   3.105   3.981   0.699
 1017TIP3    H2 2985   3.133   4.102   0.786
 1018TIP3   OH2 2986   3.634   2.691   0.803
 1018TIP3    H1 2987   3.590   2.634   0.866
 1018TIP3    H2 2988   3.706   2.637   0.770
 1019TIP3   OH2 2989   4.113   2.655   0.702
 1019TIP3    H1 2990   4.149   2.666   0.614
 1019TIP3    H2 2991   4.029   2.612   0.689
 1020TIP3   OH2 2992   4.242   2.713   0.462
 1020TIP3    H1 2993   4.311   2.652   0.437
 1020TIP3    H2 2994   4.281   2.800   0.452
 1021TIP3   OH2 2995   3.361   2.528   0.704
 1021TIP3    H1 2996   3.425   2.563   0.642
 1021TIP3    H2 2997   3.400   2.543   0.790
 1022TIP3   OH2 2998   3.917   2.564   0.250
 1022TIP3    H1 2999   3.835   2.605   0.277
 1022TIP3    H2 3000   3.927   2.490   0.309
 1023TIP3   OH2 3001   2.441   3.902   0.246
 1023TIP3    H1 3002   2.365   3.849   0.224
 1023TIP3    H2 3003   2.419   3.990   0.214
 1024TIP3   OH2 3004   2.757   2.563   0.232
 1024TIP3    H1 3005   2.786   2.519   0.152
 1024TIP3    H2 3006   2.836   2.606   0.266
 1025TIP3   OH2 3007   3.356   2.655   0.315
 1025TIP3    H1 3008   3.418   2.595   0.358
 1025TIP3    H2 3009   3.379   2.741   0.349
 1026TIP3   OH2 3010   0.315   0.059   6.704
 1026TIP3    H1 3011   0.406   0.085   6.693
 1026TIP3    H2 3012   0.309  -0.025   6.657
 1027TIP3   OH2 3013   1.029   0.172   6.841
 1027TIP3    H1 3014   1.019   0.077   6.840
 1027TIP3    H2 3015   0.976   0.203   6.767
 1028TIP3   OH2 3016   3.090   2.711   1.689
 1028TIP3    H1 3017   3.056   2.641   1.744
 1028TIP3    H2 3018   3.184   2.714   1.709
 1029TIP3   OH2 3019   3.343   2.709   1.809
 1029TIP3    H1 3020   3.423   2.687   1.761
 1029TIP3    H2 3021   3.334   2.638   1.873
 1030TIP3   OH2 3022   5.367   7.994   6.839
 1030TIP3    H1 3023   5.334   7.938   6.910
 1030TIP3    H2 3024   5.370   7.936   6.763
 1031TIP3   OH2 3025   4.166   2.801   1.602
 1031TIP3    H1 3026   4.180   2.767   1.690
 1031TIP3    H2 3027   4.252   2.796   1.560
 1032TIP3   OH2 3028   4.089   4.332   1.101
 1032TIP3    H1 3029   4.012   4.303   1.053
 1032TIP3    H2 3030   4.074   4.426   1.114
 1033TIP3   OH2 3031   5.311   3.693   0.284
 1033TIP3    H1 3032   5.351   3.679   0.370
 1033TIP3    H2 3033   5.283   3.606   0.256
 1034TIP3   OH2 3034   4.693   3.602   0.602
 1034TIP3    H1 3035   4.698   3.521   0.652
 1034TIP3    H2 3036   4.720   3.670   0.664
 1035TIP3   OH2 3037   4.633   3.993   0.330
 1035TIP3    H1 3038   4.602   3.903   0.337
 1035TIP3    H2 3039   4.728   3.986   0.326
 1036TIP3   OH2 3040   4.349   3.221   0.085
 1036TIP3    H1 3041   4.302   3.299   0.115
 1036TIP3    H2 3042   4.281   3.162   0.053
 1037TIP3   OH2 3043   4.402   3.506   0.304
 1037TIP3    H1 3044   4.454   3.430   0.330
 1037TIP3    H2 3045   4.464   3.565   0.261
 1038TIP3   OH2 3046   5.160   3.931   0.310
 1038TIP3    H1 3047   5.220   3.858   0.291
 1038TIP3    H2 3048   5.216   4.009   0.303
 1039TIP3   OH2 3049   6.180   3.251   0.307
 1039TIP3    H1 3050   6.210   3.325   0.360
 1039TIP3    H2 3051   6.209   3.273   0.218
 1040TIP3   OH2 3052   5.544   3.417   0.369
 1040TIP3    H1 3053   5.607   3.350   0.394
 1040TIP3    H2 3054   5.534   3.407   0.274
 1041TIP3   OH2 3055   4.926   3.075   0.283
 1041TIP3    H1 3056   4.903   3.146   0.223
 1041TIP3    H2 3057   4.879   2.999   0.249
 1042TIP3   OH2 3058   8.443   7.186   6.895
 1042TIP3    H1 3059   8.519   7.173   6.951
 1042TIP3    H2 3060   8.473   7.164   6.807
 1043TIP3   OH2 3061   4.549   3.294   0.401
 1043TIP3    H1 3062   4.630   3.269   0.446
 1043TIP3    H2 3063   4.548   3.240   0.322
 1044TIP3   OH2 3064   4.990   3.473   0.194
 1044TIP3    H1 3065   5.082   3.449   0.204
 1044TIP3    H2 3066   4.946   3.394   0.164
 1045TIP3   OH2 3067   6.258   3.460   0.468
 1045TIP3    H1 3068   6.173   3.502   0.461
 1045TIP3    H2 3069   6.300   3.502   0.543
 1046TIP3   OH2 3070   4.906   3.082   0.727
 1046TIP3    H1 3071   4.842   3.100   0.658
 1046TIP3    H2 3072   4.855   3.090   0.808
 1047TIP3   OH2 3073   5.050   3.877   0.562
 1047TIP3    H1 3074   4.979   3.939   0.579
 1047TIP3    H2 3075   5.103   3.921   0.494
 1048TIP3   OH2 3076   5.826   3.182   0.129
 1048TIP3    H1 3077   5.777   3.169   0.210
 1048TIP3    H2 3078   5.871   3.266   0.141
 1049TIP3   OH2 3079   4.789   3.184   0.496
 1049TIP3    H1 3080   4.854   3.250   0.521
 1049TIP3    H2 3081   4.831   3.136   0.425
 1050TIP3   OH2 3082   4.839   4.041   0.609
 1050TIP3    H1 3083   4.829   4.128   0.570
 1050TIP3    H2 3084   4.759   4.027   0.659
 1051TIP3   OH2 3085   7.050   7.753   6.806
 1051TIP3    H1 3086   7.026   7.784   6.718
 1051TIP3    H2 3087   7.078   7.832   6.852
 1052TIP3   OH2 3088   5.967   3.146   0.454
 1052TIP3    H1 3089   5.884   3.171   0.414
 1052TIP3    H2 3090   6.033   3.178   0.392
 1053TIP3   OH2 3091   5.251   2.774   0.450
 1053TIP3    H1 3092   5.243   2.683   0.477
 1053TIP3    H2 3093   5.177   2.818   0.491
 1054TIP3   OH2 3094   6.129   3.787   0.294
 1054TIP3    H1 3095   6.036   3.808   0.287
 1054TIP3    H2 3096   6.173   3.856   0.245
 1055TIP3   OH2 3097   5.782   3.683   0.579
 1055TIP3    H1 3098   5.773   3.753   0.643
 1055TIP3    H2 3099   5.751   3.720   0.497
 1056TIP3   OH2 3100   4.760   3.611   0.115
 1056TIP3    H1 3101   4.704   3.554   0.064
 1056TIP3    H2 3102   4.842   3.562   0.125
 1057TIP3   OH2 3103   4.894   3.942   0.257
 1057TIP3    H1 3104   4.879   3.978   0.170
 1057TIP3    H2 3105   4.988   3.953   0.272
 1058TIP3   OH2 3106   4.952   3.673   0.376
 1058TIP3    H1 3107   4.963   3.608   0.306
 1058TIP3    H2 3108   4.923   3.752   0.331
 1059TIP3   OH2 3109   5.284   4.192   0.306
 1059TIP3    H1 3110   5.330   4.261   0.260
 1059TIP3    H2 3111   5.353   4.134   0.338
 1060TIP3   OH2 3112   5.029   4.143   0.783
 1060TIP3    H1 3113   4.972   4.209   0.824
 1060TIP3    H2 3114   4.970   4.093   0.726
 1061TIP3   OH2 3115   4.768   3.742   0.829
 1061TIP3    H1 3116   4.793   3.821   0.877
 1061TIP3    H2 3117   4.690   3.710   0.874
 1062TIP3   OH2 3118   4.832   4.324   0.848
 1062TIP3    H1 3119   4.807   4.325   0.755
 1062TIP3    H2 3120   4.750   4.309   0.894
 1063TIP3   OH2 3121   7.414   7.460   6.914
 1063TIP3    H1 3122   7.361   7.515   6.856
 1063TIP3    H2 3123   7.371   7.375   6.912
 1064TIP3   OH2 3124   4.429   3.862   0.797
 1064TIP3    H1 3125   4.358   3.849   0.734
 1064TIP3    H2 3126   4.457   3.774   0.820
 1065TIP3   OH2 3127   4.286   4.061   0.443
 1065TIP3    H1 3128   4.381   4.072   0.450
 1065TIP3    H2 3129   4.250   4.140   0.484
 1066TIP3   OH2 3130   6.105   4.511   0.454
 1066TIP3    H1 3131   6.099   4.423   0.416
 1066TIP3    H2 3132   6.086   4.498   0.547
 1067TIP3   OH2 3133   5.244   4.275   0.679
 1067TIP3    H1 3134   5.234   4.362   0.719
 1067TIP3    H2 3135   5.166   4.227   0.707
 1068TIP3   OH2 3136   4.415   4.239  -0.007
 1068TIP3    H1 3137   4.495   4.240   0.045
 1068TIP3    H2 3138   4.345   4.222   0.056
 1069TIP3   OH2 3139   6.023   3.622   0.777
 1069TIP3    H1 3140   5.942   3.640   0.730
 1069TIP3    H2 3141   6.035   3.527   0.768
 1070TIP3   OH2 3142   4.618   4.060   0.770
 1070TIP3    H1 3143   4.671   4.051   0.849
 1070TIP3    H2 3144   4.550   3.993   0.778
 1071TIP3   OH2 3145   5.018   2.871   0.576
 1071TIP3    H1 3146   4.936   2.837   0.542
 1071TIP3    H2 3147   4.994   2.947   0.628
 1072TIP3   OH2 3148   5.557   2.965   0.762
 1072TIP3    H1 3149   5.626   2.950   0.827
 1072TIP3    H2 3150   5.476   2.950   0.809
 1073TIP3   OH2 3151   5.754   3.412   0.662
 1073TIP3    H1 3152   5.725   3.409   0.753
 1073TIP3    H2 3153   5.749   3.504   0.637
 1074TIP3   OH2 3154   4.990   3.519   0.625
 1074TIP3    H1 3155   4.945   3.489   0.704
 1074TIP3    H2 3156   4.946   3.473   0.554
 1075TIP3   OH2 3157   4.832   3.266   0.113
 1075TIP3    H1 3158   4.742   3.247   0.140
 1075TIP3    H2 3159   4.838   3.233   0.023
 1076TIP3   OH2 3160   5.519   3.646   0.900
 1076TIP3    H1 3161   5.486   3.567   0.945
 1076TIP3    H2 3162   5.611   3.651   0.925
 1077TIP3   OH2 3163   5.482   3.375   0.097
 1077TIP3    H1 3164   5.454   3.434   0.027
 1077TIP3    H2 3165   5.518   3.299   0.052
 1078TIP3   OH2 3166   4.811   3.412   0.811
 1078TIP3    H1 3167   4.774   3.476   0.871
 1078TIP3    H2 3168   4.786   3.327   0.847
 1079TIP3   OH2 3169   4.374   2.934   0.372
 1079TIP3    H1 3170   4.446   2.964   0.427
 1079TIP3    H2 3171   4.416   2.895   0.296
 1080TIP3   OH2 3172   7.138   6.935   6.845
 1080TIP3    H1 3173   7.185   6.970   6.769
 1080TIP3    H2 3174   7.073   7.002   6.865
 1081TIP3   OH2 3175   5.407   3.596   0.525
 1081TIP3    H1 3176   5.465   3.538   0.476
 1081TIP3    H2 3177   5.464   3.641   0.587
 1082TIP3   OH2 3178   5.190   3.083   0.170
 1082TIP3    H1 3179   5.112   3.077   0.226
 1082TIP3    H2 3180   5.263   3.066   0.230
 1083TIP3   OH2 3181   4.595   3.143   0.177
 1083TIP3    H1 3182   4.509   3.151   0.137
 1083TIP3    H2 3183   4.623   3.054   0.156
 1084TIP3   OH2 3184   7.697   7.160   6.804
 1084TIP3    H1 3185   7.792   7.154   6.813
 1084TIP3    H2 3186   7.684   7.211   6.724
 1085TIP3   OH2 3187   5.675   3.151   0.357
 1085TIP3    H1 3188   5.648   3.162   0.448
 1085TIP3    H2 3189   5.611   3.092   0.319
 1086TIP3   OH2 3190   5.923   4.863   0.505
 1086TIP3    H1 3191   5.865   4.930   0.468
 1086TIP3    H2 3192   5.928   4.884   0.598
 1087TIP3   OH2 3193   4.791   3.974   0.991
 1087TIP3    H1 3194   4.873   3.991   1.036
 1087TIP3    H2 3195   4.724   3.974   1.059
 1088TIP3   OH2 3196   5.250   3.412   0.261
 1088TIP3    H1 3197   5.329   3.384   0.215
 1088TIP3    H2 3198   5.257   3.372   0.348
 1089TIP3   OH2 3199   4.752   2.902   0.145
 1089TIP3    H1 3200   4.722   2.825   0.192
 1089TIP3    H2 3201   4.767   2.872   0.055
 1090TIP3   OH2 3202   5.254   3.321   0.543
 1090TIP3    H1 3203   5.239   3.407   0.581
 1090TIP3    H2 3204   5.348   3.308   0.550
 1091TIP3   OH2 3205   5.867   3.842   0.287
 1091TIP3    H1 3206   5.877   3.934   0.309
 1091TIP3    H2 3207   5.773   3.831   0.273
 1092TIP3   OH2 3208   5.355   4.002   0.672
 1092TIP3    H1 3209   5.419   3.996   0.742
 1092TIP3    H2 3210   5.323   4.092   0.677
 1093TIP3   OH2 3211   4.626   3.709   0.338
 1093TIP3    H1 3212   4.679   3.685   0.261
 1093TIP3    H2 3213   4.674   3.672   0.412
 1094TIP3   OH2 3214   4.535   3.624   0.922
 1094TIP3    H1 3215   4.539   3.604   1.016
 1094TIP3    H2 3216   4.456   3.581   0.892
 1095TIP3   OH2 3217   5.293   3.797   0.951
 1095TIP3    H1 3218   5.234   3.745   0.896
 1095TIP3    H2 3219   5.380   3.765   0.930
 1096TIP3   OH2 3220   5.503   4.258   0.596
 1096TIP3    H1 3221   5.409   4.261   0.609
 1096TIP3    H2 3222   5.539   4.317   0.662
 1097TIP3   OH2 3223   6.161   4.182   0.552
 1097TIP3    H1 3224   6.074   4.164   0.516
 1097TIP3    H2 3225   6.214   4.206   0.475
 1098TIP3   OH2 3226   5.604   3.768   0.277
 1098TIP3    H1 3227   5.511   3.783   0.260
 1098TIP3    H2 3228   5.629   3.701   0.214
 1099TIP3   OH2 3229   4.786   4.042   0.010
 1099TIP3    H1 3230   4.807   4.121  -0.040
 1099TIP3    H2 3231   4.698   4.057   0.044
 1100TIP3   OH2 3232   7.161   7.340   6.639
 1100TIP3    H1 3233   7.169   7.425   6.597
 1100TIP3    H2 3234   7.074   7.342   6.680
 1101TIP3   OH2 3235   7.678   7.795   6.849
 1101TIP3    H1 3236   7.662   7.885   6.879
 1101TIP3    H2 3237   7.647   7.740   6.921
 1102TIP3   OH2 3238   5.027   4.274   0.387
 1102TIP3    H1 3239   5.050   4.367   0.396
 1102TIP3    H2 3240   5.111   4.230   0.372
 1103TIP3   OH2 3241   5.433   3.984   0.403
 1103TIP3    H1 3242   5.408   3.982   0.495
 1103TIP3    H2 3243   5.527   3.969   0.403
 1104TIP3   OH2 3244   5.589   4.507   0.472
 1104TIP3    H1 3245   5.630   4.449   0.536
 1104TIP3    H2 3246   5.611   4.469   0.387
 1105TIP3   OH2 3247   4.730   3.171   0.932
 1105TIP3    H1 3248   4.636   3.182   0.940
 1105TIP3    H2 3249   4.755   3.126   1.013
 1106TIP3   OH2 3250   4.480   4.256   0.584
 1106TIP3    H1 3251   4.531   4.193   0.636
 1106TIP3    H2 3252   4.489   4.339   0.631
 1107TIP3   OH2 3253   5.575   3.199   0.604
 1107TIP3    H1 3254   5.633   3.263   0.645
 1107TIP3    H2 3255   5.570   3.127   0.667
 1108TIP3   OH2 3256   7.969   7.151   6.849
 1108TIP3    H1 3257   8.035   7.215   6.823
 1108TIP3    H2 3258   7.986   7.136   6.942
 1109TIP3   OH2 3259   5.307   2.867   0.013
 1109TIP3    H1 3260   5.289   2.940   0.072
 1109TIP3    H2 3261   5.381   2.896  -0.040
 1110TIP3   OH2 3262   7.629   6.878   6.786
 1110TIP3    H1 3263   7.617   6.973   6.785
 1110TIP3    H2 3264   7.723   6.866   6.777
 1111TIP3   OH2 3265   6.025   3.358   0.677
 1111TIP3    H1 3266   5.929   3.363   0.676
 1111TIP3    H2 3267   6.047   3.304   0.600
 1112TIP3   OH2 3268   5.691   3.564   0.113
 1112TIP3    H1 3269   5.636   3.486   0.107
 1112TIP3    H2 3270   5.778   3.531   0.135
 1113TIP3   OH2 3271   7.211   7.070   6.621
 1113TIP3    H1 3272   7.204   7.166   6.629
 1113TIP3    H2 3273   7.188   7.053   6.530
 1114TIP3   OH2 3274   4.759   2.788   0.527
 1114TIP3    H1 3275   4.730   2.755   0.442
 1114TIP3    H2 3276   4.748   2.714   0.587
 1115TIP3   OH2 3277   1.443  -0.012   6.902
 1115TIP3    H1 3278   1.398   0.024   6.979
 1115TIP3    H2 3279   1.503   0.057   6.875
 1116TIP3   OH2 3280   4.477   4.570   1.000
 1116TIP3    H1 3281   4.558   4.575   1.051
 1116TIP3    H2 3282   4.461   4.476   0.990
 1117TIP3   OH2 3283   4.942   4.491   1.037
 1117TIP3    H1 3284   5.032   4.461   1.050
 1117TIP3    H2 3285   4.908   4.435   0.967
 1118TIP3   OH2 3286   5.574   4.429   0.799
 1118TIP3    H1 3287   5.571   4.355   0.860
 1118TIP3    H2 3288   5.652   4.478   0.825
 1119TIP3   OH2 3289   4.588   3.966   1.183
 1119TIP3    H1 3290   4.609   3.873   1.193
 1119TIP3    H2 3291   4.499   3.966   1.147
 1120TIP3   OH2 3292   5.211   4.066   0.974
 1120TIP3    H1 3293   5.159   4.078   0.895
 1120TIP3    H2 3294   5.255   3.982   0.961
 1121TIP3   OH2 3295   5.661   4.036   0.565
 1121TIP3    H1 3296   5.734   4.063   0.509
 1121TIP3    H2 3297   5.606   4.114   0.573
 1122TIP3   OH2 3298   4.717   3.710   1.183
 1122TIP3    H1 3299   4.794   3.658   1.158
 1122TIP3    H2 3300   4.734   3.735   1.274
 1123TIP3   OH2 3301   5.561   3.967   0.937
 1123TIP3    H1 3302   5.632   3.931   0.885
 1123TIP3    H2 3303   5.561   3.915   1.017
 1124TIP3   OH2 3304   5.147   3.351   0.956
 1124TIP3    H1 3305   5.184   3.273   0.916
 1124TIP3    H2 3306   5.063   3.364   0.912
 1125TIP3   OH2 3307   5.172   3.145   0.759
 1125TIP3    H1 3308   5.198   3.187   0.677
 1125TIP3    H2 3309   5.079   3.123   0.746
 1126TIP3   OH2 3310   5.778   3.660   1.014
 1126TIP3    H1 3311   5.832   3.581   1.019
 1126TIP3    H2 3312   5.840   3.731   1.004
 1127TIP3   OH2 3313   5.788   3.902   0.760
 1127TIP3    H1 3314   5.736   3.955   0.699
 1127TIP3    H2 3315   5.879   3.915   0.732
 1128TIP3   OH2 3316   5.041   3.463   1.193
 1128TIP3    H1 3317   4.980   3.395   1.221
 1128TIP3    H2 3318   5.079   3.429   1.113
 1129TIP3   OH2 3319   5.296   2.913   0.851
 1129TIP3    H1 3320   5.254   2.994   0.821
 1129TIP3    H2 3321   5.227   2.846   0.843
 1130TIP3   OH2 3322   5.423   3.427   1.042
 1130TIP3    H1 3323   5.436   3.406   1.134
 1130TIP3    H2 3324   5.332   3.403   1.024
 1131TIP3   OH2 3325   5.672   3.363   0.914
 1131TIP3    H1 3326   5.593   3.369   0.968
 1131TIP3    H2 3327   5.742   3.343   0.977
 1132TIP3   OH2 3328   5.904   3.324   1.076
 1132TIP3    H1 3329   5.912   3.229   1.086
 1132TIP3    H2 3330   5.897   3.357   1.165
 1133TIP3   OH2 3331   4.900   3.226   1.261
 1133TIP3    H1 3332   4.902   3.136   1.228
 1133TIP3    H2 3333   4.937   3.220   1.349
 1134TIP3   OH2 3334   5.365   2.930   1.117
 1134TIP3    H1 3335   5.442   2.872   1.121
 1134TIP3    H2 3336   5.336   2.924   1.026
 1135TIP3   OH2 3337   5.469   3.169   1.206
 1135TIP3    H1 3338   5.438   3.083   1.178
 1135TIP3    H2 3339   5.390   3.214   1.238
 1136TIP3   OH2 3340   4.069   4.329   0.006
 1136TIP3    H1 3341   4.004   4.275  -0.039
 1136TIP3    H2 3342   4.108   4.270   0.071
 1137TIP3   OH2 3343   4.226   4.182   0.191
 1137TIP3    H1 3344   4.212   4.111   0.253
 1137TIP3    H2 3345   4.267   4.252   0.242
 1138TIP3   OH2 3346   5.895   4.651   0.306
 1138TIP3    H1 3347   5.908   4.556   0.294
 1138TIP3    H2 3348   5.980   4.683   0.335
 1139TIP3   OH2 3349   5.980   4.229   0.921
 1139TIP3    H1 3350   5.920   4.273   0.982
 1139TIP3    H2 3351   6.005   4.298   0.859
 1140TIP3   OH2 3352   4.412   3.613   0.556
 1140TIP3    H1 3353   4.395   3.580   0.468
 1140TIP3    H2 3354   4.507   3.625   0.560
 1141TIP3   OH2 3355   6.042   3.934   0.665
 1141TIP3    H1 3356   6.112   3.872   0.644
 1141TIP3    H2 3357   6.042   3.996   0.592
 1142TIP3   OH2 3358   6.233   3.740   0.651
 1142TIP3    H1 3359   6.165   3.697   0.702
 1142TIP3    H2 3360   6.312   3.688   0.668
 1143TIP3   OH2 3361   5.931   3.436   0.189
 1143TIP3    H1 3362   5.997   3.479   0.135
 1143TIP3    H2 3363   5.947   3.469   0.277
 1144TIP3   OH2 3364   6.004   3.570   0.421
 1144TIP3    H1 3365   5.933   3.604   0.477
 1144TIP3    H2 3366   6.045   3.649   0.385
 1145TIP3   OH2 3367   4.641   3.321   1.238
 1145TIP3    H1 3368   4.734   3.300   1.248
 1145TIP3    H2 3369   4.597   3.237   1.251
 1146TIP3   OH2 3370   6.460   3.187   0.968
 1146TIP3    H1 3371   6.522   3.128   0.926
 1146TIP3    H2 3372   6.421   3.236   0.896
 1147TIP3   OH2 3373   4.581   2.999   0.543
 1147TIP3    H1 3374   4.636   2.921   0.551
 1147TIP3    H2 3375   4.644   3.071   0.532
 1148TIP3   OH2 3376   4.372   3.264   0.621
 1148TIP3    H1 3377   4.422   3.262   0.539
 1148TIP3    H2 3378   4.379   3.355   0.651
 1149TIP3   OH2 3379   6.304   3.305   0.779
 1149TIP3    H1 3380   6.235   3.347   0.829
 1149TIP3    H2 3381   6.259   3.240   0.726
 1150TIP3   OH2 3382   4.365   2.781   0.126
 1150TIP3    H1 3383   4.279   2.774   0.166
 1150TIP3    H2 3384   4.353   2.839   0.051
 1151TIP3   OH2 3385   4.577   2.833   0.937
 1151TIP3    H1 3386   4.529   2.826   1.019
 1151TIP3    H2 3387   4.518   2.881   0.879
 1152TIP3   OH2 3388   4.610   4.291   1.014
 1152TIP3    H1 3389   4.517   4.268   1.005
 1152TIP3    H2 3390   4.630   4.275   1.106
 1153TIP3   OH2 3391   4.814   4.313   0.564
 1153TIP3    H1 3392   4.763   4.383   0.524
 1153TIP3    H2 3393   4.891   4.304   0.508
 1154TIP3   OH2 3394   5.232   4.551   0.734
 1154TIP3    H1 3395   5.281   4.552   0.816
 1154TIP3    H2 3396   5.284   4.606   0.675
 1155TIP3   OH2 3397   5.402   4.687   0.562
 1155TIP3    H1 3398   5.464   4.620   0.533
 1155TIP3    H2 3399   5.441   4.721   0.643
 1156TIP3   OH2 3400   6.210   3.048   0.679
 1156TIP3    H1 3401   6.121   3.022   0.654
 1156TIP3    H2 3402   6.262   2.968   0.669
 1157TIP3   OH2 3403   4.466   4.576   0.615
 1157TIP3    H1 3404   4.375   4.596   0.594
 1157TIP3    H2 3405   4.492   4.644   0.679
 1158TIP3   OH2 3406   4.674   4.522   0.453
 1158TIP3    H1 3407   4.594   4.537   0.502
 1158TIP3    H2 3408   4.654   4.551   0.364
 1159TIP3   OH2 3409   5.161   4.577   0.153
 1159TIP3    H1 3410   5.071   4.569   0.123
 1159TIP3    H2 3411   5.155   4.617   0.240
 1160TIP3   OH2 3412   5.385   4.447   0.217
 1160TIP3    H1 3413   5.302   4.467   0.176
 1160TIP3    H2 3414   5.426   4.532   0.232
 1161TIP3   OH2 3415   4.406   4.346   0.331
 1161TIP3    H1 3416   4.425   4.321   0.421
 1161TIP3    H2 3417   4.480   4.313   0.281
 1162TIP3   OH2 3418   4.607   4.226   0.188
 1162TIP3    H1 3419   4.614   4.148   0.244
 1162TIP3    H2 3420   4.696   4.261   0.185
 1163TIP3   OH2 3421   4.865   4.311   0.164
 1163TIP3    H1 3422   4.930   4.312   0.094
 1163TIP3    H2 3423   4.917   4.297   0.244
 1164TIP3   OH2 3424   5.415   2.966   0.283
 1164TIP3    H1 3425   5.385   2.896   0.340
 1164TIP3    H2 3426   5.489   2.928   0.234
 1165TIP3   OH2 3427   5.926   2.880   0.162
 1165TIP3    H1 3428   5.968   2.962   0.138
 1165TIP3    H2 3429   5.833   2.902   0.170
 1166TIP3   OH2 3430   4.671   2.680   0.289
 1166TIP3    H1 3431   4.582   2.647   0.303
 1166TIP3    H2 3432   4.725   2.602   0.285
 1167TIP3   OH2 3433   7.263   6.575   6.900
 1167TIP3    H1 3434   7.322   6.614   6.836
 1167TIP3    H2 3435   7.256   6.641   6.970
 1168TIP3   OH2 3436   5.145   2.720   0.192
 1168TIP3    H1 3437   5.196   2.773   0.130
 1168TIP3    H2 3438   5.179   2.744   0.278
 1169TIP3   OH2 3439   5.642   2.869   0.144
 1169TIP3    H1 3440   5.668   2.825   0.064
 1169TIP3    H2 3441   5.635   2.800   0.209
 1170TIP3   OH2 3442   7.423   6.692   6.717
 1170TIP3    H1 3443   7.464   6.611   6.685
 1170TIP3    H2 3444   7.496   6.753   6.727
 1171TIP3   OH2 3445   7.903   6.887   6.783
 1171TIP3    H1 3446   7.970   6.842   6.835
 1171TIP3    H2 3447   7.926   6.979   6.790
 1172TIP3   OH2 3448   4.910   2.950   1.192
 1172TIP3    H1 3449   4.865   2.884   1.246
 1172TIP3    H2 3450   5.000   2.950   1.225
 1173TIP3   OH2 3451   5.165   2.946   1.314
 1173TIP3    H1 3452   5.234   2.950   1.247
 1173TIP3    H2 3453   5.189   2.872   1.369
 1174TIP3   OH2 3454   5.962   3.046   1.085
 1174TIP3    H1 3455   5.974   3.016   1.175
 1174TIP3    H2 3456   6.050   3.050   1.049
 1175TIP3   OH2 3457   5.884   4.623   0.638
 1175TIP3    H1 3458   5.854   4.541   0.599
 1175TIP3    H2 3459   5.906   4.678   0.563
 1176TIP3   OH2 3460   6.674   3.334   0.205
 1176TIP3    H1 3461   6.641   3.414   0.164
 1176TIP3    H2 3462   6.632   3.331   0.290
 1177TIP3   OH2 3463   6.615   3.948   0.407
 1177TIP3    H1 3464   6.620   4.039   0.435
 1177TIP3    H2 3465   6.522   3.927   0.408
 1178TIP3   OH2 3466   6.259   4.024   0.211
 1178TIP3    H1 3467   6.324   4.063   0.152
 1178TIP3    H2 3468   6.309   4.000   0.289
 1179TIP3   OH2 3469   6.502   4.252   0.254
 1179TIP3    H1 3470   6.550   4.237   0.335
 1179TIP3    H2 3471   6.413   4.274   0.282
 1180TIP3   OH2 3472   7.314   3.129   0.277
 1180TIP3    H1 3473   7.352   3.211   0.248
 1180TIP3    H2 3474   7.232   3.154   0.319
 1181TIP3   OH2 3475   7.265   3.880   0.394
 1181TIP3    H1 3476   7.255   3.802   0.449
 1181TIP3    H2 3477   7.351   3.870   0.353
 1182TIP3   OH2 3478   6.602   3.625   0.282
 1182TIP3    H1 3479   6.591   3.709   0.325
 1182TIP3    H2 3480   6.579   3.560   0.349
 1183TIP3   OH2 3481   6.595   4.201   0.511
 1183TIP3    H1 3482   6.673   4.220   0.563
 1183TIP3    H2 3483   6.528   4.260   0.546
 1184TIP3   OH2 3484   6.351   3.895   0.440
 1184TIP3    H1 3485   6.360   3.886   0.535
 1184TIP3    H2 3486   6.277   3.839   0.417
 1185TIP3   OH2 3487   7.036   4.010   0.464
 1185TIP3    H1 3488   6.975   3.954   0.416
 1185TIP3    H2 3489   7.123   3.985   0.432
 1186TIP3   OH2 3490   6.537   3.400   0.437
 1186TIP3    H1 3491   6.442   3.408   0.447
 1186TIP3    H2 3492   6.567   3.359   0.519
 1187TIP3   OH2 3493   6.207   4.759   0.409
 1187TIP3    H1 3494   6.301   4.770   0.419
 1187TIP3    H2 3495   6.192   4.665   0.412
 1188TIP3   OH2 3496   6.710   4.668   0.502
 1188TIP3    H1 3497   6.736   4.713   0.582
 1188TIP3    H2 3498   6.792   4.633   0.467
 1189TIP3   OH2 3499   6.362   4.165   0.735
 1189TIP3    H1 3500   6.406   4.082   0.718
 1189TIP3    H2 3501   6.290   4.168   0.671
 1190TIP3   OH2 3502   6.988   4.287   0.421
 1190TIP3    H1 3503   6.946   4.264   0.338
 1190TIP3    H2 3504   7.054   4.219   0.434
 1191TIP3   OH2 3505   6.513   3.929   0.692
 1191TIP3    H1 3506   6.587   3.931   0.631
 1191TIP3    H2 3507   6.547   3.966   0.773
 1192TIP3   OH2 3508   6.856   3.858   0.318
 1192TIP3    H1 3509   6.773   3.888   0.355
 1192TIP3    H2 3510   6.845   3.866   0.224
 1193TIP3   OH2 3511   7.260   4.208   0.469
 1193TIP3    H1 3512   7.312   4.287   0.457
 1193TIP3    H2 3513   7.309   4.155   0.531
 1194TIP3   OH2 3514   6.955   3.638   0.450
 1194TIP3    H1 3515   6.946   3.563   0.390
 1194TIP3    H2 3516   6.926   3.713   0.399
 1195TIP3   OH2 3517   6.930   3.427   0.270
 1195TIP3    H1 3518   6.978   3.390   0.195
 1195TIP3    H2 3519   6.838   3.408   0.251
 1196TIP3   OH2 3520   7.590   3.896   0.566
 1196TIP3    H1 3521   7.550   3.821   0.522
 1196TIP3    H2 3522   7.650   3.932   0.500
 1197TIP3   OH2 3523   6.841   3.716   0.693
 1197TIP3    H1 3524   6.771   3.653   0.712
 1197TIP3    H2 3525   6.869   3.694   0.604
 1198TIP3   OH2 3526   7.075   3.219   0.384
 1198TIP3    H1 3527   7.031   3.300   0.357
 1198TIP3    H2 3528   7.009   3.151   0.372
 1199TIP3   OH2 3529   7.219   3.646   0.544
 1199TIP3    H1 3530   7.204   3.645   0.638
 1199TIP3    H2 3531   7.131   3.638   0.506
 1200TIP3   OH2 3532   7.477   3.682   0.441
 1200TIP3    H1 3533   7.395   3.649   0.479
 1200TIP3    H2 3534   7.543   3.617   0.467
 1201TIP3   OH2 3535   7.689   3.545   0.553
 1201TIP3    H1 3536   7.709   3.456   0.584
 1201TIP3    H2 3537   7.698   3.600   0.631
 1202TIP3   OH2 3538   6.676   3.499   0.763
 1202TIP3    H1 3539   6.682   3.408   0.734
 1202TIP3    H2 3540   6.714   3.499   0.851
 1203TIP3   OH2 3541   7.163   3.168   0.637
 1203TIP3    H1 3542   7.244   3.119   0.621
 1203TIP3    H2 3543   7.126   3.181   0.550
 1204TIP3   OH2 3544   7.250   3.393   0.760
 1204TIP3    H1 3545   7.216   3.318   0.712
 1204TIP3    H2 3546   7.178   3.456   0.760
 1205TIP3   OH2 3547   6.415   3.539   0.688
 1205TIP3    H1 3548   6.508   3.543   0.712
 1205TIP3    H2 3549   6.382   3.460   0.730
 1206TIP3   OH2 3550   6.372   3.107   0.453
 1206TIP3    H1 3551   6.322   3.087   0.532
 1206TIP3    H2 3552   6.306   3.139   0.390
 1207TIP3   OH2 3553   6.403   4.403   0.520
 1207TIP3    H1 3554   6.325   4.381   0.470
 1207TIP3    H2 3555   6.437   4.483   0.478
 1208TIP3   OH2 3556   6.687   3.231   0.694
 1208TIP3    H1 3557   6.654   3.157   0.746
 1208TIP3    H2 3558   6.780   3.235   0.716
 1209TIP3   OH2 3559   6.940   3.225   0.800
 1209TIP3    H1 3560   7.016   3.200   0.748
 1209TIP3    H2 3561   6.926   3.150   0.858
 1210TIP3   OH2 3562   0.448   4.298   1.469
 1210TIP3    H1 3563   0.470   4.378   1.517
 1210TIP3    H2 3564   0.474   4.317   1.379
 1211TIP3   OH2 3565   8.400   4.477   1.465
 1211TIP3    H1 3566   8.414   4.385   1.488
 1211TIP3    H2 3567   8.477   4.500   1.412
 1212TIP3   OH2 3568   0.517   4.508   1.638
 1212TIP3    H1 3569   0.431   4.549   1.629
 1212TIP3    H2 3570   0.555   4.550   1.715
 1213TIP3   OH2 3571   0.056   4.236   1.277
 1213TIP3    H1 3572   0.109   4.183   1.338
 1213TIP3    H2 3573   0.086   4.325   1.292
 1214TIP3   OH2 3574   0.236   4.203   1.634
 1214TIP3    H1 3575   0.149   4.222   1.601
 1214TIP3    H2 3576   0.295   4.232   1.564
 1215TIP3   OH2 3577   0.134   5.244   1.599
 1215TIP3    H1 3578   0.140   5.157   1.560
 1215TIP3    H2 3579   0.112   5.301   1.526
 1216TIP3   OH2 3580   0.349   4.845   1.467
 1216TIP3    H1 3581   0.271   4.899   1.481
 1216TIP3    H2 3582   0.376   4.863   1.377
 1217TIP3   OH2 3583   0.085   4.747   1.782
 1217TIP3    H1 3584   0.065   4.827   1.830
 1217TIP3    H2 3585   0.002   4.721   1.742
 1218TIP3   OH2 3586   0.420   5.541   1.710
 1218TIP3    H1 3587   0.417   5.445   1.709
 1218TIP3    H2 3588   0.331   5.568   1.732
 1219TIP3   OH2 3589   0.278   4.677   1.966
 1219TIP3    H1 3590   0.207   4.695   1.903
 1219TIP3    H2 3591   0.296   4.583   1.954
 1220TIP3   OH2 3592   8.372   4.028   1.935
 1220TIP3    H1 3593   8.436   4.007   2.003
 1220TIP3    H2 3594   8.292   4.048   1.983
 1221TIP3   OH2 3595   0.035   4.453   1.843
 1221TIP3    H1 3596   0.006   4.454   1.935
 1221TIP3    H2 3597  -0.003   4.532   1.805
 1222TIP3   OH2 3598   8.354   4.699   2.059
 1222TIP3    H1 3599   8.309   4.626   2.102
 1222TIP3    H2 3600   8.443   4.697   2.095
 1223TIP3   OH2 3601   8.357   4.634   1.689
 1223TIP3    H1 3602   8.357   4.586   1.607
 1223TIP3    H2 3603   8.277   4.687   1.687
 1224TIP3   OH2 3604   8.458   4.216   1.558
 1224TIP3    H1 3605   8.409   4.226   1.640
 1224TIP3    H2 3606   8.404   4.158   1.505
 1225TIP3   OH2 3607   8.081   4.287   1.696
 1225TIP3    H1 3608   8.064   4.381   1.694
 1225TIP3    H2 3609   8.174   4.281   1.720
 1226TIP3   OH2 3610   0.119   4.998   1.478
 1226TIP3    H1 3611   0.124   5.009   1.383
 1226TIP3    H2 3612   0.028   4.974   1.495
 1227TIP3   OH2 3613   8.050   4.850   2.158
 1227TIP3    H1 3614   7.959   4.843   2.130
 1227TIP3    H2 3615   8.091   4.909   2.095
 1228TIP3   OH2 3616   0.392   5.260   1.701
 1228TIP3    H1 3617   0.298   5.264   1.687
 1228TIP3    H2 3618   0.428   5.235   1.616
 1229TIP3   OH2 3619   8.340   4.265   1.800
 1229TIP3    H1 3620   8.421   4.314   1.818
 1229TIP3    H2 3621   8.351   4.183   1.849
 1230TIP3   OH2 3622   8.210   4.499   1.902
 1230TIP3    H1 3623   8.268   4.573   1.888
 1230TIP3    H2 3624   8.261   4.423   1.873
 1231TIP3   OH2 3625   0.303   4.412   1.856
 1231TIP3    H1 3626   0.208   4.417   1.855
 1231TIP3    H2 3627   0.325   4.367   1.775
 1232TIP3   OH2 3628   8.324   5.526   1.990
 1232TIP3    H1 3629   8.282   5.505   2.074
 1232TIP3    H2 3630   8.403   5.574   2.015
 1233TIP3   OH2 3631   8.445   5.083   1.744
 1233TIP3    H1 3632   8.496   5.150   1.699
 1233TIP3    H2 3633   8.354   5.103   1.724
 1234TIP3   OH2 3634   8.381   5.028   2.207
 1234TIP3    H1 3635   8.435   5.045   2.130
 1234TIP3    H2 3636   8.380   4.933   2.216
 1235TIP3   OH2 3637   7.875   4.112   1.837
 1235TIP3    H1 3638   7.913   4.139   1.754
 1235TIP3    H2 3639   7.881   4.190   1.892
 1236TIP3   OH2 3640   0.093   4.676   2.199
 1236TIP3    H1 3641   0.117   4.584   2.206
 1236TIP3    H2 3642   0.164   4.716   2.149
 1237TIP3   OH2 3643   0.082   4.980   1.955
 1237TIP3    H1 3644   0.019   5.018   1.893
 1237TIP3    H2 3645   0.167   4.991   1.913
 1238TIP3   OH2 3646   8.059   3.867   2.008
 1238TIP3    H1 3647   8.079   3.958   1.984
 1238TIP3    H2 3648   7.989   3.841   1.949
 1239TIP3   OH2 3649   8.187   4.418   2.192
 1239TIP3    H1 3650   8.196   4.489   2.255
 1239TIP3    H2 3651   8.136   4.456   2.121
 1240TIP3   OH2 3652   8.448   4.410   2.094
 1240TIP3    H1 3653   8.365   4.388   2.136
 1240TIP3    H2 3654   8.514   4.382   2.157
 1241TIP3   OH2 3655   0.168   4.366   2.259
 1241TIP3    H1 3656   0.178   4.272   2.267
 1241TIP3    H2 3657   0.159   4.398   2.349
 1242TIP3   OH2 3658   8.248   3.987   2.201
 1242TIP3    H1 3659   8.292   3.902   2.207
 1242TIP3    H2 3660   8.166   3.969   2.155
 1243TIP3   OH2 3661   8.271   4.187   2.388
 1243TIP3    H1 3662   8.270   4.123   2.316
 1243TIP3    H2 3663   8.183   4.181   2.426
 1244TIP3   OH2 3664   0.251   5.358   2.015
 1244TIP3    H1 3665   0.200   5.372   2.094
 1244TIP3    H2 3666   0.307   5.435   2.008
 1245TIP3   OH2 3667   0.326   5.016   1.833
 1245TIP3    H1 3668   0.384   4.942   1.815
 1245TIP3    H2 3669   0.354   5.085   1.772
 1246TIP3   OH2 3670   0.484   4.794   1.827
 1246TIP3    H1 3671   0.414   4.753   1.877
 1246TIP3    H2 3672   0.561   4.740   1.844
 1247TIP3   OH2 3673   0.171   4.475   1.381
 1247TIP3    H1 3674   0.248   4.495   1.327
 1247TIP3    H2 3675   0.192   4.513   1.467
 1248TIP3   OH2 3676   0.265   4.623   1.604
 1248TIP3    H1 3677   0.202   4.658   1.667
 1248TIP3    H2 3678   0.296   4.699   1.555
 1249TIP3   OH2 3679   0.714   4.230   2.142
 1249TIP3    H1 3680   0.776   4.172   2.097
 1249TIP3    H2 3681   0.673   4.281   2.072
 1250TIP3   OH2 3682   0.561   4.343   1.948
 1250TIP3    H1 3683   0.477   4.386   1.964
 1250TIP3    H2 3684   0.539   4.269   1.891
 1251TIP3   OH2 3685   0.474   4.102   1.836
 1251TIP3    H1 3686   0.385   4.091   1.803
 1251TIP3    H2 3687   0.513   4.015   1.830
 1252TIP3   OH2 3688   0.174   3.966   1.383
 1252TIP3    H1 3689   0.233   3.989   1.311
 1252TIP3    H2 3690   0.087   3.963   1.342
 1253TIP3   OH2 3691   0.315   4.021   1.159
 1253TIP3    H1 3692   0.309   3.968   1.079
 1253TIP3    H2 3693   0.358   4.102   1.132
 1254TIP3   OH2 3694   0.232   4.100   2.274
 1254TIP3    H1 3695   0.252   4.070   2.363
 1254TIP3    H2 3696   0.316   4.095   2.228
 1255TIP3   OH2 3697   0.154   5.596   1.766
 1255TIP3    H1 3698   0.090   5.525   1.767
 1255TIP3    H2 3699   0.106   5.672   1.733
 1256TIP3   OH2 3700   1.410   4.982   0.527
 1256TIP3    H1 3701   1.389   5.075   0.521
 1256TIP3    H2 3702   1.340   4.938   0.479
 1257TIP3   OH2 3703   1.426   5.018   0.932
 1257TIP3    H1 3704   1.470   4.998   1.014
 1257TIP3    H2 3705   1.378   4.938   0.910
 1258TIP3   OH2 3706   0.705   4.874   1.282
 1258TIP3    H1 3707   0.740   4.821   1.353
 1258TIP3    H2 3708   0.781   4.892   1.226
 1259TIP3   OH2 3709   1.680   5.318   0.623
 1259TIP3    H1 3710   1.669   5.248   0.688
 1259TIP3    H2 3711   1.702   5.395   0.675
 1260TIP3   OH2 3712   0.729   5.332   1.040
 1260TIP3    H1 3713   0.721   5.237   1.042
 1260TIP3    H2 3714   0.817   5.348   1.005
 1261TIP3   OH2 3715   0.495   4.800   0.958
 1261TIP3    H1 3716   0.518   4.715   0.996
 1261TIP3    H2 3717   0.576   4.832   0.918
 1262TIP3   OH2 3718   1.428   5.749   0.693
 1262TIP3    H1 3719   1.471   5.712   0.616
 1262TIP3    H2 3720   1.442   5.684   0.762
 1263TIP3   OH2 3721   1.228   5.221   0.950
 1263TIP3    H1 3722   1.274   5.140   0.929
 1263TIP3    H2 3723   1.297   5.284   0.971
 1264TIP3   OH2 3724   2.242   4.557   0.955
 1264TIP3    H1 3725   2.262   4.639   0.999
 1264TIP3    H2 3726   2.254   4.576   0.862
 1265TIP3   OH2 3727   1.623   4.711   0.982
 1265TIP3    H1 3728   1.661   4.627   1.006
 1265TIP3    H2 3729   1.586   4.696   0.895
 1266TIP3   OH2 3730   0.982   4.409   0.965
 1266TIP3    H1 3731   0.955   4.477   0.903
 1266TIP3    H2 3732   0.940   4.329   0.932
 1267TIP3   OH2 3733   1.689   4.519   0.577
 1267TIP3    H1 3734   1.756   4.500   0.643
 1267TIP3    H2 3735   1.738   4.545   0.499
 1268TIP3   OH2 3736   0.597   4.567   1.064
 1268TIP3    H1 3737   0.678   4.558   1.114
 1268TIP3    H2 3738   0.612   4.515   0.984
 1269TIP3   OH2 3739   1.032   4.811   0.876
 1269TIP3    H1 3740   1.126   4.794   0.875
 1269TIP3    H2 3741   0.993   4.728   0.849
 1270TIP3   OH2 3742   2.305   4.776   1.120
 1270TIP3    H1 3743   2.216   4.811   1.113
 1270TIP3    H2 3744   2.337   4.808   1.204
 1271TIP3   OH2 3745   0.962   4.370   1.398
 1271TIP3    H1 3746   0.920   4.424   1.331
 1271TIP3    H2 3747   0.917   4.392   1.479
 1272TIP3   OH2 3748   1.337   5.231   0.442
 1272TIP3    H1 3749   1.320   5.214   0.349
 1272TIP3    H2 3750   1.400   5.304   0.442
 1273TIP3   OH2 3751   1.068   5.137   1.169
 1273TIP3    H1 3752   1.012   5.204   1.207
 1273TIP3    H2 3753   1.106   5.178   1.091
 1274TIP3   OH2 3754   1.857   4.499   0.789
 1274TIP3    H1 3755   1.813   4.472   0.870
 1274TIP3    H2 3756   1.906   4.577   0.813
 1275TIP3   OH2 3757   0.845   4.512   1.186
 1275TIP3    H1 3758   0.882   4.596   1.212
 1275TIP3    H2 3759   0.903   4.481   1.117
 1276TIP3   OH2 3760   0.915   5.335   1.286
 1276TIP3    H1 3761   0.893   5.416   1.239
 1276TIP3    H2 3762   0.839   5.318   1.341
 1277TIP3   OH2 3763   1.719   5.562   0.757
 1277TIP3    H1 3764   1.636   5.560   0.804
 1277TIP3    H2 3765   1.721   5.648   0.714
 1278TIP3   OH2 3766   2.039   4.448   1.122
 1278TIP3    H1 3767   1.952   4.467   1.087
 1278TIP3    H2 3768   2.099   4.476   1.054
 1279TIP3   OH2 3769   1.306   4.101   1.112
 1279TIP3    H1 3770   1.296   4.009   1.138
 1279TIP3    H2 3771   1.230   4.145   1.149
 1280TIP3   OH2 3772   1.545   5.654   0.460
 1280TIP3    H1 3773   1.538   5.561   0.436
 1280TIP3    H2 3774   1.639   5.671   0.464
 1281TIP3   OH2 3775   1.561   5.392   0.392
 1281TIP3    H1 3776   1.595   5.338   0.321
 1281TIP3    H2 3777   1.606   5.359   0.470
 1282TIP3   OH2 3778   1.960   5.451   1.098
 1282TIP3    H1 3779   1.928   5.377   1.046
 1282TIP3    H2 3780   1.943   5.528   1.043
 1283TIP3   OH2 3781   1.242   4.855   0.336
 1283TIP3    H1 3782   1.189   4.792   0.286
 1283TIP3    H2 3783   1.308   4.884   0.273
 1284TIP3   OH2 3784   1.131   4.649   0.192
 1284TIP3    H1 3785   1.170   4.575   0.238
 1284TIP3    H2 3786   1.054   4.611   0.148
 1285TIP3   OH2 3787   2.133   5.118   0.954
 1285TIP3    H1 3788   2.047   5.162   0.956
 1285TIP3    H2 3789   2.165   5.133   0.865
 1286TIP3   OH2 3790   1.631   4.988   0.362
 1286TIP3    H1 3791   1.565   4.984   0.431
 1286TIP3    H2 3792   1.707   4.944   0.399
 1287TIP3   OH2 3793   1.835   4.982   1.255
 1287TIP3    H1 3794   1.830   5.061   1.309
 1287TIP3    H2 3795   1.752   4.978   1.209
 1288TIP3   OH2 3796   0.811   4.936   0.756
 1288TIP3    H1 3797   0.802   4.880   0.679
 1288TIP3    H2 3798   0.895   4.911   0.795
 1289TIP3   OH2 3799   0.976   5.336   0.924
 1289TIP3    H1 3800   0.959   5.374   0.838
 1289TIP3    H2 3801   1.062   5.296   0.916
 1290TIP3   OH2 3802   0.917   4.916   1.106
 1290TIP3    H1 3803   0.963   4.879   1.031
 1290TIP3    H2 3804   0.975   4.985   1.138
 1291TIP3   OH2 3805   1.489   5.574   0.900
 1291TIP3    H1 3806   1.482   5.636   0.972
 1291TIP3    H2 3807   1.476   5.488   0.940
 1292TIP3   OH2 3808   1.112   5.464   1.425
 1292TIP3    H1 3809   1.053   5.525   1.469
 1292TIP3    H2 3810   1.054   5.406   1.375
 1293TIP3   OH2 3811   1.443   4.936   0.170
 1293TIP3    H1 3812   1.518   4.944   0.228
 1293TIP3    H2 3813   1.479   4.956   0.083
 1294TIP3   OH2 3814   0.849   4.995   1.599
 1294TIP3    H1 3815   0.862   5.090   1.599
 1294TIP3    H2 3816   0.758   4.984   1.571
 1295TIP3   OH2 3817   0.898   5.621   1.507
 1295TIP3    H1 3818   0.869   5.614   1.416
 1295TIP3    H2 3819   0.821   5.596   1.559
 1296TIP3   OH2 3820   2.032   4.089   0.300
 1296TIP3    H1 3821   1.942   4.090   0.331
 1296TIP3    H2 3822   2.036   4.159   0.235
 1297TIP3   OH2 3823   0.477   5.180   1.458
 1297TIP3    H1 3824   0.430   5.185   1.375
 1297TIP3    H2 3825   0.503   5.088   1.465
 1298TIP3   OH2 3826   2.186   5.832   1.159
 1298TIP3    H1 3827   2.192   5.736   1.165
 1298TIP3    H2 3828   2.108   5.854   1.210
 1299TIP3   OH2 3829   1.275   5.611   1.260
 1299TIP3    H1 3830   1.272   5.700   1.297
 1299TIP3    H2 3831   1.220   5.559   1.318
 1300TIP3   OH2 3832   2.072   4.932   1.420
 1300TIP3    H1 3833   1.989   4.947   1.376
 1300TIP3    H2 3834   2.086   4.837   1.414
 1301TIP3   OH2 3835   0.698   5.341   1.457
 1301TIP3    H1 3836   0.747   5.325   1.537
 1301TIP3    H2 3837   0.624   5.280   1.460
 1302TIP3   OH2 3838   1.071   4.180   1.236
 1302TIP3    H1 3839   0.988   4.147   1.202
 1302TIP3    H2 3840   1.047   4.255   1.291
 1303TIP3   OH2 3841   1.597   4.290   1.443
 1303TIP3    H1 3842   1.665   4.267   1.507
 1303TIP3    H2 3843   1.515   4.277   1.490
 1304TIP3   OH2 3844   1.821   4.715   1.344
 1304TIP3    H1 3845   1.782   4.713   1.432
 1304TIP3    H2 3846   1.803   4.803   1.312
 1305TIP3   OH2 3847   1.059   4.184   0.225
 1305TIP3    H1 3848   1.102   4.190   0.311
 1305TIP3    H2 3849   1.108   4.115   0.179
 1306TIP3   OH2 3850   0.877   4.595   0.792
 1306TIP3    H1 3851   0.790   4.559   0.803
 1306TIP3    H2 3852   0.897   4.584   0.699
 1307TIP3   OH2 3853   1.360   4.671   0.504
 1307TIP3    H1 3854   1.305   4.738   0.462
 1307TIP3    H2 3855   1.435   4.663   0.445
 1308TIP3   OH2 3856   1.566   4.972   1.615
 1308TIP3    H1 3857   1.528   4.886   1.636
 1308TIP3    H2 3858   1.661   4.958   1.620
 1309TIP3   OH2 3859   1.527   4.685   0.725
 1309TIP3    H1 3860   1.465   4.715   0.658
 1309TIP3    H2 3861   1.580   4.618   0.682
 1310TIP3   OH2 3862   0.835   4.713   1.464
 1310TIP3    H1 3863   0.896   4.774   1.506
 1310TIP3    H2 3864   0.836   4.635   1.520
 1311TIP3   OH2 3865   0.453   4.235   1.058
 1311TIP3    H1 3866   0.518   4.263   1.123
 1311TIP3    H2 3867   0.443   4.311   1.000
 1312TIP3   OH2 3868   1.587   4.928   1.143
 1312TIP3    H1 3869   1.604   4.851   1.089
 1312TIP3    H2 3870   1.535   4.894   1.217
 1313TIP3   OH2 3871   1.252   4.429   0.887
 1313TIP3    H1 3872   1.170   4.415   0.933
 1313TIP3    H2 3873   1.319   4.395   0.946
 1314TIP3   OH2 3874   0.651   4.430   0.830
 1314TIP3    H1 3875   0.597   4.417   0.752
 1314TIP3    H2 3876   0.708   4.353   0.833
 1315TIP3   OH2 3877   0.936   4.540   0.535
 1315TIP3    H1 3878   1.027   4.512   0.542
 1315TIP3    H2 3879   0.892   4.466   0.492
 1316TIP3   OH2 3880   1.719   4.449   1.025
 1316TIP3    H1 3881   1.693   4.467   1.115
 1316TIP3    H2 3882   1.658   4.382   0.995
 1317TIP3   OH2 3883   1.898   6.167   1.251
 1317TIP3    H1 3884   1.894   6.179   1.156
 1317TIP3    H2 3885   1.978   6.214   1.278
 1318TIP3   OH2 3886   0.840   5.267   1.684
 1318TIP3    H1 3887   0.921   5.286   1.732
 1318TIP3    H2 3888   0.771   5.276   1.750
 1319TIP3   OH2 3889   1.310   4.758   0.902
 1319TIP3    H1 3890   1.375   4.721   0.843
 1319TIP3    H2 3891   1.323   4.712   0.984
 1320TIP3   OH2 3892   0.826   4.218   0.830
 1320TIP3    H1 3893   0.788   4.142   0.874
 1320TIP3    H2 3894   0.870   4.182   0.753
 1321TIP3   OH2 3895   1.894   5.251   0.919
 1321TIP3    H1 3896   1.926   5.302   0.844
 1321TIP3    H2 3897   1.814   5.210   0.887
 1322TIP3   OH2 3898   1.525   4.399   0.234
 1322TIP3    H1 3899   1.451   4.387   0.174
 1322TIP3    H2 3900   1.523   4.492   0.255
 1323TIP3   OH2 3901   1.432   5.332   1.294
 1323TIP3    H1 3902   1.397   5.244   1.308
 1323TIP3    H2 3903   1.368   5.390   1.336
 1324TIP3   OH2 3904   1.555   4.663   0.312
 1324TIP3    H1 3905   1.649   4.657   0.301
 1324TIP3    H2 3906   1.521   4.687   0.226
 1325TIP3   OH2 3907   0.710   5.055   0.987
 1325TIP3    H1 3908   0.738   5.033   0.898
 1325TIP3    H2 3909   0.772   5.009   1.044
 1326TIP3   OH2 3910   0.572   4.952   1.601
 1326TIP3    H1 3911   0.586   4.925   1.692
 1326TIP3    H2 3912   0.505   4.892   1.568
 1327TIP3   OH2 3913   1.314   5.084   1.629
 1327TIP3    H1 3914   1.259   5.009   1.607
 1327TIP3    H2 3915   1.402   5.057   1.603
 1328TIP3   OH2 3916   1.554   5.628   1.204
 1328TIP3    H1 3917   1.460   5.609   1.209
 1328TIP3    H2 3918   1.578   5.654   1.293
 1329TIP3   OH2 3919   1.974   4.677   0.111
 1329TIP3    H1 3920   1.901   4.644   0.058
 1329TIP3    H2 3921   1.990   4.765   0.077
 1330TIP3   OH2 3922   2.202   5.557   1.176
 1330TIP3    H1 3923   2.110   5.531   1.185
 1330TIP3    H2 3924   2.230   5.517   1.093
 1331TIP3   OH2 3925   1.667   5.115   0.816
 1331TIP3    H1 3926   1.579   5.091   0.845
 1331TIP3    H2 3927   1.704   5.034   0.782
 1332TIP3   OH2 3928   1.074   5.701   1.078
 1332TIP3    H1 3929   1.125   5.765   1.027
 1332TIP3    H2 3930   1.139   5.651   1.126
 1333TIP3   OH2 3931   1.474   5.331   1.026
 1333TIP3    H1 3932   1.460   5.335   1.120
 1333TIP3    H2 3933   1.528   5.252   1.013
 1334TIP3   OH2 3934   1.728   5.826   1.100
 1334TIP3    H1 3935   1.656   5.770   1.125
 1334TIP3    H2 3936   1.692   5.883   1.032
 1335TIP3   OH2 3937   0.796   4.452   1.604
 1335TIP3    H1 3938   0.702   4.466   1.603
 1335TIP3    H2 3939   0.811   4.398   1.681
 1336TIP3   OH2 3940   1.664   5.218   0.209
 1336TIP3    H1 3941   1.641   5.142   0.262
 1336TIP3    H2 3942   1.746   5.193   0.166
 1337TIP3   OH2 3943   0.583   5.575   1.345
 1337TIP3    H1 3944   0.489   5.570   1.359
 1337TIP3    H2 3945   0.618   5.495   1.384
 1338TIP3   OH2 3946   1.642   4.508   1.277
 1338TIP3    H1 3947   1.705   4.569   1.316
 1338TIP3    H2 3948   1.629   4.441   1.343
 1339TIP3   OH2 3949   1.523   4.321   0.496
 1339TIP3    H1 3950   1.514   4.338   0.403
 1339TIP3    H2 3951   1.572   4.395   0.530
 1340TIP3   OH2 3952   1.197   4.485   0.622
 1340TIP3    H1 3953   1.253   4.560   0.601
 1340TIP3    H2 3954   1.208   4.473   0.717
 1341TIP3   OH2 3955   1.458   4.777   1.333
 1341TIP3    H1 3956   1.388   4.784   1.398
 1341TIP3    H2 3957   1.487   4.686   1.339
 1342TIP3   OH2 3958   1.343   4.239   0.703
 1342TIP3    H1 3959   1.325   4.309   0.766
 1342TIP3    H2 3960   1.414   4.273   0.649
 1343TIP3   OH2 3961   0.816   4.305   0.452
 1343TIP3    H1 3962   0.788   4.257   0.374
 1343TIP3    H2 3963   0.847   4.238   0.512
 1344TIP3   OH2 3964   2.085   4.654   1.332
 1344TIP3    H1 3965   1.991   4.668   1.343
 1344TIP3    H2 3966   2.092   4.593   1.259
 1345TIP3   OH2 3967   1.757   4.860   0.735
 1345TIP3    H1 3968   1.677   4.809   0.747
 1345TIP3    H2 3969   1.822   4.817   0.790
 1346TIP3   OH2 3970   1.761   5.819   0.660
 1346TIP3    H1 3971   1.743   5.865   0.579
 1346TIP3    H2 3972   1.856   5.825   0.671
 1347TIP3   OH2 3973   0.811   4.092   1.195
 1347TIP3    H1 3974   0.773   4.059   1.114
 1347TIP3    H2 3975   0.800   4.020   1.257
 1348TIP3   OH2 3976   0.502   5.814   1.675
 1348TIP3    H1 3977   0.590   5.821   1.714
 1348TIP3    H2 3978   0.481   5.721   1.680
 1349TIP3   OH2 3979   0.985   5.780   1.715
 1349TIP3    H1 3980   1.078   5.760   1.720
 1349TIP3    H2 3981   0.954   5.732   1.638
 1350TIP3   OH2 3982   1.612   5.716   1.459
 1350TIP3    H1 3983   1.626   5.647   1.523
 1350TIP3    H2 3984   1.686   5.776   1.473
 1351TIP3   OH2 3985   0.623   5.263   1.862
 1351TIP3    H1 3986   0.646   5.171   1.871
 1351TIP3    H2 3987   0.539   5.262   1.816
 1352TIP3   OH2 3988   1.246   5.353   1.637
 1352TIP3    H1 3989   1.205   5.375   1.554
 1352TIP3    H2 3990   1.275   5.263   1.626
 1353TIP3   OH2 3991   1.721   5.363   1.261
 1353TIP3    H1 3992   1.761   5.432   1.208
 1353TIP3    H2 3993   1.628   5.385   1.262
 1354TIP3   OH2 3994   0.737   5.009   1.856
 1354TIP3    H1 3995   0.798   4.995   1.784
 1354TIP3    H2 3996   0.793   5.028   1.932
 1355TIP3   OH2 3997   1.628   5.271   1.634
 1355TIP3    H1 3998   1.644   5.233   1.548
 1355TIP3    H2 3999   1.595   5.197   1.686
 1356TIP3   OH2 4000   1.303   5.089   1.309
 1356TIP3    H1 4001   1.299   5.007   1.358
 1356TIP3    H2 4002   1.218   5.095   1.266
 1357TIP3   OH2 4003   1.834   4.958   1.691
 1357TIP3    H1 4004   1.877   4.876   1.667
 1357TIP3    H2 4005   1.896   5.026   1.666
 1358TIP3   OH2 4006   1.864   5.205   1.422
 1358TIP3    H1 4007   1.806   5.263   1.373
 1358TIP3    H2 4008   1.952   5.226   1.390
 1359TIP3   OH2 4009   1.100   4.766   1.841
 1359TIP3    H1 4010   1.031   4.700   1.837
 1359TIP3    H2 4011   1.125   4.782   1.750
 1360TIP3   OH2 4012   1.326   4.236   1.518
 1360TIP3    H1 4013   1.276   4.312   1.488
 1360TIP3    H2 4014   1.266   4.162   1.506
 1361TIP3   OH2 4015   1.482   4.714   1.716
 1361TIP3    H1 4016   1.447   4.694   1.803
 1361TIP3    H2 4017   1.405   4.726   1.661
 1362TIP3   OH2 4018   1.724   4.681   1.590
 1362TIP3    H1 4019   1.642   4.683   1.640
 1362TIP3    H2 4020   1.789   4.648   1.652
 1363TIP3   OH2 4021   1.961   4.621   1.732
 1363TIP3    H1 4022   1.969   4.526   1.741
 1363TIP3    H2 4023   1.949   4.652   1.822
 1364TIP3   OH2 4024   0.927   4.541   1.917
 1364TIP3    H1 4025   0.934   4.452   1.882
 1364TIP3    H2 4026   0.967   4.536   2.004
 1365TIP3   OH2 4027   1.408   4.214   1.781
 1365TIP3    H1 4028   1.475   4.146   1.772
 1365TIP3    H2 4029   1.373   4.225   1.693
 1366TIP3   OH2 4030   1.491   4.423   1.942
 1366TIP3    H1 4031   1.466   4.353   1.881
 1366TIP3    H2 4032   1.424   4.490   1.931
 1367TIP3   OH2 4033   2.026   5.880   0.671
 1367TIP3    H1 4034   2.039   5.909   0.761
 1367TIP3    H2 4035   2.067   5.948   0.618
 1368TIP3   OH2 4036   2.023   5.921   0.945
 1368TIP3    H1 4037   1.975   5.838   0.940
 1368TIP3    H2 4038   2.092   5.905   1.009
 1369TIP3   OH2 4039   2.077   5.619   1.502
 1369TIP3    H1 4040   2.006   5.626   1.565
 1369TIP3    H2 4041   2.121   5.704   1.505
 1370TIP3   OH2 4042   1.910   5.120   0.124
 1370TIP3    H1 4043   1.972   5.187   0.095
 1370TIP3    H2 4044   1.953   5.079   0.199
 1371TIP3   OH2 4045   2.032   4.983   0.326
 1371TIP3    H1 4046   1.967   4.945   0.386
 1371TIP3    H2 4047   2.096   5.024   0.384
 1372TIP3   OH2 4048   2.070   5.391   0.751
 1372TIP3    H1 4049   2.123   5.323   0.709
 1372TIP3    H2 4050   2.076   5.466   0.692
 1373TIP3   OH2 4051   1.893   5.673   0.943
 1373TIP3    H1 4052   1.827   5.716   0.998
 1373TIP3    H2 4053   1.843   5.629   0.875
 1374TIP3   OH2 4054   7.592   0.898   6.893
 1374TIP3    H1 4055   7.517   0.841   6.878
 1374TIP3    H2 4056   7.563   0.960   6.961
 1375TIP3   OH2 4057   7.440   0.649   6.869
 1375TIP3    H1 4058   7.396   0.667   6.786
 1375TIP3    H2 4059   7.435   0.554   6.878
 1376TIP3   OH2 4060   1.843   4.848   0.473
 1376TIP3    H1 4061   1.843   4.755   0.452
 1376TIP3    H2 4062   1.819   4.851   0.566
 1377TIP3   OH2 4063   0.442   4.899   1.213
 1377TIP3    H1 4064   0.447   4.873   1.121
 1377TIP3    H2 4065   0.534   4.903   1.241
 1378TIP3   OH2 4066   2.109   5.270   1.312
 1378TIP3    H1 4067   2.175   5.205   1.290
 1378TIP3    H2 4068   2.091   5.316   1.230
 1379TIP3   OH2 4069   2.285   5.057   1.302
 1379TIP3    H1 4070   2.210   5.017   1.346
 1379TIP3    H2 4071   2.359   5.000   1.326
 1380TIP3   OH2 4072   1.783   4.396   0.014
 1380TIP3    H1 4073   1.851   4.343   0.054
 1380TIP3    H2 4074   1.701   4.352   0.038
 1381TIP3   OH2 4075   1.840   4.596   0.348
 1381TIP3    H1 4076   1.882   4.511   0.363
 1381TIP3    H2 4077   1.883   4.629   0.268
 1382TIP3   OH2 4078   1.974   4.737   0.866
 1382TIP3    H1 4079   2.054   4.755   0.818
 1382TIP3    H2 4080   1.987   4.778   0.952
 1383TIP3   OH2 4081   2.048   4.890   1.087
 1383TIP3    H1 4082   1.975   4.917   1.143
 1383TIP3    H2 4083   2.078   4.971   1.045
 1384TIP3   OH2 4084   0.661   4.589   1.868
 1384TIP3    H1 4085   0.756   4.588   1.878
 1384TIP3    H2 4086   0.631   4.508   1.909
 1385TIP3   OH2 4087   2.503   4.490   1.624
 1385TIP3    H1 4088   2.565   4.430   1.584
 1385TIP3    H2 4089   2.465   4.538   1.550
 1386TIP3   OH2 4090   1.958   4.355   0.393
 1386TIP3    H1 4091   2.000   4.334   0.477
 1386TIP3    H2 4092   1.884   4.295   0.388
 1387TIP3   OH2 4093   0.647   4.310   1.239
 1387TIP3    H1 4094   0.704   4.233   1.235
 1387TIP3    H2 4095   0.707   4.385   1.237
 1388TIP3   OH2 4096   0.416   4.560   1.281
 1388TIP3    H1 4097   0.473   4.555   1.204
 1388TIP3    H2 4098   0.440   4.643   1.324
 1389TIP3   OH2 4099   2.354   4.605   1.426
 1389TIP3    H1 4100   2.274   4.645   1.459
 1389TIP3    H2 4101   2.324   4.532   1.372
 1390TIP3   OH2 4102   2.034   4.255   0.069
 1390TIP3    H1 4103   2.017   4.242  -0.025
 1390TIP3    H2 4104   2.081   4.339   0.073
 1391TIP3   OH2 4105   0.629   4.129   1.596
 1391TIP3    H1 4106   0.579   4.129   1.678
 1391TIP3    H2 4107   0.576   4.180   1.535
 1392TIP3   OH2 4108   0.694   5.570   1.687
 1392TIP3    H1 4109   0.600   5.551   1.680
 1392TIP3    H2 4110   0.711   5.575   1.781
 1393TIP3   OH2 4111   0.868   5.602   1.227
 1393TIP3    H1 4112   0.796   5.664   1.216
 1393TIP3    H2 4113   0.938   5.635   1.171
 1394TIP3   OH2 4114   1.273   5.865   1.367
 1394TIP3    H1 4115   1.308   5.856   1.456
 1394TIP3    H2 4116   1.338   5.918   1.321
 1395TIP3   OH2 4117   1.456   6.022   1.239
 1395TIP3    H1 4118   1.500   5.967   1.175
 1395TIP3    H2 4119   1.526   6.069   1.284
 1396TIP3   OH2 4120   2.266   4.356   1.320
 1396TIP3    H1 4121   2.178   4.349   1.284
 1396TIP3    H2 4122   2.301   4.267   1.316
 1397TIP3   OH2 4123   1.203   5.893   0.933
 1397TIP3    H1 4124   1.139   5.889   0.862
 1397TIP3    H2 4125   1.204   5.986   0.959
 1398TIP3   OH2 4126   1.462   5.845   1.000
 1398TIP3    H1 4127   1.370   5.849   0.975
 1398TIP3    H2 4128   1.509   5.890   0.929
 1399TIP3   OH2 4129   1.667   5.984   0.869
 1399TIP3    H1 4130   1.656   6.072   0.834
 1399TIP3    H2 4131   1.691   5.931   0.793
 1400TIP3   OH2 4132   1.476   4.281   0.980
 1400TIP3    H1 4133   1.423   4.213   1.022
 1400TIP3    H2 4134   1.532   4.233   0.919
 1401TIP3   OH2 4135   1.987   4.190   0.845
 1401TIP3    H1 4136   2.022   4.241   0.773
 1401TIP3    H2 4137   1.894   4.213   0.849
 1402TIP3   OH2 4138   2.107   4.282   0.619
 1402TIP3    H1 4139   2.177   4.224   0.589
 1402TIP3    H2 4140   2.141   4.370   0.604
 1403TIP3   OH2 4141   0.712   3.998   0.952
 1403TIP3    H1 4142   0.623   3.979   0.924
 1403TIP3    H2 4143   0.758   3.914   0.948
 1404TIP3   OH2 4144   1.206   4.040   0.854
 1404TIP3    H1 4145   1.255   4.091   0.789
 1404TIP3    H2 4146   1.245   4.065   0.937
 1405TIP3   OH2 4147   1.709   4.180   0.851
 1405TIP3    H1 4148   1.685   4.152   0.762
 1405TIP3    H2 4149   1.703   4.100   0.903
 1406TIP3   OH2 4150   1.766   4.180   0.492
 1406TIP3    H1 4151   1.682   4.225   0.491
 1406TIP3    H2 4152   1.745   4.092   0.524
 1407TIP3   OH2 4153   1.177   4.224   0.480
 1407TIP3    H1 4154   1.240   4.155   0.498
 1407TIP3    H2 4155   1.191   4.289   0.549
 1408TIP3   OH2 4156   0.933   4.262   1.842
 1408TIP3    H1 4157   0.899   4.193   1.900
 1408TIP3    H2 4158   1.025   4.270   1.867
 1409TIP3   OH2 4159   1.183   4.268   1.961
 1409TIP3    H1 4160   1.262   4.246   1.911
 1409TIP3    H2 4161   1.175   4.198   2.026
 1410TIP3   OH2 4162   2.011   4.348   1.746
 1410TIP3    H1 4163   2.029   4.321   1.836
 1410TIP3    H2 4164   2.096   4.346   1.703
 1411TIP3   OH2 4165   1.941   5.894   1.265
 1411TIP3    H1 4166   1.868   5.860   1.212
 1411TIP3    H2 4167   1.924   5.988   1.270
 1412TIP3   OH2 4168   3.211   5.278   0.069
 1412TIP3    H1 4169   3.190   5.365   0.036
 1412TIP3    H2 4170   3.141   5.222   0.038
 1413TIP3   OH2 4171   3.194   5.283   0.420
 1413TIP3    H1 4172   3.241   5.251   0.497
 1413TIP3    H2 4173   3.174   5.204   0.369
 1414TIP3   OH2 4174   2.503   5.140   0.767
 1414TIP3    H1 4175   2.535   5.080   0.834
 1414TIP3    H2 4176   2.582   5.179   0.730
 1415TIP3   OH2 4177   3.505   5.585   0.038
 1415TIP3    H1 4178   3.468   5.503   0.068
 1415TIP3    H2 4179   3.499   5.644   0.114
 1416TIP3   OH2 4180   2.495   5.559   0.457
 1416TIP3    H1 4181   2.478   5.466   0.467
 1416TIP3    H2 4182   2.591   5.566   0.454
 1417TIP3   OH2 4183   2.196   4.771   0.251
 1417TIP3    H1 4184   2.152   4.853   0.277
 1417TIP3    H2 4185   2.125   4.715   0.221
 1418TIP3   OH2 4186   2.261   5.074   0.455
 1418TIP3    H1 4187   2.309   4.996   0.483
 1418TIP3    H2 4188   2.328   5.136   0.429
 1419TIP3   OH2 4189   3.067   5.960   0.113
 1419TIP3    H1 4190   3.157   5.992   0.104
 1419TIP3    H2 4191   3.046   5.974   0.205
 1420TIP3   OH2 4192   3.005   5.495   0.425
 1420TIP3    H1 4193   3.050   5.414   0.400
 1420TIP3    H2 4194   3.075   5.553   0.455
 1421TIP3   OH2 4195   4.020   4.813   0.463
 1421TIP3    H1 4196   4.038   4.903   0.493
 1421TIP3    H2 4197   4.056   4.810   0.375
 1422TIP3   OH2 4198   3.394   4.968   0.464
 1422TIP3    H1 4199   3.449   4.893   0.490
 1422TIP3    H2 4200   3.383   4.959   0.370
 1423TIP3   OH2 4201   2.746   4.638   0.420
 1423TIP3    H1 4202   2.730   4.711   0.360
 1423TIP3    H2 4203   2.694   4.566   0.385
 1424TIP3   OH2 4204   3.456   4.728   0.059
 1424TIP3    H1 4205   3.522   4.714   0.127
 1424TIP3    H2 4206   3.506   4.764  -0.015
 1425TIP3   OH2 4207   2.396   4.852   0.548
 1425TIP3    H1 4208   2.476   4.832   0.597
 1425TIP3    H2 4209   2.403   4.799   0.469
 1426TIP3   OH2 4210   2.833   5.035   0.361
 1426TIP3    H1 4211   2.922   5.002   0.371
 1426TIP3    H2 4212   2.785   4.963   0.321
 1427TIP3   OH2 4213   4.103   5.040   0.620
 1427TIP3    H1 4214   4.011   5.067   0.619
 1427TIP3    H2 4215   4.136   5.072   0.704
 1428TIP3   OH2 4216   2.754   4.638   0.873
 1428TIP3    H1 4217   2.702   4.675   0.801
 1428TIP3    H2 4218   2.700   4.651   0.951
 1429TIP3   OH2 4219   0.261   1.475   6.865
 1429TIP3    H1 4220   0.187   1.441   6.815
 1429TIP3    H2 4221   0.237   1.566   6.883
 1430TIP3   OH2 4222   2.848   5.417   0.639
 1430TIP3    H1 4223   2.793   5.486   0.675
 1430TIP3    H2 4224   2.895   5.459   0.566
 1431TIP3   OH2 4225   3.635   4.752   0.266
 1431TIP3    H1 4226   3.601   4.730   0.353
 1431TIP3    H2 4227   3.691   4.828   0.281
 1432TIP3   OH2 4228   2.639   4.750   0.648
 1432TIP3    H1 4229   2.696   4.824   0.668
 1432TIP3    H2 4230   2.679   4.708   0.572
 1433TIP3   OH2 4231   2.688   5.615   0.745
 1433TIP3    H1 4232   2.674   5.704   0.713
 1433TIP3    H2 4233   2.610   5.595   0.797
 1434TIP3   OH2 4234   7.744   1.295   6.936
 1434TIP3    H1 4235   7.727   1.299   6.842
 1434TIP3    H2 4236   7.752   1.386   6.963
 1435TIP3   OH2 4237   3.520   5.786   0.220
 1435TIP3    H1 4238   3.434   5.786   0.261
 1435TIP3    H2 4239   3.531   5.875   0.186
 1436TIP3   OH2 4240   3.819   4.691   0.612
 1436TIP3    H1 4241   3.734   4.712   0.573
 1436TIP3    H2 4242   3.883   4.725   0.550
 1437TIP3   OH2 4243   3.055   4.349   0.534
 1437TIP3    H1 4244   3.064   4.256   0.557
 1437TIP3    H2 4245   2.986   4.381   0.591
 1438TIP3   OH2 4246   3.705   5.721   0.656
 1438TIP3    H1 4247   3.761   5.664   0.604
 1438TIP3    H2 4248   3.682   5.793   0.596
 1439TIP3   OH2 4249   0.210   1.128   6.838
 1439TIP3    H1 4250   0.131   1.172   6.807
 1439TIP3    H2 4251   0.276   1.146   6.771
 1440TIP3   OH2 4252   3.903   5.308   0.418
 1440TIP3    H1 4253   3.816   5.345   0.401
 1440TIP3    H2 4254   3.954   5.331   0.340
 1441TIP3   OH2 4255   0.507   1.108   6.820
 1441TIP3    H1 4256   0.482   1.175   6.883
 1441TIP3    H2 4257   0.603   1.108   6.821
 1442TIP3   OH2 4258   3.606   5.226   0.752
 1442TIP3    H1 4259   3.599   5.304   0.808
 1442TIP3    H2 4260   3.526   5.228   0.699
 1443TIP3   OH2 4261   2.624   5.179   0.228
 1443TIP3    H1 4262   2.582   5.122   0.164
 1443TIP3    H2 4263   2.700   5.130   0.259
 1444TIP3   OH2 4264   2.758   5.612   0.366
 1444TIP3    H1 4265   2.725   5.588   0.280
 1444TIP3    H2 4266   2.844   5.570   0.372
 1445TIP3   OH2 4267   2.730   5.176   0.583
 1445TIP3    H1 4268   2.770   5.141   0.503
 1445TIP3    H2 4269   2.776   5.259   0.598
 1446TIP3   OH2 4270   3.302   5.803   0.373
 1446TIP3    H1 4271   3.262   5.881   0.412
 1446TIP3    H2 4272   3.274   5.731   0.429
 1447TIP3   OH2 4273   2.884   5.711   0.916
 1447TIP3    H1 4274   2.824   5.770   0.961
 1447TIP3    H2 4275   2.828   5.660   0.857
 1448TIP3   OH2 4276   2.646   5.264   1.040
 1448TIP3    H1 4277   2.650   5.357   1.066
 1448TIP3    H2 4278   2.552   5.245   1.039
 1449TIP3   OH2 4279   0.156   1.728   6.908
 1449TIP3    H1 4280   0.187   1.804   6.957
 1449TIP3    H2 4281   0.061   1.740   6.902
 1450TIP3   OH2 4282   2.681   5.878   0.996
 1450TIP3    H1 4283   2.654   5.887   0.905
 1450TIP3    H2 4284   2.600   5.862   1.044
 1451TIP3   OH2 4285   2.489   5.022   0.039
 1451TIP3    H1 4286   2.418   5.070  -0.004
 1451TIP3    H2 4287   2.452   4.935   0.056
 1452TIP3   OH2 4288   2.273   5.428   0.945
 1452TIP3    H1 4289   2.201   5.411   0.885
 1452TIP3    H2 4290   2.306   5.341   0.969
 1453TIP3   OH2 4291   2.131   5.627   0.608
 1453TIP3    H1 4292   2.223   5.646   0.627
 1453TIP3    H2 4293   2.083   5.704   0.639
 1454TIP3   OH2 4294   3.939   6.026   0.723
 1454TIP3    H1 4295   3.932   5.949   0.778
 1454TIP3    H2 4296   3.852   6.064   0.723
 1455TIP3   OH2 4297   3.064   5.861   0.775
 1455TIP3    H1 4298   3.060   5.952   0.803
 1455TIP3    H2 4299   2.997   5.816   0.827
 1456TIP3   OH2 4300   2.273   5.810   0.136
 1456TIP3    H1 4301   2.341   5.805   0.204
 1456TIP3    H2 4302   2.204   5.751   0.167
 1457TIP3   OH2 4303   3.840   5.175   0.942
 1457TIP3    H1 4304   3.769   5.186   0.879
 1457TIP3    H2 4305   3.863   5.082   0.937
 1458TIP3   OH2 4306   2.471   5.616   0.914
 1458TIP3    H1 4307   2.521   5.605   0.996
 1458TIP3    H2 4308   2.400   5.553   0.921
 1459TIP3   OH2 4309   2.858   4.430   0.714
 1459TIP3    H1 4310   2.772   4.395   0.690
 1459TIP3    H2 4311   2.838   4.507   0.767
 1460TIP3   OH2 4312   3.407   4.539   0.933
 1460TIP3    H1 4313   3.478   4.517   0.993
 1460TIP3    H2 4314   3.327   4.525   0.984
 1461TIP3   OH2 4315   3.617   4.964   0.838
 1461TIP3    H1 4316   3.576   4.959   0.925
 1461TIP3    H2 4317   3.599   5.052   0.807
 1462TIP3   OH2 4318   0.192   0.498   6.663
 1462TIP3    H1 4319   0.132   0.474   6.734
 1462TIP3    H2 4320   0.143   0.479   6.583
 1463TIP3   OH2 4321   2.799   4.958   0.736
 1463TIP3    H1 4322   2.750   4.965   0.818
 1463TIP3    H2 4323   2.776   5.037   0.688
 1464TIP3   OH2 4324   2.686   4.837   0.242
 1464TIP3    H1 4325   2.596   4.814   0.265
 1464TIP3    H2 4326   2.696   4.807   0.152
 1465TIP3   OH2 4327   0.336   0.903   6.919
 1465TIP3    H1 4328   0.270   0.970   6.899
 1465TIP3    H2 4329   0.413   0.930   6.871
 1466TIP3   OH2 4330   3.343   5.182   1.061
 1466TIP3    H1 4331   3.315   5.114   1.123
 1466TIP3    H2 4332   3.435   5.198   1.082
 1467TIP3   OH2 4333   3.338   4.931   0.202
 1467TIP3    H1 4334   3.266   4.954   0.143
 1467TIP3    H2 4335   3.378   4.854   0.162
 1468TIP3   OH2 4336   2.631   4.970   0.953
 1468TIP3    H1 4337   2.636   5.035   1.024
 1468TIP3    H2 4338   2.612   4.888   0.998
 1469TIP3   OH2 4339   8.367   0.425   6.622
 1469TIP3    H1 4340   8.331   0.412   6.710
 1469TIP3    H2 4341   8.331   0.353   6.571
 1470TIP3   OH2 4342   2.224   4.508   0.528
 1470TIP3    H1 4343   2.299   4.534   0.580
 1470TIP3    H2 4344   2.262   4.473   0.447
 1471TIP3   OH2 4345   2.174   4.497   0.043
 1471TIP3    H1 4346   2.225   4.535  -0.028
 1471TIP3    H2 4347   2.105   4.561   0.060
 1472TIP3   OH2 4348   3.349   5.177   0.632
 1472TIP3    H1 4349   3.373   5.106   0.571
 1472TIP3    H2 4350   3.312   5.132   0.707
 1473TIP3   OH2 4351   3.020   4.633   0.413
 1473TIP3    H1 4352   2.925   4.630   0.424
 1473TIP3    H2 4353   3.042   4.726   0.413
 1474TIP3   OH2 4354   2.452   4.713   0.314
 1474TIP3    H1 4355   2.362   4.723   0.285
 1474TIP3    H2 4356   2.473   4.621   0.297
 1475TIP3   OH2 4357   8.380   0.716   6.934
 1475TIP3    H1 4358   8.463   0.696   6.891
 1475TIP3    H2 4359   8.319   0.734   6.863
 1476TIP3   OH2 4360   3.516   4.715   0.514
 1476TIP3    H1 4361   3.495   4.732   0.606
 1476TIP3    H2 4362   3.449   4.653   0.485
 1477TIP3   OH2 4363   8.205   0.728   6.726
 1477TIP3    H1 4364   8.115   0.698   6.740
 1477TIP3    H2 4365   8.232   0.684   6.645
 1478TIP3   OH2 4366   3.659   6.422   0.830
 1478TIP3    H1 4367   3.658   6.440   0.736
 1478TIP3    H2 4368   3.732   6.474   0.863
 1479TIP3   OH2 4369   2.632   5.528   1.146
 1479TIP3    H1 4370   2.712   5.548   1.195
 1479TIP3    H2 4371   2.562   5.533   1.211
 1480TIP3   OH2 4372   3.084   4.906   0.417
 1480TIP3    H1 4373   3.175   4.921   0.394
 1480TIP3    H2 4374   3.082   4.906   0.512
 1481TIP3   OH2 4375   2.580   4.463   0.278
 1481TIP3    H1 4376   2.556   4.387   0.330
 1481TIP3    H2 4377   2.593   4.429   0.190
 1482TIP3   OH2 4378   3.066   4.901   0.691
 1482TIP3    H1 4379   2.979   4.935   0.712
 1482TIP3    H2 4380   3.125   4.956   0.743
 1483TIP3   OH2 4381   8.493   1.261   6.750
 1483TIP3    H1 4382   8.427   1.196   6.727
 1483TIP3    H2 4383   8.460   1.303   6.829
 1484TIP3   OH2 4384   3.682   5.462   0.408
 1484TIP3    H1 4385   3.703   5.529   0.343
 1484TIP3    H2 4386   3.595   5.431   0.384
 1485TIP3   OH2 4387   3.177   5.577   0.804
 1485TIP3    H1 4388   3.230   5.568   0.883
 1485TIP3    H2 4389   3.131   5.660   0.815
 1486TIP3   OH2 4390   2.492   5.270   0.452
 1486TIP3    H1 4391   2.531   5.251   0.366
 1486TIP3    H2 4392   2.554   5.235   0.515
 1487TIP3   OH2 4393   2.375   5.194   1.073
 1487TIP3    H1 4394   2.376   5.171   1.166
 1487TIP3    H2 4395   2.300   5.148   1.037
 1488TIP3   OH2 4396   3.108   5.335   1.097
 1488TIP3    H1 4397   3.039   5.274   1.069
 1488TIP3    H2 4398   3.190   5.293   1.069
 1489TIP3   OH2 4399   3.334   5.843   0.728
 1489TIP3    H1 4400   3.239   5.844   0.724
 1489TIP3    H2 4401   3.355   5.884   0.812
 1490TIP3   OH2 4402   3.958   5.745   0.768
 1490TIP3    H1 4403   3.863   5.745   0.760
 1490TIP3    H2 4404   3.990   5.736   0.679
 1491TIP3   OH2 4405   3.447   5.367   0.306
 1491TIP3    H1 4406   3.353   5.353   0.317
 1491TIP3    H2 4407   3.479   5.286   0.265
 1492TIP3   OH2 4408   2.604   5.579   0.139
 1492TIP3    H1 4409   2.588   5.652   0.079
 1492TIP3    H2 4410   2.518   5.556   0.173
 1493TIP3   OH2 4411   7.841   0.877   6.773
 1493TIP3    H1 4412   7.881   0.962   6.788
 1493TIP3    H2 4413   7.751   0.886   6.806
 1494TIP3   OH2 4414   2.738   5.360   0.049
 1494TIP3    H1 4415   2.700   5.445   0.070
 1494TIP3    H2 4416   2.701   5.300   0.114
 1495TIP3   OH2 4417   2.891   5.936   0.566
 1495TIP3    H1 4418   2.927   6.010   0.517
 1495TIP3    H2 4419   2.964   5.903   0.619
 1496TIP3   OH2 4420   8.187   1.779   6.929
 1496TIP3    H1 4421   8.093   1.794   6.939
 1496TIP3    H2 4422   8.224   1.867   6.917
 1497TIP3   OH2 4423   3.242   5.587   0.535
 1497TIP3    H1 4424   3.224   5.581   0.629
 1497TIP3    H2 4425   3.307   5.519   0.518
 1498TIP3   OH2 4426   3.444   6.067   0.617
 1498TIP3    H1 4427   3.418   5.993   0.671
 1498TIP3    H2 4428   3.367   6.085   0.562
 1499TIP3   OH2 4429   2.579   4.718   1.076
 1499TIP3    H1 4430   2.484   4.729   1.081
 1499TIP3    H2 4431   2.602   4.671   1.156
 1500TIP3   OH2 4432   2.335   5.813   0.733
 1500TIP3    H1 4433   2.384   5.750   0.787
 1500TIP3    H2 4434   2.347   5.897   0.778
 1501TIP3   OH2 4435   7.948   1.130   6.843
 1501TIP3    H1 4436   7.882   1.181   6.891
 1501TIP3    H2 4437   7.968   1.185   6.766
 1502TIP3   OH2 4438   3.444   4.759   0.770
 1502TIP3    H1 4439   3.512   4.815   0.807
 1502TIP3    H2 4440   3.432   4.689   0.834
 1503TIP3   OH2 4441   0.460   0.509   6.903
 1503TIP3    H1 4442   0.413   0.534   6.823
 1503TIP3    H2 4443   0.508   0.588   6.928
 1504TIP3   OH2 4444   3.034   4.687   0.078
 1504TIP3    H1 4445   3.090   4.750   0.031
 1504TIP3    H2 4446   2.978   4.741   0.134
 1505TIP3   OH2 4447   3.271   5.019   0.843
 1505TIP3    H1 4448   3.290   5.072   0.920
 1505TIP3    H2 4449   3.318   4.937   0.858
 1506TIP3   OH2 4450   3.153   4.472   0.206
 1506TIP3    H1 4451   3.108   4.547   0.168
 1506TIP3    H2 4452   3.217   4.446   0.139
 1507TIP3   OH2 4453   8.303   0.429   6.912
 1507TIP3    H1 4454   8.291   0.524   6.923
 1507TIP3    H2 4455   8.398   0.417   6.914
 1508TIP3   OH2 4456   3.883   4.911   0.832
 1508TIP3    H1 4457   3.788   4.917   0.837
 1508TIP3    H2 4458   3.900   4.868   0.748
 1509TIP3   OH2 4459   3.550   5.119   0.217
 1509TIP3    H1 4460   3.478   5.056   0.211
 1509TIP3    H2 4461   3.616   5.075   0.269
 1510TIP3   OH2 4462   7.942   0.622   6.752
 1510TIP3    H1 4463   7.901   0.709   6.749
 1510TIP3    H2 4464   7.910   0.577   6.674
 1511TIP3   OH2 4465   3.568   6.034   0.126
 1511TIP3    H1 4466   3.509   6.078   0.066
 1511TIP3    H2 4467   3.653   6.074   0.110
 1512TIP3   OH2 4468   2.603   4.335   0.683
 1512TIP3    H1 4469   2.575   4.304   0.597
 1512TIP3    H2 4470   2.594   4.260   0.741
 1513TIP3   OH2 4471   2.091   5.577   0.026
 1513TIP3    H1 4472   2.018   5.628   0.062
 1513TIP3    H2 4473   2.124   5.631  -0.046
 1514TIP3   OH2 4474   2.315   6.126   1.147
 1514TIP3    H1 4475   2.399   6.127   1.194
 1514TIP3    H2 4476   2.292   6.033   1.142
 1515TIP3   OH2 4477   2.786   6.044   1.190
 1515TIP3    H1 4478   2.878   6.018   1.198
 1515TIP3    H2 4479   2.752   5.990   1.118
 1516TIP3   OH2 4480   3.409   5.979   0.949
 1516TIP3    H1 4481   3.419   5.909   1.014
 1516TIP3    H2 4482   3.479   6.040   0.969
 1517TIP3   OH2 4483   2.427   5.529   1.335
 1517TIP3    H1 4484   2.442   5.435   1.346
 1517TIP3    H2 4485   2.341   5.534   1.294
 1518TIP3   OH2 4486   3.045   5.611   1.114
 1518TIP3    H1 4487   2.994   5.629   1.035
 1518TIP3    H2 4488   3.077   5.521   1.102
 1519TIP3   OH2 4489   3.480   5.607   0.753
 1519TIP3    H1 4490   3.559   5.647   0.716
 1519TIP3    H2 4491   3.412   5.673   0.740
 1520TIP3   OH2 4492   2.544   5.273   1.342
 1520TIP3    H1 4493   2.622   5.245   1.294
 1520TIP3    H2 4494   2.576   5.294   1.430
 1521TIP3   OH2 4495   8.308   1.049   6.745
 1521TIP3    H1 4496   8.266   1.043   6.830
 1521TIP3    H2 4497   8.282   0.969   6.699
 1522TIP3   OH2 4498   2.905   5.159   0.996
 1522TIP3    H1 4499   2.818   5.198   1.004
 1522TIP3    H2 4500   2.937   5.187   0.911
 1523TIP3   OH2 4501   3.398   5.526   1.099
 1523TIP3    H1 4502   3.464   5.486   1.041
 1523TIP3    H2 4503   3.397   5.470   1.176
 1524TIP3   OH2 4504   3.006   4.928   1.108
 1524TIP3    H1 4505   3.006   4.856   1.046
 1524TIP3    H2 4506   2.970   5.002   1.059
 1525TIP3   OH2 4507   3.014   4.722   0.909
 1525TIP3    H1 4508   3.038   4.764   0.827
 1525TIP3    H2 4509   2.922   4.696   0.897
 1526TIP3   OH2 4510   3.025   5.254   0.771
 1526TIP3    H1 4511   3.111   5.296   0.763
 1526TIP3    H2 4512   2.965   5.314   0.726
 1527TIP3   OH2 4513   3.610   5.202   1.160
 1527TIP3    H1 4514   3.649   5.116   1.177
 1527TIP3    H2 4515   3.680   5.253   1.121
 1528TIP3   OH2 4516   3.618   5.452   0.924
 1528TIP3    H1 4517   3.564   5.508   0.868
 1528TIP3    H2 4518   3.707   5.463   0.889
 1529TIP3   OH2 4519   2.889   5.014   1.351
 1529TIP3    H1 4520   2.819   4.952   1.373
 1529TIP3    H2 4521   2.917   4.988   1.263
 1530TIP3   OH2 4522   3.135   4.484   0.997
 1530TIP3    H1 4523   3.095   4.567   0.970
 1530TIP3    H2 4524   3.065   4.420   0.988
 1531TIP3   OH2 4525   3.261   4.968   1.210
 1531TIP3    H1 4526   3.252   4.955   1.305
 1531TIP3    H2 4527   3.174   4.948   1.175
 1532TIP3   OH2 4528   3.500   4.914   1.075
 1532TIP3    H1 4529   3.423   4.919   1.131
 1532TIP3    H2 4530   3.572   4.891   1.133
 1533TIP3   OH2 4531   3.739   4.886   1.223
 1533TIP3    H1 4532   3.755   4.792   1.231
 1533TIP3    H2 4533   3.735   4.918   1.313
 1534TIP3   OH2 4534   2.725   4.790   1.413
 1534TIP3    H1 4535   2.729   4.701   1.378
 1534TIP3    H2 4536   2.763   4.784   1.501
 1535TIP3   OH2 4537   3.207   4.475   1.264
 1535TIP3    H1 4538   3.277   4.409   1.260
 1535TIP3    H2 4539   3.174   4.480   1.175
 1536TIP3   OH2 4540   3.298   4.690   1.412
 1536TIP3    H1 4541   3.268   4.618   1.356
 1536TIP3    H2 4542   3.224   4.751   1.414
 1537TIP3   OH2 4543   7.715   1.271   6.662
 1537TIP3    H1 4544   7.779   1.325   6.614
 1537TIP3    H2 4545   7.687   1.205   6.598
 1538TIP3   OH2 4546   1.903   5.747   0.146
 1538TIP3    H1 4547   1.815   5.715   0.167
 1538TIP3    H2 4548   1.951   5.741   0.228
 1539TIP3   OH2 4549   2.080   5.744   0.355
 1539TIP3    H1 4550   2.086   5.674   0.421
 1539TIP3    H2 4551   2.124   5.819   0.395
 1540TIP3   OH2 4552   3.703   6.176   0.410
 1540TIP3    H1 4553   3.664   6.091   0.428
 1540TIP3    H2 4554   3.797   6.163   0.420
 1541TIP3   OH2 4555   3.857   5.885   1.003
 1541TIP3    H1 4556   3.789   5.888   1.070
 1541TIP3    H2 4557   3.904   5.968   1.014
 1542TIP3   OH2 4558   3.779   5.650   0.236
 1542TIP3    H1 4559   3.835   5.629   0.161
 1542TIP3    H2 4560   3.702   5.691   0.198
 1543TIP3   OH2 4561   3.603   5.918   0.456
 1543TIP3    H1 4562   3.535   5.962   0.507
 1543TIP3    H2 4563   3.554   5.872   0.387
 1544TIP3   OH2 4564   0.773   1.088   6.881
 1544TIP3    H1 4565   0.795   0.995   6.874
 1544TIP3    H2 4566   0.773   1.106   6.975
 1545TIP3   OH2 4567   2.239   5.174   0.708
 1545TIP3    H1 4568   2.230   5.141   0.619
 1545TIP3    H2 4569   2.333   5.171   0.726
 1546TIP3   OH2 4570   3.873   5.478   0.828
 1546TIP3    H1 4571   3.941   5.411   0.825
 1546TIP3    H2 4572   3.890   5.533   0.751
 1547TIP3   OH2 4573   4.065   5.282   0.833
 1547TIP3    H1 4574   3.995   5.238   0.880
 1547TIP3    H2 4575   4.143   5.230   0.852
 1548TIP3   OH2 4576   0.799   0.817   6.808
 1548TIP3    H1 4577   0.831   0.727   6.814
 1548TIP3    H2 4578   0.808   0.839   6.715
 1549TIP3   OH2 4579   3.753   4.987   0.360
 1549TIP3    H1 4580   3.838   5.002   0.320
 1549TIP3    H2 4581   3.763   5.015   0.451
 1550TIP3   OH2 4582   3.831   5.121   0.599
 1550TIP3    H1 4583   3.756   5.159   0.645
 1550TIP3    H2 4584   3.859   5.188   0.538
 1551TIP3   OH2 4585   2.461   4.851   1.358
 1551TIP3    H1 4586   2.555   4.847   1.376
 1551TIP3    H2 4587   2.426   4.770   1.395
 1552TIP3   OH2 4588   4.300   4.745   1.116
 1552TIP3    H1 4589   4.363   4.683   1.079
 1552TIP3    H2 4590   4.263   4.790   1.039
 1553TIP3   OH2 4591   0.861   0.553   6.835
 1553TIP3    H1 4592   0.928   0.539   6.903
 1553TIP3    H2 4593   0.801   0.479   6.845
 1554TIP3   OH2 4594   2.437   4.558   0.693
 1554TIP3    H1 4595   2.491   4.480   0.702
 1554TIP3    H2 4596   2.500   4.630   0.686
 1555TIP3   OH2 4597   2.218   4.821   0.768
 1555TIP3    H1 4598   2.266   4.816   0.685
 1555TIP3    H2 4599   2.240   4.907   0.803
 1556TIP3   OH2 4600   4.149   4.854   0.916
 1556TIP3    H1 4601   4.069   4.894   0.949
 1556TIP3    H2 4602   4.119   4.778   0.865
 1557TIP3   OH2 4603   2.228   4.362   0.279
 1557TIP3    H1 4604   2.139   4.355   0.314
 1557TIP3    H2 4605   2.219   4.416   0.201
 1558TIP3   OH2 4606   2.423   4.388   1.083
 1558TIP3    H1 4607   2.375   4.385   1.166
 1558TIP3    H2 4608   2.367   4.440   1.025
 1559TIP3   OH2 4609   2.462   5.843   1.163
 1559TIP3    H1 4610   2.368   5.830   1.152
 1559TIP3    H2 4611   2.478   5.829   1.256
 1560TIP3   OH2 4612   2.664   5.890   0.714
 1560TIP3    H1 4613   2.609   5.961   0.680
 1560TIP3    H2 4614   2.748   5.901   0.669
 1561TIP3   OH2 4615   3.071   6.128   0.848
 1561TIP3    H1 4616   3.110   6.122   0.935
 1561TIP3    H2 4617   3.132   6.182   0.798
 1562TIP3   OH2 4618   3.249   6.304   0.720
 1562TIP3    H1 4619   3.317   6.314   0.653
 1562TIP3    H2 4620   3.286   6.345   0.798
 1563TIP3   OH2 4621   4.055   4.609   0.814
 1563TIP3    H1 4622   3.967   4.602   0.779
 1563TIP3    H2 4623   4.090   4.520   0.809
 1564TIP3   OH2 4624   2.332   6.132   0.763
 1564TIP3    H1 4625   2.240   6.148   0.741
 1564TIP3    H2 4626   2.354   6.199   0.827
 1565TIP3   OH2 4627   2.554   6.116   0.603
 1565TIP3    H1 4628   2.472   6.123   0.652
 1565TIP3    H2 4629   2.532   6.145   0.515
 1566TIP3   OH2 4630   2.970   6.140   0.394
 1566TIP3    H1 4631   2.891   6.154   0.341
 1566TIP3    H2 4632   2.983   6.224   0.438
 1567TIP3   OH2 4633   3.218   6.051   0.453
 1567TIP3    H1 4634   3.130   6.084   0.436
 1567TIP3    H2 4635   3.275   6.106   0.399
 1568TIP3   OH2 4636   3.401   6.203   0.332
 1568TIP3    H1 4637   3.387   6.297   0.344
 1568TIP3    H2 4638   3.484   6.197   0.286
 1569TIP3   OH2 4639   2.255   5.925   0.487
 1569TIP3    H1 4640   2.274   5.895   0.576
 1569TIP3    H2 4641   2.325   5.889   0.434
 1570TIP3   OH2 4642   2.451   5.805   0.344
 1570TIP3    H1 4643   2.461   5.720   0.387
 1570TIP3    H2 4644   2.539   5.841   0.341
 1571TIP3   OH2 4645   2.718   5.887   0.354
 1571TIP3    H1 4646   2.735   5.793   0.344
 1571TIP3    H2 4647   2.766   5.913   0.432
 1572TIP3   OH2 4648   3.317   4.492   0.463
 1572TIP3    H1 4649   3.345   4.441   0.538
 1572TIP3    H2 4650   3.381   4.473   0.395
 1573TIP3   OH2 4651   3.783   4.453   0.332
 1573TIP3    H1 4652   3.820   4.502   0.258
 1573TIP3    H2 4653   3.688   4.467   0.324
 1574TIP3   OH2 4654   3.891   4.524   0.089
 1574TIP3    H1 4655   3.960   4.465   0.058
 1574TIP3    H2 4656   3.925   4.612   0.071
 1575TIP3   OH2 4657   2.528   4.241   0.433
 1575TIP3    H1 4658   2.440   4.206   0.449
 1575TIP3    H2 4659   2.584   4.164   0.428
 1576TIP3   OH2 4660   2.308   4.125   0.135
 1576TIP3    H1 4661   2.345   4.168   0.058
 1576TIP3    H2 4662   2.283   4.196   0.193
 1577TIP3   OH2 4663   3.506   4.415   0.282
 1577TIP3    H1 4664   3.522   4.389   0.191
 1577TIP3    H2 4665   3.501   4.332   0.329
 1578TIP3   OH2 4666   0.685   0.347   6.898
 1578TIP3    H1 4667   0.601   0.392   6.885
 1578TIP3    H2 4668   0.661   0.255   6.908
 1579TIP3   OH2 4669   8.099   0.234   6.854
 1579TIP3    H1 4670   8.150   0.154   6.844
 1579TIP3    H2 4671   8.164   0.302   6.870
 1580TIP3   OH2 4672   0.077   0.447   6.914
 1580TIP3    H1 4673   0.132   0.369   6.925
 1580TIP3    H2 4674   0.131   0.519   6.948
 1581TIP3   OH2 4675   2.734   4.518   1.329
 1581TIP3    H1 4676   2.699   4.452   1.387
 1581TIP3    H2 4677   2.827   4.525   1.354
 1582TIP3   OH2 4678   2.983   4.525   1.450
 1582TIP3    H1 4679   3.063   4.501   1.402
 1582TIP3    H2 4680   2.975   4.456   1.517
 1583TIP3   OH2 4681   3.807   4.616   1.240
 1583TIP3    H1 4682   3.821   4.586   1.330
 1583TIP3    H2 4683   3.893   4.610   1.198
 1584TIP3   OH2 4684   3.692   6.141   0.759
 1584TIP3    H1 4685   3.608   6.118   0.720
 1584TIP3    H2 4686   3.683   6.233   0.784
 1585TIP3   OH2 4687   4.383   5.362   0.172
 1585TIP3    H1 4688   4.326   5.343   0.247
 1585TIP3    H2 4689   4.431   5.440   0.198
 1586TIP3   OH2 4690   4.144   5.037   0.046
 1586TIP3    H1 4691   4.234   5.007   0.049
 1586TIP3    H2 4692   4.149   5.125   0.008
 1587TIP3   OH2 4693   4.518   4.868   0.384
 1587TIP3    H1 4694   4.464   4.903   0.314
 1587TIP3    H2 4695   4.468   4.883   0.464
 1588TIP3   OH2 4696   4.398   4.933   0.116
 1588TIP3    H1 4697   4.440   5.010   0.155
 1588TIP3    H2 4698   4.467   4.892   0.064
 1589TIP3   OH2 4699   4.502   5.944   0.267
 1589TIP3    H1 4700   4.536   5.904   0.187
 1589TIP3    H2 4701   4.421   5.897   0.285
 1590TIP3   OH2 4702   4.892   4.602   0.104
 1590TIP3    H1 4703   4.864   4.521   0.062
 1590TIP3    H2 4704   4.884   4.584   0.198
 1591TIP3   OH2 4705   4.617   5.904   0.506
 1591TIP3    H1 4706   4.661   5.986   0.527
 1591TIP3    H2 4707   4.587   5.916   0.416
 1592TIP3   OH2 4708   4.451   5.514   0.570
 1592TIP3    H1 4709   4.422   5.602   0.546
 1592TIP3    H2 4710   4.398   5.492   0.646
 1593TIP3   OH2 4711   4.418   6.207   0.334
 1593TIP3    H1 4712   4.398   6.133   0.276
 1593TIP3    H2 4713   4.427   6.168   0.421
 1594TIP3   OH2 4714   4.103   5.727   0.319
 1594TIP3    H1 4715   4.029   5.712   0.261
 1594TIP3    H2 4716   4.145   5.641   0.326
 1595TIP3   OH2 4717   5.662   5.401   0.421
 1595TIP3    H1 4718   5.743   5.364   0.387
 1595TIP3    H2 4719   5.624   5.331   0.473
 1596TIP3   OH2 4720   4.228   5.970   0.324
 1596TIP3    H1 4721   4.263   5.978   0.413
 1596TIP3    H2 4722   4.170   5.895   0.327
 1597TIP3   OH2 4723   4.595   4.668   0.221
 1597TIP3    H1 4724   4.514   4.626   0.193
 1597TIP3    H2 4725   4.568   4.730   0.288
 1598TIP3   OH2 4726   5.204   4.790   0.404
 1598TIP3    H1 4727   5.268   4.746   0.461
 1598TIP3    H2 4728   5.140   4.828   0.464
 1599TIP3   OH2 4729   5.446   5.201   0.286
 1599TIP3    H1 4730   5.480   5.185   0.374
 1599TIP3    H2 4731   5.371   5.143   0.277
 1600TIP3   OH2 4732   4.521   5.136   0.236
 1600TIP3    H1 4733   4.545   5.130   0.328
 1600TIP3    H2 4734   4.471   5.217   0.228
 1601TIP3   OH2 4735   5.114   5.374   0.503
 1601TIP3    H1 4736   5.105   5.313   0.575
 1601TIP3    H2 4737   5.207   5.397   0.502
 1602TIP3   OH2 4738   4.334   5.225   0.448
 1602TIP3    H1 4739   4.420   5.206   0.484
 1602TIP3    H2 4740   4.276   5.160   0.488
 1603TIP3   OH2 4741   4.005   4.767   0.039
 1603TIP3    H1 4742   4.063   4.779   0.114
 1603TIP3    H2 4743   4.004   4.853  -0.004
 1604TIP3   OH2 4744   4.391   5.836   0.732
 1604TIP3    H1 4745   4.457   5.818   0.800
 1604TIP3    H2 4746   4.307   5.821   0.776
 1605TIP3   OH2 4747   4.798   5.044   0.134
 1605TIP3    H1 4748   4.748   5.122   0.159
 1605TIP3    H2 4749   4.887   5.077   0.118
 1606TIP3   OH2 4750   4.957   5.772   0.234
 1606TIP3    H1 4751   5.010   5.721   0.295
 1606TIP3    H2 4752   4.958   5.861   0.269
 1607TIP3   OH2 4753   4.150   5.452   0.635
 1607TIP3    H1 4754   4.203   5.485   0.707
 1607TIP3    H2 4755   4.115   5.369   0.667
 1608TIP3   OH2 4756   4.978   5.570   0.639
 1608TIP3    H1 4757   4.896   5.521   0.643
 1608TIP3    H2 4758   5.022   5.537   0.561
 1609TIP3   OH2 4759   4.363   4.934   0.594
 1609TIP3    H1 4760   4.270   4.955   0.603
 1609TIP3    H2 4761   4.387   4.897   0.679
 1610TIP3   OH2 4762   4.139   6.147   0.135
 1610TIP3    H1 4763   4.165   6.101   0.215
 1610TIP3    H2 4764   4.159   6.239   0.152
 1611TIP3   OH2 4765   5.261   5.009   0.232
 1611TIP3    H1 4766   5.307   4.965   0.161
 1611TIP3    H2 4767   5.246   4.941   0.297
 1612TIP3   OH2 4768   5.126   5.268   0.247
 1612TIP3    H1 4769   5.122   5.296   0.339
 1612TIP3    H2 4770   5.158   5.178   0.250
 1613TIP3   OH2 4771   4.342   4.576   0.195
 1613TIP3    H1 4772   4.320   4.548   0.106
 1613TIP3    H2 4773   4.352   4.494   0.244
 1614TIP3   OH2 4774   4.196   6.410   0.664
 1614TIP3    H1 4775   4.262   6.387   0.728
 1614TIP3    H2 4776   4.197   6.339   0.600
 1615TIP3   OH2 4777   4.461   6.303   0.628
 1615TIP3    H1 4778   4.536   6.315   0.687
 1615TIP3    H2 4779   4.453   6.208   0.619
 1616TIP3   OH2 4780   4.190   5.778   0.907
 1616TIP3    H1 4781   4.205   5.692   0.947
 1616TIP3    H2 4782   4.104   5.771   0.867
 1617TIP3   OH2 4783   4.900   5.827   0.537
 1617TIP3    H1 4784   4.863   5.883   0.605
 1617TIP3    H2 4785   4.958   5.766   0.583
 1618TIP3   OH2 4786   4.359   5.493   0.831
 1618TIP3    H1 4787   4.435   5.436   0.828
 1618TIP3    H2 4788   4.366   5.539   0.915
 1619TIP3   OH2 4789   4.590   5.401   0.369
 1619TIP3    H1 4790   4.540   5.418   0.449
 1619TIP3    H2 4791   4.667   5.458   0.376
 1620TIP3   OH2 4792   5.210   5.783   0.621
 1620TIP3    H1 4793   5.291   5.833   0.610
 1620TIP3    H2 4794   5.207   5.760   0.714
 1621TIP3   OH2 4795   4.766   5.138   0.721
 1621TIP3    H1 4796   4.801   5.052   0.697
 1621TIP3    H2 4797   4.696   5.153   0.657
 1622TIP3   OH2 4798   4.764   4.932   0.527
 1622TIP3    H1 4799   4.846   4.953   0.480
 1622TIP3    H2 4800   4.711   4.886   0.462
 1623TIP3   OH2 4801   4.883   5.461   0.276
 1623TIP3    H1 4802   4.970   5.479   0.241
 1623TIP3    H2 4803   4.857   5.542   0.319
 1624TIP3   OH2 4804   5.380   5.313   0.698
 1624TIP3    H1 4805   5.416   5.245   0.641
 1624TIP3    H2 4806   5.414   5.395   0.662
 1625TIP3   OH2 4807   4.607   5.319   0.861
 1625TIP3    H1 4808   4.550   5.296   0.934
 1625TIP3    H2 4809   4.639   5.235   0.828
 1626TIP3   OH2 4810   4.853   4.678   0.591
 1626TIP3    H1 4811   4.824   4.767   0.573
 1626TIP3    H2 4812   4.785   4.623   0.550
 1627TIP3   OH2 4813   5.073   5.197   0.711
 1627TIP3    H1 4814   5.122   5.209   0.792
 1627TIP3    H2 4815   4.982   5.186   0.739
 1628TIP3   OH2 4816   5.253   5.121   0.511
 1628TIP3    H1 4817   5.194   5.157   0.578
 1628TIP3    H2 4818   5.315   5.067   0.560
 1629TIP3   OH2 4819   5.652   5.134   0.826
 1629TIP3    H1 4820   5.643   5.040   0.841
 1629TIP3    H2 4821   5.597   5.174   0.894
 1630TIP3   OH2 4822   4.521   5.036   0.913
 1630TIP3    H1 4823   4.529   4.950   0.873
 1630TIP3    H2 4824   4.565   5.028   0.997
 1631TIP3   OH2 4825   5.014   4.711   0.801
 1631TIP3    H1 4826   5.083   4.644   0.801
 1631TIP3    H2 4827   4.954   4.684   0.731
 1632TIP3   OH2 4828   5.096   4.943   0.918
 1632TIP3    H1 4829   5.058   4.861   0.886
 1632TIP3    H2 4830   5.020   5.001   0.929
 1633TIP3   OH2 4831   4.062   5.358   0.208
 1633TIP3    H1 4832   4.089   5.343   0.118
 1633TIP3    H2 4833   4.129   5.416   0.244
 1634TIP3   OH2 4834   4.260   5.097   0.857
 1634TIP3    H1 4835   4.354   5.093   0.871
 1634TIP3    H2 4836   4.228   5.012   0.888
 1635TIP3   OH2 4837   6.022   5.094   0.650
 1635TIP3    H1 4838   6.039   5.006   0.685
 1635TIP3    H2 4839   6.105   5.119   0.608
 1636TIP3   OH2 4840   4.188   4.794   0.243
 1636TIP3    H1 4841   4.237   4.712   0.238
 1636TIP3    H2 4842   4.246   4.859   0.202
 1637TIP3   OH2 4843   4.005   5.059   0.283
 1637TIP3    H1 4844   4.050   5.045   0.200
 1637TIP3    H2 4845   4.015   5.153   0.300
 1638TIP3   OH2 4846   5.762   5.057   0.377
 1638TIP3    H1 4847   5.756   5.001   0.299
 1638TIP3    H2 4848   5.837   5.113   0.360
 1639TIP3   OH2 4849   4.205   4.641   0.578
 1639TIP3    H1 4850   4.159   4.636   0.661
 1639TIP3    H2 4851   4.150   4.698   0.524
 1640TIP3   OH2 4852   4.201   6.109   0.747
 1640TIP3    H1 4853   4.112   6.077   0.733
 1640TIP3    H2 4854   4.219   6.093   0.840
 1641TIP3   OH2 4855   5.804   4.881   0.166
 1641TIP3    H1 4856   5.790   4.791   0.196
 1641TIP3    H2 4857   5.898   4.885   0.147
 1642TIP3   OH2 4858   4.206   6.398   0.226
 1642TIP3    H1 4859   4.156   6.473   0.193
 1642TIP3    H2 4860   4.202   6.407   0.321
 1643TIP3   OH2 4861   1.459   0.476   6.885
 1643TIP3    H1 4862   1.370   0.442   6.886
 1643TIP3    H2 4863   1.515   0.400   6.870
 1644TIP3   OH2 4864   4.531   4.770   0.816
 1644TIP3    H1 4865   4.497   4.704   0.877
 1644TIP3    H2 4866   4.624   4.777   0.837
 1645TIP3   OH2 4867   4.778   4.779   0.946
 1645TIP3    H1 4868   4.861   4.749   0.909
 1645TIP3    H2 4869   4.759   4.715   1.015
 1646TIP3   OH2 4870   5.510   4.758   0.802
 1646TIP3    H1 4871   5.553   4.736   0.885
 1646TIP3    H2 4872   5.577   4.804   0.752
 1647TIP3   OH2 4873   0.370   6.028   1.776
 1647TIP3    H1 4874   0.418   5.954   1.739
 1647TIP3    H2 4875   0.291   6.034   1.723
 1648TIP3   OH2 4876   1.873   6.334   0.600
 1648TIP3    H1 4877   1.870   6.425   0.571
 1648TIP3    H2 4878   1.862   6.283   0.519
 1649TIP3   OH2 4879   1.947   6.593   0.761
 1649TIP3    H1 4880   1.904   6.599   0.676
 1649TIP3    H2 4881   1.877   6.567   0.822
 1650TIP3   OH2 4882   1.689   6.254   0.786
 1650TIP3    H1 4883   1.608   6.299   0.762
 1650TIP3    H2 4884   1.752   6.279   0.719
 1651TIP3   OH2 4885   1.709   6.744   1.081
 1651TIP3    H1 4886   1.616   6.732   1.060
 1651TIP3    H2 4887   1.746   6.656   1.076
 1652TIP3   OH2 4888   1.225   6.117   1.111
 1652TIP3    H1 4889   1.294   6.082   1.167
 1652TIP3    H2 4890   1.146   6.071   1.139
 1653TIP3   OH2 4891   1.479   6.606   0.987
 1653TIP3    H1 4892   1.448   6.561   1.065
 1653TIP3    H2 4893   1.411   6.590   0.921
 1654TIP3   OH2 4894   1.195   6.746   1.296
 1654TIP3    H1 4895   1.194   6.652   1.316
 1654TIP3    H2 4896   1.287   6.766   1.278
 1655TIP3   OH2 4897   1.395   6.290   0.978
 1655TIP3    H1 4898   1.406   6.339   1.060
 1655TIP3    H2 4899   1.340   6.215   1.003
 1656TIP3   OH2 4900   1.732   6.497   0.929
 1656TIP3    H1 4901   1.643   6.529   0.941
 1656TIP3    H2 4902   1.721   6.407   0.896
 1657TIP3   OH2 4903   1.188   7.136   1.357
 1657TIP3    H1 4904   1.216   7.068   1.296
 1657TIP3    H2 4905   1.195   7.094   1.443
 1658TIP3   OH2 4906   1.484   6.758   1.353
 1658TIP3    H1 4907   1.527   6.673   1.360
 1658TIP3    H2 4908   1.552   6.818   1.323
 1659TIP3   OH2 4909   1.582   7.059   1.018
 1659TIP3    H1 4910   1.512   7.042   0.955
 1659TIP3    H2 4911   1.656   7.087   0.964
 1660TIP3   OH2 4912   0.976   5.995   1.147
 1660TIP3    H1 4913   0.896   6.032   1.110
 1660TIP3    H2 4914   0.966   5.900   1.136
 1661TIP3   OH2 4915   1.186   6.484   1.376
 1661TIP3    H1 4916   1.215   6.481   1.467
 1661TIP3    H2 4917   1.094   6.460   1.380
 1662TIP3   OH2 4918   1.397   6.454   1.201
 1662TIP3    H1 4919   1.317   6.457   1.253
 1662TIP3    H2 4920   1.467   6.443   1.265
 1663TIP3   OH2 4921   1.606   6.441   1.382
 1663TIP3    H1 4922   1.614   6.345   1.388
 1663TIP3    H2 4923   1.593   6.470   1.472
 1664TIP3   OH2 4924   1.063   6.042   1.410
 1664TIP3    H1 4925   1.128   5.972   1.402
 1664TIP3    H2 4926   1.008   6.033   1.333
 1665TIP3   OH2 4927   1.151   6.235   1.580
 1665TIP3    H1 4928   1.124   6.167   1.519
 1665TIP3    H2 4929   1.077   6.296   1.582
 1666TIP3   OH2 4930   1.723   7.429   1.118
 1666TIP3    H1 4931   1.632   7.399   1.108
 1666TIP3    H2 4932   1.715   7.520   1.147
 1667TIP3   OH2 4933   1.815   7.118   0.881
 1667TIP3    H1 4934   1.851   7.037   0.917
 1667TIP3    H2 4935   1.884   7.153   0.826
 1668TIP3   OH2 4936   1.919   6.888   0.977
 1668TIP3    H1 4937   1.844   6.838   1.010
 1668TIP3    H2 4938   1.994   6.832   0.995
 1669TIP3   OH2 4939   2.144   6.308   1.259
 1669TIP3    H1 4940   2.206   6.244   1.221
 1669TIP3    H2 4941   2.114   6.359   1.184
 1670TIP3   OH2 4942   2.004   6.440   1.064
 1670TIP3    H1 4943   1.933   6.474   1.119
 1670TIP3    H2 4944   1.962   6.372   1.011
 1671TIP3   OH2 4945   1.906   6.177   0.968
 1671TIP3    H1 4946   1.821   6.178   0.924
 1671TIP3    H2 4947   1.935   6.086   0.963
 1672TIP3   OH2 4948   1.743   5.968   0.435
 1672TIP3    H1 4949   1.788   6.049   0.412
 1672TIP3    H2 4950   1.650   5.989   0.424
 1673TIP3   OH2 4951   0.985   6.852   1.164
 1673TIP3    H1 4952   1.014   6.901   1.087
 1673TIP3    H2 4953   1.066   6.823   1.206
 1674TIP3   OH2 4954   0.859   6.092   1.678
 1674TIP3    H1 4955   0.906   6.059   1.602
 1674TIP3    H2 4956   0.820   6.015   1.718
 1675TIP3   OH2 4957   1.654   6.167   1.384
 1675TIP3    H1 4958   1.668   6.137   1.474
 1675TIP3    H2 4959   1.741   6.161   1.343
 1676TIP3   OH2 4960   2.225   6.985   0.455
 1676TIP3    H1 4961   2.216   6.898   0.495
 1676TIP3    H2 4962   2.272   7.036   0.520
 1677TIP3   OH2 4963   2.422   6.472   0.076
 1677TIP3    H1 4964   2.369   6.534   0.026
 1677TIP3    H2 4965   2.408   6.388   0.031
 1678TIP3   OH2 4966   3.688   6.775   0.146
 1678TIP3    H1 4967   3.715   6.862   0.116
 1678TIP3    H2 4968   3.709   6.775   0.240
 1679TIP3   OH2 4969   2.393   6.443   0.535
 1679TIP3    H1 4970   2.348   6.484   0.461
 1679TIP3    H2 4971   2.333   6.456   0.609
 1680TIP3   OH2 4972   2.524   7.256   0.337
 1680TIP3    H1 4973   2.436   7.231   0.307
 1680TIP3    H2 4974   2.554   7.319   0.272
 1681TIP3   OH2 4975   2.293   6.554   0.307
 1681TIP3    H1 4976   2.335   6.639   0.319
 1681TIP3    H2 4977   2.335   6.517   0.229
 1682TIP3   OH2 4978   3.339   6.471   0.336
 1682TIP3    H1 4979   3.247   6.477   0.310
 1682TIP3    H2 4980   3.388   6.493   0.256
 1683TIP3   OH2 4981   2.736   6.154   0.246
 1683TIP3    H1 4982   2.721   6.061   0.258
 1683TIP3    H2 4983   2.657   6.196   0.281
 1684TIP3   OH2 4984   3.189   7.131   0.369
 1684TIP3    H1 4985   3.177   7.226   0.365
 1684TIP3    H2 4986   3.106   7.095   0.338
 1685TIP3   OH2 4987   2.424   7.014   0.179
 1685TIP3    H1 4988   2.419   6.966   0.096
 1685TIP3    H2 4989   2.517   7.034   0.189
 1686TIP3   OH2 4990   2.562   7.456   0.521
 1686TIP3    H1 4991   2.479   7.503   0.518
 1686TIP3    H2 4992   2.550   7.382   0.462
 1687TIP3   OH2 4993   2.304   7.125   0.677
 1687TIP3    H1 4994   2.316   7.208   0.722
 1687TIP3    H2 4995   2.214   7.099   0.698
 1688TIP3   OH2 4996   3.477   6.930   0.555
 1688TIP3    H1 4997   3.531   6.956   0.480
 1688TIP3    H2 4998   3.491   6.836   0.563
 1689TIP3   OH2 4999   2.058   7.446   0.689
 1689TIP3    H1 5000   2.112   7.387   0.742
 1689TIP3    H2 5001   1.989   7.390   0.653
 1690TIP3   OH2 5002   2.499   6.246   0.365
 1690TIP3    H1 5003   2.414   6.215   0.334
 1690TIP3    H2 5004   2.478   6.322   0.419
 1691TIP3   OH2 5005   3.023   6.349   0.563
 1691TIP3    H1 5006   3.095   6.337   0.625
 1691TIP3    H2 5007   2.944   6.329   0.614
 1692TIP3   OH2 5008   3.222   6.754   0.459
 1692TIP3    H1 5009   3.207   6.731   0.551
 1692TIP3    H2 5010   3.211   6.849   0.456
 1693TIP3   OH2 5011   2.430   6.789   0.360
 1693TIP3    H1 5012   2.386   6.799   0.445
 1693TIP3    H2 5013   2.401   6.865   0.309
 1694TIP3   OH2 5014   2.969   6.988   0.706
 1694TIP3    H1 5015   2.965   6.918   0.771
 1694TIP3    H2 5016   3.061   6.993   0.681
 1695TIP3   OH2 5017   2.274   6.757   0.601
 1695TIP3    H1 5018   2.348   6.794   0.650
 1695TIP3    H2 5019   2.250   6.679   0.649
 1696TIP3   OH2 5020   2.974   6.962   0.266
 1696TIP3    H1 5021   2.928   6.910   0.200
 1696TIP3    H2 5022   2.949   6.923   0.350
 1697TIP3   OH2 5023   2.694   6.506  -0.003
 1697TIP3    H1 5024   2.604   6.498   0.030
 1697TIP3    H2 5025   2.748   6.466   0.066
 1698TIP3   OH2 5026   3.103   6.503   0.198
 1698TIP3    H1 5027   3.051   6.552   0.261
 1698TIP3    H2 5028   3.041   6.443   0.157
 1699TIP3   OH2 5029   2.283   7.348   0.838
 1699TIP3    H1 5030   2.364   7.361   0.887
 1699TIP3    H2 5031   2.216   7.338   0.905
 1700TIP3   OH2 5032   2.824   6.774   0.124
 1700TIP3    H1 5033   2.798   6.720   0.050
 1700TIP3    H2 5034   2.781   6.734   0.199
 1701TIP3   OH2 5035   8.069   2.207   6.900
 1701TIP3    H1 5036   8.013   2.140   6.938
 1701TIP3    H2 5037   8.042   2.211   6.808
 1702TIP3   OH2 5038   2.686   6.693   0.351
 1702TIP3    H1 5039   2.599   6.731   0.350
 1702TIP3    H2 5040   2.739   6.754   0.401
 1703TIP3   OH2 5041   2.858   7.413   0.481
 1703TIP3    H1 5042   2.864   7.406   0.576
 1703TIP3    H2 5043   2.773   7.455   0.465
 1704TIP3   OH2 5044   2.052   7.035   0.747
 1704TIP3    H1 5045   2.086   7.018   0.835
 1704TIP3    H2 5046   2.013   6.953   0.719
 1705TIP3   OH2 5047   2.744   7.138   0.734
 1705TIP3    H1 5048   2.698   7.114   0.654
 1705TIP3    H2 5049   2.831   7.098   0.725
 1706TIP3   OH2 5050   2.215   6.521   0.739
 1706TIP3    H1 5051   2.122   6.543   0.749
 1706TIP3    H2 5052   2.234   6.462   0.813
 1707TIP3   OH2 5053   3.001   6.593   0.440
 1707TIP3    H1 5054   3.089   6.630   0.449
 1707TIP3    H2 5055   3.007   6.508   0.484
 1708TIP3   OH2 5056   2.879   6.836   0.489
 1708TIP3    H1 5057   2.905   6.875   0.572
 1708TIP3    H2 5058   2.921   6.750   0.489
 1709TIP3   OH2 5059   3.518   6.668   0.445
 1709TIP3    H1 5060   3.440   6.616   0.464
 1709TIP3    H2 5061   3.496   6.715   0.364
 1710TIP3   OH2 5062   2.240   6.154   0.329
 1710TIP3    H1 5063   2.222   6.115   0.243
 1710TIP3    H2 5064   2.236   6.080   0.390
 1711TIP3   OH2 5065   2.070   7.286   0.999
 1711TIP3    H1 5066   2.111   7.201   0.985
 1711TIP3    H2 5067   1.998   7.269   1.059
 1712TIP3   OH2 5068   2.659   7.401   0.770
 1712TIP3    H1 5069   2.631   7.421   0.680
 1712TIP3    H2 5070   2.707   7.318   0.762
 1713TIP3   OH2 5071   3.114   7.393   0.387
 1713TIP3    H1 5072   3.155   7.480   0.392
 1713TIP3    H2 5073   3.021   7.411   0.402
 1714TIP3   OH2 5074   2.218   7.050   0.975
 1714TIP3    H1 5075   2.298   7.004   0.948
 1714TIP3    H2 5076   2.237   7.080   1.064
 1715TIP3   OH2 5077   2.494   6.930   0.633
 1715TIP3    H1 5078   2.439   7.003   0.660
 1715TIP3    H2 5079   2.555   6.968   0.569
 1716TIP3   OH2 5080   2.980   7.344   0.786
 1716TIP3    H1 5081   3.052   7.328   0.725
 1716TIP3    H2 5082   2.997   7.285   0.859
 1717TIP3   OH2 5083   2.647   6.738   0.755
 1717TIP3    H1 5084   2.650   6.660   0.699
 1717TIP3    H2 5085   2.602   6.803   0.702
 1718TIP3   OH2 5086   2.650   6.526   0.571
 1718TIP3    H1 5087   2.674   6.566   0.487
 1718TIP3    H2 5088   2.559   6.499   0.558
 1719TIP3   OH2 5089   2.667   7.067   0.473
 1719TIP3    H1 5090   2.750   7.052   0.428
 1719TIP3    H2 5091   2.625   7.136   0.422
 1720TIP3   OH2 5092   3.272   7.008   0.875
 1720TIP3    H1 5093   3.314   6.923   0.880
 1720TIP3    H2 5094   3.256   7.023   0.782
 1721TIP3   OH2 5095   3.199   7.303   0.631
 1721TIP3    H1 5096   3.171   7.337   0.546
 1721TIP3    H2 5097   3.287   7.269   0.616
 1722TIP3   OH2 5098   2.516   6.834   0.984
 1722TIP3    H1 5099   2.456   6.763   1.007
 1722TIP3    H2 5100   2.554   6.808   0.901
 1723TIP3   OH2 5101   2.767   6.290   0.653
 1723TIP3    H1 5102   2.727   6.373   0.625
 1723TIP3    H2 5103   2.700   6.224   0.635
 1724TIP3   OH2 5104   2.907   6.764   0.851
 1724TIP3    H1 5105   2.894   6.758   0.946
 1724TIP3    H2 5106   2.819   6.751   0.815
 1725TIP3   OH2 5107   3.142   6.705   0.713
 1725TIP3    H1 5108   3.063   6.711   0.767
 1725TIP3    H2 5109   3.214   6.696   0.776
 1726TIP3   OH2 5110   3.365   6.689   0.880
 1726TIP3    H1 5111   3.371   6.594   0.885
 1726TIP3    H2 5112   3.353   6.718   0.971
 1727TIP3   OH2 5113   2.373   6.604   1.049
 1727TIP3    H1 5114   2.371   6.517   1.011
 1727TIP3    H2 5115   2.409   6.591   1.137
 1728TIP3   OH2 5116   2.842   6.282   0.914
 1728TIP3    H1 5117   2.913   6.218   0.908
 1728TIP3    H2 5118   2.807   6.289   0.826
 1729TIP3   OH2 5119   2.927   6.503   1.056
 1729TIP3    H1 5120   2.900   6.430   1.000
 1729TIP3    H2 5121   2.853   6.564   1.053
 1730TIP3   OH2 5122   3.426   7.730   0.658
 1730TIP3    H1 5123   3.356   7.721   0.724
 1730TIP3    H2 5124   3.439   7.825   0.650
 1731TIP3   OH2 5125   3.421   7.367   0.456
 1731TIP3    H1 5126   3.458   7.294   0.505
 1731TIP3    H2 5127   3.423   7.339   0.365
 1732TIP3   OH2 5128   3.762   7.140   0.605
 1732TIP3    H1 5129   3.708   7.080   0.554
 1732TIP3    H2 5130   3.802   7.198   0.540
 1733TIP3   OH2 5131   2.116   6.704   1.046
 1733TIP3    H1 5132   2.209   6.680   1.042
 1733TIP3    H2 5133   2.070   6.620   1.043
 1734TIP3   OH2 5134   3.898   6.565   0.843
 1734TIP3    H1 5135   3.928   6.475   0.833
 1734TIP3    H2 5136   3.935   6.611   0.768
 1735TIP3   OH2 5137   2.077   6.378   0.331
 1735TIP3    H1 5138   2.123   6.295   0.341
 1735TIP3    H2 5139   2.143   6.444   0.348
 1736TIP3   OH2 5140   3.796   6.654   0.391
 1736TIP3    H1 5141   3.712   6.650   0.438
 1736TIP3    H2 5142   3.813   6.563   0.366
 1737TIP3   OH2 5143   2.070   6.200   0.737
 1737TIP3    H1 5144   2.024   6.198   0.821
 1737TIP3    H2 5145   2.014   6.253   0.680
 1738TIP3   OH2 5146   3.628   6.422   0.312
 1738TIP3    H1 5147   3.571   6.474   0.368
 1738TIP3    H2 5148   3.653   6.346   0.365
 1739TIP3   OH2 5149   2.901   6.335   0.110
 1739TIP3    H1 5150   2.850   6.269   0.157
 1739TIP3    H2 5151   2.900   6.305   0.019
 1740TIP3   OH2 5152   2.186   6.058   0.072
 1740TIP3    H1 5153   2.092   6.046   0.081
 1740TIP3    H2 5154   2.222   5.970   0.078
 1741TIP3   OH2 5155   8.288   2.034   6.919
 1741TIP3    H1 5156   8.376   2.070   6.934
 1741TIP3    H2 5157   8.230   2.110   6.925
 1742TIP3   OH2 5158   2.371   6.331   0.965
 1742TIP3    H1 5159   2.335   6.264   1.024
 1742TIP3    H2 5160   2.463   6.339   0.991
 1743TIP3   OH2 5161   2.619   6.338   1.087
 1743TIP3    H1 5162   2.698   6.315   1.038
 1743TIP3    H2 5163   2.611   6.268   1.153
 1744TIP3   OH2 5164   3.403   6.420   0.916
 1744TIP3    H1 5165   3.419   6.393   1.006
 1744TIP3    H2 5166   3.488   6.415   0.873
 1745TIP3   OH2 5167   3.978   7.573   0.358
 1745TIP3    H1 5168   3.911   7.517   0.398
 1745TIP3    H2 5169   3.957   7.661   0.389
 1746TIP3   OH2 5170   3.911   7.318   0.452
 1746TIP3    H1 5171   3.951   7.242   0.410
 1746TIP3    H2 5172   3.979   7.351   0.511
 1747TIP3   OH2 5173   4.329   7.037   0.363
 1747TIP3    H1 5174   4.326   7.079   0.449
 1747TIP3    H2 5175   4.416   6.999   0.357
 1748TIP3   OH2 5176   4.170   6.875   0.540
 1748TIP3    H1 5177   4.222   6.872   0.460
 1748TIP3    H2 5178   4.234   6.887   0.610
 1749TIP3   OH2 5179   4.662   6.777   0.477
 1749TIP3    H1 5180   4.681   6.723   0.400
 1749TIP3    H2 5181   4.619   6.855   0.441
 1750TIP3   OH2 5182   3.968   6.856   0.361
 1750TIP3    H1 5183   4.031   6.851   0.432
 1750TIP3    H2 5184   3.914   6.777   0.371
 1751TIP3   OH2 5185   3.788   6.529   0.112
 1751TIP3    H1 5186   3.732   6.481   0.174
 1751TIP3    H2 5187   3.752   6.618   0.112
 1752TIP3   OH2 5188   4.157   6.566   0.443
 1752TIP3    H1 5189   4.178   6.523   0.527
 1752TIP3    H2 5190   4.228   6.629   0.431
 1753TIP3   OH2 5191   4.426   6.592   0.726
 1753TIP3    H1 5192   4.441   6.549   0.642
 1753TIP3    H2 5193   4.401   6.520   0.785
 1754TIP3   OH2 5194   1.289   0.047   3.970
 1754TIP3    H1 5195   1.305   0.034   4.063
 1754TIP3    H2 5196   1.375   0.072   3.934
 1755TIP3   OH2 5197   1.070   0.406   3.987
 1755TIP3    H1 5198   1.118   0.371   3.912
 1755TIP3    H2 5199   1.134   0.462   4.032
 1756TIP3   OH2 5200   7.738   7.551   4.503
 1756TIP3    H1 5201   7.741   7.622   4.439
 1756TIP3    H2 5202   7.815   7.564   4.558
 1757TIP3   OH2 5203   1.349   0.331   4.041
 1757TIP3    H1 5204   1.281   0.267   4.062
 1757TIP3    H2 5205   1.419   0.280   4.002
 1758TIP3   OH2 5206   1.769   0.094   4.522
 1758TIP3    H1 5207   1.722   0.013   4.503
 1758TIP3    H2 5208   1.724   0.161   4.471
 1759TIP3   OH2 5209   7.723   7.781   4.360
 1759TIP3    H1 5210   7.645   7.835   4.354
 1759TIP3    H2 5211   7.737   7.750   4.270
 1760TIP3   OH2 5212   1.156   0.191   4.214
 1760TIP3    H1 5213   1.103   0.269   4.230
 1760TIP3    H2 5214   1.223   0.194   4.281
 1761TIP3   OH2 5215   1.936   0.605   4.561
 1761TIP3    H1 5216   1.940   0.509   4.558
 1761TIP3    H2 5217   1.849   0.624   4.596
 1762TIP3   OH2 5218   0.996   0.254   4.641
 1762TIP3    H1 5219   0.971   0.343   4.616
 1762TIP3    H2 5220   0.913   0.212   4.666
 1763TIP3   OH2 5221   7.472   7.699   4.910
 1763TIP3    H1 5222   7.414   7.774   4.893
 1763TIP3    H2 5223   7.432   7.627   4.862
 1764TIP3   OH2 5224   1.632   0.929   4.632
 1764TIP3    H1 5225   1.620   0.941   4.538
 1764TIP3    H2 5226   1.715   0.972   4.651
 1765TIP3   OH2 5227   7.282   7.937   4.353
 1765TIP3    H1 5228   7.369   7.935   4.313
 1765TIP3    H2 5229   7.223   7.900   4.287
 1766TIP3   OH2 5230   1.435   0.388   4.630
 1766TIP3    H1 5231   1.374   0.331   4.585
 1766TIP3    H2 5232   1.390   0.411   4.712
 1767TIP3   OH2 5233   1.959   0.326   4.565
 1767TIP3    H1 5234   1.885   0.276   4.598
 1767TIP3    H2 5235   1.978   0.287   4.479
 1768TIP3   OH2 5236   7.128   7.852   4.135
 1768TIP3    H1 5237   7.051   7.811   4.095
 1768TIP3    H2 5238   7.202   7.801   4.101
 1769TIP3   OH2 5239   0.924   0.500   4.547
 1769TIP3    H1 5240   0.870   0.575   4.524
 1769TIP3    H2 5241   0.962   0.470   4.464
 1770TIP3   OH2 5242   1.322   0.174   4.433
 1770TIP3    H1 5243   1.294   0.166   4.524
 1770TIP3    H2 5244   1.337   0.084   4.404
 1771TIP3   OH2 5245   1.453   0.659   4.474
 1771TIP3    H1 5246   1.477   0.576   4.434
 1771TIP3    H2 5247   1.435   0.717   4.400
 1772TIP3   OH2 5248   1.518   0.683   4.052
 1772TIP3    H1 5249   1.470   0.685   3.969
 1772TIP3    H2 5250   1.610   0.691   4.025
 1773TIP3   OH2 5251   1.399   0.426   4.918
 1773TIP3    H1 5252   1.456   0.363   4.962
 1773TIP3    H2 5253   1.453   0.504   4.907
 1774TIP3   OH2 5254   1.573   0.161   4.717
 1774TIP3    H1 5255   1.648   0.145   4.661
 1774TIP3    H2 5256   1.543   0.249   4.694
 1775TIP3   OH2 5257   7.347   7.942   4.846
 1775TIP3    H1 5258   7.282   7.995   4.800
 1775TIP3    H2 5259   7.431   7.971   4.812
 1776TIP3   OH2 5260   1.785   0.650   4.031
 1776TIP3    H1 5261   1.810   0.688   4.116
 1776TIP3    H2 5262   1.850   0.685   3.970
 1777TIP3   OH2 5263   1.815   0.730   4.303
 1777TIP3    H1 5264   1.773   0.652   4.342
 1777TIP3    H2 5265   1.901   0.733   4.344
 1778TIP3   OH2 5266   1.792   0.372   4.870
 1778TIP3    H1 5267   1.726   0.379   4.939
 1778TIP3    H2 5268   1.843   0.452   4.878
 1779TIP3   OH2 5269   1.742   0.176   4.126
 1779TIP3    H1 5270   1.804   0.142   4.062
 1779TIP3    H2 5271   1.725   0.266   4.097
 1780TIP3   OH2 5272   1.686   0.507   4.384
 1780TIP3    H1 5273   1.657   0.430   4.434
 1780TIP3    H2 5274   1.676   0.482   4.293
 1781TIP3   OH2 5275   1.920   0.020   4.734
 1781TIP3    H1 5276   1.986  -0.048   4.725
 1781TIP3    H2 5277   1.890   0.037   4.644
 1782TIP3   OH2 5278   7.745   7.820   4.780
 1782TIP3    H1 5279   7.733   7.812   4.875
 1782TIP3    H2 5280   7.810   7.753   4.759
 1783TIP3   OH2 5281   7.313   7.435   4.273
 1783TIP3    H1 5282   7.347   7.389   4.197
 1783TIP3    H2 5283   7.362   7.517   4.275
 1784TIP3   OH2 5284   7.407   7.682   4.386
 1784TIP3    H1 5285   7.315   7.693   4.413
 1784TIP3    H2 5286   7.457   7.710   4.463
 1785TIP3   OH2 5287   1.294   0.551   3.578
 1785TIP3    H1 5288   1.327   0.464   3.556
 1785TIP3    H2 5289   1.328   0.569   3.666
 1786TIP3   OH2 5290   0.994   0.689   4.837
 1786TIP3    H1 5291   1.046   0.634   4.895
 1786TIP3    H2 5292   1.056   0.720   4.772
 1787TIP3   OH2 5293   1.222   0.747   4.689
 1787TIP3    H1 5294   1.218   0.769   4.596
 1787TIP3    H2 5295   1.285   0.809   4.725
 1788TIP3   OH2 5296   0.981   0.649   4.204
 1788TIP3    H1 5297   0.889   0.640   4.176
 1788TIP3    H2 5298   0.981   0.726   4.261
 1789TIP3   OH2 5299   1.227   0.595   4.120
 1789TIP3    H1 5300   1.141   0.621   4.152
 1789TIP3    H2 5301   1.288   0.654   4.163
 1790TIP3   OH2 5302   1.383   0.804   4.247
 1790TIP3    H1 5303   1.377   0.894   4.216
 1790TIP3    H2 5304   1.437   0.759   4.182
 1791TIP3   OH2 5305   1.678   0.659   4.656
 1791TIP3    H1 5306   1.612   0.621   4.599
 1791TIP3    H2 5307   1.661   0.753   4.654
 1792TIP3   OH2 5308   2.929   0.012   3.381
 1792TIP3    H1 5309   2.902   0.101   3.358
 1792TIP3    H2 5310   2.864  -0.045   3.340
 1793TIP3   OH2 5311   0.095   8.041   3.807
 1793TIP3    H1 5312   0.151   8.016   3.880
 1793TIP3    H2 5313   0.050   7.960   3.782
 1794TIP3   OH2 5314   7.919   7.949   4.148
 1794TIP3    H1 5315   7.955   7.916   4.230
 1794TIP3    H2 5316   7.995   7.959   4.091
 1795TIP3   OH2 5317   3.202   0.328   3.474
 1795TIP3    H1 5318   3.185   0.266   3.545
 1795TIP3    H2 5319   3.229   0.409   3.518
 1796TIP3   OH2 5320   2.234   0.306   3.841
 1796TIP3    H1 5321   2.224   0.211   3.846
 1796TIP3    H2 5322   2.328   0.320   3.828
 1797TIP3   OH2 5323   7.665   7.938   3.823
 1797TIP3    H1 5324   7.675   7.863   3.766
 1797TIP3    H2 5325   7.752   7.979   3.824
 1798TIP3   OH2 5326   2.866   0.752   3.492
 1798TIP3    H1 5327   2.892   0.691   3.423
 1798TIP3    H2 5328   2.880   0.704   3.573
 1799TIP3   OH2 5329   2.748   0.246   3.801
 1799TIP3    H1 5330   2.791   0.164   3.780
 1799TIP3    H2 5331   2.819   0.305   3.828
 1800TIP3   OH2 5332   0.356   7.736   3.858
 1800TIP3    H1 5333   0.427   7.672   3.858
 1800TIP3    H2 5334   0.305   7.714   3.780
 1801TIP3   OH2 5335   8.154   7.401   3.866
 1801TIP3    H1 5336   8.137   7.386   3.773
 1801TIP3    H2 5337   8.208   7.327   3.893
 1802TIP3   OH2 5338   0.282   7.522   3.490
 1802TIP3    H1 5339   0.361   7.469   3.498
 1802TIP3    H2 5340   0.276   7.543   3.397
 1803TIP3   OH2 5341   7.831   7.619   3.891
 1803TIP3    H1 5342   7.924   7.621   3.913
 1803TIP3    H2 5343   7.825   7.662   3.806
 1804TIP3   OH2 5344   8.213   7.808   3.754
 1804TIP3    H1 5345   8.308   7.798   3.760
 1804TIP3    H2 5346   8.184   7.727   3.712
 1805TIP3   OH2 5347   0.984   7.775   3.987
 1805TIP3    H1 5348   0.895   7.808   3.973
 1805TIP3    H2 5349   1.005   7.801   4.077
 1806TIP3   OH2 5350   2.838   0.235   3.241
 1806TIP3    H1 5351   2.807   0.213   3.154
 1806TIP3    H2 5352   2.785   0.311   3.267
 1807TIP3   OH2 5353   2.602   0.170   4.020
 1807TIP3    H1 5354   2.545   0.240   4.053
 1807TIP3    H2 5355   2.649   0.209   3.947
 1808TIP3   OH2 5356   8.075   7.617   4.002
 1808TIP3    H1 5357   8.151   7.654   4.048
 1808TIP3    H2 5358   8.111   7.544   3.951
 1809TIP3   OH2 5359   2.435   0.367   4.119
 1809TIP3    H1 5360   2.421   0.455   4.084
 1809TIP3    H2 5361   2.361   0.352   4.178
 1810TIP3   OH2 5362   3.243   0.571   3.614
 1810TIP3    H1 5363   3.153   0.567   3.647
 1810TIP3    H2 5364   3.247   0.654   3.566
 1811TIP3   OH2 5365   2.951   0.598   3.277
 1811TIP3    H1 5366   3.002   0.518   3.264
 1811TIP3    H2 5367   3.007   0.668   3.245
 1812TIP3   OH2 5368   3.089   0.368   3.226
 1812TIP3    H1 5369   3.018   0.304   3.227
 1812TIP3    H2 5370   3.141   0.348   3.304
 1813TIP3   OH2 5371   3.478   0.464   3.958
 1813TIP3    H1 5372   3.462   0.389   3.900
 1813TIP3    H2 5373   3.463   0.540   3.903
 1814TIP3   OH2 5374   8.436   7.876   3.212
 1814TIP3    H1 5375   8.360   7.924   3.179
 1814TIP3    H2 5376   8.489   7.858   3.134
 1815TIP3   OH2 5377   3.664   0.133   3.825
 1815TIP3    H1 5378   3.577   0.173   3.827
 1815TIP3    H2 5379   3.693   0.142   3.735
 1816TIP3   OH2 5380   0.292   7.979   3.194
 1816TIP3    H1 5381   0.230   7.996   3.265
 1816TIP3    H2 5382   0.377   7.975   3.237
 1817TIP3   OH2 5383   3.339   0.002   4.107
 1817TIP3    H1 5384   3.322   0.082   4.157
 1817TIP3    H2 5385   3.255  -0.019   4.066
 1818TIP3   OH2 5386   8.041   7.947   3.597
 1818TIP3    H1 5387   8.024   7.880   3.531
 1818TIP3    H2 5388   8.109   7.910   3.653
 1819TIP3   OH2 5389   2.491   0.353   3.732
 1819TIP3    H1 5390   2.472   0.338   3.639
 1819TIP3    H2 5391   2.579   0.317   3.745
 1820TIP3   OH2 5392   8.133   7.952   3.975
 1820TIP3    H1 5393   8.169   7.901   3.903
 1820TIP3    H2 5394   8.191   8.028   3.983
 1821TIP3   OH2 5395   2.996   0.566   3.733
 1821TIP3    H1 5396   2.990   0.644   3.789
 1821TIP3    H2 5397   2.990   0.492   3.794
 1822TIP3   OH2 5398   2.632   0.466   4.288
 1822TIP3    H1 5399   2.570   0.525   4.333
 1822TIP3    H2 5400   2.577   0.415   4.229
 1823TIP3   OH2 5401   0.138   7.817   3.027
 1823TIP3    H1 5402   0.197   7.877   3.073
 1823TIP3    H2 5403   0.157   7.832   2.934
 1824TIP3   OH2 5404   2.399   0.058   4.402
 1824TIP3    H1 5405   2.414   0.145   4.439
 1824TIP3    H2 5406   2.307   0.040   4.420
 1825TIP3   OH2 5407   2.702   0.476   3.279
 1825TIP3    H1 5408   2.785   0.524   3.290
 1825TIP3    H2 5409   2.647   0.534   3.228
 1826TIP3   OH2 5410   2.424   0.629   4.369
 1826TIP3    H1 5411   2.395   0.634   4.278
 1826TIP3    H2 5412   2.344   0.610   4.418
 1827TIP3   OH2 5413   3.290   0.423   2.618
 1827TIP3    H1 5414   3.295   0.518   2.612
 1827TIP3    H2 5415   3.378   0.393   2.594
 1828TIP3   OH2 5416   2.036   0.197   4.331
 1828TIP3    H1 5417   2.026   0.166   4.241
 1828TIP3    H2 5418   2.077   0.123   4.377
 1829TIP3   OH2 5419   1.888   0.377   3.943
 1829TIP3    H1 5420   1.982   0.383   3.961
 1829TIP3    H2 5421   1.849   0.449   3.993
 1830TIP3   OH2 5422   3.710   0.816   4.023
 1830TIP3    H1 5423   3.715   0.722   4.037
 1830TIP3    H2 5424   3.630   0.843   4.068
 1831TIP3   OH2 5425   2.818   0.610   4.147
 1831TIP3    H1 5426   2.811   0.701   4.177
 1831TIP3    H2 5427   2.752   0.563   4.199
 1832TIP3   OH2 5428   2.594   0.696   3.111
 1832TIP3    H1 5429   2.561   0.677   3.023
 1832TIP3    H2 5430   2.562   0.785   3.130
 1833TIP3   OH2 5431   2.029   0.582   3.480
 1833TIP3    H1 5432   2.076   0.563   3.562
 1833TIP3    H2 5433   1.974   0.504   3.466
 1834TIP3   OH2 5434   2.799   0.634   2.738
 1834TIP3    H1 5435   2.853   0.564   2.701
 1834TIP3    H2 5436   2.831   0.645   2.827
 1835TIP3   OH2 5437   2.849   0.680   3.004
 1835TIP3    H1 5438   2.766   0.676   3.052
 1835TIP3    H2 5439   2.915   0.656   3.069
 1836TIP3   OH2 5440   0.733   7.958   4.257
 1836TIP3    H1 5441   0.653   7.999   4.225
 1836TIP3    H2 5442   0.777   7.927   4.178
 1837TIP3   OH2 5443   2.228   0.392   4.300
 1837TIP3    H1 5444   2.279   0.387   4.382
 1837TIP3    H2 5445   2.155   0.331   4.314
 1838TIP3   OH2 5446   0.472   7.775   4.292
 1838TIP3    H1 5447   0.498   7.835   4.361
 1838TIP3    H2 5448   0.507   7.813   4.211
 1839TIP3   OH2 5449   0.200   7.857   2.761
 1839TIP3    H1 5450   0.161   7.864   2.674
 1839TIP3    H2 5451   0.290   7.890   2.750
 1840TIP3   OH2 5452   8.247   7.766   4.155
 1840TIP3    H1 5453   8.188   7.769   4.230
 1840TIP3    H2 5454   8.227   7.844   4.104
 1841TIP3   OH2 5455   8.108   7.601   3.597
 1841TIP3    H1 5456   8.047   7.527   3.592
 1841TIP3    H2 5457   8.187   7.570   3.553
 1842TIP3   OH2 5458   0.020   7.688   3.391
 1842TIP3    H1 5459  -0.020   7.754   3.334
 1842TIP3    H2 5460   0.101   7.663   3.347
 1843TIP3   OH2 5461   0.242   7.962   4.430
 1843TIP3    H1 5462   0.212   7.894   4.490
 1843TIP3    H2 5463   0.337   7.968   4.447
 1844TIP3   OH2 5464   0.195   7.738   3.622
 1844TIP3    H1 5465   0.135   7.773   3.557
 1844TIP3    H2 5466   0.224   7.654   3.585
 1845TIP3   OH2 5467   8.050   7.782   4.360
 1845TIP3    H1 5468   8.085   7.863   4.395
 1845TIP3    H2 5469   8.056   7.719   4.432
 1846TIP3   OH2 5470   0.252   7.933   4.011
 1846TIP3    H1 5471   0.291   7.868   3.952
 1846TIP3    H2 5472   0.219   7.882   4.085
 1847TIP3   OH2 5473   3.422   1.164   4.114
 1847TIP3    H1 5474   3.417   1.182   4.020
 1847TIP3    H2 5475   3.501   1.210   4.143
 1848TIP3   OH2 5476   2.378   0.301   4.535
 1848TIP3    H1 5477   2.460   0.314   4.584
 1848TIP3    H2 5478   2.311   0.298   4.603
 1849TIP3   OH2 5479  -0.018   7.783   3.793
 1849TIP3    H1 5480   0.056   7.747   3.744
 1849TIP3    H2 5481  -0.010   7.743   3.880
 1850TIP3   OH2 5482   8.496   7.689   4.047
 1850TIP3    H1 5483   8.413   7.690   4.095
 1850TIP3    H2 5484   8.562   7.706   4.114
 1851TIP3   OH2 5485   2.537   0.011   3.160
 1851TIP3    H1 5486   2.456  -0.037   3.141
 1851TIP3    H2 5487   2.522   0.049   3.246
 1852TIP3   OH2 5488   3.423   0.261   3.780
 1852TIP3    H1 5489   3.456   0.310   3.704
 1852TIP3    H2 5490   3.339   0.226   3.751
 1853TIP3   OH2 5491   2.939   0.339   4.178
 1853TIP3    H1 5492   2.990   0.324   4.258
 1853TIP3    H2 5493   2.905   0.428   4.189
 1854TIP3   OH2 5494   0.248   7.648   3.240
 1854TIP3    H1 5495   0.332   7.694   3.237
 1854TIP3    H2 5496   0.209   7.665   3.155
 1855TIP3   OH2 5497   2.249   0.027   3.826
 1855TIP3    H1 5498   2.282   0.005   3.739
 1855TIP3    H2 5499   2.317  -0.003   3.886
 1856TIP3   OH2 5500   2.698   0.163   2.999
 1856TIP3    H1 5501   2.654   0.247   3.004
 1856TIP3    H2 5502   2.646   0.105   3.055
 1857TIP3   OH2 5503   7.810   8.009   4.489
 1857TIP3    H1 5504   7.859   7.999   4.571
 1857TIP3    H2 5505   7.788   7.920   4.463
 1858TIP3   OH2 5506   2.852   0.100   4.485
 1858TIP3    H1 5507   2.785   0.041   4.452
 1858TIP3    H2 5508   2.934   0.064   4.453
 1859TIP3   OH2 5509   3.088   0.624   4.070
 1859TIP3    H1 5510   2.993   0.613   4.074
 1859TIP3    H2 5511   3.111   0.663   4.154
 1860TIP3   OH2 5512   0.631   7.724   2.974
 1860TIP3    H1 5513   0.570   7.678   2.917
 1860TIP3    H2 5514   0.647   7.808   2.930
 1861TIP3   OH2 5515   3.725   0.533   4.050
 1861TIP3    H1 5516   3.630   0.525   4.039
 1861TIP3    H2 5517   3.762   0.504   3.967
 1862TIP3   OH2 5518   3.194   0.485   2.891
 1862TIP3    H1 5519   3.179   0.421   2.961
 1862TIP3    H2 5520   3.230   0.434   2.819
 1863TIP3   OH2 5521   3.170   0.151   3.694
 1863TIP3    H1 5522   3.081   0.129   3.720
 1863TIP3    H2 5523   3.204   0.072   3.652
 1864TIP3   OH2 5524   2.351   0.359   3.478
 1864TIP3    H1 5525   2.355   0.437   3.422
 1864TIP3    H2 5526   2.258   0.348   3.498
 1865TIP3   OH2 5527   2.449   0.113   3.395
 1865TIP3    H1 5528   2.428   0.204   3.418
 1865TIP3    H2 5529   2.430   0.063   3.474
 1866TIP3   OH2 5530   2.633   0.679   3.941
 1866TIP3    H1 5531   2.668   0.752   3.891
 1866TIP3    H2 5532   2.707   0.646   3.992
 1867TIP3   OH2 5533   2.261   0.591   3.330
 1867TIP3    H1 5534   2.175   0.593   3.372
 1867TIP3    H2 5535   2.291   0.682   3.329
 1868TIP3   OH2 5536   2.987   0.345   3.906
 1868TIP3    H1 5537   2.974   0.338   4.001
 1868TIP3    H2 5538   3.067   0.295   3.889
 1869TIP3   OH2 5539   2.969   0.217   2.789
 1869TIP3    H1 5540   3.029   0.191   2.859
 1869TIP3    H2 5541   2.884   0.182   2.816
 1870TIP3   OH2 5542   3.239   0.841   3.955
 1870TIP3    H1 5543   3.168   0.779   3.968
 1870TIP3    H2 5544   3.210   0.895   3.881
 1871TIP3   OH2 5545   3.312   0.698   2.608
 1871TIP3    H1 5546   3.362   0.772   2.574
 1871TIP3    H2 5547   3.231   0.736   2.641
 1872TIP3   OH2 5548   3.144   0.136   2.976
 1872TIP3    H1 5549   3.129   0.084   3.055
 1872TIP3    H2 5550   3.239   0.150   2.974
 1873TIP3   OH2 5551   2.082   0.577   4.104
 1873TIP3    H1 5552   2.137   0.520   4.157
 1873TIP3    H2 5553   2.092   0.664   4.142
 1874TIP3   OH2 5554   2.267   0.207   3.109
 1874TIP3    H1 5555   2.354   0.186   3.142
 1874TIP3    H2 5556   2.272   0.300   3.084
 1875TIP3   OH2 5557   2.541   0.381   3.005
 1875TIP3    H1 5558   2.464   0.423   3.045
 1875TIP3    H2 5559   2.537   0.405   2.913
 1876TIP3   OH2 5560   8.330   7.507   3.471
 1876TIP3    H1 5561   8.394   7.573   3.445
 1876TIP3    H2 5562   8.380   7.425   3.474
 1877TIP3   OH2 5563   0.191   7.776   4.230
 1877TIP3    H1 5564   0.192   7.844   4.297
 1877TIP3    H2 5565   0.273   7.728   4.242
 1878TIP3   OH2 5566   2.292   0.480   3.078
 1878TIP3    H1 5567   2.272   0.551   3.018
 1878TIP3    H2 5568   2.281   0.519   3.165
 1879TIP3   OH2 5569   0.407   7.921   3.590
 1879TIP3    H1 5570   0.339   7.857   3.611
 1879TIP3    H2 5571   0.482   7.895   3.642
 1880TIP3   OH2 5572   3.272   0.833   3.522
 1880TIP3    H1 5573   3.229   0.882   3.451
 1880TIP3    H2 5574   3.365   0.851   3.510
 1881TIP3   OH2 5575   1.886   0.353   3.413
 1881TIP3    H1 5576   1.848   0.282   3.464
 1881TIP3    H2 5577   1.933   0.309   3.341
 1882TIP3   OH2 5578   2.048   0.865   4.528
 1882TIP3    H1 5579   2.134   0.867   4.570
 1882TIP3    H2 5580   2.016   0.776   4.541
 1883TIP3   OH2 5581   2.522   0.793   4.566
 1883TIP3    H1 5582   2.613   0.768   4.579
 1883TIP3    H2 5583   2.492   0.739   4.492
 1884TIP3   OH2 5584   2.502   0.403   2.730
 1884TIP3    H1 5585   2.445   0.326   2.722
 1884TIP3    H2 5586   2.569   0.389   2.663
 1885TIP3   OH2 5587   3.139   0.728   4.318
 1885TIP3    H1 5588   3.149   0.657   4.381
 1885TIP3    H2 5589   3.216   0.784   4.333
 1886TIP3   OH2 5590   2.950   0.431   2.622
 1886TIP3    H1 5591   2.960   0.362   2.688
 1886TIP3    H2 5592   3.040   0.455   2.599
 1887TIP3   OH2 5593   2.179   0.275   4.729
 1887TIP3    H1 5594   2.187   0.180   4.735
 1887TIP3    H2 5595   2.097   0.289   4.680
 1888TIP3   OH2 5596   2.781   0.368   4.497
 1888TIP3    H1 5597   2.739   0.386   4.413
 1888TIP3    H2 5598   2.820   0.281   4.487
 1889TIP3   OH2 5599   2.681   0.110   2.730
 1889TIP3    H1 5600   2.681   0.125   2.824
 1889TIP3    H2 5601   2.658   0.018   2.720
 1890TIP3   OH2 5602   3.250   0.397   4.103
 1890TIP3    H1 5603   3.330   0.424   4.058
 1890TIP3    H2 5604   3.188   0.467   4.086
 1891TIP3   OH2 5605   7.987   8.012   4.701
 1891TIP3    H1 5606   8.065   7.960   4.685
 1891TIP3    H2 5607   7.996   8.042   4.792
 1892TIP3   OH2 5608   8.312   7.951   4.388
 1892TIP3    H1 5609   8.235   8.008   4.388
 1892TIP3    H2 5610   8.355   7.968   4.305
 1893TIP3   OH2 5611   3.141   0.272   4.477
 1893TIP3    H1 5612   3.208   0.236   4.419
 1893TIP3    H2 5613   3.139   0.212   4.551
 1894TIP3   OH2 5614   0.433   7.955   2.644
 1894TIP3    H1 5615   0.412   7.912   2.561
 1894TIP3    H2 5616   0.406   8.046   2.631
 1895TIP3   OH2 5617   8.366   7.708   4.496
 1895TIP3    H1 5618   8.369   7.644   4.425
 1895TIP3    H2 5619   8.353   7.792   4.452
 1896TIP3   OH2 5620   2.777   0.017   4.168
 1896TIP3    H1 5621   2.864   0.018   4.129
 1896TIP3    H2 5622   2.726   0.079   4.116
 1897TIP3   OH2 5623   0.512   7.958   4.504
 1897TIP3    H1 5624   0.502   7.932   4.596
 1897TIP3    H2 5625   0.574   8.030   4.505
 1898TIP3   OH2 5626   3.364   0.229   4.282
 1898TIP3    H1 5627   3.312   0.289   4.229
 1898TIP3    H2 5628   3.453   0.239   4.250
 1899TIP3   OH2 5629   8.209   7.835   4.703
 1899TIP3    H1 5630   8.208   7.777   4.779
 1899TIP3    H2 5631   8.271   7.794   4.642
 1900TIP3   OH2 5632   0.132   7.761   4.576
 1900TIP3    H1 5633   0.158   7.694   4.640
 1900TIP3    H2 5634   0.043   7.736   4.550
 1901TIP3   OH2 5635   2.278   0.689   2.900
 1901TIP3    H1 5636   2.372   0.686   2.881
 1901TIP3    H2 5637   2.240   0.732   2.823
 1902TIP3   OH2 5638   1.654   0.657   3.515
 1902TIP3    H1 5639   1.644   0.600   3.439
 1902TIP3    H2 5640   1.695   0.602   3.582
 1903TIP3   OH2 5641   1.792   0.527   3.715
 1903TIP3    H1 5642   1.787   0.449   3.770
 1903TIP3    H2 5643   1.856   0.583   3.758
 1904TIP3   OH2 5644   3.533   0.911   3.497
 1904TIP3    H1 5645   3.571   0.940   3.580
 1904TIP3    H2 5646   3.603   0.922   3.433
 1905TIP3   OH2 5647   3.553   0.926   3.797
 1905TIP3    H1 5648   3.510   0.842   3.783
 1905TIP3    H2 5649   3.624   0.906   3.858
 1906TIP3   OH2 5650   3.605   0.616   4.379
 1906TIP3    H1 5651   3.533   0.627   4.442
 1906TIP3    H2 5652   3.650   0.700   4.379
 1907TIP3   OH2 5653   3.416   0.160   2.975
 1907TIP3    H1 5654   3.478   0.225   2.940
 1907TIP3    H2 5655   3.459   0.127   3.053
 1908TIP3   OH2 5656   3.544   0.040   3.183
 1908TIP3    H1 5657   3.480   0.014   3.249
 1908TIP3    H2 5658   3.615   0.082   3.233
 1909TIP3   OH2 5659   3.607   0.401   3.615
 1909TIP3    H1 5660   3.653   0.327   3.575
 1909TIP3    H2 5661   3.620   0.473   3.554
 1910TIP3   OH2 5662   3.415   0.682   3.805
 1910TIP3    H1 5663   3.348   0.729   3.855
 1910TIP3    H2 5664   3.367   0.642   3.732
 1911TIP3   OH2 5665   0.638   7.953   2.826
 1911TIP3    H1 5666   0.569   7.946   2.760
 1911TIP3    H2 5667   0.613   8.029   2.878
 1912TIP3   OH2 5668   0.465   7.637   2.772
 1912TIP3    H1 5669   0.466   7.686   2.690
 1912TIP3    H2 5670   0.424   7.553   2.750
 1913TIP3   OH2 5671   0.522   7.940   3.344
 1913TIP3    H1 5672   0.531   7.847   3.324
 1913TIP3    H2 5673   0.486   7.943   3.432
 1914TIP3   OH2 5674   2.014   0.057   4.078
 1914TIP3    H1 5675   1.991   0.012   3.997
 1914TIP3    H2 5676   2.104   0.032   4.095
 1915TIP3   OH2 5677   3.615   0.275   4.180
 1915TIP3    H1 5678   3.684   0.211   4.164
 1915TIP3    H2 5679   3.632   0.345   4.117
 1916TIP3   OH2 5680   3.827   0.106   4.177
 1916TIP3    H1 5681   3.812   0.013   4.194
 1916TIP3    H2 5682   3.887   0.134   4.245
 1917TIP3   OH2 5683   0.527   7.691   3.225
 1917TIP3    H1 5684   0.507   7.598   3.210
 1917TIP3    H2 5685   0.568   7.720   3.143
 1918TIP3   OH2 5686   0.639   7.878   3.719
 1918TIP3    H1 5687   0.722   7.878   3.671
 1918TIP3    H2 5688   0.664   7.864   3.811
 1919TIP3   OH2 5689   0.744   7.928   3.976
 1919TIP3    H1 5690   0.658   7.957   4.005
 1919TIP3    H2 5691   0.779   8.003   3.927
 1920TIP3   OH2 5692   7.915   7.611   4.715
 1920TIP3    H1 5693   7.986   7.647   4.768
 1920TIP3    H2 5694   7.915   7.517   4.734
 1921TIP3   OH2 5695   7.620   7.515   4.216
 1921TIP3    H1 5696   7.617   7.578   4.143
 1921TIP3    H2 5697   7.713   7.505   4.234
 1922TIP3   OH2 5698   3.087   0.796   3.156
 1922TIP3    H1 5699   3.148   0.787   3.083
 1922TIP3    H2 5700   3.126   0.862   3.213
 1923TIP3   OH2 5701   2.214   0.589   4.547
 1923TIP3    H1 5702   2.118   0.587   4.547
 1923TIP3    H2 5703   2.238   0.580   4.639
 1924TIP3   OH2 5704   2.403   0.641   4.087
 1924TIP3    H1 5705   2.353   0.716   4.054
 1924TIP3    H2 5706   2.489   0.650   4.045
 1925TIP3   OH2 5707   2.805   0.876   4.230
 1925TIP3    H1 5708   2.843   0.868   4.317
 1925TIP3    H2 5709   2.869   0.927   4.180
 1926TIP3   OH2 5710   2.998   1.025   4.100
 1926TIP3    H1 5711   3.061   0.973   4.051
 1926TIP3    H2 5712   3.052   1.083   4.154
 1927TIP3   OH2 5713   2.061   0.875   4.141
 1927TIP3    H1 5714   1.973   0.900   4.113
 1927TIP3    H2 5715   2.087   0.941   4.205
 1928TIP3   OH2 5716   2.291   0.871   3.985
 1928TIP3    H1 5717   2.207   0.876   4.031
 1928TIP3    H2 5718   2.271   0.897   3.896
 1929TIP3   OH2 5719   2.708   0.890   3.779
 1929TIP3    H1 5720   2.643   0.905   3.710
 1929TIP3    H2 5721   2.721   0.975   3.820
 1930TIP3   OH2 5722   2.971   0.822   3.833
 1930TIP3    H1 5723   2.881   0.845   3.810
 1930TIP3    H2 5724   3.025   0.886   3.786
 1931TIP3   OH2 5725   3.168   0.985   3.726
 1931TIP3    H1 5726   3.174   1.074   3.691
 1931TIP3    H2 5727   3.206   0.930   3.657
 1932TIP3   OH2 5728   2.000   0.669   3.854
 1932TIP3    H1 5729   2.032   0.642   3.940
 1932TIP3    H2 5730   2.063   0.631   3.792
 1933TIP3   OH2 5731   2.184   0.538   3.704
 1933TIP3    H1 5732   2.194   0.455   3.752
 1933TIP3    H2 5733   2.271   0.578   3.708
 1934TIP3   OH2 5734   2.448   0.630   3.736
 1934TIP3    H1 5735   2.470   0.538   3.722
 1934TIP3    H2 5736   2.502   0.657   3.810
 1935TIP3   OH2 5737   1.703   0.506   3.270
 1935TIP3    H1 5738   1.653   0.437   3.227
 1935TIP3    H2 5739   1.773   0.460   3.315
 1936TIP3   OH2 5740   2.541   0.652   2.836
 1936TIP3    H1 5741   2.629   0.670   2.804
 1936TIP3    H2 5742   2.515   0.571   2.792
 1937TIP3   OH2 5743   3.243   0.753   2.931
 1937TIP3    H1 5744   3.233   0.658   2.922
 1937TIP3    H2 5745   3.203   0.789   2.852
 1938TIP3   OH2 5746   3.460   0.890   4.122
 1938TIP3    H1 5747   3.388   0.861   4.067
 1938TIP3    H2 5748   3.451   0.985   4.126
 1939TIP3   OH2 5749   4.726   0.259   2.888
 1939TIP3    H1 5750   4.712   0.354   2.882
 1939TIP3    H2 5751   4.653   0.221   2.839
 1940TIP3   OH2 5752   4.748   0.305   3.263
 1940TIP3    H1 5753   4.786   0.294   3.350
 1940TIP3    H2 5754   4.702   0.223   3.246
 1941TIP3   OH2 5755   4.028   0.162   3.621
 1941TIP3    H1 5756   4.059   0.121   3.702
 1941TIP3    H2 5757   4.091   0.232   3.604
 1942TIP3   OH2 5758   4.997   0.585   2.955
 1942TIP3    H1 5759   4.991   0.523   3.028
 1942TIP3    H2 5760   5.024   0.668   2.996
 1943TIP3   OH2 5761   3.975   0.539   3.373
 1943TIP3    H1 5762   3.976   0.446   3.350
 1943TIP3    H2 5763   4.064   0.568   3.356
 1944TIP3   OH2 5764   0.859   7.825   3.138
 1944TIP3    H1 5765   0.812   7.908   3.150
 1944TIP3    H2 5766   0.803   7.774   3.079
 1945TIP3   OH2 5767   3.774   0.124   3.303
 1945TIP3    H1 5768   3.832   0.053   3.331
 1945TIP3    H2 5769   3.833   0.196   3.282
 1946TIP3   OH2 5770   4.650   1.013   2.963
 1946TIP3    H1 5771   4.683   0.939   2.912
 1946TIP3    H2 5772   4.645   0.979   3.053
 1947TIP3   OH2 5773   4.541   0.501   3.302
 1947TIP3    H1 5774   4.588   0.427   3.263
 1947TIP3    H2 5775   4.609   0.559   3.334
 1948TIP3   OH2 5776   2.091   8.032   3.319
 1948TIP3    H1 5777   2.118   7.940   3.315
 1948TIP3    H2 5778   2.044   8.047   3.237
 1949TIP3   OH2 5779   1.529   7.576   3.237
 1949TIP3    H1 5780   1.512   7.600   3.328
 1949TIP3    H2 5781   1.442   7.568   3.197
 1950TIP3   OH2 5782   2.070   7.713   2.997
 1950TIP3    H1 5783   2.160   7.700   3.026
 1950TIP3    H2 5784   2.074   7.790   2.939
 1951TIP3   OH2 5785   1.120   7.975   3.419
 1951TIP3    H1 5786   1.164   8.011   3.496
 1951TIP3    H2 5787   1.182   7.910   3.384
 1952TIP3   OH2 5788   4.354   0.112   3.194
 1952TIP3    H1 5789   4.449   0.100   3.202
 1952TIP3    H2 5790   4.323   0.029   3.157
 1953TIP3   OH2 5791   5.606   0.045   3.473
 1953TIP3    H1 5792   5.514   0.072   3.471
 1953TIP3    H2 5793   5.632   0.053   3.565
 1954TIP3   OH2 5794   4.638   0.489   2.722
 1954TIP3    H1 5795   4.599   0.460   2.639
 1954TIP3    H2 5796   4.583   0.563   2.749
 1955TIP3   OH2 5797   4.394   0.421   3.522
 1955TIP3    H1 5798   4.333   0.488   3.552
 1955TIP3    H2 5799   4.436   0.461   3.446
 1956TIP3   OH2 5800   1.293   7.811   3.593
 1956TIP3    H1 5801   1.359   7.879   3.581
 1956TIP3    H2 5802   1.285   7.770   3.507
 1957TIP3   OH2 5803   4.224   0.618   3.613
 1957TIP3    H1 5804   4.211   0.705   3.577
 1957TIP3    H2 5805   4.146   0.601   3.665
 1958TIP3   OH2 5806   3.594   0.328   2.850
 1958TIP3    H1 5807   3.562   0.359   2.765
 1958TIP3    H2 5808   3.617   0.407   2.898
 1959TIP3   OH2 5809   5.044   0.826   3.094
 1959TIP3    H1 5810   4.958   0.816   3.136
 1959TIP3    H2 5811   5.040   0.913   3.052
 1960TIP3   OH2 5812   4.747   0.844   2.758
 1960TIP3    H1 5813   4.802   0.767   2.745
 1960TIP3    H2 5814   4.802   0.918   2.732
 1961TIP3   OH2 5815   4.890   0.618   2.705
 1961TIP3    H1 5816   4.817   0.555   2.707
 1961TIP3    H2 5817   4.938   0.600   2.786
 1962TIP3   OH2 5818   5.275   0.723   3.445
 1962TIP3    H1 5819   5.261   0.647   3.388
 1962TIP3    H2 5820   5.259   0.799   3.388
 1963TIP3   OH2 5821   4.553   0.142   2.708
 1963TIP3    H1 5822   4.468   0.181   2.688
 1963TIP3    H2 5823   4.599   0.141   2.624
 1964TIP3   OH2 5824   1.685   7.976   2.399
 1964TIP3    H1 5825   1.751   8.033   2.438
 1964TIP3    H2 5826   1.722   7.888   2.409
 1965TIP3   OH2 5827   5.468   0.385   3.299
 1965TIP3    H1 5828   5.382   0.426   3.307
 1965TIP3    H2 5829   5.498   0.407   3.211
 1966TIP3   OH2 5830   4.910   0.218   2.685
 1966TIP3    H1 5831   4.855   0.236   2.761
 1966TIP3    H2 5832   4.999   0.216   2.720
 1967TIP3   OH2 5833   5.146   0.289   3.587
 1967TIP3    H1 5834   5.128   0.363   3.646
 1967TIP3    H2 5835   5.062   0.269   3.547
 1968TIP3   OH2 5836   4.130   0.205   3.064
 1968TIP3    H1 5837   4.101   0.134   3.007
 1968TIP3    H2 5838   4.210   0.172   3.105
 1969TIP3   OH2 5839   4.251   0.548   3.254
 1969TIP3    H1 5840   4.234   0.578   3.164
 1969TIP3    H2 5841   4.346   0.543   3.260
 1970TIP3   OH2 5842   4.249   0.208   3.430
 1970TIP3    H1 5843   4.288   0.182   3.346
 1970TIP3    H2 5844   4.298   0.287   3.455
 1971TIP3   OH2 5845   4.810   0.811   3.230
 1971TIP3    H1 5846   4.795   0.893   3.276
 1971TIP3    H2 5847   4.793   0.743   3.296
 1972TIP3   OH2 5848   4.421   0.722   3.776
 1972TIP3    H1 5849   4.361   0.782   3.820
 1972TIP3    H2 5850   4.365   0.670   3.719
 1973TIP3   OH2 5851   4.739   0.101   2.504
 1973TIP3    H1 5852   4.800   0.155   2.553
 1973TIP3    H2 5853   4.773   0.101   2.415
 1974TIP3   OH2 5854   4.180   0.307   3.868
 1974TIP3    H1 5855   4.189   0.392   3.910
 1974TIP3    H2 5856   4.093   0.276   3.894
 1975TIP3   OH2 5857   4.492   0.744   2.728
 1975TIP3    H1 5858   4.581   0.774   2.748
 1975TIP3    H2 5859   4.440   0.824   2.727
 1976TIP3   OH2 5860   4.212   0.883   3.858
 1976TIP3    H1 5861   4.190   0.891   3.765
 1976TIP3    H2 5862   4.129   0.867   3.902
 1977TIP3   OH2 5863   4.006   0.024   2.878
 1977TIP3    H1 5864   3.939   0.085   2.846
 1977TIP3    H2 5865   3.956  -0.046   2.921
 1978TIP3   OH2 5866   5.082   0.673   2.117
 1978TIP3    H1 5867   5.079   0.767   2.098
 1978TIP3    H2 5868   5.174   0.650   2.103
 1979TIP3   OH2 5869   3.807   0.428   3.813
 1979TIP3    H1 5870   3.737   0.422   3.748
 1979TIP3    H2 5871   3.841   0.339   3.821
 1980TIP3   OH2 5872   3.711   0.601   3.445
 1980TIP3    H1 5873   3.798   0.578   3.414
 1980TIP3    H2 5874   3.723   0.684   3.492
 1981TIP3   OH2 5875   5.507   1.073   3.510
 1981TIP3    H1 5876   5.513   0.980   3.528
 1981TIP3    H2 5877   5.428   1.102   3.555
 1982TIP3   OH2 5878   4.623   0.856   3.647
 1982TIP3    H1 5879   4.614   0.948   3.673
 1982TIP3    H2 5880   4.550   0.812   3.691
 1983TIP3   OH2 5881   4.380   0.972   2.594
 1983TIP3    H1 5882   4.341   0.964   2.507
 1983TIP3    H2 5883   4.350   1.057   2.627
 1984TIP3   OH2 5884   4.585   0.888   2.226
 1984TIP3    H1 5885   4.642   0.821   2.188
 1984TIP3    H2 5886   4.621   0.905   2.313
 1985TIP3   OH2 5887   4.638   0.939   2.493
 1985TIP3    H1 5888   4.554   0.942   2.539
 1985TIP3    H2 5889   4.700   0.910   2.560
 1986TIP3   OH2 5890   5.367   0.221   3.752
 1986TIP3    H1 5891   5.298   0.272   3.710
 1986TIP3    H2 5892   5.367   0.137   3.705
 1987TIP3   OH2 5893   4.008   0.616   3.781
 1987TIP3    H1 5894   4.058   0.608   3.863
 1987TIP3    H2 5895   3.936   0.555   3.791
 1988TIP3   OH2 5896   2.465   7.976   3.691
 1988TIP3    H1 5897   2.393   7.967   3.753
 1988TIP3    H2 5898   2.427   7.956   3.606
 1989TIP3   OH2 5899   4.832   0.075   2.253
 1989TIP3    H1 5900   4.788   0.071   2.168
 1989TIP3    H2 5901   4.918   0.110   2.235
 1990TIP3   OH2 5902   4.300   0.009   3.610
 1990TIP3    H1 5903   4.255   0.029   3.692
 1990TIP3    H2 5904   4.272   0.079   3.550
 1991TIP3   OH2 5905   1.386   7.926   3.068
 1991TIP3    H1 5906   1.291   7.914   3.063
 1991TIP3    H2 5907   1.420   7.874   2.995
 1992TIP3   OH2 5908   1.839   7.955   2.845
 1992TIP3    H1 5909   1.787   8.028   2.810
 1992TIP3    H2 5910   1.899   7.932   2.775
 1993TIP3   OH2 5911   4.863   0.251   3.902
 1993TIP3    H1 5912   4.842   0.167   3.943
 1993TIP3    H2 5913   4.959   0.258   3.910
 1994TIP3   OH2 5914   4.835   0.057   3.051
 1994TIP3    H1 5915   4.791   0.130   3.008
 1994TIP3    H2 5916   4.770  -0.013   3.054
 1995TIP3   OH2 5917   1.293   8.019   3.830
 1995TIP3    H1 5918   1.247   8.080   3.888
 1995TIP3    H2 5919   1.252   7.934   3.847
 1996TIP3   OH2 5920   0.921   7.644   2.905
 1996TIP3    H1 5921   1.013   7.668   2.898
 1996TIP3    H2 5922   0.914   7.599   2.989
 1997TIP3   OH2 5923   4.892   0.225   3.490
 1997TIP3    H1 5924   4.912   0.155   3.427
 1997TIP3    H2 5925   4.855   0.179   3.565
 1998TIP3   OH2 5926   1.130   7.816   3.086
 1998TIP3    H1 5927   1.037   7.826   3.105
 1998TIP3    H2 5928   1.138   7.725   3.057
 1999TIP3   OH2 5929   1.429   7.772   2.841
 1999TIP3    H1 5930   1.524   7.770   2.828
 1999TIP3    H2 5931   1.394   7.794   2.755
 2000TIP3   OH2 5932   1.282   7.773   2.616
 2000TIP3    H1 5933   1.204   7.748   2.568
 2000TIP3    H2 5934   1.337   7.817   2.551
 2001TIP3   OH2 5935   5.221   1.422   3.604
 2001TIP3    H1 5936   5.218   1.441   3.510
 2001TIP3    H2 5937   5.299   1.467   3.636
 2002TIP3   OH2 5938   4.167   0.549   4.011
 2002TIP3    H1 5939   4.248   0.564   4.060
 2002TIP3    H2 5940   4.099   0.549   4.078
 2003TIP3   OH2 5941   4.617   0.064   3.260
 2003TIP3    H1 5942   4.655  -0.021   3.237
 2003TIP3    H2 5943   4.603   0.059   3.355
 2004TIP3   OH2 5944   4.557   0.030   3.522
 2004TIP3    H1 5945   4.474   0.021   3.569
 2004TIP3    H2 5946   4.608   0.090   3.576
 2005TIP3   OH2 5947   4.312   0.263   2.655
 2005TIP3    H1 5948   4.241   0.201   2.640
 2005TIP3    H2 5949   4.292   0.302   2.740
 2006TIP3   OH2 5950   5.228   0.517   3.269
 2006TIP3    H1 5951   5.261   0.569   3.195
 2006TIP3    H2 5952   5.144   0.483   3.240
 2007TIP3   OH2 5953   1.837   7.754   2.443
 2007TIP3    H1 5954   1.805   7.674   2.484
 2007TIP3    H2 5955   1.895   7.792   2.508
 2008TIP3   OH2 5956   4.733   0.575   3.687
 2008TIP3    H1 5957   4.789   0.574   3.764
 2008TIP3    H2 5958   4.695   0.663   3.687
 2009TIP3   OH2 5959   1.998   7.882   2.632
 2009TIP3    H1 5960   2.069   7.897   2.694
 2009TIP3    H2 5961   1.987   7.966   2.587
 2010TIP3   OH2 5962   4.006   0.274   3.301
 2010TIP3    H1 5963   4.043   0.265   3.213
 2010TIP3    H2 5964   4.076   0.244   3.359
 2011TIP3   OH2 5965   4.462   0.428   2.502
 2011TIP3    H1 5966   4.411   0.508   2.501
 2011TIP3    H2 5967   4.409   0.366   2.552
 2012TIP3   OH2 5968   3.925   0.183   3.923
 2012TIP3    H1 5969   3.926   0.184   4.019
 2012TIP3    H2 5970   3.838   0.148   3.901
 2013TIP3   OH2 5971   4.622   0.359   3.966
 2013TIP3    H1 5972   4.560   0.289   3.941
 2013TIP3    H2 5973   4.706   0.329   3.932
 2014TIP3   OH2 5974   4.886   0.880   3.558
 2014TIP3    H1 5975   4.792   0.865   3.568
 2014TIP3    H2 5976   4.913   0.920   3.640
 2015TIP3   OH2 5977   2.382   7.976   2.413
 2015TIP3    H1 5978   2.320   7.942   2.349
 2015TIP3    H2 5979   2.404   8.064   2.382
 2016TIP3   OH2 5980   5.522   0.790   3.538
 2016TIP3    H1 5981   5.427   0.784   3.528
 2016TIP3    H2 5982   5.557   0.761   3.454
 2017TIP3   OH2 5983   5.006   0.743   2.385
 2017TIP3    H1 5984   4.981   0.674   2.446
 2017TIP3    H2 5985   5.023   0.697   2.303
 2018TIP3   OH2 5986   4.992   0.406   3.168
 2018TIP3    H1 5987   4.903   0.383   3.196
 2018TIP3    H2 5988   5.028   0.326   3.130
 2019TIP3   OH2 5989   4.132   0.612   2.991
 2019TIP3    H1 5990   4.113   0.687   2.935
 2019TIP3    H2 5991   4.050   0.597   3.039
 2020TIP3   OH2 5992   0.885   7.941   2.713
 2020TIP3    H1 5993   0.928   8.026   2.717
 2020TIP3    H2 5994   0.803   7.953   2.761
 2021TIP3   OH2 5995   4.233   0.382   2.881
 2021TIP3    H1 5996   4.212   0.470   2.913
 2021TIP3    H2 5997   4.200   0.324   2.949
 2022TIP3   OH2 5998   4.434   0.929   3.443
 2022TIP3    H1 5999   4.461   0.997   3.382
 2022TIP3    H2 6000   4.515   0.905   3.489
 2023TIP3   OH2 6001   4.031   0.826   2.847
 2023TIP3    H1 6002   3.978   0.857   2.921
 2023TIP3    H2 6003   4.076   0.903   2.815
 2024TIP3   OH2 6004   4.783   0.596   3.412
 2024TIP3    H1 6005   4.769   0.586   3.506
 2024TIP3    H2 6006   4.868   0.554   3.395
 2025TIP3   OH2 6007   4.768   0.477   2.269
 2025TIP3    H1 6008   4.817   0.446   2.345
 2025TIP3    H2 6009   4.683   0.432   2.275
 2026TIP3   OH2 6010   5.035   1.097   3.442
 2026TIP3    H1 6011   4.964   1.035   3.455
 2026TIP3    H2 6012   5.005   1.153   3.370
 2027TIP3   OH2 6013   5.094   0.947   2.082
 2027TIP3    H1 6014   5.134   1.016   2.030
 2027TIP3    H2 6015   5.017   0.988   2.123
 2028TIP3   OH2 6016   4.933   0.385   2.464
 2028TIP3    H1 6017   4.923   0.340   2.548
 2028TIP3    H2 6018   5.027   0.404   2.458
 2029TIP3   OH2 6019   3.851   0.818   3.577
 2029TIP3    H1 6020   3.910   0.758   3.623
 2029TIP3    H2 6021   3.869   0.903   3.617
 2030TIP3   OH2 6022   4.152   0.440   2.294
 2030TIP3    H1 6023   4.152   0.348   2.266
 2030TIP3    H2 6024   4.124   0.438   2.385
 2031TIP3   OH2 6025   4.099   0.466   2.564
 2031TIP3    H1 6026   4.137   0.408   2.630
 2031TIP3    H2 6027   4.156   0.542   2.562
 2032TIP3   OH2 6028   3.812   0.183   2.765
 2032TIP3    H1 6029   3.741   0.225   2.815
 2032TIP3    H2 6030   3.831   0.245   2.695
 2033TIP3   OH2 6031   4.308   0.659   2.536
 2033TIP3    H1 6032   4.366   0.685   2.608
 2033TIP3    H2 6033   4.322   0.725   2.469
 2034TIP3   OH2 6034   1.697   7.730   2.832
 2034TIP3    H1 6035   1.746   7.812   2.838
 2034TIP3    H2 6036   1.679   7.706   2.923
 2035TIP3   OH2 6037   4.800   0.066   3.695
 2035TIP3    H1 6038   4.756   0.138   3.742
 2035TIP3    H2 6039   4.861   0.029   3.759
 2036TIP3   OH2 6040   3.978   0.764   2.578
 2036TIP3    H1 6041   4.067   0.795   2.595
 2036TIP3    H2 6042   3.942   0.748   2.665
 2037TIP3   OH2 6043   5.084   0.165   3.065
 2037TIP3    H1 6044   5.000   0.120   3.078
 2037TIP3    H2 6045   5.144   0.122   3.126
 2038TIP3   OH2 6046   3.829   0.360   2.549
 2038TIP3    H1 6047   3.901   0.421   2.562
 2038TIP3    H2 6048   3.863   0.295   2.488
 2039TIP3   OH2 6049   0.738   7.735   2.605
 2039TIP3    H1 6050   0.791   7.800   2.652
 2039TIP3    H2 6051   0.735   7.660   2.664
 2040TIP3   OH2 6052   5.063   1.092   3.014
 2040TIP3    H1 6053   5.023   1.142   2.943
 2040TIP3    H2 6054   5.158   1.104   3.001
 2041TIP3   OH2 6055   3.648   0.571   2.956
 2041TIP3    H1 6056   3.639   0.623   3.036
 2041TIP3    H2 6057   3.626   0.631   2.885
 2042TIP3   OH2 6058   3.855   1.133   4.011
 2042TIP3    H1 6059   3.937   1.140   4.060
 2042TIP3    H2 6060   3.845   1.040   3.992
 2043TIP3   OH2 6061   4.317   1.046   4.054
 2043TIP3    H1 6062   4.409   1.022   4.062
 2043TIP3    H2 6063   4.284   0.993   3.982
 2044TIP3   OH2 6064   4.254   0.648   2.159
 2044TIP3    H1 6065   4.211   0.576   2.206
 2044TIP3    H2 6066   4.337   0.611   2.130
 2045TIP3   OH2 6067   4.945   0.988   3.801
 2045TIP3    H1 6068   4.953   0.920   3.869
 2045TIP3    H2 6069   5.019   1.047   3.818
 2046TIP3   OH2 6070   4.729   0.691   2.105
 2046TIP3    H1 6071   4.759   0.624   2.166
 2046TIP3    H2 6072   4.788   0.684   2.030
 2047TIP3   OH2 6073   3.961   0.535   4.201
 2047TIP3    H1 6074   3.991   0.444   4.202
 2047TIP3    H2 6075   3.874   0.531   4.163
 2048TIP3   OH2 6076   3.950   0.160   2.411
 2048TIP3    H1 6077   3.997   0.127   2.488
 2048TIP3    H2 6078   4.017   0.166   2.343
 2049TIP3   OH2 6079   4.573   0.629   3.984
 2049TIP3    H1 6080   4.526   0.651   3.903
 2049TIP3    H2 6081   4.601   0.538   3.972
 2050TIP3   OH2 6082   4.514   0.365   2.238
 2050TIP3    H1 6083   4.485   0.375   2.329
 2050TIP3    H2 6084   4.491   0.275   2.215
 2051TIP3   OH2 6085   5.045   0.653   3.582
 2051TIP3    H1 6086   5.126   0.682   3.540
 2051TIP3    H2 6087   4.984   0.725   3.569
 2052TIP3   OH2 6088   4.090   0.285   4.160
 2052TIP3    H1 6089   4.185   0.276   4.154
 2052TIP3    H2 6090   4.067   0.237   4.240
 2053TIP3   OH2 6091   4.114   0.079   2.621
 2053TIP3    H1 6092   4.085   0.041   2.704
 2053TIP3    H2 6093   4.156   0.007   2.575
 2054TIP3   OH2 6094   4.426   0.173   3.847
 2054TIP3    H1 6095   4.343   0.219   3.858
 2054TIP3    H2 6096   4.469   0.219   3.775
 2055TIP3   OH2 6097   1.418   7.925   2.443
 2055TIP3    H1 6098   1.384   7.922   2.354
 2055TIP3    H2 6099   1.511   7.947   2.432
 2056TIP3   OH2 6100   4.926   0.550   3.937
 2056TIP3    H1 6101   5.002   0.518   3.889
 2056TIP3    H2 6102   4.923   0.496   4.016
 2057TIP3   OH2 6103   5.051   0.195   2.129
 2057TIP3    H1 6104   5.036   0.149   2.046
 2057TIP3    H2 6105   5.022   0.284   2.113
 2058TIP3   OH2 6106   1.718   7.939   3.873
 2058TIP3    H1 6107   1.659   7.875   3.834
 2058TIP3    H2 6108   1.674   8.023   3.860
 2059TIP3   OH2 6109   4.596   0.295   3.658
 2059TIP3    H1 6110   4.658   0.366   3.671
 2059TIP3    H2 6111   4.525   0.335   3.607
 2060TIP3   OH2 6112   5.132   0.207   3.958
 2060TIP3    H1 6113   5.127   0.201   4.053
 2060TIP3    H2 6114   5.207   0.265   3.942
 2061TIP3   OH2 6115   5.162   0.501   3.772
 2061TIP3    H1 6116   5.109   0.558   3.716
 2061TIP3    H2 6117   5.251   0.511   3.738
 2062TIP3   OH2 6118   4.375   0.156   4.200
 2062TIP3    H1 6119   4.327   0.109   4.268
 2062TIP3    H2 6120   4.429   0.089   4.158
 2063TIP3   OH2 6121   1.961   8.021   3.989
 2063TIP3    H1 6122   1.973   7.996   4.080
 2063TIP3    H2 6123   1.879   7.979   3.963
 2064TIP3   OH2 6124   4.067   0.904   2.338
 2064TIP3    H1 6125   4.162   0.891   2.340
 2064TIP3    H2 6126   4.053   0.974   2.274
 2065TIP3   OH2 6127   3.549   0.332   2.548
 2065TIP3    H1 6128   3.644   0.345   2.555
 2065TIP3    H2 6129   3.539   0.242   2.518
 2066TIP3   OH2 6130   3.459   0.898   3.029
 2066TIP3    H1 6131   3.394   0.844   2.985
 2066TIP3    H2 6132   3.508   0.837   3.085
 2067TIP3   OH2 6133   3.608   0.725   3.190
 2067TIP3    H1 6134   3.603   0.662   3.262
 2067TIP3    H2 6135   3.662   0.797   3.224
 2068TIP3   OH2 6136   5.335   1.144   3.006
 2068TIP3    H1 6137   5.352   1.171   3.096
 2068TIP3    H2 6138   5.386   1.204   2.952
 2069TIP3   OH2 6139   5.350   1.178   3.286
 2069TIP3    H1 6140   5.303   1.095   3.282
 2069TIP3    H2 6141   5.421   1.163   3.349
 2070TIP3   OH2 6142   5.402   0.875   3.858
 2070TIP3    H1 6143   5.328   0.884   3.919
 2070TIP3    H2 6144   5.447   0.959   3.862
 2071TIP3   OH2 6145   5.208   0.421   2.456
 2071TIP3    H1 6146   5.266   0.490   2.423
 2071TIP3    H2 6147   5.254   0.386   2.533
 2072TIP3   OH2 6148   5.356   0.312   2.655
 2072TIP3    H1 6149   5.289   0.289   2.720
 2072TIP3    H2 6150   5.429   0.347   2.707
 2073TIP3   OH2 6151   5.397   0.661   3.103
 2073TIP3    H1 6152   5.449   0.594   3.059
 2073TIP3    H2 6153   5.398   0.735   3.043
 2074TIP3   OH2 6154   5.208   0.939   3.290
 2074TIP3    H1 6155   5.141   0.983   3.341
 2074TIP3    H2 6156   5.160   0.898   3.218
 2075TIP3   OH2 6157   5.261   0.203   2.298
 2075TIP3    H1 6158   5.188   0.201   2.237
 2075TIP3    H2 6159   5.243   0.279   2.354
 2076TIP3   OH2 6160   2.236   7.874   2.206
 2076TIP3    H1 6161   2.267   7.903   2.120
 2076TIP3    H2 6162   2.218   7.781   2.194
 2077TIP3   OH2 6163   5.158   0.198   2.805
 2077TIP3    H1 6164   5.191   0.111   2.782
 2077TIP3    H2 6165   5.143   0.193   2.899
 2078TIP3   OH2 6166   3.762   0.172   3.573
 2078TIP3    H1 6167   3.749   0.154   3.480
 2078TIP3    H2 6168   3.857   0.179   3.583
 2079TIP3   OH2 6169   5.412   0.535   3.664
 2079TIP3    H1 6170   5.482   0.471   3.650
 2079TIP3    H2 6171   5.433   0.607   3.605
 2080TIP3   OH2 6172   5.622   0.365   3.662
 2080TIP3    H1 6173   5.594   0.275   3.679
 2080TIP3    H2 6174   5.687   0.383   3.730
 2081TIP3   OH2 6175   2.396   7.972   2.684
 2081TIP3    H1 6176   2.371   7.881   2.700
 2081TIP3    H2 6177   2.384   7.984   2.589
 2082TIP3   OH2 6178   5.272   0.061   3.229
 2082TIP3    H1 6179   5.349   0.086   3.178
 2082TIP3    H2 6180   5.290   0.095   3.316
 2083TIP3   OH2 6181   5.361   0.178   3.456
 2083TIP3    H1 6182   5.285   0.213   3.502
 2083TIP3    H2 6183   5.404   0.256   3.419
 2084TIP3   OH2 6184   1.022   7.855   4.254
 2084TIP3    H1 6185   1.113   7.886   4.259
 2084TIP3    H2 6186   1.025   7.768   4.293
 2085TIP3   OH2 6187   0.910   7.885   3.634
 2085TIP3    H1 6188   0.956   7.864   3.553
 2085TIP3    H2 6189   0.938   7.974   3.655
 2086TIP3   OH2 6190   4.884   1.047   2.647
 2086TIP3    H1 6191   4.943   1.041   2.572
 2086TIP3    H2 6192   4.923   1.115   2.703
 2087TIP3   OH2 6193   3.984   0.855   4.019
 2087TIP3    H1 6194   3.892   0.831   4.014
 2087TIP3    H2 6195   4.008   0.839   4.111
 2088TIP3   OH2 6196   4.198   0.892   3.576
 2088TIP3    H1 6197   4.150   0.969   3.545
 2088TIP3    H2 6198   4.282   0.897   3.530
 2089TIP3   OH2 6199   4.604   1.127   3.715
 2089TIP3    H1 6200   4.641   1.122   3.803
 2089TIP3    H2 6201   4.666   1.181   3.666
 2090TIP3   OH2 6202   4.794   1.282   3.587
 2090TIP3    H1 6203   4.860   1.228   3.544
 2090TIP3    H2 6204   4.845   1.341   3.643
 2091TIP3   OH2 6205   3.859   1.145   3.621
 2091TIP3    H1 6206   3.768   1.163   3.598
 2091TIP3    H2 6207   3.881   1.211   3.687
 2092TIP3   OH2 6208   4.095   1.129   3.481
 2092TIP3    H1 6209   4.009   1.136   3.522
 2092TIP3    H2 6210   4.081   1.156   3.390
 2093TIP3   OH2 6211   4.512   1.137   3.267
 2093TIP3    H1 6212   4.440   1.149   3.205
 2093TIP3    H2 6213   4.521   1.221   3.311
 2094TIP3   OH2 6214   4.775   1.074   3.309
 2094TIP3    H1 6215   4.683   1.094   3.296
 2094TIP3    H2 6216   4.822   1.147   3.268
 2095TIP3   OH2 6217   4.972   1.255   3.218
 2095TIP3    H1 6218   4.970   1.343   3.178
 2095TIP3    H2 6219   5.003   1.198   3.147
 2096TIP3   OH2 6220   3.761   0.915   3.319
 2096TIP3    H1 6221   3.820   0.885   3.389
 2096TIP3    H2 6222   3.820   0.950   3.252
 2097TIP3   OH2 6223   3.561   0.715   2.738
 2097TIP3    H1 6224   3.475   0.682   2.712
 2097TIP3    H2 6225   3.562   0.806   2.707
 2098TIP3   OH2 6226   4.333   0.849   2.326
 2098TIP3    H1 6227   4.417   0.879   2.293
 2098TIP3    H2 6228   4.304   0.783   2.263
 2099TIP3   OH2 6229   5.042   1.011   2.420
 2099TIP3    H1 6230   5.035   0.916   2.412
 2099TIP3    H2 6231   5.000   1.045   2.340
 2100TIP3   OH2 6232   5.259   1.148   3.604
 2100TIP3    H1 6233   5.182   1.119   3.554
 2100TIP3    H2 6234   5.246   1.242   3.615
 2101TIP3   OH2 6235   6.517   0.507   2.368
 2101TIP3    H1 6236   6.499   0.600   2.358
 2101TIP3    H2 6237   6.449   0.463   2.317
 2102TIP3   OH2 6238   6.538   0.562   2.760
 2102TIP3    H1 6239   6.583   0.544   2.842
 2102TIP3    H2 6240   6.496   0.479   2.737
 2103TIP3   OH2 6241   5.828   0.440   3.114
 2103TIP3    H1 6242   5.846   0.368   3.175
 2103TIP3    H2 6243   5.886   0.510   3.143
 2104TIP3   OH2 6244   6.792   0.825   2.427
 2104TIP3    H1 6245   6.782   0.771   2.505
 2104TIP3    H2 6246   6.812   0.912   2.460
 2105TIP3   OH2 6247   5.820   0.823   2.808
 2105TIP3    H1 6248   5.802   0.729   2.817
 2105TIP3    H2 6249   5.915   0.827   2.799
 2106TIP3   OH2 6250   5.470   0.072   2.587
 2106TIP3    H1 6251   5.436   0.162   2.596
 2106TIP3    H2 6252   5.406   0.018   2.634
 2107TIP3   OH2 6253   5.585   0.380   2.788
 2107TIP3    H1 6254   5.640   0.307   2.816
 2107TIP3    H2 6255   5.646   0.453   2.777
 2108TIP3   OH2 6256   6.460   1.268   2.456
 2108TIP3    H1 6257   6.486   1.196   2.397
 2108TIP3    H2 6258   6.473   1.232   2.544
 2109TIP3   OH2 6259   6.339   0.764   2.784
 2109TIP3    H1 6260   6.386   0.687   2.751
 2109TIP3    H2 6261   6.407   0.824   2.813
 2110TIP3   OH2 6262   6.710   0.274   2.778
 2110TIP3    H1 6263   6.738   0.184   2.795
 2110TIP3    H2 6264   6.702   0.279   2.683
 2111TIP3   OH2 6265   3.307   7.853   2.739
 2111TIP3    H1 6266   3.261   7.927   2.777
 2111TIP3    H2 6267   3.244   7.816   2.677
 2112TIP3   OH2 6268   0.695   2.498   2.024
 2112TIP3    H1 6269   0.768   2.559   2.014
 2112TIP3    H2 6270   0.661   2.487   1.935
 2113TIP3   OH2 6271   5.754   0.192   2.889
 2113TIP3    H1 6272   5.794   0.167   2.973
 2113TIP3    H2 6273   5.820   0.168   2.824
 2114TIP3   OH2 6274   6.174   0.362   2.674
 2114TIP3    H1 6275   6.268   0.347   2.686
 2114TIP3    H2 6276   6.143   0.285   2.626
 2115TIP3   OH2 6277   6.408   0.730   2.237
 2115TIP3    H1 6278   6.390   0.722   2.144
 2115TIP3    H2 6279   6.367   0.814   2.262
 2116TIP3   OH2 6280   6.192   0.681   3.004
 2116TIP3    H1 6281   6.131   0.748   3.037
 2116TIP3    H2 6282   6.236   0.724   2.930
 2117TIP3   OH2 6283   5.902   0.048   3.066
 2117TIP3    H1 6284   5.984   0.096   3.054
 2117TIP3    H2 6285   5.919  -0.037   3.027
 2118TIP3   OH2 6286   6.017   0.875   3.098
 2118TIP3    H1 6287   6.007   0.965   3.066
 2118TIP3    H2 6288   5.938   0.858   3.149
 2119TIP3   OH2 6289   5.399   0.591   2.352
 2119TIP3    H1 6290   5.369   0.610   2.263
 2119TIP3    H2 6291   5.422   0.676   2.388
 2120TIP3   OH2 6292   6.829   1.072   2.538
 2120TIP3    H1 6293   6.751   1.067   2.594
 2120TIP3    H2 6294   6.843   1.166   2.526
 2121TIP3   OH2 6295   6.545   1.104   2.242
 2121TIP3    H1 6296   6.599   1.026   2.230
 2121TIP3    H2 6297   6.602   1.177   2.218
 2122TIP3   OH2 6298   6.706   0.892   2.175
 2122TIP3    H1 6299   6.688   0.808   2.131
 2122TIP3    H2 6300   6.741   0.867   2.261
 2123TIP3   OH2 6301   6.357   0.373   2.190
 2123TIP3    H1 6302   6.277   0.422   2.173
 2123TIP3    H2 6303   6.396   0.360   2.103
 2124TIP3   OH2 6304   6.713   0.447   2.178
 2124TIP3    H1 6305   6.661   0.473   2.254
 2124TIP3    H2 6306   6.799   0.425   2.215
 2125TIP3   OH2 6307   6.950   0.546   3.074
 2125TIP3    H1 6308   6.931   0.631   3.115
 2125TIP3    H2 6309   6.866   0.519   3.036
 2126TIP3   OH2 6310   5.942   0.475   2.571
 2126TIP3    H1 6311   5.902   0.403   2.522
 2126TIP3    H2 6312   6.024   0.439   2.604
 2127TIP3   OH2 6313   6.082   0.864   2.709
 2127TIP3    H1 6314   6.067   0.849   2.616
 2127TIP3    H2 6315   6.171   0.832   2.725
 2128TIP3   OH2 6316   6.060   0.460   2.906
 2128TIP3    H1 6317   6.106   0.434   2.826
 2128TIP3    H2 6318   6.107   0.538   2.936
 2129TIP3   OH2 6319   6.603   1.072   2.695
 2129TIP3    H1 6320   6.592   1.154   2.742
 2129TIP3    H2 6321   6.589   1.004   2.762
 2130TIP3   OH2 6322   6.209   0.969   3.276
 2130TIP3    H1 6323   6.149   1.031   3.319
 2130TIP3    H2 6324   6.153   0.920   3.216
 2131TIP3   OH2 6325   6.572   0.297   1.999
 2131TIP3    H1 6326   6.627   0.349   2.058
 2131TIP3    H2 6327   6.578   0.342   1.915
 2132TIP3   OH2 6328   5.971   0.564   3.345
 2132TIP3    H1 6329   5.984   0.649   3.387
 2132TIP3    H2 6330   5.886   0.534   3.377
 2133TIP3   OH2 6331   6.296   0.987   2.252
 2133TIP3    H1 6332   6.380   1.032   2.259
 2133TIP3    H2 6333   6.237   1.051   2.211
 2134TIP3   OH2 6334   6.007   1.139   3.349
 2134TIP3    H1 6335   5.982   1.149   3.257
 2134TIP3    H2 6336   5.924   1.125   3.395
 2135TIP3   OH2 6337   5.793   0.274   2.392
 2135TIP3    H1 6338   5.731   0.337   2.357
 2135TIP3    H2 6339   5.741   0.195   2.406
 2136TIP3   OH2 6340   6.812   0.935   1.606
 2136TIP3    H1 6341   6.843   1.025   1.595
 2136TIP3    H2 6342   6.881   0.892   1.656
 2137TIP3   OH2 6343   5.601   0.687   3.298
 2137TIP3    H1 6344   5.530   0.676   3.235
 2137TIP3    H2 6345   5.637   0.599   3.311
 2138TIP3   OH2 6346   5.447   0.889   2.946
 2138TIP3    H1 6347   5.540   0.908   2.959
 2138TIP3    H2 6348   5.402   0.967   2.978
 2139TIP3   OH2 6349   7.300   1.358   2.982
 2139TIP3    H1 6350   7.308   1.263   2.987
 2139TIP3    H2 6351   7.224   1.379   3.036
 2140TIP3   OH2 6352   6.392   1.105   3.121
 2140TIP3    H1 6353   6.403   1.196   3.149
 2140TIP3    H2 6354   6.328   1.069   3.183
 2141TIP3   OH2 6355   6.185   1.219   2.088
 2141TIP3    H1 6356   6.141   1.202   2.005
 2141TIP3    H2 6357   6.150   1.304   2.117
 2142TIP3   OH2 6358   5.623   1.077   2.456
 2142TIP3    H1 6359   5.669   1.070   2.540
 2142TIP3    H2 6360   5.575   0.994   2.448
 2143TIP3   OH2 6361   6.384   1.143   1.717
 2143TIP3    H1 6362   6.438   1.073   1.681
 2143TIP3    H2 6363   6.418   1.156   1.806
 2144TIP3   OH2 6364   6.437   1.191   1.985
 2144TIP3    H1 6365   6.351   1.195   2.028
 2144TIP3    H2 6366   6.496   1.158   2.053
 2145TIP3   OH2 6367   7.185   0.457   3.189
 2145TIP3    H1 6368   7.102   0.502   3.173
 2145TIP3    H2 6369   7.165   0.365   3.176
 2146TIP3   OH2 6370   5.797   0.879   3.263
 2146TIP3    H1 6371   5.848   0.875   3.344
 2146TIP3    H2 6372   5.727   0.816   3.275
 2147TIP3   OH2 6373   7.087   0.209   3.150
 2147TIP3    H1 6374   7.039   0.200   3.232
 2147TIP3    H2 6375   7.021   0.197   3.082
 2148TIP3   OH2 6376   6.090   0.262   3.091
 2148TIP3    H1 6377   6.033   0.276   3.167
 2148TIP3    H2 6378   6.063   0.329   3.028
 2149TIP3   OH2 6379   6.029   0.183   2.521
 2149TIP3    H1 6380   5.942   0.206   2.487
 2149TIP3    H2 6381   6.072   0.138   2.449
 2150TIP3   OH2 6382   6.535   0.171   2.258
 2150TIP3    H1 6383   6.467   0.238   2.264
 2150TIP3    H2 6384   6.572   0.182   2.170
 2151TIP3   OH2 6385   6.663   0.505   3.394
 2151TIP3    H1 6386   6.642   0.419   3.429
 2151TIP3    H2 6387   6.759   0.511   3.401
 2152TIP3   OH2 6388   6.652   0.316   2.513
 2152TIP3    H1 6389   6.592   0.378   2.471
 2152TIP3    H2 6390   6.604   0.233   2.514
 2153TIP3   OH2 6391   5.911   0.255   3.304
 2153TIP3    H1 6392   5.890   0.323   3.368
 2153TIP3    H2 6393   5.876   0.174   3.342
 2154TIP3   OH2 6394   2.772   8.000   2.363
 2154TIP3    H1 6395   2.718   7.928   2.330
 2154TIP3    H2 6396   2.721   8.037   2.436
 2155TIP3   OH2 6397   6.695   0.465   2.974
 2155TIP3    H1 6398   6.716   0.397   2.910
 2155TIP3    H2 6399   6.663   0.416   3.051
 2156TIP3   OH2 6400   2.903   8.027   2.612
 2156TIP3    H1 6401   2.813   8.058   2.615
 2156TIP3    H2 6402   2.899   7.944   2.565
 2157TIP3   OH2 6403   6.060   0.065   2.268
 2157TIP3    H1 6404   6.136   0.010   2.250
 2157TIP3    H2 6405   5.985   0.005   2.269
 2158TIP3   OH2 6406   3.017   7.984   2.034
 2158TIP3    H1 6407   2.921   7.977   2.039
 2158TIP3    H2 6408   3.034   8.078   2.029
 2159TIP3   OH2 6409   7.017   1.687   3.097
 2159TIP3    H1 6410   7.010   1.707   3.004
 2159TIP3    H2 6411   7.096   1.733   3.126
 2160TIP3   OH2 6412   5.963   0.806   3.491
 2160TIP3    H1 6413   6.044   0.823   3.540
 2160TIP3    H2 6414   5.895   0.806   3.558
 2161TIP3   OH2 6415   6.435   0.309   2.749
 2161TIP3    H1 6416   6.523   0.272   2.749
 2161TIP3    H2 6417   6.402   0.294   2.837
 2162TIP3   OH2 6418   6.346   0.293   3.009
 2162TIP3    H1 6419   6.263   0.281   3.054
 2162TIP3    H2 6420   6.387   0.368   3.053
 2163TIP3   OH2 6421   6.124   0.513   2.132
 2163TIP3    H1 6422   6.056   0.446   2.122
 2163TIP3    H2 6423   6.102   0.559   2.213
 2164TIP3   OH2 6424   7.042   0.666   2.742
 2164TIP3    H1 6425   7.056   0.746   2.794
 2164TIP3    H2 6426   6.954   0.676   2.706
 2165TIP3   OH2 6427   6.536   0.861   3.155
 2165TIP3    H1 6428   6.574   0.867   3.243
 2165TIP3    H2 6429   6.492   0.945   3.142
 2166TIP3   OH2 6430   5.808   0.542   2.804
 2166TIP3    H1 6431   5.853   0.530   2.720
 2166TIP3    H2 6432   5.869   0.507   2.869
 2167TIP3   OH2 6433   6.285   0.681   1.973
 2167TIP3    H1 6434   6.237   0.763   1.977
 2167TIP3    H2 6435   6.234   0.621   2.028
 2168TIP3   OH2 6436   5.720   0.448   3.410
 2168TIP3    H1 6437   5.724   0.446   3.506
 2168TIP3    H2 6438   5.637   0.406   3.388
 2169TIP3   OH2 6439   6.419   0.612   3.454
 2169TIP3    H1 6440   6.358   0.544   3.426
 2169TIP3    H2 6441   6.504   0.582   3.422
 2170TIP3   OH2 6442   7.330   1.087   2.996
 2170TIP3    H1 6443   7.244   1.047   3.003
 2170TIP3    H2 6444   7.366   1.056   2.913
 2171TIP3   OH2 6445   6.779   1.004   1.928
 2171TIP3    H1 6446   6.766   0.971   2.017
 2171TIP3    H2 6447   6.741   0.936   1.872
 2172TIP3   OH2 6448   6.776   0.663   2.654
 2172TIP3    H1 6449   6.688   0.639   2.683
 2172TIP3    H2 6450   6.811   0.583   2.615
 2173TIP3   OH2 6451   5.944   0.874   2.455
 2173TIP3    H1 6452   5.937   0.951   2.399
 2173TIP3    H2 6453   5.858   0.868   2.498
 2174TIP3   OH2 6454   5.488   0.200   2.148
 2174TIP3    H1 6455   5.538   0.276   2.179
 2174TIP3    H2 6456   5.411   0.198   2.204
 2175TIP3   OH2 6457   6.025   0.630   2.355
 2175TIP3    H1 6458   6.014   0.722   2.381
 2175TIP3    H2 6459   6.001   0.580   2.433
 2176TIP3   OH2 6460   6.221   1.190   2.913
 2176TIP3    H1 6461   6.262   1.263   2.867
 2176TIP3    H2 6462   6.291   1.156   2.969
 2177TIP3   OH2 6463   5.854   1.096   2.306
 2177TIP3    H1 6464   5.768   1.101   2.348
 2177TIP3    H2 6465   5.889   1.184   2.312
 2178TIP3   OH2 6466   6.583   0.864   2.881
 2178TIP3    H1 6467   6.574   0.859   2.976
 2178TIP3    H2 6468   6.667   0.822   2.863
 2179TIP3   OH2 6469   6.527   0.763   1.825
 2179TIP3    H1 6470   6.595   0.727   1.882
 2179TIP3    H2 6471   6.444   0.736   1.864
 2180TIP3   OH2 6472   6.827   1.383   2.942
 2180TIP3    H1 6473   6.775   1.303   2.930
 2180TIP3    H2 6474   6.809   1.435   2.863
 2181TIP3   OH2 6475   6.880   1.201   1.577
 2181TIP3    H1 6476   6.888   1.250   1.495
 2181TIP3    H2 6477   6.804   1.240   1.621
 2182TIP3   OH2 6478   6.707   0.664   2.007
 2182TIP3    H1 6479   6.702   0.589   2.066
 2182TIP3    H2 6480   6.800   0.676   1.990
 2183TIP3   OH2 6481   5.651   1.083   3.077
 2183TIP3    H1 6482   5.702   1.022   3.130
 2183TIP3    H2 6483   5.665   1.169   3.117
 2184TIP3   OH2 6484   5.922   0.712   1.775
 2184TIP3    H1 6485   5.919   0.620   1.747
 2184TIP3    H2 6486   5.907   0.709   1.869
 2185TIP3   OH2 6487   5.867   0.716   2.046
 2185TIP3    H1 6488   5.932   0.691   2.112
 2185TIP3    H2 6489   5.863   0.811   2.050
 2186TIP3   OH2 6490   5.605   0.429   2.260
 2186TIP3    H1 6491   5.538   0.472   2.312
 2186TIP3    H2 6492   5.620   0.488   2.186
 2187TIP3   OH2 6493   6.132   0.904   1.980
 2187TIP3    H1 6494   6.048   0.926   2.018
 2187TIP3    H2 6495   6.157   0.981   1.928
 2188TIP3   OH2 6496   3.566   7.961   2.334
 2188TIP3    H1 6497   3.618   8.040   2.319
 2188TIP3    H2 6498   3.526   7.974   2.419
 2189TIP3   OH2 6499   6.588   0.321   3.187
 2189TIP3    H1 6500   6.541   0.400   3.216
 2189TIP3    H2 6501   6.629   0.287   3.266
 2190TIP3   OH2 6502   5.880   0.988   2.055
 2190TIP3    H1 6503   5.855   1.057   1.994
 2190TIP3    H2 6504   5.869   1.027   2.142
 2191TIP3   OH2 6505   6.888   0.427   2.561
 2191TIP3    H1 6506   6.801   0.391   2.544
 2191TIP3    H2 6507   6.917   0.385   2.642
 2192TIP3   OH2 6508   5.616   0.594   2.034
 2192TIP3    H1 6509   5.686   0.659   2.041
 2192TIP3    H2 6510   5.651   0.526   1.976
 2193TIP3   OH2 6511   2.742   7.964   2.071
 2193TIP3    H1 6512   2.719   8.043   2.119
 2193TIP3    H2 6513   2.661   7.913   2.066
 2194TIP3   OH2 6514   6.860   1.350   2.505
 2194TIP3    H1 6515   6.818   1.398   2.435
 2194TIP3    H2 6516   6.954   1.365   2.493
 2195TIP3   OH2 6517   5.451   0.853   2.437
 2195TIP3    H1 6518   5.410   0.891   2.515
 2195TIP3    H2 6519   5.408   0.896   2.363
 2196TIP3   OH2 6520   5.647   1.390   3.498
 2196TIP3    H1 6521   5.728   1.397   3.548
 2196TIP3    H2 6522   5.634   1.295   3.488
 2197TIP3   OH2 6523   6.110   1.309   3.542
 2197TIP3    H1 6524   6.204   1.292   3.550
 2197TIP3    H2 6525   6.081   1.251   3.471
 2198TIP3   OH2 6526   6.070   0.922   1.671
 2198TIP3    H1 6527   6.027   0.847   1.712
 2198TIP3    H2 6528   6.147   0.886   1.628
 2199TIP3   OH2 6529   6.721   1.263   3.306
 2199TIP3    H1 6530   6.736   1.187   3.362
 2199TIP3    H2 6531   6.802   1.314   3.313
 2200TIP3   OH2 6532   6.536   0.934   1.613
 2200TIP3    H1 6533   6.533   0.871   1.685
 2200TIP3    H2 6534   6.628   0.941   1.590
 2201TIP3   OH2 6535   5.762   0.790   3.685
 2201TIP3    H1 6536   5.791   0.699   3.689
 2201TIP3    H2 6537   5.673   0.785   3.650
 2202TIP3   OH2 6538   5.752   0.393   1.905
 2202TIP3    H1 6539   5.806   0.359   1.976
 2202TIP3    H2 6540   5.813   0.411   1.834
 2203TIP3   OH2 6541   6.377   0.883   3.473
 2203TIP3    H1 6542   6.326   0.904   3.394
 2203TIP3    H2 6543   6.403   0.792   3.461
 2204TIP3   OH2 6544   6.243   0.612   1.705
 2204TIP3    H1 6545   6.262   0.633   1.797
 2204TIP3    H2 6546   6.157   0.572   1.707
 2205TIP3   OH2 6547   5.890   0.537   3.643
 2205TIP3    H1 6548   5.985   0.536   3.641
 2205TIP3    H2 6549   5.867   0.488   3.722
 2206TIP3   OH2 6550   5.938   0.290   2.140
 2206TIP3    H1 6551   5.884   0.301   2.218
 2206TIP3    H2 6552   6.000   0.221   2.163
 2207TIP3   OH2 6553   6.227   0.436   3.330
 2207TIP3    H1 6554   6.141   0.476   3.339
 2207TIP3    H2 6555   6.266   0.479   3.254
 2208TIP3   OH2 6556   6.723   0.802   3.438
 2208TIP3    H1 6557   6.783   0.765   3.374
 2208TIP3    H2 6558   6.723   0.738   3.510
 2209TIP3   OH2 6559   6.340   0.183   3.365
 2209TIP3    H1 6560   6.282   0.121   3.320
 2209TIP3    H2 6561   6.301   0.268   3.349
 2210TIP3   OH2 6562   6.394   0.548   3.133
 2210TIP3    H1 6563   6.463   0.614   3.142
 2210TIP3    H2 6564   6.324   0.593   3.086
 2211TIP3   OH2 6565   6.934   0.474   3.449
 2211TIP3    H1 6566   6.933   0.452   3.542
 2211TIP3    H2 6567   6.998   0.546   3.442
 2212TIP3   OH2 6568   6.952   0.787   3.227
 2212TIP3    H1 6569   6.924   0.856   3.167
 2212TIP3    H2 6570   7.046   0.778   3.211
 2213TIP3   OH2 6571   6.181   0.402   3.669
 2213TIP3    H1 6572   6.136   0.365   3.745
 2213TIP3    H2 6573   6.259   0.348   3.658
 2214TIP3   OH2 6574   6.592   0.255   3.465
 2214TIP3    H1 6575   6.605   0.234   3.558
 2214TIP3    H2 6576   6.506   0.219   3.445
 2215TIP3   OH2 6577   5.861   1.195   1.872
 2215TIP3    H1 6578   5.955   1.186   1.855
 2215TIP3    H2 6579   5.827   1.240   1.795
 2216TIP3   OH2 6580   5.343   0.592   2.076
 2216TIP3    H1 6581   5.437   0.606   2.060
 2216TIP3    H2 6582   5.325   0.509   2.032
 2217TIP3   OH2 6583   5.250   1.163   2.514
 2217TIP3    H1 6584   5.184   1.110   2.470
 2217TIP3    H2 6585   5.294   1.103   2.573
 2218TIP3   OH2 6586   5.393   0.997   2.682
 2218TIP3    H1 6587   5.384   0.930   2.750
 2218TIP3    H2 6588   5.446   1.065   2.723
 2219TIP3   OH2 6589   7.126   1.411   2.494
 2219TIP3    H1 6590   7.140   1.435   2.585
 2219TIP3    H2 6591   7.181   1.471   2.444
 2220TIP3   OH2 6592   7.125   1.442   2.775
 2220TIP3    H1 6593   7.062   1.374   2.798
 2220TIP3    H2 6594   7.202   1.423   2.829
 2221TIP3   OH2 6595   7.211   1.126   3.360
 2221TIP3    H1 6596   7.131   1.139   3.413
 2221TIP3    H2 6597   7.250   1.213   3.356
 2222TIP3   OH2 6598   6.976   0.685   1.982
 2222TIP3    H1 6599   7.038   0.751   1.953
 2222TIP3    H2 6600   7.026   0.629   2.042
 2223TIP3   OH2 6601   7.123   0.535   2.162
 2223TIP3    H1 6602   7.059   0.476   2.202
 2223TIP3    H2 6603   7.182   0.559   2.233
 2224TIP3   OH2 6604   7.205   0.902   2.582
 2224TIP3    H1 6605   7.177   0.935   2.497
 2224TIP3    H2 6606   7.134   0.925   2.642
 2225TIP3   OH2 6607   6.952   0.371   2.301
 2225TIP3    H1 6608   6.991   0.284   2.312
 2225TIP3    H2 6609   6.945   0.405   2.390
 2226TIP3   OH2 6610   5.565   0.448   3.052
 2226TIP3    H1 6611   5.554   0.422   2.961
 2226TIP3    H2 6612   5.660   0.452   3.065
 2227TIP3   OH2 6613   7.222   0.772   3.174
 2227TIP3    H1 6614   7.291   0.712   3.148
 2227TIP3    H2 6615   7.194   0.814   3.093
 2228TIP3   OH2 6616   7.429   0.593   3.145
 2228TIP3    H1 6617   7.369   0.526   3.179
 2228TIP3    H2 6618   7.498   0.599   3.211
 2229TIP3   OH2 6619   7.055   0.308   2.745
 2229TIP3    H1 6620   7.095   0.334   2.662
 2229TIP3    H2 6621   7.086   0.374   2.808
 2230TIP3   OH2 6622   7.193   0.504   2.895
 2230TIP3    H1 6623   7.189   0.485   2.988
 2230TIP3    H2 6624   7.117   0.560   2.878
 2231TIP3   OH2 6625   5.656   0.099   3.749
 2231TIP3    H1 6626   5.746   0.130   3.757
 2231TIP3    H2 6627   5.657   0.012   3.789
 2232TIP3   OH2 6628   5.525   0.141   3.147
 2232TIP3    H1 6629   5.599   0.149   3.087
 2232TIP3    H2 6630   5.535   0.214   3.208
 2233TIP3   OH2 6631   6.684   1.310   2.138
 2233TIP3    H1 6632   6.746   1.305   2.065
 2233TIP3    H2 6633   6.722   1.376   2.197
 2234TIP3   OH2 6634   5.781   1.107   3.509
 2234TIP3    H1 6635   5.688   1.087   3.505
 2234TIP3    H2 6636   5.803   1.099   3.602
 2235TIP3   OH2 6637   5.994   1.151   3.064
 2235TIP3    H1 6638   5.943   1.225   3.032
 2235TIP3    H2 6639   6.079   1.160   3.021
 2236TIP3   OH2 6640   6.398   1.380   3.192
 2236TIP3    H1 6641   6.430   1.378   3.282
 2236TIP3    H2 6642   6.466   1.426   3.143
 2237TIP3   OH2 6643   6.599   1.529   3.070
 2237TIP3    H1 6644   6.669   1.473   3.035
 2237TIP3    H2 6645   6.644   1.589   3.129
 2238TIP3   OH2 6646   5.653   1.392   3.110
 2238TIP3    H1 6647   5.561   1.410   3.088
 2238TIP3    H2 6648   5.675   1.458   3.176
 2239TIP3   OH2 6649   5.884   1.382   2.960
 2239TIP3    H1 6650   5.801   1.388   3.007
 2239TIP3    H2 6651   5.862   1.408   2.870
 2240TIP3   OH2 6652   6.305   1.402   2.752
 2240TIP3    H1 6653   6.232   1.418   2.692
 2240TIP3    H2 6654   6.317   1.486   2.797
 2241TIP3   OH2 6655   6.571   1.328   2.784
 2241TIP3    H1 6656   6.480   1.355   2.775
 2241TIP3    H2 6657   6.621   1.404   2.754
 2242TIP3   OH2 6658   6.771   1.517   2.705
 2242TIP3    H1 6659   6.769   1.602   2.663
 2242TIP3    H2 6660   6.800   1.457   2.636
 2243TIP3   OH2 6661   5.567   1.174   2.825
 2243TIP3    H1 6662   5.590   1.150   2.915
 2243TIP3    H2 6663   5.641   1.142   2.773
 2244TIP3   OH2 6664   5.771   1.059   2.686
 2244TIP3    H1 6665   5.781   0.977   2.733
 2244TIP3    H2 6666   5.857   1.100   2.692
 2245TIP3   OH2 6667   6.037   1.143   2.711
 2245TIP3    H1 6668   6.057   1.050   2.698
 2245TIP3    H2 6669   6.091   1.169   2.785
 2246TIP3   OH2 6670   5.336   0.971   2.219
 2246TIP3    H1 6671   5.253   0.934   2.189
 2246TIP3    H2 6672   5.337   1.060   2.185
 2247TIP3   OH2 6673   6.127   1.141   1.820
 2247TIP3    H1 6674   6.212   1.164   1.784
 2247TIP3    H2 6675   6.094   1.072   1.763
 2248TIP3   OH2 6676   6.842   1.267   1.910
 2248TIP3    H1 6677   6.830   1.172   1.917
 2248TIP3    H2 6678   6.787   1.292   1.836
 2249TIP3   OH2 6679   5.442   0.977   1.866
 2249TIP3    H1 6680   5.444   0.985   1.961
 2249TIP3    H2 6681   5.522   0.929   1.844
 2250TIP3   OH2 6682   7.057   1.415   3.096
 2250TIP3    H1 6683   6.977   1.387   3.052
 2250TIP3    H2 6684   7.045   1.509   3.109
 2251TIP3   OH2 6685   7.599   1.087   2.313
 2251TIP3    H1 6686   7.537   1.015   2.322
 2251TIP3    H2 6687   7.639   1.095   2.399
 2252TIP3   OH2 6688   7.359   0.571   2.319
 2252TIP3    H1 6689   7.384   0.479   2.308
 2252TIP3    H2 6690   7.389   0.614   2.238
 2253TIP3   OH2 6691   7.183   0.850   1.905
 2253TIP3    H1 6692   7.263   0.822   1.861
 2253TIP3    H2 6693   7.199   0.941   1.929
 2254TIP3   OH2 6694   7.777   1.449   2.860
 2254TIP3    H1 6695   7.747   1.434   2.770
 2254TIP3    H2 6696   7.705   1.418   2.915
 2255TIP3   OH2 6697   7.396   0.929   2.773
 2255TIP3    H1 6698   7.335   0.935   2.699
 2255TIP3    H2 6699   7.348   0.878   2.839
 2256TIP3   OH2 6700   7.243   1.166   2.425
 2256TIP3    H1 6701   7.326   1.193   2.463
 2256TIP3    H2 6702   7.181   1.233   2.452
 2257TIP3   OH2 6703   7.412   1.350   1.946
 2257TIP3    H1 6704   7.477   1.344   2.016
 2257TIP3    H2 6705   7.383   1.260   1.932
 2258TIP3   OH2 6706   7.566   1.144   2.724
 2258TIP3    H1 6707   7.632   1.135   2.793
 2258TIP3    H2 6708   7.511   1.067   2.733
 2259TIP3   OH2 6709   7.723   1.063   2.939
 2259TIP3    H1 6710   7.816   1.071   2.963
 2259TIP3    H2 6711   7.683   1.019   3.015
 2260TIP3   OH2 6712   7.448   0.661   2.886
 2260TIP3    H1 6713   7.520   0.725   2.879
 2260TIP3    H2 6714   7.447   0.636   2.978
 2261TIP3   OH2 6715   7.439   1.330   2.558
 2261TIP3    H1 6716   7.488   1.271   2.615
 2261TIP3    H2 6717   7.461   1.418   2.588
 2262TIP3   OH2 6718   7.249   1.115   1.939
 2262TIP3    H1 6719   7.218   1.165   2.015
 2262TIP3    H2 6720   7.199   1.150   1.865
 2263TIP3   OH2 6721   7.431   1.636   2.975
 2263TIP3    H1 6722   7.510   1.637   3.028
 2263TIP3    H2 6723   7.407   1.544   2.969
 2264TIP3   OH2 6724   7.529   1.052   3.184
 2264TIP3    H1 6725   7.556   0.961   3.171
 2264TIP3    H2 6726   7.452   1.063   3.128
 2265TIP3   OH2 6727   7.685   0.826   3.134
 2265TIP3    H1 6728   7.682   0.731   3.137
 2265TIP3    H2 6729   7.713   0.852   3.222
 2266TIP3   OH2 6730   7.044   1.424   1.995
 2266TIP3    H1 6731   6.975   1.369   1.960
 2266TIP3    H2 6732   7.089   1.369   2.059
 2267TIP3   OH2 6733   7.187   1.266   2.167
 2267TIP3    H1 6734   7.181   1.201   2.237
 2267TIP3    H2 6735   7.245   1.334   2.203
 2268TIP3   OH2 6736   7.366   0.638   2.591
 2268TIP3    H1 6737   7.363   0.605   2.501
 2268TIP3    H2 6738   7.366   0.734   2.580
 2269TIP3   OH2 6739   7.494   0.330   3.287
 2269TIP3    H1 6740   7.568   0.391   3.297
 2269TIP3    H2 6741   7.528   0.262   3.228
 2270TIP3   OH2 6742   7.574   1.368   3.031
 2270TIP3    H1 6743   7.485   1.351   2.999
 2270TIP3    H2 6744   7.574   1.334   3.121
 2271TIP3   OH2 6745   7.442   1.628   2.600
 2271TIP3    H1 6746   7.353   1.652   2.577
 2271TIP3    H2 6747   7.473   1.700   2.655
 2272TIP3   OH2 6748   7.647   1.542   2.428
 2272TIP3    H1 6749   7.583   1.577   2.490
 2272TIP3    H2 6750   7.653   1.609   2.359
 2273TIP3   OH2 6751   7.364   1.436   2.305
 2273TIP3    H1 6752   7.385   1.411   2.395
 2273TIP3    H2 6753   7.438   1.406   2.254
 2274TIP3   OH2 6754   7.573   1.322   2.171
 2274TIP3    H1 6755   7.583   1.235   2.211
 2274TIP3    H2 6756   7.647   1.372   2.205
 2275TIP3   OH2 6757   7.114   1.220   1.722
 2275TIP3    H1 6758   7.028   1.194   1.690
 2275TIP3    H2 6759   7.110   1.315   1.727
 2276TIP3   OH2 6760   7.189   1.271   1.456
 2276TIP3    H1 6761   7.170   1.227   1.539
 2276TIP3    H2 6762   7.261   1.220   1.418
 2277TIP3   OH2 6763   0.777   1.589   3.533
 2277TIP3    H1 6764   0.742   1.665   3.487
 2277TIP3    H2 6765   0.723   1.581   3.611
 2278TIP3   OH2 6766   0.786   1.564   3.933
 2278TIP3    H1 6767   0.831   1.558   4.017
 2278TIP3    H2 6768   0.749   1.477   3.920
 2279TIP3   OH2 6769   0.076   1.454   4.297
 2279TIP3    H1 6770   0.112   1.389   4.358
 2279TIP3    H2 6771   0.153   1.487   4.250
 2280TIP3   OH2 6772   1.054   1.877   3.619
 2280TIP3    H1 6773   1.037   1.815   3.689
 2280TIP3    H2 6774   1.073   1.959   3.664
 2281TIP3   OH2 6775   0.071   1.858   4.007
 2281TIP3    H1 6776   0.054   1.764   4.009
 2281TIP3    H2 6777   0.166   1.864   3.998
 2282TIP3   OH2 6778   0.699   2.314   3.626
 2282TIP3    H1 6779   0.730   2.244   3.568
 2282TIP3    H2 6780   0.685   2.270   3.710
 2283TIP3   OH2 6781   0.591   1.790   3.958
 2283TIP3    H1 6782   0.633   1.713   3.920
 2283TIP3    H2 6783   0.663   1.844   3.989
 2284TIP3   OH2 6784   1.629   1.127   3.953
 2284TIP3    H1 6785   1.644   1.213   3.992
 2284TIP3    H2 6786   1.657   1.136   3.862
 2285TIP3   OH2 6787   1.011   1.294   4.003
 2285TIP3    H1 6788   1.085   1.233   4.008
 2285TIP3    H2 6789   0.977   1.283   3.914
 2286TIP3   OH2 6790   1.066   1.083   3.580
 2286TIP3    H1 6791   1.134   1.083   3.647
 2286TIP3    H2 6792   1.112   1.105   3.499
 2287TIP3   OH2 6793   0.402   1.347   3.888
 2287TIP3    H1 6794   0.497   1.357   3.895
 2287TIP3    H2 6795   0.389   1.255   3.867
 2288TIP3   OH2 6796   1.683   1.338   4.137
 2288TIP3    H1 6797   1.593   1.372   4.132
 2288TIP3    H2 6798   1.720   1.380   4.215
 2289TIP3   OH2 6799   0.386   0.988   4.409
 2289TIP3    H1 6800   0.302   1.025   4.381
 2289TIP3    H2 6801   0.380   0.986   4.505
 2290TIP3   OH2 6802   0.655   1.795   3.404
 2290TIP3    H1 6803   0.640   1.781   3.310
 2290TIP3    H2 6804   0.605   1.874   3.424
 2291TIP3   OH2 6805   0.426   1.720   4.170
 2291TIP3    H1 6806   0.371   1.789   4.205
 2291TIP3    H2 6807   0.473   1.761   4.097
 2292TIP3   OH2 6808   1.217   1.093   3.804
 2292TIP3    H1 6809   1.270   1.019   3.834
 2292TIP3    H2 6810   1.269   1.170   3.828
 2293TIP3   OH2 6811   0.192   1.056   4.216
 2293TIP3    H1 6812   0.255   1.126   4.198
 2293TIP3    H2 6813   0.173   1.018   4.130
 2294TIP3   OH2 6814   0.267   1.917   4.278
 2294TIP3    H1 6815   0.255   2.007   4.248
 2294TIP3    H2 6816   0.186   1.895   4.324
 2295TIP3   OH2 6817   1.092   2.123   3.761
 2295TIP3    H1 6818   1.005   2.115   3.802
 2295TIP3    H2 6819   1.088   2.206   3.714
 2296TIP3   OH2 6820   1.437   1.054   4.146
 2296TIP3    H1 6821   1.347   1.069   4.120
 2296TIP3    H2 6822   1.489   1.069   4.067
 2297TIP3   OH2 6823   0.717   0.593   4.137
 2297TIP3    H1 6824   0.738   0.528   4.070
 2297TIP3    H2 6825   0.623   0.607   4.128
 2298TIP3   OH2 6826   0.794   2.146   3.423
 2298TIP3    H1 6827   0.845   2.066   3.409
 2298TIP3    H2 6828   0.853   2.217   3.396
 2299TIP3   OH2 6829   0.956   1.935   3.364
 2299TIP3    H1 6830   0.958   1.857   3.309
 2299TIP3    H2 6831   0.992   1.907   3.448
 2300TIP3   OH2 6832   1.321   2.017   4.110
 2300TIP3    H1 6833   1.305   1.943   4.051
 2300TIP3    H2 6834   1.304   2.094   4.056
 2301TIP3   OH2 6835   1.504   1.678   3.975
 2301TIP3    H1 6836   1.420   1.723   3.974
 2301TIP3    H2 6837   1.540   1.690   3.887
 2302TIP3   OH2 6838   0.961   1.504   3.347
 2302TIP3    H1 6839   0.903   1.536   3.416
 2302TIP3    H2 6840   1.043   1.484   3.392
 2303TIP3   OH2 6841   1.196   1.546   4.272
 2303TIP3    H1 6842   1.195   1.630   4.319
 2303TIP3    H2 6843   1.115   1.545   4.223
 2304TIP3   OH2 6844   0.192   1.489   3.774
 2304TIP3    H1 6845   0.165   1.438   3.698
 2304TIP3    H2 6846   0.270   1.443   3.806
 2305TIP3   OH2 6847   0.335   1.904   3.893
 2305TIP3    H1 6848   0.309   1.889   3.802
 2305TIP3    H2 6849   0.423   1.866   3.899
 2306TIP3   OH2 6850   0.297   1.486   4.114
 2306TIP3    H1 6851   0.333   1.453   4.032
 2306TIP3    H2 6852   0.343   1.568   4.130
 2307TIP3   OH2 6853   0.858   2.114   3.898
 2307TIP3    H1 6854   0.839   2.195   3.943
 2307TIP3    H2 6855   0.837   2.045   3.961
 2308TIP3   OH2 6856   0.468   2.016   4.441
 2308TIP3    H1 6857   0.411   2.078   4.487
 2308TIP3    H2 6858   0.410   1.967   4.384
 2309TIP3   OH2 6859   0.230   1.573   4.566
 2309TIP3    H1 6860   0.236   1.661   4.601
 2309TIP3    H2 6861   0.136   1.557   4.557
 2310TIP3   OH2 6862   0.534   2.051   3.410
 2310TIP3    H1 6863   0.624   2.081   3.425
 2310TIP3    H2 6864   0.486   2.130   3.385
 2311TIP3   OH2 6865   0.266   2.180   4.533
 2311TIP3    H1 6866   0.242   2.192   4.441
 2311TIP3    H2 6867   0.187   2.144   4.573
 2312TIP3   OH2 6868   1.120   1.971   2.774
 2312TIP3    H1 6869   1.119   2.066   2.759
 2312TIP3    H2 6870   1.210   1.945   2.757
 2313TIP3   OH2 6871   8.372   1.694   4.447
 2313TIP3    H1 6872   8.328   1.654   4.373
 2313TIP3    H2 6873   8.399   1.620   4.501
 2314TIP3   OH2 6874   8.257   1.889   4.043
 2314TIP3    H1 6875   8.351   1.897   4.060
 2314TIP3    H2 6876   8.216   1.933   4.118
 2315TIP3   OH2 6877   1.554   2.381   4.175
 2315TIP3    H1 6878   1.559   2.286   4.187
 2315TIP3    H2 6879   1.474   2.407   4.219
 2316TIP3   OH2 6880   0.658   2.158   4.300
 2316TIP3    H1 6881   0.652   2.249   4.328
 2316TIP3    H2 6882   0.588   2.114   4.349
 2317TIP3   OH2 6883   0.439   2.271   3.267
 2317TIP3    H1 6884   0.398   2.251   3.183
 2317TIP3    H2 6885   0.403   2.356   3.291
 2318TIP3   OH2 6886   8.366   2.118   3.633
 2318TIP3    H1 6887   8.433   2.104   3.700
 2318TIP3    H2 6888   8.287   2.080   3.671
 2319TIP3   OH2 6889   0.627   2.177   2.896
 2319TIP3    H1 6890   0.685   2.110   2.859
 2319TIP3    H2 6891   0.665   2.196   2.982
 2320TIP3   OH2 6892   0.692   2.241   3.159
 2320TIP3    H1 6893   0.606   2.244   3.202
 2320TIP3    H2 6894   0.751   2.205   3.226
 2321TIP3   OH2 6895   1.438   1.498   4.448
 2321TIP3    H1 6896   1.364   1.514   4.390
 2321TIP3    H2 6897   1.460   1.406   4.435
 2322TIP3   OH2 6898   0.044   1.907   4.440
 2322TIP3    H1 6899   0.090   1.890   4.522
 2322TIP3    H2 6900  -0.024   1.839   4.436
 2323TIP3   OH2 6901   0.355   0.791   4.224
 2323TIP3    H1 6902   0.296   0.722   4.255
 2323TIP3    H2 6903   0.359   0.852   4.297
 2324TIP3   OH2 6904   0.981   0.951   4.540
 2324TIP3    H1 6905   1.030   0.878   4.501
 2324TIP3    H2 6906   0.899   0.911   4.568
 2325TIP3   OH2 6907   1.210   1.289   4.368
 2325TIP3    H1 6908   1.170   1.293   4.455
 2325TIP3    H2 6909   1.193   1.374   4.329
 2326TIP3   OH2 6910   0.381   1.271   4.262
 2326TIP3    H1 6911   0.333   1.273   4.345
 2326TIP3    H2 6912   0.351   1.348   4.214
 2327TIP3   OH2 6913   0.770   1.277   3.514
 2327TIP3    H1 6914   0.685   1.312   3.486
 2327TIP3    H2 6915   0.833   1.310   3.450
 2328TIP3   OH2 6916   0.928   1.492   4.595
 2328TIP3    H1 6917   0.904   1.423   4.656
 2328TIP3    H2 6918   1.022   1.503   4.608
 2329TIP3   OH2 6919   0.923   1.242   3.748
 2329TIP3    H1 6920   0.846   1.273   3.700
 2329TIP3    H2 6921   0.967   1.183   3.686
 2330TIP3   OH2 6922   0.215   1.297   4.482
 2330TIP3    H1 6923   0.228   1.377   4.533
 2330TIP3    H2 6924   0.155   1.245   4.535
 2331TIP3   OH2 6925   0.939   1.499   4.163
 2331TIP3    H1 6926   0.966   1.428   4.104
 2331TIP3    H2 6927   0.894   1.455   4.235
 2332TIP3   OH2 6928   0.581   1.041   3.834
 2332TIP3    H1 6929   0.493   1.011   3.857
 2332TIP3    H2 6930   0.639   0.972   3.866
 2333TIP3   OH2 6931   1.163   1.065   4.107
 2333TIP3    H1 6932   1.103   1.084   4.179
 2333TIP3    H2 6933   1.108   1.021   4.042
 2334TIP3   OH2 6934   1.265   2.722   4.265
 2334TIP3    H1 6935   1.260   2.743   4.172
 2334TIP3    H2 6936   1.343   2.768   4.296
 2335TIP3   OH2 6937   0.210   1.839   4.681
 2335TIP3    H1 6938   0.287   1.843   4.738
 2335TIP3    H2 6939   0.161   1.919   4.703
 2336TIP3   OH2 6940   0.672   1.297   3.933
 2336TIP3    H1 6941   0.659   1.214   3.887
 2336TIP3    H2 6942   0.672   1.273   4.026
 2337TIP3   OH2 6943   0.648   1.237   4.202
 2337TIP3    H1 6944   0.556   1.258   4.222
 2337TIP3    H2 6945   0.698   1.300   4.255
 2338TIP3   OH2 6946   1.268   1.813   3.931
 2338TIP3    H1 6947   1.303   1.863   3.857
 2338TIP3    H2 6948   1.187   1.774   3.898
 2339TIP3   OH2 6949   0.778   1.893   4.339
 2339TIP3    H1 6950   0.824   1.895   4.422
 2339TIP3    H2 6951   0.734   1.979   4.335
 2340TIP3   OH2 6952   0.054   1.581   3.998
 2340TIP3    H1 6953   0.081   1.559   3.909
 2340TIP3    H2 6954   0.120   1.539   4.054
 2341TIP3   OH2 6955   0.568   1.742   3.140
 2341TIP3    H1 6956   0.512   1.819   3.136
 2341TIP3    H2 6957   0.509   1.671   3.165
 2342TIP3   OH2 6958   8.461   1.502   4.636
 2342TIP3    H1 6959   8.506   1.521   4.719
 2342TIP3    H2 6960   8.369   1.489   4.661
 2343TIP3   OH2 6961   0.691   1.640   4.635
 2343TIP3    H1 6962   0.620   1.584   4.603
 2343TIP3    H2 6963   0.771   1.601   4.599
 2344TIP3   OH2 6964   0.930   2.171   4.229
 2344TIP3    H1 6965   0.834   2.163   4.233
 2344TIP3    H2 6966   0.954   2.216   4.310
 2345TIP3   OH2 6967   1.341   1.230   3.107
 2345TIP3    H1 6968   1.270   1.175   3.075
 2345TIP3    H2 6969   1.326   1.315   3.066
 2346TIP3   OH2 6970   1.567   2.097   4.200
 2346TIP3    H1 6971   1.472   2.085   4.193
 2346TIP3    H2 6972   1.602   2.068   4.116
 2347TIP3   OH2 6973   1.069   2.043   3.045
 2347TIP3    H1 6974   1.028   1.978   3.102
 2347TIP3    H2 6975   1.071   2.001   2.959
 2348TIP3   OH2 6976   1.037   1.682   3.832
 2348TIP3    H1 6977   0.947   1.658   3.855
 2348TIP3    H2 6978   1.073   1.603   3.793
 2349TIP3   OH2 6979   0.195   1.910   3.649
 2349TIP3    H1 6980   0.195   1.977   3.581
 2349TIP3    H2 6981   0.118   1.928   3.702
 2350TIP3   OH2 6982   0.341   1.674   3.624
 2350TIP3    H1 6983   0.298   1.758   3.610
 2350TIP3    H2 6984   0.281   1.625   3.680
 2351TIP3   OH2 6985   0.473   2.237   4.094
 2351TIP3    H1 6986   0.507   2.311   4.043
 2351TIP3    H2 6987   0.549   2.205   4.143
 2352TIP3   OH2 6988   0.120   2.132   3.503
 2352TIP3    H1 6989   0.026   2.136   3.522
 2352TIP3    H2 6990   0.146   2.224   3.497
 2353TIP3   OH2 6991   0.827   1.890   4.067
 2353TIP3    H1 6992   0.814   1.887   4.162
 2353TIP3    H2 6993   0.913   1.849   4.053
 2354TIP3   OH2 6994   0.823   1.767   2.966
 2354TIP3    H1 6995   0.881   1.753   3.040
 2354TIP3    H2 6996   0.735   1.755   3.002
 2355TIP3   OH2 6997   1.078   2.399   4.105
 2355TIP3    H1 6998   1.003   2.340   4.114
 2355TIP3    H2 6999   1.054   2.457   4.032
 2356TIP3   OH2 7000   1.136   2.245   2.747
 2356TIP3    H1 7001   1.158   2.306   2.676
 2356TIP3    H2 7002   1.064   2.287   2.794
 2357TIP3   OH2 7003   0.998   1.722   3.176
 2357TIP3    H1 7004   0.975   1.644   3.227
 2357TIP3    H2 7005   1.090   1.711   3.156
 2358TIP3   OH2 7006   8.435   2.113   4.232
 2358TIP3    H1 7007   8.460   2.049   4.299
 2358TIP3    H2 7008   8.440   2.198   4.276
 2359TIP3   OH2 7009   1.001   1.118   4.326
 2359TIP3    H1 7010   1.083   1.161   4.349
 2359TIP3    H2 7011   0.985   1.056   4.398
 2360TIP3   OH2 7012   0.396   1.952   3.163
 2360TIP3    H1 7013   0.402   1.983   3.253
 2360TIP3    H2 7014   0.379   2.031   3.112
 2361TIP3   OH2 7015   0.843   1.346   4.368
 2361TIP3    H1 7016   0.874   1.388   4.449
 2361TIP3    H2 7017   0.892   1.264   4.364
 2362TIP3   OH2 7018   1.473   1.230   4.364
 2362TIP3    H1 7019   1.378   1.239   4.369
 2362TIP3    H2 7020   1.489   1.177   4.286
 2363TIP3   OH2 7021   1.133   1.431   3.742
 2363TIP3    H1 7022   1.060   1.370   3.751
 2363TIP3    H2 7023   1.203   1.393   3.794
 2364TIP3   OH2 7024   1.108   2.390   3.678
 2364TIP3    H1 7025   1.065   2.440   3.609
 2364TIP3    H2 7026   1.201   2.403   3.663
 2365TIP3   OH2 7027   8.417   2.353   4.695
 2365TIP3    H1 7028   8.495   2.382   4.741
 2365TIP3    H2 7029   8.374   2.433   4.666
 2366TIP3   OH2 7030   0.366   2.355   4.723
 2366TIP3    H1 7031   0.459   2.334   4.728
 2366TIP3    H2 7032   0.332   2.297   4.653
 2367TIP3   OH2 7033   0.985   2.284   4.474
 2367TIP3    H1 7034   0.999   2.216   4.539
 2367TIP3    H2 7035   1.059   2.344   4.486
 2368TIP3   OH2 7036   0.802   1.990   2.799
 2368TIP3    H1 7037   0.808   1.910   2.852
 2368TIP3    H2 7038   0.879   1.986   2.742
 2369TIP3   OH2 7039   8.448   1.816   4.857
 2369TIP3    H1 7040   8.504   1.747   4.820
 2369TIP3    H2 7041   8.393   1.844   4.783
 2370TIP3   OH2 7042   0.624   1.915   4.644
 2370TIP3    H1 7043   0.577   1.936   4.563
 2370TIP3    H2 7044   0.656   1.826   4.630
 2371TIP3   OH2 7045   1.096   1.948   4.257
 2371TIP3    H1 7046   1.173   1.979   4.210
 2371TIP3    H2 7047   1.031   2.018   4.245
 2372TIP3   OH2 7048   0.105   1.566   4.862
 2372TIP3    H1 7049   0.179   1.506   4.858
 2372TIP3    H2 7050   0.110   1.605   4.950
 2373TIP3   OH2 7051   0.492   1.471   4.532
 2373TIP3    H1 7052   0.405   1.509   4.538
 2373TIP3    H2 7053   0.523   1.493   4.444
 2374TIP3   OH2 7054   0.980   1.836   4.625
 2374TIP3    H1 7055   1.043   1.797   4.565
 2374TIP3    H2 7056   0.974   1.774   4.698
 2375TIP3   OH2 7057   0.603   1.239   4.633
 2375TIP3    H1 7058   0.616   1.182   4.557
 2375TIP3    H2 7059   0.561   1.317   4.597
 2376TIP3   OH2 7060   0.642   1.069   4.422
 2376TIP3    H1 7061   0.666   1.116   4.342
 2376TIP3    H2 7062   0.552   1.040   4.407
 2377TIP3   OH2 7063   0.606   1.559   4.300
 2377TIP3    H1 7064   0.690   1.603   4.288
 2377TIP3    H2 7065   0.543   1.616   4.255
 2378TIP3   OH2 7066   1.214   1.516   4.712
 2378TIP3    H1 7067   1.250   1.443   4.661
 2378TIP3    H2 7068   1.272   1.589   4.694
 2379TIP3   OH2 7069   1.219   1.779   4.428
 2379TIP3    H1 7070   1.165   1.839   4.377
 2379TIP3    H2 7071   1.308   1.795   4.398
 2380TIP3   OH2 7072   0.533   1.291   4.904
 2380TIP3    H1 7073   0.441   1.311   4.922
 2380TIP3    H2 7074   0.534   1.266   4.811
 2381TIP3   OH2 7075   0.718   0.877   4.603
 2381TIP3    H1 7076   0.688   0.945   4.543
 2381TIP3    H2 7077   0.719   0.797   4.550
 2382TIP3   OH2 7078   0.846   1.278   4.756
 2382TIP3    H1 7079   0.805   1.316   4.833
 2382TIP3    H2 7080   0.773   1.247   4.703
 2383TIP3   OH2 7081   1.101   1.256   4.611
 2383TIP3    H1 7082   1.019   1.220   4.645
 2383TIP3    H2 7083   1.169   1.212   4.661
 2384TIP3   OH2 7084   1.311   1.183   4.774
 2384TIP3    H1 7085   1.335   1.091   4.778
 2384TIP3    H2 7086   1.301   1.209   4.866
 2385TIP3   OH2 7087   0.791   0.865   4.867
 2385TIP3    H1 7088   0.856   0.797   4.850
 2385TIP3    H2 7089   0.744   0.874   4.784
 2386TIP3   OH2 7090   8.180   2.033   3.814
 2386TIP3    H1 7091   8.208   1.971   3.882
 2386TIP3    H2 7092   8.129   2.098   3.862
 2387TIP3   OH2 7093   1.378   2.443   3.668
 2387TIP3    H1 7094   1.395   2.474   3.757
 2387TIP3    H2 7095   1.427   2.504   3.612
 2388TIP3   OH2 7096   1.390   2.481   3.949
 2388TIP3    H1 7097   1.345   2.396   3.946
 2388TIP3    H2 7098   1.463   2.467   4.009
 2389TIP3   OH2 7099   1.455   2.171   4.525
 2389TIP3    H1 7100   1.380   2.183   4.584
 2389TIP3    H2 7101   1.498   2.256   4.523
 2390TIP3   OH2 7102   1.272   1.683   3.129
 2390TIP3    H1 7103   1.327   1.755   3.100
 2390TIP3    H2 7104   1.317   1.647   3.205
 2391TIP3   OH2 7105   1.400   1.554   3.336
 2391TIP3    H1 7106   1.331   1.519   3.392
 2391TIP3    H2 7107   1.464   1.592   3.396
 2392TIP3   OH2 7108   1.447   1.952   3.767
 2392TIP3    H1 7109   1.497   1.885   3.720
 2392TIP3    H2 7110   1.446   2.026   3.707
 2393TIP3   OH2 7111   1.253   2.237   3.959
 2393TIP3    H1 7112   1.185   2.282   4.008
 2393TIP3    H2 7113   1.207   2.196   3.885
 2394TIP3   OH2 7114   1.290   1.465   2.963
 2394TIP3    H1 7115   1.221   1.479   2.898
 2394TIP3    H2 7116   1.280   1.538   3.024
 2395TIP3   OH2 7117   1.199   1.420   3.473
 2395TIP3    H1 7118   1.211   1.326   3.458
 2395TIP3    H2 7119   1.180   1.427   3.567
 2396TIP3   OH2 7120   8.332   1.526   4.195
 2396TIP3    H1 7121   8.370   1.561   4.115
 2396TIP3    H2 7122   8.406   1.489   4.243
 2397TIP3   OH2 7123   1.474   1.828   4.332
 2397TIP3    H1 7124   1.543   1.763   4.313
 2397TIP3    H2 7125   1.487   1.897   4.267
 2398TIP3   OH2 7126   1.654   1.619   4.325
 2398TIP3    H1 7127   1.582   1.577   4.372
 2398TIP3    H2 7128   1.730   1.566   4.346
 2399TIP3   OH2 7129   1.245   1.151   3.380
 2399TIP3    H1 7130   1.282   1.064   3.390
 2399TIP3    H2 7131   1.281   1.183   3.297
 2400TIP3   OH2 7132   1.351   1.319   3.879
 2400TIP3    H1 7133   1.432   1.334   3.832
 2400TIP3    H2 7134   1.368   1.352   3.967
 2401TIP3   OH2 7135   1.423   1.454   4.113
 2401TIP3    H1 7136   1.345   1.484   4.159
 2401TIP3    H2 7137   1.456   1.532   4.068
 2402TIP3   OH2 7138   1.885   1.051   4.645
 2402TIP3    H1 7139   1.946   0.992   4.601
 2402TIP3    H2 7140   1.849   1.105   4.575
 2403TIP3   OH2 7141   1.330   0.885   3.414
 2403TIP3    H1 7142   1.372   0.867   3.498
 2403TIP3    H2 7143   1.267   0.813   3.403
 2404TIP3   OH2 7144   1.732   1.177   4.457
 2404TIP3    H1 7145   1.646   1.217   4.469
 2404TIP3    H2 7146   1.714   1.100   4.402
 2405TIP3   OH2 7147   0.940   2.347   3.318
 2405TIP3    H1 7148   0.996   2.340   3.240
 2405TIP3    H2 7149   0.978   2.419   3.368
 2406TIP3   OH2 7150   0.060   2.076   4.699
 2406TIP3    H1 7151  -0.026   2.071   4.658
 2406TIP3    H2 7152   0.052   2.147   4.763
 2407TIP3   OH2 7153   0.253   2.191   4.252
 2407TIP3    H1 7154   0.190   2.254   4.219
 2407TIP3    H2 7155   0.333   2.209   4.203
 2408TIP3   OH2 7156   0.650   2.424   4.377
 2408TIP3    H1 7157   0.686   2.421   4.465
 2408TIP3    H2 7158   0.711   2.479   4.327
 2409TIP3   OH2 7159   0.839   2.582   4.252
 2409TIP3    H1 7160   0.904   2.533   4.202
 2409TIP3    H2 7161   0.891   2.641   4.307
 2410TIP3   OH2 7162   1.649   0.944   4.340
 2410TIP3    H1 7163   1.568   0.935   4.290
 2410TIP3    H2 7164   1.695   0.861   4.325
 2411TIP3   OH2 7165   8.455   2.389   4.304
 2411TIP3    H1 7166   8.367   2.393   4.268
 2411TIP3    H2 7167   8.462   2.467   4.359
 2412TIP3   OH2 7168   0.159   2.424   4.124
 2412TIP3    H1 7169   0.080   2.417   4.178
 2412TIP3    H2 7170   0.127   2.438   4.035
 2413TIP3   OH2 7171   0.555   2.443   3.927
 2413TIP3    H1 7172   0.483   2.453   3.864
 2413TIP3    H2 7173   0.565   2.530   3.966
 2414TIP3   OH2 7174   0.817   2.376   3.980
 2414TIP3    H1 7175   0.725   2.397   3.961
 2414TIP3    H2 7176   0.866   2.443   3.933
 2415TIP3   OH2 7177   1.016   2.552   3.881
 2415TIP3    H1 7178   1.014   2.640   3.842
 2415TIP3    H2 7179   1.046   2.496   3.809
 2416TIP3   OH2 7180   8.374   2.237   3.987
 2416TIP3    H1 7181   8.374   2.196   4.073
 2416TIP3    H2 7182   8.414   2.171   3.929
 2417TIP3   OH2 7183   0.039   2.069   3.839
 2417TIP3    H1 7184   0.043   1.999   3.904
 2417TIP3    H2 7185   0.119   2.119   3.854
 2418TIP3   OH2 7186   0.294   2.183   3.886
 2418TIP3    H1 7187   0.315   2.090   3.877
 2418TIP3    H2 7188   0.340   2.211   3.965
 2419TIP3   OH2 7189   0.754   0.817   3.892
 2419TIP3    H1 7190   0.823   0.878   3.917
 2419TIP3    H2 7191   0.765   0.806   3.797
 2420TIP3   OH2 7192   1.343   0.861   3.873
 2420TIP3    H1 7193   1.397   0.847   3.795
 2420TIP3    H2 7194   1.262   0.813   3.855
 2421TIP3   OH2 7195   1.481   0.831   3.641
 2421TIP3    H1 7196   1.539   0.767   3.600
 2421TIP3    H2 7197   1.522   0.916   3.622
 2422TIP3   OH2 7198   1.104   0.723   3.835
 2422TIP3    H1 7199   1.050   0.773   3.774
 2422TIP3    H2 7200   1.044   0.694   3.904
 2423TIP3   OH2 7201   0.376   2.188   3.009
 2423TIP3    H1 7202   0.461   2.186   2.965
 2423TIP3    H2 7203   0.312   2.190   2.938
 2424TIP3   OH2 7204   1.091   2.312   3.086
 2424TIP3    H1 7205   1.088   2.216   3.077
 2424TIP3    H2 7206   1.045   2.345   3.009
 2425TIP3   OH2 7207   1.406   0.930   4.792
 2425TIP3    H1 7208   1.426   0.893   4.878
 2425TIP3    H2 7209   1.487   0.922   4.742
 2426TIP3   OH2 7210   1.302   2.448   4.268
 2426TIP3    H1 7211   1.227   2.419   4.217
 2426TIP3    H2 7212   1.291   2.543   4.276
 2427TIP3   OH2 7213   2.552   1.798   3.010
 2427TIP3    H1 7214   2.514   1.876   2.969
 2427TIP3    H2 7215   2.546   1.815   3.104
 2428TIP3   OH2 7216   2.558   1.817   3.417
 2428TIP3    H1 7217   2.606   1.816   3.500
 2428TIP3    H2 7218   2.520   1.730   3.410
 2429TIP3   OH2 7219   1.877   1.701   3.785
 2429TIP3    H1 7220   1.911   1.643   3.854
 2429TIP3    H2 7221   1.955   1.735   3.742
 2430TIP3   OH2 7222   2.839   2.132   3.106
 2430TIP3    H1 7223   2.835   2.068   3.178
 2430TIP3    H2 7224   2.864   2.214   3.149
 2431TIP3   OH2 7225   1.869   2.113   3.468
 2431TIP3    H1 7226   1.851   2.020   3.480
 2431TIP3    H2 7227   1.964   2.119   3.460
 2432TIP3   OH2 7228   1.560   1.342   3.253
 2432TIP3    H1 7229   1.512   1.420   3.282
 2432TIP3    H2 7230   1.494   1.287   3.211
 2433TIP3   OH2 7231   1.634   1.635   3.472
 2433TIP3    H1 7232   1.682   1.555   3.493
 2433TIP3    H2 7233   1.701   1.700   3.454
 2434TIP3   OH2 7234   2.499   2.569   3.118
 2434TIP3    H1 7235   2.526   2.502   3.055
 2434TIP3    H2 7236   2.505   2.526   3.203
 2435TIP3   OH2 7237   2.389   2.047   3.445
 2435TIP3    H1 7238   2.431   1.966   3.417
 2435TIP3    H2 7239   2.461   2.103   3.474
 2436TIP3   OH2 7240   3.404   1.370   3.458
 2436TIP3    H1 7241   3.425   1.451   3.505
 2436TIP3    H2 7242   3.426   1.390   3.367
 2437TIP3   OH2 7243   2.789   1.547   3.478
 2437TIP3    H1 7244   2.836   1.469   3.509
 2437TIP3    H2 7245   2.748   1.518   3.396
 2438TIP3   OH2 7246   2.130   1.199   3.444
 2438TIP3    H1 7247   2.113   1.271   3.383
 2438TIP3    H2 7248   2.095   1.122   3.401
 2439TIP3   OH2 7249   2.845   1.299   3.070
 2439TIP3    H1 7250   2.909   1.292   3.141
 2439TIP3    H2 7251   2.895   1.332   2.995
 2440TIP3   OH2 7252   1.770   1.406   3.551
 2440TIP3    H1 7253   1.851   1.388   3.598
 2440TIP3    H2 7254   1.776   1.353   3.471
 2441TIP3   OH2 7255   2.198   1.605   3.373
 2441TIP3    H1 7256   2.291   1.589   3.386
 2441TIP3    H2 7257   2.163   1.522   3.340
 2442TIP3   OH2 7258   3.464   1.584   3.623
 2442TIP3    H1 7259   3.386   1.638   3.613
 2442TIP3    H2 7260   3.510   1.623   3.697
 2443TIP3   OH2 7261   2.128   1.202   3.888
 2443TIP3    H1 7262   2.078   1.239   3.815
 2443TIP3    H2 7263   2.074   1.218   3.965
 2444TIP3   OH2 7264   2.434   2.016   2.893
 2444TIP3    H1 7265   2.420   2.018   2.799
 2444TIP3    H2 7266   2.406   2.103   2.923
 2445TIP3   OH2 7267   2.228   1.975   3.660
 2445TIP3    H1 7268   2.174   2.046   3.694
 2445TIP3    H2 7269   2.278   2.016   3.589
 2446TIP3   OH2 7270   3.010   1.322   3.286
 2446TIP3    H1 7271   2.970   1.308   3.372
 2446TIP3    H2 7272   3.069   1.396   3.299
 2447TIP3   OH2 7273   2.011   1.312   3.663
 2447TIP3    H1 7274   2.066   1.387   3.684
 2447TIP3    H2 7275   2.057   1.268   3.591
 2448TIP3   OH2 7276   2.067   2.177   3.761
 2448TIP3    H1 7277   2.054   2.267   3.729
 2448TIP3    H2 7278   1.989   2.159   3.813
 2449TIP3   OH2 7279   1.445   1.875   3.016
 2449TIP3    H1 7280   1.403   1.895   2.932
 2449TIP3    H2 7281   1.466   1.961   3.053
 2450TIP3   OH2 7282   2.881   2.379   3.247
 2450TIP3    H1 7283   2.794   2.372   3.286
 2450TIP3    H2 7284   2.881   2.465   3.203
 2451TIP3   OH2 7285   3.212   1.237   3.617
 2451TIP3    H1 7286   3.132   1.287   3.602
 2451TIP3    H2 7287   3.275   1.275   3.556
 2452TIP3   OH2 7288   2.462   0.890   3.604
 2452TIP3    H1 7289   2.461   0.799   3.634
 2452TIP3    H2 7290   2.390   0.932   3.651
 2453TIP3   OH2 7291   2.589   2.406   2.910
 2453TIP3    H1 7292   2.638   2.326   2.896
 2453TIP3    H2 7293   2.648   2.476   2.881
 2454TIP3   OH2 7294   2.734   2.184   2.855
 2454TIP3    H1 7295   2.751   2.109   2.797
 2454TIP3    H2 7296   2.774   2.159   2.938
 2455TIP3   OH2 7297   3.103   2.268   3.588
 2455TIP3    H1 7298   3.103   2.195   3.527
 2455TIP3    H2 7299   3.112   2.346   3.533
 2456TIP3   OH2 7300   2.356   1.663   2.810
 2456TIP3    H1 7301   2.322   1.749   2.834
 2456TIP3    H2 7302   2.441   1.681   2.771
 2457TIP3   OH2 7303   2.390   1.429   2.646
 2457TIP3    H1 7304   2.462   1.492   2.647
 2457TIP3    H2 7305   2.410   1.371   2.573
 2458TIP3   OH2 7306   3.306   1.921   3.455
 2458TIP3    H1 7307   3.223   1.967   3.455
 2458TIP3    H2 7308   3.346   1.943   3.371
 2459TIP3   OH2 7309   2.759   1.758   2.829
 2459TIP3    H1 7310   2.701   1.781   2.902
 2459TIP3    H2 7311   2.842   1.735   2.870
 2460TIP3   OH2 7312   2.989   1.791   3.748
 2460TIP3    H1 7313   3.014   1.854   3.815
 2460TIP3    H2 7314   2.905   1.822   3.715
 2461TIP3   OH2 7315   1.993   1.738   3.240
 2461TIP3    H1 7316   1.966   1.679   3.169
 2461TIP3    H2 7317   2.068   1.694   3.279
 2462TIP3   OH2 7318   2.132   2.162   3.373
 2462TIP3    H1 7319   2.114   2.151   3.280
 2462TIP3    H2 7320   2.221   2.128   3.384
 2463TIP3   OH2 7321   2.099   1.742   3.600
 2463TIP3    H1 7322   2.139   1.707   3.520
 2463TIP3    H2 7323   2.148   1.822   3.618
 2464TIP3   OH2 7324   2.642   2.369   3.378
 2464TIP3    H1 7325   2.631   2.451   3.427
 2464TIP3    H2 7326   2.630   2.301   3.444
 2465TIP3   OH2 7327   2.266   2.278   3.927
 2465TIP3    H1 7328   2.207   2.336   3.974
 2465TIP3    H2 7329   2.209   2.226   3.870
 2466TIP3   OH2 7330   2.595   1.618   2.662
 2466TIP3    H1 7331   2.656   1.676   2.709
 2466TIP3    H2 7332   2.621   1.626   2.570
 2467TIP3   OH2 7333   2.018   1.827   4.067
 2467TIP3    H1 7334   2.021   1.920   4.085
 2467TIP3    H2 7335   1.925   1.806   4.060
 2468TIP3   OH2 7336   2.342   2.284   2.918
 2468TIP3    H1 7337   2.426   2.330   2.923
 2468TIP3    H2 7338   2.284   2.345   2.872
 2469TIP3   OH2 7339   2.057   2.436   4.012
 2469TIP3    H1 7340   2.032   2.448   3.921
 2469TIP3    H2 7341   1.974   2.419   4.058
 2470TIP3   OH2 7342   3.106   0.852   2.709
 2470TIP3    H1 7343   3.029   0.873   2.763
 2470TIP3    H2 7344   3.119   0.930   2.655
 2471TIP3   OH2 7345   1.882   1.583   3.009
 2471TIP3    H1 7346   1.814   1.641   2.976
 2471TIP3    H2 7347   1.834   1.515   3.056
 2472TIP3   OH2 7348   2.928   2.228   2.265
 2472TIP3    H1 7349   2.924   2.321   2.242
 2472TIP3    H2 7350   3.018   2.202   2.244
 2473TIP3   OH2 7351   1.646   1.991   3.963
 2473TIP3    H1 7352   1.577   1.974   3.898
 2473TIP3    H2 7353   1.681   1.904   3.983
 2474TIP3   OH2 7354   1.489   2.189   3.615
 2474TIP3    H1 7355   1.580   2.212   3.630
 2474TIP3    H2 7356   1.439   2.266   3.642
 2475TIP3   OH2 7357   3.339   2.626   3.651
 2475TIP3    H1 7358   3.328   2.531   3.649
 2475TIP3    H2 7359   3.265   2.658   3.703
 2476TIP3   OH2 7360   2.453   2.422   3.785
 2476TIP3    H1 7361   2.447   2.513   3.816
 2476TIP3    H2 7362   2.387   2.375   3.837
 2477TIP3   OH2 7363   2.234   2.518   2.745
 2477TIP3    H1 7364   2.193   2.502   2.660
 2477TIP3    H2 7365   2.198   2.602   2.773
 2478TIP3   OH2 7366   1.668   2.374   3.118
 2478TIP3    H1 7367   1.712   2.367   3.203
 2478TIP3    H2 7368   1.617   2.293   3.110
 2479TIP3   OH2 7369   2.436   2.450   2.371
 2479TIP3    H1 7370   2.487   2.378   2.335
 2479TIP3    H2 7371   2.472   2.463   2.459
 2480TIP3   OH2 7372   2.488   2.495   2.640
 2480TIP3    H1 7373   2.403   2.496   2.685
 2480TIP3    H2 7374   2.550   2.467   2.707
 2481TIP3   OH2 7375   3.191   1.755   3.980
 2481TIP3    H1 7376   3.246   1.833   3.973
 2481TIP3    H2 7377   3.250   1.682   3.958
 2482TIP3   OH2 7378   1.848   2.176   3.928
 2482TIP3    H1 7379   1.895   2.168   4.012
 2482TIP3    H2 7380   1.775   2.114   3.936
 2483TIP3   OH2 7381   2.235   0.988   3.742
 2483TIP3    H1 7382   2.150   0.957   3.709
 2483TIP3    H2 7383   2.215   1.069   3.788
 2484TIP3   OH2 7384   2.778   1.105   3.940
 2484TIP3    H1 7385   2.849   1.081   3.999
 2484TIP3    H2 7386   2.698   1.089   3.991
 2485TIP3   OH2 7387   3.000   1.527   3.839
 2485TIP3    H1 7388   2.968   1.528   3.929
 2485TIP3    H2 7389   2.999   1.618   3.811
 2486TIP3   OH2 7390   2.680   1.609   2.405
 2486TIP3    H1 7391   2.632   1.619   2.323
 2486TIP3    H2 7392   2.764   1.653   2.388
 2487TIP3   OH2 7393   2.371   1.045   2.715
 2487TIP3    H1 7394   2.346   1.053   2.807
 2487TIP3    H2 7395   2.349   0.954   2.693
 2488TIP3   OH2 7396   2.170   1.519   3.749
 2488TIP3    H1 7397   2.127   1.529   3.833
 2488TIP3    H2 7398   2.149   1.600   3.701
 2489TIP3   OH2 7399   2.058   1.389   3.259
 2489TIP3    H1 7400   1.969   1.357   3.272
 2489TIP3    H2 7401   2.083   1.358   3.172
 2490TIP3   OH2 7402   2.543   1.493   2.993
 2490TIP3    H1 7403   2.541   1.587   2.975
 2490TIP3    H2 7404   2.603   1.458   2.927
 2491TIP3   OH2 7405   2.721   1.738   4.069
 2491TIP3    H1 7406   2.698   1.671   4.133
 2491TIP3    H2 7407   2.814   1.755   4.084
 2492TIP3   OH2 7408   2.693   1.474   3.231
 2492TIP3    H1 7409   2.628   1.496   3.163
 2492TIP3    H2 7410   2.747   1.406   3.191
 2493TIP3   OH2 7411   2.003   1.530   3.969
 2493TIP3    H1 7412   2.034   1.591   4.036
 2493TIP3    H2 7413   1.987   1.449   4.017
 2494TIP3   OH2 7414   2.038   1.003   2.691
 2494TIP3    H1 7415   2.035   1.003   2.787
 2494TIP3    H2 7416   1.954   1.040   2.664
 2495TIP3   OH2 7417   1.594   1.061   3.558
 2495TIP3    H1 7418   1.671   1.095   3.603
 2495TIP3    H2 7419   1.626   1.037   3.471
 2496TIP3   OH2 7420   1.585   1.074   3.078
 2496TIP3    H1 7421   1.627   1.064   2.992
 2496TIP3    H2 7422   1.511   1.132   3.062
 2497TIP3   OH2 7423   2.699   1.745   3.645
 2497TIP3    H1 7424   2.741   1.682   3.586
 2497TIP3    H2 7425   2.676   1.693   3.723
 2498TIP3   OH2 7426   2.386   1.233   3.324
 2498TIP3    H1 7427   2.316   1.218   3.387
 2498TIP3    H2 7428   2.461   1.184   3.359
 2499TIP3   OH2 7429   1.815   1.265   3.307
 2499TIP3    H1 7430   1.726   1.290   3.283
 2499TIP3    H2 7431   1.819   1.171   3.287
 2500TIP3   OH2 7432   2.884   1.282   3.527
 2500TIP3    H1 7433   2.856   1.298   3.617
 2500TIP3    H2 7434   2.842   1.199   3.503
 2501TIP3   OH2 7435   3.057   2.987   3.753
 2501TIP3    H1 7436   3.056   3.004   3.659
 2501TIP3    H2 7437   3.136   3.030   3.784
 2502TIP3   OH2 7438   2.002   2.087   4.168
 2502TIP3    H1 7439   2.083   2.111   4.213
 2502TIP3    H2 7440   1.933   2.100   4.233
 2503TIP3   OH2 7441   2.464   1.548   3.432
 2503TIP3    H1 7442   2.527   1.495   3.384
 2503TIP3    H2 7443   2.463   1.511   3.520
 2504TIP3   OH2 7444   2.031   0.987   3.291
 2504TIP3    H1 7445   1.965   0.933   3.336
 2504TIP3    H2 7446   2.110   0.933   3.291
 2505TIP3   OH2 7447   2.438   1.457   3.700
 2505TIP3    H1 7448   2.352   1.492   3.723
 2505TIP3    H2 7449   2.500   1.508   3.754
 2506TIP3   OH2 7450   2.142   1.849   2.812
 2506TIP3    H1 7451   2.089   1.770   2.819
 2506TIP3    H2 7452   2.138   1.888   2.900
 2507TIP3   OH2 7453   3.071   2.057   3.410
 2507TIP3    H1 7454   3.107   2.110   3.338
 2507TIP3    H2 7455   2.988   2.024   3.376
 2508TIP3   OH2 7456   2.630   1.139   2.694
 2508TIP3    H1 7457   2.536   1.123   2.703
 2508TIP3    H2 7458   2.642   1.231   2.716
 2509TIP3   OH2 7459   2.570   2.148   3.824
 2509TIP3    H1 7460   2.636   2.141   3.894
 2509TIP3    H2 7461   2.539   2.239   3.831
 2510TIP3   OH2 7462   2.708   1.391   2.784
 2510TIP3    H1 7463   2.803   1.389   2.796
 2510TIP3    H2 7464   2.694   1.467   2.727
 2511TIP3   OH2 7465   1.857   1.816   3.467
 2511TIP3    H1 7466   1.896   1.802   3.380
 2511TIP3    H2 7467   1.925   1.790   3.528
 2512TIP3   OH2 7468   2.315   1.975   2.641
 2512TIP3    H1 7469   2.278   2.063   2.636
 2512TIP3    H2 7470   2.255   1.927   2.699
 2513TIP3   OH2 7471   1.746   1.759   4.094
 2513TIP3    H1 7472   1.750   1.734   4.187
 2513TIP3    H2 7473   1.670   1.711   4.060
 2514TIP3   OH2 7474   2.493   1.894   4.111
 2514TIP3    H1 7475   2.429   1.846   4.058
 2514TIP3    H2 7476   2.578   1.857   4.085
 2515TIP3   OH2 7477   2.724   2.426   3.711
 2515TIP3    H1 7478   2.629   2.421   3.718
 2515TIP3    H2 7479   2.752   2.470   3.791
 2516TIP3   OH2 7480   3.114   1.484   2.607
 2516TIP3    H1 7481   3.055   1.438   2.548
 2516TIP3    H2 7482   3.123   1.571   2.569
 2517TIP3   OH2 7483   2.851   2.301   2.525
 2517TIP3    H1 7484   2.820   2.227   2.578
 2517TIP3    H2 7485   2.871   2.262   2.440
 2518TIP3   OH2 7486   2.834   1.935   3.311
 2518TIP3    H1 7487   2.747   1.914   3.345
 2518TIP3    H2 7488   2.869   1.851   3.282
 2519TIP3   OH2 7489   1.983   2.172   3.125
 2519TIP3    H1 7490   1.982   2.245   3.064
 2519TIP3    H2 7491   1.895   2.172   3.164
 2520TIP3   OH2 7492   1.551   1.460   2.859
 2520TIP3    H1 7493   1.590   1.546   2.876
 2520TIP3    H2 7494   1.464   1.464   2.899
 2521TIP3   OH2 7495   2.087   1.927   3.061
 2521TIP3    H1 7496   2.059   2.017   3.079
 2521TIP3    H2 7497   2.054   1.876   3.135
 2522TIP3   OH2 7498   2.268   2.493   3.579
 2522TIP3    H1 7499   2.304   2.566   3.529
 2522TIP3    H2 7500   2.342   2.461   3.631
 2523TIP3   OH2 7501   1.899   2.391   2.967
 2523TIP3    H1 7502   1.813   2.398   3.008
 2523TIP3    H2 7503   1.935   2.480   2.972
 2524TIP3   OH2 7504   2.628   2.146   3.555
 2524TIP3    H1 7505   2.604   2.142   3.648
 2524TIP3    H2 7506   2.722   2.126   3.553
 2525TIP3   OH2 7507   2.621   2.035   2.434
 2525TIP3    H1 7508   2.661   2.016   2.519
 2525TIP3    H2 7509   2.533   1.997   2.440
 2526TIP3   OH2 7510   2.872   2.656   3.594
 2526TIP3    H1 7511   2.801   2.592   3.602
 2526TIP3    H2 7512   2.848   2.710   3.519
 2527TIP3   OH2 7513   2.930   2.502   2.226
 2527TIP3    H1 7514   2.958   2.566   2.161
 2527TIP3    H2 7515   2.858   2.544   2.272
 2528TIP3   OH2 7516   1.957   1.278   4.095
 2528TIP3    H1 7517   1.861   1.288   4.098
 2528TIP3    H2 7518   1.977   1.220   4.169
 2529TIP3   OH2 7519   2.786   1.976   2.658
 2529TIP3    H1 7520   2.772   1.900   2.714
 2529TIP3    H2 7521   2.878   1.973   2.635
 2530TIP3   OH2 7522   1.696   2.386   3.738
 2530TIP3    H1 7523   1.750   2.327   3.792
 2530TIP3    H2 7524   1.710   2.473   3.776
 2531TIP3   OH2 7525   1.976   2.009   2.426
 2531TIP3    H1 7526   1.983   1.918   2.397
 2531TIP3    H2 7527   1.959   2.002   2.520
 2532TIP3   OH2 7528   1.922   1.998   2.697
 2532TIP3    H1 7529   2.003   1.977   2.745
 2532TIP3    H2 7530   1.913   2.092   2.706
 2533TIP3   OH2 7531   1.652   1.716   2.914
 2533TIP3    H1 7532   1.588   1.758   2.971
 2533TIP3    H2 7533   1.660   1.776   2.839
 2534TIP3   OH2 7534   2.809   1.334   3.785
 2534TIP3    H1 7535   2.884   1.386   3.815
 2534TIP3    H2 7536   2.803   1.261   3.847
 2535TIP3   OH2 7537   2.695   1.086   2.967
 2535TIP3    H1 7538   2.680   1.106   2.874
 2535TIP3    H2 7539   2.740   1.164   3.001
 2536TIP3   OH2 7540   2.177   2.206   2.642
 2536TIP3    H1 7541   2.091   2.229   2.679
 2536TIP3    H2 7542   2.201   2.283   2.590
 2537TIP3   OH2 7543   2.341   1.317   3.066
 2537TIP3    H1 7544   2.413   1.377   3.046
 2537TIP3    H2 7545   2.355   1.293   3.158
 2538TIP3   OH2 7546   2.642   1.572   3.854
 2538TIP3    H1 7547   2.671   1.623   3.930
 2538TIP3    H2 7548   2.700   1.496   3.852
 2539TIP3   OH2 7549   2.521   0.971   3.148
 2539TIP3    H1 7550   2.547   1.012   3.231
 2539TIP3    H2 7551   2.582   1.005   3.083
 2540TIP3   OH2 7552   1.921   2.274   2.718
 2540TIP3    H1 7553   1.899   2.344   2.656
 2540TIP3    H2 7554   1.911   2.315   2.804
 2541TIP3   OH2 7555   2.037   1.007   2.978
 2541TIP3    H1 7556   2.014   1.002   3.071
 2541TIP3    H2 7557   2.132   1.015   2.977
 2542TIP3   OH2 7558   3.275   1.503   3.849
 2542TIP3    H1 7559   3.180   1.502   3.848
 2542TIP3    H2 7560   3.300   1.512   3.757
 2543TIP3   OH2 7561   2.922   1.676   3.231
 2543TIP3    H1 7562   2.850   1.620   3.259
 2543TIP3    H2 7563   2.998   1.644   3.281
 2544TIP3   OH2 7564   1.645   1.907   2.707
 2544TIP3    H1 7565   1.706   1.980   2.713
 2544TIP3    H2 7566   1.679   1.853   2.635
 2545TIP3   OH2 7567   1.609   1.195   2.805
 2545TIP3    H1 7568   1.603   1.286   2.836
 2545TIP3    H2 7569   1.523   1.178   2.767
 2546TIP3   OH2 7570   2.902   2.646   3.163
 2546TIP3    H1 7571   2.862   2.697   3.093
 2546TIP3    H2 7572   2.996   2.659   3.151
 2547TIP3   OH2 7573   1.974   0.905   3.700
 2547TIP3    H1 7574   1.942   0.875   3.615
 2547TIP3    H2 7575   1.971   0.827   3.756
 2548TIP3   OH2 7576   1.494   2.146   3.097
 2548TIP3    H1 7577   1.451   2.184   3.174
 2548TIP3    H2 7578   1.452   2.190   3.022
 2549TIP3   OH2 7579   1.685   2.687   4.158
 2549TIP3    H1 7580   1.767   2.692   4.207
 2549TIP3    H2 7581   1.666   2.594   4.151
 2550TIP3   OH2 7582   2.153   2.605   4.210
 2550TIP3    H1 7583   2.248   2.596   4.215
 2550TIP3    H2 7584   2.126   2.548   4.138
 2551TIP3   OH2 7585   2.121   2.217   2.327
 2551TIP3    H1 7586   2.077   2.142   2.368
 2551TIP3    H2 7587   2.197   2.179   2.283
 2552TIP3   OH2 7588   2.778   2.541   3.954
 2552TIP3    H1 7589   2.787   2.471   4.018
 2552TIP3    H2 7590   2.855   2.596   3.967
 2553TIP3   OH2 7591   2.569   2.242   2.255
 2553TIP3    H1 7592   2.607   2.176   2.314
 2553TIP3    H2 7593   2.625   2.240   2.178
 2554TIP3   OH2 7594   1.796   2.082   4.358
 2554TIP3    H1 7595   1.813   1.988   4.365
 2554TIP3    H2 7596   1.711   2.088   4.316
 2555TIP3   OH2 7597   1.804   1.734   2.568
 2555TIP3    H1 7598   1.859   1.792   2.622
 2555TIP3    H2 7599   1.854   1.724   2.486
 2556TIP3   OH2 7600   2.416   2.169   4.132
 2556TIP3    H1 7601   2.377   2.192   4.048
 2556TIP3    H2 7602   2.459   2.084   4.116
 2557TIP3   OH2 7603   2.359   1.918   2.379
 2557TIP3    H1 7604   2.331   1.931   2.469
 2557TIP3    H2 7605   2.347   1.824   2.363
 2558TIP3   OH2 7606   2.890   2.196   3.741
 2558TIP3    H1 7607   2.970   2.223   3.695
 2558TIP3    H2 7608   2.832   2.272   3.733
 2559TIP3   OH2 7609   1.917   1.823   4.360
 2559TIP3    H1 7610   1.989   1.821   4.297
 2559TIP3    H2 7611   1.957   1.851   4.442
 2560TIP3   OH2 7612   2.075   1.521   2.808
 2560TIP3    H1 7613   2.023   1.539   2.886
 2560TIP3    H2 7614   2.011   1.506   2.739
 2561TIP3   OH2 7615   2.258   1.697   4.007
 2561TIP3    H1 7616   2.183   1.753   4.022
 2561TIP3    H2 7617   2.302   1.734   3.930
 2562TIP3   OH2 7618   2.781   2.088   4.103
 2562TIP3    H1 7619   2.852   2.060   4.045
 2562TIP3    H2 7620   2.785   2.029   4.177
 2563TIP3   OH2 7621   2.900   1.735   2.291
 2563TIP3    H1 7622   2.886   1.696   2.205
 2563TIP3    H2 7623   2.877   1.828   2.279
 2564TIP3   OH2 7624   2.381   1.485   4.128
 2564TIP3    H1 7625   2.387   1.412   4.066
 2564TIP3    H2 7626   2.343   1.556   4.077
 2565TIP3   OH2 7627   2.389   1.283   3.926
 2565TIP3    H1 7628   2.417   1.323   3.844
 2565TIP3    H2 7629   2.297   1.259   3.911
 2566TIP3   OH2 7630   2.400   1.817   3.809
 2566TIP3    H1 7631   2.489   1.835   3.781
 2566TIP3    H2 7632   2.346   1.879   3.760
 2567TIP3   OH2 7633   2.987   1.756   4.164
 2567TIP3    H1 7634   3.014   1.668   4.187
 2567TIP3    H2 7635   3.052   1.786   4.100
 2568TIP3   OH2 7636   3.024   2.029   3.923
 2568TIP3    H1 7637   2.989   2.091   3.859
 2568TIP3    H2 7638   3.119   2.038   3.916
 2569TIP3   OH2 7639   2.263   1.571   4.369
 2569TIP3    H1 7640   2.194   1.507   4.385
 2569TIP3    H2 7641   2.293   1.552   4.280
 2570TIP3   OH2 7642   2.510   1.050   4.023
 2570TIP3    H1 7643   2.470   1.131   3.990
 2570TIP3    H2 7644   2.443   0.983   4.008
 2571TIP3   OH2 7645   2.642   1.525   4.224
 2571TIP3    H1 7646   2.632   1.514   4.319
 2571TIP3    H2 7647   2.555   1.506   4.189
 2572TIP3   OH2 7648   2.884   1.476   4.082
 2572TIP3    H1 7649   2.807   1.478   4.139
 2572TIP3    H2 7650   2.956   1.453   4.140
 2573TIP3   OH2 7651   3.108   1.441   4.246
 2573TIP3    H1 7652   3.127   1.347   4.251
 2573TIP3    H2 7653   3.109   1.471   4.336
 2574TIP3   OH2 7654   2.097   1.349   4.431
 2574TIP3    H1 7655   2.103   1.261   4.393
 2574TIP3    H2 7656   2.138   1.340   4.517
 2575TIP3   OH2 7657   2.577   1.032   4.288
 2575TIP3    H1 7658   2.647   0.968   4.283
 2575TIP3    H2 7659   2.547   1.042   4.197
 2576TIP3   OH2 7660   2.669   1.246   4.436
 2576TIP3    H1 7661   2.642   1.175   4.378
 2576TIP3    H2 7662   2.598   1.309   4.432
 2577TIP3   OH2 7663   1.917   2.484   2.535
 2577TIP3    H1 7664   2.010   2.475   2.514
 2577TIP3    H2 7665   1.881   2.535   2.462
 2578TIP3   OH2 7666   1.375   1.879   2.728
 2578TIP3    H1 7667   1.468   1.900   2.721
 2578TIP3    H2 7668   1.368   1.792   2.690
 2579TIP3   OH2 7669   1.297   2.466   3.177
 2579TIP3    H1 7670   1.231   2.413   3.132
 2579TIP3    H2 7671   1.342   2.404   3.235
 2580TIP3   OH2 7672   1.439   2.295   3.344
 2580TIP3    H1 7673   1.427   2.229   3.412
 2580TIP3    H2 7674   1.491   2.364   3.387
 2581TIP3   OH2 7675   3.172   2.703   3.153
 2581TIP3    H1 7676   3.192   2.734   3.241
 2581TIP3    H2 7677   3.229   2.754   3.096
 2582TIP3   OH2 7678   3.188   2.742   3.433
 2582TIP3    H1 7679   3.141   2.659   3.426
 2582TIP3    H2 7680   3.257   2.725   3.498
 2583TIP3   OH2 7681   3.211   2.467   3.977
 2583TIP3    H1 7682   3.164   2.445   4.057
 2583TIP3    H2 7683   3.271   2.537   4.002
 2584TIP3   OH2 7684   3.061   1.947   2.619
 2584TIP3    H1 7685   3.119   2.016   2.586
 2584TIP3    H2 7686   3.108   1.908   2.693
 2585TIP3   OH2 7687   3.191   1.807   2.820
 2585TIP3    H1 7688   3.126   1.771   2.880
 2585TIP3    H2 7689   3.259   1.843   2.876
 2586TIP3   OH2 7690   3.236   2.204   3.247
 2586TIP3    H1 7691   3.297   2.139   3.211
 2586TIP3    H2 7692   3.242   2.278   3.186
 2587TIP3   OH2 7693   3.055   2.500   3.435
 2587TIP3    H1 7694   2.988   2.532   3.496
 2587TIP3    H2 7695   3.005   2.453   3.368
 2588TIP3   OH2 7696   3.111   1.721   2.465
 2588TIP3    H1 7697   3.040   1.719   2.401
 2588TIP3    H2 7698   3.093   1.799   2.518
 2589TIP3   OH2 7699   2.945   1.371   2.423
 2589TIP3    H1 7700   2.902   1.411   2.347
 2589TIP3    H2 7701   2.943   1.277   2.404
 2590TIP3   OH2 7702   2.986   1.668   2.961
 2590TIP3    H1 7703   3.004   1.574   2.950
 2590TIP3    H2 7704   2.971   1.678   3.055
 2591TIP3   OH2 7705   1.612   1.724   3.730
 2591TIP3    H1 7706   1.604   1.696   3.639
 2591TIP3    H2 7707   1.707   1.727   3.746
 2592TIP3   OH2 7708   2.921   1.095   2.380
 2592TIP3    H1 7709   2.987   1.076   2.447
 2592TIP3    H2 7710   2.840   1.056   2.414
 2593TIP3   OH2 7711   2.988   1.384   2.841
 2593TIP3    H1 7712   3.035   1.302   2.856
 2593TIP3    H2 7713   3.035   1.425   2.768
 2594TIP3   OH2 7714   3.139   1.558   3.361
 2594TIP3    H1 7715   3.222   1.575   3.317
 2594TIP3    H2 7716   3.151   1.594   3.449
 2595TIP3   OH2 7717   3.211   1.700   3.594
 2595TIP3    H1 7718   3.139   1.729   3.650
 2595TIP3    H2 7719   3.241   1.780   3.550
 2596TIP3   OH2 7720   1.835   1.416   4.371
 2596TIP3    H1 7721   1.930   1.411   4.385
 2596TIP3    H2 7722   1.801   1.336   4.411
 2597TIP3   OH2 7723   3.676   1.297   4.136
 2597TIP3    H1 7724   3.740   1.242   4.090
 2597TIP3    H2 7725   3.634   1.348   4.067
 2598TIP3   OH2 7726   3.098   1.136   2.897
 2598TIP3    H1 7727   3.149   1.119   2.976
 2598TIP3    H2 7728   3.038   1.061   2.892
 2599TIP3   OH2 7729   1.809   1.126   3.721
 2599TIP3    H1 7730   1.863   1.048   3.725
 2599TIP3    H2 7731   1.871   1.198   3.708
 2600TIP3   OH2 7732   1.597   1.396   3.779
 2600TIP3    H1 7733   1.643   1.381   3.696
 2600TIP3    H2 7734   1.620   1.485   3.803
 2601TIP3   OH2 7735   3.524   1.413   3.944
 2601TIP3    H1 7736   3.444   1.461   3.965
 2601TIP3    H2 7737   3.495   1.343   3.886
 2602TIP3   OH2 7738   3.150   1.055   2.527
 2602TIP3    H1 7739   3.198   0.992   2.474
 2602TIP3    H2 7740   3.209   1.130   2.534
 2603TIP3   OH2 7741   1.601   0.929   3.306
 2603TIP3    H1 7742   1.510   0.908   3.329
 2603TIP3    H2 7743   1.594   0.979   3.225
 2604TIP3   OH2 7744   2.729   2.607   2.798
 2604TIP3    H1 7745   2.787   2.600   2.722
 2604TIP3    H2 7746   2.769   2.675   2.852
 2605TIP3   OH2 7747   1.809   0.974   4.096
 2605TIP3    H1 7748   1.758   0.975   4.178
 2605TIP3    H2 7749   1.753   1.017   4.032
 2606TIP3   OH2 7750   1.832   2.400   4.173
 2606TIP3    H1 7751   1.738   2.385   4.168
 2606TIP3    H2 7752   1.850   2.412   4.267
 2607TIP3   OH2 7753   2.040   2.453   3.729
 2607TIP3    H1 7754   1.988   2.527   3.697
 2607TIP3    H2 7755   2.125   2.463   3.685
 2608TIP3   OH2 7756   2.443   2.689   3.865
 2608TIP3    H1 7757   2.481   2.682   3.953
 2608TIP3    H2 7758   2.508   2.739   3.815
 2609TIP3   OH2 7759   2.638   2.837   3.735
 2609TIP3    H1 7760   2.704   2.783   3.692
 2609TIP3    H2 7761   2.688   2.896   3.792
 2610TIP3   OH2 7762   3.432   1.177   3.823
 2610TIP3    H1 7763   3.350   1.178   3.774
 2610TIP3    H2 7764   3.464   1.087   3.813
 2611TIP3   OH2 7765   1.698   2.690   3.774
 2611TIP3    H1 7766   1.607   2.707   3.750
 2611TIP3    H2 7767   1.719   2.757   3.839
 2612TIP3   OH2 7768   1.929   2.682   3.624
 2612TIP3    H1 7769   1.846   2.688   3.671
 2612TIP3    H2 7770   1.908   2.709   3.534
 2613TIP3   OH2 7771   2.348   2.702   3.415
 2613TIP3    H1 7772   2.277   2.716   3.352
 2613TIP3    H2 7773   2.360   2.787   3.457
 2614TIP3   OH2 7774   2.611   2.631   3.461
 2614TIP3    H1 7775   2.520   2.655   3.443
 2614TIP3    H2 7776   2.663   2.700   3.420
 2615TIP3   OH2 7777   2.810   2.808   3.367
 2615TIP3    H1 7778   2.811   2.896   3.329
 2615TIP3    H2 7779   2.842   2.751   3.297
 2616TIP3   OH2 7780   1.612   2.474   3.487
 2616TIP3    H1 7781   1.634   2.451   3.577
 2616TIP3    H2 7782   1.684   2.440   3.434
 2617TIP3   OH2 7783   1.815   2.354   3.351
 2617TIP3    H1 7784   1.826   2.271   3.397
 2617TIP3    H2 7785   1.901   2.396   3.356
 2618TIP3   OH2 7786   2.081   2.442   3.377
 2618TIP3    H1 7787   2.103   2.350   3.364
 2618TIP3    H2 7788   2.135   2.469   3.451
 2619TIP3   OH2 7789   2.586   1.056   3.405
 2619TIP3    H1 7790   2.562   1.003   3.481
 2619TIP3    H2 7791   2.679   1.038   3.391
 2620TIP3   OH2 7792   3.150   0.999   3.336
 2620TIP3    H1 7793   3.200   1.042   3.266
 2620TIP3    H2 7794   3.082   1.062   3.360
 2621TIP3   OH2 7795   3.270   1.084   3.107
 2621TIP3    H1 7796   3.338   1.021   3.084
 2621TIP3    H2 7797   3.309   1.170   3.089
 2622TIP3   OH2 7798   1.883   0.814   3.456
 2622TIP3    H1 7799   1.792   0.786   3.459
 2622TIP3    H2 7800   1.933   0.732   3.453
 2623TIP3   OH2 7801   1.752   0.754   3.142
 2623TIP3    H1 7802   1.739   0.666   3.177
 2623TIP3    H2 7803   1.707   0.811   3.204
 2624TIP3   OH2 7804   2.326   0.863   3.340
 2624TIP3    H1 7805   2.385   0.895   3.272
 2624TIP3    H2 7806   2.373   0.878   3.422
 2625TIP3   OH2 7807   2.845   0.987   3.351
 2625TIP3    H1 7808   2.889   0.965   3.269
 2625TIP3    H2 7809   2.856   0.909   3.406
 2626TIP3   OH2 7810   2.913   0.926   2.894
 2626TIP3    H1 7811   2.833   0.973   2.918
 2626TIP3    H2 7812   2.904   0.840   2.936
 2627TIP3   OH2 7813   1.382   2.272   2.881
 2627TIP3    H1 7814   1.297   2.240   2.849
 2627TIP3    H2 7815   1.385   2.363   2.850
 2628TIP3   OH2 7816   1.786   0.900   2.905
 2628TIP3    H1 7817   1.768   0.840   2.976
 2628TIP3    H2 7818   1.874   0.933   2.922
 2629TIP3   OH2 7819   2.309   1.057   2.983
 2629TIP3    H1 7820   2.372   1.010   3.037
 2629TIP3    H2 7821   2.317   1.148   3.010
 2630TIP3   OH2 7822   2.181   2.435   2.476
 2630TIP3    H1 7823   2.266   2.462   2.439
 2630TIP3    H2 7824   2.150   2.366   2.417
 2631TIP3   OH2 7825   2.883   2.569   2.569
 2631TIP3    H1 7826   2.878   2.474   2.559
 2631TIP3    H2 7827   2.841   2.603   2.490
 2632TIP3   OH2 7828   2.107   1.072   4.347
 2632TIP3    H1 7829   2.075   1.004   4.405
 2632TIP3    H2 7830   2.200   1.081   4.370
 2633TIP3   OH2 7831   2.358   1.083   4.463
 2633TIP3    H1 7832   2.436   1.066   4.409
 2633TIP3    H2 7833   2.356   1.012   4.526
 2634TIP3   OH2 7834   1.489   2.285   2.534
 2634TIP3    H1 7835   1.484   2.302   2.628
 2634TIP3    H2 7836   1.571   2.238   2.523
 2635TIP3   OH2 7837   3.181   1.172   4.255
 2635TIP3    H1 7838   3.200   1.141   4.343
 2635TIP3    H2 7839   3.266   1.166   4.209
 2636TIP3   OH2 7840   3.097   2.713   3.753
 2636TIP3    H1 7841   3.021   2.682   3.704
 2636TIP3    H2 7842   3.082   2.807   3.764
 2637TIP3   OH2 7843   4.343   2.057   2.918
 2637TIP3    H1 7844   4.397   2.051   2.997
 2637TIP3    H2 7845   4.307   1.969   2.907
 2638TIP3   OH2 7846   3.675   1.965   3.272
 2638TIP3    H1 7847   3.702   1.886   3.317
 2638TIP3    H2 7848   3.720   2.036   3.318
 2639TIP3   OH2 7849   4.516   2.362   2.653
 2639TIP3    H1 7850   4.570   2.302   2.705
 2639TIP3    H2 7851   4.573   2.437   2.637
 2640TIP3   OH2 7852   3.658   2.374   2.962
 2640TIP3    H1 7853   3.639   2.281   2.973
 2640TIP3    H2 7854   3.754   2.378   2.955
 2641TIP3   OH2 7855   3.350   1.584   2.741
 2641TIP3    H1 7856   3.310   1.668   2.765
 2641TIP3    H2 7857   3.278   1.533   2.704
 2642TIP3   OH2 7858   3.424   1.886   2.954
 2642TIP3    H1 7859   3.474   1.809   2.983
 2642TIP3    H2 7860   3.491   1.950   2.930
 2643TIP3   OH2 7861   4.294   2.828   2.619
 2643TIP3    H1 7862   4.320   2.755   2.563
 2643TIP3    H2 7863   4.287   2.790   2.706
 2644TIP3   OH2 7864   4.270   2.303   2.825
 2644TIP3    H1 7865   4.275   2.211   2.851
 2644TIP3    H2 7866   4.309   2.350   2.898
 2645TIP3   OH2 7867   5.211   1.628   2.943
 2645TIP3    H1 7868   5.230   1.711   2.989
 2645TIP3    H2 7869   5.237   1.644   2.853
 2646TIP3   OH2 7870   4.589   1.799   2.958
 2646TIP3    H1 7871   4.624   1.716   2.989
 2646TIP3    H2 7872   4.547   1.779   2.875
 2647TIP3   OH2 7873   3.945   1.460   2.922
 2647TIP3    H1 7874   3.921   1.534   2.865
 2647TIP3    H2 7875   3.889   1.388   2.892
 2648TIP3   OH2 7876   4.646   1.552   2.555
 2648TIP3    H1 7877   4.709   1.545   2.627
 2648TIP3    H2 7878   4.697   1.588   2.482
 2649TIP3   OH2 7879   3.564   1.668   3.054
 2649TIP3    H1 7880   3.647   1.649   3.098
 2649TIP3    H2 7881   3.569   1.618   2.972
 2650TIP3   OH2 7882   4.005   1.872   2.831
 2650TIP3    H1 7883   4.094   1.844   2.852
 2650TIP3    H2 7884   3.960   1.791   2.807
 2651TIP3   OH2 7885   5.271   1.845   3.110
 2651TIP3    H1 7886   5.183   1.882   3.106
 2651TIP3    H2 7887   5.309   1.881   3.190
 2652TIP3   OH2 7888   3.912   1.439   3.368
 2652TIP3    H1 7889   3.866   1.485   3.298
 2652TIP3    H2 7890   3.860   1.456   3.447
 2653TIP3   OH2 7891   4.229   2.318   2.485
 2653TIP3    H1 7892   4.219   2.253   2.416
 2653TIP3    H2 7893   4.185   2.396   2.452
 2654TIP3   OH2 7894   4.024   2.246   3.135
 2654TIP3    H1 7895   3.957   2.292   3.185
 2654TIP3    H2 7896   4.063   2.314   3.079
 2655TIP3   OH2 7897   4.805   1.575   2.775
 2655TIP3    H1 7898   4.761   1.555   2.858
 2655TIP3    H2 7899   4.862   1.649   2.796
 2656TIP3   OH2 7900   3.810   1.563   3.144
 2656TIP3    H1 7901   3.863   1.639   3.169
 2656TIP3    H2 7902   3.859   1.523   3.072
 2657TIP3   OH2 7903   3.856   2.429   3.256
 2657TIP3    H1 7904   3.840   2.517   3.223
 2657TIP3    H2 7905   3.783   2.412   3.315
 2658TIP3   OH2 7906   3.234   2.133   2.500
 2658TIP3    H1 7907   3.201   2.152   2.412
 2658TIP3    H2 7908   3.259   2.218   2.536
 2659TIP3   OH2 7909   4.669   2.637   2.737
 2659TIP3    H1 7910   4.581   2.631   2.774
 2659TIP3    H2 7911   4.670   2.721   2.690
 2660TIP3   OH2 7912   5.009   1.515   3.108
 2660TIP3    H1 7913   4.923   1.542   3.075
 2660TIP3    H2 7914   5.071   1.545   3.042
 2661TIP3   OH2 7915   4.293   1.176   3.095
 2661TIP3    H1 7916   4.258   1.090   3.070
 2661TIP3    H2 7917   4.224   1.217   3.146
 2662TIP3   OH2 7918   4.396   2.665   2.410
 2662TIP3    H1 7919   4.400   2.630   2.321
 2662TIP3    H2 7920   4.437   2.752   2.404
 2663TIP3   OH2 7921   4.908   2.538   3.084
 2663TIP3    H1 7922   4.900   2.463   3.026
 2663TIP3    H2 7923   4.894   2.614   3.028
 2664TIP3   OH2 7924   4.214   1.957   2.356
 2664TIP3    H1 7925   4.128   1.993   2.337
 2664TIP3    H2 7926   4.258   1.951   2.271
 2665TIP3   OH2 7927   4.179   1.741   2.057
 2665TIP3    H1 7928   4.243   1.795   2.103
 2665TIP3    H2 7929   4.231   1.674   2.013
 2666TIP3   OH2 7930   5.104   2.181   2.947
 2666TIP3    H1 7931   5.022   2.232   2.950
 2666TIP3    H2 7932   5.140   2.199   2.860
 2667TIP3   OH2 7933   4.565   2.028   2.323
 2667TIP3    H1 7934   4.525   2.073   2.398
 2667TIP3    H2 7935   4.647   1.992   2.357
 2668TIP3   OH2 7936   4.788   2.050   3.252
 2668TIP3    H1 7937   4.789   2.133   3.299
 2668TIP3    H2 7938   4.706   2.051   3.203
 2669TIP3   OH2 7939   3.768   1.992   2.742
 2669TIP3    H1 7940   3.740   1.946   2.663
 2669TIP3    H2 7941   3.854   1.955   2.762
 2670TIP3   OH2 7942   3.923   2.423   2.849
 2670TIP3    H1 7943   3.873   2.421   2.767
 2670TIP3    H2 7944   4.001   2.371   2.831
 2671TIP3   OH2 7945   3.926   1.989   3.073
 2671TIP3    H1 7946   3.956   1.963   2.986
 2671TIP3    H2 7947   3.963   2.077   3.086
 2672TIP3   OH2 7948   4.424   2.616   2.862
 2672TIP3    H1 7949   4.420   2.703   2.902
 2672TIP3    H2 7950   4.423   2.556   2.936
 2673TIP3   OH2 7951   4.058   2.533   3.415
 2673TIP3    H1 7952   4.000   2.592   3.463
 2673TIP3    H2 7953   3.999   2.481   3.360
 2674TIP3   OH2 7954   4.399   1.888   2.149
 2674TIP3    H1 7955   4.456   1.947   2.198
 2674TIP3    H2 7956   4.424   1.899   2.058
 2675TIP3   OH2 7957   3.798   2.086   3.500
 2675TIP3    H1 7958   3.816   2.173   3.536
 2675TIP3    H2 7959   3.711   2.064   3.532
 2676TIP3   OH2 7960   4.137   2.562   2.414
 2676TIP3    H1 7961   4.220   2.609   2.406
 2676TIP3    H2 7962   4.076   2.615   2.362
 2677TIP3   OH2 7963   3.848   2.693   3.501
 2677TIP3    H1 7964   3.824   2.701   3.408
 2677TIP3    H2 7965   3.765   2.679   3.546
 2678TIP3   OH2 7966   4.903   1.108   2.198
 2678TIP3    H1 7967   4.827   1.128   2.252
 2678TIP3    H2 7968   4.913   1.185   2.142
 2679TIP3   OH2 7969   3.664   1.852   2.511
 2679TIP3    H1 7970   3.584   1.896   2.481
 2679TIP3    H2 7971   3.634   1.765   2.540
 2680TIP3   OH2 7972   4.701   2.493   1.695
 2680TIP3    H1 7973   4.701   2.588   1.701
 2680TIP3    H2 7974   4.792   2.468   1.711
 2681TIP3   OH2 7975   3.448   2.249   3.437
 2681TIP3    H1 7976   3.367   2.230   3.390
 2681TIP3    H2 7977   3.466   2.170   3.488
 2682TIP3   OH2 7978   3.291   2.436   3.091
 2682TIP3    H1 7979   3.385   2.449   3.100
 2682TIP3    H2 7980   3.253   2.514   3.132
 2683TIP3   OH2 7981   5.145   2.888   3.148
 2683TIP3    H1 7982   5.150   2.794   3.165
 2683TIP3    H2 7983   5.065   2.916   3.193
 2684TIP3   OH2 7984   4.245   2.676   3.273
 2684TIP3    H1 7985   4.242   2.767   3.303
 2684TIP3    H2 7986   4.178   2.632   3.325
 2685TIP3   OH2 7987   4.005   2.753   2.247
 2685TIP3    H1 7988   3.999   2.743   2.152
 2685TIP3    H2 7989   3.988   2.846   2.263
 2686TIP3   OH2 7990   3.463   2.631   2.607
 2686TIP3    H1 7991   3.508   2.623   2.690
 2686TIP3    H2 7992   3.415   2.548   2.597
 2687TIP3   OH2 7993   4.233   2.690   1.846
 2687TIP3    H1 7994   4.276   2.618   1.800
 2687TIP3    H2 7995   4.283   2.700   1.927
 2688TIP3   OH2 7996   5.036   2.008   3.423
 2688TIP3    H1 7997   4.952   2.016   3.378
 2688TIP3    H2 7998   5.055   1.914   3.420
 2689TIP3   OH2 7999   3.652   2.428   3.437
 2689TIP3    H1 8000   3.694   2.410   3.521
 2689TIP3    H2 8001   3.576   2.369   3.435
 2690TIP3   OH2 8002   4.067   1.249   3.234
 2690TIP3    H1 8003   4.015   1.189   3.180
 2690TIP3    H2 8004   4.003   1.312   3.269
 2691TIP3   OH2 8005   4.573   1.358   3.426
 2691TIP3    H1 8006   4.641   1.335   3.489
 2691TIP3    H2 8007   4.491   1.345   3.473
 2692TIP3   OH2 8008   4.791   1.784   3.340
 2692TIP3    H1 8009   4.751   1.780   3.426
 2692TIP3    H2 8010   4.776   1.874   3.310
 2693TIP3   OH2 8011   4.474   1.884   1.886
 2693TIP3    H1 8012   4.437   1.882   1.797
 2693TIP3    H2 8013   4.548   1.944   1.878
 2694TIP3   OH2 8014   4.182   1.293   2.209
 2694TIP3    H1 8015   4.150   1.293   2.299
 2694TIP3    H2 8016   4.144   1.214   2.169
 2695TIP3   OH2 8017   3.963   1.774   3.238
 2695TIP3    H1 8018   3.913   1.785   3.318
 2695TIP3    H2 8019   3.946   1.853   3.187
 2696TIP3   OH2 8020   3.850   1.656   2.755
 2696TIP3    H1 8021   3.761   1.635   2.783
 2696TIP3    H2 8022   3.858   1.616   2.668
 2697TIP3   OH2 8023   4.328   1.741   2.489
 2697TIP3    H1 8024   4.285   1.818   2.453
 2697TIP3    H2 8025   4.383   1.708   2.417
 2698TIP3   OH2 8026   4.512   1.996   3.560
 2698TIP3    H1 8027   4.486   1.926   3.620
 2698TIP3    H2 8028   4.604   2.013   3.581
 2699TIP3   OH2 8029   4.501   1.736   2.707
 2699TIP3    H1 8030   4.429   1.755   2.646
 2699TIP3    H2 8031   4.548   1.663   2.667
 2700TIP3   OH2 8032   3.788   1.776   3.452
 2700TIP3    H1 8033   3.784   1.842   3.521
 2700TIP3    H2 8034   3.778   1.693   3.497
 2701TIP3   OH2 8035   3.839   1.263   2.175
 2701TIP3    H1 8036   3.830   1.268   2.270
 2701TIP3    H2 8037   3.764   1.311   2.141
 2702TIP3   OH2 8038   3.404   1.301   3.018
 2702TIP3    H1 8039   3.468   1.338   3.079
 2702TIP3    H2 8040   3.457   1.258   2.951
 2703TIP3   OH2 8041   3.305   1.288   2.546
 2703TIP3    H1 8042   3.352   1.322   2.470
 2703TIP3    H2 8043   3.244   1.358   2.570
 2704TIP3   OH2 8044   4.530   2.004   3.125
 2704TIP3    H1 8045   4.557   1.934   3.065
 2704TIP3    H2 8046   4.490   1.958   3.199
 2705TIP3   OH2 8047   4.208   1.451   2.809
 2705TIP3    H1 8048   4.130   1.454   2.864
 2705TIP3    H2 8049   4.280   1.439   2.871
 2706TIP3   OH2 8050   3.611   1.535   2.818
 2706TIP3    H1 8051   3.522   1.537   2.783
 2706TIP3    H2 8052   3.642   1.445   2.801
 2707TIP3   OH2 8053   3.868   1.523   2.516
 2707TIP3    H1 8054   3.962   1.539   2.503
 2707TIP3    H2 8055   3.829   1.544   2.431
 2708TIP3   OH2 8056   4.662   1.535   3.012
 2708TIP3    H1 8057   4.644   1.550   3.105
 2708TIP3    H2 8058   4.593   1.476   2.983
 2709TIP3   OH2 8059   3.749   1.557   2.274
 2709TIP3    H1 8060   3.683   1.510   2.223
 2709TIP3    H2 8061   3.804   1.600   2.208
 2710TIP3   OH2 8062   4.858   3.234   3.240
 2710TIP3    H1 8063   4.855   3.255   3.147
 2710TIP3    H2 8064   4.936   3.280   3.272
 2711TIP3   OH2 8065   3.802   2.318   3.661
 2711TIP3    H1 8066   3.875   2.357   3.709
 2711TIP3    H2 8067   3.772   2.247   3.717
 2712TIP3   OH2 8068   4.257   1.789   2.918
 2712TIP3    H1 8069   4.317   1.726   2.877
 2712TIP3    H2 8070   4.250   1.759   3.009
 2713TIP3   OH2 8071   3.759   1.292   2.794
 2713TIP3    H1 8072   3.720   1.224   2.848
 2713TIP3    H2 8073   3.791   1.246   2.716
 2714TIP3   OH2 8074   4.231   1.719   3.187
 2714TIP3    H1 8075   4.143   1.750   3.210
 2714TIP3    H2 8076   4.290   1.774   3.239
 2715TIP3   OH2 8077   3.961   2.079   2.308
 2715TIP3    H1 8078   3.894   2.019   2.275
 2715TIP3    H2 8079   3.927   2.107   2.393
 2716TIP3   OH2 8080   4.873   2.329   2.908
 2716TIP3    H1 8081   4.910   2.378   2.834
 2716TIP3    H2 8082   4.795   2.286   2.872
 2717TIP3   OH2 8083   4.431   1.400   2.185
 2717TIP3    H1 8084   4.339   1.376   2.193
 2717TIP3    H2 8085   4.434   1.493   2.208
 2718TIP3   OH2 8086   4.357   2.401   3.308
 2718TIP3    H1 8087   4.408   2.387   3.388
 2718TIP3    H2 8088   4.322   2.490   3.317
 2719TIP3   OH2 8089   4.493   1.656   2.274
 2719TIP3    H1 8090   4.588   1.659   2.284
 2719TIP3    H2 8091   4.472   1.734   2.223
 2720TIP3   OH2 8092   3.652   2.083   2.975
 2720TIP3    H1 8093   3.694   2.059   2.893
 2720TIP3    H2 8094   3.707   2.045   3.043
 2721TIP3   OH2 8095   4.115   2.218   2.124
 2721TIP3    H1 8096   4.078   2.305   2.130
 2721TIP3    H2 8097   4.063   2.165   2.185
 2722TIP3   OH2 8098   3.540   2.026   3.594
 2722TIP3    H1 8099   3.541   2.038   3.689
 2722TIP3    H2 8100   3.462   1.974   3.577
 2723TIP3   OH2 8101   4.276   2.147   3.601
 2723TIP3    H1 8102   4.206   2.088   3.573
 2723TIP3    H2 8103   4.357   2.105   3.573
 2724TIP3   OH2 8104   4.515   2.679   3.194
 2724TIP3    H1 8105   4.420   2.674   3.205
 2724TIP3    H2 8106   4.546   2.724   3.273
 2725TIP3   OH2 8107   4.914   1.728   2.089
 2725TIP3    H1 8108   4.859   1.681   2.027
 2725TIP3    H2 8109   4.921   1.817   2.053
 2726TIP3   OH2 8110   5.158   2.601   3.177
 2726TIP3    H1 8111   5.063   2.593   3.169
 2726TIP3    H2 8112   5.191   2.576   3.091
 2727TIP3   OH2 8113   4.649   2.177   2.813
 2727TIP3    H1 8114   4.586   2.147   2.878
 2727TIP3    H2 8115   4.683   2.096   2.774
 2728TIP3   OH2 8116   3.783   2.431   2.616
 2728TIP3    H1 8117   3.774   2.506   2.558
 2728TIP3    H2 8118   3.699   2.385   2.608
 2729TIP3   OH2 8119   3.344   1.712   2.314
 2729TIP3    H1 8120   3.387   1.795   2.336
 2729TIP3    H2 8121   3.265   1.712   2.368
 2730TIP3   OH2 8122   4.063   2.747   3.065
 2730TIP3    H1 8123   4.098   2.821   3.016
 2730TIP3    H2 8124   4.136   2.720   3.122
 2731TIP3   OH2 8125   3.696   2.648   2.459
 2731TIP3    H1 8126   3.610   2.655   2.500
 2731TIP3    H2 8127   3.731   2.737   2.463
 2732TIP3   OH2 8128   4.422   2.394   3.041
 2732TIP3    H1 8129   4.387   2.392   3.130
 2732TIP3    H2 8130   4.516   2.380   3.052
 2733TIP3   OH2 8131   4.404   2.278   1.917
 2733TIP3    H1 8132   4.466   2.243   1.980
 2733TIP3    H2 8133   4.319   2.268   1.960
 2734TIP3   OH2 8134   4.666   2.914   3.076
 2734TIP3    H1 8135   4.590   2.855   3.081
 2734TIP3    H2 8136   4.644   2.973   3.004
 2735TIP3   OH2 8137   4.731   2.767   1.712
 2735TIP3    H1 8138   4.782   2.840   1.676
 2735TIP3    H2 8139   4.656   2.809   1.754
 2736TIP3   OH2 8140   3.757   1.525   3.582
 2736TIP3    H1 8141   3.663   1.531   3.596
 2736TIP3    H2 8142   3.791   1.480   3.659
 2737TIP3   OH2 8143   4.592   2.156   2.079
 2737TIP3    H1 8144   4.583   2.122   2.168
 2737TIP3    H2 8145   4.685   2.179   2.071
 2738TIP3   OH2 8146   3.487   2.643   3.229
 2738TIP3    H1 8147   3.533   2.579   3.284
 2738TIP3    H2 8148   3.501   2.727   3.272
 2739TIP3   OH2 8149   3.758   2.266   1.914
 2739TIP3    H1 8150   3.774   2.175   1.888
 2739TIP3    H2 8151   3.737   2.260   2.007
 2740TIP3   OH2 8152   3.704   2.278   2.186
 2740TIP3    H1 8153   3.792   2.260   2.221
 2740TIP3    H2 8154   3.696   2.373   2.191
 2741TIP3   OH2 8155   3.435   1.964   2.401
 2741TIP3    H1 8156   3.370   2.009   2.454
 2741TIP3    H2 8157   3.452   2.025   2.329
 2742TIP3   OH2 8158   4.604   1.588   3.274
 2742TIP3    H1 8159   4.679   1.635   3.310
 2742TIP3    H2 8160   4.593   1.512   3.331
 2743TIP3   OH2 8161   4.499   1.341   2.453
 2743TIP3    H1 8162   4.477   1.363   2.362
 2743TIP3    H2 8163   4.542   1.420   2.487
 2744TIP3   OH2 8164   3.973   2.449   2.148
 2744TIP3    H1 8165   3.888   2.484   2.173
 2744TIP3    H2 8166   4.021   2.524   2.113
 2745TIP3   OH2 8167   4.148   1.538   2.551
 2745TIP3    H1 8168   4.207   1.610   2.529
 2745TIP3    H2 8169   4.166   1.519   2.643
 2746TIP3   OH2 8170   4.445   1.841   3.330
 2746TIP3    H1 8171   4.466   1.884   3.412
 2746TIP3    H2 8172   4.491   1.757   3.334
 2747TIP3   OH2 8173   4.322   1.244   2.641
 2747TIP3    H1 8174   4.304   1.318   2.699
 2747TIP3    H2 8175   4.387   1.276   2.580
 2748TIP3   OH2 8176   3.720   2.548   2.203
 2748TIP3    H1 8177   3.704   2.620   2.142
 2748TIP3    H2 8178   3.712   2.588   2.290
 2749TIP3   OH2 8179   3.822   1.250   2.452
 2749TIP3    H1 8180   3.804   1.339   2.483
 2749TIP3    H2 8181   3.917   1.240   2.462
 2750TIP3   OH2 8182   5.058   1.737   3.328
 2750TIP3    H1 8183   4.963   1.742   3.337
 2750TIP3    H2 8184   5.072   1.685   3.249
 2751TIP3   OH2 8185   4.724   1.924   2.712
 2751TIP3    H1 8186   4.649   1.866   2.726
 2751TIP3    H2 8187   4.794   1.886   2.765
 2752TIP3   OH2 8188   3.456   2.147   2.189
 2752TIP3    H1 8189   3.525   2.213   2.198
 2752TIP3    H2 8190   3.491   2.084   2.126
 2753TIP3   OH2 8191   3.372   1.434   2.324
 2753TIP3    H1 8192   3.383   1.530   2.327
 2753TIP3    H2 8193   3.326   1.418   2.242
 2754TIP3   OH2 8194   4.700   2.901   2.650
 2754TIP3    H1 8195   4.660   2.962   2.588
 2754TIP3    H2 8196   4.794   2.913   2.638
 2755TIP3   OH2 8197   3.288   2.403   2.582
 2755TIP3    H1 8198   3.247   2.441   2.659
 2755TIP3    H2 8199   3.246   2.447   2.508
 2756TIP3   OH2 8200   3.487   2.948   3.646
 2756TIP3    H1 8201   3.567   2.958   3.697
 2756TIP3    H2 8202   3.479   2.854   3.632
 2757TIP3   OH2 8203   3.949   2.861   3.696
 2757TIP3    H1 8204   4.043   2.844   3.703
 2757TIP3    H2 8205   3.920   2.804   3.625
 2758TIP3   OH2 8206   3.924   2.462   1.815
 2758TIP3    H1 8207   3.876   2.391   1.857
 2758TIP3    H2 8208   4.000   2.419   1.775
 2759TIP3   OH2 8209   4.582   2.795   3.434
 2759TIP3    H1 8210   4.588   2.727   3.501
 2759TIP3    H2 8211   4.655   2.854   3.452
 2760TIP3   OH2 8212   4.375   2.487   1.729
 2760TIP3    H1 8213   4.403   2.436   1.805
 2760TIP3    H2 8214   4.452   2.491   1.672
 2761TIP3   OH2 8215   3.587   1.959   2.042
 2761TIP3    H1 8216   3.640   1.933   2.118
 2761TIP3    H2 8217   3.651   1.974   1.973
 2762TIP3   OH2 8218   4.210   2.424   3.619
 2762TIP3    H1 8219   4.165   2.445   3.537
 2762TIP3    H2 8220   4.242   2.335   3.606
 2763TIP3   OH2 8221   4.099   2.174   1.853
 2763TIP3    H1 8222   4.098   2.185   1.948
 2763TIP3    H2 8223   4.102   2.079   1.840
 2764TIP3   OH2 8224   4.678   2.451   3.209
 2764TIP3    H1 8225   4.759   2.487   3.173
 2764TIP3    H2 8226   4.617   2.525   3.209
 2765TIP3   OH2 8227   3.762   2.097   3.819
 2765TIP3    H1 8228   3.823   2.024   3.819
 2765TIP3    H2 8229   3.755   2.123   3.911
 2766TIP3   OH2 8230   3.766   1.893   2.250
 2766TIP3    H1 8231   3.737   1.862   2.335
 2766TIP3    H2 8232   3.810   1.818   2.211
 2767TIP3   OH2 8233   4.065   1.976   3.496
 2767TIP3    H1 8234   3.977   2.011   3.495
 2767TIP3    H2 8235   4.102   2.001   3.412
 2768TIP3   OH2 8236   3.907   1.703   2.105
 2768TIP3    H1 8237   3.879   1.716   2.014
 2768TIP3    H2 8238   4.002   1.711   2.101
 2769TIP3   OH2 8239   4.569   2.348   3.595
 2769TIP3    H1 8240   4.643   2.312   3.546
 2769TIP3    H2 8241   4.565   2.293   3.674
 2770TIP3   OH2 8242   4.713   2.005   1.769
 2770TIP3    H1 8243   4.689   1.963   1.687
 2770TIP3    H2 8244   4.681   2.095   1.760
 2771TIP3   OH2 8245   4.171   1.745   3.608
 2771TIP3    H1 8246   4.169   1.672   3.547
 2771TIP3    H2 8247   4.134   1.819   3.559
 2772TIP3   OH2 8248   4.170   1.538   3.411
 2772TIP3    H1 8249   4.198   1.574   3.326
 2772TIP3    H2 8250   4.083   1.502   3.395
 2773TIP3   OH2 8251   4.191   2.072   3.274
 2773TIP3    H1 8252   4.278   2.111   3.269
 2773TIP3    H2 8253   4.134   2.132   3.225
 2774TIP3   OH2 8254   4.780   2.030   3.661
 2774TIP3    H1 8255   4.825   1.946   3.671
 2774TIP3    H2 8256   4.851   2.093   3.651
 2775TIP3   OH2 8257   4.816   2.294   3.390
 2775TIP3    H1 8258   4.759   2.350   3.337
 2775TIP3    H2 8259   4.904   2.313   3.359
 2776TIP3   OH2 8260   4.056   1.829   3.853
 2776TIP3    H1 8261   3.987   1.766   3.875
 2776TIP3    H2 8262   4.084   1.805   3.765
 2777TIP3   OH2 8263   4.308   1.312   3.508
 2777TIP3    H1 8264   4.263   1.390   3.476
 2777TIP3    H2 8265   4.245   1.241   3.497
 2778TIP3   OH2 8266   4.429   1.781   3.709
 2778TIP3    H1 8267   4.419   1.769   3.804
 2778TIP3    H2 8268   4.343   1.761   3.673
 2779TIP3   OH2 8269   4.675   1.736   3.578
 2779TIP3    H1 8270   4.597   1.736   3.633
 2779TIP3    H2 8271   4.746   1.713   3.637
 2780TIP3   OH2 8272   4.912   1.701   3.728
 2780TIP3    H1 8273   4.926   1.607   3.737
 2780TIP3    H2 8274   4.907   1.733   3.818
 2781TIP3   OH2 8275   3.892   1.609   3.919
 2781TIP3    H1 8276   3.896   1.521   3.884
 2781TIP3    H2 8277   3.929   1.602   4.007
 2782TIP3   OH2 8278   4.376   1.289   3.774
 2782TIP3    H1 8279   4.444   1.221   3.767
 2782TIP3    H2 8280   4.345   1.300   3.684
 2783TIP3   OH2 8281   4.467   1.505   3.918
 2783TIP3    H1 8282   4.438   1.433   3.863
 2783TIP3    H2 8283   4.394   1.567   3.917
 2784TIP3   OH2 8284   3.721   2.753   2.017
 2784TIP3    H1 8285   3.814   2.737   2.001
 2784TIP3    H2 8286   3.690   2.798   1.939
 2785TIP3   OH2 8287   3.183   2.133   2.211
 2785TIP3    H1 8288   3.277   2.148   2.204
 2785TIP3    H2 8289   3.169   2.046   2.174
 2786TIP3   OH2 8290   3.090   2.721   2.665
 2786TIP3    H1 8291   3.026   2.668   2.619
 2786TIP3    H2 8292   3.135   2.660   2.723
 2787TIP3   OH2 8293   3.233   2.552   2.832
 2787TIP3    H1 8294   3.225   2.485   2.899
 2787TIP3    H2 8295   3.284   2.622   2.874
 2788TIP3   OH2 8296   4.972   2.954   2.644
 2788TIP3    H1 8297   4.988   2.984   2.733
 2788TIP3    H2 8298   5.021   3.014   2.588
 2789TIP3   OH2 8299   4.985   2.993   2.924
 2789TIP3    H1 8300   4.939   2.909   2.920
 2789TIP3    H2 8301   5.056   2.978   2.986
 2790TIP3   OH2 8302   5.036   2.688   3.494
 2790TIP3    H1 8303   4.966   2.697   3.558
 2790TIP3    H2 8304   5.083   2.771   3.497
 2791TIP3   OH2 8305   4.873   2.188   2.098
 2791TIP3    H1 8306   4.926   2.264   2.074
 2791TIP3    H2 8307   4.916   2.153   2.176
 2792TIP3   OH2 8308   4.996   2.056   2.309
 2792TIP3    H1 8309   4.930   2.019   2.368
 2792TIP3    H2 8310   5.061   2.095   2.367
 2793TIP3   OH2 8311   5.038   2.464   2.734
 2793TIP3    H1 8312   5.095   2.398   2.694
 2793TIP3    H2 8313   5.043   2.539   2.675
 2794TIP3   OH2 8314   4.842   2.754   2.927
 2794TIP3    H1 8315   4.775   2.799   2.979
 2794TIP3    H2 8316   4.794   2.712   2.856
 2795TIP3   OH2 8317   4.918   1.960   1.946
 2795TIP3    H1 8318   4.848   1.968   1.880
 2795TIP3    H2 8319   4.910   2.040   1.999
 2796TIP3   OH2 8320   4.768   1.619   1.885
 2796TIP3    H1 8321   4.719   1.662   1.815
 2796TIP3    H2 8322   4.758   1.525   1.867
 2797TIP3   OH2 8323   4.788   1.916   2.444
 2797TIP3    H1 8324   4.797   1.823   2.426
 2797TIP3    H2 8325   4.774   1.922   2.538
 2798TIP3   OH2 8326   3.410   1.989   3.209
 2798TIP3    H1 8327   3.401   1.957   3.119
 2798TIP3    H2 8328   3.504   1.993   3.224
 2799TIP3   OH2 8329   5.076   2.344   3.303
 2799TIP3    H1 8330   5.140   2.275   3.287
 2799TIP3    H2 8331   5.105   2.418   3.248
 2800TIP3   OH2 8332   5.245   2.128   3.294
 2800TIP3    H1 8333   5.173   2.087   3.342
 2800TIP3    H2 8334   5.321   2.073   3.314
 2801TIP3   OH2 8335   4.723   1.346   1.849
 2801TIP3    H1 8336   4.783   1.326   1.921
 2801TIP3    H2 8337   4.638   1.315   1.880
 2802TIP3   OH2 8338   4.786   1.644   2.327
 2802TIP3    H1 8339   4.830   1.560   2.340
 2802TIP3    H2 8340   4.829   1.681   2.250
 2803TIP3   OH2 8341   4.939   1.809   2.849
 2803TIP3    H1 8342   5.021   1.828   2.802
 2803TIP3    H2 8343   4.952   1.847   2.936
 2804TIP3   OH2 8344   5.010   1.956   3.078
 2804TIP3    H1 8345   4.939   1.986   3.135
 2804TIP3    H2 8346   5.044   2.036   3.037
 2805TIP3   OH2 8347   3.629   1.646   3.835
 2805TIP3    H1 8348   3.720   1.657   3.864
 2805TIP3    H2 8349   3.596   1.573   3.886
 2806TIP3   OH2 8350   5.469   1.560   3.618
 2806TIP3    H1 8351   5.533   1.501   3.580
 2806TIP3    H2 8352   5.434   1.609   3.544
 2807TIP3   OH2 8353   4.897   1.393   2.378
 2807TIP3    H1 8354   4.943   1.380   2.460
 2807TIP3    H2 8355   4.836   1.320   2.372
 2808TIP3   OH2 8356   3.599   1.373   3.203
 2808TIP3    H1 8357   3.649   1.294   3.225
 2808TIP3    H2 8358   3.665   1.440   3.186
 2809TIP3   OH2 8359   3.383   1.641   3.268
 2809TIP3    H1 8360   3.437   1.637   3.190
 2809TIP3    H2 8361   3.406   1.725   3.309
 2810TIP3   OH2 8362   5.323   1.679   3.421
 2810TIP3    H1 8363   5.244   1.719   3.458
 2810TIP3    H2 8364   5.290   1.606   3.368
 2811TIP3   OH2 8365   4.944   1.310   2.015
 2811TIP3    H1 8366   4.988   1.246   1.958
 2811TIP3    H2 8367   5.005   1.384   2.019
 2812TIP3   OH2 8368   3.355   1.127   2.762
 2812TIP3    H1 8369   3.273   1.134   2.810
 2812TIP3    H2 8370   3.349   1.195   2.694
 2813TIP3   OH2 8371   4.486   2.912   2.301
 2813TIP3    H1 8372   4.466   2.848   2.232
 2813TIP3    H2 8373   4.563   2.958   2.270
 2814TIP3   OH2 8374   3.599   1.226   3.597
 2814TIP3    H1 8375   3.549   1.216   3.678
 2814TIP3    H2 8376   3.537   1.264   3.535
 2815TIP3   OH2 8377   3.614   2.675   3.659
 2815TIP3    H1 8378   3.524   2.644   3.651
 2815TIP3    H2 8379   3.633   2.669   3.753
 2816TIP3   OH2 8380   3.835   2.704   3.215
 2816TIP3    H1 8381   3.782   2.778   3.184
 2816TIP3    H2 8382   3.919   2.714   3.171
 2817TIP3   OH2 8383   4.241   2.943   3.351
 2817TIP3    H1 8384   4.278   2.935   3.438
 2817TIP3    H2 8385   4.305   2.996   3.302
 2818TIP3   OH2 8386   4.434   3.093   3.222
 2818TIP3    H1 8387   4.502   3.042   3.178
 2818TIP3    H2 8388   4.482   3.152   3.280
 2819TIP3   OH2 8389   5.232   1.432   3.313
 2819TIP3    H1 8390   5.144   1.425   3.275
 2819TIP3    H2 8391   5.267   1.343   3.308
 2820TIP3   OH2 8392   3.497   2.953   3.260
 2820TIP3    H1 8393   3.405   2.971   3.237
 2820TIP3    H2 8394   3.518   3.020   3.326
 2821TIP3   OH2 8395   3.728   2.937   3.110
 2821TIP3    H1 8396   3.645   2.944   3.158
 2821TIP3    H2 8397   3.706   2.963   3.021
 2822TIP3   OH2 8398   4.145   2.956   2.901
 2822TIP3    H1 8399   4.073   2.969   2.839
 2822TIP3    H2 8400   4.156   3.041   2.943
 2823TIP3   OH2 8401   4.410   2.883   2.935
 2823TIP3    H1 8402   4.318   2.910   2.925
 2823TIP3    H2 8403   4.460   2.955   2.897
 2824TIP3   OH2 8404   4.608   3.069   2.852
 2824TIP3    H1 8405   4.605   3.157   2.815
 2824TIP3    H2 8406   4.639   3.013   2.780
 2825TIP3   OH2 8407   3.404   2.732   2.979
 2825TIP3    H1 8408   3.428   2.708   3.069
 2825TIP3    H2 8409   3.476   2.699   2.925
 2826TIP3   OH2 8410   3.607   2.616   2.842
 2826TIP3    H1 8411   3.618   2.531   2.884
 2826TIP3    H2 8412   3.694   2.656   2.844
 2827TIP3   OH2 8413   3.877   2.702   2.861
 2827TIP3    H1 8414   3.897   2.610   2.846
 2827TIP3    H2 8415   3.928   2.726   2.938
 2828TIP3   OH2 8416   4.439   1.363   2.940
 2828TIP3    H1 8417   4.399   1.297   2.997
 2828TIP3    H2 8418   4.507   1.316   2.893
 2829TIP3   OH2 8419   4.943   1.253   2.828
 2829TIP3    H1 8420   4.981   1.306   2.757
 2829TIP3    H2 8421   4.854   1.286   2.836
 2830TIP3   OH2 8422   5.057   1.344   2.597
 2830TIP3    H1 8423   5.127   1.284   2.571
 2830TIP3    H2 8424   5.096   1.431   2.585
 2831TIP3   OH2 8425   3.650   1.090   2.940
 2831TIP3    H1 8426   3.586   1.023   2.963
 2831TIP3    H2 8427   3.731   1.061   2.982
 2832TIP3   OH2 8428   3.466   0.941   2.590
 2832TIP3    H1 8429   3.497   1.000   2.521
 2832TIP3    H2 8430   3.434   0.999   2.659
 2833TIP3   OH2 8431   4.115   1.081   2.803
 2833TIP3    H1 8432   4.168   1.161   2.804
 2833TIP3    H2 8433   4.060   1.089   2.881
 2834TIP3   OH2 8434   4.654   1.241   2.816
 2834TIP3    H1 8435   4.667   1.206   2.728
 2834TIP3    H2 8436   4.655   1.164   2.873
 2835TIP3   OH2 8437   4.713   1.181   2.382
 2835TIP3    H1 8438   4.634   1.231   2.404
 2835TIP3    H2 8439   4.699   1.096   2.424
 2836TIP3   OH2 8440   3.172   2.528   2.367
 2836TIP3    H1 8441   3.089   2.495   2.333
 2836TIP3    H2 8442   3.177   2.618   2.335
 2837TIP3   OH2 8443   3.583   1.097   2.379
 2837TIP3    H1 8444   3.616   1.023   2.329
 2837TIP3    H2 8445   3.661   1.146   2.404
 2838TIP3   OH2 8446   4.099   1.279   2.473
 2838TIP3    H1 8447   4.161   1.235   2.533
 2838TIP3    H2 8448   4.108   1.372   2.493
 2839TIP3   OH2 8449   3.985   2.682   1.969
 2839TIP3    H1 8450   4.071   2.704   1.931
 2839TIP3    H2 8451   3.954   2.609   1.917
 2840TIP3   OH2 8452   4.694   2.819   2.035
 2840TIP3    H1 8453   4.629   2.755   2.063
 2840TIP3    H2 8454   4.654   2.862   1.959
 2841TIP3   OH2 8455   3.904   1.341   3.829
 2841TIP3    H1 8456   3.868   1.273   3.887
 2841TIP3    H2 8457   3.996   1.347   3.853
 2842TIP3   OH2 8458   4.153   1.343   3.950
 2842TIP3    H1 8459   4.231   1.321   3.899
 2842TIP3    H2 8460   4.147   1.273   4.015
 2843TIP3   OH2 8461   3.273   2.521   2.011
 2843TIP3    H1 8462   3.276   2.539   2.105
 2843TIP3    H2 8463   3.356   2.478   1.991
 2844TIP3   OH2 8464   4.977   1.430   3.741
 2844TIP3    H1 8465   4.992   1.401   3.831
 2844TIP3    H2 8466   5.063   1.424   3.699
 2845TIP3   OH2 8467   4.894   2.960   3.240
 2845TIP3    H1 8468   4.816   2.932   3.191
 2845TIP3    H2 8469   4.883   3.055   3.250
 2846TIP3   OH2 8470   6.171   2.354   1.979
 2846TIP3    H1 8471   6.137   2.440   1.954
 2846TIP3    H2 8472   6.098   2.294   1.962
 2847TIP3   OH2 8473   6.169   2.339   2.407
 2847TIP3    H1 8474   6.220   2.324   2.487
 2847TIP3    H2 8475   6.125   2.255   2.390
 2848TIP3   OH2 8476   5.469   2.207   2.758
 2848TIP3    H1 8477   5.505   2.154   2.829
 2848TIP3    H2 8478   5.546   2.238   2.710
 2849TIP3   OH2 8479   6.433   2.649   2.079
 2849TIP3    H1 8480   6.424   2.582   2.148
 2849TIP3    H2 8481   6.456   2.729   2.127
 2850TIP3   OH2 8482   5.458   2.628   2.442
 2850TIP3    H1 8483   5.441   2.534   2.451
 2850TIP3    H2 8484   5.553   2.635   2.438
 2851TIP3   OH2 8485   5.146   1.831   2.226
 2851TIP3    H1 8486   5.110   1.916   2.251
 2851TIP3    H2 8487   5.072   1.783   2.189
 2852TIP3   OH2 8488   5.225   2.147   2.444
 2852TIP3    H1 8489   5.275   2.070   2.471
 2852TIP3    H2 8490   5.292   2.212   2.422
 2853TIP3   OH2 8491   6.089   3.085   2.092
 2853TIP3    H1 8492   6.122   3.015   2.035
 2853TIP3    H2 8493   6.087   3.045   2.179
 2854TIP3   OH2 8494   5.979   2.562   2.416
 2854TIP3    H1 8495   6.022   2.482   2.388
 2854TIP3    H2 8496   6.049   2.618   2.448
 2855TIP3   OH2 8497   7.006   1.884   2.431
 2855TIP3    H1 8498   7.024   1.967   2.475
 2855TIP3    H2 8499   7.037   1.897   2.341
 2856TIP3   OH2 8500   6.386   2.054   2.450
 2856TIP3    H1 8501   6.422   1.970   2.479
 2856TIP3    H2 8502   6.347   2.035   2.365
 2857TIP3   OH2 8503   5.737   1.713   2.412
 2857TIP3    H1 8504   5.717   1.786   2.354
 2857TIP3    H2 8505   5.682   1.641   2.381
 2858TIP3   OH2 8506   6.429   1.807   2.054
 2858TIP3    H1 8507   6.494   1.800   2.124
 2858TIP3    H2 8508   6.476   1.845   1.980
 2859TIP3   OH2 8509   5.363   1.925   2.538
 2859TIP3    H1 8510   5.445   1.908   2.583
 2859TIP3    H2 8511   5.368   1.874   2.457
 2860TIP3   OH2 8512   5.787   2.124   2.349
 2860TIP3    H1 8513   5.881   2.108   2.358
 2860TIP3    H2 8514   5.751   2.042   2.315
 2861TIP3   OH2 8515   7.062   2.101   2.598
 2861TIP3    H1 8516   6.973   2.135   2.594
 2861TIP3    H2 8517   7.098   2.138   2.679
 2862TIP3   OH2 8518   5.721   1.712   2.862
 2862TIP3    H1 8519   5.669   1.749   2.790
 2862TIP3    H2 8520   5.667   1.727   2.940
 2863TIP3   OH2 8521   6.064   2.571   1.835
 2863TIP3    H1 8522   6.022   2.542   1.753
 2863TIP3    H2 8523   6.011   2.646   1.864
 2864TIP3   OH2 8524   5.818   2.488   2.630
 2864TIP3    H1 8525   5.763   2.559   2.665
 2864TIP3    H2 8526   5.866   2.528   2.558
 2865TIP3   OH2 8527   6.603   1.828   2.263
 2865TIP3    H1 8528   6.559   1.810   2.346
 2865TIP3    H2 8529   6.657   1.905   2.281
 2866TIP3   OH2 8530   5.607   1.821   2.633
 2866TIP3    H1 8531   5.661   1.896   2.657
 2866TIP3    H2 8532   5.654   1.779   2.562
 2867TIP3   OH2 8533   5.658   2.689   2.734
 2867TIP3    H1 8534   5.643   2.779   2.703
 2867TIP3    H2 8535   5.581   2.669   2.787
 2868TIP3   OH2 8536   5.040   2.393   2.001
 2868TIP3    H1 8537   4.998   2.415   1.918
 2868TIP3    H2 8538   5.065   2.477   2.038
 2869TIP3   OH2 8539   6.475   2.895   2.219
 2869TIP3    H1 8540   6.389   2.886   2.261
 2869TIP3    H2 8541   6.472   2.981   2.177
 2870TIP3   OH2 8542   6.804   1.776   2.597
 2870TIP3    H1 8543   6.719   1.804   2.563
 2870TIP3    H2 8544   6.867   1.805   2.530
 2871TIP3   OH2 8545   6.060   1.406   2.588
 2871TIP3    H1 8546   6.055   1.314   2.615
 2871TIP3    H2 8547   5.984   1.447   2.629
 2872TIP3   OH2 8548   6.184   2.922   1.886
 2872TIP3    H1 8549   6.238   2.844   1.873
 2872TIP3    H2 8550   6.239   2.994   1.854
 2873TIP3   OH2 8551   6.322   2.693   1.830
 2873TIP3    H1 8552   6.247   2.633   1.830
 2873TIP3    H2 8553   6.370   2.671   1.909
 2874TIP3   OH2 8554   6.709   2.789   2.566
 2874TIP3    H1 8555   6.693   2.713   2.510
 2874TIP3    H2 8556   6.694   2.864   2.510
 2875TIP3   OH2 8557   5.994   2.185   1.841
 2875TIP3    H1 8558   5.914   2.232   1.818
 2875TIP3    H2 8559   6.044   2.182   1.759
 2876TIP3   OH2 8560   5.969   1.996   1.517
 2876TIP3    H1 8561   6.028   2.044   1.575
 2876TIP3    H2 8562   6.024   1.928   1.478
 2877TIP3   OH2 8563   6.895   2.443   2.429
 2877TIP3    H1 8564   6.811   2.488   2.431
 2877TIP3    H2 8565   6.928   2.457   2.340
 2878TIP3   OH2 8566   6.359   2.279   1.797
 2878TIP3    H1 8567   6.304   2.309   1.870
 2878TIP3    H2 8568   6.441   2.251   1.839
 2879TIP3   OH2 8569   6.586   2.308   2.741
 2879TIP3    H1 8570   6.585   2.391   2.789
 2879TIP3    H2 8571   6.502   2.307   2.694
 2880TIP3   OH2 8572   5.589   2.261   2.204
 2880TIP3    H1 8573   5.552   2.202   2.138
 2880TIP3    H2 8574   5.661   2.212   2.242
 2881TIP3   OH2 8575   5.723   2.679   2.350
 2881TIP3    H1 8576   5.698   2.662   2.259
 2881TIP3    H2 8577   5.810   2.641   2.359
 2882TIP3   OH2 8578   5.686   2.254   2.576
 2882TIP3    H1 8579   5.726   2.218   2.496
 2882TIP3    H2 8580   5.736   2.334   2.594
 2883TIP3   OH2 8581   6.239   2.884   2.354
 2883TIP3    H1 8582   6.225   2.966   2.403
 2883TIP3    H2 8583   6.224   2.815   2.418
 2884TIP3   OH2 8584   5.858   2.789   2.899
 2884TIP3    H1 8585   5.799   2.847   2.947
 2884TIP3    H2 8586   5.801   2.737   2.843
 2885TIP3   OH2 8587   6.182   2.142   1.639
 2885TIP3    H1 8588   6.244   2.194   1.690
 2885TIP3    H2 8589   6.210   2.155   1.548
 2886TIP3   OH2 8590   5.616   2.346   3.030
 2886TIP3    H1 8591   5.619   2.438   3.056
 2886TIP3    H2 8592   5.523   2.325   3.026
 2887TIP3   OH2 8593   5.930   2.817   1.869
 2887TIP3    H1 8594   6.016   2.852   1.890
 2887TIP3    H2 8595   5.878   2.893   1.845
 2888TIP3   OH2 8596   5.648   2.946   2.986
 2888TIP3    H1 8597   5.622   2.957   2.895
 2888TIP3    H2 8598   5.566   2.932   3.033
 2889TIP3   OH2 8599   6.684   1.348   1.699
 2889TIP3    H1 8600   6.608   1.369   1.753
 2889TIP3    H2 8601   6.703   1.429   1.652
 2890TIP3   OH2 8602   5.457   2.110   2.000
 2890TIP3    H1 8603   5.385   2.162   1.963
 2890TIP3    H2 8604   5.415   2.029   2.027
 2891TIP3   OH2 8605   6.477   2.751   1.236
 2891TIP3    H1 8606   6.483   2.845   1.222
 2891TIP3    H2 8607   6.567   2.719   1.228
 2892TIP3   OH2 8608   5.237   2.504   2.935
 2892TIP3    H1 8609   5.170   2.483   2.870
 2892TIP3    H2 8610   5.273   2.419   2.960
 2893TIP3   OH2 8611   5.086   2.699   2.584
 2893TIP3    H1 8612   5.179   2.719   2.595
 2893TIP3    H2 8613   5.040   2.776   2.616
 2894TIP3   OH2 8614   6.941   3.147   2.633
 2894TIP3    H1 8615   6.946   3.052   2.648
 2894TIP3    H2 8616   6.861   3.174   2.680
 2895TIP3   OH2 8617   6.046   2.933   2.758
 2895TIP3    H1 8618   6.040   3.023   2.789
 2895TIP3    H2 8619   5.979   2.886   2.809
 2896TIP3   OH2 8620   5.827   3.036   1.722
 2896TIP3    H1 8621   5.785   3.016   1.638
 2896TIP3    H2 8622   5.790   3.121   1.748
 2897TIP3   OH2 8623   5.260   2.890   2.091
 2897TIP3    H1 8624   5.307   2.882   2.174
 2897TIP3    H2 8625   5.214   2.807   2.082
 2898TIP3   OH2 8626   6.014   2.943   1.339
 2898TIP3    H1 8627   6.067   2.869   1.307
 2898TIP3    H2 8628   6.049   2.963   1.425
 2899TIP3   OH2 8629   6.077   3.002   1.605
 2899TIP3    H1 8630   5.993   3.006   1.652
 2899TIP3    H2 8631   6.140   2.974   1.671
 2900TIP3   OH2 8632   6.836   2.263   2.902
 2900TIP3    H1 8633   6.749   2.272   2.863
 2900TIP3    H2 8634   6.853   2.169   2.901
 2901TIP3   OH2 8635   5.441   2.687   2.904
 2901TIP3    H1 8636   5.490   2.678   2.986
 2901TIP3    H2 8637   5.368   2.626   2.913
 2902TIP3   OH2 8638   5.824   1.497   2.716
 2902TIP3    H1 8639   5.739   1.466   2.684
 2902TIP3    H2 8640   5.804   1.578   2.763
 2903TIP3   OH2 8641   6.375   1.613   2.918
 2903TIP3    H1 8642   6.447   1.588   2.975
 2903TIP3    H2 8643   6.296   1.598   2.970
 2904TIP3   OH2 8644   6.588   2.043   2.824
 2904TIP3    H1 8645   6.547   2.037   2.910
 2904TIP3    H2 8646   6.574   2.133   2.797
 2905TIP3   OH2 8647   6.264   2.172   1.384
 2905TIP3    H1 8648   6.225   2.142   1.302
 2905TIP3    H2 8649   6.348   2.209   1.358
 2906TIP3   OH2 8650   5.970   1.543   1.681
 2906TIP3    H1 8651   5.938   1.547   1.772
 2906TIP3    H2 8652   5.933   1.461   1.647
 2907TIP3   OH2 8653   5.762   2.030   2.723
 2907TIP3    H1 8654   5.718   2.039   2.808
 2907TIP3    H2 8655   5.741   2.112   2.677
 2908TIP3   OH2 8656   5.645   1.909   2.244
 2908TIP3    H1 8657   5.556   1.886   2.270
 2908TIP3    H2 8658   5.654   1.873   2.155
 2909TIP3   OH2 8659   6.125   1.983   1.973
 2909TIP3    H1 8660   6.076   2.055   1.934
 2909TIP3    H2 8661   6.183   1.952   1.903
 2910TIP3   OH2 8662   6.313   2.251   3.048
 2910TIP3    H1 8663   6.286   2.183   3.109
 2910TIP3    H2 8664   6.405   2.266   3.068
 2911TIP3   OH2 8665   6.287   1.998   2.201
 2911TIP3    H1 8666   6.220   2.020   2.137
 2911TIP3    H2 8667   6.333   1.923   2.163
 2912TIP3   OH2 8668   5.598   2.041   2.946
 2912TIP3    H1 8669   5.631   2.100   3.014
 2912TIP3    H2 8670   5.581   1.959   2.992
 2913TIP3   OH2 8671   5.637   1.526   1.655
 2913TIP3    H1 8672   5.631   1.526   1.750
 2913TIP3    H2 8673   5.561   1.575   1.625
 2914TIP3   OH2 8674   5.191   1.566   2.523
 2914TIP3    H1 8675   5.258   1.603   2.581
 2914TIP3    H2 8676   5.236   1.548   2.441
 2915TIP3   OH2 8677   5.108   1.537   2.029
 2915TIP3    H1 8678   5.154   1.575   1.954
 2915TIP3    H2 8679   5.045   1.604   2.056
 2916TIP3   OH2 8680   6.328   2.253   2.625
 2916TIP3    H1 8681   6.356   2.187   2.562
 2916TIP3    H2 8682   6.289   2.204   2.697
 2917TIP3   OH2 8683   6.002   1.702   2.296
 2917TIP3    H1 8684   5.925   1.703   2.353
 2917TIP3    H2 8685   6.076   1.692   2.356
 2918TIP3   OH2 8686   5.407   1.784   2.306
 2918TIP3    H1 8687   5.319   1.787   2.269
 2918TIP3    H2 8688   5.436   1.694   2.290
 2919TIP3   OH2 8689   5.658   1.781   2.000
 2919TIP3    H1 8690   5.753   1.795   1.990
 2919TIP3    H2 8691   5.621   1.803   1.915
 2920TIP3   OH2 8692   6.460   1.788   2.499
 2920TIP3    H1 8693   6.444   1.803   2.592
 2920TIP3    H2 8694   6.392   1.727   2.472
 2921TIP3   OH2 8695   5.541   1.814   1.754
 2921TIP3    H1 8696   5.476   1.766   1.702
 2921TIP3    H2 8697   5.598   1.855   1.689
 2922TIP3   OH2 8698   6.656   3.493   2.729
 2922TIP3    H1 8699   6.653   3.513   2.636
 2922TIP3    H2 8700   6.734   3.538   2.761
 2923TIP3   OH2 8701   5.598   2.604   3.139
 2923TIP3    H1 8702   5.678   2.625   3.186
 2923TIP3    H2 8703   5.529   2.613   3.205
 2924TIP3   OH2 8704   6.057   2.067   2.405
 2924TIP3    H1 8705   6.126   2.019   2.359
 2924TIP3    H2 8706   6.055   2.029   2.493
 2925TIP3   OH2 8707   5.550   1.537   2.293
 2925TIP3    H1 8708   5.521   1.461   2.344
 2925TIP3    H2 8709   5.584   1.499   2.212
 2926TIP3   OH2 8710   6.031   1.975   2.672
 2926TIP3    H1 8711   5.944   2.007   2.696
 2926TIP3    H2 8712   6.091   2.026   2.726
 2927TIP3   OH2 8713   5.769   2.332   1.769
 2927TIP3    H1 8714   5.690   2.283   1.746
 2927TIP3    H2 8715   5.748   2.374   1.853
 2928TIP3   OH2 8716   6.658   2.581   2.390
 2928TIP3    H1 8717   6.692   2.631   2.316
 2928TIP3    H2 8718   6.577   2.542   2.357
 2929TIP3   OH2 8719   6.223   1.644   1.685
 2929TIP3    H1 8720   6.129   1.627   1.683
 2929TIP3    H2 8721   6.229   1.739   1.695
 2930TIP3   OH2 8722   6.170   2.663   2.800
 2930TIP3    H1 8723   6.221   2.651   2.881
 2930TIP3    H2 8724   6.130   2.749   2.810
 2931TIP3   OH2 8725   6.287   1.906   1.757
 2931TIP3    H1 8726   6.382   1.909   1.768
 2931TIP3    H2 8727   6.266   1.980   1.700
 2932TIP3   OH2 8728   5.451   2.333   2.434
 2932TIP3    H1 8729   5.491   2.320   2.348
 2932TIP3    H2 8730   5.518   2.306   2.496
 2933TIP3   OH2 8731   5.903   2.497   1.593
 2933TIP3    H1 8732   5.850   2.576   1.604
 2933TIP3    H2 8733   5.860   2.432   1.648
 2934TIP3   OH2 8734   5.345   2.282   3.070
 2934TIP3    H1 8735   5.361   2.268   3.163
 2934TIP3    H2 8736   5.274   2.222   3.049
 2935TIP3   OH2 8737   6.081   2.407   3.084
 2935TIP3    H1 8738   6.015   2.347   3.049
 2935TIP3    H2 8739   6.165   2.368   3.059
 2936TIP3   OH2 8740   6.317   2.948   2.680
 2936TIP3    H1 8741   6.223   2.935   2.687
 2936TIP3    H2 8742   6.343   2.986   2.763
 2937TIP3   OH2 8743   6.699   1.987   1.609
 2937TIP3    H1 8744   6.629   1.944   1.561
 2937TIP3    H2 8745   6.693   2.079   1.582
 2938TIP3   OH2 8746   6.955   2.864   2.660
 2938TIP3    H1 8747   6.861   2.852   2.655
 2938TIP3    H2 8748   6.987   2.837   2.574
 2939TIP3   OH2 8749   6.435   2.815   1.518
 2939TIP3    H1 8750   6.411   2.752   1.586
 2939TIP3    H2 8751   6.443   2.762   1.438
 2940TIP3   OH2 8752   6.425   2.449   2.286
 2940TIP3    H1 8753   6.336   2.427   2.313
 2940TIP3    H2 8754   6.460   2.367   2.251
 2941TIP3   OH2 8755   5.584   2.671   2.105
 2941TIP3    H1 8756   5.578   2.751   2.053
 2941TIP3    H2 8757   5.494   2.654   2.134
 2942TIP3   OH2 8758   5.690   2.435   2.009
 2942TIP3    H1 8759   5.663   2.523   2.034
 2942TIP3    H2 8760   5.658   2.379   2.080
 2943TIP3   OH2 8761   5.860   3.006   2.554
 2943TIP3    H1 8762   5.896   3.079   2.504
 2943TIP3    H2 8763   5.933   2.973   2.606
 2944TIP3   OH2 8764   5.513   2.901   1.972
 2944TIP3    H1 8765   5.420   2.907   1.993
 2944TIP3    H2 8766   5.542   2.991   1.961
 2945TIP3   OH2 8767   6.214   2.664   2.528
 2945TIP3    H1 8768   6.198   2.661   2.622
 2945TIP3    H2 8769   6.297   2.617   2.516
 2946TIP3   OH2 8770   6.177   2.553   1.422
 2946TIP3    H1 8771   6.244   2.526   1.486
 2946TIP3    H2 8772   6.095   2.519   1.458
 2947TIP3   OH2 8773   6.468   3.165   2.566
 2947TIP3    H1 8774   6.397   3.102   2.581
 2947TIP3    H2 8775   6.435   3.221   2.495
 2948TIP3   OH2 8776   6.518   3.019   1.204
 2948TIP3    H1 8777   6.541   3.078   1.132
 2948TIP3    H2 8778   6.450   3.066   1.253
 2949TIP3   OH2 8779   5.552   1.787   3.071
 2949TIP3    H1 8780   5.457   1.795   3.079
 2949TIP3    H2 8781   5.579   1.740   3.149
 2950TIP3   OH2 8782   6.376   2.463   1.587
 2950TIP3    H1 8783   6.359   2.407   1.662
 2950TIP3    H2 8784   6.471   2.476   1.587
 2951TIP3   OH2 8785   5.289   2.896   2.713
 2951TIP3    H1 8786   5.341   2.835   2.766
 2951TIP3    H2 8787   5.303   2.981   2.755
 2952TIP3   OH2 8788   5.588   2.473   1.368
 2952TIP3    H1 8789   5.582   2.378   1.369
 2952TIP3    H2 8790   5.542   2.501   1.448
 2953TIP3   OH2 8791   5.498   2.520   1.629
 2953TIP3    H1 8792   5.568   2.569   1.673
 2953TIP3    H2 8793   5.441   2.588   1.592
 2954TIP3   OH2 8794   5.245   2.244   1.878
 2954TIP3    H1 8795   5.178   2.279   1.937
 2954TIP3    H2 8796   5.253   2.311   1.809
 2955TIP3   OH2 8797   6.406   1.840   2.761
 2955TIP3    H1 8798   6.477   1.892   2.797
 2955TIP3    H2 8799   6.396   1.767   2.822
 2956TIP3   OH2 8800   6.283   1.594   1.953
 2956TIP3    H1 8801   6.262   1.616   1.863
 2956TIP3    H2 8802   6.325   1.672   1.988
 2957TIP3   OH2 8803   5.745   2.716   1.638
 2957TIP3    H1 8804   5.752   2.752   1.726
 2957TIP3    H2 8805   5.746   2.793   1.580
 2958TIP3   OH2 8806   5.937   1.793   2.042
 2958TIP3    H1 8807   6.000   1.861   2.017
 2958TIP3    H2 8808   5.957   1.773   2.133
 2959TIP3   OH2 8809   6.238   2.088   2.827
 2959TIP3    H1 8810   6.262   2.136   2.906
 2959TIP3    H2 8811   6.288   2.006   2.833
 2960TIP3   OH2 8812   6.101   1.491   2.134
 2960TIP3    H1 8813   6.078   1.568   2.187
 2960TIP3    H2 8814   6.169   1.522   2.075
 2961TIP3   OH2 8815   5.618   1.511   1.934
 2961TIP3    H1 8816   5.608   1.600   1.966
 2961TIP3    H2 8817   5.712   1.494   1.940
 2962TIP3   OH2 8818   6.853   1.987   2.808
 2962TIP3    H1 8819   6.759   1.997   2.820
 2962TIP3    H2 8820   6.861   1.926   2.735
 2963TIP3   OH2 8821   6.515   2.190   2.199
 2963TIP3    H1 8822   6.438   2.136   2.216
 2963TIP3    H2 8823   6.584   2.152   2.253
 2964TIP3   OH2 8824   5.234   2.433   1.660
 2964TIP3    H1 8825   5.217   2.514   1.613
 2964TIP3    H2 8826   5.329   2.424   1.659
 2965TIP3   OH2 8827   5.136   1.710   1.812
 2965TIP3    H1 8828   5.108   1.796   1.845
 2965TIP3    H2 8829   5.062   1.678   1.761
 2966TIP3   OH2 8830   6.495   3.162   2.139
 2966TIP3    H1 8831   6.454   3.212   2.068
 2966TIP3    H2 8832   6.589   3.175   2.126
 2967TIP3   OH2 8833   5.561   1.413   2.676
 2967TIP3    H1 8834   5.532   1.380   2.591
 2967TIP3    H2 8835   5.554   1.338   2.734
 2968TIP3   OH2 8836   5.090   2.662   2.076
 2968TIP3    H1 8837   5.047   2.702   2.152
 2968TIP3    H2 8838   5.048   2.702   2.000
 2969TIP3   OH2 8839   5.282   3.203   3.134
 2969TIP3    H1 8840   5.364   3.210   3.185
 2969TIP3    H2 8841   5.267   3.109   3.127
 2970TIP3   OH2 8842   5.746   3.119   3.179
 2970TIP3    H1 8843   5.839   3.102   3.190
 2970TIP3    H2 8844   5.718   3.061   3.109
 2971TIP3   OH2 8845   5.721   2.703   1.301
 2971TIP3    H1 8846   5.660   2.633   1.325
 2971TIP3    H2 8847   5.805   2.674   1.335
 2972TIP3   OH2 8848   6.377   3.054   2.924
 2972TIP3    H1 8849   6.384   2.984   2.990
 2972TIP3    H2 8850   6.451   3.112   2.943
 2973TIP3   OH2 8851   6.155   2.727   1.210
 2973TIP3    H1 8852   6.149   2.663   1.281
 2973TIP3    H2 8853   6.248   2.752   1.208
 2974TIP3   OH2 8854   5.392   2.598   3.327
 2974TIP3    H1 8855   5.411   2.505   3.338
 2974TIP3    H2 8856   5.304   2.600   3.288
 2975TIP3   OH2 8857   5.370   2.145   1.540
 2975TIP3    H1 8858   5.417   2.153   1.623
 2975TIP3    H2 8859   5.431   2.179   1.474
 2976TIP3   OH2 8860   6.011   2.683   3.105
 2976TIP3    H1 8861   5.967   2.704   3.022
 2976TIP3    H2 8862   6.047   2.596   3.091
 2977TIP3   OH2 8863   5.908   2.430   1.321
 2977TIP3    H1 8864   5.892   2.449   1.414
 2977TIP3    H2 8865   5.912   2.335   1.316
 2978TIP3   OH2 8866   6.485   2.720   2.714
 2978TIP3    H1 8867   6.564   2.751   2.670
 2978TIP3    H2 8868   6.421   2.790   2.701
 2979TIP3   OH2 8869   5.506   2.338   3.327
 2979TIP3    H1 8870   5.586   2.323   3.277
 2979TIP3    H2 8871   5.537   2.360   3.415
 2980TIP3   OH2 8872   5.559   2.145   1.739
 2980TIP3    H1 8873   5.541   2.123   1.830
 2980TIP3    H2 8874   5.611   2.071   1.706
 2981TIP3   OH2 8875   5.857   2.215   2.982
 2981TIP3    H1 8876   5.779   2.269   2.994
 2981TIP3    H2 8877   5.897   2.249   2.901
 2982TIP3   OH2 8878   5.697   1.954   1.578
 2982TIP3    H1 8879   5.669   1.951   1.486
 2982TIP3    H2 8880   5.792   1.963   1.573
 2983TIP3   OH2 8881   6.365   2.604   3.079
 2983TIP3    H1 8882   6.439   2.568   3.030
 2983TIP3    H2 8883   6.362   2.552   3.160
 2984TIP3   OH2 8884   6.500   2.267   1.259
 2984TIP3    H1 8885   6.472   2.223   1.179
 2984TIP3    H2 8886   6.462   2.354   1.254
 2985TIP3   OH2 8887   5.971   1.996   3.101
 2985TIP3    H1 8888   5.977   1.924   3.038
 2985TIP3    H2 8889   5.934   2.068   3.050
 2986TIP3   OH2 8890   5.981   1.796   2.898
 2986TIP3    H1 8891   6.008   1.835   2.814
 2986TIP3    H2 8892   5.890   1.770   2.883
 2987TIP3   OH2 8893   5.989   2.326   2.772
 2987TIP3    H1 8894   6.078   2.358   2.759
 2987TIP3    H2 8895   5.934   2.387   2.724
 2988TIP3   OH2 8896   6.573   2.283   3.156
 2988TIP3    H1 8897   6.602   2.219   3.220
 2988TIP3    H2 8898   6.651   2.334   3.136
 2989TIP3   OH2 8899   6.613   2.550   2.885
 2989TIP3    H1 8900   6.558   2.609   2.834
 2989TIP3    H2 8901   6.702   2.566   2.853
 2990TIP3   OH2 8902   5.853   2.086   3.340
 2990TIP3    H1 8903   5.784   2.023   3.361
 2990TIP3    H2 8904   5.885   2.060   3.254
 2991TIP3   OH2 8905   6.103   1.562   2.994
 2991TIP3    H1 8906   6.063   1.643   2.963
 2991TIP3    H2 8907   6.035   1.495   2.982
 2992TIP3   OH2 8908   6.229   2.041   3.201
 2992TIP3    H1 8909   6.221   2.028   3.296
 2992TIP3    H2 8910   6.142   2.019   3.167
 2993TIP3   OH2 8911   6.464   1.983   3.055
 2993TIP3    H1 8912   6.392   1.988   3.118
 2993TIP3    H2 8913   6.541   1.965   3.108
 2994TIP3   OH2 8914   6.711   1.946   3.187
 2994TIP3    H1 8915   6.722   1.855   3.214
 2994TIP3    H2 8916   6.693   1.993   3.268
 2995TIP3   OH2 8917   5.688   1.864   3.404
 2995TIP3    H1 8918   5.696   1.775   3.370
 2995TIP3    H2 8919   5.727   1.859   3.492
 2996TIP3   OH2 8920   6.174   1.545   3.259
 2996TIP3    H1 8921   6.244   1.480   3.253
 2996TIP3    H2 8922   6.143   1.555   3.169
 2997TIP3   OH2 8923   6.264   1.763   3.404
 2997TIP3    H1 8924   6.235   1.691   3.348
 2997TIP3    H2 8925   6.191   1.825   3.404
 2998TIP3   OH2 8926   4.964   2.398   1.729
 2998TIP3    H1 8927   5.055   2.414   1.704
 2998TIP3    H2 8928   4.949   2.306   1.705
 2999TIP3   OH2 8929   4.888   2.973   2.148
 2999TIP3    H1 8930   4.826   2.918   2.100
 2999TIP3    H2 8931   4.931   2.913   2.209
 3000TIP3   OH2 8932   5.031   2.810   2.321
 3000TIP3    H1 8933   5.022   2.744   2.389
 3000TIP3    H2 8934   5.083   2.879   2.361
 3001TIP3   OH2 8935   6.766   3.216   2.133
 3001TIP3    H1 8936   6.782   3.237   2.225
 3001TIP3    H2 8937   6.809   3.288   2.085
 3002TIP3   OH2 8938   6.784   3.246   2.411
 3002TIP3    H1 8939   6.735   3.164   2.409
 3002TIP3    H2 8940   6.853   3.232   2.476
 3003TIP3   OH2 8941   6.830   2.945   2.978
 3003TIP3    H1 8942   6.760   2.952   3.042
 3003TIP3    H2 8943   6.877   3.029   2.984
 3004TIP3   OH2 8944   6.654   2.467   1.600
 3004TIP3    H1 8945   6.708   2.540   1.571
 3004TIP3    H2 8946   6.698   2.433   1.677
 3005TIP3   OH2 8947   6.780   2.324   1.799
 3005TIP3    H1 8948   6.716   2.283   1.856
 3005TIP3    H2 8949   6.847   2.358   1.858
 3006TIP3   OH2 8950   6.831   2.723   2.223
 3006TIP3    H1 8951   6.885   2.655   2.183
 3006TIP3    H2 8952   6.833   2.795   2.161
 3007TIP3   OH2 8953   6.641   3.008   2.414
 3007TIP3    H1 8954   6.574   3.050   2.467
 3007TIP3    H2 8955   6.593   2.965   2.343
 3008TIP3   OH2 8956   6.655   2.222   1.478
 3008TIP3    H1 8957   6.589   2.233   1.410
 3008TIP3    H2 8958   6.649   2.301   1.531
 3009TIP3   OH2 8959   6.495   1.898   1.446
 3009TIP3    H1 8960   6.544   1.934   1.372
 3009TIP3    H2 8961   6.485   1.805   1.426
 3010TIP3   OH2 8962   6.582   2.175   1.932
 3010TIP3    H1 8963   6.585   2.080   1.923
 3010TIP3    H2 8964   6.564   2.190   2.025
 3011TIP3   OH2 8965   5.207   2.246   2.700
 3011TIP3    H1 8966   5.199   2.213   2.611
 3011TIP3    H2 8967   5.300   2.242   2.719
 3012TIP3   OH2 8968   6.870   2.600   2.790
 3012TIP3    H1 8969   6.936   2.532   2.776
 3012TIP3    H2 8970   6.893   2.669   2.728
 3013TIP3   OH2 8971   7.046   2.390   2.784
 3013TIP3    H1 8972   6.972   2.348   2.827
 3013TIP3    H2 8973   7.120   2.332   2.801
 3014TIP3   OH2 8974   6.489   1.628   1.410
 3014TIP3    H1 8975   6.543   1.588   1.478
 3014TIP3    H2 8976   6.405   1.583   1.416
 3015TIP3   OH2 8977   6.573   1.895   1.835
 3015TIP3    H1 8978   6.616   1.810   1.847
 3015TIP3    H2 8979   6.622   1.935   1.763
 3016TIP3   OH2 8980   6.730   2.066   2.334
 3016TIP3    H1 8981   6.811   2.085   2.287
 3016TIP3    H2 8982   6.743   2.105   2.421
 3017TIP3   OH2 8983   6.803   2.215   2.561
 3017TIP3    H1 8984   6.734   2.245   2.620
 3017TIP3    H2 8985   6.836   2.295   2.521
 3018TIP3   OH2 8986   5.425   1.922   3.340
 3018TIP3    H1 8987   5.519   1.921   3.360
 3018TIP3    H2 8988   5.392   1.842   3.380
 3019TIP3   OH2 8989   7.274   1.814   3.108
 3019TIP3    H1 8990   7.331   1.753   3.061
 3019TIP3    H2 8991   7.234   1.867   3.039
 3020TIP3   OH2 8992   6.685   1.644   1.874
 3020TIP3    H1 8993   6.730   1.632   1.958
 3020TIP3    H2 8994   6.622   1.572   1.870
 3021TIP3   OH2 8995   5.396   1.637   2.697
 3021TIP3    H1 8996   5.451   1.558   2.702
 3021TIP3    H2 8997   5.458   1.708   2.681
 3022TIP3   OH2 8998   5.181   1.901   2.752
 3022TIP3    H1 8999   5.234   1.897   2.673
 3022TIP3    H2 9000   5.212   1.979   2.798
 3023TIP3   OH2 9001   7.121   1.939   2.921
 3023TIP3    H1 9002   7.049   1.981   2.969
 3023TIP3    H2 9003   7.078   1.876   2.864
 3024TIP3   OH2 9004   6.757   1.545   1.529
 3024TIP3    H1 9005   6.787   1.482   1.463
 3024TIP3    H2 9006   6.769   1.630   1.489
 3025TIP3   OH2 9007   5.167   1.395   2.255
 3025TIP3    H1 9008   5.082   1.390   2.298
 3025TIP3    H2 9009   5.154   1.454   2.181
 3026TIP3   OH2 9010   6.321   3.122   1.767
 3026TIP3    H1 9011   6.382   3.116   1.693
 3026TIP3    H2 9012   6.358   3.189   1.824
 3027TIP3   OH2 9013   5.388   1.459   3.075
 3027TIP3    H1 9014   5.342   1.460   3.159
 3027TIP3    H2 9015   5.333   1.511   3.017
 3028TIP3   OH2 9016   5.422   2.918   3.149
 3028TIP3    H1 9017   5.328   2.899   3.143
 3028TIP3    H2 9018   5.441   2.914   3.243
 3029TIP3   OH2 9019   5.630   2.964   2.701
 3029TIP3    H1 9020   5.579   3.039   2.670
 3029TIP3    H2 9021   5.716   2.975   2.659
 3030TIP3   OH2 9022   6.035   3.199   2.838
 3030TIP3    H1 9023   6.072   3.191   2.926
 3030TIP3    H2 9024   6.098   3.252   2.790
 3031TIP3   OH2 9025   6.227   3.351   2.709
 3031TIP3    H1 9026   6.291   3.295   2.666
 3031TIP3    H2 9027   6.278   3.407   2.767
 3032TIP3   OH2 9028   7.022   1.699   2.804
 3032TIP3    H1 9029   6.934   1.693   2.767
 3032TIP3    H2 9030   7.056   1.609   2.799
 3033TIP3   OH2 9031   5.291   3.208   2.746
 3033TIP3    H1 9032   5.200   3.225   2.724
 3033TIP3    H2 9033   5.312   3.274   2.812
 3034TIP3   OH2 9034   5.522   3.196   2.596
 3034TIP3    H1 9035   5.440   3.202   2.644
 3034TIP3    H2 9036   5.500   3.221   2.507
 3035TIP3   OH2 9037   5.940   3.214   2.387
 3035TIP3    H1 9038   5.866   3.227   2.327
 3035TIP3    H2 9039   5.950   3.299   2.430
 3036TIP3   OH2 9040   6.204   3.148   2.433
 3036TIP3    H1 9041   6.112   3.170   2.417
 3036TIP3    H2 9042   6.253   3.220   2.393
 3037TIP3   OH2 9043   6.404   3.326   2.342
 3037TIP3    H1 9044   6.402   3.413   2.303
 3037TIP3    H2 9045   6.435   3.269   2.272
 3038TIP3   OH2 9046   5.204   2.988   2.463
 3038TIP3    H1 9047   5.227   2.964   2.553
 3038TIP3    H2 9048   5.277   2.954   2.410
 3039TIP3   OH2 9049   5.407   2.871   2.325
 3039TIP3    H1 9050   5.418   2.786   2.369
 3039TIP3    H2 9051   5.494   2.911   2.328
 3040TIP3   OH2 9052   5.675   2.958   2.349
 3040TIP3    H1 9053   5.694   2.865   2.336
 3040TIP3    H2 9054   5.727   2.983   2.425
 3041TIP3   OH2 9055   6.229   1.607   2.430
 3041TIP3    H1 9056   6.192   1.537   2.483
 3041TIP3    H2 9057   6.300   1.566   2.381
 3042TIP3   OH2 9058   6.740   1.513   2.320
 3042TIP3    H1 9059   6.778   1.566   2.250
 3042TIP3    H2 9060   6.651   1.547   2.330
 3043TIP3   OH2 9061   6.852   1.605   2.088
 3043TIP3    H1 9062   6.925   1.550   2.059
 3043TIP3    H2 9063   6.885   1.695   2.080
 3044TIP3   OH2 9064   5.475   1.309   2.433
 3044TIP3    H1 9065   5.386   1.276   2.443
 3044TIP3    H2 9066   5.530   1.231   2.427
 3045TIP3   OH2 9067   5.279   1.204   2.079
 3045TIP3    H1 9068   5.314   1.256   2.008
 3045TIP3    H2 9069   5.248   1.267   2.143
 3046TIP3   OH2 9070   5.949   1.351   2.329
 3046TIP3    H1 9071   5.999   1.399   2.262
 3046TIP3    H2 9072   5.989   1.377   2.412
 3047TIP3   OH2 9073   6.448   1.494   2.306
 3047TIP3    H1 9074   6.468   1.459   2.219
 3047TIP3    H2 9075   6.454   1.418   2.364
 3048TIP3   OH2 9076   6.498   1.437   1.879
 3048TIP3    H1 9077   6.419   1.486   1.902
 3048TIP3    H2 9078   6.487   1.352   1.922
 3049TIP3   OH2 9079   4.974   2.780   1.856
 3049TIP3    H1 9080   4.887   2.745   1.837
 3049TIP3    H2 9081   4.970   2.871   1.828
 3050TIP3   OH2 9082   5.406   1.343   1.855
 3050TIP3    H1 9083   5.450   1.282   1.797
 3050TIP3    H2 9084   5.476   1.399   1.889
 3051TIP3   OH2 9085   5.893   1.540   1.947
 3051TIP3    H1 9086   5.953   1.490   2.003
 3051TIP3    H2 9087   5.906   1.631   1.974
 3052TIP3   OH2 9088   5.763   2.941   1.467
 3052TIP3    H1 9089   5.843   2.955   1.417
 3052TIP3    H2 9090   5.702   2.901   1.405
 3053TIP3   OH2 9091   6.481   3.083   1.542
 3053TIP3    H1 9092   6.471   2.988   1.536
 3053TIP3    H2 9093   6.435   3.117   1.465
 3054TIP3   OH2 9094   5.700   1.592   3.313
 3054TIP3    H1 9095   5.665   1.527   3.374
 3054TIP3    H2 9096   5.792   1.599   3.337
 3055TIP3   OH2 9097   5.949   1.596   3.434
 3055TIP3    H1 9098   6.029   1.576   3.385
 3055TIP3    H2 9099   5.945   1.528   3.501
 3056TIP3   OH2 9100   5.003   2.762   1.541
 3056TIP3    H1 9101   5.010   2.788   1.633
 3056TIP3    H2 9102   5.092   2.737   1.517
 3057TIP3   OH2 9103   6.771   1.679   3.233
 3057TIP3    H1 9104   6.786   1.652   3.323
 3057TIP3    H2 9105   6.857   1.677   3.192
 3058TIP3   OH2 9106   6.692   3.219   2.728
 3058TIP3    H1 9107   6.615   3.189   2.679
 3058TIP3    H2 9108   6.679   3.313   2.740
 3059TIP3   OH2 9109   7.255   2.470   2.265
 3059TIP3    H1 9110   7.283   2.397   2.320
 3059TIP3    H2 9111   7.312   2.543   2.291
 3060TIP3   OH2 9112   7.241   2.886   1.937
 3060TIP3    H1 9113   7.223   2.793   1.949
 3060TIP3    H2 9114   7.336   2.894   1.944
 3061TIP3   OH2 9115   6.945   2.117   1.710
 3061TIP3    H1 9116   6.900   2.196   1.737
 3061TIP3    H2 9117   6.875   2.053   1.694
 3062TIP3   OH2 9118   7.019   2.401   1.927
 3062TIP3    H1 9119   7.066   2.323   1.957
 3062TIP3    H2 9120   7.087   2.465   1.910
 3063TIP3   OH2 9121   7.876   3.286   1.539
 3063TIP3    H1 9122   7.960   3.251   1.509
 3063TIP3    H2 9123   7.892   3.311   1.630
 3064TIP3   OH2 9124   7.753   2.838   1.913
 3064TIP3    H1 9125   7.794   2.776   1.853
 3064TIP3    H2 9126   7.825   2.891   1.946
 3065TIP3   OH2 9127   7.490   1.956   1.935
 3065TIP3    H1 9128   7.499   2.034   1.881
 3065TIP3    H2 9129   7.442   1.894   1.880
 3066TIP3   OH2 9130   7.153   2.180   2.025
 3066TIP3    H1 9131   7.232   2.161   2.076
 3066TIP3    H2 9132   7.160   2.125   1.948
 3067TIP3   OH2 9133   7.596   2.394   1.828
 3067TIP3    H1 9134   7.682   2.366   1.797
 3067TIP3    H2 9135   7.544   2.313   1.829
 3068TIP3   OH2 9136   7.514   1.968   2.368
 3068TIP3    H1 9137   7.464   2.003   2.294
 3068TIP3    H2 9138   7.459   1.982   2.444
 3069TIP3   OH2 9139   7.618   2.742   2.138
 3069TIP3    H1 9140   7.557   2.809   2.171
 3069TIP3    H2 9141   7.662   2.785   2.064
 3070TIP3   OH2 9142   7.381   2.077   2.148
 3070TIP3    H1 9143   7.438   2.152   2.162
 3070TIP3    H2 9144   7.424   2.026   2.079
 3071TIP3   OH2 9145   7.450   2.942   2.223
 3071TIP3    H1 9146   7.437   3.033   2.195
 3071TIP3    H2 9147   7.372   2.924   2.277
 3072TIP3   OH2 9148   6.814   2.665   1.487
 3072TIP3    H1 9149   6.776   2.687   1.403
 3072TIP3    H2 9150   6.844   2.749   1.523
 3073TIP3   OH2 9151   7.383   2.530   1.702
 3073TIP3    H1 9152   7.330   2.470   1.650
 3073TIP3    H2 9153   7.454   2.475   1.736
 3074TIP3   OH2 9154   7.505   2.943   1.838
 3074TIP3    H1 9155   7.485   2.905   1.752
 3074TIP3    H2 9156   7.590   2.905   1.862
 3075TIP3   OH2 9157   7.490   2.515   2.052
 3075TIP3    H1 9158   7.536   2.485   1.974
 3075TIP3    H2 9159   7.538   2.593   2.080
 3076TIP3   OH2 9160   7.641   3.042   2.401
 3076TIP3    H1 9161   7.580   3.102   2.444
 3076TIP3    H2 9162   7.587   2.989   2.342
 3077TIP3   OH2 9163   7.386   2.627   2.484
 3077TIP3    H1 9164   7.394   2.713   2.527
 3077TIP3    H2 9165   7.299   2.596   2.511
 3078TIP3   OH2 9166   7.650   3.160   1.437
 3078TIP3    H1 9167   7.723   3.205   1.477
 3078TIP3    H2 9168   7.686   3.077   1.406
 3079TIP3   OH2 9169   7.434   3.206   2.472
 3079TIP3    H1 9170   7.405   3.213   2.381
 3079TIP3    H2 9171   7.354   3.190   2.522
 3080TIP3   OH2 9172   7.207   2.372   1.546
 3080TIP3    H1 9173   7.129   2.409   1.504
 3080TIP3    H2 9174   7.178   2.289   1.582
 3081TIP3   OH2 9175   7.032   2.763   2.419
 3081TIP3    H1 9176   6.962   2.743   2.357
 3081TIP3    H2 9177   7.064   2.677   2.448
 3082TIP3   OH2 9178   6.877   2.960   2.069
 3082TIP3    H1 9179   6.968   2.980   2.091
 3082TIP3    H2 9180   6.828   3.036   2.101
 3083TIP3   OH2 9181   7.819   3.178   2.239
 3083TIP3    H1 9182   7.837   3.265   2.273
 3083TIP3    H2 9183   7.760   3.139   2.303
 3084TIP3   OH2 9184   7.532   3.321   1.205
 3084TIP3    H1 9185   7.545   3.299   1.113
 3084TIP3    H2 9186   7.549   3.415   1.210
 3085TIP3   OH2 9187   7.074   3.124   1.566
 3085TIP3    H1 9188   7.104   3.125   1.656
 3085TIP3    H2 9189   7.013   3.051   1.561
 3086TIP3   OH2 9190   7.840   3.263   1.179
 3086TIP3    H1 9191   7.754   3.220   1.183
 3086TIP3    H2 9192   7.899   3.195   1.146
 3087TIP3   OH2 9193   7.231   2.950   2.390
 3087TIP3    H1 9194   7.279   2.943   2.472
 3087TIP3    H2 9195   7.160   2.887   2.398
 3088TIP3   OH2 9196   7.601   1.737   2.241
 3088TIP3    H1 9197   7.517   1.723   2.197
 3088TIP3    H2 9198   7.590   1.821   2.286
 3089TIP3   OH2 9199   7.542   2.290   2.201
 3089TIP3    H1 9200   7.499   2.298   2.286
 3089TIP3    H2 9201   7.516   2.370   2.154
 3090TIP3   OH2 9202   7.428   2.183   1.789
 3090TIP3    H1 9203   7.342   2.143   1.797
 3090TIP3    H2 9204   7.445   2.186   1.695
 3091TIP3   OH2 9205   7.377   2.280   2.429
 3091TIP3    H1 9206   7.446   2.325   2.478
 3091TIP3    H2 9207   7.360   2.200   2.478
 3092TIP3   OH2 9208   7.490   1.668   1.224
 3092TIP3    H1 9209   7.470   1.747   1.274
 3092TIP3    H2 9210   7.424   1.666   1.155
 3093TIP3   OH2 9211   6.971   1.839   2.019
 3093TIP3    H1 9212   7.043   1.868   2.075
 3093TIP3    H2 9213   7.014   1.799   1.943
 3094TIP3   OH2 9214   6.934   1.838   1.579
 3094TIP3    H1 9215   6.980   1.885   1.509
 3094TIP3    H2 9216   6.849   1.882   1.585
 3095TIP3   OH2 9217   7.195   2.037   1.791
 3095TIP3    H1 9218   7.107   2.052   1.756
 3095TIP3    H2 9219   7.213   1.945   1.771
 3096TIP3   OH2 9220   7.476   2.181   1.525
 3096TIP3    H1 9221   7.539   2.112   1.502
 3096TIP3    H2 9222   7.414   2.182   1.453
 3097TIP3   OH2 9223   7.329   2.171   1.304
 3097TIP3    H1 9224   7.235   2.183   1.297
 3097TIP3    H2 9225   7.363   2.200   1.219
 3098TIP3   OH2 9226   7.389   2.872   2.621
 3098TIP3    H1 9227   7.470   2.889   2.669
 3098TIP3    H2 9228   7.321   2.873   2.689
 3099TIP3   OH2 9229   7.349   1.782   1.768
 3099TIP3    H1 9230   7.301   1.719   1.821
 3099TIP3    H2 9231   7.432   1.737   1.748
 3100TIP3   OH2 9232   7.808   2.214   2.198
 3100TIP3    H1 9233   7.715   2.231   2.187
 3100TIP3    H2 9234   7.843   2.294   2.236
 3101TIP3   OH2 9235   7.550   2.667   1.271
 3101TIP3    H1 9236   7.549   2.571   1.267
 3101TIP3    H2 9237   7.550   2.687   1.364
 3102TIP3   OH2 9238   7.945   2.917   2.301
 3102TIP3    H1 9239   8.008   2.944   2.368
 3102TIP3    H2 9240   7.911   2.999   2.266
 3103TIP3   OH2 9241   7.245   2.596   1.935
 3103TIP3    H1 9242   7.289   2.584   1.851
 3103TIP3    H2 9243   7.307   2.563   2.000
 3104TIP3   OH2 9244   7.684   2.789   1.057
 3104TIP3    H1 9245   7.669   2.879   1.087
 3104TIP3    H2 9246   7.650   2.734   1.128
 3105TIP3   OH2 9247   7.129   2.540   2.558
 3105TIP3    H1 9248   7.141   2.513   2.649
 3105TIP3    H2 9249   7.060   2.483   2.524
 3106TIP3   OH2 9250   7.879   2.668   2.566
 3106TIP3    H1 9251   7.819   2.637   2.498
 3106TIP3    H2 9252   7.966   2.639   2.536
 3107TIP3   OH2 9253   7.351   2.929   1.588
 3107TIP3    H1 9254   7.341   3.015   1.547
 3107TIP3    H2 9255   7.268   2.914   1.632
 3108TIP3   OH2 9256   6.834   2.303   1.289
 3108TIP3    H1 9257   6.894   2.368   1.326
 3108TIP3    H2 9258   6.776   2.279   1.361
 3109TIP3   OH2 9259   7.514   2.715   1.540
 3109TIP3    H1 9260   7.456   2.790   1.550
 3109TIP3    H2 9261   7.474   2.647   1.595
 3110TIP3   OH2 9262   7.646   3.263   2.039
 3110TIP3    H1 9263   7.684   3.340   1.997
 3110TIP3    H2 9264   7.715   3.229   2.095
 3111TIP3   OH2 9265   7.298   3.192   1.432
 3111TIP3    H1 9266   7.215   3.157   1.463
 3111TIP3    H2 9267   7.297   3.284   1.457
 3112TIP3   OH2 9268   7.339   2.035   2.569
 3112TIP3    H1 9269   7.244   2.045   2.579
 3112TIP3    H2 9270   7.365   1.982   2.644
 3113TIP3   OH2 9271   7.084   3.146   2.199
 3113TIP3    H1 9272   7.135   3.085   2.252
 3113TIP3    H2 9273   7.091   3.229   2.245
 3114TIP3   OH2 9274   7.381   2.835   0.919
 3114TIP3    H1 9275   7.445   2.773   0.884
 3114TIP3    H2 9276   7.368   2.808   1.010
 3115TIP3   OH2 9277   7.308   2.776   1.176
 3115TIP3    H1 9278   7.380   2.734   1.224
 3115TIP3    H2 9279   7.317   2.869   1.196
 3116TIP3   OH2 9280   7.004   2.489   1.398
 3116TIP3    H1 9281   6.943   2.548   1.443
 3116TIP3    H2 9282   7.045   2.544   1.331
 3117TIP3   OH2 9283   7.603   3.040   1.138
 3117TIP3    H1 9284   7.511   3.030   1.160
 3117TIP3    H2 9285   7.603   3.094   1.059
 3118TIP3   OH2 9286   7.331   3.053   1.188
 3118TIP3    H1 9287   7.303   3.105   1.113
 3118TIP3    H2 9288   7.289   3.095   1.263
 3119TIP3   OH2 9289   7.436   1.788   1.505
 3119TIP3    H1 9290   7.383   1.818   1.579
 3119TIP3    H2 9291   7.493   1.862   1.485
 3120TIP3   OH2 9292   7.010   2.721   1.205
 3120TIP3    H1 9293   7.076   2.790   1.209
 3120TIP3    H2 9294   7.050   2.653   1.151
 3121TIP3   OH2 9295   7.037   1.962   1.361
 3121TIP3    H1 9296   7.052   2.055   1.343
 3121TIP3    H2 9297   7.015   1.924   1.276
 3122TIP3   OH2 9298   7.337   1.674   2.165
 3122TIP3    H1 9299   7.318   1.639   2.078
 3122TIP3    H2 9300   7.342   1.597   2.222
 3123TIP3   OH2 9301   6.881   2.927   1.560
 3123TIP3    H1 9302   6.840   2.964   1.638
 3123TIP3    H2 9303   6.835   2.968   1.487
 3124TIP3   OH2 9304   7.080   3.458   2.625
 3124TIP3    H1 9305   7.161   3.463   2.676
 3124TIP3    H2 9306   7.062   3.364   2.618
 3125TIP3   OH2 9307   7.537   3.381   2.657
 3125TIP3    H1 9308   7.626   3.350   2.675
 3125TIP3    H2 9309   7.505   3.323   2.588
 3126TIP3   OH2 9310   7.547   3.023   0.811
 3126TIP3    H1 9311   7.484   2.963   0.851
 3126TIP3    H2 9312   7.607   2.967   0.762
 3127TIP3   OH2 9313   7.189   2.853   2.813
 3127TIP3    H1 9314   7.210   2.760   2.820
 3127TIP3    H2 9315   7.101   2.854   2.775
 3128TIP3   OH2 9316   7.158   2.528   1.091
 3128TIP3    H1 9317   7.224   2.545   1.158
 3128TIP3    H2 9318   7.189   2.576   1.014
 3129TIP3   OH2 9319   7.807   2.939   2.591
 3129TIP3    H1 9320   7.757   2.962   2.513
 3129TIP3    H2 9321   7.832   2.848   2.578
 3130TIP3   OH2 9322   7.855   2.700   0.853
 3130TIP3    H1 9323   7.803   2.747   0.918
 3130TIP3    H2 9324   7.901   2.632   0.902
 3131TIP3   OH2 9325   7.313   2.598   2.814
 3131TIP3    H1 9326   7.389   2.550   2.780
 3131TIP3    H2 9327   7.337   2.620   2.904
 3132TIP3   OH2 9328   7.317   2.478   1.312
 3132TIP3    H1 9329   7.292   2.445   1.399
 3132TIP3    H2 9330   7.331   2.400   1.260
 3133TIP3   OH2 9331   7.598   2.451   2.467
 3133TIP3    H1 9332   7.529   2.517   2.479
 3133TIP3    H2 9333   7.660   2.492   2.408
 3134TIP3   OH2 9334   7.608   2.204   1.066
 3134TIP3    H1 9335   7.556   2.186   0.987
 3134TIP3    H2 9336   7.679   2.140   1.063
 3135TIP3   OH2 9337   7.749   2.267   2.615
 3135TIP3    H1 9338   7.767   2.189   2.562
 3135TIP3    H2 9339   7.702   2.326   2.557
 3136TIP3   OH2 9340   7.767   2.065   2.430
 3136TIP3    H1 9341   7.800   2.089   2.344
 3136TIP3    H2 9342   7.686   2.017   2.412
 3137TIP3   OH2 9343   7.776   2.599   2.312
 3137TIP3    H1 9344   7.860   2.629   2.278
 3137TIP3    H2 9345   7.711   2.646   2.259
 3138TIP3   OH2 9346   7.619   2.360   2.836
 3138TIP3    H1 9347   7.561   2.287   2.856
 3138TIP3    H2 9348   7.665   2.333   2.757
 3139TIP3   OH2 9349   7.478   2.124   2.888
 3139TIP3    H1 9350   7.484   2.036   2.852
 3139TIP3    H2 9351   7.515   2.116   2.977
 3140TIP3   OH2 9352   7.303   3.246   0.993
 3140TIP3    H1 9353   7.395   3.259   0.973
 3140TIP3    H2 9354   7.256   3.295   0.926
 3141TIP3   OH2 9355   6.743   2.679   1.208
 3141TIP3    H1 9356   6.837   2.697   1.209
 3141TIP3    H2 9357   6.734   2.593   1.167
 3142TIP3   OH2 9358   6.691   3.234   1.634
 3142TIP3    H1 9359   6.623   3.181   1.590
 3142TIP3    H2 9360   6.730   3.174   1.697
 3143TIP3   OH2 9361   6.831   3.069   1.806
 3143TIP3    H1 9362   6.821   3.001   1.873
 3143TIP3    H2 9363   6.880   3.138   1.850
 3144TIP3   OH2 9364   6.998   2.506   2.181
 3144TIP3    H1 9365   6.991   2.469   2.093
 3144TIP3    H2 9366   7.091   2.500   2.202
 3145TIP3   OH2 9367   7.216   2.180   2.828
 3145TIP3    H1 9368   7.311   2.179   2.843
 3145TIP3    H2 9369   7.184   2.100   2.870
 3146TIP3   OH2 9370   7.176   1.893   2.195
 3146TIP3    H1 9371   7.231   1.815   2.196
 3146TIP3    H2 9372   7.238   1.966   2.189
 3147TIP3   OH2 9373   6.972   2.159   2.241
 3147TIP3    H1 9374   7.024   2.155   2.161
 3147TIP3    H2 9375   7.012   2.228   2.293
 3148TIP3   OH2 9376   6.959   1.671   1.788
 3148TIP3    H1 9377   6.867   1.658   1.814
 3148TIP3    H2 9378   6.954   1.733   1.716
 3149TIP3   OH2 9379   7.182   1.714   2.566
 3149TIP3    H1 9380   7.136   1.720   2.650
 3149TIP3    H2 9381   7.128   1.766   2.506
 3150TIP3   OH2 9382   7.216   3.174   2.641
 3150TIP3    H1 9383   7.122   3.156   2.633
 3150TIP3    H2 9384   7.234   3.164   2.735
 3151TIP3   OH2 9385   7.419   3.215   2.187
 3151TIP3    H1 9386   7.364   3.286   2.154
 3151TIP3    H2 9387   7.504   3.229   2.145
 3152TIP3   OH2 9388   7.857   3.449   2.322
 3152TIP3    H1 9389   7.892   3.441   2.411
 3152TIP3    H2 9390   7.920   3.506   2.277
 3153TIP3   OH2 9391   8.029   3.646   2.197
 3153TIP3    H1 9392   8.051   3.704   2.124
 3153TIP3    H2 9393   8.073   3.685   2.273
 3154TIP3   OH2 9394   7.081   3.465   2.236
 3154TIP3    H1 9395   6.990   3.482   2.214
 3154TIP3    H2 9396   7.103   3.531   2.302
 3155TIP3   OH2 9397   7.302   3.439   2.078
 3155TIP3    H1 9398   7.222   3.448   2.130
 3155TIP3    H2 9399   7.278   3.473   1.992
 3156TIP3   OH2 9400   7.719   3.484   1.887
 3156TIP3    H1 9401   7.640   3.504   1.836
 3156TIP3    H2 9402   7.734   3.564   1.939
 3157TIP3   OH2 9403   7.945   3.368   1.789
 3157TIP3    H1 9404   7.867   3.408   1.826
 3157TIP3    H2 9405   8.016   3.393   1.849
 3158TIP3   OH2 9406   7.003   3.246   1.947
 3158TIP3    H1 9407   7.020   3.220   2.037
 3158TIP3    H2 9408   7.076   3.210   1.897
 3159TIP3   OH2 9409   7.202   3.123   1.808
 3159TIP3    H1 9410   7.208   3.041   1.857
 3159TIP3    H2 9411   7.288   3.165   1.821
 3160TIP3   OH2 9412   7.466   3.216   1.835
 3160TIP3    H1 9413   7.482   3.122   1.825
 3160TIP3    H2 9414   7.519   3.241   1.910
 3161TIP3   OH2 9415   7.260   1.572   1.914
 3161TIP3    H1 9416   7.174   1.535   1.936
 3161TIP3    H2 9417   7.319   1.497   1.917
 3162TIP3   OH2 9418   7.060   1.491   1.609
 3162TIP3    H1 9419   6.973   1.520   1.581
 3162TIP3    H2 9420   7.072   1.533   1.694
 3163TIP3   OH2 9421   6.763   3.044   1.343
 3163TIP3    H1 9422   6.681   3.008   1.308
 3163TIP3    H2 9423   6.764   3.135   1.312
 3164TIP3   OH2 9424   7.325   1.550   1.419
 3164TIP3    H1 9425   7.379   1.534   1.342
 3164TIP3    H2 9426   7.360   1.631   1.457
 3165TIP3   OH2 9427   7.579   3.253   0.944
 3165TIP3    H1 9428   7.631   3.318   0.897
 3165TIP3    H2 9429   7.569   3.180   0.883
 3166TIP3   OH2 9430   7.475   1.850   2.795
 3166TIP3    H1 9431   7.436   1.781   2.849
 3166TIP3    H2 9432   7.565   1.856   2.825
 3167TIP3   OH2 9433   7.710   1.854   2.941
 3167TIP3    H1 9434   7.798   1.838   2.907
 3167TIP3    H2 9435   7.698   1.789   3.010
 3168TIP3   OH2 9436   6.851   3.056   1.020
 3168TIP3    H1 9437   6.840   3.092   1.107
 3168TIP3    H2 9438   6.940   3.019   1.021
 3169TIP3   OH2 9439   0.427   3.387   3.172
 3169TIP3    H1 9440   0.400   3.473   3.140
 3169TIP3    H2 9441   0.352   3.330   3.152
 3170TIP3   OH2 9442   0.440   3.371   3.582
 3170TIP3    H1 9443   0.487   3.352   3.663
 3170TIP3    H2 9444   0.396   3.289   3.561
 3171TIP3   OH2 9445   8.304   3.247   3.934
 3171TIP3    H1 9446   8.209   3.255   3.941
 3171TIP3    H2 9447   8.338   3.307   4.001
 3172TIP3   OH2 9448   0.687   3.692   3.261
 3172TIP3    H1 9449   0.675   3.625   3.328
 3172TIP3    H2 9450   0.708   3.771   3.310
 3173TIP3   OH2 9451   8.169   3.713   3.512
 3173TIP3    H1 9452   8.090   3.660   3.506
 3173TIP3    H2 9453   8.234   3.654   3.550
 3174TIP3   OH2 9454   7.961   3.132   3.606
 3174TIP3    H1 9455   8.033   3.080   3.643
 3174TIP3    H2 9456   7.969   3.119   3.511
 3175TIP3   OH2 9457   0.346   4.124   3.290
 3175TIP3    H1 9458   0.372   4.066   3.218
 3175TIP3    H2 9459   0.351   4.069   3.368
 3176TIP3   OH2 9460   0.278   3.590   3.620
 3176TIP3    H1 9461   0.324   3.511   3.592
 3176TIP3    H2 9462   0.348   3.651   3.643
 3177TIP3   OH2 9463   1.257   2.928   3.608
 3177TIP3    H1 9464   1.275   3.011   3.651
 3177TIP3    H2 9465   1.277   2.944   3.515
 3178TIP3   OH2 9466   0.645   3.097   3.627
 3178TIP3    H1 9467   0.674   3.010   3.654
 3178TIP3    H2 9468   0.604   3.083   3.541
 3179TIP3   OH2 9469   8.506   2.751   3.571
 3179TIP3    H1 9470   8.490   2.825   3.514
 3179TIP3    H2 9471   8.449   2.682   3.539
 3180TIP3   OH2 9472   0.686   2.856   3.221
 3180TIP3    H1 9473   0.749   2.848   3.292
 3180TIP3    H2 9474   0.737   2.891   3.147
 3181TIP3   OH2 9475   8.148   2.960   3.704
 3181TIP3    H1 9476   8.223   2.949   3.763
 3181TIP3    H2 9477   8.178   2.927   3.620
 3182TIP3   OH2 9478   0.091   3.179   3.461
 3182TIP3    H1 9479   0.179   3.156   3.491
 3182TIP3    H2 9480   0.050   3.094   3.443
 3183TIP3   OH2 9481   1.316   3.146   3.774
 3183TIP3    H1 9482   1.229   3.185   3.767
 3183TIP3    H2 9483   1.353   3.183   3.854
 3184TIP3   OH2 9484   8.522   2.750   4.013
 3184TIP3    H1 9485   8.463   2.793   3.951
 3184TIP3    H2 9486   8.482   2.764   4.099
 3185TIP3   OH2 9487   0.340   3.593   3.010
 3185TIP3    H1 9488   0.303   3.566   2.926
 3185TIP3    H2 9489   0.289   3.671   3.034
 3186TIP3   OH2 9490   0.102   3.510   3.812
 3186TIP3    H1 9491   0.051   3.577   3.858
 3186TIP3    H2 9492   0.154   3.559   3.748
 3187TIP3   OH2 9493   0.848   2.875   3.440
 3187TIP3    H1 9494   0.805   2.853   3.523
 3187TIP3    H2 9495   0.903   2.951   3.461
 3188TIP3   OH2 9496   8.392   2.860   3.795
 3188TIP3    H1 9497   8.446   2.937   3.816
 3188TIP3    H2 9498   8.439   2.817   3.724
 3189TIP3   OH2 9499   8.447   3.693   3.945
 3189TIP3    H1 9500   8.435   3.735   3.859
 3189TIP3    H2 9501   8.361   3.654   3.964
 3190TIP3   OH2 9502   0.722   3.939   3.401
 3190TIP3    H1 9503   0.633   3.929   3.435
 3190TIP3    H2 9504   0.720   4.023   3.355
 3191TIP3   OH2 9505   1.056   2.813   3.774
 3191TIP3    H1 9506   0.970   2.838   3.740
 3191TIP3    H2 9507   1.117   2.843   3.706
 3192TIP3   OH2 9508   0.325   2.442   3.759
 3192TIP3    H1 9509   0.316   2.350   3.781
 3192TIP3    H2 9510   0.247   2.483   3.796
 3193TIP3   OH2 9511   0.441   3.983   3.069
 3193TIP3    H1 9512   0.492   3.903   3.058
 3193TIP3    H2 9513   0.496   4.052   3.032
 3194TIP3   OH2 9514   0.571   3.750   3.017
 3194TIP3    H1 9515   0.504   3.683   3.007
 3194TIP3    H2 9516   0.621   3.723   3.094
 3195TIP3   OH2 9517   0.963   3.833   3.740
 3195TIP3    H1 9518   0.946   3.758   3.683
 3195TIP3    H2 9519   0.945   3.909   3.685
 3196TIP3   OH2 9520   0.246   3.238   3.015
 3196TIP3    H1 9521   0.168   3.289   2.995
 3196TIP3    H2 9522   0.297   3.238   2.933
 3197TIP3   OH2 9523   0.229   3.039   2.729
 3197TIP3    H1 9524   0.298   3.090   2.771
 3197TIP3    H2 9525   0.275   2.966   2.688
 3198TIP3   OH2 9526   1.143   3.488   3.610
 3198TIP3    H1 9527   1.058   3.533   3.609
 3198TIP3    H2 9528   1.179   3.503   3.523
 3199TIP3   OH2 9529   0.612   3.330   2.980
 3199TIP3    H1 9530   0.556   3.353   3.054
 3199TIP3    H2 9531   0.694   3.302   3.019
 3200TIP3   OH2 9532   0.838   3.351   3.918
 3200TIP3    H1 9533   0.834   3.434   3.966
 3200TIP3    H2 9534   0.755   3.346   3.871
 3201TIP3   OH2 9535   8.346   3.289   3.412
 3201TIP3    H1 9536   8.310   3.244   3.336
 3201TIP3    H2 9537   8.433   3.250   3.423
 3202TIP3   OH2 9538   0.050   3.606   3.471
 3202TIP3    H1 9539  -0.016   3.581   3.536
 3202TIP3    H2 9540   0.133   3.601   3.517
 3203TIP3   OH2 9541   0.005   3.277   3.705
 3203TIP3    H1 9542   0.046   3.268   3.619
 3203TIP3    H2 9543   0.035   3.363   3.737
 3204TIP3   OH2 9544   0.480   3.923   3.525
 3204TIP3    H1 9545   0.481   4.003   3.576
 3204TIP3    H2 9546   0.481   3.853   3.591
 3205TIP3   OH2 9547   0.129   3.831   4.089
 3205TIP3    H1 9548   0.088   3.917   4.097
 3205TIP3    H2 9549   0.063   3.776   4.047
 3206TIP3   OH2 9550   0.443   3.192   2.814
 3206TIP3    H1 9551   0.503   3.250   2.862
 3206TIP3    H2 9552   0.469   3.201   2.723
 3207TIP3   OH2 9553   8.383   3.401   4.143
 3207TIP3    H1 9554   8.396   3.495   4.135
 3207TIP3    H2 9555   8.335   3.391   4.226
 3208TIP3   OH2 9556   0.212   3.832   3.042
 3208TIP3    H1 9557   0.285   3.890   3.062
 3208TIP3    H2 9558   0.138   3.870   3.088
 3209TIP3   OH2 9559   8.339   4.137   4.166
 3209TIP3    H1 9560   8.405   4.115   4.101
 3209TIP3    H2 9561   8.332   4.059   4.221
 3210TIP3   OH2 9562   0.951   2.408   2.869
 3210TIP3    H1 9563   0.871   2.428   2.918
 3210TIP3    H2 9564   0.965   2.484   2.813
 3211TIP3   OH2 9565   8.228   3.151   3.191
 3211TIP3    H1 9566   8.146   3.200   3.185
 3211TIP3    H2 9567   8.201   3.061   3.211
 3212TIP3   OH2 9568   0.768   3.779   2.419
 3212TIP3    H1 9569   0.765   3.872   2.396
 3212TIP3    H2 9570   0.858   3.752   2.397
 3213TIP3   OH2 9571   1.192   4.191   3.808
 3213TIP3    H1 9572   1.197   4.096   3.821
 3213TIP3    H2 9573   1.113   4.218   3.857
 3214TIP3   OH2 9574   0.316   3.939   3.920
 3214TIP3    H1 9575   0.320   4.032   3.944
 3214TIP3    H2 9576   0.248   3.902   3.976
 3215TIP3   OH2 9577   0.060   4.063   2.863
 3215TIP3    H1 9578   0.025   4.068   2.774
 3215TIP3    H2 9579   0.051   4.152   2.897
 3216TIP3   OH2 9580   0.297   4.008   2.524
 3216TIP3    H1 9581   0.346   3.933   2.489
 3216TIP3    H2 9582   0.323   4.012   2.616
 3217TIP3   OH2 9583   0.327   4.033   2.800
 3217TIP3    H1 9584   0.236   4.032   2.830
 3217TIP3    H2 9585   0.376   3.994   2.873
 3218TIP3   OH2 9586   1.078   3.311   4.086
 3218TIP3    H1 9587   0.997   3.320   4.035
 3218TIP3    H2 9588   1.098   3.217   4.082
 3219TIP3   OH2 9589   0.092   2.527   3.874
 3219TIP3    H1 9590   0.004   2.499   3.848
 3219TIP3    H2 9591   0.077   2.610   3.921
 3220TIP3   OH2 9592   0.623   2.659   4.090
 3220TIP3    H1 9593   0.691   2.635   4.153
 3220TIP3    H2 9594   0.541   2.643   4.137
 3221TIP3   OH2 9595   0.840   3.085   4.004
 3221TIP3    H1 9596   0.799   3.079   4.090
 3221TIP3    H2 9597   0.823   3.174   3.974
 3222TIP3   OH2 9598   0.516   3.189   2.553
 3222TIP3    H1 9599   0.470   3.181   2.469
 3222TIP3    H2 9600   0.599   3.230   2.531
 3223TIP3   OH2 9601   0.221   2.631   2.853
 3223TIP3    H1 9602   0.194   2.616   2.944
 3223TIP3    H2 9603   0.173   2.565   2.803
 3224TIP3   OH2 9604   0.049   3.070   3.873
 3224TIP3    H1 9605   0.010   3.085   3.960
 3224TIP3    H2 9606   0.026   3.147   3.822
 3225TIP3   OH2 9607   8.437   2.959   3.406
 3225TIP3    H1 9608   8.347   2.941   3.431
 3225TIP3    H2 9609   8.446   2.924   3.317
 3226TIP3   OH2 9610   0.381   3.036   3.148
 3226TIP3    H1 9611   0.329   3.106   3.108
 3226TIP3    H2 9612   0.439   3.006   3.078
 3227TIP3   OH2 9613   0.576   3.293   4.224
 3227TIP3    H1 9614   0.549   3.226   4.286
 3227TIP3    H2 9615   0.668   3.309   4.244
 3228TIP3   OH2 9616   0.545   3.044   3.376
 3228TIP3    H1 9617   0.478   3.069   3.312
 3228TIP3    H2 9618   0.590   2.970   3.335
 3229TIP3   OH2 9619   8.442   3.060   4.125
 3229TIP3    H1 9620   8.387   3.116   4.178
 3229TIP3    H2 9621   8.442   2.975   4.171
 3230TIP3   OH2 9622   7.931   2.564   3.737
 3230TIP3    H1 9623   8.014   2.608   3.752
 3230TIP3    H2 9624   7.915   2.574   3.643
 3231TIP3   OH2 9625   0.587   3.292   3.805
 3231TIP3    H1 9626   0.614   3.226   3.742
 3231TIP3    H2 9627   0.545   3.243   3.876
 3232TIP3   OH2 9628   0.268   2.748   3.471
 3232TIP3    H1 9629   0.187   2.745   3.522
 3232TIP3    H2 9630   0.338   2.738   3.536
 3233TIP3   OH2 9631   8.200   2.842   3.460
 3233TIP3    H1 9632   8.108   2.840   3.436
 3233TIP3    H2 9633   8.229   2.751   3.454
 3234TIP3   OH2 9634   8.433   2.830   3.167
 3234TIP3    H1 9635   8.527   2.840   3.149
 3234TIP3    H2 9636   8.391   2.848   3.083
 3235TIP3   OH2 9637   0.707   2.832   3.679
 3235TIP3    H1 9638   0.688   2.849   3.772
 3235TIP3    H2 9639   0.638   2.771   3.652
 3236TIP3   OH2 9640   8.296   2.876   2.938
 3236TIP3    H1 9641   8.208   2.912   2.927
 3236TIP3    H2 9642   8.342   2.902   2.858
 3237TIP3   OH2 9643   0.909   4.539   3.901
 3237TIP3    H1 9644   0.904   4.557   3.808
 3237TIP3    H2 9645   0.988   4.585   3.931
 3238TIP3   OH2 9646   8.361   3.669   4.267
 3238TIP3    H1 9647   8.433   3.616   4.302
 3238TIP3    H2 9648   8.290   3.657   4.329
 3239TIP3   OH2 9649   0.332   3.106   3.571
 3239TIP3    H1 9650   0.395   3.053   3.523
 3239TIP3    H2 9651   0.328   3.065   3.658
 3240TIP3   OH2 9652   8.311   2.588   3.456
 3240TIP3    H1 9653   8.288   2.508   3.503
 3240TIP3    H2 9654   8.332   2.559   3.367
 3241TIP3   OH2 9655   0.312   3.009   3.833
 3241TIP3    H1 9656   0.222   3.037   3.849
 3241TIP3    H2 9657   0.365   3.065   3.891
 3242TIP3   OH2 9658   8.519   3.408   2.951
 3242TIP3    H1 9659   8.462   3.334   2.933
 3242TIP3    H2 9660   8.501   3.430   3.043
 3243TIP3   OH2 9661   0.906   3.626   3.567
 3243TIP3    H1 9662   0.941   3.674   3.492
 3243TIP3    H2 9663   0.827   3.583   3.532
 3244TIP3   OH2 9664   0.484   2.703   2.857
 3244TIP3    H1 9665   0.389   2.690   2.853
 3244TIP3    H2 9666   0.495   2.797   2.874
 3245TIP3   OH2 9667   0.438   3.690   3.976
 3245TIP3    H1 9668   0.465   3.686   4.068
 3245TIP3    H2 9669   0.393   3.774   3.967
 3246TIP3   OH2 9670   0.547   2.961   2.934
 3246TIP3    H1 9671   0.642   2.964   2.946
 3246TIP3    H2 9672   0.527   3.039   2.884
 3247TIP3   OH2 9673   8.324   3.502   3.592
 3247TIP3    H1 9674   8.331   3.440   3.519
 3247TIP3    H2 9675   8.286   3.450   3.663
 3248TIP3   OH2 9676   0.190   3.531   2.778
 3248TIP3    H1 9677   0.153   3.620   2.773
 3248TIP3    H2 9678   0.130   3.484   2.836
 3249TIP3   OH2 9679   0.349   3.442   4.272
 3249TIP3    H1 9680   0.279   3.389   4.234
 3249TIP3    H2 9681   0.429   3.400   4.242
 3250TIP3   OH2 9682   0.587   3.990   3.856
 3250TIP3    H1 9683   0.494   3.966   3.858
 3250TIP3    H2 9684   0.604   4.026   3.943
 3251TIP3   OH2 9685   0.960   3.041   2.754
 3251TIP3    H1 9686   0.903   2.995   2.692
 3251TIP3    H2 9687   0.965   3.131   2.721
 3252TIP3   OH2 9688   1.207   3.911   3.834
 3252TIP3    H1 9689   1.112   3.897   3.828
 3252TIP3    H2 9690   1.241   3.881   3.750
 3253TIP3   OH2 9691   0.694   3.854   2.685
 3253TIP3    H1 9692   0.664   3.787   2.745
 3253TIP3    H2 9693   0.710   3.807   2.603
 3254TIP3   OH2 9694   0.679   3.490   3.465
 3254TIP3    H1 9695   0.590   3.467   3.493
 3254TIP3    H2 9696   0.714   3.410   3.426
 3255TIP3   OH2 9697   8.250   3.677   3.217
 3255TIP3    H1 9698   8.318   3.705   3.155
 3255TIP3    H2 9699   8.169   3.713   3.182
 3256TIP3   OH2 9700   7.482   1.302   1.473
 3256TIP3    H1 9701   7.561   1.338   1.434
 3256TIP3    H2 9702   7.439   1.377   1.515
 3257TIP3   OH2 9703   8.439   3.463   3.201
 3257TIP3    H1 9704   8.391   3.544   3.223
 3257TIP3    H2 9705   8.442   3.415   3.284
 3258TIP3   OH2 9706   0.138   4.012   3.705
 3258TIP3    H1 9707   0.171   4.097   3.678
 3258TIP3    H2 9708   0.203   3.978   3.766
 3259TIP3   OH2 9709   8.244   3.980   3.084
 3259TIP3    H1 9710   8.164   3.972   3.137
 3259TIP3    H2 9711   8.277   4.067   3.106
 3260TIP3   OH2 9712   0.508   3.710   3.709
 3260TIP3    H1 9713   0.489   3.698   3.802
 3260TIP3    H2 9714   0.593   3.668   3.696
 3261TIP3   OH2 9715   0.453   3.590   2.582
 3261TIP3    H1 9716   0.513   3.566   2.653
 3261TIP3    H2 9717   0.368   3.556   2.609
 3262TIP3   OH2 9718   0.724   4.223   3.751
 3262TIP3    H1 9719   0.655   4.158   3.758
 3262TIP3    H2 9720   0.701   4.275   3.674
 3263TIP3   OH2 9721   0.777   4.050   2.368
 3263TIP3    H1 9722   0.788   4.107   2.291
 3263TIP3    H2 9723   0.709   4.092   2.420
 3264TIP3   OH2 9724   8.397   2.818   4.243
 3264TIP3    H1 9725   8.321   2.778   4.200
 3264TIP3    H2 9726   8.401   2.774   4.328
 3265TIP3   OH2 9727   0.634   3.513   2.770
 3265TIP3    H1 9728   0.617   3.460   2.848
 3265TIP3    H2 9729   0.729   3.516   2.763
 3266TIP3   OH2 9730   8.351   3.530   2.559
 3266TIP3    H1 9731   8.390   3.454   2.516
 3266TIP3    H2 9732   8.270   3.496   2.599
 3267TIP3   OH2 9733   8.204   3.578   2.801
 3267TIP3    H1 9734   8.291   3.544   2.784
 3267TIP3    H2 9735   8.218   3.670   2.826
 3268TIP3   OH2 9736   7.939   3.260   3.139
 3268TIP3    H1 9737   7.953   3.342   3.187
 3268TIP3    H2 9738   7.988   3.270   3.058
 3269TIP3   OH2 9739   0.653   2.888   3.941
 3269TIP3    H1 9740   0.730   2.934   3.975
 3269TIP3    H2 9741   0.644   2.812   3.998
 3270TIP3   OH2 9742   0.537   2.641   3.125
 3270TIP3    H1 9743   0.517   2.662   3.034
 3270TIP3    H2 9744   0.580   2.720   3.158
 3271TIP3   OH2 9745   0.076   3.776   2.784
 3271TIP3    H1 9746   0.088   3.801   2.875
 3271TIP3    H2 9747   0.059   3.858   2.738
 3272TIP3   OH2 9748   0.210   2.831   3.213
 3272TIP3    H1 9749   0.268   2.904   3.190
 3272TIP3    H2 9750   0.227   2.814   3.305
 3273TIP3   OH2 9751   0.498   3.127   4.004
 3273TIP3    H1 9752   0.521   3.173   4.085
 3273TIP3    H2 9753   0.546   3.045   4.009
 3274TIP3   OH2 9754   0.358   2.539   3.309
 3274TIP3    H1 9755   0.335   2.616   3.361
 3274TIP3    H2 9756   0.424   2.570   3.248
 3275TIP3   OH2 9757   8.237   3.838   2.849
 3275TIP3    H1 9758   8.241   3.897   2.773
 3275TIP3    H2 9759   8.229   3.897   2.924
 3276TIP3   OH2 9760   8.380   2.559   3.191
 3276TIP3    H1 9761   8.380   2.655   3.183
 3276TIP3    H2 9762   8.465   2.533   3.156
 3277TIP3   OH2 9763   1.106   3.042   3.992
 3277TIP3    H1 9764   1.011   3.044   4.000
 3277TIP3    H2 9765   1.122   2.995   3.909
 3278TIP3   OH2 9766   0.768   3.233   3.375
 3278TIP3    H1 9767   0.690   3.179   3.386
 3278TIP3    H2 9768   0.834   3.192   3.431
 3279TIP3   OH2 9769   7.947   3.580   2.899
 3279TIP3    H1 9770   8.027   3.577   2.846
 3279TIP3    H2 9771   7.877   3.564   2.836
 3280TIP3   OH2 9772   0.747   4.205   3.317
 3280TIP3    H1 9773   0.706   4.258   3.249
 3280TIP3    H2 9774   0.841   4.216   3.303
 3281TIP3   OH2 9775   8.323   2.462   3.845
 3281TIP3    H1 9776   8.302   2.422   3.761
 3281TIP3    H2 9777   8.330   2.388   3.906
 3282TIP3   OH2 9778   0.099   4.237   4.243
 3282TIP3    H1 9779   0.150   4.268   4.318
 3282TIP3    H2 9780   0.012   4.217   4.280
 3283TIP3   OH2 9781   8.472   3.760   2.472
 3283TIP3    H1 9782   8.435   3.685   2.519
 3283TIP3    H2 9783   8.553   3.725   2.433
 3284TIP3   OH2 9784   0.637   4.085   4.109
 3284TIP3    H1 9785   0.646   4.020   4.179
 3284TIP3    H2 9786   0.710   4.146   4.123
 3285TIP3   OH2 9787   0.414   3.793   2.401
 3285TIP3    H1 9788   0.444   3.727   2.463
 3285TIP3    H2 9789   0.474   3.785   2.327
 3286TIP3   OH2 9790   8.196   3.303   2.654
 3286TIP3    H1 9791   8.204   3.233   2.717
 3286TIP3    H2 9792   8.258   3.281   2.584
 3287TIP3   OH2 9793   0.302   3.713   4.265
 3287TIP3    H1 9794   0.242   3.729   4.192
 3287TIP3    H2 9795   0.320   3.619   4.260
 3288TIP3   OH2 9796   0.176   3.467   2.514
 3288TIP3    H1 9797   0.170   3.485   2.608
 3288TIP3    H2 9798   0.169   3.372   2.507
 3289TIP3   OH2 9799   0.747   3.764   3.895
 3289TIP3    H1 9800   0.825   3.793   3.848
 3289TIP3    H2 9801   0.683   3.834   3.880
 3290TIP3   OH2 9802   8.381   3.306   4.580
 3290TIP3    H1 9803   8.339   3.342   4.502
 3290TIP3    H2 9804   8.422   3.381   4.622
 3291TIP3   OH2 9805   8.359   3.191   2.930
 3291TIP3    H1 9806   8.321   3.166   3.015
 3291TIP3    H2 9807   8.376   3.108   2.886
 3292TIP3   OH2 9808   0.139   3.294   4.171
 3292TIP3    H1 9809   0.047   3.315   4.154
 3292TIP3    H2 9810   0.183   3.304   4.087
 3293TIP3   OH2 9811   8.455   2.981   2.740
 3293TIP3    H1 9812   8.455   2.946   2.651
 3293TIP3    H2 9813   8.546   3.004   2.757
 3294TIP3   OH2 9814   0.631   3.659   4.270
 3294TIP3    H1 9815   0.690   3.615   4.209
 3294TIP3    H2 9816   0.623   3.598   4.343
 3295TIP3   OH2 9817   0.742   3.302   2.436
 3295TIP3    H1 9818   0.728   3.258   2.352
 3295TIP3    H2 9819   0.714   3.392   2.422
 3296TIP3   OH2 9820   0.246   3.050   4.256
 3296TIP3    H1 9821   0.251   2.976   4.195
 3296TIP3    H2 9822   0.201   3.118   4.207
 3297TIP3   OH2 9823   0.270   2.845   4.064
 3297TIP3    H1 9824   0.302   2.882   3.981
 3297TIP3    H2 9825   0.182   2.814   4.043
 3298TIP3   OH2 9826   0.277   3.354   3.947
 3298TIP3    H1 9827   0.361   3.390   3.922
 3298TIP3    H2 9828   0.213   3.404   3.897
 3299TIP3   OH2 9829   0.839   3.324   4.324
 3299TIP3    H1 9830   0.881   3.239   4.335
 3299TIP3    H2 9831   0.910   3.383   4.299
 3300TIP3   OH2 9832   0.864   3.591   4.066
 3300TIP3    H1 9833   0.810   3.651   4.014
 3300TIP3    H2 9834   0.953   3.605   4.034
 3301TIP3   OH2 9835   0.137   3.134   4.498
 3301TIP3    H1 9836   0.094   3.050   4.514
 3301TIP3    H2 9837   0.167   3.129   4.407
 3302TIP3   OH2 9838   0.363   2.606   4.173
 3302TIP3    H1 9839   0.327   2.687   4.138
 3302TIP3    H2 9840   0.297   2.540   4.155
 3303TIP3   OH2 9841   0.490   3.084   4.378
 3303TIP3    H1 9842   0.475   3.069   4.471
 3303TIP3    H2 9843   0.406   3.065   4.337
 3304TIP3   OH2 9844   0.727   3.031   4.241
 3304TIP3    H1 9845   0.649   3.034   4.298
 3304TIP3    H2 9846   0.798   3.009   4.301
 3305TIP3   OH2 9847   0.959   3.001   4.394
 3305TIP3    H1 9848   0.973   2.906   4.401
 3305TIP3    H2 9849   0.955   3.031   4.485
 3306TIP3   OH2 9850   0.038   2.889   4.563
 3306TIP3    H1 9851   0.032   2.809   4.510
 3306TIP3    H2 9852   0.063   2.858   4.650
 3307TIP3   OH2 9853   0.425   2.582   4.438
 3307TIP3    H1 9854   0.494   2.516   4.429
 3307TIP3    H2 9855   0.393   2.595   4.349
 3308TIP3   OH2 9856   0.517   2.800   4.581
 3308TIP3    H1 9857   0.486   2.730   4.524
 3308TIP3    H2 9858   0.446   2.864   4.581
 3309TIP3   OH2 9859   8.260   4.001   2.634
 3309TIP3    H1 9860   8.350   4.019   2.608
 3309TIP3    H2 9861   8.207   4.063   2.584
 3310TIP3   OH2 9862   1.018   4.257   3.308
 3310TIP3    H1 9863   1.034   4.285   3.398
 3310TIP3    H2 9864   1.067   4.320   3.255
 3311TIP3   OH2 9865   1.032   4.292   3.588
 3311TIP3    H1 9866   0.983   4.210   3.583
 3311TIP3    H2 9867   1.102   4.275   3.651
 3312TIP3   OH2 9868   1.087   3.992   4.154
 3312TIP3    H1 9869   1.014   3.999   4.216
 3312TIP3    H2 9870   1.131   4.077   4.158
 3313TIP3   OH2 9871   0.911   3.506   2.767
 3313TIP3    H1 9872   0.970   3.576   2.739
 3313TIP3    H2 9873   0.954   3.467   2.843
 3314TIP3   OH2 9874   1.035   3.363   2.970
 3314TIP3    H1 9875   0.968   3.324   3.025
 3314TIP3    H2 9876   1.099   3.398   3.031
 3315TIP3   OH2 9877   1.082   3.764   3.401
 3315TIP3    H1 9878   1.135   3.696   3.360
 3315TIP3    H2 9879   1.082   3.836   3.338
 3316TIP3   OH2 9880   0.889   4.054   3.593
 3316TIP3    H1 9881   0.821   4.095   3.647
 3316TIP3    H2 9882   0.841   4.012   3.522
 3317TIP3   OH2 9883   0.950   3.280   2.615
 3317TIP3    H1 9884   0.878   3.278   2.552
 3317TIP3    H2 9885   0.933   3.357   2.668
 3318TIP3   OH2 9886   0.808   2.933   2.556
 3318TIP3    H1 9887   0.751   2.962   2.485
 3318TIP3    H2 9888   0.807   2.837   2.551
 3319TIP3   OH2 9889   0.836   3.223   3.107
 3319TIP3    H1 9890   0.840   3.128   3.093
 3319TIP3    H2 9891   0.817   3.233   3.200
 3320TIP3   OH2 9892   1.119   3.642   3.967
 3320TIP3    H1 9893   1.183   3.573   3.951
 3320TIP3    H2 9894   1.135   3.707   3.899
 3321TIP3   OH2 9895   1.291   3.428   3.958
 3321TIP3    H1 9896   1.218   3.387   4.005
 3321TIP3    H2 9897   1.366   3.373   3.977
 3322TIP3   OH2 9898   0.787   2.661   2.537
 3322TIP3    H1 9899   0.844   2.632   2.607
 3322TIP3    H2 9900   0.700   2.629   2.562
 3323TIP3   OH2 9901   0.833   2.948   2.993
 3323TIP3    H1 9902   0.876   2.864   3.006
 3323TIP3    H2 9903   0.877   2.986   2.917
 3324TIP3   OH2 9904   0.982   3.109   3.514
 3324TIP3    H1 9905   1.063   3.127   3.467
 3324TIP3    H2 9906   0.995   3.149   3.600
 3325TIP3   OH2 9907   1.057   3.260   3.742
 3325TIP3    H1 9908   0.983   3.288   3.796
 3325TIP3    H2 9909   1.088   3.339   3.699
 3326TIP3   OH2 9910   8.158   2.862   4.686
 3326TIP3    H1 9911   8.210   2.919   4.629
 3326TIP3    H2 9912   8.076   2.848   4.638
 3327TIP3   OH2 9913   1.512   2.861   4.282
 3327TIP3    H1 9914   1.576   2.802   4.243
 3327TIP3    H2 9915   1.477   2.911   4.208
 3328TIP3   OH2 9916   0.942   2.696   3.043
 3328TIP3    H1 9917   0.987   2.680   3.126
 3328TIP3    H2 9918   0.879   2.624   3.036
 3329TIP3   OH2 9919   8.175   2.677   3.769
 3329TIP3    H1 9920   8.226   2.598   3.786
 3329TIP3    H2 9921   8.237   2.749   3.780
 3330TIP3   OH2 9922   1.367   2.980   4.086
 3330TIP3    H1 9923   1.288   3.021   4.120
 3330TIP3    H2 9924   1.336   2.907   4.032
 3331TIP3   OH2 9925   1.009   2.606   2.689
 3331TIP3    H1 9926   1.052   2.546   2.628
 3331TIP3    H2 9927   1.064   2.684   2.689
 3332TIP3   OH2 9928   0.583   4.175   2.946
 3332TIP3    H1 9929   0.635   4.161   2.867
 3332TIP3    H2 9930   0.628   4.246   2.992
 3333TIP3   OH2 9931   8.013   2.562   4.364
 3333TIP3    H1 9932   7.931   2.526   4.399
 3333TIP3    H2 9933   8.025   2.516   4.281
 3334TIP3   OH2 9934   8.353   3.986   3.898
 3334TIP3    H1 9935   8.331   4.049   3.829
 3334TIP3    H2 9936   8.442   4.010   3.924
 3335TIP3   OH2 9937   0.343   4.202   3.980
 3335TIP3    H1 9938   0.364   4.206   4.074
 3335TIP3    H2 9939   0.408   4.257   3.938
 3336TIP3   OH2 9940   0.517   4.385   3.879
 3336TIP3    H1 9941   0.594   4.341   3.843
 3336TIP3    H2 9942   0.553   4.450   3.939
 3337TIP3   OH2 9943   1.274   2.737   3.973
 3337TIP3    H1 9944   1.189   2.738   3.929
 3337TIP3    H2 9945   1.304   2.646   3.967
 3338TIP3   OH2 9946   8.344   4.176   3.692
 3338TIP3    H1 9947   8.252   4.201   3.703
 3338TIP3    H2 9948   8.347   4.133   3.606
 3339TIP3   OH2 9949   0.220   4.246   3.575
 3339TIP3    H1 9950   0.221   4.271   3.482
 3339TIP3    H2 9951   0.230   4.329   3.622
 3340TIP3   OH2 9952   0.480   4.180   3.617
 3340TIP3    H1 9953   0.387   4.200   3.612
 3340TIP3    H2 9954   0.523   4.255   3.575
 3341TIP3   OH2 9955   0.664   4.372   3.521
 3341TIP3    H1 9956   0.656   4.458   3.481
 3341TIP3    H2 9957   0.691   4.315   3.449
 3342TIP3   OH2 9958   8.184   3.978   3.464
 3342TIP3    H1 9959   8.160   3.886   3.478
 3342TIP3    H2 9960   8.273   3.974   3.429
 3343TIP3   OH2 9961   8.480   4.060   3.484
 3343TIP3    H1 9962   8.471   3.974   3.442
 3343TIP3    H2 9963   8.540   4.045   3.557
 3344TIP3   OH2 9964   0.489   2.652   3.616
 3344TIP3    H1 9965   0.448   2.579   3.662
 3344TIP3    H2 9966   0.556   2.610   3.561
 3345TIP3   OH2 9967   0.989   2.560   3.499
 3345TIP3    H1 9968   1.025   2.610   3.426
 3345TIP3    H2 9969   0.896   2.584   3.500
 3346TIP3   OH2 9970   1.102   2.643   3.263
 3346TIP3    H1 9971   1.171   2.583   3.236
 3346TIP3    H2 9972   1.139   2.730   3.250
 3347TIP3   OH2 9973   8.246   2.362   3.600
 3347TIP3    H1 9974   8.155   2.338   3.616
 3347TIP3    H2 9975   8.292   2.278   3.596
 3348TIP3   OH2 9976   0.202   2.397   3.501
 3348TIP3    H1 9977   0.251   2.446   3.435
 3348TIP3    H2 9978   0.242   2.422   3.585
 3349TIP3   OH2 9979   0.702   2.540   3.477
 3349TIP3    H1 9980   0.709   2.506   3.388
 3349TIP3    H2 9981   0.704   2.463   3.533
 3350TIP3   OH2 9982   0.756   2.486   3.049
 3350TIP3    H1 9983   0.675   2.533   3.070
 3350TIP3    H2 9984   0.744   2.399   3.087
 3351TIP3   OH2 9985   0.155   2.580   3.116
 3351TIP3    H1 9986   0.211   2.529   3.174
 3351TIP3    H2 9987   0.167   2.671   3.145
 3352TIP3   OH2 9988   0.031   3.999   2.593
 3352TIP3    H1 9989   0.119   4.020   2.562
 3352TIP3    H2 9990   0.008   3.919   2.545
 3353TIP3   OH2 9991   0.733   4.123   2.717
 3353TIP3    H1 9992   0.724   4.027   2.712
 3353TIP3    H2 9993   0.691   4.155   2.637
 3354TIP3   OH2 9994   8.491   2.627   4.461
 3354TIP3    H1 9995   8.419   2.618   4.524
 3354TIP3    H2 9996   8.570   2.613   4.513
 3355TIP3   OH2 9997   0.220   2.626   4.622
 3355TIP3    H1 9998   0.294   2.608   4.564
 3355TIP3    H2 9999   0.214   2.549   4.679
 3356TIP3   OH210000   1.022   2.730   4.404
 3356TIP3    H110001   1.038   2.701   4.494
 3356TIP3    H210002   1.108   2.724   4.362
 3357TIP3   OH210003   0.947   4.265   3.911
 3357TIP3    H110004   0.872   4.236   3.859
 3357TIP3    H210005   0.936   4.360   3.917
 3358TIP3   OH210006   2.221   3.637   2.656
 3358TIP3    H110007   2.193   3.725   2.629
 3358TIP3    H210008   2.149   3.580   2.630
 3359TIP3   OH210009   2.211   3.642   3.072
 3359TIP3    H110010   2.263   3.625   3.150
 3359TIP3    H210011   2.169   3.558   3.052
 3360TIP3   OH210012   1.514   3.511   3.420
 3360TIP3    H110013   1.549   3.456   3.491
 3360TIP3    H210014   1.591   3.538   3.371
 3361TIP3   OH210015   2.479   3.951   2.747
 3361TIP3    H110016   2.470   3.882   2.813
 3361TIP3    H210017   2.505   4.029   2.796
 3362TIP3   OH210018   1.504   3.931   3.108
 3362TIP3    H110019   1.486   3.837   3.116
 3362TIP3    H210020   1.599   3.936   3.103
 3363TIP3   OH210021   1.191   3.139   2.893
 3363TIP3    H110022   1.151   3.222   2.917
 3363TIP3    H210023   1.120   3.089   2.853
 3364TIP3   OH210024   1.265   3.444   3.110
 3364TIP3    H110025   1.314   3.366   3.137
 3364TIP3    H210026   1.333   3.505   3.081
 3365TIP3   OH210027   2.031   4.423   2.656
 3365TIP3    H110028   2.097   4.361   2.627
 3365TIP3    H210029   2.046   4.431   2.750
 3366TIP3   OH210030   2.022   3.865   3.080
 3366TIP3    H110031   2.065   3.784   3.052
 3366TIP3    H210032   2.094   3.921   3.111
 3367TIP3   OH210033   3.050   3.185   3.094
 3367TIP3    H110034   3.070   3.267   3.138
 3367TIP3    H210035   3.073   3.200   3.002
 3368TIP3   OH210036   2.428   3.354   3.113
 3368TIP3    H110037   2.465   3.270   3.141
 3368TIP3    H210038   2.393   3.337   3.026
 3369TIP3   OH210039   1.783   3.013   3.074
 3369TIP3    H110040   1.762   3.087   3.016
 3369TIP3    H210041   1.728   2.941   3.042
 3370TIP3   OH210042   2.480   3.112   2.707
 3370TIP3    H110043   2.544   3.105   2.778
 3370TIP3    H210044   2.531   3.146   2.633
 3371TIP3   OH210045   1.407   3.224   3.202
 3371TIP3    H110046   1.490   3.207   3.247
 3371TIP3    H210047   1.411   3.173   3.122
 3372TIP3   OH210048   1.832   3.426   3.014
 3372TIP3    H110049   1.926   3.409   3.022
 3372TIP3    H210050   1.795   3.344   2.980
 3373TIP3   OH210051   3.112   3.402   3.259
 3373TIP3    H110052   3.024   3.440   3.255
 3373TIP3    H210053   3.150   3.438   3.339
 3374TIP3   OH210054   1.765   3.013   3.525
 3374TIP3    H110055   1.714   3.049   3.452
 3374TIP3    H210056   1.711   3.029   3.602
 3375TIP3   OH210057   2.116   3.849   2.515
 3375TIP3    H110058   2.073   3.830   2.432
 3375TIP3    H210059   2.064   3.919   2.555
 3376TIP3   OH210060   1.863   3.790   3.294
 3376TIP3    H110061   1.808   3.860   3.329
 3376TIP3    H210062   1.912   3.830   3.222
 3377TIP3   OH210063   2.642   3.134   2.925
 3377TIP3    H110064   2.601   3.113   3.009
 3377TIP3    H210065   2.699   3.208   2.945
 3378TIP3   OH210066   1.653   3.121   3.295
 3378TIP3    H110067   1.708   3.196   3.319
 3378TIP3    H210068   1.700   3.079   3.223
 3379TIP3   OH210069   1.703   3.991   3.396
 3379TIP3    H110070   1.687   4.081   3.367
 3379TIP3    H210071   1.626   3.970   3.449
 3380TIP3   OH210072   1.083   3.695   2.650
 3380TIP3    H110073   1.045   3.712   2.564
 3380TIP3    H210074   1.106   3.782   2.683
 3381TIP3   OH210075   2.527   4.194   2.886
 3381TIP3    H110076   2.441   4.186   2.929
 3381TIP3    H210077   2.523   4.278   2.841
 3382TIP3   OH210078   2.852   3.069   3.261
 3382TIP3    H110079   2.766   3.096   3.228
 3382TIP3    H210080   2.914   3.099   3.194
 3383TIP3   OH210081   2.107   2.706   3.251
 3383TIP3    H110082   2.099   2.615   3.277
 3383TIP3    H210083   2.031   2.749   3.292
 3384TIP3   OH210084   2.206   4.233   2.547
 3384TIP3    H110085   2.256   4.152   2.545
 3384TIP3    H210086   2.267   4.300   2.516
 3385TIP3   OH210087   2.361   4.014   2.506
 3385TIP3    H110088   2.316   3.933   2.481
 3385TIP3    H210089   2.412   3.990   2.584
 3386TIP3   OH210090   2.753   4.091   3.229
 3386TIP3    H110091   2.738   4.015   3.173
 3386TIP3    H210092   2.741   4.166   3.171
 3387TIP3   OH210093   2.042   3.488   2.500
 3387TIP3    H110094   1.961   3.535   2.479
 3387TIP3    H210095   2.091   3.487   2.418
 3388TIP3   OH210096   2.018   3.294   2.198
 3388TIP3    H110097   2.083   3.345   2.247
 3388TIP3    H210098   2.069   3.228   2.152
 3389TIP3   OH210099   2.936   3.741   3.097
 3389TIP3    H110100   2.853   3.789   3.094
 3389TIP3    H210101   2.975   3.759   3.011
 3390TIP3   OH210102   2.404   3.583   2.461
 3390TIP3    H110103   2.350   3.605   2.537
 3390TIP3    H210104   2.487   3.554   2.498
 3391TIP3   OH210105   2.631   3.604   3.402
 3391TIP3    H110106   2.631   3.688   3.448
 3391TIP3    H210107   2.548   3.603   3.355
 3392TIP3   OH210108   1.632   3.560   2.868
 3392TIP3    H110109   1.594   3.499   2.805
 3392TIP3    H210110   1.704   3.512   2.908
 3393TIP3   OH210111   1.769   3.978   3.009
 3393TIP3    H110112   1.748   3.958   2.917
 3393TIP3    H210113   1.856   3.940   3.022
 3394TIP3   OH210114   1.732   3.554   3.241
 3394TIP3    H110115   1.772   3.518   3.162
 3394TIP3    H210116   1.782   3.634   3.259
 3395TIP3   OH210117   2.296   4.187   3.025
 3395TIP3    H110118   2.273   4.268   3.072
 3395TIP3    H210119   2.275   4.117   3.086
 3396TIP3   OH210120   1.903   4.093   3.560
 3396TIP3    H110121   1.844   4.150   3.609
 3396TIP3    H210122   1.845   4.040   3.505
 3397TIP3   OH210123   2.233   3.443   2.297
 3397TIP3    H110124   2.294   3.499   2.345
 3397TIP3    H210125   2.261   3.451   2.206
 3398TIP3   OH210126   1.660   3.646   3.693
 3398TIP3    H110127   1.663   3.738   3.719
 3398TIP3    H210128   1.567   3.625   3.688
 3399TIP3   OH210129   1.971   4.082   2.571
 3399TIP3    H110130   2.048   4.138   2.567
 3399TIP3    H210131   1.931   4.090   2.485
 3400TIP3   OH210132   1.692   4.250   3.647
 3400TIP3    H110133   1.665   4.258   3.555
 3400TIP3    H210134   1.610   4.235   3.694
 3401TIP3   OH210135   2.746   2.668   2.350
 3401TIP3    H110136   2.668   2.687   2.401
 3401TIP3    H210137   2.757   2.744   2.293
 3402TIP3   OH210138   1.504   3.403   2.668
 3402TIP3    H110139   1.426   3.450   2.637
 3402TIP3    H210140   1.473   3.314   2.685
 3403TIP3   OH210141   2.568   4.042   1.905
 3403TIP3    H110142   2.566   4.135   1.883
 3403TIP3    H210143   2.657   4.014   1.883
 3404TIP3   OH210144   1.284   3.805   3.595
 3404TIP3    H110145   1.215   3.785   3.533
 3404TIP3    H210146   1.319   3.719   3.620
 3405TIP3   OH210147   1.128   3.999   3.245
 3405TIP3    H110148   1.221   4.016   3.261
 3405TIP3    H210149   1.083   4.077   3.279
 3406TIP3   OH210150   2.984   4.444   3.298
 3406TIP3    H110151   2.990   4.350   3.311
 3406TIP3    H210152   2.905   4.470   3.345
 3407TIP3   OH210153   2.088   4.237   3.418
 3407TIP3    H110154   2.083   4.327   3.451
 3407TIP3    H210155   2.024   4.189   3.469
 3408TIP3   OH210156   1.829   4.370   2.389
 3408TIP3    H110157   1.848   4.348   2.297
 3408TIP3    H210158   1.741   4.336   2.404
 3409TIP3   OH210159   1.313   4.187   2.752
 3409TIP3    H110160   1.350   4.179   2.840
 3409TIP3    H210161   1.258   4.109   2.742
 3410TIP3   OH210162   2.077   4.265   2.001
 3410TIP3    H110163   2.127   4.191   1.965
 3410TIP3    H210164   2.117   4.281   2.087
 3411TIP3   OH210165   2.130   4.312   2.271
 3411TIP3    H110166   2.075   4.251   2.319
 3411TIP3    H210167   2.210   4.318   2.323
 3412TIP3   OH210168   2.873   3.568   3.576
 3412TIP3    H110169   2.792   3.572   3.526
 3412TIP3    H210170   2.895   3.475   3.579
 3413TIP3   OH210171   1.485   3.990   3.567
 3413TIP3    H110172   1.536   3.978   3.647
 3413TIP3    H210173   1.414   3.927   3.573
 3414TIP3   OH210174   1.871   2.799   3.380
 3414TIP3    H110175   1.787   2.767   3.347
 3414TIP3    H210176   1.849   2.879   3.426
 3415TIP3   OH210177   2.415   2.916   3.578
 3415TIP3    H110178   2.486   2.892   3.638
 3415TIP3    H210179   2.336   2.900   3.629
 3416TIP3   OH210180   2.632   3.339   3.489
 3416TIP3    H110181   2.592   3.336   3.576
 3416TIP3    H210182   2.619   3.429   3.460
 3417TIP3   OH210183   2.312   3.444   2.037
 3417TIP3    H110184   2.268   3.437   1.952
 3417TIP3    H210185   2.396   3.485   2.017
 3418TIP3   OH210186   2.017   2.846   2.346
 3418TIP3    H110187   1.984   2.851   2.436
 3418TIP3    H210188   1.985   2.762   2.314
 3419TIP3   OH210189   1.807   3.330   3.388
 3419TIP3    H110190   1.762   3.339   3.472
 3419TIP3    H210191   1.787   3.412   3.342
 3420TIP3   OH210192   1.689   3.212   2.909
 3420TIP3    H110193   1.600   3.187   2.935
 3420TIP3    H210194   1.699   3.176   2.821
 3421TIP3   OH210195   2.171   3.285   2.635
 3421TIP3    H110196   2.122   3.356   2.593
 3421TIP3    H210197   2.230   3.253   2.566
 3422TIP3   OH210198   2.356   3.554   3.711
 3422TIP3    H110199   2.329   3.486   3.773
 3422TIP3    H210200   2.447   3.571   3.733
 3423TIP3   OH210201   2.337   3.300   2.860
 3423TIP3    H110202   2.270   3.323   2.797
 3423TIP3    H210203   2.384   3.226   2.821
 3424TIP3   OH210204   1.643   3.344   3.609
 3424TIP3    H110205   1.671   3.404   3.678
 3424TIP3    H210206   1.625   3.261   3.654
 3425TIP3   OH210207   1.685   2.823   2.325
 3425TIP3    H110208   1.675   2.826   2.420
 3425TIP3    H210209   1.609   2.870   2.291
 3426TIP3   OH210210   1.233   2.866   3.188
 3426TIP3    H110211   1.305   2.901   3.240
 3426TIP3    H210212   1.272   2.846   3.103
 3427TIP3   OH210213   1.152   2.845   2.696
 3427TIP3    H110214   1.195   2.881   2.618
 3427TIP3    H210215   1.087   2.912   2.721
 3428TIP3   OH210216   2.372   3.554   3.287
 3428TIP3    H110217   2.399   3.487   3.224
 3428TIP3    H210218   2.333   3.505   3.359
 3429TIP3   OH210219   2.049   3.002   2.959
 3429TIP3    H110220   1.972   3.003   3.015
 3429TIP3    H210221   2.123   2.993   3.019
 3430TIP3   OH210222   1.451   3.086   2.969
 3430TIP3    H110223   1.362   3.091   2.933
 3430TIP3    H210224   1.479   2.996   2.952
 3431TIP3   OH210225   1.705   3.085   2.667
 3431TIP3    H110226   1.799   3.097   2.655
 3431TIP3    H210227   1.667   3.105   2.581
 3432TIP3   OH210228   2.503   3.090   3.165
 3432TIP3    H110229   2.484   3.106   3.257
 3432TIP3    H210230   2.435   3.029   3.136
 3433TIP3   OH210231   1.587   3.117   2.423
 3433TIP3    H110232   1.524   3.069   2.371
 3433TIP3    H210233   1.643   3.160   2.359
 3434TIP3   OH210234   2.699   4.794   3.393
 3434TIP3    H110235   2.699   4.810   3.299
 3434TIP3    H210236   2.778   4.838   3.424
 3435TIP3   OH210237   1.640   3.907   3.800
 3435TIP3    H110238   1.721   3.926   3.847
 3435TIP3    H210239   1.572   3.911   3.867
 3436TIP3   OH210240   2.102   3.369   3.067
 3436TIP3    H110241   2.171   3.321   3.021
 3436TIP3    H210242   2.101   3.330   3.155
 3437TIP3   OH210243   1.596   2.838   2.953
 3437TIP3    H110244   1.567   2.763   3.004
 3437TIP3    H210245   1.622   2.802   2.869
 3438TIP3   OH210246   2.076   3.275   3.334
 3438TIP3    H110247   1.989   3.307   3.358
 3438TIP3    H210248   2.136   3.327   3.388
 3439TIP3   OH210249   1.806   3.633   2.442
 3439TIP3    H110250   1.734   3.573   2.421
 3439TIP3    H210251   1.783   3.669   2.528
 3440TIP3   OH210252   2.701   3.883   3.054
 3440TIP3    H110253   2.736   3.931   2.979
 3440TIP3    H210254   2.621   3.842   3.020
 3441TIP3   OH210255   2.273   2.945   2.350
 3441TIP3    H110256   2.179   2.925   2.346
 3441TIP3    H210257   2.277   3.040   2.362
 3442TIP3   OH210258   2.217   3.964   3.463
 3442TIP3    H110259   2.267   3.947   3.543
 3442TIP3    H210260   2.177   4.050   3.478
 3443TIP3   OH210261   2.335   3.209   2.418
 3443TIP3    H110262   2.430   3.210   2.429
 3443TIP3    H210263   2.315   3.287   2.367
 3444TIP3   OH210264   1.501   3.644   3.098
 3444TIP3    H110265   1.540   3.626   3.013
 3444TIP3    H210266   1.566   3.612   3.161
 3445TIP3   OH210267   1.954   3.801   2.287
 3445TIP3    H110268   1.911   3.886   2.296
 3445TIP3    H210269   1.899   3.741   2.338
 3446TIP3   OH210270   1.387   3.582   3.732
 3446TIP3    H110271   1.403   3.565   3.825
 3446TIP3    H210272   1.315   3.524   3.708
 3447TIP3   OH210273   2.123   3.709   3.743
 3447TIP3    H110274   2.056   3.646   3.715
 3447TIP3    H210275   2.206   3.669   3.718
 3448TIP3   OH210276   2.359   4.253   3.339
 3448TIP3    H110277   2.265   4.238   3.346
 3448TIP3    H210278   2.384   4.292   3.423
 3449TIP3   OH210279   2.752   3.296   2.240
 3449TIP3    H110280   2.694   3.251   2.178
 3449TIP3    H210281   2.757   3.386   2.206
 3450TIP3   OH210282   3.001   4.163   3.322
 3450TIP3    H110283   2.906   4.150   3.316
 3450TIP3    H210284   3.034   4.135   3.237
 3451TIP3   OH210285   2.479   4.110   2.166
 3451TIP3    H110286   2.458   4.037   2.224
 3451TIP3    H210287   2.502   4.069   2.083
 3452TIP3   OH210288   2.470   3.748   2.949
 3452TIP3    H110289   2.380   3.726   2.974
 3452TIP3    H210290   2.506   3.667   2.913
 3453TIP3   OH210291   1.616   3.983   2.759
 3453TIP3    H110292   1.612   4.061   2.703
 3453TIP3    H210293   1.528   3.973   2.793
 3454TIP3   OH210294   1.189   3.269   2.478
 3454TIP3    H110295   1.230   3.353   2.499
 3454TIP3    H210296   1.107   3.269   2.528
 3455TIP3   OH210297   1.714   3.740   2.672
 3455TIP3    H110298   1.691   3.828   2.702
 3455TIP3    H210299   1.689   3.683   2.745
 3456TIP3   OH210300   1.908   4.314   3.212
 3456TIP3    H110301   1.951   4.381   3.159
 3456TIP3    H210302   1.978   4.279   3.267
 3457TIP3   OH210303   1.542   4.223   2.603
 3457TIP3    H110304   1.457   4.218   2.647
 3457TIP3    H210305   1.574   4.311   2.622
 3458TIP3   OH210306   2.258   3.965   3.191
 3458TIP3    H110307   2.245   3.961   3.286
 3458TIP3    H210308   2.336   3.912   3.175
 3459TIP3   OH210309   2.251   3.848   2.061
 3459TIP3    H110310   2.300   3.825   2.140
 3459TIP3    H210311   2.168   3.801   2.069
 3460TIP3   OH210312   2.513   4.467   3.231
 3460TIP3    H110313   2.446   4.401   3.248
 3460TIP3    H210314   2.478   4.519   3.159
 3461TIP3   OH210315   2.572   4.315   1.864
 3461TIP3    H110316   2.600   4.381   1.801
 3461TIP3    H210317   2.498   4.356   1.910
 3462TIP3   OH210318   1.594   3.091   3.732
 3462TIP3    H110319   1.499   3.098   3.739
 3462TIP3    H210320   1.621   3.046   3.812
 3463TIP3   OH210321   2.422   3.783   2.268
 3463TIP3    H110322   2.407   3.719   2.338
 3463TIP3    H210323   2.517   3.785   2.257
 3464TIP3   OH210324   1.335   4.190   3.379
 3464TIP3    H110325   1.385   4.126   3.430
 3464TIP3    H210326   1.347   4.272   3.426
 3465TIP3   OH210327   1.605   3.818   2.073
 3465TIP3    H110328   1.614   3.728   2.042
 3465TIP3    H210329   1.586   3.809   2.166
 3466TIP3   OH210330   1.548   3.831   2.344
 3466TIP3    H110331   1.605   3.799   2.413
 3466TIP3    H210332   1.551   3.926   2.351
 3467TIP3   OH210333   1.280   3.522   2.554
 3467TIP3    H110334   1.214   3.568   2.606
 3467TIP3    H210335   1.297   3.581   2.480
 3468TIP3   OH210336   2.443   3.145   3.426
 3468TIP3    H110337   2.519   3.194   3.459
 3468TIP3    H210338   2.436   3.070   3.485
 3469TIP3   OH210339   2.332   2.894   2.618
 3469TIP3    H110340   2.312   2.913   2.526
 3469TIP3    H210341   2.376   2.973   2.649
 3470TIP3   OH210342   1.843   4.055   2.317
 3470TIP3    H110343   1.750   4.058   2.338
 3470TIP3    H210344   1.850   4.103   2.234
 3471TIP3   OH210345   1.984   3.094   2.705
 3471TIP3    H110346   2.048   3.162   2.680
 3471TIP3    H210347   2.006   3.074   2.796
 3472TIP3   OH210348   2.282   3.389   3.488
 3472TIP3    H110349   2.306   3.435   3.569
 3472TIP3    H210350   2.331   3.307   3.491
 3473TIP3   OH210351   2.146   2.791   2.796
 3473TIP3    H110352   2.124   2.868   2.848
 3473TIP3    H210353   2.216   2.821   2.737
 3474TIP3   OH210354   1.576   4.105   2.358
 3474TIP3    H110355   1.549   4.173   2.296
 3474TIP3    H210356   1.554   4.141   2.444
 3475TIP3   OH210357   1.662   2.814   2.604
 3475TIP3    H110358   1.651   2.904   2.633
 3475TIP3    H210359   1.756   2.799   2.608
 3476TIP3   OH210360   2.900   3.296   3.481
 3476TIP3    H110361   2.805   3.299   3.489
 3476TIP3    H210362   2.916   3.246   3.401
 3477TIP3   OH210363   2.562   3.491   2.861
 3477TIP3    H110364   2.485   3.435   2.873
 3477TIP3    H210365   2.630   3.451   2.915
 3478TIP3   OH210366   1.299   3.702   2.338
 3478TIP3    H110367   1.369   3.766   2.345
 3478TIP3    H210368   1.331   3.638   2.275
 3479TIP3   OH210369   1.208   2.991   2.472
 3479TIP3    H110370   1.221   3.085   2.478
 3479TIP3    H210371   1.140   2.980   2.405
 3480TIP3   OH210372   2.543   4.463   2.804
 3480TIP3    H110373   2.504   4.505   2.728
 3480TIP3    H210374   2.637   4.479   2.795
 3481TIP3   OH210375   1.609   2.713   3.337
 3481TIP3    H110376   1.580   2.681   3.252
 3481TIP3    H210377   1.600   2.637   3.395
 3482TIP3   OH210378   1.133   3.970   2.726
 3482TIP3    H110379   1.084   4.000   2.802
 3482TIP3    H210380   1.089   4.009   2.651
 3483TIP3   OH210381   1.332   4.501   3.800
 3483TIP3    H110382   1.414   4.507   3.849
 3483TIP3    H210383   1.317   4.407   3.788
 3484TIP3   OH210384   1.794   4.421   3.839
 3484TIP3    H110385   1.885   4.393   3.853
 3484TIP3    H210386   1.763   4.364   3.768
 3485TIP3   OH210387   1.763   4.020   1.973
 3485TIP3    H110388   1.712   3.947   2.010
 3485TIP3    H210389   1.834   3.977   1.926
 3486TIP3   OH210390   2.418   4.362   3.582
 3486TIP3    H110391   2.422   4.288   3.642
 3486TIP3    H210392   2.494   4.415   3.605
 3487TIP3   OH210393   2.201   4.052   1.884
 3487TIP3    H110394   2.234   3.987   1.946
 3487TIP3    H210395   2.260   4.044   1.809
 3488TIP3   OH210396   1.436   3.900   3.990
 3488TIP3    H110397   1.456   3.807   4.001
 3488TIP3    H210398   1.350   3.901   3.949
 3489TIP3   OH210399   1.428   3.513   2.191
 3489TIP3    H110400   1.479   3.487   2.267
 3489TIP3    H210401   1.492   3.526   2.122
 3490TIP3   OH210402   2.056   3.986   3.764
 3490TIP3    H110403   2.012   4.005   3.681
 3490TIP3    H210404   2.091   3.897   3.753
 3491TIP3   OH210405   1.993   3.732   2.023
 3491TIP3    H110406   1.969   3.745   2.115
 3491TIP3    H210407   1.978   3.639   2.006
 3492TIP3   OH210408   2.529   4.027   3.378
 3492TIP3    H110409   2.607   4.056   3.331
 3492TIP3    H210410   2.464   4.095   3.360
 3493TIP3   OH210411   1.550   3.640   3.988
 3493TIP3    H110412   1.631   3.618   3.941
 3493TIP3    H210413   1.580   3.661   4.077
 3494TIP3   OH210414   1.602   3.451   2.403
 3494TIP3    H110415   1.578   3.421   2.490
 3494TIP3    H210416   1.650   3.377   2.364
 3495TIP3   OH210417   1.907   3.521   3.648
 3495TIP3    H110418   1.826   3.571   3.659
 3495TIP3    H210419   1.943   3.551   3.565
 3496TIP3   OH210420   1.746   3.265   2.255
 3496TIP3    H110421   1.717   3.274   2.164
 3496TIP3    H210422   1.842   3.269   2.250
 3497TIP3   OH210423   2.412   3.899   3.743
 3497TIP3    H110424   2.485   3.862   3.695
 3497TIP3    H210425   2.410   3.850   3.825
 3498TIP3   OH210426   2.536   3.560   1.921
 3498TIP3    H110427   2.523   3.516   1.837
 3498TIP3    H210428   2.511   3.651   1.905
 3499TIP3   OH210429   2.017   3.296   3.761
 3499TIP3    H110430   2.022   3.225   3.697
 3499TIP3    H210431   1.981   3.370   3.712
 3500TIP3   OH210432   2.026   3.096   3.559
 3500TIP3    H110433   2.053   3.135   3.476
 3500TIP3    H210434   1.934   3.071   3.545
 3501TIP3   OH210435   2.033   3.622   3.431
 3501TIP3    H110436   2.123   3.652   3.417
 3501TIP3    H210437   1.979   3.686   3.384
 3502TIP3   OH210438   2.624   3.584   3.814
 3502TIP3    H110439   2.664   3.499   3.833
 3502TIP3    H210440   2.698   3.641   3.792
 3503TIP3   OH210441   2.659   3.848   3.536
 3503TIP3    H110442   2.604   3.909   3.488
 3503TIP3    H210443   2.748   3.866   3.505
 3504TIP3   OH210444   1.891   3.387   3.995
 3504TIP3    H110445   1.826   3.321   4.018
 3504TIP3    H210446   1.927   3.357   3.912
 3505TIP3   OH210447   2.147   2.863   3.659
 3505TIP3    H110448   2.107   2.944   3.626
 3505TIP3    H210449   2.080   2.797   3.646
 3506TIP3   OH210450   2.273   3.342   3.864
 3506TIP3    H110451   2.267   3.332   3.959
 3506TIP3    H210452   2.186   3.319   3.832
 3507TIP3   OH210453   2.513   3.290   3.726
 3507TIP3    H110454   2.437   3.294   3.783
 3507TIP3    H210455   2.586   3.268   3.783
 3508TIP3   OH210456   2.749   3.256   3.873
 3508TIP3    H110457   2.765   3.162   3.884
 3508TIP3    H210458   2.744   3.290   3.962
 3509TIP3   OH210459   1.732   3.164   4.065
 3509TIP3    H110460   1.740   3.074   4.032
 3509TIP3    H210461   1.770   3.160   4.153
 3510TIP3   OH210462   2.216   2.846   3.924
 3510TIP3    H110463   2.288   2.783   3.918
 3510TIP3    H210464   2.185   2.856   3.834
 3511TIP3   OH210465   2.304   3.064   4.071
 3511TIP3    H110466   2.276   2.993   4.014
 3511TIP3    H210467   2.231   3.126   4.070
 3512TIP3   OH210468   1.579   4.335   2.194
 3512TIP3    H110469   1.663   4.309   2.156
 3512TIP3    H210470   1.528   4.367   2.119
 3513TIP3   OH210471   1.026   3.693   2.360
 3513TIP3    H110472   1.120   3.706   2.356
 3513TIP3    H210473   1.012   3.605   2.324
 3514TIP3   OH210474   0.933   4.281   2.814
 3514TIP3    H110475   0.869   4.227   2.768
 3514TIP3    H210476   0.976   4.221   2.874
 3515TIP3   OH210477   1.075   4.116   2.984
 3515TIP3    H110478   1.064   4.046   3.048
 3515TIP3    H210479   1.126   4.183   3.030
 3516TIP3   OH210480   2.805   4.540   2.792
 3516TIP3    H110481   2.835   4.558   2.880
 3516TIP3    H210482   2.874   4.572   2.735
 3517TIP3   OH210483   2.837   4.549   3.075
 3517TIP3    H110484   2.787   4.467   3.066
 3517TIP3    H210485   2.904   4.529   3.140
 3518TIP3   OH210486   2.874   4.251   3.642
 3518TIP3    H110487   2.803   4.256   3.706
 3518TIP3    H210488   2.920   4.335   3.651
 3519TIP3   OH210489   2.701   3.765   2.255
 3519TIP3    H110490   2.762   3.832   2.225
 3519TIP3    H210491   2.745   3.725   2.330
 3520TIP3   OH210492   2.829   3.621   2.456
 3520TIP3    H110493   2.763   3.581   2.512
 3520TIP3    H210494   2.894   3.655   2.516
 3521TIP3   OH210495   2.876   4.019   2.885
 3521TIP3    H110496   2.930   3.948   2.850
 3521TIP3    H210497   2.881   4.088   2.820
 3522TIP3   OH210498   2.691   4.313   3.077
 3522TIP3    H110499   2.623   4.353   3.130
 3522TIP3    H210500   2.644   4.268   3.007
 3523TIP3   OH210501   2.740   3.537   2.104
 3523TIP3    H110502   2.670   3.537   2.039
 3523TIP3    H210503   2.723   3.615   2.157
 3524TIP3   OH210504   2.593   3.189   2.044
 3524TIP3    H110505   2.559   3.224   1.962
 3524TIP3    H210506   2.585   3.094   2.035
 3525TIP3   OH210507   2.628   3.479   2.591
 3525TIP3    H110508   2.634   3.384   2.579
 3525TIP3    H210509   2.610   3.490   2.685
 3526TIP3   OH210510   1.250   3.546   3.364
 3526TIP3    H110511   1.241   3.512   3.275
 3526TIP3    H210512   1.344   3.543   3.381
 3527TIP3   OH210513   2.920   3.902   3.454
 3527TIP3    H110514   2.981   3.829   3.439
 3527TIP3    H210515   2.944   3.967   3.389
 3528TIP3   OH210516   3.083   3.683   3.444
 3528TIP3    H110517   3.012   3.642   3.493
 3528TIP3    H210518   3.160   3.629   3.462
 3529TIP3   OH210519   2.558   2.918   2.013
 3529TIP3    H110520   2.625   2.891   2.075
 3529TIP3    H210521   2.478   2.875   2.043
 3530TIP3   OH210522   2.623   3.202   2.477
 3530TIP3    H110523   2.668   3.119   2.491
 3530TIP3    H210524   2.668   3.241   2.402
 3531TIP3   OH210525   2.776   3.368   2.998
 3531TIP3    H110526   2.858   3.386   2.951
 3531TIP3    H210527   2.790   3.406   3.085
 3532TIP3   OH210528   2.851   3.514   3.228
 3532TIP3    H110529   2.779   3.543   3.284
 3532TIP3    H210530   2.883   3.594   3.186
 3533TIP3   OH210531   1.469   3.223   4.004
 3533TIP3    H110532   1.563   3.223   4.024
 3533TIP3    H210533   1.436   3.142   4.044
 3534TIP3   OH210534   3.308   3.119   3.768
 3534TIP3    H110535   3.372   3.058   3.730
 3534TIP3    H210536   3.274   3.168   3.693
 3535TIP3   OH210537   2.737   2.953   2.529
 3535TIP3    H110538   2.783   2.938   2.611
 3535TIP3    H210539   2.675   2.880   2.522
 3536TIP3   OH210540   1.444   2.936   3.355
 3536TIP3    H110541   1.498   2.857   3.361
 3536TIP3    H210542   1.506   3.007   3.340
 3537TIP3   OH210543   1.226   3.198   3.420
 3537TIP3    H110544   1.277   3.191   3.339
 3537TIP3    H210545   1.253   3.281   3.458
 3538TIP3   OH210546   3.163   3.237   3.570
 3538TIP3    H110547   3.081   3.277   3.600
 3538TIP3    H210548   3.135   3.162   3.518
 3539TIP3   OH210549   2.787   2.869   2.166
 3539TIP3    H110550   2.832   2.809   2.107
 3539TIP3    H210551   2.845   2.946   2.171
 3540TIP3   OH210552   1.217   2.708   2.923
 3540TIP3    H110553   1.130   2.695   2.961
 3540TIP3    H210554   1.201   2.764   2.847
 3541TIP3   OH210555   2.357   4.420   2.425
 3541TIP3    H110556   2.425   4.412   2.358
 3541TIP3    H210557   2.388   4.489   2.483
 3542TIP3   OH210558   1.434   2.757   3.737
 3542TIP3    H110559   1.388   2.760   3.821
 3542TIP3    H210560   1.380   2.810   3.678
 3543TIP3   OH210561   1.467   4.223   3.811
 3543TIP3    H110562   1.374   4.201   3.805
 3543TIP3    H210563   1.489   4.207   3.903
 3544TIP3   OH210564   1.678   4.267   3.362
 3544TIP3    H110565   1.625   4.340   3.331
 3544TIP3    H210566   1.764   4.280   3.321
 3545TIP3   OH210567   2.081   4.502   3.503
 3545TIP3    H110568   2.117   4.492   3.591
 3545TIP3    H210569   2.146   4.554   3.456
 3546TIP3   OH210570   2.274   4.652   3.374
 3546TIP3    H110571   2.339   4.593   3.335
 3546TIP3    H210572   2.325   4.712   3.429
 3547TIP3   OH210573   3.072   2.994   3.461
 3547TIP3    H110574   2.986   2.990   3.419
 3547TIP3    H210575   3.105   2.905   3.456
 3548TIP3   OH210576   1.338   4.515   3.411
 3548TIP3    H110577   1.246   4.530   3.389
 3548TIP3    H210578   1.357   4.581   3.478
 3549TIP3   OH210579   1.566   4.498   3.261
 3549TIP3    H110580   1.485   4.503   3.312
 3549TIP3    H210581   1.540   4.524   3.173
 3550TIP3   OH210582   1.986   4.523   3.024
 3550TIP3    H110583   1.899   4.531   2.984
 3550TIP3    H210584   1.994   4.601   3.079
 3551TIP3   OH210585   2.246   4.456   3.098
 3551TIP3    H110586   2.157   4.475   3.069
 3551TIP3    H210587   2.299   4.525   3.058
 3552TIP3   OH210588   2.450   4.629   3.004
 3552TIP3    H110589   2.448   4.714   2.960
 3552TIP3    H210590   2.485   4.568   2.938
 3553TIP3   OH210591   1.251   4.289   3.130
 3553TIP3    H110592   1.272   4.263   3.220
 3553TIP3    H210593   1.322   4.253   3.077
 3554TIP3   OH210594   1.451   4.170   2.990
 3554TIP3    H110595   1.458   4.085   3.034
 3554TIP3    H210596   1.538   4.208   3.000
 3555TIP3   OH210597   1.717   4.250   3.022
 3555TIP3    H110598   1.736   4.157   3.008
 3555TIP3    H210599   1.774   4.275   3.095
 3556TIP3   OH210600   2.277   2.911   3.095
 3556TIP3    H110601   2.239   2.839   3.147
 3556TIP3    H210602   2.346   2.870   3.044
 3557TIP3   OH210603   2.783   2.814   2.981
 3557TIP3    H110604   2.822   2.865   2.910
 3557TIP3    H210605   2.693   2.847   2.987
 3558TIP3   OH210606   2.897   2.901   2.748
 3558TIP3    H110607   2.967   2.841   2.722
 3558TIP3    H210608   2.935   2.988   2.736
 3559TIP3   OH210609   1.523   2.611   3.095
 3559TIP3    H110610   1.433   2.579   3.105
 3559TIP3    H210611   1.576   2.531   3.088
 3560TIP3   OH210612   1.343   2.514   2.753
 3560TIP3    H110613   1.369   2.565   2.677
 3560TIP3    H210614   1.305   2.579   2.813
 3561TIP3   OH210615   1.997   2.647   2.990
 3561TIP3    H110616   2.045   2.695   2.923
 3561TIP3    H210617   2.037   2.676   3.073
 3562TIP3   OH210618   2.492   2.795   2.967
 3562TIP3    H110619   2.510   2.761   2.879
 3562TIP3    H210620   2.497   2.719   3.024
 3563TIP3   OH210621   2.552   2.742   2.533
 3563TIP3    H110622   2.472   2.789   2.557
 3563TIP3    H210623   2.542   2.655   2.571
 3564TIP3   OH210624   1.018   4.088   2.507
 3564TIP3    H110625   0.935   4.054   2.471
 3564TIP3    H210626   1.020   4.179   2.478
 3565TIP3   OH210627   1.451   2.647   2.522
 3565TIP3    H110628   1.494   2.588   2.460
 3565TIP3    H210629   1.521   2.702   2.555
 3566TIP3   OH210630   1.937   2.842   2.611
 3566TIP3    H110631   1.997   2.791   2.666
 3566TIP3    H210632   1.951   2.932   2.638
 3567TIP3   OH210633   1.827   4.246   2.111
 3567TIP3    H110634   1.908   4.273   2.070
 3567TIP3    H210635   1.793   4.177   2.055
 3568TIP3   OH210636   2.523   4.377   2.205
 3568TIP3    H110637   2.513   4.283   2.197
 3568TIP3    H210638   2.481   4.413   2.126
 3569TIP3   OH210639   1.743   2.891   3.976
 3569TIP3    H110640   1.707   2.826   4.037
 3569TIP3    H210641   1.835   2.898   4.000
 3570TIP3   OH210642   1.993   2.893   4.094
 3570TIP3    H110643   2.073   2.876   4.044
 3570TIP3    H210644   1.990   2.823   4.159
 3571TIP3   OH210645   1.122   4.080   2.161
 3571TIP3    H110646   1.119   4.089   2.256
 3571TIP3    H210647   1.204   4.034   2.144
 3572TIP3   OH210648   2.815   2.986   3.892
 3572TIP3    H110649   2.833   2.956   3.981
 3572TIP3    H210650   2.901   2.984   3.849
 3573TIP3   OH210651   2.736   4.519   3.397
 3573TIP3    H110652   2.661   4.489   3.345
 3573TIP3    H210653   2.723   4.613   3.406
 3574TIP3   OH210654   4.015   3.909   2.133
 3574TIP3    H110655   3.983   3.996   2.107
 3574TIP3    H210656   3.943   3.850   2.111
 3575TIP3   OH210657   4.008   3.898   2.560
 3575TIP3    H110658   4.061   3.881   2.638
 3575TIP3    H210659   3.966   3.815   2.540
 3576TIP3   OH210660   3.309   3.765   2.908
 3576TIP3    H110661   3.344   3.711   2.979
 3576TIP3    H210662   3.386   3.793   2.859
 3577TIP3   OH210663   4.275   4.208   2.233
 3577TIP3    H110664   4.266   4.140   2.299
 3577TIP3    H210665   4.298   4.287   2.282
 3578TIP3   OH210666   3.293   4.189   2.599
 3578TIP3    H110667   3.280   4.094   2.602
 3578TIP3    H210668   3.388   4.199   2.593
 3579TIP3   OH210669   2.986   3.395   2.378
 3579TIP3    H110670   2.946   3.479   2.402
 3579TIP3    H210671   2.914   3.345   2.340
 3580TIP3   OH210672   3.060   3.700   2.597
 3580TIP3    H110673   3.109   3.622   2.624
 3580TIP3    H210674   3.128   3.761   2.567
 3581TIP3   OH210675   3.933   4.641   2.245
 3581TIP3    H110676   3.961   4.574   2.183
 3581TIP3    H210677   3.936   4.597   2.330
 3582TIP3   OH210678   3.817   4.123   2.567
 3582TIP3    H110679   3.859   4.042   2.539
 3582TIP3    H210680   3.888   4.178   2.598
 3583TIP3   OH210681   4.848   3.442   2.582
 3583TIP3    H110682   4.867   3.525   2.626
 3583TIP3    H210683   4.867   3.460   2.489
 3584TIP3   OH210684   4.228   3.609   2.600
 3584TIP3    H110685   4.267   3.526   2.627
 3584TIP3    H210686   4.191   3.591   2.513
 3585TIP3   OH210687   3.580   3.271   2.562
 3585TIP3    H110688   3.559   3.343   2.503
 3585TIP3    H210689   3.525   3.198   2.531
 3586TIP3   OH210690   4.273   3.365   2.191
 3586TIP3    H110691   4.336   3.360   2.262
 3586TIP3    H210692   4.323   3.399   2.117
 3587TIP3   OH210693   3.203   3.481   2.688
 3587TIP3    H110694   3.285   3.463   2.733
 3587TIP3    H210695   3.207   3.429   2.608
 3588TIP3   OH210696   3.627   3.683   2.501
 3588TIP3    H110697   3.721   3.666   2.509
 3588TIP3    H210698   3.591   3.601   2.468
 3589TIP3   OH210699   4.909   3.662   2.745
 3589TIP3    H110700   4.819   3.694   2.743
 3589TIP3    H210701   4.944   3.695   2.828
 3590TIP3   OH210702   3.562   3.269   3.012
 3590TIP3    H110703   3.509   3.304   2.940
 3590TIP3    H210704   3.508   3.283   3.089
 3591TIP3   OH210705   3.912   4.127   1.994
 3591TIP3    H110706   3.872   4.097   1.912
 3591TIP3    H210707   3.857   4.200   2.022
 3592TIP3   OH210708   3.660   4.045   2.782
 3592TIP3    H110709   3.605   4.116   2.817
 3592TIP3    H210710   3.708   4.086   2.710
 3593TIP3   OH210711   4.436   3.397   2.406
 3593TIP3    H110712   4.403   3.366   2.490
 3593TIP3    H210713   4.494   3.469   2.428
 3594TIP3   OH210714   3.447   3.378   2.783
 3594TIP3    H110715   3.502   3.452   2.807
 3594TIP3    H210716   3.495   3.335   2.711
 3595TIP3   OH210717   3.499   4.248   2.885
 3595TIP3    H110718   3.483   4.337   2.855
 3595TIP3    H210719   3.423   4.226   2.938
 3596TIP3   OH210720   2.878   3.949   2.136
 3596TIP3    H110721   2.843   3.967   2.048
 3596TIP3    H210722   2.903   4.034   2.170
 3597TIP3   OH210723   4.315   4.455   2.373
 3597TIP3    H110724   4.228   4.446   2.412
 3597TIP3    H210725   4.313   4.539   2.329
 3598TIP3   OH210726   4.648   3.336   2.754
 3598TIP3    H110727   4.561   3.351   2.717
 3598TIP3    H210728   4.708   3.360   2.684
 3599TIP3   OH210729   3.904   2.962   2.739
 3599TIP3    H110730   3.894   2.870   2.764
 3599TIP3    H210731   3.828   3.006   2.778
 3600TIP3   OH210732   4.022   4.486   2.030
 3600TIP3    H110733   4.074   4.407   2.020
 3600TIP3    H210734   4.079   4.556   2.000
 3601TIP3   OH210735   4.162   4.257   1.985
 3601TIP3    H110736   4.089   4.195   1.983
 3601TIP3    H210737   4.211   4.233   2.064
 3602TIP3   OH210738   4.551   4.347   2.716
 3602TIP3    H110739   4.534   4.271   2.660
 3602TIP3    H210740   4.536   4.422   2.659
 3603TIP3   OH210741   3.839   3.747   1.987
 3603TIP3    H110742   3.757   3.791   1.966
 3603TIP3    H210743   3.887   3.744   1.904
 3604TIP3   OH210744   3.805   3.555   1.681
 3604TIP3    H110745   3.871   3.601   1.732
 3604TIP3    H210746   3.854   3.485   1.636
 3605TIP3   OH210747   4.736   4.002   2.583
 3605TIP3    H110748   4.651   4.047   2.583
 3605TIP3    H210749   4.770   4.016   2.495
 3606TIP3   OH210750   4.200   3.835   1.947
 3606TIP3    H110751   4.146   3.864   2.020
 3606TIP3    H210752   4.282   3.808   1.987
 3607TIP3   OH210753   4.427   3.865   2.890
 3607TIP3    H110754   4.425   3.948   2.938
 3607TIP3    H210755   4.345   3.863   2.842
 3608TIP3   OH210756   3.427   3.817   2.355
 3608TIP3    H110757   3.391   3.756   2.291
 3608TIP3    H210758   3.500   3.769   2.395
 3609TIP3   OH210759   3.559   4.240   2.498
 3609TIP3    H110760   3.538   4.221   2.406
 3609TIP3    H210761   3.646   4.201   2.510
 3610TIP3   OH210762   3.527   3.811   2.728
 3610TIP3    H110763   3.566   3.775   2.649
 3610TIP3    H210764   3.577   3.890   2.746
 3611TIP3   OH210765   4.076   4.446   2.503
 3611TIP3    H110766   4.066   4.525   2.556
 3611TIP3    H210767   4.063   4.374   2.566
 3612TIP3   OH210768   3.700   4.349   3.050
 3612TIP3    H110769   3.640   4.406   3.098
 3612TIP3    H210770   3.643   4.296   2.995
 3613TIP3   OH210771   4.028   3.697   1.782
 3613TIP3    H110772   4.089   3.754   1.830
 3613TIP3    H210773   4.056   3.703   1.691
 3614TIP3   OH210774   3.460   3.911   3.172
 3614TIP3    H110775   3.461   4.001   3.203
 3614TIP3    H210776   3.367   3.888   3.168
 3615TIP3   OH210777   3.774   4.365   2.037
 3615TIP3    H110778   3.856   4.414   2.044
 3615TIP3    H210779   3.715   4.426   1.992
 3616TIP3   OH210780   3.486   4.508   3.132
 3616TIP3    H110781   3.462   4.515   3.040
 3616TIP3    H210782   3.404   4.493   3.178
 3617TIP3   OH210783   4.549   2.935   1.828
 3617TIP3    H110784   4.472   2.944   1.883
 3617TIP3    H210785   4.551   3.015   1.775
 3618TIP3   OH210786   3.301   3.659   2.153
 3618TIP3    H110787   3.222   3.702   2.122
 3618TIP3    H210788   3.273   3.569   2.173
 3619TIP3   OH210789   4.361   4.297   1.388
 3619TIP3    H110790   4.359   4.391   1.372
 3619TIP3    H210791   4.450   4.271   1.365
 3620TIP3   OH210792   3.078   4.060   3.082
 3620TIP3    H110793   3.009   4.038   3.020
 3620TIP3    H210794   3.114   3.976   3.110
 3621TIP3   OH210795   2.954   4.238   2.719
 3621TIP3    H110796   3.047   4.227   2.701
 3621TIP3    H210797   2.950   4.311   2.781
 3622TIP3   OH210798   4.781   4.704   2.783
 3622TIP3    H110799   4.787   4.610   2.797
 3622TIP3    H210800   4.702   4.731   2.831
 3623TIP3   OH210801   3.886   4.493   2.906
 3623TIP3    H110802   3.880   4.583   2.939
 3623TIP3    H210803   3.822   4.445   2.959
 3624TIP3   OH210804   3.665   4.593   1.864
 3624TIP3    H110805   3.615   4.574   1.785
 3624TIP3    H210806   3.630   4.677   1.895
 3625TIP3   OH210807   3.101   4.446   2.245
 3625TIP3    H110808   3.145   4.439   2.330
 3625TIP3    H210809   3.052   4.364   2.236
 3626TIP3   OH210810   3.866   4.519   1.492
 3626TIP3    H110811   3.918   4.446   1.458
 3626TIP3    H210812   3.900   4.533   1.581
 3627TIP3   OH210813   3.918   4.564   1.761
 3627TIP3    H110814   3.832   4.568   1.803
 3627TIP3    H210815   3.976   4.528   1.828
 3628TIP3   OH210816   4.676   3.821   3.054
 3628TIP3    H110817   4.590   3.829   3.011
 3628TIP3    H210818   4.694   3.727   3.055
 3629TIP3   OH210819   3.280   4.246   3.054
 3629TIP3    H110820   3.331   4.234   3.135
 3629TIP3    H210821   3.209   4.182   3.062
 3630TIP3   OH210822   3.667   3.054   2.867
 3630TIP3    H110823   3.583   3.022   2.835
 3630TIP3    H210824   3.645   3.135   2.914
 3631TIP3   OH210825   4.210   3.171   3.064
 3631TIP3    H110826   4.280   3.150   3.126
 3631TIP3    H210827   4.130   3.157   3.114
 3632TIP3   OH210828   4.428   3.600   2.978
 3632TIP3    H110829   4.386   3.594   3.064
 3632TIP3    H210830   4.414   3.690   2.950
 3633TIP3   OH210831   4.108   3.686   1.520
 3633TIP3    H110832   4.065   3.683   1.435
 3633TIP3    H210833   4.189   3.735   1.504
 3634TIP3   OH210834   3.818   3.100   1.834
 3634TIP3    H110835   3.784   3.105   1.924
 3634TIP3    H210836   3.782   3.019   1.799
 3635TIP3   OH210837   3.602   3.587   2.874
 3635TIP3    H110838   3.558   3.595   2.958
 3635TIP3    H210839   3.581   3.668   2.828
 3636TIP3   OH210840   3.485   3.468   2.395
 3636TIP3    H110841   3.396   3.442   2.421
 3636TIP3    H210842   3.495   3.432   2.307
 3637TIP3   OH210843   3.966   3.543   2.124
 3637TIP3    H110844   3.918   3.615   2.083
 3637TIP3    H210845   4.023   3.509   2.056
 3638TIP3   OH210846   4.154   3.807   3.195
 3638TIP3    H110847   4.125   3.741   3.258
 3638TIP3    H210848   4.246   3.822   3.216
 3639TIP3   OH210849   4.134   3.556   2.348
 3639TIP3    H110850   4.065   3.576   2.284
 3639TIP3    H210851   4.180   3.481   2.310
 3640TIP3   OH210852   3.438   3.598   3.096
 3640TIP3    H110853   3.480   3.652   3.163
 3640TIP3    H210854   3.419   3.515   3.140
 3641TIP3   OH210855   3.482   3.080   1.808
 3641TIP3    H110856   3.474   3.080   1.903
 3641TIP3    H210857   3.404   3.125   1.777
 3642TIP3   OH210858   3.029   3.124   2.673
 3642TIP3    H110859   3.100   3.158   2.727
 3642TIP3    H210860   3.071   3.101   2.590
 3643TIP3   OH210861   2.944   3.100   2.183
 3643TIP3    H110862   2.990   3.134   2.106
 3643TIP3    H210863   2.881   3.169   2.206
 3644TIP3   OH210864   4.171   3.810   2.773
 3644TIP3    H110865   4.198   3.743   2.710
 3644TIP3    H210866   4.130   3.760   2.844
 3645TIP3   OH210867   3.848   3.260   2.446
 3645TIP3    H110868   3.772   3.259   2.504
 3645TIP3    H210869   3.923   3.249   2.504
 3646TIP3   OH210870   3.247   3.342   2.455
 3646TIP3    H110871   3.158   3.346   2.419
 3646TIP3    H210872   3.275   3.252   2.439
 3647TIP3   OH210873   3.500   3.341   2.152
 3647TIP3    H110874   3.594   3.351   2.140
 3647TIP3    H210875   3.463   3.360   2.065
 3648TIP3   OH210876   4.306   3.345   2.653
 3648TIP3    H110877   4.284   3.361   2.744
 3648TIP3    H210878   4.239   3.284   2.623
 3649TIP3   OH210879   3.382   3.371   1.906
 3649TIP3    H110880   3.317   3.322   1.856
 3649TIP3    H210881   3.436   3.414   1.840
 3650TIP3   OH210882   4.494   5.050   2.879
 3650TIP3    H110883   4.493   5.066   2.785
 3650TIP3    H210884   4.573   5.095   2.910
 3651TIP3   OH210885   3.438   4.167   3.289
 3651TIP3    H110886   3.519   4.182   3.337
 3651TIP3    H210887   3.370   4.168   3.356
 3652TIP3   OH210888   3.898   3.627   2.555
 3652TIP3    H110889   3.965   3.577   2.508
 3652TIP3    H210890   3.896   3.587   2.642
 3653TIP3   OH210891   3.393   3.094   2.444
 3653TIP3    H110892   3.363   3.019   2.495
 3653TIP3    H210893   3.425   3.056   2.362
 3654TIP3   OH210894   3.871   3.532   2.820
 3654TIP3    H110895   3.783   3.563   2.844
 3654TIP3    H210896   3.930   3.583   2.875
 3655TIP3   OH210897   3.604   3.886   1.928
 3655TIP3    H110898   3.530   3.828   1.907
 3655TIP3    H210899   3.580   3.925   2.012
 3656TIP3   OH210900   4.498   4.139   2.541
 3656TIP3    H110901   4.533   4.187   2.466
 3656TIP3    H210902   4.418   4.098   2.508
 3657TIP3   OH210903   4.070   3.204   1.826
 3657TIP3    H110904   3.978   3.181   1.829
 3657TIP3    H210905   4.073   3.297   1.848
 3658TIP3   OH210906   4.016   4.220   2.950
 3658TIP3    H110907   4.066   4.201   3.029
 3658TIP3    H210908   3.976   4.305   2.966
 3659TIP3   OH210909   4.128   3.465   1.907
 3659TIP3    H110910   4.223   3.467   1.919
 3659TIP3    H210911   4.109   3.544   1.857
 3660TIP3   OH210912   3.297   3.903   2.584
 3660TIP3    H110913   3.335   3.883   2.499
 3660TIP3    H210914   3.360   3.871   2.648
 3661TIP3   OH210915   3.757   4.047   1.769
 3661TIP3    H110916   3.710   4.130   1.769
 3661TIP3    H210917   3.704   3.988   1.822
 3662TIP3   OH210918   3.189   3.848   3.224
 3662TIP3    H110919   3.220   3.844   3.314
 3662TIP3    H210920   3.123   3.778   3.219
 3663TIP3   OH210921   3.922   3.965   3.231
 3663TIP3    H110922   3.857   3.904   3.196
 3663TIP3    H210923   4.007   3.927   3.206
 3664TIP3   OH210924   4.157   4.507   2.824
 3664TIP3    H110925   4.063   4.492   2.832
 3664TIP3    H210926   4.182   4.548   2.907
 3665TIP3   OH210927   4.551   3.549   1.724
 3665TIP3    H110928   4.496   3.501   1.661
 3665TIP3    H210929   4.552   3.639   1.691
 3666TIP3   OH210930   4.796   4.423   2.809
 3666TIP3    H110931   4.702   4.410   2.803
 3666TIP3    H210932   4.830   4.394   2.724
 3667TIP3   OH210933   4.282   4.369   1.658
 3667TIP3    H110934   4.256   4.303   1.722
 3667TIP3    H210935   4.299   4.320   1.578
 3668TIP3   OH210936   4.266   4.005   2.437
 3668TIP3    H110937   4.177   3.983   2.463
 3668TIP3    H210938   4.301   3.924   2.401
 3669TIP3   OH210939   3.418   4.239   2.248
 3669TIP3    H110940   3.414   4.316   2.191
 3669TIP3    H210941   3.327   4.225   2.274
 3670TIP3   OH210942   2.974   3.520   1.960
 3670TIP3    H110943   3.020   3.601   1.982
 3670TIP3    H210944   2.895   3.522   2.014
 3671TIP3   OH210945   3.512   3.995   2.157
 3671TIP3    H110946   3.493   4.084   2.187
 3671TIP3    H210947   3.486   3.939   2.230
 3672TIP3   OH210948   3.700   4.564   2.703
 3672TIP3    H110949   3.738   4.636   2.653
 3672TIP3    H210950   3.772   4.530   2.756
 3673TIP3   OH210951   3.333   4.466   2.096
 3673TIP3    H110952   3.247   4.470   2.138
 3673TIP3    H210953   3.367   4.555   2.101
 3674TIP3   OH210954   4.054   4.224   2.676
 3674TIP3    H110955   4.041   4.221   2.771
 3674TIP3    H210956   4.132   4.170   2.661
 3675TIP3   OH210957   4.044   4.103   1.550
 3675TIP3    H110958   4.100   4.077   1.623
 3675TIP3    H210959   3.959   4.064   1.570
 3676TIP3   OH210960   4.310   4.724   2.717
 3676TIP3    H110961   4.241   4.660   2.732
 3676TIP3    H210962   4.277   4.779   2.646
 3677TIP3   OH210963   4.367   4.573   1.358
 3677TIP3    H110964   4.405   4.645   1.307
 3677TIP3    H210965   4.290   4.611   1.400
 3678TIP3   OH210966   3.392   3.346   3.220
 3678TIP3    H110967   3.297   3.352   3.227
 3678TIP3    H210968   3.420   3.301   3.299
 3679TIP3   OH210969   4.224   4.019   1.737
 3679TIP3    H110970   4.207   3.966   1.815
 3679TIP3    H210971   4.320   4.026   1.734
 3680TIP3   OH210972   3.120   4.448   2.872
 3680TIP3    H110973   3.172   4.384   2.920
 3680TIP3    H210974   3.139   4.531   2.915
 3681TIP3   OH210975   3.395   4.070   1.557
 3681TIP3    H110976   3.407   3.978   1.531
 3681TIP3    H210977   3.380   4.066   1.651
 3682TIP3   OH210978   3.341   4.087   1.829
 3682TIP3    H110979   3.406   4.058   1.892
 3682TIP3    H210980   3.341   4.182   1.837
 3683TIP3   OH210981   3.073   3.772   2.039
 3683TIP3    H110982   3.009   3.819   2.092
 3683TIP3    H210983   3.093   3.832   1.966
 3684TIP3   OH210984   4.241   3.402   2.913
 3684TIP3    H110985   4.315   3.451   2.949
 3684TIP3    H210986   4.231   3.327   2.972
 3685TIP3   OH210987   4.128   3.143   2.099
 3685TIP3    H110988   4.114   3.161   2.006
 3685TIP3    H210989   4.173   3.221   2.132
 3686TIP3   OH210990   3.611   4.274   1.768
 3686TIP3    H110991   3.526   4.297   1.806
 3686TIP3    H210992   3.634   4.350   1.714
 3687TIP3   OH210993   3.780   3.350   2.193
 3687TIP3    H110994   3.842   3.418   2.169
 3687TIP3    H210995   3.801   3.329   2.284
 3688TIP3   OH210996   4.077   3.645   2.973
 3688TIP3    H110997   4.102   3.690   3.054
 3688TIP3    H210998   4.127   3.563   2.976
 3689TIP3   OH210999   3.945   3.042   2.282
 3689TIP3    H111000   3.926   3.121   2.334
 3689TIP3    H211001   4.015   3.070   2.223
 3690TIP3   OH211002   3.361   4.360   1.844
 3690TIP3    H111003   3.338   4.431   1.784
 3690TIP3    H211004   3.349   4.398   1.931
 3691TIP3   OH211005   3.459   3.068   2.086
 3691TIP3    H111006   3.447   3.158   2.118
 3691TIP3    H211007   3.553   3.053   2.093
 3692TIP3   OH211008   4.692   3.544   2.959
 3692TIP3    H111009   4.598   3.556   2.973
 3692TIP3    H211010   4.699   3.482   2.886
 3693TIP3   OH211011   4.357   3.748   2.349
 3693TIP3    H111012   4.281   3.691   2.361
 3693TIP3    H211013   4.425   3.708   2.403
 3694TIP3   OH211014   3.095   3.956   1.825
 3694TIP3    H111015   3.166   4.019   1.835
 3694TIP3    H211016   3.127   3.892   1.762
 3695TIP3   OH211017   3.005   3.241   1.957
 3695TIP3    H111018   3.005   3.337   1.957
 3695TIP3    H211019   2.937   3.217   1.895
 3696TIP3   OH211020   4.337   4.722   2.291
 3696TIP3    H111021   4.296   4.772   2.220
 3696TIP3    H211022   4.431   4.734   2.278
 3697TIP3   OH211023   3.404   2.970   2.827
 3697TIP3    H111024   3.375   2.937   2.742
 3697TIP3    H211025   3.395   2.895   2.886
 3698TIP3   OH211026   2.930   4.221   2.218
 3698TIP3    H111027   2.882   4.254   2.294
 3698TIP3    H211028   2.888   4.263   2.143
 3699TIP3   OH211029   3.129   4.762   3.288
 3699TIP3    H111030   3.211   4.769   3.337
 3699TIP3    H211031   3.117   4.668   3.275
 3700TIP3   OH211032   3.591   4.677   3.323
 3700TIP3    H111033   3.681   4.648   3.337
 3700TIP3    H211034   3.559   4.621   3.252
 3701TIP3   OH211035   3.555   4.267   1.448
 3701TIP3    H111036   3.507   4.199   1.494
 3701TIP3    H211037   3.631   4.222   1.412
 3702TIP3   OH211038   4.214   4.622   3.064
 3702TIP3    H111039   4.215   4.546   3.122
 3702TIP3    H211040   4.291   4.672   3.091
 3703TIP3   OH211041   3.998   4.309   1.374
 3703TIP3    H111042   4.027   4.244   1.439
 3703TIP3    H211043   4.061   4.301   1.303
 3704TIP3   OH211044   3.232   4.158   3.477
 3704TIP3    H111045   3.252   4.066   3.491
 3704TIP3    H211046   3.146   4.158   3.437
 3705TIP3   OH211047   3.222   3.767   1.675
 3705TIP3    H111048   3.273   3.741   1.753
 3705TIP3    H211049   3.288   3.779   1.607
 3706TIP3   OH211050   3.848   4.239   3.259
 3706TIP3    H111051   3.805   4.260   3.176
 3706TIP3    H211052   3.886   4.152   3.245
 3707TIP3   OH211053   3.767   3.991   1.500
 3707TIP3    H111054   3.753   4.002   1.594
 3707TIP3    H211055   3.758   3.897   1.485
 3708TIP3   OH211056   4.327   4.281   2.867
 3708TIP3    H111057   4.405   4.312   2.820
 3708TIP3    H211058   4.261   4.348   2.850
 3709TIP3   OH211059   3.346   3.891   3.463
 3709TIP3    H111060   3.429   3.866   3.422
 3709TIP3    H211061   3.368   3.908   3.554
 3710TIP3   OH211062   3.396   3.706   1.887
 3710TIP3    H111063   3.375   3.677   1.975
 3710TIP3    H211064   3.442   3.632   1.847
 3711TIP3   OH211065   3.693   3.768   3.129
 3711TIP3    H111066   3.617   3.825   3.142
 3711TIP3    H211067   3.735   3.802   3.050
 3712TIP3   OH211068   3.532   3.520   1.731
 3712TIP3    H111069   3.503   3.522   1.640
 3712TIP3    H211070   3.628   3.527   1.726
 3713TIP3   OH211071   4.204   4.151   3.219
 3713TIP3    H111072   4.281   4.116   3.174
 3713TIP3    H211073   4.200   4.103   3.302
 3714TIP3   OH211074   4.329   3.817   1.411
 3714TIP3    H111075   4.314   3.773   1.327
 3714TIP3    H211076   4.302   3.908   1.396
 3715TIP3   OH211077   3.816   3.551   3.244
 3715TIP3    H111078   3.821   3.479   3.182
 3715TIP3    H211079   3.776   3.623   3.194
 3716TIP3   OH211080   3.823   3.351   3.044
 3716TIP3    H111081   3.849   3.389   2.960
 3716TIP3    H211082   3.732   3.325   3.031
 3717TIP3   OH211083   3.829   3.880   2.924
 3717TIP3    H111084   3.919   3.909   2.907
 3717TIP3    H211085   3.775   3.943   2.876
 3718TIP3   OH211086   4.417   3.833   3.302
 3718TIP3    H111087   4.455   3.755   3.343
 3718TIP3    H211088   4.493   3.890   3.287
 3719TIP3   OH211089   4.454   4.107   3.034
 3719TIP3    H111090   4.399   4.167   2.984
 3719TIP3    H211091   4.543   4.123   3.002
 3720TIP3   OH211092   3.684   3.641   3.474
 3720TIP3    H111093   3.620   3.574   3.498
 3720TIP3    H211094   3.721   3.610   3.391
 3721TIP3   OH211095   3.944   3.119   3.147
 3721TIP3    H111096   3.903   3.199   3.114
 3721TIP3    H211097   3.877   3.052   3.135
 3722TIP3   OH211098   4.070   3.599   3.352
 3722TIP3    H111099   4.061   3.591   3.447
 3722TIP3    H211100   3.984   3.576   3.318
 3723TIP3   OH211101   4.305   3.539   3.209
 3723TIP3    H111102   4.232   3.545   3.270
 3723TIP3    H211103   4.380   3.518   3.264
 3724TIP3   OH211104   4.552   3.501   3.341
 3724TIP3    H111105   4.566   3.408   3.358
 3724TIP3    H211106   4.537   3.539   3.427
 3725TIP3   OH211107   3.529   3.421   3.549
 3725TIP3    H111108   3.536   3.330   3.520
 3725TIP3    H211109   3.563   3.420   3.638
 3726TIP3   OH211110   4.018   3.110   3.412
 3726TIP3    H111111   4.087   3.044   3.406
 3726TIP3    H211112   3.985   3.118   3.323
 3727TIP3   OH211113   4.097   3.328   3.567
 3727TIP3    H111114   4.073   3.258   3.507
 3727TIP3    H211115   4.024   3.390   3.563
 3728TIP3   OH211116   3.354   4.569   1.659
 3728TIP3    H111117   3.444   4.547   1.633
 3728TIP3    H211118   3.318   4.615   1.583
 3729TIP3   OH211119   2.822   3.948   1.846
 3729TIP3    H111120   2.917   3.961   1.841
 3729TIP3    H211121   2.807   3.862   1.807
 3730TIP3   OH211122   2.729   4.532   2.299
 3730TIP3    H111123   2.664   4.477   2.255
 3730TIP3    H211124   2.773   4.474   2.361
 3731TIP3   OH211125   2.869   4.370   2.474
 3731TIP3    H111126   2.861   4.301   2.539
 3731TIP3    H211127   2.919   4.439   2.518
 3732TIP3   OH211128   4.606   4.780   2.278
 3732TIP3    H111129   4.629   4.806   2.368
 3732TIP3    H211130   4.667   4.829   2.223
 3733TIP3   OH211131   4.629   4.805   2.560
 3733TIP3    H111132   4.580   4.723   2.553
 3733TIP3    H211133   4.698   4.786   2.624
 3734TIP3   OH211134   4.666   4.505   3.137
 3734TIP3    H111135   4.599   4.512   3.205
 3734TIP3    H211136   4.713   4.589   3.141
 3735TIP3   OH211137   4.504   4.018   1.741
 3735TIP3    H111138   4.563   4.088   1.713
 3735TIP3    H211139   4.546   3.979   1.818
 3736TIP3   OH211140   4.628   3.875   1.944
 3736TIP3    H111141   4.561   3.836   2.001
 3736TIP3    H211142   4.693   3.911   2.004
 3737TIP3   OH211143   4.673   4.276   2.373
 3737TIP3    H111144   4.727   4.206   2.336
 3737TIP3    H211145   4.676   4.346   2.308
 3738TIP3   OH211146   4.485   4.567   2.564
 3738TIP3    H111147   4.418   4.610   2.617
 3738TIP3    H211148   4.435   4.525   2.494
 3739TIP3   OH211149   4.535   3.790   1.591
 3739TIP3    H111150   4.462   3.792   1.528
 3739TIP3    H211151   4.522   3.868   1.645
 3740TIP3   OH211152   4.403   3.437   1.521
 3740TIP3    H111153   4.353   3.476   1.449
 3740TIP3    H211154   4.394   3.342   1.508
 3741TIP3   OH211155   4.425   3.735   2.080
 3741TIP3    H111156   4.430   3.640   2.068
 3741TIP3    H211157   4.406   3.746   2.173
 3742TIP3   OH211158   3.046   3.805   2.851
 3742TIP3    H111159   3.037   3.768   2.763
 3742TIP3    H211160   3.140   3.800   2.870
 3743TIP3   OH211161   4.712   4.157   2.942
 3743TIP3    H111162   4.777   4.087   2.927
 3743TIP3    H211163   4.732   4.222   2.874
 3744TIP3   OH211164   4.887   3.945   2.934
 3744TIP3    H111165   4.813   3.902   2.977
 3744TIP3    H211166   4.962   3.888   2.952
 3745TIP3   OH211167   4.358   3.163   1.479
 3745TIP3    H111168   4.421   3.146   1.549
 3745TIP3    H211169   4.275   3.129   1.513
 3746TIP3   OH211170   4.419   3.455   1.963
 3746TIP3    H111171   4.463   3.372   1.978
 3746TIP3    H211172   4.464   3.493   1.888
 3747TIP3   OH211173   4.574   3.627   2.484
 3747TIP3    H111174   4.656   3.644   2.438
 3747TIP3    H211175   4.587   3.663   2.571
 3748TIP3   OH211176   4.648   3.773   2.713
 3748TIP3    H111177   4.576   3.800   2.771
 3748TIP3    H211178   4.679   3.854   2.673
 3749TIP3   OH211179   3.265   3.480   3.488
 3749TIP3    H111180   3.358   3.482   3.509
 3749TIP3    H211181   3.233   3.399   3.529
 3750TIP3   OH211182   5.104   3.375   3.255
 3750TIP3    H111183   5.169   3.315   3.217
 3750TIP3    H211184   5.070   3.424   3.181
 3751TIP3   OH211185   4.533   3.205   2.017
 3751TIP3    H111186   4.576   3.189   2.102
 3751TIP3    H211187   4.470   3.134   2.008
 3752TIP3   OH211188   3.238   3.192   2.844
 3752TIP3    H111189   3.292   3.114   2.850
 3752TIP3    H211190   3.300   3.263   2.829
 3753TIP3   OH211191   3.021   3.455   2.904
 3753TIP3    H111192   3.073   3.449   2.824
 3753TIP3    H211193   3.055   3.532   2.950
 3754TIP3   OH211194   4.960   3.496   3.059
 3754TIP3    H111195   4.883   3.536   3.100
 3754TIP3    H211196   4.924   3.426   3.005
 3755TIP3   OH211197   4.580   3.138   1.644
 3755TIP3    H111198   4.624   3.072   1.591
 3755TIP3    H211199   4.643   3.210   1.651
 3756TIP3   OH211200   3.010   2.963   2.409
 3756TIP3    H111201   2.924   2.952   2.448
 3756TIP3    H211202   2.995   3.018   2.332
 3757TIP3   OH211203   4.163   4.685   1.918
 3757TIP3    H111204   4.223   4.674   1.844
 3757TIP3    H211205   4.207   4.750   1.974
 3758TIP3   OH211206   3.233   3.023   3.227
 3758TIP3    H111207   3.186   3.020   3.310
 3758TIP3    H211208   3.175   3.071   3.168
 3759TIP3   OH211209   3.259   4.484   3.294
 3759TIP3    H111210   3.166   4.458   3.291
 3759TIP3    H211211   3.285   4.464   3.384
 3760TIP3   OH211212   3.470   4.522   2.849
 3760TIP3    H111213   3.420   4.598   2.818
 3760TIP3    H211214   3.555   4.531   2.808
 3761TIP3   OH211215   3.877   4.759   2.992
 3761TIP3    H111216   3.915   4.748   3.079
 3761TIP3    H211217   3.941   4.811   2.944
 3762TIP3   OH211218   4.068   4.911   2.861
 3762TIP3    H111219   4.131   4.851   2.820
 3762TIP3    H211220   4.121   4.968   2.916
 3763TIP3   OH211221   4.868   3.249   2.949
 3763TIP3    H111222   4.782   3.246   2.907
 3763TIP3    H211223   4.900   3.159   2.943
 3764TIP3   OH211224   3.134   4.772   2.897
 3764TIP3    H111225   3.043   4.792   2.876
 3764TIP3    H211226   3.158   4.834   2.965
 3765TIP3   OH211227   3.364   4.756   2.747
 3765TIP3    H111228   3.281   4.762   2.794
 3765TIP3    H211229   3.342   4.780   2.657
 3766TIP3   OH211230   3.781   4.774   2.538
 3766TIP3    H111231   3.709   4.786   2.477
 3766TIP3    H211232   3.791   4.859   2.581
 3767TIP3   OH211233   4.046   4.710   2.586
 3767TIP3    H111234   3.954   4.730   2.568
 3767TIP3    H211235   4.095   4.780   2.543
 3768TIP3   OH211236   4.248   4.887   2.493
 3768TIP3    H111237   4.245   4.974   2.452
 3768TIP3    H211238   4.279   4.829   2.424
 3769TIP3   OH211239   3.044   4.545   2.622
 3769TIP3    H111240   3.069   4.519   2.710
 3769TIP3    H211241   3.115   4.513   2.566
 3770TIP3   OH211242   3.246   4.431   2.479
 3770TIP3    H111243   3.257   4.346   2.523
 3770TIP3    H211244   3.333   4.471   2.482
 3771TIP3   OH211245   3.515   4.517   2.499
 3771TIP3    H111246   3.534   4.424   2.485
 3771TIP3    H211247   3.568   4.541   2.575
 3772TIP3   OH211248   4.080   3.165   2.573
 3772TIP3    H111249   4.044   3.093   2.624
 3772TIP3    H211250   4.151   3.125   2.522
 3773TIP3   OH211251   4.587   3.108   2.507
 3773TIP3    H111252   4.622   3.131   2.421
 3773TIP3    H211253   4.493   3.103   2.495
 3774TIP3   OH211254   4.688   3.139   2.243
 3774TIP3    H111255   4.758   3.082   2.214
 3774TIP3    H211256   4.722   3.228   2.233
 3775TIP3   OH211257   3.317   2.866   2.585
 3775TIP3    H111258   3.228   2.833   2.594
 3775TIP3    H211259   3.371   2.788   2.578
 3776TIP3   OH211260   3.133   2.769   2.237
 3776TIP3    H111261   3.161   2.819   2.161
 3776TIP3    H211262   3.098   2.834   2.298
 3777TIP3   OH211263   3.788   2.907   2.478
 3777TIP3    H111264   3.840   2.946   2.408
 3777TIP3    H211265   3.831   2.935   2.559
 3778TIP3   OH211266   4.303   3.047   2.459
 3778TIP3    H111267   4.349   3.011   2.383
 3778TIP3    H211268   4.297   2.974   2.521
 3779TIP3   OH211269   4.353   2.991   2.014
 3779TIP3    H111270   4.270   3.022   2.051
 3779TIP3    H211271   4.359   2.900   2.043
 3780TIP3   OH211272   2.815   4.343   2.000
 3780TIP3    H111273   2.731   4.308   1.969
 3780TIP3    H211274   2.816   4.434   1.969
 3781TIP3   OH211275   3.247   2.900   2.004
 3781TIP3    H111276   3.292   2.839   1.946
 3781TIP3    H211277   3.317   2.956   2.038
 3782TIP3   OH211278   3.734   3.097   2.098
 3782TIP3    H111279   3.793   3.044   2.152
 3782TIP3    H211280   3.749   3.187   2.127
 3783TIP3   OH211281   3.610   4.495   1.591
 3783TIP3    H111282   3.694   4.521   1.555
 3783TIP3    H211283   3.582   4.421   1.536
 3784TIP3   OH211284   4.319   4.638   1.691
 3784TIP3    H111285   4.311   4.543   1.685
 3784TIP3    H211286   4.273   4.671   1.613
 3785TIP3   OH211287   3.542   3.150   3.464
 3785TIP3    H111288   3.506   3.085   3.524
 3785TIP3    H211289   3.634   3.158   3.488
 3786TIP3   OH211290   3.791   3.158   3.583
 3786TIP3    H111291   3.872   3.137   3.537
 3786TIP3    H211292   3.783   3.090   3.650
 3787TIP3   OH211293   2.916   4.339   1.651
 3787TIP3    H111294   2.917   4.346   1.746
 3787TIP3    H211295   2.997   4.293   1.630
 3788TIP3   OH211296   4.615   3.234   3.378
 3788TIP3    H111297   4.631   3.209   3.469
 3788TIP3    H211298   4.702   3.231   3.338
 3789TIP3   OH211299   4.533   4.775   2.883
 3789TIP3    H111300   4.457   4.745   2.832
 3789TIP3    H211301   4.519   4.869   2.893
 3790TIP3   OH211302   5.810   4.159   1.623
 3790TIP3    H111303   5.777   4.247   1.602
 3790TIP3    H211304   5.737   4.101   1.602
 3791TIP3   OH211305   5.806   4.154   2.046
 3791TIP3    H111306   5.857   4.138   2.125
 3791TIP3    H211307   5.762   4.071   2.028
 3792TIP3   OH211308   5.105   4.021   2.393
 3792TIP3    H111309   5.140   3.968   2.464
 3792TIP3    H211310   5.182   4.050   2.344
 3793TIP3   OH211311   6.070   4.464   1.716
 3793TIP3    H111312   6.059   4.397   1.783
 3793TIP3    H211313   6.093   4.543   1.765
 3794TIP3   OH211314   5.092   4.444   2.082
 3794TIP3    H111315   5.076   4.350   2.088
 3794TIP3    H211316   5.188   4.452   2.076
 3795TIP3   OH211317   4.783   3.651   1.863
 3795TIP3    H111318   4.744   3.734   1.890
 3795TIP3    H211319   4.710   3.601   1.827
 3796TIP3   OH211320   4.860   3.959   2.081
 3796TIP3    H111321   4.909   3.882   2.109
 3796TIP3    H211322   4.928   4.023   2.057
 3797TIP3   OH211323   5.726   4.897   1.731
 3797TIP3    H111324   5.756   4.827   1.673
 3797TIP3    H211325   5.727   4.858   1.818
 3798TIP3   OH211326   5.613   4.379   2.054
 3798TIP3    H111327   5.656   4.298   2.024
 3798TIP3    H211328   5.685   4.434   2.084
 3799TIP3   OH211329   6.643   3.701   2.068
 3799TIP3    H111330   6.662   3.783   2.114
 3799TIP3    H211331   6.664   3.720   1.977
 3800TIP3   OH211332   6.022   3.867   2.087
 3800TIP3    H111333   6.057   3.783   2.116
 3800TIP3    H211334   5.984   3.849   2.001
 3801TIP3   OH211335   5.377   3.527   2.048
 3801TIP3    H111336   5.355   3.600   1.990
 3801TIP3    H211337   5.321   3.455   2.018
 3802TIP3   OH211338   6.073   3.625   1.682
 3802TIP3    H111339   6.137   3.618   1.753
 3802TIP3    H211340   6.123   3.661   1.609
 3803TIP3   OH211341   5.000   3.739   2.174
 3803TIP3    H111342   5.083   3.721   2.219
 3803TIP3    H211343   5.005   3.687   2.094
 3804TIP3   OH211344   5.423   3.939   1.988
 3804TIP3    H111345   5.517   3.923   1.996
 3804TIP3    H211346   5.387   3.857   1.954
 3805TIP3   OH211347   6.703   3.918   2.235
 3805TIP3    H111348   6.613   3.953   2.230
 3805TIP3    H211349   6.737   3.952   2.317
 3806TIP3   OH211350   5.357   3.526   2.498
 3806TIP3    H111351   5.305   3.562   2.427
 3806TIP3    H211352   5.304   3.541   2.576
 3807TIP3   OH211353   5.681   4.370   1.501
 3807TIP3    H111354   5.654   4.355   1.411
 3807TIP3    H211355   5.637   4.452   1.526
 3808TIP3   OH211356   5.454   4.303   2.267
 3808TIP3    H111357   5.400   4.374   2.302
 3808TIP3    H211358   5.503   4.343   2.195
 3809TIP3   OH211359   6.238   3.643   1.899
 3809TIP3    H111360   6.194   3.623   1.982
 3809TIP3    H211361   6.292   3.719   1.919
 3810TIP3   OH211362   5.245   3.635   2.269
 3810TIP3    H111363   5.300   3.709   2.293
 3810TIP3    H211364   5.293   3.592   2.198
 3811TIP3   OH211365   5.294   4.505   2.370
 3811TIP3    H111366   5.279   4.594   2.341
 3811TIP3    H211367   5.217   4.484   2.423
 3812TIP3   OH211368   4.676   4.207   1.623
 3812TIP3    H111369   4.638   4.230   1.538
 3812TIP3    H211370   4.701   4.291   1.661
 3813TIP3   OH211371   6.112   4.708   1.860
 3813TIP3    H111372   6.025   4.700   1.899
 3813TIP3    H211373   6.111   4.793   1.815
 3814TIP3   OH211374   6.442   3.588   2.234
 3814TIP3    H111375   6.356   3.615   2.201
 3814TIP3    H211376   6.503   3.618   2.168
 3815TIP3   OH211377   5.698   3.219   2.225
 3815TIP3    H111378   5.690   3.127   2.250
 3815TIP3    H211379   5.622   3.262   2.266
 3816TIP3   OH211380   5.821   4.728   1.528
 3816TIP3    H111381   5.873   4.649   1.513
 3816TIP3    H211382   5.881   4.800   1.507
 3817TIP3   OH211383   5.980   4.514   1.460
 3817TIP3    H111384   5.969   4.430   1.416
 3817TIP3    H211385   6.014   4.492   1.546
 3818TIP3   OH211386   6.346   4.602   2.205
 3818TIP3    H111387   6.330   4.526   2.148
 3818TIP3    H211388   6.331   4.677   2.148
 3819TIP3   OH211389   5.633   3.998   1.477
 3819TIP3    H111390   5.554   4.048   1.456
 3819TIP3    H211391   5.683   3.997   1.395
 3820TIP3   OH211392   5.602   3.807   1.172
 3820TIP3    H111393   5.668   3.856   1.222
 3820TIP3    H211394   5.652   3.739   1.126
 3821TIP3   OH211395   6.531   4.256   2.067
 3821TIP3    H111396   6.447   4.302   2.068
 3821TIP3    H211397   6.566   4.272   1.979
 3822TIP3   OH211398   5.995   4.081   1.440
 3822TIP3    H111399   5.941   4.110   1.513
 3822TIP3    H211400   6.079   4.057   1.481
 3823TIP3   OH211401   6.223   4.124   2.378
 3823TIP3    H111402   6.221   4.206   2.427
 3823TIP3    H211403   6.141   4.122   2.330
 3824TIP3   OH211404   5.225   4.075   1.841
 3824TIP3    H111405   5.189   4.014   1.777
 3824TIP3    H211406   5.297   4.027   1.881
 3825TIP3   OH211407   5.357   4.495   1.984
 3825TIP3    H111408   5.336   4.478   1.892
 3825TIP3    H211409   5.445   4.457   1.996
 3826TIP3   OH211410   5.323   4.068   2.215
 3826TIP3    H111411   5.362   4.032   2.135
 3826TIP3    H211412   5.372   4.148   2.232
 3827TIP3   OH211413   5.874   4.701   1.990
 3827TIP3    H111414   5.862   4.781   2.041
 3827TIP3    H211415   5.860   4.630   2.053
 3828TIP3   OH211416   5.495   4.604   2.536
 3828TIP3    H111417   5.435   4.661   2.584
 3828TIP3    H211418   5.437   4.552   2.479
 3829TIP3   OH211419   5.820   3.952   1.274
 3829TIP3    H111420   5.883   4.007   1.321
 3829TIP3    H211421   5.849   3.956   1.182
 3830TIP3   OH211422   5.251   4.158   2.666
 3830TIP3    H111423   5.254   4.250   2.692
 3830TIP3    H211424   5.157   4.137   2.663
 3831TIP3   OH211425   5.566   4.623   1.532
 3831TIP3    H111426   5.652   4.664   1.541
 3831TIP3    H211427   5.511   4.690   1.492
 3832TIP3   OH211428   5.284   4.763   2.621
 3832TIP3    H111429   5.259   4.772   2.530
 3832TIP3    H211430   5.202   4.748   2.668
 3833TIP3   OH211431   6.335   3.182   1.326
 3833TIP3    H111432   6.259   3.202   1.381
 3833TIP3    H211433   6.347   3.259   1.271
 3834TIP3   OH211434   5.097   3.917   1.640
 3834TIP3    H111435   5.018   3.961   1.609
 3834TIP3    H211436   5.067   3.830   1.666
 3835TIP3   OH211437   6.158   4.513   0.992
 3835TIP3    H111438   6.160   4.597   0.946
 3835TIP3    H211439   6.232   4.464   0.955
 3836TIP3   OH211440   4.875   4.317   2.570
 3836TIP3    H111441   4.805   4.297   2.508
 3836TIP3    H211442   4.910   4.232   2.596
 3837TIP3   OH211443   4.733   4.502   2.209
 3837TIP3    H111444   4.829   4.507   2.210
 3837TIP3    H211445   4.705   4.579   2.259
 3838TIP3   OH211446   6.577   4.961   2.270
 3838TIP3    H111447   6.582   4.867   2.283
 3838TIP3    H211448   6.498   4.988   2.316
 3839TIP3   OH211449   5.682   4.747   2.396
 3839TIP3    H111450   5.677   4.838   2.426
 3839TIP3    H211451   5.616   4.701   2.446
 3840TIP3   OH211452   5.451   4.846   1.375
 3840TIP3    H111453   5.408   4.826   1.291
 3840TIP3    H211454   5.416   4.932   1.399
 3841TIP3   OH211455   4.895   4.703   1.733
 3841TIP3    H111456   4.941   4.696   1.817
 3841TIP3    H211457   4.848   4.620   1.724
 3842TIP3   OH211458   5.669   4.762   1.025
 3842TIP3    H111459   5.723   4.690   0.992
 3842TIP3    H211460   5.701   4.777   1.114
 3843TIP3   OH211461   5.708   4.825   1.287
 3843TIP3    H111462   5.622   4.827   1.327
 3843TIP3    H211463   5.765   4.788   1.354
 3844TIP3   OH211464   6.474   4.078   2.540
 3844TIP3    H111465   6.387   4.087   2.501
 3844TIP3    H211466   6.490   3.983   2.540
 3845TIP3   OH211467   5.076   4.503   2.540
 3845TIP3    H111468   5.127   4.492   2.620
 3845TIP3    H211469   5.004   4.440   2.548
 3846TIP3   OH211470   5.462   3.312   2.352
 3846TIP3    H111471   5.378   3.279   2.321
 3846TIP3    H211472   5.441   3.392   2.400
 3847TIP3   OH211473   6.006   3.428   2.551
 3847TIP3    H111474   6.076   3.406   2.612
 3847TIP3    H211475   5.925   3.414   2.600
 3848TIP3   OH211476   6.227   3.858   2.463
 3848TIP3    H111477   6.185   3.852   2.549
 3848TIP3    H211478   6.212   3.948   2.435
 3849TIP3   OH211479   5.898   3.925   1.014
 3849TIP3    H111480   5.851   3.936   0.932
 3849TIP3    H211481   5.983   3.964   0.999
 3850TIP3   OH211482   5.612   3.374   1.316
 3850TIP3    H111483   5.578   3.369   1.405
 3850TIP3    H211484   5.577   3.296   1.273
 3851TIP3   OH211485   5.399   3.844   2.362
 3851TIP3    H111486   5.354   3.852   2.446
 3851TIP3    H211487   5.378   3.926   2.316
 3852TIP3   OH211488   5.281   3.724   1.881
 3852TIP3    H111489   5.192   3.699   1.907
 3852TIP3    H211490   5.291   3.688   1.793
 3853TIP3   OH211491   5.763   3.796   1.610
 3853TIP3    H111492   5.714   3.868   1.570
 3853TIP3    H211493   5.822   3.766   1.541
 3854TIP3   OH211494   5.951   4.068   2.686
 3854TIP3    H111495   5.922   3.999   2.746
 3854TIP3    H211496   6.043   4.082   2.707
 3855TIP3   OH211497   5.929   3.813   1.836
 3855TIP3    H111498   5.860   3.835   1.773
 3855TIP3    H211499   5.975   3.739   1.795
 3856TIP3   OH211500   5.235   3.856   2.582
 3856TIP3    H111501   5.260   3.916   2.652
 3856TIP3    H211502   5.216   3.773   2.627
 3857TIP3   OH211503   5.268   3.332   1.293
 3857TIP3    H111504   5.265   3.327   1.389
 3857TIP3    H211505   5.195   3.390   1.270
 3858TIP3   OH211506   4.821   3.363   2.165
 3858TIP3    H111507   4.891   3.403   2.217
 3858TIP3    H211508   4.863   3.342   2.081
 3859TIP3   OH211509   4.749   3.359   1.668
 3859TIP3    H111510   4.793   3.394   1.591
 3859TIP3    H211511   4.686   3.427   1.692
 3860TIP3   OH211512   5.967   4.067   2.262
 3860TIP3    H111513   5.993   4.001   2.199
 3860TIP3    H211514   5.927   4.018   2.333
 3861TIP3   OH211515   5.642   3.516   1.933
 3861TIP3    H111516   5.564   3.517   1.989
 3861TIP3    H211517   5.715   3.507   1.994
 3862TIP3   OH211518   5.043   3.599   1.941
 3862TIP3    H111519   4.955   3.602   1.906
 3862TIP3    H211520   5.071   3.508   1.928
 3863TIP3   OH211521   5.296   3.596   1.638
 3863TIP3    H111522   5.390   3.608   1.626
 3863TIP3    H211523   5.259   3.614   1.552
 3864TIP3   OH211524   6.095   3.602   2.137
 3864TIP3    H111525   6.080   3.618   2.230
 3864TIP3    H211526   6.026   3.542   2.110
 3865TIP3   OH211527   5.176   3.622   1.392
 3865TIP3    H111528   5.107   3.581   1.339
 3865TIP3    H211529   5.231   3.668   1.329
 3866TIP3   OH211530   6.293   5.306   2.365
 3866TIP3    H111531   6.289   5.326   2.271
 3866TIP3    H211532   6.371   5.352   2.396
 3867TIP3   OH211533   5.233   4.420   2.772
 3867TIP3    H111534   5.314   4.439   2.820
 3867TIP3    H211535   5.164   4.424   2.839
 3868TIP3   OH211536   5.694   3.883   2.042
 3868TIP3    H111537   5.761   3.833   1.997
 3868TIP3    H211538   5.691   3.845   2.130
 3869TIP3   OH211539   5.190   3.350   1.932
 3869TIP3    H111540   5.159   3.276   1.984
 3869TIP3    H211541   5.222   3.311   1.851
 3870TIP3   OH211542   5.668   3.791   2.309
 3870TIP3    H111543   5.581   3.821   2.333
 3870TIP3    H211544   5.728   3.842   2.364
 3871TIP3   OH211545   5.405   4.146   1.409
 3871TIP3    H111546   5.331   4.090   1.388
 3871TIP3    H211547   5.383   4.186   1.492
 3872TIP3   OH211548   6.294   4.394   2.029
 3872TIP3    H111549   6.330   4.443   1.955
 3872TIP3    H211550   6.213   4.355   1.995
 3873TIP3   OH211551   5.869   3.462   1.314
 3873TIP3    H111552   5.775   3.445   1.313
 3873TIP3    H211553   5.877   3.556   1.330
 3874TIP3   OH211554   5.807   4.478   2.434
 3874TIP3    H111555   5.856   4.466   2.516
 3874TIP3    H211556   5.767   4.564   2.443
 3875TIP3   OH211557   5.930   3.721   1.394
 3875TIP3    H111558   6.025   3.727   1.406
 3875TIP3    H211559   5.907   3.800   1.345
 3876TIP3   OH211560   5.090   4.154   2.071
 3876TIP3    H111561   5.130   4.138   1.985
 3876TIP3    H211562   5.155   4.124   2.134
 3877TIP3   OH211563   5.564   4.305   1.247
 3877TIP3    H111564   5.513   4.386   1.251
 3877TIP3    H211565   5.514   4.243   1.300
 3878TIP3   OH211566   4.978   4.093   2.704
 3878TIP3    H111567   4.989   4.073   2.797
 3878TIP3    H211568   4.905   4.037   2.676
 3879TIP3   OH211569   5.714   4.219   2.721
 3879TIP3    H111570   5.648   4.157   2.692
 3879TIP3    H211571   5.797   4.179   2.695
 3880TIP3   OH211572   5.955   4.762   2.320
 3880TIP3    H111573   5.860   4.750   2.325
 3880TIP3    H211574   5.979   4.800   2.404
 3881TIP3   OH211575   6.347   3.804   1.222
 3881TIP3    H111576   6.291   3.759   1.160
 3881TIP3    H211577   6.354   3.893   1.187
 3882TIP3   OH211578   6.592   4.679   2.297
 3882TIP3    H111579   6.497   4.666   2.291
 3882TIP3    H211580   6.626   4.650   2.212
 3883TIP3   OH211581   6.031   4.636   1.206
 3883TIP3    H111582   6.018   4.583   1.285
 3883TIP3    H211583   6.069   4.576   1.142
 3884TIP3   OH211584   6.061   4.263   1.924
 3884TIP3    H111585   5.972   4.241   1.949
 3884TIP3    H211586   6.097   4.181   1.889
 3885TIP3   OH211587   5.217   4.495   1.735
 3885TIP3    H111588   5.213   4.572   1.679
 3885TIP3    H211589   5.127   4.483   1.766
 3886TIP3   OH211590   4.766   3.781   1.443
 3886TIP3    H111591   4.813   3.861   1.465
 3886TIP3    H211592   4.688   3.782   1.498
 3887TIP3   OH211593   5.305   4.251   1.638
 3887TIP3    H111594   5.290   4.340   1.668
 3887TIP3    H211595   5.282   4.196   1.712
 3888TIP3   OH211596   5.497   4.821   2.190
 3888TIP3    H111597   5.534   4.893   2.140
 3888TIP3    H211598   5.570   4.787   2.242
 3889TIP3   OH211599   5.128   4.720   1.587
 3889TIP3    H111600   5.042   4.725   1.628
 3889TIP3    H211601   5.162   4.809   1.592
 3890TIP3   OH211602   5.851   4.480   2.162
 3890TIP3    H111603   5.837   4.476   2.257
 3890TIP3    H211604   5.930   4.428   2.147
 3891TIP3   OH211605   5.811   4.364   1.095
 3891TIP3    H111606   5.879   4.351   1.162
 3891TIP3    H211607   5.729   4.345   1.141
 3892TIP3   OH211608   6.106   4.980   2.203
 3892TIP3    H111609   6.035   4.918   2.217
 3892TIP3    H211610   6.076   5.036   2.132
 3893TIP3   OH211611   6.148   4.802   0.926
 3893TIP3    H111612   6.153   4.817   0.832
 3893TIP3    H211613   6.091   4.871   0.959
 3894TIP3   OH211614   5.186   3.604   2.705
 3894TIP3    H111615   5.091   3.612   2.713
 3894TIP3    H211616   5.212   3.556   2.784
 3895TIP3   OH211617   6.009   4.300   1.274
 3895TIP3    H111618   6.002   4.222   1.329
 3895TIP3    H211619   6.100   4.300   1.246
 3896TIP3   OH211620   4.922   4.708   2.354
 3896TIP3    H111621   4.972   4.644   2.405
 3896TIP3    H211622   4.938   4.791   2.399
 3897TIP3   OH211623   5.188   4.336   1.050
 3897TIP3    H111624   5.209   4.247   1.022
 3897TIP3    H211625   5.175   4.329   1.145
 3898TIP3   OH211626   5.137   4.340   1.322
 3898TIP3    H111627   5.204   4.311   1.384
 3898TIP3    H211628   5.137   4.436   1.330
 3899TIP3   OH211629   4.869   4.030   1.525
 3899TIP3    H111630   4.805   4.077   1.578
 3899TIP3    H211631   4.889   4.090   1.453
 3900TIP3   OH211632   6.043   3.656   2.398
 3900TIP3    H111633   6.114   3.707   2.437
 3900TIP3    H211634   6.031   3.582   2.458
 3901TIP3   OH211635   5.925   3.410   1.586
 3901TIP3    H111636   5.905   3.431   1.495
 3901TIP3    H211637   5.968   3.489   1.619
 3902TIP3   OH211638   5.408   4.524   1.266
 3902TIP3    H111639   5.324   4.547   1.306
 3902TIP3    H211640   5.432   4.602   1.215
 3903TIP3   OH211641   5.576   3.606   1.678
 3903TIP3    H111642   5.639   3.673   1.653
 3903TIP3    H211643   5.596   3.586   1.770
 3904TIP3   OH211644   5.875   3.903   2.464
 3904TIP3    H111645   5.899   3.951   2.544
 3904TIP3    H211646   5.924   3.821   2.470
 3905TIP3   OH211647   5.742   3.308   1.768
 3905TIP3    H111648   5.719   3.385   1.820
 3905TIP3    H211649   5.810   3.340   1.708
 3906TIP3   OH211650   5.155   4.612   1.338
 3906TIP3    H111651   5.134   4.684   1.278
 3906TIP3    H211652   5.145   4.650   1.425
 3907TIP3   OH211653   5.256   3.322   1.572
 3907TIP3    H111654   5.241   3.411   1.604
 3907TIP3    H211655   5.351   3.309   1.578
 3908TIP3   OH211656   6.491   3.801   2.447
 3908TIP3    H111657   6.397   3.812   2.460
 3908TIP3    H211658   6.498   3.742   2.372
 3909TIP3   OH211659   6.154   4.004   1.839
 3909TIP3    H111660   6.076   3.949   1.853
 3909TIP3    H211661   6.221   3.964   1.894
 3910TIP3   OH211662   4.890   4.213   1.311
 3910TIP3    H111663   4.963   4.274   1.324
 3910TIP3    H211664   4.923   4.150   1.247
 3911TIP3   OH211665   4.800   3.502   1.437
 3911TIP3    H111666   4.803   3.597   1.444
 3911TIP3    H211667   4.722   3.484   1.384
 3912TIP3   OH211668   6.135   4.973   1.778
 3912TIP3    H111669   6.093   5.029   1.712
 3912TIP3    H211670   6.229   4.986   1.765
 3913TIP3   OH211671   5.201   3.226   2.312
 3913TIP3    H111672   5.171   3.193   2.228
 3913TIP3    H211673   5.193   3.151   2.372
 3914TIP3   OH211674   4.726   4.476   1.708
 3914TIP3    H111675   4.681   4.512   1.785
 3914TIP3    H211676   4.684   4.519   1.633
 3915TIP3   OH211677   4.921   5.019   2.774
 3915TIP3    H111678   5.002   5.025   2.823
 3915TIP3    H211679   4.906   4.925   2.764
 3916TIP3   OH211680   5.383   4.935   2.814
 3916TIP3    H111681   5.477   4.917   2.824
 3916TIP3    H211682   5.355   4.876   2.744
 3917TIP3   OH211683   5.368   4.528   0.965
 3917TIP3    H111684   5.317   4.458   1.006
 3917TIP3    H211685   5.441   4.483   0.922
 3918TIP3   OH211686   6.011   4.866   2.568
 3918TIP3    H111687   6.023   4.797   2.634
 3918TIP3    H211688   6.084   4.925   2.582
 3919TIP3   OH211689   5.799   4.561   0.897
 3919TIP3    H111690   5.833   4.496   0.958
 3919TIP3    H211691   5.857   4.557   0.821
 3920TIP3   OH211692   5.028   4.414   2.963
 3920TIP3    H111693   5.050   4.322   2.972
 3920TIP3    H211694   4.941   4.415   2.923
 3921TIP3   OH211695   5.018   4.023   1.163
 3921TIP3    H111696   5.067   3.998   1.241
 3921TIP3    H211697   5.086   4.042   1.097
 3922TIP3   OH211698   5.648   4.496   2.739
 3922TIP3    H111699   5.603   4.516   2.657
 3922TIP3    H211700   5.682   4.407   2.727
 3923TIP3   OH211701   5.522   4.238   0.980
 3923TIP3    H111702   5.534   4.249   1.074
 3923TIP3    H211703   5.529   4.144   0.966
 3924TIP3   OH211704   6.124   4.535   2.357
 3924TIP3    H111705   6.201   4.564   2.309
 3924TIP3    H211706   6.059   4.604   2.341
 3925TIP3   OH211707   5.145   4.159   2.963
 3925TIP3    H111708   5.223   4.129   2.917
 3925TIP3    H211709   5.176   4.177   3.052
 3926TIP3   OH211710   5.193   3.966   1.375
 3926TIP3    H111711   5.172   3.939   1.465
 3926TIP3    H211712   5.240   3.892   1.339
 3927TIP3   OH211713   5.499   4.037   2.622
 3927TIP3    H111714   5.417   4.085   2.631
 3927TIP3    H211715   5.535   4.067   2.539
 3928TIP3   OH211716   5.331   3.775   1.226
 3928TIP3    H111717   5.305   3.785   1.134
 3928TIP3    H211718   5.427   3.780   1.224
 3929TIP3   OH211719   6.005   4.420   2.720
 3929TIP3    H111720   6.073   4.380   2.666
 3929TIP3    H211721   6.001   4.365   2.798
 3930TIP3   OH211722   6.138   4.014   0.912
 3930TIP3    H111723   6.122   3.986   0.822
 3930TIP3    H211724   6.098   4.101   0.918
 3931TIP3   OH211725   5.607   3.813   2.737
 3931TIP3    H111726   5.612   3.740   2.675
 3931TIP3    H211727   5.571   3.886   2.687
 3932TIP3   OH211728   5.617   3.611   2.535
 3932TIP3    H111729   5.644   3.649   2.451
 3932TIP3    H211730   5.526   3.585   2.521
 3933TIP3   OH211731   5.626   4.137   2.404
 3933TIP3    H111732   5.715   4.169   2.391
 3933TIP3    H211733   5.571   4.200   2.357
 3934TIP3   OH211734   6.214   4.093   2.797
 3934TIP3    H111735   6.249   4.018   2.843
 3934TIP3    H211736   6.289   4.151   2.782
 3935TIP3   OH211737   6.249   4.364   2.528
 3935TIP3    H111738   6.195   4.424   2.477
 3935TIP3    H211739   6.338   4.379   2.497
 3936TIP3   OH211740   5.489   3.905   2.979
 3936TIP3    H111741   5.422   3.841   3.001
 3936TIP3    H211742   5.521   3.878   2.892
 3937TIP3   OH211743   5.739   3.376   2.630
 3937TIP3    H111744   5.698   3.457   2.600
 3937TIP3    H211745   5.672   3.309   2.619
 3938TIP3   OH211746   5.866   3.856   2.835
 3938TIP3    H111747   5.860   3.845   2.930
 3938TIP3    H211748   5.779   3.834   2.802
 3939TIP3   OH211749   6.102   3.798   2.693
 3939TIP3    H111750   6.029   3.803   2.755
 3939TIP3    H211751   6.177   3.775   2.747
 3940TIP3   OH211752   6.351   3.753   2.820
 3940TIP3    H111753   6.363   3.660   2.842
 3940TIP3    H211754   6.336   3.796   2.904
 3941TIP3   OH211755   5.327   3.680   3.037
 3941TIP3    H111756   5.333   3.591   3.002
 3941TIP3    H211757   5.363   3.673   3.126
 3942TIP3   OH211758   5.809   3.360   2.896
 3942TIP3    H111759   5.879   3.295   2.891
 3942TIP3    H211760   5.778   3.369   2.806
 3943TIP3   OH211761   5.900   3.578   3.040
 3943TIP3    H111762   5.870   3.506   2.985
 3943TIP3    H211763   5.827   3.641   3.039
 3944TIP3   OH211764   5.148   4.827   1.164
 3944TIP3    H111765   5.238   4.805   1.143
 3944TIP3    H211766   5.117   4.878   1.089
 3945TIP3   OH211767   4.616   4.207   1.322
 3945TIP3    H111768   4.711   4.219   1.324
 3945TIP3    H211769   4.604   4.118   1.288
 3946TIP3   OH211770   4.523   4.793   1.788
 3946TIP3    H111771   4.458   4.738   1.743
 3946TIP3    H211772   4.567   4.733   1.848
 3947TIP3   OH211773   4.666   4.627   1.958
 3947TIP3    H111774   4.656   4.558   2.023
 3947TIP3    H211775   4.717   4.695   2.001
 3948TIP3   OH211776   6.404   5.029   1.768
 3948TIP3    H111777   6.422   5.061   1.856
 3948TIP3    H211778   6.459   5.083   1.711
 3949TIP3   OH211779   6.417   5.065   2.048
 3949TIP3    H111780   6.372   4.981   2.043
 3949TIP3    H211781   6.489   5.050   2.109
 3950TIP3   OH211782   6.472   4.758   2.619
 3950TIP3    H111783   6.402   4.768   2.683
 3950TIP3    H211784   6.517   4.842   2.620
 3951TIP3   OH211785   6.284   4.263   1.238
 3951TIP3    H111786   6.344   4.334   1.212
 3951TIP3    H211787   6.328   4.220   1.311
 3952TIP3   OH211788   6.422   4.127   1.433
 3952TIP3    H111789   6.357   4.090   1.493
 3952TIP3    H211790   6.487   4.167   1.491
 3953TIP3   OH211791   6.469   4.530   1.864
 3953TIP3    H111792   6.524   4.464   1.822
 3953TIP3    H211793   6.473   4.606   1.805
 3954TIP3   OH211794   6.280   4.822   2.052
 3954TIP3    H111795   6.213   4.865   2.105
 3954TIP3    H211796   6.232   4.779   1.981
 3955TIP3   OH211797   6.347   4.041   1.085
 3955TIP3    H111798   6.278   4.031   1.020
 3955TIP3    H211799   6.324   4.121   1.133
 3956TIP3   OH211800   6.194   3.695   1.026
 3956TIP3    H111801   6.155   3.751   0.958
 3956TIP3    H211802   6.177   3.606   0.997
 3957TIP3   OH211803   6.222   3.990   1.572
 3957TIP3    H111804   6.229   3.895   1.560
 3957TIP3    H211805   6.203   4.002   1.665
 3958TIP3   OH211806   4.842   4.061   2.336
 3958TIP3    H111807   4.833   4.025   2.248
 3958TIP3    H211808   4.935   4.056   2.355
 3959TIP3   OH211809   6.506   4.412   2.431
 3959TIP3    H111810   6.572   4.345   2.414
 3959TIP3    H211811   6.524   4.481   2.366
 3960TIP3   OH211812   6.684   4.202   2.419
 3960TIP3    H111813   6.610   4.160   2.462
 3960TIP3    H211814   6.759   4.146   2.439
 3961TIP3   OH211815   6.153   3.420   0.982
 3961TIP3    H111816   6.213   3.405   1.054
 3961TIP3    H211817   6.069   3.386   1.014
 3962TIP3   OH211818   6.217   3.714   1.456
 3962TIP3    H111819   6.261   3.630   1.467
 3962TIP3    H211820   6.261   3.754   1.381
 3963TIP3   OH211821   6.369   3.879   1.974
 3963TIP3    H111822   6.450   3.897   1.926
 3963TIP3    H211823   6.382   3.918   2.060
 3964TIP3   OH211824   6.442   4.029   2.200
 3964TIP3    H111825   6.372   4.058   2.258
 3964TIP3    H211826   6.474   4.109   2.158
 3965TIP3   OH211827   5.063   3.738   2.978
 3965TIP3    H111828   5.157   3.736   2.997
 3965TIP3    H211829   5.029   3.658   3.018
 3966TIP3   OH211830   6.906   3.632   2.744
 3966TIP3    H111831   6.968   3.572   2.704
 3966TIP3    H211832   6.869   3.681   2.671
 3967TIP3   OH211833   6.331   3.463   1.502
 3967TIP3    H111834   6.377   3.448   1.584
 3967TIP3    H211835   6.266   3.392   1.498
 3968TIP3   OH211836   5.034   3.448   2.324
 3968TIP3    H111837   5.088   3.370   2.333
 3968TIP3    H211838   5.096   3.520   2.311
 3969TIP3   OH211839   4.820   3.711   2.391
 3969TIP3    H111840   4.871   3.707   2.311
 3969TIP3    H211841   4.853   3.787   2.438
 3970TIP3   OH211842   6.758   3.751   2.549
 3970TIP3    H111843   6.683   3.791   2.593
 3970TIP3    H211844   6.720   3.683   2.493
 3971TIP3   OH211845   6.378   3.383   1.144
 3971TIP3    H111846   6.426   3.323   1.087
 3971TIP3    H211847   6.433   3.461   1.147
 3972TIP3   OH211848   4.803   3.211   1.892
 3972TIP3    H111849   4.717   3.204   1.933
 3972TIP3    H211850   4.789   3.271   1.818
 3973TIP3   OH211851   5.956   4.942   1.437
 3973TIP3    H111852   6.020   4.927   1.367
 3973TIP3    H211853   5.995   5.010   1.491
 3974TIP3   OH211854   5.027   3.274   2.713
 3974TIP3    H111855   4.981   3.275   2.797
 3974TIP3    H211856   4.971   3.325   2.654
 3975TIP3   OH211857   5.057   4.737   2.783
 3975TIP3    H111858   4.964   4.715   2.777
 3975TIP3    H211859   5.078   4.725   2.876
 3976TIP3   OH211860   5.267   4.780   2.338
 3976TIP3    H111861   5.216   4.854   2.306
 3976TIP3    H211862   5.353   4.789   2.295
 3977TIP3   OH211863   5.672   5.014   2.476
 3977TIP3    H111864   5.709   5.007   2.564
 3977TIP3    H211865   5.735   5.067   2.427
 3978TIP3   OH211866   5.863   5.166   2.347
 3978TIP3    H111867   5.927   5.113   2.300
 3978TIP3    H211868   5.916   5.223   2.402
 3979TIP3   OH211869   6.666   3.502   2.437
 3979TIP3    H111870   6.577   3.495   2.402
 3979TIP3    H211871   6.700   3.412   2.434
 3980TIP3   OH211872   4.929   5.028   2.383
 3980TIP3    H111873   4.837   5.046   2.362
 3980TIP3    H211874   4.951   5.091   2.451
 3981TIP3   OH211875   5.159   5.011   2.234
 3981TIP3    H111876   5.077   5.018   2.281
 3981TIP3    H211877   5.137   5.036   2.144
 3982TIP3   OH211878   5.577   5.029   2.024
 3982TIP3    H111879   5.505   5.043   1.963
 3982TIP3    H211880   5.588   5.114   2.067
 3983TIP3   OH211881   5.841   4.963   2.076
 3983TIP3    H111882   5.749   4.985   2.057
 3983TIP3    H211883   5.891   5.032   2.033
 3984TIP3   OH211884   6.039   5.137   1.979
 3984TIP3    H111885   6.040   5.224   1.941
 3984TIP3    H211886   6.072   5.080   1.910
 3985TIP3   OH211887   4.841   4.803   2.104
 3985TIP3    H111888   4.865   4.777   2.194
 3985TIP3    H211889   4.913   4.769   2.050
 3986TIP3   OH211890   5.044   4.686   1.964
 3986TIP3    H111891   5.054   4.602   2.008
 3986TIP3    H211892   5.130   4.727   1.969
 3987TIP3   OH211893   5.311   4.773   1.987
 3987TIP3    H111894   5.331   4.680   1.972
 3987TIP3    H211895   5.364   4.797   2.062
 3988TIP3   OH211896   5.868   3.424   2.070
 3988TIP3    H111897   5.831   3.353   2.123
 3988TIP3    H211898   5.938   3.382   2.020
 3989TIP3   OH211899   6.376   3.325   1.952
 3989TIP3    H111900   6.415   3.377   1.881
 3989TIP3    H211901   6.287   3.359   1.960
 3990TIP3   OH211902   6.493   3.411   1.719
 3990TIP3    H111903   6.564   3.353   1.693
 3990TIP3    H211904   6.529   3.499   1.708
 3991TIP3   OH211905   5.111   3.123   2.071
 3991TIP3    H111906   5.023   3.089   2.082
 3991TIP3    H211907   5.167   3.045   2.064
 3992TIP3   OH211908   4.909   3.012   1.718
 3992TIP3    H111909   4.945   3.063   1.645
 3992TIP3    H211910   4.879   3.078   1.781
 3993TIP3   OH211911   5.589   3.166   1.961
 3993TIP3    H111912   5.639   3.216   1.896
 3993TIP3    H211913   5.626   3.194   2.045
 3994TIP3   OH211914   6.085   3.310   1.941
 3994TIP3    H111915   6.098   3.275   1.853
 3994TIP3    H211916   6.090   3.234   1.999
 3995TIP3   OH211917   6.142   3.253   1.507
 3995TIP3    H111918   6.063   3.303   1.531
 3995TIP3    H211919   6.128   3.167   1.545
 3996TIP3   OH211920   4.613   4.597   1.489
 3996TIP3    H111921   4.528   4.561   1.463
 3996TIP3    H211922   4.612   4.687   1.457
 3997TIP3   OH211923   5.045   3.149   1.489
 3997TIP3    H111924   5.091   3.081   1.441
 3997TIP3    H211925   5.113   3.205   1.525
 3998TIP3   OH211926   5.532   3.353   1.582
 3998TIP3    H111927   5.593   3.304   1.638
 3998TIP3    H211928   5.543   3.444   1.609
 3999TIP3   OH211929   5.405   4.759   1.105
 3999TIP3    H111930   5.494   4.783   1.079
 3999TIP3    H211931   5.382   4.687   1.046
 4000TIP3   OH211932   6.122   4.890   1.222
 4000TIP3    H111933   6.102   4.797   1.220
 4000TIP3    H211934   6.076   4.926   1.146
 4001TIP3   OH211935   5.336   3.407   2.950
 4001TIP3    H111936   5.299   3.342   3.011
 4001TIP3    H211937   5.428   3.413   2.975
 4002TIP3   OH211938   5.584   3.407   3.071
 4002TIP3    H111939   5.665   3.388   3.023
 4002TIP3    H211940   5.579   3.340   3.138
 4003TIP3   OH211941   4.712   4.596   1.144
 4003TIP3    H111942   4.712   4.598   1.240
 4003TIP3    H211943   4.793   4.551   1.121
 4004TIP3   OH211944   6.412   3.487   2.865
 4004TIP3    H111945   6.426   3.463   2.956
 4004TIP3    H211946   6.499   3.485   2.826
 4005TIP3   OH211947   6.328   5.032   2.368
 4005TIP3    H111948   6.253   5.003   2.316
 4005TIP3    H211949   6.317   5.127   2.376
 4006TIP3   OH211950   7.617   4.384   1.139
 4006TIP3    H111951   7.585   4.473   1.125
 4006TIP3    H211952   7.549   4.328   1.102
 4007TIP3   OH211953   7.575   4.410   1.512
 4007TIP3    H111954   7.602   4.394   1.603
 4007TIP3    H211955   7.535   4.327   1.485
 4008TIP3   OH211956   6.902   4.279   1.881
 4008TIP3    H111957   6.937   4.226   1.952
 4008TIP3    H211958   6.980   4.307   1.832
 4009TIP3   OH211959   7.888   4.694   1.254
 4009TIP3    H111960   7.865   4.637   1.327
 4009TIP3    H211961   7.915   4.776   1.294
 4010TIP3   OH211962   6.891   4.697   1.563
 4010TIP3    H111963   6.875   4.604   1.578
 4010TIP3    H211964   6.986   4.705   1.557
 4011TIP3   OH211965   6.578   3.904   1.356
 4011TIP3    H111966   6.540   3.989   1.379
 4011TIP3    H211967   6.505   3.856   1.317
 4012TIP3   OH211968   6.652   4.215   1.568
 4012TIP3    H111969   6.702   4.138   1.595
 4012TIP3    H211970   6.718   4.279   1.541
 4013TIP3   OH211971   7.488   5.172   1.284
 4013TIP3    H111972   7.522   5.089   1.249
 4013TIP3    H211973   7.453   5.149   1.370
 4014TIP3   OH211974   7.410   4.638   1.539
 4014TIP3    H111975   7.450   4.557   1.506
 4014TIP3    H211976   7.484   4.690   1.571
 4015TIP3   OH211977   7.789   4.145   1.571
 4015TIP3    H111978   7.820   4.056   1.588
 4015TIP3    H211979   7.739   4.138   1.490
 4016TIP3   OH211980   7.154   3.778   1.538
 4016TIP3    H111981   7.137   3.853   1.481
 4016TIP3    H211982   7.099   3.708   1.503
 4017TIP3   OH211983   7.869   3.906   1.175
 4017TIP3    H111984   7.942   3.867   1.223
 4017TIP3    H211985   7.906   3.984   1.134
 4018TIP3   OH211986   6.792   3.996   1.662
 4018TIP3    H111987   6.874   3.979   1.708
 4018TIP3    H211988   6.799   3.945   1.581
 4019TIP3   OH211989   7.214   4.192   1.482
 4019TIP3    H111990   7.308   4.178   1.488
 4019TIP3    H211991   7.180   4.111   1.444
 4020TIP3   OH211992   7.147   3.786   1.989
 4020TIP3    H111993   7.096   3.825   1.917
 4020TIP3    H211994   7.094   3.802   2.067
 4021TIP3   OH211995   7.504   4.606   1.020
 4021TIP3    H111996   7.474   4.576   0.934
 4021TIP3    H211997   7.428   4.650   1.058
 4022TIP3   OH211998   7.248   4.563   1.751
 4022TIP3    H111999   7.193   4.632   1.786
 4022TIP3    H212000   7.295   4.603   1.678
 4023TIP3   OH212001   7.035   3.893   1.760
 4023TIP3    H112002   7.090   3.968   1.781
 4023TIP3    H212003   7.080   3.850   1.687
 4024TIP3   OH212004   7.088   4.758   1.859
 4024TIP3    H112005   7.075   4.848   1.829
 4024TIP3    H212006   7.011   4.739   1.912
 4025TIP3   OH212007   6.477   4.443   1.154
 4025TIP3    H112008   6.440   4.452   1.066
 4025TIP3    H212009   6.503   4.531   1.179
 4026TIP3   OH212010   7.924   4.944   1.366
 4026TIP3    H112011   7.835   4.943   1.399
 4026TIP3    H212012   7.937   5.034   1.335
 4027TIP3   OH212013   7.479   3.478   1.731
 4027TIP3    H112014   7.474   3.387   1.763
 4027TIP3    H212015   7.402   3.521   1.768
 4028TIP3   OH212016   7.628   4.984   1.139
 4028TIP3    H112017   7.678   4.905   1.118
 4028TIP3    H212018   7.647   5.044   1.068
 4029TIP3   OH212019   7.741   4.744   1.035
 4029TIP3    H112020   7.661   4.692   1.032
 4029TIP3    H212021   7.789   4.710   1.111
 4030TIP3   OH212022   8.132   4.818   1.702
 4030TIP3    H112023   8.103   4.762   1.630
 4030TIP3    H212024   8.135   4.906   1.664
 4031TIP3   OH212025   7.452   4.248   0.964
 4031TIP3    H112026   7.362   4.279   0.964
 4031TIP3    H212027   7.484   4.267   0.876
 4032TIP3   OH212028   7.403   4.070   0.670
 4032TIP3    H112029   7.469   4.129   0.706
 4032TIP3    H212030   7.453   3.996   0.636
 4033TIP3   OH212031   7.797   4.311   0.947
 4033TIP3    H112032   7.740   4.343   1.017
 4033TIP3    H212033   7.864   4.261   0.993
 4034TIP3   OH212034   7.884   4.360   1.945
 4034TIP3    H112035   7.921   4.441   1.980
 4034TIP3    H212036   7.816   4.389   1.883
 4035TIP3   OH212037   6.998   4.311   1.351
 4035TIP3    H112038   6.971   4.254   1.278
 4035TIP3    H212039   7.076   4.269   1.386
 4036TIP3   OH212040   7.156   4.734   1.474
 4036TIP3    H112041   7.137   4.720   1.381
 4036TIP3    H212042   7.246   4.705   1.485
 4037TIP3   OH212043   7.119   4.326   1.706
 4037TIP3    H112044   7.155   4.289   1.625
 4037TIP3    H212045   7.168   4.406   1.720
 4038TIP3   OH212046   7.679   4.949   1.482
 4038TIP3    H112047   7.664   5.031   1.528
 4038TIP3    H212048   7.661   4.881   1.546
 4039TIP3   OH212049   7.287   4.862   2.024
 4039TIP3    H112050   7.226   4.921   2.070
 4039TIP3    H212051   7.230   4.809   1.968
 4040TIP3   OH212052   7.627   4.234   0.740
 4040TIP3    H112053   7.684   4.265   0.810
 4040TIP3    H212054   7.634   4.301   0.672
 4041TIP3   OH212055   7.044   4.409   2.158
 4041TIP3    H112056   7.049   4.502   2.181
 4041TIP3    H212057   6.950   4.390   2.154
 4042TIP3   OH212058   7.357   4.933   1.161
 4042TIP3    H112059   7.453   4.935   1.165
 4042TIP3    H212060   7.339   4.902   1.072
 4043TIP3   OH212061   7.079   5.021   2.111
 4043TIP3    H112062   7.055   5.029   2.018
 4043TIP3    H212063   6.995   5.005   2.156
 4044TIP3   OH212064   6.900   4.149   1.140
 4044TIP3    H112065   6.820   4.196   1.118
 4044TIP3    H212066   6.873   4.059   1.155
 4045TIP3   OH212067   6.671   4.573   2.059
 4045TIP3    H112068   6.602   4.554   1.996
 4045TIP3    H212069   6.707   4.488   2.082
 4046TIP3   OH212070   6.521   4.766   1.721
 4046TIP3    H112071   6.615   4.783   1.729
 4046TIP3    H212072   6.479   4.844   1.756
 4047TIP3   OH212073   7.475   5.000   1.880
 4047TIP3    H112074   7.473   5.090   1.912
 4047TIP3    H212075   7.408   4.955   1.933
 4048TIP3   OH212076   7.263   5.164   0.719
 4048TIP3    H112077   7.191   5.103   0.706
 4048TIP3    H212078   7.226   5.234   0.772
 4049TIP3   OH212079   6.655   4.967   1.248
 4049TIP3    H112080   6.710   4.962   1.326
 4049TIP3    H212081   6.613   4.881   1.242
 4050TIP3   OH212082   7.414   4.938   0.661
 4050TIP3    H112083   7.361   5.018   0.657
 4050TIP3    H212084   7.491   4.963   0.712
 4051TIP3   OH212085   6.872   4.760   2.029
 4051TIP3    H112086   6.922   4.747   2.110
 4051TIP3    H212087   6.799   4.697   2.036
 4052TIP3   OH212088   7.245   3.572   1.843
 4052TIP3    H112089   7.160   3.542   1.811
 4052TIP3    H212090   7.226   3.653   1.891
 4053TIP3   OH212091   7.770   3.688   2.067
 4053TIP3    H112092   7.837   3.676   2.134
 4053TIP3    H212093   7.687   3.671   2.112
 4054TIP3   OH212094   8.114   4.143   1.989
 4054TIP3    H112095   8.036   4.159   2.041
 4054TIP3    H212096   8.108   4.205   1.916
 4055TIP3   OH212097   7.426   3.594   0.819
 4055TIP3    H112098   7.390   3.612   0.906
 4055TIP3    H212099   7.373   3.522   0.785
 4056TIP3   OH212100   7.192   4.100   1.849
 4056TIP3    H112101   7.148   4.109   1.933
 4056TIP3    H212102   7.173   4.182   1.803
 4057TIP3   OH212103   7.076   3.979   1.372
 4057TIP3    H112104   6.985   3.958   1.395
 4057TIP3    H212105   7.087   3.947   1.283
 4058TIP3   OH212106   7.569   4.037   1.084
 4058TIP3    H112107   7.522   4.111   1.044
 4058TIP3    H212108   7.631   4.009   1.016
 4059TIP3   OH212109   7.699   4.342   2.179
 4059TIP3    H112110   7.686   4.274   2.245
 4059TIP3    H212111   7.794   4.346   2.167
 4060TIP3   OH212112   7.701   4.081   1.322
 4060TIP3    H112113   7.640   4.095   1.249
 4060TIP3    H212114   7.749   4.003   1.297
 4061TIP3   OH212115   7.031   4.116   2.072
 4061TIP3    H112116   7.049   4.180   2.140
 4061TIP3    H212117   7.012   4.035   2.119
 4062TIP3   OH212118   7.072   3.597   0.788
 4062TIP3    H112119   7.064   3.603   0.883
 4062TIP3    H212120   6.996   3.643   0.753
 4063TIP3   OH212121   6.619   3.637   1.648
 4063TIP3    H112122   6.687   3.674   1.704
 4063TIP3    H212123   6.661   3.630   1.562
 4064TIP3   OH212124   6.536   3.612   1.155
 4064TIP3    H112125   6.578   3.647   1.076
 4064TIP3    H212126   6.474   3.680   1.182
 4065TIP3   OH212127   7.672   4.324   1.754
 4065TIP3    H112128   7.722   4.267   1.695
 4065TIP3    H212129   7.649   4.267   1.828
 4066TIP3   OH212130   7.410   3.826   1.426
 4066TIP3    H112131   7.334   3.808   1.482
 4066TIP3    H212132   7.483   3.780   1.469
 4067TIP3   OH212133   6.837   3.855   1.430
 4067TIP3    H112134   6.748   3.862   1.395
 4067TIP3    H212135   6.863   3.765   1.411
 4068TIP3   OH212136   7.087   3.854   1.128
 4068TIP3    H112137   7.180   3.872   1.118
 4068TIP3    H212138   7.049   3.874   1.042
 4069TIP3   OH212139   7.863   3.878   1.582
 4069TIP3    H112140   7.845   3.865   1.675
 4069TIP3    H212141   7.900   3.795   1.553
 4070TIP3   OH212142   6.968   3.878   0.885
 4070TIP3    H112143   6.905   3.834   0.828
 4070TIP3    H212144   7.025   3.926   0.824
 4071TIP3   OH212145   8.082   5.581   1.874
 4071TIP3    H112146   8.104   5.590   1.781
 4071TIP3    H212147   8.167   5.574   1.918
 4072TIP3   OH212148   7.029   4.672   2.261
 4072TIP3    H112149   7.110   4.694   2.307
 4072TIP3    H212150   6.961   4.680   2.327
 4073TIP3   OH212151   7.480   4.134   1.528
 4073TIP3    H112152   7.529   4.073   1.473
 4073TIP3    H212153   7.483   4.094   1.615
 4074TIP3   OH212154   6.975   3.603   1.408
 4074TIP3    H112155   6.951   3.523   1.457
 4074TIP3    H212156   6.989   3.573   1.318
 4075TIP3   OH212157   7.456   4.036   1.799
 4075TIP3    H112158   7.367   4.066   1.816
 4075TIP3    H212159   7.510   4.087   1.859
 4076TIP3   OH212160   7.207   4.355   0.949
 4076TIP3    H112161   7.122   4.320   0.921
 4076TIP3    H212162   7.187   4.403   1.029
 4077TIP3   OH212163   8.076   4.632   1.514
 4077TIP3    H112164   8.125   4.624   1.432
 4077TIP3    H212165   7.993   4.589   1.496
 4078TIP3   OH212166   7.671   3.705   0.779
 4078TIP3    H112167   7.581   3.674   0.791
 4078TIP3    H212168   7.661   3.795   0.747
 4079TIP3   OH212169   7.604   4.736   1.921
 4079TIP3    H112170   7.645   4.724   2.007
 4079TIP3    H212171   7.563   4.823   1.927
 4080TIP3   OH212172   7.733   3.999   0.864
 4080TIP3    H112173   7.827   4.013   0.854
 4080TIP3    H212174   7.693   4.062   0.805
 4081TIP3   OH212175   6.879   4.413   1.573
 4081TIP3    H112176   6.914   4.388   1.488
 4081TIP3    H212177   6.946   4.385   1.636
 4082TIP3   OH212178   7.368   4.514   0.792
 4082TIP3    H112179   7.308   4.572   0.745
 4082TIP3    H212180   7.310   4.455   0.841
 4083TIP3   OH212181   6.771   4.344   2.189
 4083TIP3    H112182   6.777   4.321   2.281
 4083TIP3    H212183   6.698   4.292   2.155
 4084TIP3   OH212184   7.476   4.491   2.215
 4084TIP3    H112185   7.410   4.428   2.184
 4084TIP3    H212186   7.560   4.452   2.190
 4085TIP3   OH212187   7.745   5.007   1.800
 4085TIP3    H112188   7.650   4.995   1.796
 4085TIP3    H212189   7.761   5.045   1.886
 4086TIP3   OH212190   7.835   4.505   1.449
 4086TIP3    H112191   7.742   4.486   1.463
 4086TIP3    H212192   7.868   4.427   1.403
 4087TIP3   OH212193   7.006   4.720   1.234
 4087TIP3    H112194   6.992   4.807   1.197
 4087TIP3    H212195   6.927   4.703   1.285
 4088TIP3   OH212196   6.581   4.029   0.940
 4088TIP3    H112197   6.627   4.108   0.970
 4088TIP3    H212198   6.498   4.031   0.988
 4089TIP3   OH212199   7.154   4.474   1.191
 4089TIP3    H112200   7.123   4.563   1.178
 4089TIP3    H212201   7.095   4.436   1.255
 4090TIP3   OH212202   7.291   5.067   1.679
 4090TIP3    H112203   7.325   5.146   1.637
 4090TIP3    H212204   7.364   5.035   1.732
 4091TIP3   OH212205   6.903   4.968   1.142
 4091TIP3    H112206   6.813   4.965   1.174
 4091TIP3    H212207   6.924   5.062   1.137
 4092TIP3   OH212208   7.649   4.727   1.651
 4092TIP3    H112209   7.636   4.726   1.745
 4092TIP3    H212210   7.731   4.679   1.637
 4093TIP3   OH212211   7.902   5.216   1.701
 4093TIP3    H112212   7.839   5.146   1.719
 4093TIP3    H212213   7.861   5.268   1.631
 4094TIP3   OH212214   6.979   3.863   2.196
 4094TIP3    H112215   6.884   3.873   2.202
 4094TIP3    H212216   7.004   3.818   2.276
 4095TIP3   OH212217   7.815   4.481   0.732
 4095TIP3    H112218   7.813   4.431   0.814
 4095TIP3    H212219   7.906   4.477   0.704
 4096TIP3   OH212220   6.719   4.969   1.842
 4096TIP3    H112221   6.773   4.909   1.893
 4096TIP3    H212222   6.734   5.055   1.882
 4097TIP3   OH212223   7.121   4.432   0.630
 4097TIP3    H112224   7.105   4.368   0.560
 4097TIP3    H212225   7.087   4.514   0.595
 4098TIP3   OH212226   6.897   4.560   0.803
 4098TIP3    H112227   6.974   4.503   0.797
 4098TIP3    H212228   6.929   4.645   0.773
 4099TIP3   OH212229   6.670   4.267   1.054
 4099TIP3    H112230   6.606   4.314   1.108
 4099TIP3    H212231   6.678   4.320   0.975
 4100TIP3   OH212232   7.823   3.846   1.849
 4100TIP3    H112233   7.826   3.940   1.864
 4100TIP3    H212234   7.789   3.809   1.931
 4101TIP3   OH212235   7.701   3.705   1.061
 4101TIP3    H112236   7.703   3.709   0.965
 4101TIP3    H212237   7.752   3.781   1.089
 4102TIP3   OH212238   7.170   4.702   0.691
 4102TIP3    H112239   7.132   4.789   0.708
 4102TIP3    H212240   7.210   4.710   0.604
 4103TIP3   OH212241   7.361   3.875   1.159
 4103TIP3    H112242   7.433   3.930   1.128
 4103TIP3    H212243   7.378   3.864   1.252
 4104TIP3   OH212244   7.624   4.166   1.976
 4104TIP3    H112245   7.627   4.233   2.044
 4104TIP3    H212246   7.707   4.118   1.986
 4105TIP3   OH212247   7.549   3.588   1.249
 4105TIP3    H112248   7.571   3.637   1.328
 4105TIP3    H212249   7.601   3.628   1.180
 4106TIP3   OH212250   6.947   4.818   0.922
 4106TIP3    H112251   6.895   4.850   0.848
 4106TIP3    H212252   6.941   4.887   0.988
 4107TIP3   OH212253   7.052   3.583   1.071
 4107TIP3    H112254   7.039   3.674   1.096
 4107TIP3    H212255   7.146   3.569   1.075
 4108TIP3   OH212256   7.924   4.257   1.347
 4108TIP3    H112257   7.840   4.214   1.334
 4108TIP3    H212258   7.949   4.236   1.437
 4109TIP3   OH212259   6.672   4.407   0.815
 4109TIP3    H112260   6.739   4.475   0.824
 4109TIP3    H212261   6.710   4.344   0.754
 4110TIP3   OH212262   6.601   3.754   0.931
 4110TIP3    H112263   6.617   3.847   0.947
 4110TIP3    H212264   6.552   3.752   0.850
 4111TIP3   OH212265   7.978   5.218   1.347
 4111TIP3    H112266   7.909   5.233   1.282
 4111TIP3    H212267   8.059   5.233   1.298
 4112TIP3   OH212268   6.991   3.480   1.793
 4112TIP3    H112269   6.965   3.445   1.708
 4112TIP3    H212270   6.983   3.406   1.853
 4113TIP3   OH212271   6.545   4.708   1.230
 4113TIP3    H112272   6.505   4.733   1.313
 4113TIP3    H212273   6.485   4.741   1.163
 4114TIP3   OH212274   6.720   5.271   2.257
 4114TIP3    H112275   6.802   5.277   2.306
 4114TIP3    H212276   6.706   5.177   2.244
 4115TIP3   OH212277   7.183   5.188   2.303
 4115TIP3    H112278   7.274   5.162   2.313
 4115TIP3    H212279   7.149   5.134   2.232
 4116TIP3   OH212280   7.776   5.111   2.047
 4116TIP3    H112281   7.788   5.048   2.118
 4116TIP3    H212282   7.849   5.172   2.057
 4117TIP3   OH212283   6.824   4.671   2.451
 4117TIP3    H112284   6.844   4.578   2.460
 4117TIP3    H212285   6.737   4.672   2.411
 4118TIP3   OH212286   6.826   4.254   0.649
 4118TIP3    H112287   6.882   4.240   0.725
 4118TIP3    H212288   6.886   4.266   0.576
 4119TIP3   OH212289   7.441   4.765   2.228
 4119TIP3    H112290   7.395   4.786   2.147
 4119TIP3    H212291   7.466   4.673   2.218
 4120TIP3   OH212292   7.372   4.460   0.483
 4120TIP3    H112293   7.443   4.522   0.500
 4120TIP3    H212294   7.321   4.459   0.564
 4121TIP3   OH212295   7.920   4.801   1.880
 4121TIP3    H112296   7.998   4.813   1.825
 4121TIP3    H212297   7.857   4.863   1.844
 4122TIP3   OH212298   6.941   4.416   2.455
 4122TIP3    H112299   7.018   4.392   2.403
 4122TIP3    H212300   6.975   4.435   2.542
 4123TIP3   OH212301   6.981   4.211   0.874
 4123TIP3    H112302   6.962   4.178   0.962
 4123TIP3    H212303   7.035   4.143   0.834
 4124TIP3   OH212304   7.296   4.297   2.108
 4124TIP3    H112305   7.211   4.341   2.115
 4124TIP3    H212306   7.333   4.327   2.025
 4125TIP3   OH212307   7.128   4.030   0.724
 4125TIP3    H112308   7.095   4.029   0.634
 4125TIP3    H212309   7.223   4.042   0.715
 4126TIP3   OH212310   7.796   4.669   2.212
 4126TIP3    H112311   7.865   4.630   2.160
 4126TIP3    H212312   7.786   4.611   2.287
 4127TIP3   OH212313   7.392   4.068   2.227
 4127TIP3    H112314   7.402   3.997   2.163
 4127TIP3    H212315   7.363   4.143   2.175
 4128TIP3   OH212316   7.408   3.862   2.025
 4128TIP3    H112317   7.436   3.904   1.944
 4128TIP3    H212318   7.316   3.842   2.011
 4129TIP3   OH212319   7.418   4.399   1.889
 4129TIP3    H112320   7.504   4.408   1.848
 4129TIP3    H212321   7.364   4.465   1.845
 4130TIP3   OH212322   7.962   4.302   2.297
 4130TIP3    H112323   7.964   4.207   2.301
 4130TIP3    H212324   8.050   4.326   2.266
 4131TIP3   OH212325   7.995   4.589   2.030
 4131TIP3    H112326   7.963   4.669   1.987
 4131TIP3    H212327   8.074   4.565   1.981
 4132TIP3   OH212328   7.273   4.161   2.462
 4132TIP3    H112329   7.208   4.096   2.485
 4132TIP3    H212330   7.305   4.136   2.376
 4133TIP3   OH212331   7.508   3.623   2.130
 4133TIP3    H112332   7.471   3.705   2.098
 4133TIP3    H212333   7.440   3.557   2.113
 4134TIP3   OH212334   7.649   4.118   2.325
 4134TIP3    H112335   7.657   4.100   2.418
 4134TIP3    H212336   7.559   4.092   2.303
 4135TIP3   OH212337   7.849   4.069   2.139
 4135TIP3    H112338   7.773   4.084   2.196
 4135TIP3    H212339   7.911   4.023   2.195
 4136TIP3   OH212340   7.996   3.992   2.350
 4136TIP3    H112341   8.056   3.918   2.363
 4136TIP3    H212342   7.977   4.023   2.439
 4137TIP3   OH212343   7.121   3.933   2.527
 4137TIP3    H112344   7.128   3.845   2.492
 4137TIP3    H212345   7.158   3.927   2.615
 4138TIP3   OH212346   7.614   3.602   2.381
 4138TIP3    H112347   7.685   3.539   2.370
 4138TIP3    H212348   7.571   3.604   2.296
 4139TIP3   OH212349   7.676   3.826   2.525
 4139TIP3    H112350   7.655   3.754   2.465
 4139TIP3    H212351   7.599   3.883   2.521
 4140TIP3   OH212352   6.891   5.057   0.529
 4140TIP3    H112353   6.940   5.057   0.447
 4140TIP3    H212354   6.929   5.129   0.580
 4141TIP3   OH212355   6.402   4.387   0.891
 4141TIP3    H112356   6.492   4.403   0.864
 4141TIP3    H212357   6.376   4.309   0.842
 4142TIP3   OH212358   6.331   5.039   1.306
 4142TIP3    H112359   6.264   4.984   1.266
 4142TIP3    H212360   6.382   4.980   1.361
 4143TIP3   OH212361   6.471   4.865   1.465
 4143TIP3    H112362   6.460   4.804   1.537
 4143TIP3    H212363   6.522   4.938   1.502
 4144TIP3   OH212364   8.231   5.306   1.545
 4144TIP3    H112365   8.201   5.218   1.522
 4144TIP3    H212366   8.217   5.312   1.639
 4145TIP3   OH212367   8.151   5.073   2.037
 4145TIP3    H112368   8.141   5.094   2.130
 4145TIP3    H212369   8.243   5.091   2.018
 4146TIP3   OH212370   8.099   5.058   1.570
 4146TIP3    H112371   8.031   5.110   1.613
 4146TIP3    H212372   8.056   5.023   1.492
 4147TIP3   OH212373   7.992   4.172   1.095
 4147TIP3    H112374   8.081   4.200   1.073
 4147TIP3    H212375   7.975   4.211   1.181
 4148TIP3   OH212376   6.639   4.315   1.822
 4148TIP3    H112377   6.630   4.283   1.733
 4148TIP3    H212378   6.733   4.313   1.840
 4149TIP3   OH212379   6.858   3.994   2.467
 4149TIP3    H112380   6.952   3.991   2.486
 4149TIP3    H212381   6.824   3.914   2.507
 4150TIP3   OH212382   6.828   3.706   1.816
 4150TIP3    H112383   6.883   3.627   1.820
 4150TIP3    H212384   6.890   3.778   1.803
 4151TIP3   OH212385   6.613   3.967   1.879
 4151TIP3    H112386   6.665   3.964   1.798
 4151TIP3    H212387   6.638   4.049   1.921
 4152TIP3   OH212388   6.602   3.470   1.377
 4152TIP3    H112389   6.517   3.463   1.421
 4152TIP3    H212390   6.586   3.528   1.303
 4153TIP3   OH212391   7.668   5.216   0.956
 4153TIP3    H112392   7.668   5.148   0.888
 4153TIP3    H212393   7.748   5.266   0.941
 4154TIP3   OH212394   6.817   3.526   2.196
 4154TIP3    H112395   6.772   3.528   2.281
 4154TIP3    H212396   6.763   3.582   2.140
 4155TIP3   OH212397   6.853   4.991   2.272
 4155TIP3    H112398   6.760   4.970   2.265
 4155TIP3    H212399   6.873   4.981   2.365
 4156TIP3   OH212400   7.065   5.031   1.830
 4156TIP3    H112401   7.014   5.107   1.801
 4156TIP3    H212402   7.148   5.038   1.783
 4157TIP3   OH212403   7.467   5.267   1.964
 4157TIP3    H112404   7.501   5.261   2.053
 4157TIP3    H212405   7.535   5.315   1.916
 4158TIP3   OH212406   7.667   5.413   1.842
 4158TIP3    H112407   7.734   5.357   1.804
 4158TIP3    H212408   7.715   5.478   1.893
 4159TIP3   OH212409   6.720   5.273   1.881
 4159TIP3    H112410   6.630   5.292   1.855
 4159TIP3    H212411   6.742   5.342   1.943
 4160TIP3   OH212412   6.955   5.263   1.741
 4160TIP3    H112413   6.872   5.268   1.787
 4160TIP3    H212414   6.934   5.286   1.650
 4161TIP3   OH212415   7.380   5.288   1.540
 4161TIP3    H112416   7.297   5.303   1.495
 4161TIP3    H212417   7.398   5.370   1.586
 4162TIP3   OH212418   7.639   5.210   1.570
 4162TIP3    H112419   7.547   5.235   1.561
 4162TIP3    H212420   7.687   5.286   1.539
 4163TIP3   OH212421   7.829   5.398   1.493
 4163TIP3    H112422   7.860   5.488   1.483
 4163TIP3    H212423   7.894   5.345   1.446
 4164TIP3   OH212424   6.634   5.064   1.593
 4164TIP3    H112425   6.657   5.041   1.683
 4164TIP3    H212426   6.707   5.032   1.540
 4165TIP3   OH212427   6.829   4.940   1.456
 4165TIP3    H112428   6.841   4.854   1.497
 4165TIP3    H212429   6.916   4.979   1.457
 4166TIP3   OH212430   7.091   5.004   1.493
 4166TIP3    H112431   7.120   4.914   1.478
 4166TIP3    H212432   7.155   5.040   1.555
 4167TIP3   OH212433   7.608   3.654   1.517
 4167TIP3    H112434   7.597   3.626   1.607
 4167TIP3    H212435   7.698   3.631   1.494
 4168TIP3   OH212436   6.921   3.366   1.549
 4168TIP3    H112437   6.831   3.338   1.561
 4168TIP3    H212438   6.971   3.284   1.540
 4169TIP3   OH212439   6.734   3.283   1.212
 4169TIP3    H112440   6.757   3.334   1.134
 4169TIP3    H212441   6.692   3.346   1.271
 4170TIP3   OH212442   7.444   3.417   1.464
 4170TIP3    H112443   7.462   3.494   1.409
 4170TIP3    H212444   7.458   3.447   1.553
 4171TIP3   OH212445   7.843   3.543   1.427
 4171TIP3    H112446   7.866   3.529   1.335
 4171TIP3    H212447   7.856   3.458   1.469
 4172TIP3   OH212448   6.396   4.811   1.036
 4172TIP3    H112449   6.308   4.789   1.005
 4172TIP3    H212450   6.410   4.901   1.007
 4173TIP3   OH212451   6.839   3.418   0.983
 4173TIP3    H112452   6.882   3.357   0.924
 4173TIP3    H212453   6.909   3.475   1.016
 4174TIP3   OH212454   7.328   3.616   1.079
 4174TIP3    H112455   7.395   3.581   1.137
 4174TIP3    H212456   7.330   3.711   1.094
 4175TIP3   OH212457   7.134   3.661   2.441
 4175TIP3    H112458   7.098   3.596   2.501
 4175TIP3    H212459   7.226   3.668   2.466
 4176TIP3   OH212460   7.382   3.662   2.565
 4176TIP3    H112461   7.463   3.636   2.522
 4176TIP3    H212462   7.370   3.598   2.635
 4177TIP3   OH212463   6.461   4.815   0.516
 4177TIP3    H112464   6.444   4.895   0.566
 4177TIP3    H212465   6.495   4.753   0.581
 4178TIP3   OH212466   8.138   5.309   1.806
 4178TIP3    H112467   8.055   5.269   1.780
 4178TIP3    H212468   8.114   5.396   1.839
 4179TIP3   OH212469   0.082   5.230   2.850
 4179TIP3    H112470   0.045   5.316   2.829
 4179TIP3    H212471   0.022   5.168   2.809
 4180TIP3   OH212472   0.105   5.222   3.125
 4180TIP3    H112473   0.068   5.142   3.161
 4180TIP3    H212474   0.085   5.219   3.032
 4181TIP3   OH212475   0.325   5.504   2.869
 4181TIP3    H112476   0.329   5.438   2.939
 4181TIP3    H212477   0.347   5.586   2.913
 4182TIP3   OH212478   8.501   5.989   2.885
 4182TIP3    H112479   8.547   5.908   2.865
 4182TIP3    H212480   8.412   5.961   2.909
 4183TIP3   OH212481   8.441   5.381   3.289
 4183TIP3    H112482   8.383   5.375   3.213
 4183TIP3    H212483   8.525   5.350   3.257
 4184TIP3   OH212484   0.895   4.743   3.245
 4184TIP3    H112485   0.915   4.824   3.290
 4184TIP3    H212486   0.906   4.763   3.152
 4185TIP3   OH212487   0.321   4.910   3.254
 4185TIP3    H112488   0.346   4.819   3.269
 4185TIP3    H212489   0.255   4.906   3.185
 4186TIP3   OH212490   0.334   4.645   2.846
 4186TIP3    H112491   0.397   4.640   2.917
 4186TIP3    H212492   0.382   4.683   2.773
 4187TIP3   OH212493   0.963   4.959   3.410
 4187TIP3    H112494   0.874   4.993   3.399
 4187TIP3    H212495   0.989   4.989   3.497
 4188TIP3   OH212496   8.433   5.425   2.716
 4188TIP3    H112497   8.370   5.416   2.645
 4188TIP3    H212498   8.507   5.470   2.677
 4189TIP3   OH212499   0.492   4.688   3.062
 4189TIP3    H112500   0.456   4.660   3.146
 4189TIP3    H212501   0.548   4.762   3.083
 4190TIP3   OH212502   0.362   5.748   3.009
 4190TIP3    H112503   0.272   5.740   3.038
 4190TIP3    H212504   0.372   5.840   2.984
 4191TIP3   OH212505   0.692   4.635   3.413
 4191TIP3    H112506   0.605   4.654   3.376
 4191TIP3    H212507   0.753   4.663   3.345
 4192TIP3   OH212508   8.478   4.316   3.398
 4192TIP3    H112509   8.491   4.225   3.427
 4192TIP3    H212510   8.484   4.367   3.479
 4193TIP3   OH212511   0.080   5.787   2.693
 4193TIP3    H112512   0.104   5.695   2.683
 4193TIP3    H212513   0.149   5.835   2.649
 4194TIP3   OH212514   0.175   5.534   2.638
 4194TIP3    H112515   0.215   5.486   2.566
 4194TIP3    H212516   0.232   5.517   2.713
 4195TIP3   OH212517   0.607   5.648   3.385
 4195TIP3    H112518   0.589   5.573   3.328
 4195TIP3    H212519   0.588   5.725   3.330
 4196TIP3   OH212520   8.426   5.083   2.684
 4196TIP3    H112521   8.340   5.123   2.697
 4196TIP3    H212522   8.435   5.075   2.589
 4197TIP3   OH212523   8.411   4.799   2.368
 4197TIP3    H112524   8.466   4.862   2.415
 4197TIP3    H212525   8.473   4.748   2.316
 4198TIP3   OH212526   0.797   5.298   3.234
 4198TIP3    H112527   0.713   5.343   3.243
 4198TIP3    H212528   0.826   5.318   3.145
 4199TIP3   OH212529   0.244   5.137   2.634
 4199TIP3    H112530   0.199   5.173   2.711
 4199TIP3    H212531   0.328   5.105   2.668
 4200TIP3   OH212532   0.542   5.202   3.530
 4200TIP3    H112533   0.518   5.272   3.590
 4200TIP3    H212534   0.459   5.161   3.505
 4201TIP3   OH212535   0.088   5.771   3.071
 4201TIP3    H112536   0.103   5.860   3.103
 4201TIP3    H212537   0.059   5.722   3.147
 4202TIP3   OH212538   0.086   4.994   2.458
 4202TIP3    H112539   0.136   5.056   2.512
 4202TIP3    H212540   0.115   5.012   2.368
 4203TIP3   OH212541   0.600   4.215   2.491
 4203TIP3    H112542   0.524   4.228   2.547
 4203TIP3    H212543   0.607   4.296   2.440
 4204TIP3   OH212544   0.399   5.591   2.051
 4204TIP3    H112545   0.399   5.685   2.031
 4204TIP3    H212546   0.489   5.563   2.031
 4205TIP3   OH212547   0.834   6.021   3.447
 4205TIP3    H112548   0.843   5.926   3.455
 4205TIP3    H212549   0.752   6.042   3.492
 4206TIP3   OH212550   8.426   5.852   2.132
 4206TIP3    H112551   8.475   5.783   2.087
 4206TIP3    H212552   8.459   5.850   2.222
 4207TIP3   OH212553   0.019   5.838   2.393
 4207TIP3    H112554  -0.047   5.775   2.421
 4207TIP3    H212555   0.103   5.793   2.407
 4208TIP3   OH212556   0.734   5.122   3.724
 4208TIP3    H112557   0.658   5.137   3.667
 4208TIP3    H212558   0.746   5.027   3.724
 4209TIP3   OH212559   0.301   4.470   3.713
 4209TIP3    H112560   0.368   4.446   3.776
 4209TIP3    H212561   0.232   4.511   3.765
 4210TIP3   OH212562   0.497   4.926   3.645
 4210TIP3    H112563   0.451   4.900   3.725
 4210TIP3    H212564   0.432   4.973   3.593
 4211TIP3   OH212565   0.186   5.012   2.208
 4211TIP3    H112566   0.143   4.992   2.125
 4211TIP3    H212567   0.267   5.055   2.183
 4212TIP3   OH212568   8.376   4.435   2.439
 4212TIP3    H112569   8.375   4.427   2.535
 4212TIP3    H212570   8.341   4.351   2.408
 4213TIP3   OH212571   0.057   4.865   2.771
 4213TIP3    H112572   0.005   4.942   2.747
 4213TIP3    H212573   0.098   4.838   2.689
 4214TIP3   OH212574   0.237   5.086   3.795
 4214TIP3    H112575   0.273   5.074   3.884
 4214TIP3    H212576   0.284   5.162   3.761
 4215TIP3   OH212577   0.238   4.878   2.972
 4215TIP3    H112578   0.177   4.892   2.899
 4215TIP3    H212579   0.284   4.797   2.950
 4216TIP3   OH212580   0.318   5.056   3.481
 4216TIP3    H112581   0.320   5.008   3.399
 4216TIP3    H212582   0.239   5.110   3.475
 4217TIP3   OH212583   8.413   4.505   3.125
 4217TIP3    H112584   8.352   4.518   3.198
 4217TIP3    H212585   8.499   4.525   3.163
 4218TIP3   OH212586   0.372   4.642   3.305
 4218TIP3    H112587   0.362   4.661   3.399
 4218TIP3    H212588   0.297   4.586   3.284
 4219TIP3   OH212589   0.544   6.352   3.546
 4219TIP3    H112590   0.546   6.362   3.451
 4219TIP3    H212591   0.621   6.400   3.576
 4220TIP3   OH212592   0.042   4.901   3.160
 4220TIP3    H112593   0.091   4.882   3.080
 4220TIP3    H212594  -0.037   4.849   3.153
 4221TIP3   OH212595   8.444   4.781   3.443
 4221TIP3    H112596   8.403   4.862   3.414
 4221TIP3    H212597   8.510   4.808   3.507
 4222TIP3   OH212598   0.570   5.447   3.206
 4222TIP3    H112599   0.605   5.499   3.133
 4222TIP3    H212600   0.492   5.406   3.170
 4223TIP3   OH212601   0.132   4.510   2.490
 4223TIP3    H112602   0.039   4.504   2.468
 4223TIP3    H212603   0.147   4.604   2.502
 4224TIP3   OH212604   0.204   4.767   2.557
 4224TIP3    H112605   0.299   4.770   2.569
 4224TIP3    H212606   0.183   4.844   2.504
 4225TIP3   OH212607   8.230   5.351   2.527
 4225TIP3    H112608   8.150   5.370   2.478
 4225TIP3    H212609   8.203   5.286   2.593
 4226TIP3   OH212610   8.473   5.293   3.987
 4226TIP3    H112611   8.381   5.279   3.967
 4226TIP3    H212612   8.505   5.349   3.916
 4227TIP3   OH212613   0.249   5.779   3.567
 4227TIP3    H112614   0.159   5.759   3.594
 4227TIP3    H212615   0.270   5.861   3.612
 4228TIP3   OH212616   0.599   4.857   2.392
 4228TIP3    H112617   0.540   4.812   2.332
 4228TIP3    H212618   0.606   4.946   2.357
 4229TIP3   OH212619   0.854   5.746   3.464
 4229TIP3    H112620   0.762   5.723   3.473
 4229TIP3    H212621   0.881   5.705   3.382
 4230TIP3   OH212622   0.306   5.635   2.316
 4230TIP3    H112623   0.364   5.709   2.334
 4230TIP3    H212624   0.336   5.602   2.231
 4231TIP3   OH212625   0.354   5.320   3.090
 4231TIP3    H112626   0.264   5.292   3.105
 4231TIP3    H212627   0.399   5.241   3.060
 4232TIP3   OH212628   0.254   5.507   3.291
 4232TIP3    H112629   0.232   5.451   3.365
 4232TIP3    H212630   0.289   5.447   3.225
 4233TIP3   OH212631   0.111   5.420   2.239
 4233TIP3    H112632   0.176   5.429   2.308
 4233TIP3    H212633   0.047   5.358   2.274
 4234TIP3   OH212634   0.352   6.044   3.371
 4234TIP3    H112635   0.302   5.967   3.344
 4234TIP3    H212636   0.346   6.104   3.296
 4235TIP3   OH212637   0.408   5.865   2.016
 4235TIP3    H112638   0.410   5.917   1.935
 4235TIP3    H212639   0.355   5.917   2.077
 4236TIP3   OH212640   0.275   5.347   2.455
 4236TIP3    H112641   0.260   5.269   2.509
 4236TIP3    H212642   0.367   5.342   2.430
 4237TIP3   OH212643   0.343   4.695   3.568
 4237TIP3    H112644   0.403   4.742   3.625
 4237TIP3    H212645   0.323   4.614   3.615
 4238TIP3   OH212646   0.208   4.423   2.738
 4238TIP3    H112647   0.173   4.444   2.652
 4238TIP3    H212648   0.253   4.503   2.765
 4239TIP3   OH212649   8.263   4.657   2.879
 4239TIP3    H112650   8.227   4.742   2.905
 4239TIP3    H212651   8.351   4.656   2.918
 4240TIP3   OH212652   0.132   4.862   3.632
 4240TIP3    H112653   0.169   4.940   3.674
 4240TIP3    H212654   0.208   4.815   3.598
 4241TIP3   OH212655   0.056   4.323   2.950
 4241TIP3    H112656   0.017   4.399   2.993
 4241TIP3    H212657   0.110   4.361   2.880
 4242TIP3   OH212658   0.750   4.842   3.615
 4242TIP3    H112659   0.660   4.871   3.627
 4242TIP3    H212660   0.746   4.777   3.544
 4243TIP3   OH212661   0.441   5.064   3.014
 4243TIP3    H112662   0.361   5.012   3.018
 4243TIP3    H212663   0.503   5.018   3.070
 4244TIP3   OH212664   0.398   6.019   2.963
 4244TIP3    H112665   0.356   6.066   2.891
 4244TIP3    H212666   0.492   6.032   2.950
 4245TIP3   OH212667   0.265   6.008   3.722
 4245TIP3    H112668   0.239   5.946   3.790
 4245TIP3    H212669   0.350   6.042   3.752
 4246TIP3   OH212670   0.071   5.628   2.055
 4246TIP3    H112671   0.093   5.568   2.126
 4246TIP3    H212672   0.143   5.618   1.992
 4247TIP3   OH212673   8.247   5.355   2.196
 4247TIP3    H112674   8.297   5.337   2.276
 4247TIP3    H212675   8.292   5.305   2.128
 4248TIP3   OH212676   0.428   5.577   3.582
 4248TIP3    H112677   0.486   5.601   3.510
 4248TIP3    H212678   0.350   5.631   3.570
 4249TIP3   OH212679   8.015   4.887   2.429
 4249TIP3    H112680   8.023   4.867   2.335
 4249TIP3    H212681   8.093   4.848   2.468
 4250TIP3   OH212682   0.394   5.130   2.071
 4250TIP3    H112683   0.381   5.081   1.990
 4250TIP3    H212684   0.354   5.215   2.054
 4251TIP3   OH212685   8.377   4.547   3.585
 4251TIP3    H112686   8.397   4.606   3.513
 4251TIP3    H212687   8.383   4.601   3.664
 4252TIP3   OH212688   8.322   5.218   3.488
 4252TIP3    H112689   8.401   5.169   3.467
 4252TIP3    H212690   8.335   5.304   3.448
 4253TIP3   OH212691   0.496   5.143   3.974
 4253TIP3    H112692   0.545   5.061   3.970
 4253TIP3    H212693   0.556   5.208   3.939
 4254TIP3   OH212694   0.525   5.384   3.738
 4254TIP3    H112695   0.468   5.445   3.691
 4254TIP3    H212696   0.613   5.402   3.703
 4255TIP3   OH212697   0.034   4.335   3.810
 4255TIP3    H112698   0.016   4.423   3.779
 4255TIP3    H212699  -0.033   4.281   3.768
 4256TIP3   OH212700   0.140   4.860   3.979
 4256TIP3    H112701   0.174   4.919   4.047
 4256TIP3    H212702   0.085   4.916   3.924
 4257TIP3   OH212703   0.382   4.798   3.852
 4257TIP3    H112704   0.300   4.798   3.900
 4257TIP3    H212705   0.450   4.796   3.920
 4258TIP3   OH212706   0.608   4.814   4.024
 4258TIP3    H112707   0.619   4.720   4.038
 4258TIP3    H212708   0.599   4.851   4.112
 4259TIP3   OH212709   0.215   4.444   3.991
 4259TIP3    H112710   0.259   4.359   3.994
 4259TIP3    H212711   0.137   4.428   3.938
 4260TIP3   OH212712   0.222   4.635   4.181
 4260TIP3    H112713   0.227   4.572   4.109
 4260TIP3    H212714   0.130   4.635   4.207
 4261TIP3   OH212715   0.664   6.076   2.946
 4261TIP3    H112716   0.680   6.102   3.036
 4261TIP3    H212717   0.716   6.138   2.894
 4262TIP3   OH212718   0.679   6.101   3.224
 4262TIP3    H112719   0.626   6.021   3.218
 4262TIP3    H212720   0.744   6.082   3.292
 4263TIP3   OH212721   0.730   5.805   3.781
 4263TIP3    H112722   0.649   5.804   3.832
 4263TIP3    H212723   0.767   5.892   3.796
 4264TIP3   OH212724   0.546   5.317   2.405
 4264TIP3    H112725   0.604   5.387   2.375
 4264TIP3    H212726   0.592   5.279   2.480
 4265TIP3   OH212727   0.670   5.176   2.606
 4265TIP3    H112728   0.603   5.134   2.660
 4265TIP3    H212729   0.734   5.210   2.669
 4266TIP3   OH212730   0.728   5.587   3.032
 4266TIP3    H112731   0.780   5.519   2.989
 4266TIP3    H212732   0.728   5.659   2.970
 4267TIP3   OH212733   0.536   5.861   3.215
 4267TIP3    H112734   0.458   5.877   3.268
 4267TIP3    H212735   0.503   5.813   3.139
 4268TIP3   OH212736   0.596   5.095   2.251
 4268TIP3    H112737   0.528   5.097   2.184
 4268TIP3    H212738   0.577   5.171   2.306
 4269TIP3   OH212739   0.441   4.749   2.201
 4269TIP3    H112740   0.403   4.786   2.121
 4269TIP3    H212741   0.430   4.654   2.191
 4270TIP3   OH212742   0.477   5.031   2.743
 4270TIP3    H112743   0.486   4.936   2.733
 4270TIP3    H212744   0.471   5.044   2.837
 4271TIP3   OH212745   0.760   5.455   3.609
 4271TIP3    H112746   0.826   5.390   3.586
 4271TIP3    H212747   0.744   5.502   3.527
 4272TIP3   OH212748   0.940   5.246   3.593
 4272TIP3    H112749   0.866   5.206   3.640
 4272TIP3    H212750   1.014   5.190   3.613
 4273TIP3   OH212751   0.406   4.479   2.173
 4273TIP3    H112752   0.473   4.450   2.235
 4273TIP3    H212753   0.327   4.432   2.200
 4274TIP3   OH212754   0.480   4.754   2.628
 4274TIP3    H112755   0.524   4.669   2.637
 4274TIP3    H212756   0.523   4.796   2.553
 4275TIP3   OH212757   0.633   4.912   3.147
 4275TIP3    H112758   0.715   4.932   3.103
 4275TIP3    H212759   0.642   4.951   3.234
 4276TIP3   OH212760   0.714   5.069   3.363
 4276TIP3    H112761   0.652   5.103   3.427
 4276TIP3    H212762   0.746   5.147   3.317
 4277TIP3   OH212763   1.159   4.675   3.918
 4277TIP3    H112764   1.220   4.615   3.876
 4277TIP3    H212765   1.121   4.726   3.847
 4278TIP3   OH212766   0.584   4.499   2.678
 4278TIP3    H112767   0.628   4.489   2.763
 4278TIP3    H212768   0.529   4.422   2.670
 4279TIP3   OH212769   1.011   4.797   3.727
 4279TIP3    H112770   0.937   4.838   3.772
 4279TIP3    H212771   0.971   4.734   3.667
 4280TIP3   OH212772   0.638   4.427   2.321
 4280TIP3    H112773   0.683   4.367   2.262
 4280TIP3    H212774   0.691   4.506   2.320
 4281TIP3   OH212775   0.256   5.974   2.570
 4281TIP3    H112776   0.239   6.052   2.519
 4281TIP3    H212777   0.279   6.007   2.657
 4282TIP3   OH212778   0.156   6.233   3.460
 4282TIP3    H112779   0.212   6.157   3.450
 4282TIP3    H212780   0.194   6.282   3.533
 4283TIP3   OH212781   0.916   4.547   3.613
 4283TIP3    H112782   0.828   4.543   3.575
 4283TIP3    H212783   0.949   4.458   3.608
 4284TIP3   OH212784   0.102   6.036   3.168
 4284TIP3    H112785   0.043   6.071   3.101
 4284TIP3    H212786   0.166   6.106   3.182
 4285TIP3   OH212787   0.330   6.214   3.149
 4285TIP3    H112788   0.305   6.293   3.101
 4285TIP3    H212789   0.349   6.150   3.081
 4286TIP3   OH212790   0.161   4.472   3.246
 4286TIP3    H112791   0.105   4.407   3.289
 4286TIP3    H212792   0.220   4.421   3.191
 4287TIP3   OH212793   0.631   4.380   3.142
 4287TIP3    H112794   0.664   4.431   3.068
 4287TIP3    H212795   0.536   4.389   3.137
 4288TIP3   OH212796   0.739   4.458   2.903
 4288TIP3    H112797   0.810   4.400   2.875
 4288TIP3    H212798   0.774   4.546   2.889
 4289TIP3   OH212799   8.368   4.214   3.150
 4289TIP3    H112800   8.452   4.195   3.107
 4289TIP3    H212801   8.393   4.247   3.236
 4290TIP3   OH212802   0.354   4.333   3.111
 4290TIP3    H112803   0.358   4.289   3.025
 4290TIP3    H212804   0.353   4.261   3.174
 4291TIP3   OH212805   0.421   4.268   2.686
 4291TIP3    H112806   0.340   4.317   2.699
 4291TIP3    H212807   0.408   4.185   2.732
 4292TIP3   OH212808   8.396   4.433   2.714
 4292TIP3    H112809   8.375   4.371   2.784
 4292TIP3    H212810   8.447   4.501   2.757
 4293TIP3   OH212811   0.414   5.886   2.359
 4293TIP3    H112812   0.361   5.896   2.438
 4293TIP3    H212813   0.366   5.935   2.292
 4294TIP3   OH212814   0.671   4.546   4.044
 4294TIP3    H112815   0.689   4.518   4.134
 4294TIP3    H212816   0.756   4.542   4.000
 4295TIP3   OH212817   0.580   6.077   3.537
 4295TIP3    H112818   0.502   6.048   3.490
 4295TIP3    H212819   0.564   6.170   3.555
 4296TIP3   OH212820   1.851   5.441   2.302
 4296TIP3    H112821   1.825   5.531   2.283
 4296TIP3    H212822   1.784   5.387   2.260
 4297TIP3   OH212823   1.857   5.461   2.707
 4297TIP3    H112824   1.904   5.441   2.788
 4297TIP3    H212825   1.806   5.382   2.688
 4298TIP3   OH212826   1.151   5.326   3.057
 4298TIP3    H112827   1.181   5.266   3.125
 4298TIP3    H212828   1.231   5.367   3.024
 4299TIP3   OH212829   2.111   5.767   2.385
 4299TIP3    H112830   2.105   5.698   2.452
 4299TIP3    H212831   2.136   5.845   2.434
 4300TIP3   OH212832   1.144   5.752   2.758
 4300TIP3    H112833   1.128   5.658   2.763
 4300TIP3    H212834   1.240   5.759   2.753
 4301TIP3   OH212835   0.830   4.956   2.531
 4301TIP3    H112836   0.787   5.039   2.554
 4301TIP3    H212837   0.761   4.905   2.488
 4302TIP3   OH212838   0.899   5.250   2.743
 4302TIP3    H112839   0.950   5.174   2.772
 4302TIP3    H212840   0.963   5.304   2.697
 4303TIP3   OH212841   1.798   6.173   2.418
 4303TIP3    H112842   1.813   6.126   2.336
 4303TIP3    H212843   1.804   6.105   2.485
 4304TIP3   OH212844   1.657   5.691   2.715
 4304TIP3    H112845   1.692   5.611   2.675
 4304TIP3    H212846   1.733   5.737   2.749
 4305TIP3   OH212847   2.685   5.003   2.731
 4305TIP3    H112848   2.706   5.085   2.776
 4305TIP3    H212849   2.708   5.019   2.639
 4306TIP3   OH212850   2.029   5.160   2.745
 4306TIP3    H112851   2.072   5.078   2.770
 4306TIP3    H212852   2.031   5.160   2.649
 4307TIP3   OH212853   1.410   4.820   2.699
 4307TIP3    H112854   1.388   4.895   2.645
 4307TIP3    H212855   1.350   4.751   2.671
 4308TIP3   OH212856   1.048   5.038   2.837
 4308TIP3    H112857   1.130   5.019   2.882
 4308TIP3    H212858   1.051   4.986   2.757
 4309TIP3   OH212859   1.475   5.235   2.645
 4309TIP3    H112860   1.568   5.213   2.652
 4309TIP3    H212861   1.435   5.155   2.608
 4310TIP3   OH212862   2.749   5.216   2.902
 4310TIP3    H112863   2.665   5.262   2.896
 4310TIP3    H212864   2.790   5.252   2.981
 4311TIP3   OH212865   1.400   4.829   3.163
 4311TIP3    H112866   1.347   4.865   3.091
 4311TIP3    H212867   1.346   4.844   3.241
 4312TIP3   OH212868   1.734   5.661   2.178
 4312TIP3    H112869   1.705   5.643   2.088
 4312TIP3    H212870   1.693   5.745   2.200
 4313TIP3   OH212871   1.504   5.602   2.928
 4313TIP3    H112872   1.446   5.668   2.965
 4313TIP3    H212873   1.548   5.646   2.856
 4314TIP3   OH212874   1.293   4.933   2.929
 4314TIP3    H112875   1.349   5.007   2.952
 4314TIP3    H212876   1.338   4.891   2.856
 4315TIP3   OH212877   1.340   5.797   3.035
 4315TIP3    H112878   1.328   5.888   3.007
 4315TIP3    H212879   1.262   5.776   3.086
 4316TIP3   OH212880   0.718   5.504   2.286
 4316TIP3    H112881   0.681   5.516   2.199
 4316TIP3    H212882   0.741   5.593   2.315
 4317TIP3   OH212883   2.145   6.013   2.532
 4317TIP3    H112884   2.055   6.011   2.566
 4317TIP3    H212885   2.149   6.094   2.481
 4318TIP3   OH212886   2.474   4.874   2.868
 4318TIP3    H112887   2.398   4.928   2.847
 4318TIP3    H212888   2.545   4.911   2.816
 4319TIP3   OH212889   1.723   4.498   2.901
 4319TIP3    H112890   1.718   4.411   2.939
 4319TIP3    H212891   1.650   4.546   2.942
 4320TIP3   OH212892   1.861   6.047   2.176
 4320TIP3    H112893   1.910   5.966   2.165
 4320TIP3    H212894   1.920   6.116   2.145
 4321TIP3   OH212895   2.012   5.826   2.132
 4321TIP3    H112896   2.009   5.748   2.077
 4321TIP3    H212897   2.049   5.797   2.215
 4322TIP3   OH212898   2.390   5.907   2.865
 4322TIP3    H112899   2.376   5.830   2.809
 4322TIP3    H212900   2.379   5.982   2.806
 4323TIP3   OH212901   1.680   5.296   2.141
 4323TIP3    H112902   1.600   5.344   2.124
 4323TIP3    H212903   1.722   5.287   2.055
 4324TIP3   OH212904   1.657   5.079   1.880
 4324TIP3    H112905   1.729   5.137   1.904
 4324TIP3    H212906   1.694   5.020   1.814
 4325TIP3   OH212907   2.578   5.561   2.736
 4325TIP3    H112908   2.493   5.606   2.734
 4325TIP3    H212909   2.613   5.574   2.648
 4326TIP3   OH212910   2.036   5.400   2.100
 4326TIP3    H112911   1.981   5.420   2.176
 4326TIP3    H212912   2.119   5.371   2.136
 4327TIP3   OH212913   2.267   5.422   3.042
 4327TIP3    H112914   2.266   5.505   3.090
 4327TIP3    H212915   2.184   5.420   2.995
 4328TIP3   OH212916   1.264   5.373   2.513
 4328TIP3    H112917   1.223   5.315   2.448
 4328TIP3    H212918   1.339   5.323   2.546
 4329TIP3   OH212919   1.405   5.820   2.654
 4329TIP3    H112920   1.372   5.801   2.567
 4329TIP3    H212921   1.489   5.775   2.659
 4330TIP3   OH212922   1.381   5.362   2.876
 4330TIP3    H112923   1.417   5.327   2.794
 4330TIP3    H212924   1.429   5.443   2.891
 4331TIP3   OH212925   1.902   6.015   2.668
 4331TIP3    H112926   1.911   6.072   2.744
 4331TIP3    H212927   1.896   5.926   2.704
 4332TIP3   OH212928   1.532   5.901   3.205
 4332TIP3    H112929   1.473   5.958   3.255
 4332TIP3    H212930   1.474   5.848   3.151
 4333TIP3   OH212931   1.880   5.236   1.941
 4333TIP3    H112932   1.934   5.300   1.986
 4333TIP3    H212933   1.905   5.244   1.849
 4334TIP3   OH212934   1.295   5.456   3.326
 4334TIP3    H112935   1.300   5.547   3.356
 4334TIP3    H212936   1.202   5.435   3.328
 4335TIP3   OH212937   1.617   5.916   2.201
 4335TIP3    H112938   1.697   5.969   2.195
 4335TIP3    H212939   1.557   5.957   2.139
 4336TIP3   OH212940   1.325   6.063   3.296
 4336TIP3    H112941   1.290   6.062   3.207
 4336TIP3    H212942   1.250   6.044   3.351
 4337TIP3   OH212943   2.386   4.481   1.987
 4337TIP3    H112944   2.307   4.503   2.038
 4337TIP3    H212945   2.399   4.557   1.930
 4338TIP3   OH212946   1.133   5.216   2.316
 4338TIP3    H112947   1.062   5.267   2.276
 4338TIP3    H212948   1.097   5.128   2.326
 4339TIP3   OH212949   2.205   5.859   1.540
 4339TIP3    H112950   2.201   5.952   1.518
 4339TIP3    H212951   2.293   5.832   1.517
 4340TIP3   OH212952   0.925   5.617   3.234
 4340TIP3    H112953   0.855   5.601   3.170
 4340TIP3    H212954   0.957   5.530   3.257
 4341TIP3   OH212955   0.767   5.821   2.883
 4341TIP3    H112956   0.858   5.841   2.904
 4341TIP3    H212957   0.718   5.898   2.915
 4342TIP3   OH212958   2.624   6.260   2.932
 4342TIP3    H112959   2.629   6.166   2.947
 4342TIP3    H212960   2.546   6.288   2.980
 4343TIP3   OH212961   1.746   6.021   3.089
 4343TIP3    H112962   1.760   6.102   3.139
 4343TIP3    H212963   1.671   5.979   3.131
 4344TIP3   OH212964   1.508   6.154   2.011
 4344TIP3    H112965   1.457   6.130   1.934
 4344TIP3    H212966   1.470   6.236   2.041
 4345TIP3   OH212967   0.932   6.002   2.388
 4345TIP3    H112968   0.967   5.992   2.476
 4345TIP3    H212969   0.880   5.923   2.373
 4346TIP3   OH212970   1.709   6.080   1.641
 4346TIP3    H112971   1.758   6.004   1.607
 4346TIP3    H212972   1.742   6.091   1.730
 4347TIP3   OH212973   1.760   6.122   1.911
 4347TIP3    H112974   1.672   6.128   1.948
 4347TIP3    H212975   1.813   6.082   1.979
 4348TIP3   OH212976   2.514   5.386   3.215
 4348TIP3    H112977   2.431   5.392   3.168
 4348TIP3    H212978   2.535   5.293   3.217
 4349TIP3   OH212979   1.123   5.806   3.206
 4349TIP3    H112980   1.172   5.794   3.287
 4349TIP3    H212981   1.051   5.742   3.212
 4350TIP3   OH212982   1.500   4.614   3.019
 4350TIP3    H112983   1.414   4.581   2.990
 4350TIP3    H212984   1.479   4.694   3.068
 4351TIP3   OH212985   2.051   4.719   3.212
 4351TIP3    H112986   2.121   4.697   3.272
 4351TIP3    H212987   1.971   4.705   3.262
 4352TIP3   OH212988   2.274   5.156   3.128
 4352TIP3    H112989   2.232   5.152   3.214
 4352TIP3    H212990   2.259   5.245   3.097
 4353TIP3   OH212991   1.962   5.243   1.681
 4353TIP3    H112992   1.905   5.243   1.605
 4353TIP3    H212993   2.040   5.292   1.653
 4354TIP3   OH212994   1.660   4.638   1.993
 4354TIP3    H112995   1.612   4.653   2.074
 4354TIP3    H212996   1.617   4.564   1.952
 4355TIP3   OH212997   1.446   5.141   3.028
 4355TIP3    H112998   1.397   5.148   3.110
 4355TIP3    H212999   1.425   5.221   2.980
 4356TIP3   OH213000   1.329   5.024   2.537
 4356TIP3    H113001   1.239   5.002   2.559
 4356TIP3    H213002   1.340   4.994   2.447
 4357TIP3   OH213003   1.809   5.082   2.268
 4357TIP3    H113004   1.756   5.153   2.232
 4357TIP3    H213005   1.867   5.056   2.196
 4358TIP3   OH213006   1.991   5.369   3.351
 4358TIP3    H113007   1.964   5.301   3.412
 4358TIP3    H213008   2.083   5.385   3.370
 4359TIP3   OH213009   1.976   5.176   2.475
 4359TIP3    H113010   1.931   5.256   2.448
 4359TIP3    H213011   1.941   5.107   2.419
 4360TIP3   OH213012   1.277   5.157   3.245
 4360TIP3    H113013   1.285   5.222   3.314
 4360TIP3    H213014   1.260   5.075   3.290
 4361TIP3   OH213015   1.323   4.639   1.941
 4361TIP3    H113016   1.303   4.648   2.034
 4361TIP3    H213017   1.250   4.682   1.897
 4362TIP3   OH213018   0.863   4.682   2.820
 4362TIP3    H113019   0.938   4.716   2.870
 4362TIP3    H213020   0.899   4.658   2.735
 4363TIP3   OH213021   0.788   4.662   2.331
 4363TIP3    H113022   0.833   4.696   2.254
 4363TIP3    H213023   0.723   4.729   2.353
 4364TIP3   OH213024   2.007   5.364   2.926
 4364TIP3    H113025   2.026   5.295   2.863
 4364TIP3    H213026   1.968   5.319   3.001
 4365TIP3   OH213027   1.678   4.812   2.631
 4365TIP3    H113028   1.587   4.808   2.658
 4365TIP3    H213029   1.720   4.866   2.697
 4366TIP3   OH213030   1.090   4.901   2.601
 4366TIP3    H113031   1.000   4.911   2.569
 4366TIP3    H213032   1.111   4.809   2.586
 4367TIP3   OH213033   1.351   4.911   2.289
 4367TIP3    H113034   1.442   4.905   2.261
 4367TIP3    H213035   1.302   4.923   2.207
 4368TIP3   OH213036   2.119   4.909   2.815
 4368TIP3    H113037   2.103   4.928   2.908
 4368TIP3    H213038   2.087   4.820   2.803
 4369TIP3   OH213039   1.215   4.916   2.054
 4369TIP3    H113040   1.153   4.870   1.997
 4369TIP3    H213041   1.270   4.965   1.993
 4370TIP3   OH213042   2.340   6.609   3.027
 4370TIP3    H113043   2.334   6.628   2.933
 4370TIP3    H213044   2.420   6.653   3.056
 4371TIP3   OH213045   1.283   5.718   3.436
 4371TIP3    H113046   1.362   5.737   3.486
 4371TIP3    H213047   1.212   5.722   3.501
 4372TIP3   OH213048   1.745   5.173   2.717
 4372TIP3    H113049   1.839   5.162   2.706
 4372TIP3    H213050   1.727   5.142   2.805
 4373TIP3   OH213051   1.226   4.645   2.584
 4373TIP3    H113052   1.198   4.570   2.637
 4373TIP3    H213053   1.228   4.611   2.494
 4374TIP3   OH213054   1.712   5.087   2.978
 4374TIP3    H113055   1.626   5.119   3.003
 4374TIP3    H213056   1.773   5.138   3.032
 4375TIP3   OH213057   1.446   5.446   2.089
 4375TIP3    H113058   1.374   5.387   2.068
 4375TIP3    H213059   1.420   5.485   2.173
 4376TIP3   OH213060   2.340   5.698   2.691
 4376TIP3    H113061   2.377   5.745   2.616
 4376TIP3    H213062   2.260   5.658   2.658
 4377TIP3   OH213063   1.905   4.748   1.967
 4377TIP3    H113064   1.813   4.722   1.968
 4377TIP3    H213065   1.902   4.844   1.969
 4378TIP3   OH213066   1.868   5.763   3.095
 4378TIP3    H113067   1.916   5.744   3.176
 4378TIP3    H213068   1.827   5.848   3.111
 4379TIP3   OH213069   1.990   5.012   2.073
 4379TIP3    H113070   2.086   5.020   2.078
 4379TIP3    H213071   1.964   5.083   2.014
 4380TIP3   OH213072   1.150   5.471   2.745
 4380TIP3    H113073   1.183   5.446   2.659
 4380TIP3    H213074   1.207   5.425   2.807
 4381TIP3   OH213075   1.601   5.608   1.932
 4381TIP3    H113076   1.555   5.691   1.931
 4381TIP3    H213077   1.544   5.550   1.983
 4382TIP3   OH213078   1.027   5.384   3.363
 4382TIP3    H113079   1.026   5.359   3.456
 4382TIP3    H213080   0.955   5.335   3.324
 4383TIP3   OH213081   1.757   5.522   3.388
 4383TIP3    H113082   1.688   5.461   3.362
 4383TIP3    H213083   1.838   5.480   3.361
 4384TIP3   OH213084   1.993   6.075   2.968
 4384TIP3    H113085   1.906   6.039   2.987
 4384TIP3    H213086   2.024   6.110   3.052
 4385TIP3   OH213087   2.398   5.111   1.869
 4385TIP3    H113088   2.341   5.064   1.807
 4385TIP3    H213089   2.399   5.201   1.838
 4386TIP3   OH213090   2.637   5.976   2.961
 4386TIP3    H113091   2.542   5.965   2.954
 4386TIP3    H213092   2.670   5.949   2.876
 4387TIP3   OH213093   2.128   5.925   1.803
 4387TIP3    H113094   2.096   5.853   1.857
 4387TIP3    H213095   2.145   5.885   1.718
 4388TIP3   OH213096   2.106   5.568   2.591
 4388TIP3    H113097   2.018   5.540   2.615
 4388TIP3    H213098   2.147   5.490   2.554
 4389TIP3   OH213099   1.254   5.803   2.416
 4389TIP3    H113100   1.252   5.874   2.352
 4389TIP3    H213101   1.167   5.764   2.410
 4390TIP3   OH213102   0.834   5.082   2.109
 4390TIP3    H113103   0.872   5.167   2.127
 4390TIP3    H213104   0.751   5.082   2.157
 4391TIP3   OH213105   1.352   5.555   2.320
 4391TIP3    H113106   1.340   5.644   2.353
 4391TIP3    H213107   1.322   5.499   2.391
 4392TIP3   OH213108   1.593   6.148   2.862
 4392TIP3    H113109   1.525   6.122   2.800
 4392TIP3    H213110   1.620   6.066   2.904
 4393TIP3   OH213111   1.176   6.020   2.259
 4393TIP3    H113112   1.085   6.027   2.289
 4393TIP3    H213113   1.208   6.110   2.257
 4394TIP3   OH213114   1.900   5.779   2.820
 4394TIP3    H113115   1.892   5.769   2.915
 4394TIP3    H213116   1.972   5.720   2.796
 4395TIP3   OH213117   1.894   5.661   1.699
 4395TIP3    H113118   1.934   5.643   1.784
 4395TIP3    H213119   1.810   5.616   1.701
 4396TIP3   OH213120   2.153   6.283   2.870
 4396TIP3    H113121   2.086   6.217   2.888
 4396TIP3    H213122   2.119   6.332   2.795
 4397TIP3   OH213123   2.207   6.133   1.502
 4397TIP3    H113124   2.238   6.201   1.442
 4397TIP3    H213125   2.133   6.172   1.547
 4398TIP3   OH213126   1.233   4.906   3.370
 4398TIP3    H113127   1.138   4.916   3.375
 4398TIP3    H213128   1.256   4.858   3.449
 4399TIP3   OH213129   2.058   5.614   1.924
 4399TIP3    H113130   2.039   5.539   1.981
 4399TIP3    H213131   2.151   5.607   1.905
 4400TIP3   OH213132   0.975   5.997   3.018
 4400TIP3    H113133   1.024   5.933   3.070
 4400TIP3    H213134   0.975   6.077   3.070
 4401TIP3   OH213135   1.244   5.625   1.712
 4401TIP3    H113136   1.252   5.534   1.683
 4401TIP3    H213137   1.222   5.619   1.805
 4402TIP3   OH213138   1.182   5.642   1.982
 4402TIP3    H113139   1.254   5.612   2.038
 4402TIP3    H213140   1.184   5.737   1.990
 4403TIP3   OH213141   0.919   5.338   2.189
 4403TIP3    H113142   0.851   5.382   2.240
 4403TIP3    H213143   0.936   5.396   2.115
 4404TIP3   OH213144   2.076   4.961   3.079
 4404TIP3    H113145   2.156   5.006   3.109
 4404TIP3    H213146   2.071   4.883   3.134
 4405TIP3   OH213147   1.977   4.747   2.231
 4405TIP3    H113148   1.941   4.727   2.145
 4405TIP3    H213149   2.008   4.838   2.223
 4406TIP3   OH213150   1.461   5.841   1.930
 4406TIP3    H113151   1.373   5.860   1.963
 4406TIP3    H213152   1.476   5.907   1.862
 4407TIP3   OH213153   1.655   4.871   2.354
 4407TIP3    H113154   1.706   4.946   2.323
 4407TIP3    H213155   1.657   4.879   2.450
 4408TIP3   OH213156   1.919   5.202   3.131
 4408TIP3    H113157   1.941   5.249   3.211
 4408TIP3    H213158   1.968   5.120   3.136
 4409TIP3   OH213159   1.878   4.664   2.480
 4409TIP3    H113160   1.818   4.730   2.514
 4409TIP3    H213161   1.910   4.700   2.397
 4410TIP3   OH213162   1.207   5.913   2.007
 4410TIP3    H113163   1.187   5.984   1.946
 4410TIP3    H213164   1.193   5.951   2.094
 4411TIP3   OH213165   1.279   4.636   2.223
 4411TIP3    H113166   1.263   4.727   2.247
 4411TIP3    H213167   1.374   4.625   2.232
 4412TIP3   OH213168   2.543   5.117   3.125
 4412TIP3    H113169   2.448   5.114   3.129
 4412TIP3    H213170   2.564   5.092   3.035
 4413TIP3   OH213171   2.211   5.323   2.498
 4413TIP3    H113172   2.138   5.260   2.498
 4413TIP3    H213173   2.279   5.281   2.551
 4414TIP3   OH213174   0.930   5.519   1.974
 4414TIP3    H113175   0.999   5.584   1.982
 4414TIP3    H213176   0.966   5.453   1.913
 4415TIP3   OH213177   0.863   4.804   2.111
 4415TIP3    H113178   0.867   4.900   2.115
 4415TIP3    H213179   0.833   4.785   2.023
 4416TIP3   OH213180   2.177   6.275   2.441
 4416TIP3    H113181   2.136   6.327   2.372
 4416TIP3    H213182   2.271   6.288   2.428
 4417TIP3   OH213183   1.245   4.522   2.975
 4417TIP3    H113184   1.214   4.489   2.891
 4417TIP3    H213185   1.235   4.449   3.035
 4418TIP3   OH213186   0.764   5.778   2.355
 4418TIP3    H113187   0.702   5.805   2.423
 4418TIP3    H213188   0.728   5.815   2.274
 4419TIP3   OH213189   0.959   6.305   3.434
 4419TIP3    H113190   1.037   6.302   3.489
 4419TIP3    H213191   0.928   6.214   3.432
 4420TIP3   OH213192   1.424   6.257   3.466
 4420TIP3    H113193   1.514   6.231   3.486
 4420TIP3    H213194   1.392   6.192   3.404
 4421TIP3   OH213195   1.400   5.824   1.605
 4421TIP3    H113196   1.351   5.753   1.646
 4421TIP3    H213197   1.473   5.779   1.560
 4422TIP3   OH213198   2.045   6.171   3.220
 4422TIP3    H113199   2.046   6.102   3.286
 4422TIP3    H213200   2.121   6.225   3.241
 4423TIP3   OH213201   1.837   5.867   1.526
 4423TIP3    H113202   1.871   5.802   1.587
 4423TIP3    H213203   1.897   5.862   1.451
 4424TIP3   OH213204   1.078   5.714   3.626
 4424TIP3    H113205   1.094   5.621   3.635
 4424TIP3    H213206   0.991   5.720   3.585
 4425TIP3   OH213207   1.067   5.326   1.841
 4425TIP3    H113208   1.122   5.301   1.915
 4425TIP3    H213209   1.128   5.335   1.768
 4426TIP3   OH213210   1.695   5.799   3.404
 4426TIP3    H113211   1.644   5.816   3.325
 4426TIP3    H213212   1.727   5.710   3.393
 4427TIP3   OH213213   1.644   5.543   1.668
 4427TIP3    H113214   1.617   5.558   1.759
 4427TIP3    H213215   1.632   5.449   1.654
 4428TIP3   OH213216   2.171   5.841   3.019
 4428TIP3    H113217   2.250   5.869   2.972
 4428TIP3    H213218   2.105   5.907   2.997
 4429TIP3   OH213219   1.197   5.460   3.633
 4429TIP3    H113220   1.275   5.425   3.590
 4429TIP3    H213221   1.226   5.482   3.722
 4430TIP3   OH213222   1.245   5.261   2.047
 4430TIP3    H113223   1.220   5.224   2.132
 4430TIP3    H213224   1.290   5.190   2.002
 4431TIP3   OH213225   1.552   5.346   3.288
 4431TIP3    H113226   1.466   5.387   3.295
 4431TIP3    H213227   1.585   5.372   3.202
 4432TIP3   OH213228   1.379   5.071   1.899
 4432TIP3    H113229   1.351   5.074   1.807
 4432TIP3    H213230   1.474   5.069   1.896
 4433TIP3   OH213231   2.047   5.716   3.374
 4433TIP3    H113232   2.126   5.686   3.330
 4433TIP3    H213233   2.042   5.664   3.455
 4434TIP3   OH213234   2.176   5.373   1.557
 4434TIP3    H113235   2.162   5.331   1.472
 4434TIP3    H213236   2.150   5.464   1.542
 4435TIP3   OH213237   1.653   5.116   3.400
 4435TIP3    H113238   1.655   5.043   3.338
 4435TIP3    H213239   1.618   5.190   3.351
 4436TIP3   OH213240   1.660   4.911   3.201
 4436TIP3    H113241   1.686   4.950   3.118
 4436TIP3    H213242   1.568   4.886   3.188
 4437TIP3   OH213243   1.674   5.433   3.061
 4437TIP3    H113244   1.762   5.469   3.053
 4437TIP3    H213245   1.618   5.496   3.015
 4438TIP3   OH213246   2.259   5.396   3.451
 4438TIP3    H113247   2.299   5.310   3.467
 4438TIP3    H213248   2.334   5.454   3.435
 4439TIP3   OH213249   2.297   5.665   3.184
 4439TIP3    H113250   2.243   5.726   3.134
 4439TIP3    H213251   2.386   5.680   3.152
 4440TIP3   OH213252   1.536   5.203   3.641
 4440TIP3    H113253   1.468   5.139   3.664
 4440TIP3    H213254   1.565   5.177   3.554
 4441TIP3   OH213255   1.784   4.675   3.292
 4441TIP3    H113256   1.742   4.757   3.265
 4441TIP3    H213257   1.716   4.609   3.283
 4442TIP3   OH213258   1.910   5.155   3.500
 4442TIP3    H113259   1.903   5.142   3.594
 4442TIP3    H213260   1.823   5.134   3.466
 4443TIP3   OH213261   2.151   5.106   3.363
 4443TIP3    H113262   2.074   5.108   3.419
 4443TIP3    H213263   2.223   5.082   3.422
 4444TIP3   OH213264   2.386   5.072   3.514
 4444TIP3    H113265   2.402   4.978   3.522
 4444TIP3    H213266   2.382   5.104   3.604
 4445TIP3   OH213267   1.376   4.979   3.704
 4445TIP3    H113268   1.380   4.889   3.669
 4445TIP3    H213269   1.414   4.972   3.792
 4446TIP3   OH213270   1.855   4.663   3.559
 4446TIP3    H113271   1.924   4.597   3.555
 4446TIP3    H213272   1.823   4.670   3.469
 4447TIP3   OH213273   1.946   4.879   3.704
 4447TIP3    H113274   1.917   4.806   3.649
 4447TIP3    H213275   1.872   4.940   3.705
 4448TIP3   OH213276   1.205   6.127   1.833
 4448TIP3    H113277   1.289   6.107   1.792
 4448TIP3    H213278   1.151   6.163   1.763
 4449TIP3   OH213279   0.659   5.498   2.006
 4449TIP3    H113280   0.752   5.514   1.996
 4449TIP3    H213281   0.643   5.414   1.964
 4450TIP3   OH213282   0.572   6.094   2.449
 4450TIP3    H113283   0.529   6.028   2.394
 4450TIP3    H213284   0.620   6.044   2.515
 4451TIP3   OH213285   0.713   5.943   2.629
 4451TIP3    H113286   0.706   5.870   2.690
 4451TIP3    H213287   0.769   6.007   2.673
 4452TIP3   OH213288   2.447   6.334   2.429
 4452TIP3    H113289   2.467   6.368   2.516
 4452TIP3    H213290   2.502   6.386   2.370
 4453TIP3   OH213291   2.462   6.370   2.711
 4453TIP3    H113292   2.419   6.285   2.702
 4453TIP3    H213293   2.534   6.354   2.772
 4454TIP3   OH213294   2.509   6.061   3.282
 4454TIP3    H113295   2.439   6.069   3.347
 4454TIP3    H213296   2.557   6.144   3.288
 4455TIP3   OH213297   2.335   5.579   1.893
 4455TIP3    H113298   2.395   5.647   1.862
 4455TIP3    H213299   2.381   5.539   1.967
 4456TIP3   OH213300   2.468   5.434   2.090
 4456TIP3    H113301   2.400   5.395   2.145
 4456TIP3    H213302   2.531   5.469   2.153
 4457TIP3   OH213303   2.514   5.834   2.523
 4457TIP3    H113304   2.569   5.765   2.485
 4457TIP3    H213305   2.519   5.906   2.460
 4458TIP3   OH213306   2.326   6.127   2.713
 4458TIP3    H113307   2.261   6.171   2.767
 4458TIP3    H213308   2.275   6.085   2.644
 4459TIP3   OH213309   2.380   5.353   1.739
 4459TIP3    H113310   2.310   5.352   1.674
 4459TIP3    H213311   2.360   5.430   1.793
 4460TIP3   OH213312   2.246   5.001   1.670
 4460TIP3    H113313   2.191   5.042   1.603
 4460TIP3    H213314   2.234   4.907   1.658
 4461TIP3   OH213315   2.264   5.297   2.224
 4461TIP3    H113316   2.268   5.203   2.208
 4461TIP3    H213317   2.253   5.305   2.319
 4462TIP3   OH213318   0.891   5.368   2.988
 4462TIP3    H113319   0.881   5.330   2.901
 4462TIP3    H213320   0.985   5.362   3.007
 4463TIP3   OH213321   2.555   5.715   3.091
 4463TIP3    H113322   2.619   5.646   3.076
 4463TIP3    H213323   2.581   5.786   3.031
 4464TIP3   OH213324   2.726   5.500   3.083
 4464TIP3    H113325   2.653   5.461   3.131
 4464TIP3    H213326   2.801   5.444   3.104
 4465TIP3   OH213327   2.202   4.730   1.644
 4465TIP3    H113328   2.264   4.705   1.713
 4465TIP3    H213329   2.120   4.690   1.671
 4466TIP3   OH213330   2.268   5.029   2.109
 4466TIP3    H113331   2.308   4.945   2.133
 4466TIP3    H213332   2.316   5.057   2.032
 4467TIP3   OH213333   2.413   5.208   2.644
 4467TIP3    H113334   2.496   5.212   2.596
 4467TIP3    H213335   2.434   5.240   2.731
 4468TIP3   OH213336   2.496   5.338   2.878
 4468TIP3    H113337   2.420   5.367   2.930
 4468TIP3    H213338   2.526   5.418   2.833
 4469TIP3   OH213339   1.114   5.041   3.648
 4469TIP3    H113340   1.208   5.037   3.666
 4469TIP3    H213341   1.079   4.960   3.687
 4470TIP3   OH213342   2.948   4.932   3.406
 4470TIP3    H113343   3.013   4.872   3.368
 4470TIP3    H213344   2.913   4.980   3.332
 4471TIP3   OH213345   2.377   4.772   2.165
 4471TIP3    H113346   2.422   4.754   2.247
 4471TIP3    H213347   2.315   4.700   2.156
 4472TIP3   OH213348   1.082   4.748   2.977
 4472TIP3    H113349   1.135   4.669   2.990
 4472TIP3    H213350   1.146   4.818   2.969
 4473TIP3   OH213351   0.874   5.008   3.057
 4473TIP3    H113352   0.924   5.007   2.976
 4473TIP3    H213353   0.893   5.093   3.096
 4474TIP3   OH213354   2.801   5.045   3.206
 4474TIP3    H113355   2.717   5.085   3.229
 4474TIP3    H213356   2.778   4.968   3.154
 4475TIP3   OH213357   2.428   4.683   1.805
 4475TIP3    H113358   2.472   4.622   1.745
 4475TIP3    H213359   2.485   4.760   1.807
 4476TIP3   OH213360   0.855   4.531   2.561
 4476TIP3    H113361   0.769   4.511   2.597
 4476TIP3    H213362   0.838   4.583   2.483
 4477TIP3   OH213363   2.011   6.244   2.072
 4477TIP3    H113364   2.065   6.230   1.993
 4477TIP3    H213365   2.057   6.313   2.119
 4478TIP3   OH213366   1.073   4.577   3.377
 4478TIP3    H113367   1.026   4.576   3.461
 4478TIP3    H213368   1.016   4.628   3.319
 4479TIP3   OH213369   1.112   6.025   3.468
 4479TIP3    H113370   1.018   6.016   3.451
 4479TIP3    H213371   1.122   6.012   3.562
 4480TIP3   OH213372   1.322   6.071   3.008
 4480TIP3    H113373   1.255   6.121   2.961
 4480TIP3    H213374   1.401   6.124   3.001
 4481TIP3   OH213375   1.730   6.344   3.055
 4481TIP3    H113376   1.718   6.331   3.149
 4481TIP3    H213377   1.815   6.389   3.048
 4482TIP3   OH213378   1.967   6.459   3.007
 4482TIP3    H113379   2.045   6.411   2.979
 4482TIP3    H213380   2.001   6.528   3.065
 4483TIP3   OH213381   2.714   4.796   3.101
 4483TIP3    H113382   2.624   4.780   3.072
 4483TIP3    H213383   2.756   4.711   3.097
 4484TIP3   OH213384   0.976   6.328   3.042
 4484TIP3    H113385   0.883   6.345   3.026
 4484TIP3    H213386   1.002   6.393   3.107
 4485TIP3   OH213387   1.171   6.243   2.864
 4485TIP3    H113388   1.102   6.271   2.923
 4485TIP3    H213389   1.171   6.308   2.793
 4486TIP3   OH213390   1.595   6.440   2.747
 4486TIP3    H113391   1.526   6.416   2.685
 4486TIP3    H213392   1.623   6.528   2.718
 4487TIP3   OH213393   1.842   6.293   2.742
 4487TIP3    H113394   1.822   6.256   2.656
 4487TIP3    H213395   1.915   6.353   2.725
 4488TIP3   OH213396   2.069   6.423   2.646
 4488TIP3    H113397   2.077   6.513   2.615
 4488TIP3    H213398   2.103   6.369   2.575
 4489TIP3   OH213399   0.899   6.106   2.767
 4489TIP3    H113400   0.921   6.079   2.856
 4489TIP3    H213401   0.970   6.073   2.713
 4490TIP3   OH213402   1.089   5.977   2.617
 4490TIP3    H113403   1.094   5.899   2.673
 4490TIP3    H213404   1.167   5.972   2.562
 4491TIP3   OH213405   1.381   6.096   2.692
 4491TIP3    H113406   1.387   6.001   2.676
 4491TIP3    H213407   1.296   6.108   2.734
 4492TIP3   OH213408   2.430   4.625   2.610
 4492TIP3    H113409   2.474   4.663   2.534
 4492TIP3    H213410   2.395   4.700   2.658
 4493TIP3   OH213411   2.541   4.716   2.382
 4493TIP3    H113412   2.609   4.655   2.353
 4493TIP3    H213413   2.580   4.803   2.367
 4494TIP3   OH213414   1.160   4.420   2.732
 4494TIP3    H113415   1.070   4.389   2.742
 4494TIP3    H213416   1.212   4.340   2.724
 4495TIP3   OH213417   0.989   4.337   2.395
 4495TIP3    H113418   1.004   4.383   2.313
 4495TIP3    H213419   0.946   4.402   2.451
 4496TIP3   OH213420   1.700   4.489   2.629
 4496TIP3    H113421   1.650   4.568   2.610
 4496TIP3    H213422   1.705   4.484   2.724
 4497TIP3   OH213423   2.186   4.564   2.161
 4497TIP3    H113424   2.111   4.620   2.184
 4497TIP3    H213425   2.167   4.480   2.203
 4498TIP3   OH213426   0.664   5.891   2.126
 4498TIP3    H113427   0.577   5.863   2.096
 4498TIP3    H213428   0.666   5.985   2.111
 4499TIP3   OH213429   1.075   4.460   2.147
 4499TIP3    H113430   1.121   4.399   2.088
 4499TIP3    H213431   1.143   4.521   2.175
 4500TIP3   OH213432   1.551   4.643   2.249
 4500TIP3    H113433   1.600   4.569   2.283
 4500TIP3    H213434   1.594   4.720   2.287
 4501TIP3   OH213435   1.453   6.053   1.741
 4501TIP3    H113436   1.536   6.081   1.703
 4501TIP3    H213437   1.423   5.981   1.685
 4502TIP3   OH213438   2.160   6.194   1.841
 4502TIP3    H113439   2.153   6.099   1.833
 4502TIP3    H213440   2.115   6.228   1.763
 4503TIP3   OH213441   1.384   4.707   3.619
 4503TIP3    H113442   1.348   4.641   3.678
 4503TIP3    H213443   1.476   4.714   3.644
 4504TIP3   OH213444   1.633   4.711   3.741
 4504TIP3    H113445   1.712   4.689   3.692
 4504TIP3    H213446   1.626   4.643   3.808
 4505TIP3   OH213447   0.744   5.868   1.815
 4505TIP3    H113448   0.747   5.873   1.911
 4505TIP3    H213449   0.828   5.830   1.790
 4506TIP3   OH213450   2.455   4.802   3.528
 4506TIP3    H113451   2.470   4.772   3.618
 4506TIP3    H213452   2.541   4.796   3.487
 4507TIP3   OH213453   2.377   6.335   3.032
 4507TIP3    H113454   2.303   6.307   2.979
 4507TIP3    H213455   2.367   6.430   3.041
 4508TIP3   OH213456   3.652   5.721   1.772
 4508TIP3    H113457   3.621   5.808   1.746
 4508TIP3    H213458   3.579   5.662   1.752
 4509TIP3   OH213459   3.647   5.712   2.195
 4509TIP3    H113460   3.699   5.695   2.274
 4509TIP3    H213461   3.604   5.629   2.177
 4510TIP3   OH213462   2.947   5.578   2.543
 4510TIP3    H113463   2.983   5.525   2.614
 4510TIP3    H213464   3.023   5.604   2.492
 4511TIP3   OH213465   3.913   6.024   1.873
 4511TIP3    H113466   3.902   5.954   1.937
 4511TIP3    H213467   3.938   6.100   1.925
 4512TIP3   OH213468   2.935   6.005   2.234
 4512TIP3    H113469   2.918   5.911   2.240
 4512TIP3    H213470   3.030   6.013   2.228
 4513TIP3   OH213471   2.625   5.210   2.014
 4513TIP3    H113472   2.584   5.293   2.039
 4513TIP3    H213473   2.555   5.160   1.972
 4514TIP3   OH213474   2.697   5.514   2.235
 4514TIP3    H113475   2.746   5.436   2.261
 4514TIP3    H213476   2.763   5.575   2.203
 4515TIP3   OH213477   3.556   6.504   1.866
 4515TIP3    H113478   3.584   6.427   1.817
 4515TIP3    H213479   3.536   6.472   1.953
 4516TIP3   OH213480   3.453   5.936   2.203
 4516TIP3    H113481   3.496   5.855   2.174
 4516TIP3    H213482   3.525   5.991   2.235
 4517TIP3   OH213483   4.483   5.257   2.217
 4517TIP3    H113484   4.503   5.339   2.261
 4517TIP3    H213485   4.509   5.271   2.126
 4518TIP3   OH213486   3.864   5.426   2.237
 4518TIP3    H113487   3.900   5.342   2.266
 4518TIP3    H213488   3.827   5.408   2.151
 4519TIP3   OH213489   3.216   5.085   2.198
 4519TIP3    H113490   3.195   5.157   2.139
 4519TIP3    H213491   3.161   5.012   2.167
 4520TIP3   OH213492   3.913   5.183   1.830
 4520TIP3    H113493   3.976   5.175   1.902
 4520TIP3    H213494   3.964   5.217   1.757
 4521TIP3   OH213495   2.841   5.295   2.325
 4521TIP3    H113496   2.924   5.277   2.369
 4521TIP3    H213497   2.845   5.244   2.244
 4522TIP3   OH213498   3.263   5.497   2.140
 4522TIP3    H113499   3.357   5.480   2.147
 4522TIP3    H213500   3.227   5.415   2.106
 4523TIP3   OH213501   4.545   5.474   2.382
 4523TIP3    H113502   4.456   5.509   2.380
 4523TIP3    H213503   4.583   5.509   2.463
 4524TIP3   OH213504   3.199   5.084   2.648
 4524TIP3    H113505   3.147   5.119   2.576
 4524TIP3    H213506   3.145   5.098   2.726
 4525TIP3   OH213507   3.551   5.939   1.632
 4525TIP3    H113508   3.506   5.910   1.553
 4525TIP3    H213509   3.503   6.016   1.661
 4526TIP3   OH213510   3.295   5.861   2.419
 4526TIP3    H113511   3.241   5.932   2.454
 4526TIP3    H213512   3.343   5.901   2.346
 4527TIP3   OH213513   4.075   5.207   2.049
 4527TIP3    H113514   4.035   5.184   2.132
 4527TIP3    H213515   4.132   5.281   2.068
 4528TIP3   OH213516   3.087   5.193   2.419
 4528TIP3    H113517   3.142   5.267   2.443
 4528TIP3    H213518   3.134   5.150   2.348
 4529TIP3   OH213519   3.136   6.063   2.523
 4529TIP3    H113520   3.121   6.153   2.494
 4529TIP3    H213521   3.059   6.042   2.575
 4530TIP3   OH213522   2.513   5.763   1.773
 4530TIP3    H113523   2.476   5.781   1.686
 4530TIP3    H213524   2.537   5.849   1.807
 4531TIP3   OH213525   3.954   6.269   2.016
 4531TIP3    H113526   3.868   6.257   2.057
 4531TIP3    H213527   3.947   6.354   1.971
 4532TIP3   OH213528   4.280   5.149   2.384
 4532TIP3    H113529   4.195   5.173   2.348
 4532TIP3    H213530   4.343   5.176   2.317
 4533TIP3   OH213531   3.539   4.777   2.375
 4533TIP3    H113532   3.533   4.685   2.402
 4533TIP3    H213533   3.463   4.819   2.415
 4534TIP3   OH213534   3.676   6.326   1.674
 4534TIP3    H113535   3.716   6.240   1.667
 4534TIP3    H213536   3.747   6.387   1.657
 4535TIP3   OH213537   3.798   6.088   1.631
 4535TIP3    H113538   3.736   6.017   1.615
 4535TIP3    H213539   3.848   6.059   1.708
 4536TIP3   OH213540   4.185   6.160   2.354
 4536TIP3    H113541   4.170   6.085   2.298
 4536TIP3    H213542   4.174   6.236   2.297
 4537TIP3   OH213543   3.473   5.560   1.629
 4537TIP3    H113544   3.392   5.605   1.608
 4537TIP3    H213545   3.521   5.557   1.546
 4538TIP3   OH213546   3.446   5.361   1.321
 4538TIP3    H113547   3.511   5.409   1.373
 4538TIP3    H213548   3.498   5.294   1.276
 4539TIP3   OH213549   4.372   5.814   2.220
 4539TIP3    H113550   4.288   5.860   2.219
 4539TIP3    H213551   4.409   5.829   2.133
 4540TIP3   OH213552   3.838   5.653   1.585
 4540TIP3    H113553   3.783   5.680   1.659
 4540TIP3    H213554   3.920   5.625   1.626
 4541TIP3   OH213555   4.065   5.678   2.530
 4541TIP3    H113556   4.064   5.762   2.577
 4541TIP3    H213557   3.982   5.677   2.481
 4542TIP3   OH213558   3.064   5.631   1.992
 4542TIP3    H113559   3.027   5.570   1.928
 4542TIP3    H213560   3.136   5.582   2.032
 4543TIP3   OH213561   3.199   6.056   2.133
 4543TIP3    H113562   3.175   6.036   2.042
 4543TIP3    H213563   3.285   6.016   2.145
 4544TIP3   OH213564   3.164   5.625   2.367
 4544TIP3    H113565   3.203   5.589   2.287
 4544TIP3    H213566   3.213   5.705   2.384
 4545TIP3   OH213567   3.718   6.256   2.146
 4545TIP3    H113568   3.702   6.337   2.194
 4545TIP3    H213569   3.701   6.186   2.209
 4546TIP3   OH213570   3.334   6.167   2.688
 4546TIP3    H113571   3.275   6.224   2.737
 4546TIP3    H213572   3.277   6.115   2.632
 4547TIP3   OH213573   3.664   5.510   1.428
 4547TIP3    H113574   3.724   5.568   1.475
 4547TIP3    H213575   3.691   5.516   1.336
 4548TIP3   OH213576   3.092   5.716   2.821
 4548TIP3    H113577   3.095   5.808   2.845
 4548TIP3    H213578   2.999   5.695   2.816
 4549TIP3   OH213579   3.429   6.185   1.675
 4549TIP3    H113580   3.504   6.244   1.686
 4549TIP3    H213581   3.363   6.238   1.630
 4550TIP3   OH213582   3.126   6.327   2.778
 4550TIP3    H113583   3.100   6.338   2.687
 4550TIP3    H213584   3.044   6.311   2.825
 4551TIP3   OH213585   4.175   4.736   1.473
 4551TIP3    H113586   4.099   4.755   1.527
 4551TIP3    H213587   4.187   4.814   1.419
 4552TIP3   OH213588   2.937   5.474   1.791
 4552TIP3    H113589   2.859   5.521   1.759
 4552TIP3    H213590   2.906   5.386   1.810
 4553TIP3   OH213591   3.996   6.116   1.033
 4553TIP3    H113592   3.995   6.212   1.024
 4553TIP3    H213593   4.089   6.093   1.028
 4554TIP3   OH213594   2.716   5.876   2.721
 4554TIP3    H113595   2.647   5.856   2.657
 4554TIP3    H213596   2.751   5.791   2.745
 4555TIP3   OH213597   2.573   6.062   2.364
 4555TIP3    H113598   2.669   6.070   2.363
 4555TIP3    H213599   2.543   6.141   2.409
 4556TIP3   OH213600   4.418   6.513   2.417
 4556TIP3    H113601   4.423   6.419   2.435
 4556TIP3    H213602   4.340   6.542   2.463
 4557TIP3   OH213603   3.522   6.312   2.549
 4557TIP3    H113604   3.518   6.401   2.583
 4557TIP3    H213605   3.456   6.264   2.600
 4558TIP3   OH213606   3.302   6.413   1.501
 4558TIP3    H113607   3.251   6.389   1.424
 4558TIP3    H213608   3.263   6.496   1.530
 4559TIP3   OH213609   2.738   6.260   1.881
 4559TIP3    H113610   2.781   6.252   1.966
 4559TIP3    H213611   2.688   6.178   1.873
 4560TIP3   OH213612   3.499   6.333   1.157
 4560TIP3    H113613   3.550   6.265   1.114
 4560TIP3    H213614   3.538   6.342   1.243
 4561TIP3   OH213615   3.559   6.376   1.422
 4561TIP3    H113616   3.469   6.384   1.453
 4561TIP3    H213617   3.606   6.335   1.495
 4562TIP3   OH213618   4.308   5.636   2.695
 4562TIP3    H113619   4.226   5.643   2.646
 4562TIP3    H213620   4.328   5.542   2.695
 4563TIP3   OH213621   2.918   6.061   2.693
 4563TIP3    H113622   2.968   6.049   2.773
 4563TIP3    H213623   2.846   5.999   2.699
 4564TIP3   OH213624   3.303   4.870   2.501
 4564TIP3    H113625   3.219   4.836   2.471
 4564TIP3    H213626   3.281   4.950   2.549
 4565TIP3   OH213627   3.847   4.989   2.702
 4565TIP3    H113628   3.918   4.964   2.761
 4565TIP3    H213629   3.767   4.972   2.751
 4566TIP3   OH213630   4.066   5.413   2.616
 4566TIP3    H113631   4.026   5.409   2.703
 4566TIP3    H213632   4.052   5.503   2.587
 4567TIP3   OH213633   3.742   5.506   1.169
 4567TIP3    H113634   3.690   5.496   1.090
 4567TIP3    H213635   3.820   5.554   1.141
 4568TIP3   OH213636   3.453   4.914   1.470
 4568TIP3    H113637   3.419   4.920   1.560
 4568TIP3    H213638   3.417   4.832   1.436
 4569TIP3   OH213639   3.241   5.401   2.513
 4569TIP3    H113640   3.196   5.408   2.597
 4569TIP3    H213641   3.220   5.483   2.467
 4570TIP3   OH213642   3.122   5.282   2.032
 4570TIP3    H113643   3.033   5.257   2.057
 4570TIP3    H213644   3.132   5.247   1.943
 4571TIP3   OH213645   3.604   5.356   1.762
 4571TIP3    H113646   3.555   5.428   1.721
 4571TIP3    H213647   3.661   5.324   1.692
 4572TIP3   OH213648   3.789   5.625   2.835
 4572TIP3    H113649   3.762   5.556   2.896
 4572TIP3    H213650   3.882   5.640   2.855
 4573TIP3   OH213651   3.771   5.371   1.985
 4573TIP3    H113652   3.703   5.392   1.922
 4573TIP3    H213653   3.818   5.297   1.947
 4574TIP3   OH213654   3.076   5.413   2.734
 4574TIP3    H113655   3.103   5.473   2.804
 4574TIP3    H213656   3.059   5.330   2.779
 4575TIP3   OH213657   3.119   4.894   1.445
 4575TIP3    H113658   3.110   4.895   1.541
 4575TIP3    H213659   3.041   4.939   1.413
 4576TIP3   OH213660   2.670   4.941   2.309
 4576TIP3    H113661   2.741   4.975   2.362
 4576TIP3    H213662   2.710   4.922   2.224
 4577TIP3   OH213663   2.587   4.914   1.814
 4577TIP3    H113664   2.631   4.948   1.737
 4577TIP3    H213665   2.524   4.982   1.838
 4578TIP3   OH213666   3.808   5.626   2.412
 4578TIP3    H113667   3.835   5.559   2.348
 4578TIP3    H213668   3.767   5.576   2.483
 4579TIP3   OH213669   3.483   5.075   2.084
 4579TIP3    H113670   3.405   5.075   2.140
 4579TIP3    H213671   3.556   5.064   2.145
 4580TIP3   OH213672   2.885   5.156   2.092
 4580TIP3    H113673   2.796   5.161   2.056
 4580TIP3    H213674   2.912   5.066   2.076
 4581TIP3   OH213675   3.137   5.156   1.788
 4581TIP3    H113676   3.232   5.167   1.777
 4581TIP3    H213677   3.100   5.175   1.702
 4582TIP3   OH213678   3.938   5.162   2.290
 4582TIP3    H113679   3.918   5.178   2.382
 4582TIP3    H213680   3.872   5.099   2.262
 4583TIP3   OH213681   3.019   5.183   1.543
 4583TIP3    H113682   2.954   5.135   1.492
 4583TIP3    H213683   3.073   5.228   1.477
 4584TIP3   OH213684   4.137   6.864   2.521
 4584TIP3    H113685   4.138   6.884   2.427
 4584TIP3    H213686   4.215   6.907   2.555
 4585TIP3   OH213687   3.075   5.978   2.925
 4585TIP3    H113688   3.156   5.997   2.973
 4585TIP3    H213689   3.006   5.983   2.992
 4586TIP3   OH213690   3.535   5.441   2.192
 4586TIP3    H113691   3.601   5.390   2.145
 4586TIP3    H213692   3.532   5.403   2.279
 4587TIP3   OH213693   3.029   4.907   2.081
 4587TIP3    H113694   3.000   4.832   2.133
 4587TIP3    H213695   3.059   4.869   1.999
 4588TIP3   OH213696   3.508   5.347   2.456
 4588TIP3    H113697   3.421   5.377   2.482
 4588TIP3    H213698   3.568   5.398   2.512
 4589TIP3   OH213699   3.240   5.701   1.567
 4589TIP3    H113700   3.166   5.643   1.545
 4589TIP3    H213701   3.216   5.740   1.651
 4590TIP3   OH213702   4.136   5.955   2.176
 4590TIP3    H113703   4.171   6.003   2.101
 4590TIP3    H213704   4.056   5.913   2.143
 4591TIP3   OH213705   3.705   5.018   1.463
 4591TIP3    H113706   3.612   4.996   1.465
 4591TIP3    H213707   3.708   5.112   1.482
 4592TIP3   OH213708   3.648   6.040   2.587
 4592TIP3    H113709   3.698   6.026   2.668
 4592TIP3    H213710   3.608   6.126   2.599
 4593TIP3   OH213711   3.767   5.277   1.545
 4593TIP3    H113712   3.862   5.281   1.557
 4593TIP3    H213713   3.745   5.356   1.496
 4594TIP3   OH213714   2.935   5.719   2.221
 4594TIP3    H113715   2.973   5.699   2.136
 4594TIP3    H213716   2.999   5.686   2.284
 4595TIP3   OH213717   3.394   5.862   1.411
 4595TIP3    H113718   3.347   5.945   1.410
 4595TIP3    H213719   3.339   5.804   1.463
 4596TIP3   OH213720   2.820   5.652   2.856
 4596TIP3    H113721   2.832   5.632   2.949
 4596TIP3    H213722   2.746   5.597   2.829
 4597TIP3   OH213723   3.556   5.777   2.871
 4597TIP3    H113724   3.489   5.715   2.841
 4597TIP3    H213725   3.639   5.737   2.845
 4598TIP3   OH213726   3.793   6.325   2.467
 4598TIP3    H113727   3.698   6.311   2.475
 4598TIP3    H213728   3.819   6.360   2.553
 4599TIP3   OH213729   4.190   5.367   1.363
 4599TIP3    H113730   4.136   5.318   1.301
 4599TIP3    H213731   4.186   5.458   1.333
 4600TIP3   OH213732   4.432   6.231   2.449
 4600TIP3    H113733   4.337   6.220   2.443
 4600TIP3    H213734   4.466   6.204   2.364
 4601TIP3   OH213735   3.919   6.160   1.302
 4601TIP3    H113736   3.891   6.087   1.356
 4601TIP3    H213737   3.933   6.123   1.215
 4602TIP3   OH213738   3.903   5.819   2.073
 4602TIP3    H113739   3.814   5.797   2.099
 4602TIP3    H213740   3.939   5.738   2.038
 4603TIP3   OH213741   3.053   6.053   1.886
 4603TIP3    H113742   3.047   6.130   1.829
 4603TIP3    H213743   2.963   6.039   1.916
 4604TIP3   OH213744   2.617   5.340   1.600
 4604TIP3    H113745   2.660   5.423   1.620
 4604TIP3    H213746   2.536   5.342   1.651
 4605TIP3   OH213747   3.149   5.810   1.796
 4605TIP3    H113748   3.127   5.899   1.825
 4605TIP3    H213749   3.123   5.754   1.869
 4606TIP3   OH213750   3.338   6.379   2.343
 4606TIP3    H113751   3.376   6.451   2.292
 4606TIP3    H213752   3.409   6.348   2.398
 4607TIP3   OH213753   2.971   6.278   1.735
 4607TIP3    H113754   2.884   6.283   1.775
 4607TIP3    H213755   3.004   6.367   1.740
 4608TIP3   OH213756   3.690   6.035   2.316
 4608TIP3    H113757   3.676   6.034   2.410
 4608TIP3    H213758   3.767   5.980   2.301
 4609TIP3   OH213759   3.676   5.916   1.203
 4609TIP3    H113760   3.729   5.894   1.280
 4609TIP3    H213761   3.592   5.873   1.220
 4610TIP3   OH213762   3.946   6.533   2.356
 4610TIP3    H113763   3.881   6.467   2.377
 4610TIP3    H213764   3.907   6.584   2.285
 4611TIP3   OH213765   4.012   6.390   1.041
 4611TIP3    H113766   4.060   6.470   1.018
 4611TIP3    H213767   3.924   6.421   1.063
 4612TIP3   OH213768   3.029   5.160   2.858
 4612TIP3    H113769   2.934   5.163   2.864
 4612TIP3    H213770   3.057   5.106   2.932
 4613TIP3   OH213771   3.863   5.856   1.395
 4613TIP3    H113772   3.843   5.794   1.465
 4613TIP3    H213773   3.958   5.855   1.387
 4614TIP3   OH213774   2.763   6.271   2.504
 4614TIP3    H113775   2.814   6.209   2.557
 4614TIP3    H213776   2.780   6.356   2.544
 4615TIP3   OH213777   3.037   5.884   1.194
 4615TIP3    H113778   3.047   5.792   1.168
 4615TIP3    H213779   3.020   5.880   1.288
 4616TIP3   OH213780   2.978   5.901   1.465
 4616TIP3    H113781   3.042   5.873   1.531
 4616TIP3    H213782   2.978   5.997   1.472
 4617TIP3   OH213783   2.712   5.592   1.677
 4617TIP3    H113784   2.646   5.637   1.729
 4617TIP3    H213785   2.730   5.651   1.604
 4618TIP3   OH213786   3.876   5.219   2.551
 4618TIP3    H113787   3.953   5.266   2.585
 4618TIP3    H213788   3.867   5.143   2.608
 4619TIP3   OH213789   3.764   4.967   1.736
 4619TIP3    H113790   3.745   4.986   1.644
 4619TIP3    H213791   3.807   5.046   1.768
 4620TIP3   OH213792   3.251   6.092   1.411
 4620TIP3    H113793   3.165   6.112   1.448
 4620TIP3    H213794   3.268   6.163   1.350
 4621TIP3   OH213795   3.417   5.165   1.830
 4621TIP3    H113796   3.480   5.234   1.806
 4621TIP3    H213797   3.437   5.145   1.922
 4622TIP3   OH213798   3.715   5.459   2.610
 4622TIP3    H113799   3.740   5.502   2.692
 4622TIP3    H213800   3.764   5.377   2.611
 4623TIP3   OH213801   3.581   4.865   1.919
 4623TIP3    H113802   3.559   4.942   1.972
 4623TIP3    H213803   3.649   4.895   1.859
 4624TIP3   OH213804   2.998   6.174   1.483
 4624TIP3    H113805   2.974   6.244   1.422
 4624TIP3    H213806   2.985   6.212   1.570
 4625TIP3   OH213807   3.094   4.884   1.723
 4625TIP3    H113808   3.083   4.973   1.755
 4625TIP3    H213809   3.189   4.868   1.730
 4626TIP3   OH213810   4.331   5.361   2.601
 4626TIP3    H113811   4.237   5.369   2.611
 4626TIP3    H213812   4.343   5.302   2.527
 4627TIP3   OH213813   3.995   5.562   1.986
 4627TIP3    H113814   3.919   5.506   1.999
 4627TIP3    H213815   4.064   5.523   2.040
 4628TIP3   OH213816   2.731   5.771   1.462
 4628TIP3    H113817   2.802   5.835   1.469
 4628TIP3    H213818   2.764   5.707   1.398
 4629TIP3   OH213819   2.642   5.062   1.589
 4629TIP3    H113820   2.654   5.156   1.599
 4629TIP3    H213821   2.567   5.053   1.531
 4630TIP3   OH213822   3.961   6.530   1.904
 4630TIP3    H113823   3.940   6.510   1.813
 4630TIP3    H213824   4.052   6.561   1.902
 4631TIP3   OH213825   3.041   4.782   2.465
 4631TIP3    H113826   3.012   4.749   2.381
 4631TIP3    H213827   3.032   4.708   2.525
 4632TIP3   OH213828   2.566   6.035   1.854
 4632TIP3    H113829   2.518   6.069   1.930
 4632TIP3    H213830   2.525   6.077   1.779
 4633TIP3   OH213831   2.767   6.574   2.920
 4633TIP3    H113832   2.850   6.581   2.967
 4633TIP3    H213833   2.751   6.480   2.911
 4634TIP3   OH213834   3.239   6.479   2.982
 4634TIP3    H113835   3.329   6.445   2.985
 4634TIP3    H213836   3.200   6.436   2.905
 4635TIP3   OH213837   3.193   6.085   1.088
 4635TIP3    H113838   3.144   6.015   1.131
 4635TIP3    H213839   3.268   6.041   1.048
 4636TIP3   OH213840   3.853   6.427   2.713
 4636TIP3    H113841   3.860   6.356   2.776
 4636TIP3    H213842   3.926   6.485   2.733
 4637TIP3   OH213843   3.627   6.125   1.036
 4637TIP3    H113844   3.656   6.058   1.097
 4637TIP3    H213845   3.687   6.117   0.962
 4638TIP3   OH213846   2.869   5.972   3.114
 4638TIP3    H113847   2.890   5.879   3.125
 4638TIP3    H213848   2.782   5.973   3.075
 4639TIP3   OH213849   2.860   5.581   1.313
 4639TIP3    H113850   2.910   5.557   1.391
 4639TIP3    H213851   2.925   5.594   1.245
 4640TIP3   OH213852   3.486   6.051   2.890
 4640TIP3    H113853   3.442   6.073   2.808
 4640TIP3    H213854   3.521   5.963   2.876
 4641TIP3   OH213855   3.413   5.796   1.146
 4641TIP3    H113856   3.392   5.809   1.238
 4641TIP3    H213857   3.399   5.703   1.130
 4642TIP3   OH213858   3.963   6.096   2.506
 4642TIP3    H113859   4.041   6.125   2.459
 4642TIP3    H213860   3.898   6.164   2.489
 4643TIP3   OH213861   2.984   5.715   3.116
 4643TIP3    H113862   3.063   5.693   3.065
 4643TIP3    H213863   3.017   5.734   3.204
 4644TIP3   OH213864   3.034   5.520   1.525
 4644TIP3    H113865   3.011   5.490   1.613
 4644TIP3    H213866   3.080   5.446   1.485
 4645TIP3   OH213867   3.339   5.593   2.774
 4645TIP3    H113868   3.257   5.642   2.784
 4645TIP3    H213869   3.375   5.623   2.691
 4646TIP3   OH213870   3.171   5.333   1.369
 4646TIP3    H113871   3.142   5.338   1.278
 4646TIP3    H213872   3.267   5.338   1.364
 4647TIP3   OH213873   3.845   5.975   2.868
 4647TIP3    H113874   3.917   5.939   2.816
 4647TIP3    H213875   3.843   5.920   2.946
 4648TIP3   OH213876   3.955   5.631   1.046
 4648TIP3    H113877   3.934   5.585   0.965
 4648TIP3    H213878   3.929   5.722   1.029
 4649TIP3   OH213879   3.448   5.368   2.887
 4649TIP3    H113880   3.453   5.296   2.825
 4649TIP3    H213881   3.412   5.441   2.838
 4650TIP3   OH213882   3.458   5.169   2.685
 4650TIP3    H113883   3.486   5.205   2.601
 4650TIP3    H213884   3.368   5.142   2.671
 4651TIP3   OH213885   3.465   5.695   2.557
 4651TIP3    H113886   3.555   5.723   2.541
 4651TIP3    H213887   3.411   5.758   2.510
 4652TIP3   OH213888   4.057   5.652   2.936
 4652TIP3    H113889   4.094   5.565   2.948
 4652TIP3    H213890   4.133   5.708   2.918
 4653TIP3   OH213891   4.091   5.922   2.672
 4653TIP3    H113892   4.037   5.983   2.622
 4653TIP3    H213893   4.180   5.937   2.641
 4654TIP3   OH213894   3.332   5.458   3.128
 4654TIP3    H113895   3.263   5.395   3.150
 4654TIP3    H213896   3.362   5.432   3.041
 4655TIP3   OH213897   3.582   4.935   2.782
 4655TIP3    H113898   3.540   5.015   2.751
 4655TIP3    H213899   3.515   4.867   2.770
 4656TIP3   OH213900   3.706   5.413   2.986
 4656TIP3    H113901   3.699   5.400   3.081
 4656TIP3    H213902   3.619   5.390   2.953
 4657TIP3   OH213903   3.950   5.366   2.855
 4657TIP3    H113904   3.872   5.365   2.910
 4657TIP3    H213905   4.021   5.339   2.913
 4658TIP3   OH213906   4.185   5.328   3.004
 4658TIP3    H113907   4.200   5.234   3.012
 4658TIP3    H213908   4.181   5.359   3.095
 4659TIP3   OH213909   3.167   5.237   3.192
 4659TIP3    H113910   3.173   5.149   3.156
 4659TIP3    H213911   3.205   5.230   3.279
 4660TIP3   OH213912   3.650   4.919   3.048
 4660TIP3    H113913   3.719   4.853   3.045
 4660TIP3    H213914   3.620   4.927   2.957
 4661TIP3   OH213915   3.742   5.135   3.192
 4661TIP3    H113916   3.713   5.062   3.137
 4661TIP3    H213917   3.668   5.196   3.193
 4662TIP3   OH213918   2.986   6.386   1.303
 4662TIP3    H113919   3.075   6.364   1.275
 4662TIP3    H213920   2.947   6.430   1.227
 4663TIP3   OH213921   2.458   5.763   1.481
 4663TIP3    H113922   2.553   5.775   1.477
 4663TIP3    H213923   2.443   5.677   1.443
 4664TIP3   OH213924   2.364   6.349   1.938
 4664TIP3    H113925   2.300   6.295   1.892
 4664TIP3    H213926   2.408   6.289   1.997
 4665TIP3   OH213927   2.506   6.184   2.108
 4665TIP3    H113928   2.496   6.116   2.174
 4665TIP3    H213929   2.557   6.252   2.152
 4666TIP3   OH213930   4.213   6.633   1.907
 4666TIP3    H113931   4.249   6.638   1.996
 4666TIP3    H213932   4.289   6.649   1.850
 4667TIP3   OH213933   4.276   6.613   2.186
 4667TIP3    H113934   4.227   6.531   2.183
 4667TIP3    H213935   4.345   6.596   2.250
 4668TIP3   OH213936   4.309   6.319   2.768
 4668TIP3    H113937   4.240   6.327   2.834
 4668TIP3    H213938   4.356   6.402   2.772
 4669TIP3   OH213939   4.139   5.832   1.382
 4669TIP3    H113940   4.199   5.902   1.357
 4669TIP3    H213941   4.181   5.791   1.458
 4670TIP3   OH213942   4.265   5.688   1.582
 4670TIP3    H113943   4.199   5.650   1.639
 4670TIP3    H213944   4.330   5.725   1.641
 4671TIP3   OH213945   4.311   6.093   2.007
 4671TIP3    H113946   4.365   6.021   1.974
 4671TIP3    H213947   4.325   6.164   1.944
 4672TIP3   OH213948   4.125   6.382   2.202
 4672TIP3    H113949   4.059   6.424   2.258
 4672TIP3    H213950   4.074   6.337   2.136
 4673TIP3   OH213951   4.159   5.607   1.228
 4673TIP3    H113952   4.084   5.609   1.169
 4673TIP3    H213953   4.149   5.685   1.283
 4674TIP3   OH213954   4.046   5.255   1.161
 4674TIP3    H113955   3.977   5.295   1.107
 4674TIP3    H213956   4.031   5.161   1.152
 4675TIP3   OH213957   4.062   5.550   1.717
 4675TIP3    H113958   4.067   5.455   1.706
 4675TIP3    H213959   4.043   5.562   1.810
 4676TIP3   OH213960   2.684   5.618   2.488
 4676TIP3    H113961   2.674   5.583   2.400
 4676TIP3    H213962   2.778   5.614   2.505
 4677TIP3   OH213963   4.350   5.970   2.579
 4677TIP3    H113964   4.413   5.900   2.564
 4677TIP3    H213965   4.375   6.039   2.518
 4678TIP3   OH213966   4.520   5.755   2.570
 4678TIP3    H113967   4.447   5.713   2.616
 4678TIP3    H213968   4.596   5.700   2.589
 4679TIP3   OH213969   3.993   4.985   1.135
 4679TIP3    H113970   4.058   4.958   1.201
 4679TIP3    H213971   3.911   4.946   1.165
 4680TIP3   OH213972   4.056   5.272   1.601
 4680TIP3    H113973   4.100   5.188   1.615
 4680TIP3    H213974   4.103   5.311   1.526
 4681TIP3   OH213975   4.210   5.440   2.121
 4681TIP3    H113976   4.292   5.458   2.074
 4681TIP3    H213977   4.224   5.477   2.208
 4682TIP3   OH213978   4.284   5.586   2.351
 4682TIP3    H113979   4.213   5.616   2.408
 4682TIP3    H213980   4.317   5.666   2.310
 4683TIP3   OH213981   2.903   5.293   3.131
 4683TIP3    H113982   2.997   5.291   3.148
 4683TIP3    H213983   2.870   5.212   3.171
 4684TIP3   OH213984   4.741   5.190   2.891
 4684TIP3    H113985   4.806   5.131   2.854
 4684TIP3    H213986   4.706   5.238   2.816
 4685TIP3   OH213987   4.170   5.022   1.652
 4685TIP3    H113988   4.216   5.009   1.735
 4685TIP3    H213989   4.107   4.950   1.647
 4686TIP3   OH213990   2.878   5.007   2.479
 4686TIP3    H113991   2.931   4.928   2.487
 4686TIP3    H213992   2.941   5.077   2.464
 4687TIP3   OH213993   2.667   5.268   2.547
 4687TIP3    H113994   2.714   5.259   2.464
 4687TIP3    H213995   2.698   5.351   2.583
 4688TIP3   OH213996   4.595   5.303   2.690
 4688TIP3    H113997   4.511   5.342   2.715
 4688TIP3    H213998   4.570   5.225   2.639
 4689TIP3   OH213999   4.220   4.940   1.292
 4689TIP3    H114000   4.266   4.876   1.237
 4689TIP3    H214001   4.279   5.015   1.297
 4690TIP3   OH214002   2.647   4.780   2.044
 4690TIP3    H114003   2.560   4.772   2.083
 4690TIP3    H214004   2.633   4.834   1.967
 4691TIP3   OH214005   3.871   6.519   1.590
 4691TIP3    H114006   3.869   6.470   1.507
 4691TIP3    H214007   3.952   6.570   1.585
 4692TIP3   OH214008   2.874   4.853   2.872
 4692TIP3    H114009   2.820   4.838   2.951
 4692TIP3    H214010   2.814   4.895   2.810
 4693TIP3   OH214011   2.899   6.294   2.941
 4693TIP3    H114012   2.807   6.272   2.931
 4693TIP3    H214013   2.917   6.279   3.034
 4694TIP3   OH214014   3.109   6.338   2.492
 4694TIP3    H114015   3.057   6.412   2.459
 4694TIP3    H214016   3.194   6.348   2.449
 4695TIP3   OH214017   3.514   6.575   2.640
 4695TIP3    H114018   3.551   6.569   2.728
 4695TIP3    H214019   3.576   6.629   2.592
 4696TIP3   OH214020   3.708   6.719   2.502
 4696TIP3    H114021   3.773   6.656   2.473
 4696TIP3    H214022   3.756   6.781   2.557
 4697TIP3   OH214023   4.508   5.054   2.588
 4697TIP3    H114024   4.419   5.042   2.555
 4697TIP3    H214025   4.547   4.967   2.584
 4698TIP3   OH214026   2.771   6.577   2.532
 4698TIP3    H114027   2.679   6.595   2.509
 4698TIP3    H214028   2.793   6.644   2.596
 4699TIP3   OH214029   3.001   6.566   2.382
 4699TIP3    H114030   2.918   6.572   2.431
 4699TIP3    H214031   2.978   6.596   2.294
 4700TIP3   OH214032   3.419   6.586   2.169
 4700TIP3    H114033   3.337   6.600   2.121
 4700TIP3    H214034   3.430   6.666   2.220
 4701TIP3   OH214035   3.684   6.524   2.217
 4701TIP3    H114036   3.591   6.544   2.204
 4701TIP3    H214037   3.730   6.601   2.182
 4702TIP3   OH214038   3.893   6.696   2.119
 4702TIP3    H114039   3.887   6.777   2.068
 4702TIP3    H214040   3.918   6.630   2.054
 4703TIP3   OH214041   2.680   6.360   2.253
 4703TIP3    H114042   2.704   6.337   2.343
 4703TIP3    H214043   2.753   6.328   2.200
 4704TIP3   OH214044   2.885   6.246   2.115
 4704TIP3    H114045   2.896   6.162   2.159
 4704TIP3    H214046   2.971   6.286   2.119
 4705TIP3   OH214047   3.154   6.333   2.136
 4705TIP3    H114048   3.172   6.240   2.122
 4705TIP3    H214049   3.205   6.355   2.214
 4706TIP3   OH214050   3.710   4.978   2.218
 4706TIP3    H114051   3.672   4.907   2.270
 4706TIP3    H214052   3.780   4.937   2.168
 4707TIP3   OH214053   4.219   4.888   2.106
 4707TIP3    H114054   4.255   4.940   2.034
 4707TIP3    H214055   4.127   4.915   2.111
 4708TIP3   OH214056   4.331   4.975   1.871
 4708TIP3    H114057   4.400   4.914   1.846
 4708TIP3    H214058   4.370   5.062   1.858
 4709TIP3   OH214059   2.954   4.680   2.223
 4709TIP3    H114060   2.865   4.646   2.231
 4709TIP3    H214061   3.009   4.602   2.216
 4710TIP3   OH214062   2.765   4.584   1.873
 4710TIP3    H114063   2.794   4.635   1.797
 4710TIP3    H214064   2.731   4.649   1.934
 4711TIP3   OH214065   3.428   4.723   2.115
 4711TIP3    H114066   3.479   4.770   2.048
 4711TIP3    H214067   3.468   4.748   2.198
 4712TIP3   OH214068   3.929   4.865   2.091
 4712TIP3    H114069   3.946   4.828   2.005
 4712TIP3    H214070   3.933   4.790   2.151
 4713TIP3   OH214071   3.984   4.812   1.657
 4713TIP3    H114072   3.904   4.858   1.682
 4713TIP3    H214073   3.975   4.725   1.697
 4714TIP3   OH214074   2.452   6.156   1.636
 4714TIP3    H114075   2.368   6.122   1.607
 4714TIP3    H214076   2.453   6.247   1.605
 4715TIP3   OH214077   2.880   4.718   1.639
 4715TIP3    H114078   2.926   4.656   1.582
 4715TIP3    H214079   2.950   4.774   1.674
 4716TIP3   OH214080   3.370   4.913   1.734
 4716TIP3    H114081   3.428   4.861   1.790
 4716TIP3    H214082   3.384   5.004   1.763
 4717TIP3   OH214083   3.239   6.309   1.235
 4717TIP3    H114084   3.327   6.334   1.205
 4717TIP3    H214085   3.212   6.240   1.175
 4718TIP3   OH214086   3.945   6.427   1.342
 4718TIP3    H114087   3.942   6.332   1.332
 4718TIP3    H214088   3.898   6.461   1.266
 4719TIP3   OH214089   3.180   4.966   3.104
 4719TIP3    H114090   3.144   4.900   3.164
 4719TIP3    H214091   3.272   4.973   3.129
 4720TIP3   OH214092   3.429   4.970   3.225
 4720TIP3    H114093   3.507   4.948   3.175
 4720TIP3    H214094   3.423   4.901   3.292
 4721TIP3   OH214095   2.553   6.151   1.287
 4721TIP3    H114096   2.553   6.160   1.383
 4721TIP3    H214097   2.635   6.105   1.268
 4722TIP3   OH214098   4.251   5.058   3.015
 4722TIP3    H114099   4.266   5.027   3.104
 4722TIP3    H214100   4.336   5.052   2.972
 4723TIP3   OH214101   4.172   6.590   2.517
 4723TIP3    H114102   4.094   6.561   2.468
 4723TIP3    H214103   4.159   6.683   2.530
 4724TIP3   OH214104   5.404   5.984   1.323
 4724TIP3    H114105   5.377   6.068   1.286
 4724TIP3    H214106   5.349   5.920   1.278
 4725TIP3   OH214107   5.438   5.969   1.686
 4725TIP3    H114108   5.488   5.953   1.766
 4725TIP3    H214109   5.397   5.885   1.666
 4726TIP3   OH214110   4.741   5.833   2.030
 4726TIP3    H114111   4.775   5.780   2.102
 4726TIP3    H214112   4.819   5.859   1.980
 4727TIP3   OH214113   5.745   6.259   1.370
 4727TIP3    H114114   5.729   6.199   1.443
 4727TIP3    H214115   5.770   6.341   1.412
 4728TIP3   OH214116   4.715   6.255   1.727
 4728TIP3    H114117   4.705   6.160   1.728
 4728TIP3    H214118   4.810   6.269   1.725
 4729TIP3   OH214119   4.422   5.468   1.495
 4729TIP3    H114120   4.384   5.550   1.526
 4729TIP3    H214121   4.347   5.417   1.464
 4730TIP3   OH214122   4.496   5.773   1.719
 4730TIP3    H114123   4.545   5.696   1.747
 4730TIP3    H214124   4.563   5.838   1.698
 4731TIP3   OH214125   5.311   6.728   1.397
 4731TIP3    H114126   5.376   6.670   1.357
 4731TIP3    H214127   5.317   6.710   1.491
 4732TIP3   OH214128   5.250   6.192   1.692
 4732TIP3    H114129   5.293   6.112   1.663
 4732TIP3    H214130   5.321   6.248   1.722
 4733TIP3   OH214131   6.278   5.513   1.714
 4733TIP3    H114132   6.294   5.596   1.759
 4733TIP3    H214133   6.322   5.523   1.629
 4734TIP3   OH214134   5.663   5.680   1.733
 4734TIP3    H114135   5.701   5.598   1.764
 4734TIP3    H214136   5.616   5.657   1.654
 4735TIP3   OH214137   5.011   5.338   1.690
 4735TIP3    H114138   4.991   5.413   1.633
 4735TIP3    H214139   4.956   5.267   1.656
 4736TIP3   OH214140   5.711   5.438   1.352
 4736TIP3    H114141   5.778   5.426   1.419
 4736TIP3    H214142   5.760   5.464   1.273
 4737TIP3   OH214143   4.636   5.553   1.811
 4737TIP3    H114144   4.718   5.536   1.857
 4737TIP3    H214145   4.642   5.501   1.731
 4738TIP3   OH214146   5.062   5.756   1.632
 4738TIP3    H114147   5.156   5.740   1.639
 4738TIP3    H214148   5.027   5.673   1.600
 4739TIP3   OH214149   6.336   5.728   1.878
 4739TIP3    H114150   6.250   5.770   1.871
 4739TIP3    H214151   6.377   5.770   1.954
 4740TIP3   OH214152   4.995   5.341   2.136
 4740TIP3    H114153   4.943   5.377   2.064
 4740TIP3    H214154   4.942   5.355   2.214
 4741TIP3   OH214155   5.318   6.180   1.151
 4741TIP3    H114156   5.314   6.173   1.056
 4741TIP3    H214157   5.264   6.256   1.172
 4742TIP3   OH214158   5.094   6.115   1.909
 4742TIP3    H114159   5.040   6.187   1.942
 4742TIP3    H214160   5.144   6.154   1.837
 4743TIP3   OH214161   5.894   5.448   1.551
 4743TIP3    H114162   5.845   5.434   1.632
 4743TIP3    H214163   5.944   5.528   1.568
 4744TIP3   OH214164   4.879   5.449   1.908
 4744TIP3    H114165   4.934   5.524   1.932
 4744TIP3    H214166   4.928   5.405   1.838
 4745TIP3   OH214167   4.931   6.317   2.009
 4745TIP3    H114168   4.918   6.408   1.979
 4745TIP3    H214169   4.854   6.298   2.062
 4746TIP3   OH214170   4.319   6.020   1.281
 4746TIP3    H114171   4.286   6.045   1.195
 4746TIP3    H214172   4.343   6.103   1.323
 4747TIP3   OH214173   5.746   6.512   1.502
 4747TIP3    H114174   5.657   6.506   1.535
 4747TIP3    H214175   5.752   6.600   1.465
 4748TIP3   OH214176   6.078   5.394   1.871
 4748TIP3    H114177   5.993   5.424   1.839
 4748TIP3    H214178   6.141   5.426   1.807
 4749TIP3   OH214179   5.335   5.033   1.864
 4749TIP3    H114180   5.329   4.941   1.891
 4749TIP3    H214181   5.259   5.075   1.904
 4750TIP3   OH214182   5.486   6.572   1.258
 4750TIP3    H114183   5.514   6.482   1.243
 4750TIP3    H214184   5.565   6.624   1.249
 4751TIP3   OH214185   5.552   6.321   1.190
 4751TIP3    H114186   5.486   6.251   1.188
 4751TIP3    H214187   5.620   6.289   1.248
 4752TIP3   OH214188   5.978   6.419   1.848
 4752TIP3    H114189   5.967   6.342   1.793
 4752TIP3    H214190   5.968   6.493   1.788
 4753TIP3   OH214191   5.269   5.824   1.146
 4753TIP3    H114192   5.181   5.863   1.147
 4753TIP3    H214193   5.283   5.801   1.054
 4754TIP3   OH214194   5.231   5.715   0.886
 4754TIP3    H114195   5.325   5.729   0.895
 4754TIP3    H214196   5.222   5.620   0.877
 4755TIP3   OH214197   6.166   6.061   1.715
 4755TIP3    H114198   6.084   6.110   1.720
 4755TIP3    H214199   6.207   6.093   1.635
 4756TIP3   OH214200   5.591   5.861   1.172
 4756TIP3    H114201   5.537   5.903   1.238
 4756TIP3    H214202   5.674   5.842   1.216
 4757TIP3   OH214203   5.859   5.936   2.019
 4757TIP3    H114204   5.863   6.020   2.064
 4757TIP3    H214205   5.776   5.938   1.971
 4758TIP3   OH214206   4.858   5.885   1.495
 4758TIP3    H114207   4.820   5.819   1.436
 4758TIP3    H214208   4.934   5.842   1.533
 4759TIP3   OH214209   4.988   6.303   1.639
 4759TIP3    H114210   4.966   6.293   1.547
 4759TIP3    H214211   5.077   6.268   1.646
 4760TIP3   OH214212   4.957   5.885   1.855
 4760TIP3    H114213   4.997   5.849   1.776
 4760TIP3    H214214   5.007   5.964   1.874
 4761TIP3   OH214215   5.500   6.511   1.622
 4761TIP3    H114216   5.493   6.593   1.671
 4761TIP3    H214217   5.491   6.442   1.689
 4762TIP3   OH214218   5.132   6.420   2.174
 4762TIP3    H114219   5.072   6.477   2.222
 4762TIP3    H214220   5.075   6.367   2.118
 4763TIP3   OH214221   5.486   5.763   0.933
 4763TIP3    H114222   5.519   5.782   1.021
 4763TIP3    H214223   5.565   5.747   0.881
 4764TIP3   OH214224   4.889   5.980   2.307
 4764TIP3    H114225   4.889   6.073   2.332
 4764TIP3    H214226   4.796   5.957   2.303
 4765TIP3   OH214227   5.224   6.437   1.224
 4765TIP3    H114228   5.278   6.479   1.291
 4765TIP3    H214229   5.159   6.504   1.201
 4766TIP3   OH214230   4.920   6.577   2.257
 4766TIP3    H114231   4.894   6.587   2.165
 4766TIP3    H214232   4.837   6.564   2.304
 4767TIP3   OH214233   5.977   5.002   1.018
 4767TIP3    H114234   5.899   5.015   1.073
 4767TIP3    H214235   5.985   5.084   0.969
 4768TIP3   OH214236   4.722   5.709   1.322
 4768TIP3    H114237   4.645   5.755   1.289
 4768TIP3    H214238   4.689   5.624   1.352
 4769TIP3   OH214239   4.511   6.132   2.208
 4769TIP3    H114240   4.442   6.110   2.145
 4769TIP3    H214241   4.547   6.048   2.236
 4770TIP3   OH214242   4.419   6.305   1.841
 4770TIP3    H114243   4.504   6.279   1.805
 4770TIP3    H214244   4.439   6.373   1.905
 4771TIP3   OH214245   6.217   6.827   1.897
 4771TIP3    H114246   6.272   6.751   1.916
 4771TIP3    H214247   6.140   6.816   1.953
 4772TIP3   OH214248   5.318   6.564   2.031
 4772TIP3    H114249   5.313   6.654   2.064
 4772TIP3    H214250   5.253   6.517   2.084
 4773TIP3   OH214251   5.055   6.624   1.115
 4773TIP3    H114252   4.973   6.591   1.078
 4773TIP3    H214253   5.039   6.717   1.128
 4774TIP3   OH214254   4.512   6.521   1.392
 4774TIP3    H114255   4.563   6.514   1.473
 4774TIP3    H214256   4.478   6.433   1.377
 4775TIP3   OH214257   5.313   6.533   0.731
 4775TIP3    H114258   5.398   6.504   0.697
 4775TIP3    H214259   5.321   6.525   0.826
 4776TIP3   OH214260   5.414   6.746   1.051
 4776TIP3    H114261   5.331   6.721   1.011
 4776TIP3    H214262   5.434   6.676   1.113
 4777TIP3   OH214263   6.106   5.889   2.188
 4777TIP3    H114264   6.022   5.901   2.146
 4777TIP3    H214265   6.124   5.795   2.182
 4778TIP3   OH214266   4.710   6.319   2.177
 4778TIP3    H114267   4.762   6.310   2.257
 4778TIP3    H214268   4.640   6.255   2.186
 4779TIP3   OH214269   5.098   5.126   1.989
 4779TIP3    H114270   5.014   5.094   1.958
 4779TIP3    H214271   5.078   5.206   2.037
 4780TIP3   OH214272   5.642   5.244   2.188
 4780TIP3    H114273   5.713   5.221   2.249
 4780TIP3    H214274   5.562   5.228   2.238
 4781TIP3   OH214275   5.860   5.668   2.096
 4781TIP3    H114276   5.822   5.664   2.183
 4781TIP3    H214277   5.850   5.760   2.070
 4782TIP3   OH214278   5.484   5.784   0.471
 4782TIP3    H114279   5.423   5.846   0.433
 4782TIP3    H214280   5.561   5.837   0.494
 4783TIP3   OH214281   5.224   5.181   0.950
 4783TIP3    H114282   5.198   5.191   1.041
 4783TIP3    H214283   5.206   5.090   0.929
 4784TIP3   OH214284   5.036   5.658   1.995
 4784TIP3    H114285   4.995   5.667   2.082
 4784TIP3    H214286   5.015   5.740   1.951
 4785TIP3   OH214287   4.919   5.541   1.531
 4785TIP3    H114288   4.830   5.516   1.555
 4785TIP3    H214289   4.931   5.504   1.443
 4786TIP3   OH214290   5.391   5.618   1.273
 4786TIP3    H114291   5.350   5.695   1.233
 4786TIP3    H214292   5.459   5.592   1.210
 4787TIP3   OH214293   5.590   5.882   2.320
 4787TIP3    H114294   5.564   5.814   2.382
 4787TIP3    H214295   5.682   5.899   2.341
 4788TIP3   OH214296   5.555   5.620   1.492
 4788TIP3    H114297   5.488   5.640   1.427
 4788TIP3    H214298   5.607   5.550   1.453
 4789TIP3   OH214299   4.868   5.667   2.218
 4789TIP3    H114300   4.920   5.720   2.278
 4789TIP3    H214301   4.851   5.585   2.266
 4790TIP3   OH214302   4.909   5.133   0.963
 4790TIP3    H114303   4.891   5.154   1.054
 4790TIP3    H214304   4.835   5.170   0.915
 4791TIP3   OH214305   4.466   5.196   1.793
 4791TIP3    H114306   4.534   5.230   1.851
 4791TIP3    H214307   4.514   5.168   1.715
 4792TIP3   OH214308   4.381   5.169   1.304
 4792TIP3    H114309   4.430   5.203   1.229
 4792TIP3    H214310   4.322   5.241   1.328
 4793TIP3   OH214311   5.597   5.883   1.901
 4793TIP3    H114312   5.628   5.816   1.840
 4793TIP3    H214313   5.560   5.833   1.974
 4794TIP3   OH214314   5.275   5.328   1.574
 4794TIP3    H114315   5.200   5.329   1.633
 4794TIP3    H214316   5.351   5.321   1.632
 4795TIP3   OH214317   4.681   5.413   1.578
 4795TIP3    H114318   4.592   5.415   1.543
 4795TIP3    H214319   4.710   5.324   1.564
 4796TIP3   OH214320   4.931   5.406   1.295
 4796TIP3    H114321   5.024   5.419   1.276
 4796TIP3    H214322   4.888   5.421   1.211
 4797TIP3   OH214323   5.737   5.414   1.777
 4797TIP3    H114324   5.717   5.430   1.869
 4797TIP3    H214325   5.668   5.355   1.747
 4798TIP3   OH214326   4.781   5.418   1.065
 4798TIP3    H114327   4.709   5.395   1.006
 4798TIP3    H214328   4.842   5.468   1.011
 4799TIP3   OH214329   5.930   7.118   2.009
 4799TIP3    H114330   5.924   7.134   1.915
 4799TIP3    H214331   6.012   7.159   2.036
 4800TIP3   OH214332   4.868   6.240   2.411
 4800TIP3    H114333   4.950   6.258   2.457
 4800TIP3    H214334   4.800   6.244   2.479
 4801TIP3   OH214335   5.332   5.696   1.680
 4801TIP3    H114336   5.398   5.649   1.631
 4801TIP3    H214337   5.332   5.655   1.766
 4802TIP3   OH214338   4.823   5.165   1.566
 4802TIP3    H114339   4.796   5.089   1.618
 4802TIP3    H214340   4.855   5.127   1.484
 4803TIP3   OH214341   5.305   5.601   1.946
 4803TIP3    H114342   5.218   5.632   1.969
 4803TIP3    H214343   5.365   5.651   2.001
 4804TIP3   OH214344   5.022   5.925   1.116
 4804TIP3    H114345   4.945   5.873   1.094
 4804TIP3    H214346   4.994   5.978   1.190
 4805TIP3   OH214347   5.924   6.197   1.688
 4805TIP3    H114348   5.957   6.243   1.611
 4805TIP3    H214349   5.842   6.157   1.659
 4806TIP3   OH214350   5.480   5.277   0.984
 4806TIP3    H114351   5.391   5.251   0.959
 4806TIP3    H214352   5.503   5.346   0.921
 4807TIP3   OH214353   5.441   6.290   2.073
 4807TIP3    H114354   5.501   6.278   2.147
 4807TIP3    H214355   5.408   6.379   2.082
 4808TIP3   OH214356   5.581   5.544   1.093
 4808TIP3    H114357   5.676   5.546   1.108
 4808TIP3    H214358   5.572   5.520   1.001
 4809TIP3   OH214359   4.720   5.970   1.716
 4809TIP3    H114360   4.761   5.951   1.632
 4809TIP3    H214361   4.784   5.943   1.781
 4810TIP3   OH214362   5.093   6.062   0.896
 4810TIP3    H114363   5.106   6.153   0.925
 4810TIP3    H214364   5.082   6.013   0.977
 4811TIP3   OH214365   4.616   5.914   2.346
 4811TIP3    H114366   4.636   5.899   2.439
 4811TIP3    H214367   4.547   5.851   2.326
 4812TIP3   OH214368   5.361   6.039   2.359
 4812TIP3    H114369   5.301   5.991   2.302
 4812TIP3    H214370   5.447   6.002   2.339
 4813TIP3   OH214371   5.588   6.574   1.955
 4813TIP3    H114372   5.492   6.565   1.961
 4813TIP3    H214373   5.613   6.614   2.038
 4814TIP3   OH214374   5.970   5.629   0.881
 4814TIP3    H114375   5.949   5.596   0.793
 4814TIP3    H214376   5.970   5.725   0.871
 4815TIP3   OH214377   6.233   6.464   1.942
 4815TIP3    H114378   6.139   6.471   1.930
 4815TIP3    H214379   6.268   6.451   1.854
 4816TIP3   OH214380   5.786   6.421   0.747
 4816TIP3    H114381   5.751   6.361   0.813
 4816TIP3    H214382   5.711   6.475   0.722
 4817TIP3   OH214383   5.695   6.072   1.578
 4817TIP3    H114384   5.603   6.054   1.600
 4817TIP3    H214385   5.729   5.988   1.547
 4818TIP3   OH214386   4.850   6.323   1.396
 4818TIP3    H114387   4.849   6.410   1.356
 4818TIP3    H214388   4.757   6.299   1.402
 4819TIP3   OH214389   4.393   5.591   1.089
 4819TIP3    H114390   4.448   5.665   1.114
 4819TIP3    H214391   4.317   5.596   1.148
 4820TIP3   OH214392   4.924   6.077   1.308
 4820TIP3    H114393   4.915   6.167   1.340
 4820TIP3    H214394   4.903   6.023   1.384
 4821TIP3   OH214395   5.133   6.637   1.829
 4821TIP3    H114396   5.169   6.712   1.782
 4821TIP3    H214397   5.206   6.603   1.880
 4822TIP3   OH214398   4.761   6.560   1.282
 4822TIP3    H114399   4.672   6.573   1.316
 4822TIP3    H214400   4.795   6.648   1.269
 4823TIP3   OH214401   5.487   6.293   1.800
 4823TIP3    H114402   5.472   6.289   1.895
 4823TIP3    H214403   5.573   6.253   1.788
 4824TIP3   OH214404   5.508   6.207   0.610
 4824TIP3    H114405   5.457   6.156   0.673
 4824TIP3    H214406   5.442   6.242   0.549
 4825TIP3   OH214407   5.741   6.789   1.854
 4825TIP3    H114408   5.671   6.724   1.864
 4825TIP3    H214409   5.711   6.845   1.782
 4826TIP3   OH214410   4.825   5.415   2.344
 4826TIP3    H114411   4.730   5.422   2.351
 4826TIP3    H214412   4.851   5.364   2.421
 4827TIP3   OH214413   5.618   6.035   0.957
 4827TIP3    H114414   5.570   6.002   1.033
 4827TIP3    H214415   5.691   5.975   0.946
 4828TIP3   OH214416   4.549   6.512   1.999
 4828TIP3    H114417   4.605   6.453   2.049
 4828TIP3    H214418   4.563   6.598   2.039
 4829TIP3   OH214419   4.889   6.212   0.748
 4829TIP3    H114420   4.949   6.143   0.722
 4829TIP3    H214421   4.849   6.180   0.829
 4830TIP3   OH214422   4.789   6.140   1.004
 4830TIP3    H114423   4.856   6.107   1.063
 4830TIP3    H214424   4.753   6.217   1.049
 4831TIP3   OH214425   4.503   5.828   1.200
 4831TIP3    H114426   4.444   5.891   1.242
 4831TIP3    H214427   4.527   5.869   1.117
 4832TIP3   OH214428   5.672   5.473   2.036
 4832TIP3    H114429   5.747   5.523   2.069
 4832TIP3    H214430   5.664   5.398   2.095
 4833TIP3   OH214431   5.554   5.232   1.247
 4833TIP3    H114432   5.525   5.260   1.160
 4833TIP3    H214433   5.597   5.309   1.284
 4834TIP3   OH214434   5.108   6.326   0.962
 4834TIP3    H114435   5.028   6.378   0.971
 4834TIP3    H214436   5.178   6.384   0.990
 4835TIP3   OH214437   5.209   5.420   1.320
 4835TIP3    H114438   5.271   5.490   1.298
 4835TIP3    H214439   5.231   5.398   1.411
 4836TIP3   OH214440   5.509   5.715   2.102
 4836TIP3    H114441   5.536   5.762   2.181
 4836TIP3    H214442   5.561   5.635   2.103
 4837TIP3   OH214443   5.367   5.117   1.414
 4837TIP3    H114444   5.342   5.193   1.467
 4837TIP3    H214445   5.439   5.149   1.359
 4838TIP3   OH214446   4.687   6.374   1.097
 4838TIP3    H114447   4.754   6.407   1.036
 4838TIP3    H214448   4.694   6.433   1.173
 4839TIP3   OH214449   4.889   5.135   1.243
 4839TIP3    H114450   4.882   5.226   1.273
 4839TIP3    H214451   4.983   5.119   1.238
 4840TIP3   OH214452   6.128   5.621   2.093
 4840TIP3    H114453   6.032   5.623   2.097
 4840TIP3    H214454   6.148   5.584   2.007
 4841TIP3   OH214455   5.784   5.815   1.498
 4841TIP3    H114456   5.708   5.763   1.524
 4841TIP3    H214457   5.856   5.780   1.550
 4842TIP3   OH214458   4.522   6.066   0.938
 4842TIP3    H114459   4.601   6.116   0.958
 4842TIP3    H214460   4.553   5.984   0.901
 4843TIP3   OH214461   4.431   5.317   1.072
 4843TIP3    H114462   4.434   5.411   1.092
 4843TIP3    H214463   4.340   5.301   1.048
 4844TIP3   OH214464   5.782   6.782   1.452
 4844TIP3    H114465   5.732   6.841   1.396
 4844TIP3    H214466   5.874   6.804   1.434
 4845TIP3   OH214467   4.835   5.040   1.952
 4845TIP3    H114468   4.807   5.006   1.867
 4845TIP3    H214469   4.828   4.966   2.011
 4846TIP3   OH214470   4.368   6.280   1.376
 4846TIP3    H114471   4.325   6.319   1.452
 4846TIP3    H214472   4.328   6.323   1.300
 4847TIP3   OH214473   4.564   6.834   2.408
 4847TIP3    H114474   4.645   6.843   2.459
 4847TIP3    H214475   4.554   6.740   2.396
 4848TIP3   OH214476   5.023   6.747   2.449
 4848TIP3    H114477   5.115   6.722   2.462
 4848TIP3    H214478   4.993   6.691   2.378
 4849TIP3   OH214479   4.942   6.405   0.569
 4849TIP3    H114480   4.922   6.337   0.632
 4849TIP3    H214481   5.014   6.369   0.517
 4850TIP3   OH214482   5.643   6.685   2.198
 4850TIP3    H114483   5.646   6.613   2.261
 4850TIP3    H214484   5.721   6.737   2.218
 4851TIP3   OH214485   4.665   6.229   2.602
 4851TIP3    H114486   4.686   6.136   2.612
 4851TIP3    H214487   4.578   6.229   2.563
 4852TIP3   OH214488   4.585   5.787   0.927
 4852TIP3    H114489   4.663   5.785   0.982
 4852TIP3    H214490   4.609   5.735   0.850
 4853TIP3   OH214491   5.284   6.314   2.380
 4853TIP3    H114492   5.244   6.334   2.296
 4853TIP3    H214493   5.325   6.228   2.368
 4854TIP3   OH214494   5.076   6.038   0.626
 4854TIP3    H114495   5.120   6.057   0.709
 4854TIP3    H214496   5.130   5.970   0.585
 4855TIP3   OH214497   5.753   6.348   1.989
 4855TIP3    H114498   5.834   6.377   1.946
 4855TIP3    H214499   5.691   6.420   1.975
 4856TIP3   OH214500   4.780   5.971   2.599
 4856TIP3    H114501   4.860   5.952   2.549
 4856TIP3    H214502   4.812   5.990   2.687
 4857TIP3   OH214503   4.814   5.754   1.066
 4857TIP3    H114504   4.801   5.722   1.155
 4857TIP3    H214505   4.869   5.688   1.024
 4858TIP3   OH214506   5.111   5.829   2.248
 4858TIP3    H114507   5.042   5.892   2.268
 4858TIP3    H214508   5.162   5.870   2.178
 4859TIP3   OH214509   4.954   5.560   0.921
 4859TIP3    H114510   4.945   5.612   0.842
 4859TIP3    H214511   5.036   5.512   0.909
 4860TIP3   OH214512   5.640   6.227   2.356
 4860TIP3    H114513   5.716   6.196   2.307
 4860TIP3    H214514   5.640   6.175   2.436
 4861TIP3   OH214515   5.728   5.891   0.538
 4861TIP3    H114516   5.760   5.822   0.480
 4861TIP3    H214517   5.763   5.972   0.499
 4862TIP3   OH214518   5.245   5.626   2.375
 4862TIP3    H114519   5.253   5.552   2.315
 4862TIP3    H214520   5.204   5.695   2.323
 4863TIP3   OH214521   5.255   5.424   2.174
 4863TIP3    H114522   5.283   5.461   2.090
 4863TIP3    H214523   5.164   5.398   2.159
 4864TIP3   OH214524   5.264   5.962   2.066
 4864TIP3    H114525   5.353   5.983   2.041
 4864TIP3    H214526   5.209   6.020   2.013
 4865TIP3   OH214527   5.853   5.920   2.426
 4865TIP3    H114528   5.905   5.841   2.444
 4865TIP3    H214529   5.918   5.990   2.421
 4866TIP3   OH214530   5.887   6.180   2.157
 4866TIP3    H114531   5.833   6.239   2.106
 4866TIP3    H214532   5.977   6.197   2.127
 4867TIP3   OH214533   5.123   5.715   2.613
 4867TIP3    H114534   5.057   5.649   2.633
 4867TIP3    H214535   5.156   5.690   2.527
 4868TIP3   OH214536   5.377   5.190   2.269
 4868TIP3    H114537   5.336   5.271   2.239
 4868TIP3    H214538   5.310   5.123   2.257
 4869TIP3   OH214539   5.506   5.670   2.473
 4869TIP3    H114540   5.502   5.659   2.568
 4869TIP3    H214541   5.418   5.649   2.442
 4870TIP3   OH214542   5.745   5.615   2.333
 4870TIP3    H114543   5.669   5.620   2.392
 4870TIP3    H214544   5.819   5.595   2.390
 4871TIP3   OH214545   5.983   5.578   2.479
 4871TIP3    H114546   5.997   5.484   2.489
 4871TIP3    H214547   5.975   5.610   2.568
 4872TIP3   OH214548   4.962   5.493   2.679
 4872TIP3    H114549   4.969   5.405   2.643
 4872TIP3    H214550   5.000   5.487   2.766
 4873TIP3   OH214551   5.447   5.175   2.535
 4873TIP3    H114552   5.516   5.110   2.530
 4873TIP3    H214553   5.416   5.184   2.445
 4874TIP3   OH214554   5.537   5.395   2.676
 4874TIP3    H114555   5.509   5.322   2.621
 4874TIP3    H214556   5.463   5.455   2.676
 4875TIP3   OH214557   4.770   6.611   0.661
 4875TIP3    H114558   4.862   6.591   0.647
 4875TIP3    H214559   4.742   6.656   0.581
 4876TIP3   OH214560   4.258   6.028   1.005
 4876TIP3    H114561   4.351   6.041   0.985
 4876TIP3    H214562   4.241   5.936   0.982
 4877TIP3   OH214563   4.124   6.596   1.465
 4877TIP3    H114564   4.071   6.540   1.408
 4877TIP3    H214565   4.180   6.535   1.513
 4878TIP3   OH214566   4.295   6.434   1.611
 4878TIP3    H114567   4.302   6.367   1.680
 4878TIP3    H214568   4.346   6.507   1.645
 4879TIP3   OH214569   6.020   6.910   1.423
 4879TIP3    H114570   6.030   6.922   1.517
 4879TIP3    H214571   6.103   6.873   1.394
 4880TIP3   OH214572   6.033   6.886   1.696
 4880TIP3    H114573   5.997   6.797   1.688
 4880TIP3    H214574   6.111   6.875   1.750
 4881TIP3   OH214575   6.099   6.569   2.266
 4881TIP3    H114576   6.030   6.582   2.332
 4881TIP3    H214577   6.147   6.652   2.266
 4882TIP3   OH214578   5.961   6.086   0.927
 4882TIP3    H114579   6.027   6.138   0.881
 4882TIP3    H214580   6.003   6.063   1.010
 4883TIP3   OH214581   6.027   5.988   1.162
 4883TIP3    H114582   5.973   5.941   1.226
 4883TIP3    H214583   6.110   6.001   1.207
 4884TIP3   OH214584   6.061   6.321   1.494
 4884TIP3    H114585   6.134   6.262   1.473
 4884TIP3    H214586   6.091   6.407   1.464
 4885TIP3   OH214587   5.914   6.635   1.692
 4885TIP3    H114588   5.847   6.675   1.748
 4885TIP3    H214589   5.865   6.592   1.622
 4886TIP3   OH214590   5.942   5.908   0.717
 4886TIP3    H114591   5.863   5.941   0.673
 4886TIP3    H214592   5.953   5.965   0.793
 4887TIP3   OH214593   5.887   5.535   0.643
 4887TIP3    H114594   5.842   5.581   0.572
 4887TIP3    H214595   5.856   5.444   0.635
 4888TIP3   OH214596   5.856   5.782   1.240
 4888TIP3    H114597   5.863   5.688   1.225
 4888TIP3    H214598   5.840   5.789   1.334
 4889TIP3   OH214599   4.479   5.879   1.974
 4889TIP3    H114600   4.470   5.841   1.886
 4889TIP3    H214601   4.573   5.872   1.993
 4890TIP3   OH214602   6.147   6.227   2.070
 4890TIP3    H114603   6.210   6.159   2.049
 4890TIP3    H214604   6.177   6.304   2.022
 4891TIP3   OH214605   6.311   6.007   2.050
 4891TIP3    H114606   6.240   5.968   2.102
 4891TIP3    H214607   6.389   5.957   2.074
 4892TIP3   OH214608   5.804   5.280   0.661
 4892TIP3    H114609   5.865   5.227   0.610
 4892TIP3    H214610   5.765   5.218   0.723
 4893TIP3   OH214611   5.854   5.533   1.116
 4893TIP3    H114612   5.889   5.445   1.126
 4893TIP3    H214613   5.890   5.564   1.033
 4894TIP3   OH214614   6.004   5.695   1.619
 4894TIP3    H114615   6.085   5.716   1.572
 4894TIP3    H214616   6.016   5.732   1.706
 4895TIP3   OH214617   6.075   5.839   1.846
 4895TIP3    H114618   6.006   5.872   1.904
 4895TIP3    H214619   6.111   5.917   1.804
 4896TIP3   OH214620   4.698   5.549   2.616
 4896TIP3    H114621   4.792   5.547   2.634
 4896TIP3    H214622   4.664   5.468   2.655
 4897TIP3   OH214623   6.546   5.439   2.382
 4897TIP3    H114624   6.609   5.383   2.338
 4897TIP3    H214625   6.507   5.492   2.312
 4898TIP3   OH214626   5.935   5.286   1.189
 4898TIP3    H114627   5.991   5.263   1.263
 4898TIP3    H214628   5.877   5.211   1.178
 4899TIP3   OH214629   4.670   5.264   1.969
 4899TIP3    H114630   4.724   5.185   1.977
 4899TIP3    H214631   4.732   5.335   1.955
 4900TIP3   OH214632   4.455   5.528   2.027
 4900TIP3    H114633   4.507   5.524   1.947
 4900TIP3    H214634   4.493   5.599   2.077
 4901TIP3   OH214635   6.395   5.565   2.193
 4901TIP3    H114636   6.321   5.606   2.238
 4901TIP3    H214637   6.354   5.499   2.137
 4902TIP3   OH214638   5.983   5.233   0.880
 4902TIP3    H114639   5.978   5.197   0.791
 4902TIP3    H214640   5.949   5.322   0.871
 4903TIP3   OH214641   4.441   5.027   1.530
 4903TIP3    H114642   4.356   5.021   1.573
 4903TIP3    H214643   4.426   5.086   1.456
 4904TIP3   OH214644   5.681   6.744   1.176
 4904TIP3    H114645   5.729   6.779   1.102
 4904TIP3    H214646   5.662   6.820   1.232
 4905TIP3   OH214647   4.666   5.100   2.355
 4905TIP3    H114648   4.615   5.090   2.436
 4905TIP3    H214649   4.607   5.146   2.296
 4906TIP3   OH214650   4.692   6.555   2.419
 4906TIP3    H114651   4.599   6.529   2.415
 4906TIP3    H214652   4.716   6.542   2.511
 4907TIP3   OH214653   4.903   6.592   1.974
 4907TIP3    H114654   4.853   6.667   1.943
 4907TIP3    H214655   4.989   6.602   1.934
 4908TIP3   OH214656   5.310   6.830   2.114
 4908TIP3    H114657   5.347   6.821   2.202
 4908TIP3    H214658   5.376   6.880   2.065
 4909TIP3   OH214659   5.507   6.977   1.987
 4909TIP3    H114660   5.573   6.922   1.944
 4909TIP3    H214661   5.557   7.036   2.042
 4910TIP3   OH214662   6.299   5.320   2.075
 4910TIP3    H114663   6.213   5.318   2.033
 4910TIP3    H214664   6.331   5.230   2.069
 4911TIP3   OH214665   4.562   6.837   2.023
 4911TIP3    H114666   4.472   6.863   2.004
 4911TIP3    H214667   4.591   6.900   2.090
 4912TIP3   OH214668   4.793   6.822   1.874
 4912TIP3    H114669   4.711   6.829   1.922
 4912TIP3    H214670   4.771   6.851   1.785
 4913TIP3   OH214671   5.216   6.847   1.666
 4913TIP3    H114672   5.144   6.857   1.604
 4913TIP3    H214673   5.232   6.935   1.699
 4914TIP3   OH214674   5.474   6.769   1.714
 4914TIP3    H114675   5.385   6.801   1.702
 4914TIP3    H214676   5.529   6.841   1.681
 4915TIP3   OH214677   5.670   6.948   1.642
 4915TIP3    H114678   5.669   7.037   1.606
 4915TIP3    H214679   5.714   6.896   1.574
 4916TIP3   OH214680   4.466   6.617   1.752
 4916TIP3    H114681   4.490   6.591   1.841
 4916TIP3    H214682   4.539   6.587   1.698
 4917TIP3   OH214683   4.672   6.503   1.614
 4917TIP3    H114684   4.683   6.418   1.654
 4917TIP3    H214685   4.759   6.543   1.616
 4918TIP3   OH214686   4.941   6.578   1.637
 4918TIP3    H114687   4.960   6.485   1.627
 4918TIP3    H214688   4.999   6.607   1.707
 4919TIP3   OH214689   5.507   5.238   1.704
 4919TIP3    H114690   5.470   5.166   1.756
 4919TIP3    H214691   5.576   5.197   1.652
 4920TIP3   OH214692   6.014   5.152   1.609
 4920TIP3    H114693   6.053   5.200   1.536
 4920TIP3    H214694   5.924   5.185   1.614
 4921TIP3   OH214695   6.129   5.218   1.369
 4921TIP3    H114696   6.203   5.159   1.353
 4921TIP3    H214697   6.166   5.306   1.361
 4922TIP3   OH214698   4.749   4.937   1.709
 4922TIP3    H114699   4.660   4.903   1.719
 4922TIP3    H214700   4.804   4.859   1.703
 4923TIP3   OH214701   4.550   4.833   1.356
 4923TIP3    H114702   4.585   4.886   1.285
 4923TIP3    H214703   4.520   4.896   1.421
 4924TIP3   OH214704   5.218   4.978   1.608
 4924TIP3    H114705   5.266   5.024   1.540
 4924TIP3    H214706   5.260   5.004   1.690
 4925TIP3   OH214707   5.723   5.122   1.577
 4925TIP3    H114708   5.752   5.087   1.493
 4925TIP3    H214709   5.727   5.046   1.636
 4926TIP3   OH214710   5.766   5.068   1.177
 4926TIP3    H114711   5.686   5.118   1.198
 4926TIP3    H214712   5.752   4.983   1.219
 4927TIP3   OH214713   4.258   6.403   1.161
 4927TIP3    H114714   4.171   6.368   1.143
 4927TIP3    H214715   4.252   6.496   1.139
 4928TIP3   OH214716   4.681   4.976   1.135
 4928TIP3    H114717   4.729   4.915   1.079
 4928TIP3    H214718   4.748   5.026   1.180
 4929TIP3   OH214719   5.165   5.170   1.221
 4929TIP3    H114720   5.224   5.117   1.273
 4929TIP3    H214721   5.181   5.260   1.249
 4930TIP3   OH214722   5.047   6.607   0.721
 4930TIP3    H114723   5.142   6.615   0.727
 4930TIP3    H214724   5.034   6.534   0.660
 4931TIP3   OH214725   5.772   6.711   0.787
 4931TIP3    H114726   5.839   6.670   0.732
 4931TIP3    H214727   5.774   6.804   0.761
 4932TIP3   OH214728   4.974   5.222   2.590
 4932TIP3    H114729   4.938   5.156   2.650
 4932TIP3    H214730   5.067   5.229   2.614
 4933TIP3   OH214731   5.223   5.225   2.710
 4933TIP3    H114732   5.303   5.205   2.662
 4933TIP3    H214733   5.218   5.157   2.777
 4934TIP3   OH214734   4.363   6.383   0.898
 4934TIP3    H114735   4.336   6.392   0.989
 4934TIP3    H214736   4.407   6.298   0.894
 4935TIP3   OH214737   6.048   5.308   2.500
 4935TIP3    H114738   6.064   5.281   2.591
 4935TIP3    H214739   6.135   5.304   2.459
 4936TIP3   OH214740   5.964   6.842   2.016
 4936TIP3    H114741   5.890   6.811   1.963
 4936TIP3    H214742   5.952   6.936   2.022
 4937TIP3   OH214743   7.175   6.213   1.221
 4937TIP3    H114744   7.247   6.246   1.274
 4937TIP3    H214745   7.182   6.118   1.227
 4938TIP3   OH214746   6.524   6.070   1.554
 4938TIP3    H114747   6.558   6.016   1.626
 4938TIP3    H214748   6.601   6.105   1.511
 4939TIP3   OH214749   6.472   6.478   1.363
 4939TIP3    H114750   6.482   6.388   1.332
 4939TIP3    H214751   6.560   6.503   1.393
 4940TIP3   OH214752   6.168   5.744   1.082
 4940TIP3    H114753   6.209   5.812   1.027
 4940TIP3    H214754   6.104   5.792   1.135
 4941TIP3   OH214755   6.276   6.006   1.258
 4941TIP3    H114756   6.331   5.930   1.276
 4941TIP3    H214757   6.325   6.056   1.192
 4942TIP3   OH214758   7.171   6.453   1.088
 4942TIP3    H114759   7.138   6.368   1.118
 4942TIP3    H214760   7.113   6.517   1.130
 4943TIP3   OH214761   8.079   5.789   1.227
 4943TIP3    H114762   8.158   5.833   1.259
 4943TIP3    H214763   8.041   5.849   1.164
 4944TIP3   OH214764   7.512   5.870   1.291
 4944TIP3    H114765   7.599   5.847   1.323
 4944TIP3    H214766   7.501   5.819   1.211
 4945TIP3   OH214767   6.818   5.548   1.281
 4945TIP3    H114768   6.849   5.606   1.212
 4945TIP3    H214769   6.765   5.482   1.237
 4946TIP3   OH214770   7.499   5.766   0.799
 4946TIP3    H114771   7.584   5.727   0.818
 4946TIP3    H214772   7.490   5.760   0.704
 4947TIP3   OH214773   6.417   5.782   1.316
 4947TIP3    H114774   6.507   5.775   1.347
 4947TIP3    H214775   6.408   5.713   1.251
 4948TIP3   OH214776   6.796   5.959   1.211
 4948TIP3    H114777   6.880   5.980   1.169
 4948TIP3    H214778   6.744   5.917   1.142
 4949TIP3   OH214779   6.783   5.592   1.639
 4949TIP3    H114780   6.734   5.636   1.569
 4949TIP3    H214781   6.730   5.605   1.717
 4950TIP3   OH214782   6.884   6.371   1.584
 4950TIP3    H114783   6.794   6.340   1.577
 4950TIP3    H214784   6.897   6.424   1.505
 4951TIP3   OH214785   7.743   5.839   1.059
 4951TIP3    H114786   7.739   5.762   1.003
 4951TIP3    H214787   7.832   5.871   1.050
 4952TIP3   OH214788   6.660   5.714   1.423
 4952TIP3    H114789   6.715   5.790   1.441
 4952TIP3    H214790   6.715   5.656   1.370
 4953TIP3   OH214791   6.150   6.225   0.808
 4953TIP3    H114792   6.115   6.282   0.740
 4953TIP3    H214793   6.170   6.285   0.880
 4954TIP3   OH214794   7.951   5.660   1.445
 4954TIP3    H114795   7.871   5.708   1.425
 4954TIP3    H214796   8.010   5.679   1.372
 4955TIP3   OH214797   7.145   5.326   1.414
 4955TIP3    H114798   7.140   5.252   1.353
 4955TIP3    H214799   7.055   5.337   1.445
 4956TIP3   OH214800   7.999   6.287   1.163
 4956TIP3    H114801   7.931   6.332   1.113
 4956TIP3    H214802   8.081   6.307   1.117
 4957TIP3   OH214803   7.622   6.190   1.587
 4957TIP3    H114804   7.645   6.261   1.648
 4957TIP3    H214805   7.527   6.191   1.585
 4958TIP3   OH214806   6.680   6.173   1.017
 4958TIP3    H114807   6.621   6.130   0.957
 4958TIP3    H214808   6.743   6.106   1.043
 4959TIP3   OH214809   6.706   6.483   1.178
 4959TIP3    H114810   6.694   6.578   1.174
 4959TIP3    H214811   6.778   6.470   1.239
 4960TIP3   OH214812   6.750   6.137   1.403
 4960TIP3    H114813   6.756   6.066   1.339
 4960TIP3    H214814   6.811   6.203   1.371
 4961TIP3   OH214815   7.379   6.808   1.164
 4961TIP3    H114816   7.353   6.860   1.240
 4961TIP3    H214817   7.415   6.727   1.201
 4962TIP3   OH214818   6.899   6.657   1.678
 4962TIP3    H114819   6.830   6.708   1.722
 4962TIP3    H214820   6.860   6.571   1.665
 4963TIP3   OH214821   6.686   6.232   1.783
 4963TIP3    H114822   6.694   6.321   1.816
 4963TIP3    H214823   6.592   6.214   1.784
 4964TIP3   OH214824   6.527   6.075   0.816
 4964TIP3    H114825   6.482   6.115   0.741
 4964TIP3    H214826   6.528   5.981   0.796
 4965TIP3   OH214827   6.313   6.387   1.691
 4965TIP3    H114828   6.272   6.350   1.613
 4965TIP3    H214829   6.360   6.314   1.731
 4966TIP3   OH214830   6.205   6.534   1.396
 4966TIP3    H114831   6.296   6.507   1.390
 4966TIP3    H214832   6.209   6.629   1.406
 4967TIP3   OH214833   7.115   6.797   1.581
 4967TIP3    H114834   7.119   6.886   1.615
 4967TIP3    H214835   7.038   6.759   1.623
 4968TIP3   OH214836   6.310   6.839   0.885
 4968TIP3    H114837   6.405   6.848   0.875
 4968TIP3    H214838   6.294   6.861   0.977
 4969TIP3   OH214839   7.932   6.178   1.675
 4969TIP3    H114840   7.851   6.185   1.623
 4969TIP3    H214841   7.954   6.085   1.673
 4970TIP3   OH214842   6.885   5.368   1.503
 4970TIP3    H114843   6.805   5.343   1.457
 4970TIP3    H214844   6.864   5.453   1.542
 4971TIP3   OH214845   7.443   5.501   1.700
 4971TIP3    H114846   7.514   5.473   1.758
 4971TIP3    H214847   7.363   5.479   1.748
 4972TIP3   OH214848   7.680   5.920   1.609
 4972TIP3    H114849   7.634   5.897   1.690
 4972TIP3    H214850   7.658   6.012   1.594
 4973TIP3   OH214851   6.831   5.905   1.532
 4973TIP3    H114852   6.779   5.907   1.613
 4973TIP3    H214853   6.821   5.993   1.495
 4974TIP3   OH214854   6.741   5.904   0.947
 4974TIP3    H114855   6.703   5.826   0.987
 4974TIP3    H214856   6.769   5.876   0.860
 4975TIP3   OH214857   7.389   6.142   1.841
 4975TIP3    H114858   7.359   6.072   1.898
 4975TIP3    H214859   7.483   6.149   1.859
 4976TIP3   OH214860   7.286   5.910   0.906
 4976TIP3    H114861   7.265   6.000   0.882
 4976TIP3    H214862   7.358   5.886   0.848
 4977TIP3   OH214863   6.658   5.916   1.743
 4977TIP3    H114864   6.674   5.979   1.814
 4977TIP3    H214865   6.643   5.833   1.788
 4978TIP3   OH214866   6.244   5.458   1.327
 4978TIP3    H114867   6.297   5.482   1.404
 4978TIP3    H214868   6.293   5.493   1.253
 4979TIP3   OH214869   6.215   5.471   0.755
 4979TIP3    H114870   6.253   5.554   0.726
 4979TIP3    H214871   6.197   5.484   0.848
 4980TIP3   OH214872   7.348   6.199   1.538
 4980TIP3    H114873   7.375   6.172   1.450
 4980TIP3    H214874   7.329   6.118   1.584
 4981TIP3   OH214875   7.073   5.477   1.175
 4981TIP3    H114876   7.000   5.483   1.237
 4981TIP3    H214877   7.138   5.538   1.210
 4982TIP3   OH214878   6.383   5.579   1.127
 4982TIP3    H114879   6.304   5.626   1.099
 4982TIP3    H214880   6.397   5.514   1.059
 4983TIP3   OH214881   6.760   5.715   0.731
 4983TIP3    H114882   6.855   5.712   0.736
 4983TIP3    H214883   6.740   5.716   0.637
 4984TIP3   OH214884   7.551   5.559   1.344
 4984TIP3    H114885   7.517   5.618   1.411
 4984TIP3    H214886   7.476   5.505   1.318
 4985TIP3   OH214887   6.694   6.481   1.896
 4985TIP3    H114888   6.758   6.504   1.964
 4985TIP3    H214889   6.658   6.565   1.868
 4986TIP3   OH214890   7.189   5.949   1.243
 4986TIP3    H114891   7.260   5.888   1.226
 4986TIP3    H214892   7.146   5.916   1.321
 4987TIP3   OH214893   6.670   5.418   1.095
 4987TIP3    H114894   6.619   5.341   1.120
 4987TIP3    H214895   6.710   5.393   1.011
 4988TIP3   OH214896   7.096   5.849   1.479
 4988TIP3    H114897   7.006   5.879   1.493
 4988TIP3    H214898   7.148   5.907   1.534
 4989TIP3   OH214899   7.770   6.426   1.104
 4989TIP3    H114900   7.724   6.509   1.111
 4989TIP3    H214901   7.733   6.372   1.173
 4990TIP3   OH214902   7.280   6.566   1.617
 4990TIP3    H114903   7.310   6.543   1.705
 4990TIP3    H214904   7.236   6.650   1.627
 4991TIP3   OH214905   6.523   6.227   1.279
 4991TIP3    H114906   6.525   6.191   1.190
 4991TIP3    H214907   6.603   6.194   1.320
 4992TIP3   OH214908   6.418   6.174   1.838
 4992TIP3    H114909   6.445   6.169   1.930
 4992TIP3    H214910   6.347   6.110   1.831
 4993TIP3   OH214911   7.145   6.288   1.851
 4993TIP3    H114912   7.077   6.226   1.824
 4993TIP3    H214913   7.227   6.248   1.822
 4994TIP3   OH214914   7.429   6.815   1.491
 4994TIP3    H114915   7.354   6.862   1.454
 4994TIP3    H214916   7.447   6.861   1.574
 4995TIP3   OH214917   7.429   6.365   1.129
 4995TIP3    H114918   7.341   6.399   1.111
 4995TIP3    H214919   7.448   6.309   1.054
 4996TIP3   OH214920   6.558   6.618   0.889
 4996TIP3    H114921   6.644   6.592   0.856
 4996TIP3    H214922   6.532   6.547   0.948
 4997TIP3   OH214923   6.225   5.889   0.362
 4997TIP3    H114924   6.215   5.981   0.389
 4997TIP3    H214925   6.173   5.840   0.427
 4998TIP3   OH214926   6.737   6.311   0.777
 4998TIP3    H114927   6.777   6.386   0.822
 4998TIP3    H214928   6.707   6.254   0.848
 4999TIP3   OH214929   6.973   6.890   1.360
 4999TIP3    H114930   7.029   6.899   1.282
 4999TIP3    H214931   7.029   6.850   1.426
 5000TIP3   OH214932   7.358   6.551   1.353
 5000TIP3    H114933   7.348   6.562   1.448
 5000TIP3    H214934   7.448   6.519   1.342
 5001TIP3   OH214935   6.617   5.659   1.850
 5001TIP3    H114936   6.521   5.666   1.857
 5001TIP3    H214937   6.642   5.607   1.927
 5002TIP3   OH214938   6.416   6.716   1.570
 5002TIP3    H114939   6.389   6.634   1.611
 5002TIP3    H214940   6.471   6.759   1.636
 5003TIP3   OH214941   6.362   6.169   0.617
 5003TIP3    H114942   6.344   6.236   0.684
 5003TIP3    H214943   6.303   6.191   0.545
 5004TIP3   OH214944   7.455   5.724   1.547
 5004TIP3    H114945   7.536   5.770   1.570
 5004TIP3    H214946   7.451   5.651   1.609
 5005TIP3   OH214947   7.039   5.633   0.781
 5005TIP3    H114948   7.103   5.683   0.729
 5005TIP3    H214949   7.070   5.643   0.871
 5006TIP3   OH214950   7.307   5.946   1.631
 5006TIP3    H114951   7.340   5.960   1.720
 5006TIP3    H214952   7.352   5.867   1.601
 5007TIP3   OH214953   7.135   5.371   0.924
 5007TIP3    H114954   7.134   5.384   1.019
 5007TIP3    H214955   7.205   5.430   0.893
 5008TIP3   OH214956   6.741   5.405   0.655
 5008TIP3    H114957   6.670   5.468   0.665
 5008TIP3    H214958   6.724   5.340   0.723
 5009TIP3   OH214959   7.958   5.913   1.604
 5009TIP3    H114960   7.864   5.898   1.614
 5009TIP3    H214961   7.992   5.831   1.570
 5010TIP3   OH214962   7.673   5.981   0.833
 5010TIP3    H114963   7.593   5.931   0.817
 5010TIP3    H214964   7.700   5.956   0.921
 5011TIP3   OH214965   6.294   5.690   0.617
 5011TIP3    H114966   6.303   5.784   0.632
 5011TIP3    H214967   6.218   5.682   0.559
 5012TIP3   OH214968   6.618   5.302   1.438
 5012TIP3    H114969   6.591   5.269   1.353
 5012TIP3    H214970   6.616   5.225   1.495
 5013TIP3   OH214971   6.158   6.515   0.750
 5013TIP3    H114972   6.105   6.525   0.830
 5013TIP3    H214973   6.148   6.598   0.704
 5014TIP3   OH214974   6.343   7.072   1.867
 5014TIP3    H114975   6.427   7.074   1.914
 5014TIP3    H214976   6.309   6.984   1.882
 5015TIP3   OH214977   6.796   6.988   1.933
 5015TIP3    H114978   6.886   6.957   1.925
 5015TIP3    H214979   6.744   6.925   1.884
 5016TIP3   OH214980   7.468   6.928   1.737
 5016TIP3    H114981   7.438   6.852   1.788
 5016TIP3    H214982   7.556   6.946   1.772
 5017TIP3   OH214983   6.445   6.483   2.120
 5017TIP3    H114984   6.499   6.414   2.082
 5017TIP3    H214985   6.367   6.485   2.065
 5018TIP3   OH214986   7.077   6.561   1.866
 5018TIP3    H114987   7.023   6.582   1.789
 5018TIP3    H214988   7.104   6.471   1.852
 5019TIP3   OH214989   7.578   6.578   1.532
 5019TIP3    H114990   7.637   6.633   1.480
 5019TIP3    H214991   7.504   6.636   1.552
 5020TIP3   OH214992   6.584   6.211   2.080
 5020TIP3    H114993   6.665   6.228   2.031
 5020TIP3    H214994   6.602   6.242   2.168
 5021TIP3   OH214995   6.932   6.101   1.769
 5021TIP3    H114996   6.851   6.152   1.771
 5021TIP3    H214997   6.968   6.117   1.682
 5022TIP3   OH214998   7.433   6.478   1.848
 5022TIP3    H114999   7.515   6.452   1.806
 5022TIP3    H215000   7.426   6.421   1.925
 5023TIP3   OH215001   7.041   5.872   1.871
 5023TIP3    H115002   7.040   5.799   1.809
 5023TIP3    H215003   7.004   5.945   1.822
 5024TIP3   OH215004   7.044   5.665   1.679
 5024TIP3    H115005   7.069   5.713   1.600
 5024TIP3    H215006   6.953   5.640   1.664
 5025TIP3   OH215007   7.064   6.156   1.539
 5025TIP3    H115008   7.154   6.183   1.527
 5025TIP3    H215009   7.013   6.236   1.531
 5026TIP3   OH215010   7.660   6.161   1.926
 5026TIP3    H115011   7.704   6.077   1.937
 5026TIP3    H215012   7.731   6.222   1.906
 5027TIP3   OH215013   7.689   6.421   1.712
 5027TIP3    H115014   7.642   6.479   1.652
 5027TIP3    H215015   7.782   6.436   1.692
 5028TIP3   OH215016   6.926   5.971   2.108
 5028TIP3    H115017   6.855   5.910   2.127
 5028TIP3    H215018   6.954   5.947   2.019
 5029TIP3   OH215019   7.176   5.437   1.763
 5029TIP3    H115020   7.134   5.517   1.732
 5029TIP3    H215021   7.110   5.369   1.751
 5030TIP3   OH215022   7.297   5.915   1.964
 5030TIP3    H115023   7.289   5.905   2.059
 5030TIP3    H215024   7.210   5.895   1.930
 5031TIP3   OH215025   7.534   5.861   1.829
 5031TIP3    H115026   7.457   5.864   1.886
 5031TIP3    H215027   7.607   5.850   1.889
 5032TIP3   OH215028   7.765   5.852   1.978
 5032TIP3    H115029   7.782   5.758   1.981
 5032TIP3    H215030   7.764   5.879   2.070
 5033TIP3   OH215031   6.757   5.752   2.168
 5033TIP3    H115032   6.764   5.664   2.131
 5033TIP3    H215033   6.796   5.745   2.255
 5034TIP3   OH215034   7.241   5.427   2.027
 5034TIP3    H115035   7.310   5.361   2.022
 5034TIP3    H215036   7.209   5.435   1.938
 5035TIP3   OH215037   7.333   5.646   2.167
 5035TIP3    H115038   7.303   5.573   2.113
 5035TIP3    H215039   7.259   5.707   2.168
 5036TIP3   OH215040   6.044   6.760   0.786
 5036TIP3    H115041   5.991   6.704   0.843
 5036TIP3    H215042   6.042   6.846   0.829
 5037TIP3   OH215043   5.981   6.753   1.115
 5037TIP3    H115044   6.018   6.684   1.060
 5037TIP3    H215045   5.989   6.833   1.063
 5038TIP3   OH215046   6.279   6.158   1.482
 5038TIP3    H115047   6.270   6.113   1.398
 5038TIP3    H215048   6.370   6.144   1.507
 5039TIP3   OH215049   7.945   6.469   1.641
 5039TIP3    H115050   7.990   6.386   1.654
 5039TIP3    H215051   7.939   6.480   1.546
 5040TIP3   OH215052   7.976   5.980   1.057
 5040TIP3    H115053   8.046   6.013   1.001
 5040TIP3    H215054   7.922   6.057   1.076
 5041TIP3   OH215055   7.823   6.128   1.372
 5041TIP3    H115056   7.746   6.167   1.413
 5041TIP3    H215057   7.808   6.139   1.278
 5042TIP3   OH215058   6.494   5.806   2.102
 5042TIP3    H115059   6.588   5.805   2.121
 5042TIP3    H215060   6.460   5.727   2.144
 5043TIP3   OH215061   6.455   5.520   1.497
 5043TIP3    H115062   6.513   5.445   1.485
 5043TIP3    H215063   6.511   5.596   1.479
 5044TIP3   OH215064   6.242   5.794   1.529
 5044TIP3    H115065   6.301   5.786   1.454
 5044TIP3    H215066   6.273   5.871   1.576
 5045TIP3   OH215067   6.225   5.215   1.084
 5045TIP3    H115068   6.149   5.177   1.129
 5045TIP3    H215069   6.194   5.301   1.054
 5046TIP3   OH215070   6.459   5.346   1.842
 5046TIP3    H115071   6.413   5.346   1.926
 5046TIP3    H215072   6.403   5.397   1.784
 5047TIP3   OH215073   6.674   6.680   1.471
 5047TIP3    H115074   6.580   6.693   1.478
 5047TIP3    H215075   6.710   6.719   1.551
 5048TIP3   OH215076   7.183   7.090   1.601
 5048TIP3    H115077   7.189   7.078   1.696
 5048TIP3    H215078   7.262   7.140   1.579
 5049TIP3   OH215079   8.146   5.567   1.611
 5049TIP3    H115080   8.077   5.595   1.551
 5049TIP3    H215081   8.181   5.488   1.570
 5050TIP3   OH215082   6.297   7.018   1.595
 5050TIP3    H115083   6.230   7.083   1.576
 5050TIP3    H215084   6.315   7.028   1.689
 5051TIP3   OH215085   6.528   7.052   1.463
 5051TIP3    H115086   6.450   7.023   1.511
 5051TIP3    H215087   6.507   7.141   1.435
 5052TIP3   OH215088   7.127   7.025   1.127
 5052TIP3    H115089   7.053   7.001   1.071
 5052TIP3    H215090   7.158   7.108   1.090
 5053TIP3   OH215091   6.263   6.809   1.361
 5053TIP3    H115092   6.313   6.811   1.443
 5053TIP3    H215093   6.323   6.768   1.298
 5054TIP3   OH215094   6.425   6.680   1.186
 5054TIP3    H115095   6.448   6.603   1.238
 5054TIP3    H215096   6.509   6.714   1.155
 5055TIP3   OH215097   6.689   6.745   1.132
 5055TIP3    H115098   6.777   6.742   1.095
 5055TIP3    H215099   6.692   6.818   1.194
 5056TIP3   OH215100   7.358   5.405   1.231
 5056TIP3    H115101   7.271   5.399   1.271
 5056TIP3    H215102   7.389   5.315   1.226
 5057TIP3   OH215103   7.855   5.423   0.990
 5057TIP3    H115104   7.941   5.465   0.982
 5057TIP3    H215105   7.812   5.470   1.061
 5058TIP3   OH215106   0.594   7.902   2.047
 5058TIP3    H115107   0.562   7.812   2.054
 5058TIP3    H215108   0.636   7.905   1.961
 5059TIP3   OH215109   6.523   5.201   1.190
 5059TIP3    H115110   6.440   5.169   1.226
 5059TIP3    H215111   6.582   5.125   1.194
 5060TIP3   OH215112   6.415   5.066   0.943
 5060TIP3    H115113   6.356   5.104   0.878
 5060TIP3    H215114   6.390   5.107   1.025
 5061TIP3   OH215115   6.912   5.240   1.136
 5061TIP3    H115116   6.898   5.300   1.063
 5061TIP3    H215117   6.995   5.267   1.174
 5062TIP3   OH215118   7.565   5.468   1.044
 5062TIP3    H115119   7.619   5.395   1.013
 5062TIP3    H215120   7.530   5.438   1.128
 5063TIP3   OH215121   6.477   5.271   0.643
 5063TIP3    H115122   6.483   5.267   0.548
 5063TIP3    H215123   6.482   5.364   0.664
 5064TIP3   OH215124   6.878   5.430   0.901
 5064TIP3    H115125   6.972   5.414   0.900
 5064TIP3    H215126   6.862   5.491   0.829
 5065TIP3   OH215127   6.766   5.480   2.077
 5065TIP3    H115128   6.733   5.413   2.137
 5065TIP3    H215129   6.859   5.488   2.099
 5066TIP3   OH215130   7.017   5.483   2.198
 5066TIP3    H115131   7.096   5.461   2.148
 5066TIP3    H215132   7.010   5.414   2.264
 5067TIP3   OH215133   7.831   5.585   1.986
 5067TIP3    H115134   7.844   5.557   2.077
 5067TIP3    H215135   7.919   5.580   1.947
 5068TIP3   OH215136   0.542   6.558   2.875
 5068TIP3    H115137   0.561   6.641   2.919
 5068TIP3    H215138   0.572   6.570   2.785
 5069TIP3   OH215139   8.444   6.406   2.532
 5069TIP3    H115140   8.504   6.455   2.588
 5069TIP3    H215141   8.436   6.459   2.453
 5070TIP3   OH215142   0.598   6.770   3.050
 5070TIP3    H115143   0.507   6.799   3.047
 5070TIP3    H215144   0.633   6.807   3.130
 5071TIP3   OH215145   0.123   6.523   2.703
 5071TIP3    H115146   0.174   6.442   2.711
 5071TIP3    H215147   0.184   6.592   2.728
 5072TIP3   OH215148   0.322   6.484   3.034
 5072TIP3    H115149   0.249   6.528   2.990
 5072TIP3    H215150   0.397   6.499   2.977
 5073TIP3   OH215151   0.221   7.485   2.979
 5073TIP3    H115152   0.197   7.403   2.938
 5073TIP3    H215153   0.177   7.552   2.927
 5074TIP3   OH215154   0.413   7.098   2.907
 5074TIP3    H115155   0.334   7.151   2.905
 5074TIP3    H215156   0.444   7.097   2.817
 5075TIP3   OH215157   0.274   6.043   2.181
 5075TIP3    H115158   0.187   6.063   2.214
 5075TIP3    H215159   0.293   6.113   2.118
 5076TIP3   OH215160   0.365   6.916   3.336
 5076TIP3    H115161   0.287   6.939   3.386
 5076TIP3    H215162   0.363   6.821   3.330
 5077TIP3   OH215163   0.193   7.249   2.830
 5077TIP3    H115164   0.237   7.291   2.756
 5077TIP3    H215165   0.119   7.202   2.791
 5078TIP3   OH215166   0.458   7.447   3.106
 5078TIP3    H115167   0.368   7.475   3.086
 5078TIP3    H215168   0.496   7.427   3.020
 5079TIP3   OH215169   0.337   6.647   3.276
 5079TIP3    H115170   0.285   6.594   3.337
 5079TIP3    H215171   0.338   6.596   3.195
 5080TIP3   OH215172   0.050   6.825   2.656
 5080TIP3    H115173  -0.003   6.746   2.650
 5080TIP3    H215174   0.130   6.797   2.700
 5081TIP3   OH215175   0.270   6.629   3.674
 5081TIP3    H115176   0.268   6.534   3.678
 5081TIP3    H215177   0.178   6.656   3.680
 5082TIP3   OH215178   0.326   6.985   2.224
 5082TIP3    H115179   0.258   6.951   2.282
 5082TIP3    H215180   0.387   7.030   2.282
 5083TIP3   OH215181   0.345   7.382   2.641
 5083TIP3    H115182   0.429   7.353   2.606
 5083TIP3    H215183   0.306   7.434   2.571
 5084TIP3   OH215184   0.161   6.848   2.397
 5084TIP3    H115185   0.142   6.757   2.372
 5084TIP3    H215186   0.116   6.860   2.480
 5085TIP3   OH215187   0.376   7.238   3.270
 5085TIP3    H115188   0.442   7.174   3.246
 5085TIP3    H215189   0.384   7.307   3.204
 5086TIP3   OH215190   0.581   7.056   3.250
 5086TIP3    H115191   0.506   7.006   3.284
 5086TIP3    H215192   0.656   7.000   3.267
 5087TIP3   OH215193   0.120   6.585   2.312
 5087TIP3    H115194   0.158   6.498   2.324
 5087TIP3    H215195   0.097   6.589   2.219
 5088TIP3   OH215196   0.275   6.732   2.792
 5088TIP3    H115197   0.355   6.752   2.744
 5088TIP3    H215198   0.288   6.773   2.878
 5089TIP3   OH215199   0.336   6.866   3.025
 5089TIP3    H115200   0.299   6.890   3.110
 5089TIP3    H215201   0.363   6.950   2.987
 5090TIP3   OH215202   0.796   6.493   3.548
 5090TIP3    H115203   0.854   6.428   3.508
 5090TIP3    H215204   0.757   6.539   3.474
 5091TIP3   OH215205   0.210   6.325   2.321
 5091TIP3    H115206   0.261   6.305   2.400
 5091TIP3    H215207   0.143   6.256   2.318
 5092TIP3   OH215208   0.638   6.615   3.360
 5092TIP3    H115209   0.576   6.653   3.423
 5092TIP3    H215210   0.586   6.551   3.311
 5093TIP3   OH215211   0.314   6.220   1.975
 5093TIP3    H115212   0.346   6.160   1.908
 5093TIP3    H215213   0.309   6.305   1.932
 5094TIP3   OH215214   0.552   6.346   3.262
 5094TIP3    H115215   0.465   6.321   3.233
 5094TIP3    H215216   0.604   6.266   3.256
 5095TIP3   OH215217   0.288   6.170   2.770
 5095TIP3    H115218   0.323   6.217   2.694
 5095TIP3    H215219   0.195   6.194   2.772
 5096TIP3   OH215220   0.379   6.271   2.534
 5096TIP3    H115221   0.449   6.213   2.504
 5096TIP3    H215222   0.413   6.359   2.521
 5097TIP3   OH215223   8.520   6.231   2.754
 5097TIP3    H115224   8.467   6.250   2.677
 5097TIP3    H215225   8.493   6.143   2.780
 5098TIP3   OH215226   0.036   6.102   2.310
 5098TIP3    H115227  -0.045   6.117   2.261
 5098TIP3    H215228   0.027   6.012   2.344
 5099TIP3   OH215229   0.295   6.353   3.668
 5099TIP3    H115230   0.305   6.326   3.759
 5099TIP3    H215231   0.383   6.349   3.631
 5100TIP3   OH215232   1.511   7.241   1.962
 5100TIP3    H115233   1.453   7.315   1.979
 5100TIP3    H215234   1.457   7.179   1.912
 5101TIP3   OH215235   1.488   7.263   2.340
 5101TIP3    H115236   1.534   7.246   2.422
 5101TIP3    H215237   1.444   7.181   2.319
 5102TIP3   OH215238   0.780   7.159   2.710
 5102TIP3    H115239   0.815   7.085   2.759
 5102TIP3    H215240   0.840   7.232   2.728
 5103TIP3   OH215241   1.757   7.544   2.024
 5103TIP3    H115242   1.734   7.483   2.094
 5103TIP3    H215243   1.790   7.622   2.069
 5104TIP3   OH215244   0.873   7.484   2.436
 5104TIP3    H115245   0.831   7.399   2.419
 5104TIP3    H215246   0.901   7.514   2.350
 5105TIP3   OH215247   0.449   6.740   2.189
 5105TIP3    H115248   0.412   6.828   2.180
 5105TIP3    H215249   0.403   6.701   2.263
 5106TIP3   OH215250   0.538   7.069   2.389
 5106TIP3    H115251   0.582   6.986   2.409
 5106TIP3    H215252   0.609   7.128   2.364
 5107TIP3   OH215253   1.324   7.479   2.436
 5107TIP3    H115254   1.348   7.414   2.370
 5107TIP3    H215255   1.408   7.512   2.468
 5108TIP3   OH215256   2.323   6.809   2.371
 5108TIP3    H115257   2.344   6.892   2.415
 5108TIP3    H215258   2.344   6.825   2.279
 5109TIP3   OH215259   1.708   6.973   2.397
 5109TIP3    H115260   1.743   6.887   2.422
 5109TIP3    H215261   1.674   6.959   2.308
 5110TIP3   OH215262   1.061   6.634   2.348
 5110TIP3    H115263   1.038   6.711   2.296
 5110TIP3    H215264   1.007   6.564   2.312
 5111TIP3   OH215265   1.758   6.739   1.984
 5111TIP3    H115266   1.822   6.731   2.054
 5111TIP3    H215267   1.808   6.773   1.909
 5112TIP3   OH215268   0.682   6.845   2.468
 5112TIP3    H115269   0.765   6.828   2.512
 5112TIP3    H215270   0.687   6.795   2.386
 5113TIP3   OH215271   1.123   7.054   2.259
 5113TIP3    H115272   1.214   7.032   2.274
 5113TIP3    H215273   1.081   6.970   2.238
 5114TIP3   OH215274   2.388   7.023   2.539
 5114TIP3    H115275   2.301   7.064   2.533
 5114TIP3    H215276   2.427   7.062   2.617
 5115TIP3   OH215277   1.046   6.640   2.800
 5115TIP3    H115278   0.995   6.673   2.727
 5115TIP3    H215279   0.992   6.655   2.877
 5116TIP3   OH215280   1.493   7.491   1.669
 5116TIP3    H115281   1.408   7.478   1.626
 5116TIP3    H215282   1.475   7.548   1.743
 5117TIP3   OH215283   1.147   7.354   2.590
 5117TIP3    H115284   1.090   7.423   2.624
 5117TIP3    H215285   1.207   7.399   2.531
 5118TIP3   OH215286   1.918   6.759   2.204
 5118TIP3    H115287   1.879   6.736   2.289
 5118TIP3    H215288   1.976   6.833   2.223
 5119TIP3   OH215289   0.928   6.743   2.569
 5119TIP3    H115290   0.983   6.817   2.593
 5119TIP3    H215291   0.975   6.700   2.498
 5120TIP3   OH215292   1.007   7.578   2.650
 5120TIP3    H115293   0.940   7.549   2.587
 5120TIP3    H215294   0.957   7.607   2.726
 5121TIP3   OH215295   2.131   6.684   2.539
 5121TIP3    H115296   2.044   6.709   2.507
 5121TIP3    H215297   2.191   6.716   2.472
 5122TIP3   OH215298   1.404   6.358   2.558
 5122TIP3    H115299   1.403   6.264   2.576
 5122TIP3    H215300   1.318   6.388   2.587
 5123TIP3   OH215301   1.755   7.555   1.736
 5123TIP3    H115302   1.690   7.504   1.689
 5123TIP3    H215303   1.740   7.534   1.829
 5124TIP3   OH215304   2.120   7.690   2.434
 5124TIP3    H115305   2.058   7.622   2.407
 5124TIP3    H215306   2.091   7.769   2.388
 5125TIP3   OH215307   1.351   7.109   1.781
 5125TIP3    H115308   1.269   7.158   1.773
 5125TIP3    H215309   1.388   7.109   1.693
 5126TIP3   OH215310   1.316   6.915   1.521
 5126TIP3    H115311   1.395   6.963   1.546
 5126TIP3    H215312   1.347   6.850   1.457
 5127TIP3   OH215313   2.219   7.363   2.384
 5127TIP3    H115314   2.133   7.403   2.380
 5127TIP3    H215315   2.255   7.372   2.296
 5128TIP3   OH215316   1.693   7.208   1.758
 5128TIP3    H115317   1.636   7.228   1.833
 5128TIP3    H215318   1.774   7.176   1.798
 5129TIP3   OH215319   1.901   7.208   2.650
 5129TIP3    H115320   1.907   7.283   2.709
 5129TIP3    H215321   1.814   7.215   2.610
 5130TIP3   OH215322   0.901   7.177   2.138
 5130TIP3    H115323   0.861   7.113   2.079
 5130TIP3    H215324   0.982   7.135   2.168
 5131TIP3   OH215325   0.983   7.531   2.195
 5131TIP3    H115326   1.001   7.617   2.157
 5131TIP3    H215327   1.070   7.495   2.215
 5132TIP3   OH215328   1.007   7.146   2.488
 5132TIP3    H115329   1.051   7.121   2.407
 5132TIP3    H215330   1.056   7.221   2.520
 5133TIP3   OH215331   1.190   7.633   2.856
 5133TIP3    H115332   1.256   7.699   2.835
 5133TIP3    H215333   1.154   7.607   2.772
 5134TIP3   OH215334   1.545   7.061   1.572
 5134TIP3    H115335   1.598   7.124   1.620
 5134TIP3    H215336   1.568   7.074   1.480
 5135TIP3   OH215337   0.932   7.270   2.953
 5135TIP3    H115338   0.941   7.347   3.008
 5135TIP3    H215339   0.843   7.238   2.970
 5136TIP3   OH215340   2.019   6.296   1.623
 5136TIP3    H115341   1.941   6.314   1.676
 5136TIP3    H215342   2.029   6.373   1.567
 5137TIP3   OH215343   0.783   7.005   1.958
 5137TIP3    H115344   0.740   7.037   1.879
 5137TIP3    H215345   0.742   6.920   1.975
 5138TIP3   OH215346   0.550   7.358   2.867
 5138TIP3    H115347   0.489   7.320   2.804
 5138TIP3    H215348   0.597   7.283   2.903
 5139TIP3   OH215349   2.157   7.187   2.858
 5139TIP3    H115350   2.066   7.203   2.834
 5139TIP3    H215351   2.169   7.093   2.845
 5140TIP3   OH215352   0.743   7.505   2.754
 5140TIP3    H115353   0.792   7.551   2.823
 5140TIP3    H215354   0.669   7.465   2.799
 5141TIP3   OH215355   1.152   6.427   2.656
 5141TIP3    H115356   1.067   6.398   2.623
 5141TIP3    H215357   1.132   6.506   2.708
 5142TIP3   OH215358   1.899   6.951   2.747
 5142TIP3    H115359   1.855   6.954   2.832
 5142TIP3    H215360   1.890   7.040   2.713
 5143TIP3   OH215361   1.578   7.069   1.292
 5143TIP3    H115362   1.593   7.059   1.198
 5143TIP3    H215363   1.568   7.164   1.304
 5144TIP3   OH215364   1.299   6.459   1.630
 5144TIP3    H115365   1.261   6.476   1.716
 5144TIP3    H215366   1.273   6.370   1.609
 5145TIP3   OH215367   1.085   6.951   2.662
 5145TIP3    H115368   1.037   6.961   2.744
 5145TIP3    H215369   1.053   7.022   2.607
 5146TIP3   OH215370   0.962   6.839   2.198
 5146TIP3    H115371   0.871   6.817   2.217
 5146TIP3    H215372   0.978   6.803   2.110
 5147TIP3   OH215373   1.462   6.900   1.914
 5147TIP3    H115374   1.414   6.971   1.870
 5147TIP3    H215375   1.521   6.866   1.847
 5148TIP3   OH215376   1.647   7.168   2.983
 5148TIP3    H115377   1.620   7.104   3.049
 5148TIP3    H215378   1.734   7.196   3.010
 5149TIP3   OH215379   1.620   6.925   2.142
 5149TIP3    H115380   1.552   6.950   2.080
 5149TIP3    H215381   1.663   6.850   2.101
 5150TIP3   OH215382   0.910   6.968   2.875
 5150TIP3    H115383   0.920   7.030   2.947
 5150TIP3    H215384   0.894   6.884   2.917
 5151TIP3   OH215385   0.963   6.433   1.590
 5151TIP3    H115386   0.924   6.444   1.676
 5151TIP3    H215387   0.888   6.427   1.530
 5152TIP3   OH215388   0.498   6.505   2.464
 5152TIP3    H115389   0.577   6.531   2.510
 5152TIP3    H215390   0.530   6.468   2.381
 5153TIP3   OH215391   0.509   6.519   2.012
 5153TIP3    H115392   0.495   6.512   1.917
 5153TIP3    H215393   0.482   6.608   2.034
 5154TIP3   OH215394   1.640   7.179   2.558
 5154TIP3    H115395   1.668   7.108   2.500
 5154TIP3    H215396   1.598   7.134   2.631
 5155TIP3   OH215397   1.330   6.627   2.245
 5155TIP3    H115398   1.249   6.631   2.296
 5155TIP3    H215399   1.400   6.623   2.310
 5156TIP3   OH215400   0.722   6.707   2.234
 5156TIP3    H115401   0.632   6.705   2.202
 5156TIP3    H215402   0.756   6.620   2.217
 5157TIP3   OH215403   0.997   6.712   1.963
 5157TIP3    H115404   1.090   6.722   1.944
 5157TIP3    H215405   0.953   6.740   1.882
 5158TIP3   OH215406   1.783   6.709   2.448
 5158TIP3    H115407   1.774   6.706   2.543
 5158TIP3    H215408   1.712   6.654   2.416
 5159TIP3   OH215409   0.853   6.766   1.741
 5159TIP3    H115410   0.777   6.721   1.704
 5159TIP3    H215411   0.911   6.781   1.666
 5160TIP3   OH215412   0.925   7.495   3.130
 5160TIP3    H115413   0.996   7.497   3.194
 5160TIP3    H215414   0.845   7.490   3.183
 5161TIP3   OH215415   1.384   6.993   2.338
 5161TIP3    H115416   1.454   6.943   2.296
 5161TIP3    H215417   1.380   6.959   2.427
 5162TIP3   OH215418   0.875   6.465   2.221
 5162TIP3    H115419   0.846   6.389   2.271
 5162TIP3    H215420   0.890   6.431   2.132
 5163TIP3   OH215421   1.357   6.911   2.605
 5163TIP3    H115422   1.268   6.935   2.631
 5163TIP3    H215423   1.414   6.961   2.663
 5164TIP3   OH215424   1.125   7.269   1.761
 5164TIP3    H115425   1.074   7.191   1.740
 5164TIP3    H215426   1.076   7.311   1.832
 5165TIP3   OH215427   1.973   7.480   2.328
 5165TIP3    H115428   2.005   7.520   2.247
 5165TIP3    H215429   1.892   7.437   2.303
 5166TIP3   OH215430   1.551   6.569   1.621
 5166TIP3    H115431   1.458   6.547   1.621
 5166TIP3    H215432   1.553   6.663   1.634
 5167TIP3   OH215433   1.504   7.492   2.764
 5167TIP3    H115434   1.565   7.481   2.838
 5167TIP3    H215435   1.451   7.568   2.789
 5168TIP3   OH215436   1.623   6.828   1.698
 5168TIP3    H115437   1.718   6.830   1.708
 5168TIP3    H215438   1.602   6.907   1.647
 5169TIP3   OH215439   0.770   7.230   2.376
 5169TIP3    H115440   0.803   7.223   2.286
 5169TIP3    H215441   0.836   7.188   2.430
 5170TIP3   OH215442   1.231   7.448   1.578
 5170TIP3    H115443   1.155   7.501   1.555
 5170TIP3    H215444   1.194   7.373   1.625
 5171TIP3   OH215445   0.678   7.162   3.013
 5171TIP3    H115446   0.683   7.147   3.107
 5171TIP3    H215447   0.603   7.110   2.984
 5172TIP3   OH215448   1.401   7.288   3.040
 5172TIP3    H115449   1.336   7.231   2.998
 5172TIP3    H215450   1.485   7.260   3.002
 5173TIP3   OH215451   2.030   6.917   1.519
 5173TIP3    H115452   1.971   6.870   1.460
 5173TIP3    H215453   2.037   7.005   1.482
 5174TIP3   OH215454   2.329   7.708   2.596
 5174TIP3    H115455   2.244   7.722   2.556
 5174TIP3    H215456   2.388   7.691   2.522
 5175TIP3   OH215457   1.742   7.355   2.235
 5175TIP3    H115458   1.652   7.337   2.258
 5175TIP3    H215459   1.775   7.273   2.199
 5176TIP3   OH215460   0.984   7.382   1.967
 5176TIP3    H115461   0.978   7.449   2.035
 5176TIP3    H215462   0.945   7.304   2.007
 5177TIP3   OH215463   1.587   7.529   2.498
 5177TIP3    H115464   1.563   7.525   2.591
 5177TIP3    H215465   1.671   7.482   2.493
 5178TIP3   OH215466   1.519   7.342   1.363
 5178TIP3    H115467   1.596   7.338   1.420
 5178TIP3    H215468   1.482   7.429   1.379
 5179TIP3   OH215469   0.870   6.717   3.002
 5179TIP3    H115470   0.775   6.726   3.010
 5179TIP3    H215471   0.897   6.673   3.083
 5180TIP3   OH215472   1.735   7.331   1.521
 5180TIP3    H115473   1.718   7.298   1.609
 5180TIP3    H215474   1.827   7.356   1.522
 5181TIP3   OH215475   1.754   6.720   2.726
 5181TIP3    H115476   1.810   6.797   2.715
 5181TIP3    H215477   1.739   6.715   2.820
 5182TIP3   OH215478   1.606   6.523   1.893
 5182TIP3    H115479   1.586   6.541   1.801
 5182TIP3    H215480   1.650   6.603   1.923
 5183TIP3   OH215481   1.275   6.714   1.987
 5183TIP3    H115482   1.339   6.780   1.961
 5183TIP3    H215483   1.294   6.698   2.079
 5184TIP3   OH215484   1.567   7.012   2.770
 5184TIP3    H115485   1.582   7.077   2.838
 5184TIP3    H215486   1.606   6.932   2.804
 5185TIP3   OH215487   1.423   6.420   2.075
 5185TIP3    H115488   1.400   6.497   2.127
 5185TIP3    H215489   1.489   6.451   2.014
 5186TIP3   OH215490   0.932   6.449   1.893
 5186TIP3    H115491   0.931   6.540   1.922
 5186TIP3    H215492   1.025   6.428   1.884
 5187TIP3   OH215493   2.170   6.924   2.757
 5187TIP3    H115494   2.074   6.919   2.757
 5187TIP3    H215495   2.195   6.888   2.672
 5188TIP3   OH215496   1.838   7.109   2.143
 5188TIP3    H115497   1.762   7.051   2.150
 5188TIP3    H215498   1.905   7.068   2.197
 5189TIP3   OH215499   0.890   6.343   2.613
 5189TIP3    H115500   0.859   6.310   2.528
 5189TIP3    H215501   0.883   6.267   2.671
 5190TIP3   OH215502   0.686   7.430   3.263
 5190TIP3    H115503   0.733   7.347   3.258
 5190TIP3    H215504   0.614   7.421   3.200
 5191TIP3   OH215505   1.306   7.537   3.082
 5191TIP3    H115506   1.274   7.568   2.998
 5191TIP3    H215507   1.341   7.450   3.064
 5192TIP3   OH215508   1.829   7.576   2.658
 5192TIP3    H115509   1.909   7.628   2.666
 5192TIP3    H215510   1.765   7.620   2.714
 5193TIP3   OH215511   0.866   7.221   3.267
 5193TIP3    H115512   0.948   7.176   3.247
 5193TIP3    H215513   0.880   7.257   3.355
 5194TIP3   OH215514   0.981   7.044   1.737
 5194TIP3    H115515   0.916   7.010   1.798
 5194TIP3    H215516   1.006   6.968   1.684
 5195TIP3   OH215517   1.185   7.147   2.922
 5195TIP3    H115518   1.102   7.194   2.922
 5195TIP3    H215519   1.228   7.175   2.841
 5196TIP3   OH215520   1.054   6.841   1.563
 5196TIP3    H115521   1.020   6.878   1.482
 5196TIP3    H215522   1.149   6.851   1.556
 5197TIP3   OH215523   1.669   7.480   3.000
 5197TIP3    H115524   1.761   7.461   3.016
 5197TIP3    H215525   1.629   7.482   3.087
 5198TIP3   OH215526   1.865   7.204   1.164
 5198TIP3    H115527   1.816   7.150   1.102
 5198TIP3    H215528   1.817   7.287   1.167
 5199TIP3   OH215529   1.296   6.931   3.045
 5199TIP3    H115530   1.300   6.858   2.983
 5199TIP3    H215531   1.255   7.003   2.996
 5200TIP3   OH215532   1.301   6.746   2.841
 5200TIP3    H115533   1.326   6.773   2.753
 5200TIP3    H215534   1.216   6.703   2.830
 5201TIP3   OH215535   1.353   7.243   2.727
 5201TIP3    H115536   1.419   7.312   2.729
 5201TIP3    H215537   1.284   7.277   2.670
 5202TIP3   OH215538   1.905   7.195   3.103
 5202TIP3    H115539   1.956   7.115   3.117
 5202TIP3    H215540   1.968   7.266   3.108
 5203TIP3   OH215541   1.953   7.407   2.829
 5203TIP3    H115542   1.888   7.461   2.785
 5203TIP3    H215543   2.037   7.443   2.802
 5204TIP3   OH215544   1.162   7.020   3.276
 5204TIP3    H115545   1.100   6.951   3.300
 5204TIP3    H215546   1.198   6.991   3.192
 5205TIP3   OH215547   1.555   6.963   3.140
 5205TIP3    H115548   1.549   6.965   3.235
 5205TIP3    H215549   1.465   6.949   3.110
 5206TIP3   OH215550   1.773   6.882   2.984
 5206TIP3    H115551   1.702   6.905   3.044
 5206TIP3    H215552   1.851   6.880   3.038
 5207TIP3   OH215553   2.012   6.888   3.139
 5207TIP3    H115554   2.036   6.796   3.148
 5207TIP3    H215555   2.007   6.921   3.228
 5208TIP3   OH215556   1.015   6.789   3.340
 5208TIP3    H115557   1.020   6.699   3.310
 5208TIP3    H215558   1.048   6.787   3.430
 5209TIP3   OH215559   1.563   6.693   3.334
 5209TIP3    H115560   1.548   6.665   3.244
 5209TIP3    H215561   1.498   6.761   3.349
 5210TIP3   OH215562   2.152   7.939   2.856
 5210TIP3    H115563   2.102   7.994   2.917
 5210TIP3    H215564   2.243   7.961   2.872
 5211TIP3   OH215565   2.002   7.370   1.540
 5211TIP3    H115566   2.061   7.438   1.507
 5211TIP3    H215567   2.048   7.333   1.615
 5212TIP3   OH215568   2.121   7.232   1.742
 5212TIP3    H115569   2.052   7.201   1.801
 5212TIP3    H215570   2.181   7.280   1.799
 5213TIP3   OH215571   2.144   7.612   2.150
 5213TIP3    H115572   2.207   7.541   2.134
 5213TIP3    H215573   2.128   7.649   2.063
 5214TIP3   OH215574   2.029   7.152   1.377
 5214TIP3    H115575   1.965   7.161   1.307
 5214TIP3    H215576   2.013   7.227   1.434
 5215TIP3   OH215577   1.870   6.808   1.326
 5215TIP3    H115578   1.829   6.853   1.253
 5215TIP3    H215579   1.865   6.716   1.304
 5216TIP3   OH215580   1.915   7.100   1.879
 5216TIP3    H115581   1.920   7.006   1.862
 5216TIP3    H215582   1.895   7.107   1.972
 5217TIP3   OH215583   0.516   7.118   2.659
 5217TIP3    H115584   0.502   7.109   2.565
 5217TIP3    H215585   0.609   7.141   2.667
 5218TIP3   OH215586   2.189   7.513   2.741
 5218TIP3    H115587   2.250   7.441   2.732
 5218TIP3    H215588   2.222   7.580   2.681
 5219TIP3   OH215589   2.369   7.309   2.743
 5219TIP3    H115590   2.296   7.264   2.786
 5219TIP3    H215591   2.444   7.251   2.755
 5220TIP3   OH215592   1.842   6.535   1.272
 5220TIP3    H115593   1.907   6.518   1.340
 5220TIP3    H215594   1.761   6.500   1.306
 5221TIP3   OH215595   1.905   6.828   1.758
 5221TIP3    H115596   1.949   6.744   1.770
 5221TIP3    H215597   1.949   6.867   1.681
 5222TIP3   OH215598   2.055   6.991   2.275
 5222TIP3    H115599   2.135   7.011   2.227
 5222TIP3    H215600   2.069   7.028   2.362
 5223TIP3   OH215601   2.131   7.132   2.506
 5223TIP3    H115602   2.053   7.157   2.556
 5223TIP3    H215603   2.162   7.214   2.467
 5224TIP3   OH215604   0.754   6.848   3.276
 5224TIP3    H115605   0.847   6.845   3.298
 5224TIP3    H215606   0.718   6.768   3.315
 5225TIP3   OH215607   2.590   6.743   3.044
 5225TIP3    H115608   2.654   6.686   3.002
 5225TIP3    H215609   2.553   6.794   2.971
 5226TIP3   OH215610   2.015   6.577   1.805
 5226TIP3    H115611   2.059   6.561   1.888
 5226TIP3    H215612   1.951   6.506   1.797
 5227TIP3   OH215613   0.717   6.560   2.631
 5227TIP3    H115614   0.773   6.482   2.636
 5227TIP3    H215615   0.778   6.632   2.616
 5228TIP3   OH215616   0.511   6.828   2.691
 5228TIP3    H115617   0.559   6.809   2.610
 5228TIP3    H215618   0.520   6.922   2.703
 5229TIP3   OH215619   2.436   6.864   2.854
 5229TIP3    H115620   2.361   6.905   2.895
 5229TIP3    H215621   2.399   6.794   2.799
 5230TIP3   OH215622   2.062   6.498   1.439
 5230TIP3    H115623   2.108   6.436   1.382
 5230TIP3    H215624   2.120   6.574   1.445
 5231TIP3   OH215625   0.494   6.352   2.223
 5231TIP3    H115626   0.400   6.334   2.229
 5231TIP3    H215627   0.503   6.409   2.147
 5232TIP3   OH215628   0.709   6.392   3.024
 5232TIP3    H115629   0.658   6.389   3.105
 5232TIP3    H215630   0.655   6.442   2.963
 5233TIP3   OH215631   2.342   6.625   2.735
 5233TIP3    H115632   2.261   6.627   2.684
 5233TIP3    H215633   2.373   6.534   2.728
 5234TIP3   OH215634   1.563   6.536   2.388
 5234TIP3    H115635   1.518   6.468   2.438
 5234TIP3    H215636   1.625   6.489   2.333
 5235TIP3   OH215637   2.058   6.450   2.266
 5235TIP3    H115638   2.095   6.499   2.193
 5235TIP3    H215639   1.964   6.470   2.265
 5236TIP3   OH215640   2.171   6.527   2.028
 5236TIP3    H115641   2.241   6.467   1.999
 5236TIP3    H215642   2.208   6.615   2.015
 5237TIP3   OH215643   0.797   6.244   2.371
 5237TIP3    H115644   0.706   6.215   2.374
 5237TIP3    H215645   0.847   6.163   2.360
 5238TIP3   OH215646   0.629   6.153   2.064
 5238TIP3    H115647   0.654   6.199   1.984
 5238TIP3    H215648   0.581   6.219   2.115
 5239TIP3   OH215649   1.263   6.279   2.263
 5239TIP3    H115650   1.315   6.319   2.193
 5239TIP3    H215651   1.277   6.337   2.338
 5240TIP3   OH215652   1.770   6.404   2.257
 5240TIP3    H115653   1.780   6.368   2.169
 5240TIP3    H215654   1.781   6.328   2.315
 5241TIP3   OH215655   1.826   6.370   1.808
 5241TIP3    H115656   1.746   6.416   1.832
 5241TIP3    H215657   1.815   6.283   1.846
 5242TIP3   OH215658   0.725   6.276   1.830
 5242TIP3    H115659   0.778   6.215   1.778
 5242TIP3    H215660   0.788   6.343   1.858
 5243TIP3   OH215661   1.210   6.468   1.889
 5243TIP3    H115662   1.264   6.410   1.942
 5243TIP3    H215663   1.230   6.556   1.920
 5244TIP3   OH215664   1.024   6.515   3.259
 5244TIP3    H115665   0.985   6.446   3.312
 5244TIP3    H215666   1.114   6.521   3.291
 5245TIP3   OH215667   1.259   6.519   3.411
 5245TIP3    H115668   1.349   6.492   3.396
 5245TIP3    H215669   1.225   6.457   3.475
 5246TIP3   OH215670   2.105   6.631   3.173
 5246TIP3    H115671   2.116   6.598   3.262
 5246TIP3    H215672   2.191   6.622   3.133
 5247TIP3   OH215673   3.291   7.509   1.432
 5247TIP3    H115674   3.270   7.596   1.396
 5247TIP3    H215675   3.213   7.457   1.416
 5248TIP3   OH215676   3.294   7.520   1.823
 5248TIP3    H115677   3.331   7.512   1.911
 5248TIP3    H215678   3.244   7.439   1.810
 5249TIP3   OH215679   2.584   7.389   2.203
 5249TIP3    H115680   2.618   7.324   2.263
 5249TIP3    H215681   2.646   7.462   2.209
 5250TIP3   OH215682   3.535   7.813   1.502
 5250TIP3    H115683   3.535   7.739   1.562
 5250TIP3    H215684   3.503   7.887   1.554
 5251TIP3   OH215685   2.598   7.763   1.925
 5251TIP3    H115686   2.580   7.669   1.915
 5251TIP3    H215687   2.685   7.775   1.886
 5252TIP3   OH215688   2.265   7.013   1.652
 5252TIP3    H115689   2.227   7.095   1.684
 5252TIP3    H215690   2.191   6.966   1.614
 5253TIP3   OH215691   2.347   7.329   1.872
 5253TIP3    H115692   2.392   7.248   1.895
 5253TIP3    H215693   2.417   7.392   1.855
 5254TIP3   OH215694   3.124   7.750   1.813
 5254TIP3    H115695   3.172   7.671   1.790
 5254TIP3    H215696   3.188   7.806   1.856
 5255TIP3   OH215697   4.110   7.060   1.853
 5255TIP3    H115698   4.126   7.143   1.897
 5255TIP3    H215699   4.149   7.072   1.766
 5256TIP3   OH215700   3.504   7.237   1.882
 5256TIP3    H115701   3.518   7.149   1.915
 5256TIP3    H215702   3.462   7.225   1.797
 5257TIP3   OH215703   2.854   6.895   1.834
 5257TIP3    H115704   2.831   6.968   1.777
 5257TIP3    H215705   2.798   6.823   1.805
 5258TIP3   OH215706   3.547   6.998   1.484
 5258TIP3    H115707   3.623   6.982   1.541
 5258TIP3    H215708   3.585   7.031   1.403
 5259TIP3   OH215709   2.477   7.105   1.963
 5259TIP3    H115710   2.561   7.089   2.007
 5259TIP3    H215711   2.483   7.054   1.882
 5260TIP3   OH215712   2.910   7.304   1.748
 5260TIP3    H115713   3.003   7.286   1.764
 5260TIP3    H215714   2.874   7.220   1.720
 5261TIP3   OH215715   4.159   7.277   2.028
 5261TIP3    H115716   4.086   7.337   2.012
 5261TIP3    H215717   4.213   7.321   2.093
 5262TIP3   OH215718   2.840   6.901   2.287
 5262TIP3    H115719   2.786   6.938   2.217
 5262TIP3    H215720   2.789   6.915   2.366
 5263TIP3   OH215721   3.218   7.727   1.276
 5263TIP3    H115722   3.163   7.708   1.200
 5263TIP3    H215723   3.195   7.816   1.300
 5264TIP3   OH215724   3.000   7.619   2.020
 5264TIP3    H115725   2.943   7.673   2.075
 5264TIP3    H215726   3.038   7.681   1.957
 5265TIP3   OH215727   3.724   7.020   1.700
 5265TIP3    H115728   3.646   7.041   1.751
 5265TIP3    H215729   3.777   7.100   1.702
 5266TIP3   OH215730   2.723   7.005   2.056
 5266TIP3    H115731   2.778   7.080   2.080
 5266TIP3    H215732   2.771   6.962   1.985
 5267TIP3   OH215733   2.831   7.735   2.194
 5267TIP3    H115734   2.801   7.814   2.149
 5267TIP3    H215735   2.758   7.711   2.250
 5268TIP3   OH215736   2.157   7.555   1.408
 5268TIP3    H115737   2.122   7.552   1.319
 5268TIP3    H215738   2.160   7.648   1.429
 5269TIP3   OH215739   3.882   6.928   1.940
 5269TIP3    H115740   3.850   6.990   2.005
 5269TIP3    H215741   3.966   6.964   1.912
 5270TIP3   OH215742   3.172   6.595   2.020
 5270TIP3    H115743   3.165   6.502   2.044
 5270TIP3    H215744   3.095   6.636   2.060
 5271TIP3   OH215745   3.571   7.819   1.228
 5271TIP3    H115746   3.483   7.792   1.201
 5271TIP3    H215747   3.566   7.822   1.324
 5272TIP3   OH215748   3.815   7.993   1.999
 5272TIP3    H115749   3.806   7.920   1.938
 5272TIP3    H215750   3.780   8.068   1.951
 5273TIP3   OH215751   3.093   7.364   1.300
 5273TIP3    H115752   3.015   7.414   1.275
 5273TIP3    H215753   3.145   7.359   1.219
 5274TIP3   OH215754   3.076   7.168   0.987
 5274TIP3    H115755   3.134   7.219   1.043
 5274TIP3    H215756   3.134   7.103   0.946
 5275TIP3   OH215757   4.009   7.625   1.855
 5275TIP3    H115758   3.927   7.675   1.862
 5275TIP3    H215759   4.042   7.646   1.768
 5276TIP3   OH215760   3.480   7.451   1.246
 5276TIP3    H115761   3.426   7.475   1.321
 5276TIP3    H215762   3.564   7.423   1.284
 5277TIP3   OH215763   3.690   7.499   2.147
 5277TIP3    H115764   3.698   7.578   2.200
 5277TIP3    H215765   3.603   7.504   2.108
 5278TIP3   OH215766   2.701   7.439   1.626
 5278TIP3    H115767   2.662   7.377   1.563
 5278TIP3    H215768   2.778   7.394   1.660
 5279TIP3   OH215769   2.844   7.802   1.793
 5279TIP3    H115770   2.849   7.884   1.743
 5279TIP3    H215771   2.935   7.775   1.804
 5280TIP3   OH215772   2.819   7.421   1.977
 5280TIP3    H115773   2.849   7.383   1.895
 5280TIP3    H215774   2.880   7.493   1.994
 5281TIP3   OH215775   3.023   7.881   2.325
 5281TIP3    H115776   2.954   7.944   2.343
 5281TIP3    H215777   2.981   7.813   2.272
 5282TIP3   OH215778   3.286   7.314   1.112
 5282TIP3    H115779   3.353   7.364   1.158
 5282TIP3    H215780   3.298   7.336   1.020
 5283TIP3   OH215781   2.730   7.543   2.417
 5283TIP3    H115782   2.741   7.617   2.476
 5283TIP3    H215783   2.649   7.501   2.445
 5284TIP3   OH215784   3.796   6.535   1.137
 5284TIP3    H115785   3.717   6.552   1.189
 5284TIP3    H215786   3.818   6.619   1.098
 5285TIP3   OH215787   2.573   7.276   1.435
 5285TIP3    H115788   2.501   7.324   1.394
 5285TIP3    H215789   2.535   7.191   1.459
 5286TIP3   OH215790   2.390   7.624   2.335
 5286TIP3    H115791   2.294   7.620   2.339
 5286TIP3    H215792   2.419   7.542   2.374
 5287TIP3   OH215793   3.953   7.450   2.345
 5287TIP3    H115794   3.862   7.456   2.316
 5287TIP3    H215795   3.967   7.357   2.361
 5288TIP3   OH215796   2.574   7.819   2.291
 5288TIP3    H115797   2.519   7.880   2.339
 5288TIP3    H215798   2.522   7.738   2.287
 5289TIP3   OH215799   2.939   6.686   2.140
 5289TIP3    H115800   2.853   6.655   2.112
 5289TIP3    H215801   2.920   6.767   2.189
 5290TIP3   OH215802   3.488   6.790   2.341
 5290TIP3    H115803   3.558   6.772   2.404
 5290TIP3    H215804   3.407   6.780   2.391
 5291TIP3   OH215805   3.716   7.233   2.217
 5291TIP3    H115806   3.675   7.220   2.303
 5291TIP3    H215807   3.692   7.322   2.192
 5292TIP3   OH215808   3.328   7.375   0.860
 5292TIP3    H115809   3.270   7.354   0.787
 5292TIP3    H215810   3.404   7.417   0.820
 5293TIP3   OH215811   3.088   6.722   1.109
 5293TIP3    H115812   3.051   6.729   1.197
 5293TIP3    H215813   3.050   6.642   1.073
 5294TIP3   OH215814   2.878   7.213   2.146
 5294TIP3    H115815   2.835   7.223   2.230
 5294TIP3    H215816   2.852   7.291   2.096
 5295TIP3   OH215817   2.761   7.088   1.666
 5295TIP3    H115818   2.671   7.067   1.692
 5295TIP3    H215819   2.768   7.054   1.577
 5296TIP3   OH215820   3.246   7.161   1.405
 5296TIP3    H115821   3.191   7.231   1.369
 5296TIP3    H215822   3.301   7.134   1.332
 5297TIP3   OH215823   3.429   7.410   2.485
 5297TIP3    H115824   3.428   7.353   2.562
 5297TIP3    H215825   3.514   7.453   2.487
 5298TIP3   OH215826   3.410   7.187   1.631
 5298TIP3    H115827   3.340   7.217   1.572
 5298TIP3    H215828   3.450   7.113   1.585
 5299TIP3   OH215829   2.722   7.217   2.376
 5299TIP3    H115830   2.771   7.266   2.443
 5299TIP3    H215831   2.703   7.133   2.418
 5300TIP3   OH215832   2.750   6.710   1.083
 5300TIP3    H115833   2.740   6.711   1.178
 5300TIP3    H215834   2.674   6.759   1.050
 5301TIP3   OH215835   2.300   6.751   1.951
 5301TIP3    H115836   2.373   6.786   2.002
 5301TIP3    H215837   2.339   6.730   1.866
 5302TIP3   OH215838   2.223   6.724   1.458
 5302TIP3    H115839   2.266   6.758   1.380
 5302TIP3    H215840   2.160   6.793   1.482
 5303TIP3   OH215841   3.423   7.429   2.060
 5303TIP3    H115842   3.457   7.369   1.994
 5303TIP3    H215843   3.399   7.373   2.134
 5304TIP3   OH215844   3.117   6.888   1.727
 5304TIP3    H115845   3.035   6.889   1.777
 5304TIP3    H215846   3.185   6.875   1.793
 5305TIP3   OH215847   2.523   6.967   1.730
 5305TIP3    H115848   2.435   6.971   1.694
 5305TIP3    H215849   2.551   6.876   1.715
 5306TIP3   OH215850   2.775   6.967   1.423
 5306TIP3    H115851   2.869   6.980   1.407
 5306TIP3    H215852   2.734   6.986   1.338
 5307TIP3   OH215853   3.552   6.951   1.901
 5307TIP3    H115854   3.555   6.964   1.996
 5307TIP3    H215855   3.473   6.898   1.887
 5308TIP3   OH215856   2.647   6.992   1.183
 5308TIP3    H115857   2.579   6.947   1.133
 5308TIP3    H215858   2.701   7.035   1.117
 5309TIP3   OH215859   2.742   7.750   2.602
 5309TIP3    H115860   2.815   7.744   2.663
 5309TIP3    H215861   2.666   7.766   2.659
 5310TIP3   OH215862   3.173   7.253   1.829
 5310TIP3    H115863   3.239   7.198   1.786
 5310TIP3    H215864   3.169   7.220   1.918
 5311TIP3   OH215865   2.667   6.720   1.717
 5311TIP3    H115866   2.637   6.645   1.769
 5311TIP3    H215867   2.690   6.682   1.632
 5312TIP3   OH215868   3.149   7.166   2.096
 5312TIP3    H115869   3.061   7.194   2.119
 5312TIP3    H215870   3.206   7.215   2.156
 5313TIP3   OH215871   2.881   7.521   1.215
 5313TIP3    H115872   2.811   7.461   1.191
 5313TIP3    H215873   2.850   7.565   1.295
 5314TIP3   OH215874   3.774   7.771   1.828
 5314TIP3    H115875   3.805   7.815   1.749
 5314TIP3    H215876   3.692   7.729   1.801
 5315TIP3   OH215877   3.340   6.821   1.117
 5315TIP3    H115878   3.246   6.804   1.113
 5315TIP3    H215879   3.347   6.917   1.125
 5316TIP3   OH215880   3.294   7.799   2.236
 5316TIP3    H115881   3.343   7.771   2.313
 5316TIP3    H215882   3.203   7.803   2.265
 5317TIP3   OH215883   3.412   7.078   1.192
 5317TIP3    H115884   3.507   7.088   1.196
 5317TIP3    H215885   3.382   7.150   1.137
 5318TIP3   OH215886   2.573   7.491   1.866
 5318TIP3    H115887   2.610   7.484   1.778
 5318TIP3    H215888   2.642   7.459   1.924
 5319TIP3   OH215889   3.036   7.691   1.065
 5319TIP3    H115890   2.973   7.761   1.047
 5319TIP3    H215891   2.985   7.625   1.112
 5320TIP3   OH215892   2.487   7.435   2.514
 5320TIP3    H115893   2.514   7.422   2.604
 5320TIP3    H215894   2.411   7.378   2.503
 5321TIP3   OH215895   3.185   7.528   2.538
 5321TIP3    H115896   3.120   7.474   2.493
 5321TIP3    H215897   3.269   7.494   2.508
 5322TIP3   OH215898   3.827   7.183   1.046
 5322TIP3    H115899   3.785   7.129   0.980
 5322TIP3    H215900   3.788   7.270   1.033
 5323TIP3   OH215901   4.080   8.001   2.091
 5323TIP3    H115902   3.988   8.025   2.080
 5323TIP3    H215903   4.114   7.997   2.002
 5324TIP3   OH215904   3.544   7.631   1.714
 5324TIP3    H115905   3.458   7.613   1.751
 5324TIP3    H215906   3.574   7.546   1.681
 5325TIP3   OH215907   2.259   7.144   1.227
 5325TIP3    H115908   2.304   7.226   1.246
 5325TIP3    H215909   2.182   7.145   1.285
 5326TIP3   OH215910   2.790   7.632   1.449
 5326TIP3    H115911   2.782   7.715   1.495
 5326TIP3    H215912   2.759   7.566   1.511
 5327TIP3   OH215913   3.346   7.830   1.959
 5327TIP3    H115914   3.311   7.823   2.048
 5327TIP3    H215915   3.441   7.830   1.971
 5328TIP3   OH215916   3.267   7.709   0.877
 5328TIP3    H115917   3.336   7.673   0.932
 5328TIP3    H215918   3.187   7.700   0.930
 5329TIP3   OH215919   2.669   6.966   2.497
 5329TIP3    H115920   2.574   6.973   2.507
 5329TIP3    H215921   2.698   6.917   2.574
 5330TIP3   OH215922   3.472   7.621   1.032
 5330TIP3    H115923   3.467   7.562   1.107
 5330TIP3    H215924   3.561   7.655   1.034
 5331TIP3   OH215925   2.648   7.658   0.880
 5331TIP3    H115926   2.641   7.569   0.847
 5331TIP3    H215927   2.739   7.683   0.864
 5332TIP3   OH215928   2.360   7.396   1.302
 5332TIP3    H115929   2.295   7.440   1.356
 5332TIP3    H215930   2.378   7.458   1.231
 5333TIP3   OH215931   3.563   6.990   2.166
 5333TIP3    H115932   3.608   7.058   2.215
 5333TIP3    H215933   3.534   6.927   2.233
 5334TIP3   OH215934   3.396   6.784   1.385
 5334TIP3    H115935   3.376   6.799   1.293
 5334TIP3    H215936   3.438   6.865   1.415
 5335TIP3   OH215937   3.057   6.972   1.469
 5335TIP3    H115938   3.121   7.039   1.444
 5335TIP3    H215939   3.073   6.957   1.562
 5336TIP3   OH215940   3.361   7.258   2.267
 5336TIP3    H115941   3.374   7.316   2.342
 5336TIP3    H215942   3.400   7.175   2.294
 5337TIP3   OH215943   3.213   6.681   1.563
 5337TIP3    H115944   3.186   6.758   1.612
 5337TIP3    H215945   3.280   6.712   1.502
 5338TIP3   OH215946   2.728   6.696   1.362
 5338TIP3    H115947   2.717   6.786   1.391
 5338TIP3    H215948   2.822   6.680   1.366
 5339TIP3   OH215949   3.980   7.171   2.233
 5339TIP3    H115950   3.886   7.189   2.222
 5339TIP3    H215951   4.020   7.206   2.154
 5340TIP3   OH215952   3.628   7.376   1.628
 5340TIP3    H115953   3.550   7.323   1.643
 5340TIP3    H215954   3.694   7.339   1.687
 5341TIP3   OH215955   2.367   7.599   1.089
 5341TIP3    H115956   2.411   7.682   1.072
 5341TIP3    H215957   2.420   7.533   1.044
 5342TIP3   OH215958   2.281   6.864   1.231
 5342TIP3    H115959   2.283   6.960   1.232
 5342TIP3    H215960   2.212   6.842   1.168
 5343TIP3   OH215961   2.679   6.598   2.101
 5343TIP3    H115962   2.649   6.565   2.016
 5343TIP3    H215963   2.670   6.523   2.160
 5344TIP3   OH215964   2.520   7.699   2.783
 5344TIP3    H115965   2.572   7.620   2.773
 5344TIP3    H215966   2.455   7.694   2.713
 5345TIP3   OH215967   2.507   7.389   0.991
 5345TIP3    H115968   2.565   7.367   1.064
 5345TIP3    H215969   2.565   7.393   0.914
 5346TIP3   OH215970   3.109   7.785   2.566
 5346TIP3    H115971   3.089   7.822   2.480
 5346TIP3    H215972   3.139   7.696   2.547
 5347TIP3   OH215973   2.917   7.610   0.823
 5347TIP3    H115974   2.984   7.625   0.889
 5347TIP3    H215975   2.927   7.518   0.799
 5348TIP3   OH215976   3.591   7.851   2.086
 5348TIP3    H115977   3.671   7.900   2.070
 5348TIP3    H215978   3.555   7.889   2.166
 5349TIP3   OH215979   2.674   7.470   2.757
 5349TIP3    H115980   2.753   7.422   2.734
 5349TIP3    H215981   2.692   7.506   2.844
 5350TIP3   OH215982   2.692   7.323   1.181
 5350TIP3    H115983   2.666   7.288   1.267
 5350TIP3    H215984   2.730   7.248   1.135
 5351TIP3   OH215985   2.977   7.407   2.391
 5351TIP3    H115986   2.899   7.463   2.390
 5351TIP3    H215987   3.029   7.437   2.317
 5352TIP3   OH215988   2.802   7.133   1.010
 5352TIP3    H115989   2.774   7.136   0.918
 5352TIP3    H215990   2.898   7.138   1.006
 5353TIP3   OH215991   3.441   7.730   2.490
 5353TIP3    H115992   3.533   7.734   2.465
 5353TIP3    H215993   3.442   7.698   2.580
 5354TIP3   OH215994   3.541   7.482   0.726
 5354TIP3    H115995   3.549   7.428   0.647
 5354TIP3    H215996   3.490   7.558   0.698
 5355TIP3   OH215997   3.010   7.182   2.542
 5355TIP3    H115998   3.080   7.124   2.511
 5355TIP3    H215999   3.009   7.254   2.479
 5356TIP3   OH216000   3.111   6.959   2.299
 5356TIP3    H116001   3.128   7.015   2.224
 5356TIP3    H216002   3.016   6.948   2.300
 5357TIP3   OH216003   3.153   7.489   2.200
 5357TIP3    H116004   3.244   7.505   2.177
 5357TIP3    H216005   3.102   7.533   2.131
 5358TIP3   OH216006   3.698   7.478   2.560
 5358TIP3    H116007   3.739   7.395   2.585
 5358TIP3    H216008   3.768   7.543   2.567
 5359TIP3   OH216009   3.736   7.721   2.313
 5359TIP3    H116010   3.677   7.792   2.288
 5359TIP3    H216011   3.820   7.743   2.274
 5360TIP3   OH216012   2.902   7.309   2.761
 5360TIP3    H116013   2.868   7.231   2.804
 5360TIP3    H216014   2.952   7.275   2.686
 5361TIP3   OH216015   3.224   6.737   2.418
 5361TIP3    H116016   3.187   6.817   2.381
 5361TIP3    H216017   3.154   6.672   2.410
 5362TIP3   OH216018   3.617   7.145   2.453
 5362TIP3    H116019   3.556   7.163   2.524
 5362TIP3    H216020   3.701   7.128   2.496
 5363TIP3   OH216021   3.844   7.135   2.618
 5363TIP3    H116022   3.851   7.041   2.635
 5363TIP3    H216023   3.817   7.173   2.702
 5364TIP3   OH216024   2.803   7.058   2.838
 5364TIP3    H116025   2.828   6.979   2.790
 5364TIP3    H216026   2.837   7.045   2.926
 5365TIP3   OH216027   3.259   6.699   2.692
 5365TIP3    H116028   3.341   6.650   2.694
 5365TIP3    H216029   3.245   6.720   2.600
 5366TIP3   OH216030   2.102   7.536   1.141
 5366TIP3    H116031   2.188   7.565   1.111
 5366TIP3    H216032   2.083   7.459   1.086
 5367TIP3   OH216033   6.796   0.113   2.369
 5367TIP3    H116034   6.706   0.098   2.341
 5367TIP3    H216035   6.795   0.200   2.407
 5368TIP3   OH216036   3.743   7.681   1.067
 5368TIP3    H116037   3.702   7.752   1.116
 5368TIP3    H216038   3.792   7.632   1.134
 5369TIP3   OH216039   3.875   7.522   1.239
 5369TIP3    H116040   3.816   7.468   1.291
 5369TIP3    H216041   3.944   7.549   1.300
 5370TIP3   OH216042   3.934   7.906   1.649
 5370TIP3    H116043   3.991   7.836   1.617
 5370TIP3    H216044   3.925   7.966   1.575
 5371TIP3   OH216045   3.698   7.420   0.973
 5371TIP3    H116046   3.615   7.434   0.927
 5371TIP3    H216047   3.719   7.505   1.010
 5372TIP3   OH216048   3.636   7.099   0.858
 5372TIP3    H116049   3.683   7.109   0.775
 5372TIP3    H216050   3.619   7.005   0.865
 5373TIP3   OH216051   3.707   7.351   1.368
 5373TIP3    H116052   3.706   7.256   1.354
 5373TIP3    H216053   3.686   7.362   1.460
 5374TIP3   OH216054   2.320   7.400   2.132
 5374TIP3    H116055   2.315   7.375   2.040
 5374TIP3    H216056   2.414   7.406   2.150
 5375TIP3   OH216057   3.988   7.777   2.220
 5375TIP3    H116058   4.049   7.706   2.199
 5375TIP3    H216059   4.020   7.852   2.169
 5376TIP3   OH216060   4.154   7.559   2.196
 5376TIP3    H116061   4.084   7.522   2.251
 5376TIP3    H216062   4.231   7.507   2.218
 5377TIP3   OH216063   3.607   6.820   0.870
 5377TIP3    H116064   3.650   6.788   0.950
 5377TIP3    H216065   3.524   6.773   0.867
 5378TIP3   OH216066   3.692   7.084   1.265
 5378TIP3    H116067   3.733   7.000   1.285
 5378TIP3    H216068   3.741   7.119   1.191
 5379TIP3   OH216069   3.843   7.257   1.763
 5379TIP3    H116070   3.925   7.277   1.718
 5379TIP3    H216071   3.853   7.297   1.849
 5380TIP3   OH216072   3.913   7.406   1.991
 5380TIP3    H116073   3.839   7.436   2.044
 5380TIP3    H216074   3.946   7.484   1.948
 5381TIP3   OH216075   2.542   7.100   2.764
 5381TIP3    H116076   2.636   7.099   2.784
 5381TIP3    H216077   2.509   7.020   2.805
 5382TIP3   OH216078   4.386   7.002   2.532
 5382TIP3    H116079   4.450   6.942   2.494
 5382TIP3    H216080   4.349   7.048   2.457
 5383TIP3   OH216081   3.790   6.841   1.331
 5383TIP3    H116082   3.873   6.819   1.374
 5383TIP3    H216083   3.742   6.758   1.329
 5384TIP3   OH216084   2.513   6.820   2.117
 5384TIP3    H116085   2.567   6.742   2.124
 5384TIP3    H216086   2.575   6.892   2.103
 5385TIP3   OH216087   2.297   7.082   2.179
 5385TIP3    H116088   2.347   7.072   2.098
 5385TIP3    H216089   2.323   7.168   2.213
 5386TIP3   OH216090   4.238   7.111   2.332
 5386TIP3    H116091   4.161   7.154   2.371
 5386TIP3    H216092   4.201   7.043   2.276
 5387TIP3   OH216093   3.868   6.771   1.016
 5387TIP3    H116094   3.892   6.700   0.957
 5387TIP3    H216095   3.874   6.850   0.962
 5388TIP3   OH216096   2.285   6.592   1.687
 5388TIP3    H116097   2.198   6.580   1.725
 5388TIP3    H216098   2.270   6.647   1.610
 5389TIP3   OH216099   2.507   6.647   2.502
 5389TIP3    H116100   2.462   6.651   2.586
 5389TIP3    H216101   2.451   6.696   2.442
 5390TIP3   OH216102   4.145   6.853   2.228
 5390TIP3    H116103   4.054   6.824   2.219
 5390TIP3    H216104   4.197   6.773   2.220
 5391TIP3   OH216105   3.340   6.766   1.868
 5391TIP3    H116106   3.285   6.720   1.930
 5391TIP3    H216107   3.390   6.697   1.824
 5392TIP3   OH216108   2.591   6.494   1.860
 5392TIP3    H116109   2.501   6.462   1.868
 5392TIP3    H216110   2.644   6.415   1.853
 5393TIP3   OH216111   2.401   6.398   1.511
 5393TIP3    H116112   2.430   6.448   1.435
 5393TIP3    H216113   2.369   6.463   1.572
 5394TIP3   OH216114   3.066   6.534   1.755
 5394TIP3    H116115   3.113   6.584   1.689
 5394TIP3    H216116   3.100   6.566   1.839
 5395TIP3   OH216117   3.706   6.691   1.737
 5395TIP3    H116118   3.742   6.637   1.667
 5395TIP3    H216119   3.647   6.633   1.785
 5396TIP3   OH216120   3.615   6.623   1.323
 5396TIP3    H116121   3.535   6.673   1.341
 5396TIP3    H216122   3.598   6.536   1.359
 5397TIP3   OH216123   2.518   6.528   1.278
 5397TIP3    H116124   2.564   6.467   1.220
 5397TIP3    H216125   2.587   6.585   1.312
 5398TIP3   OH216126   3.003   6.723   1.372
 5398TIP3    H116127   3.060   6.670   1.427
 5398TIP3    H216128   3.019   6.813   1.400
 5399TIP3   OH216129   2.814   6.777   2.731
 5399TIP3    H116130   2.778   6.714   2.793
 5399TIP3    H216131   2.905   6.788   2.757
 5400TIP3   OH216132   3.057   6.791   2.862
 5400TIP3    H116133   3.133   6.767   2.808
 5400TIP3    H216134   3.050   6.720   2.926
 5401TIP3   OH216135   3.890   6.866   2.651
 5401TIP3    H116136   3.901   6.841   2.743
 5401TIP3    H216137   3.977   6.861   2.614
 5402TIP3   OH216138   4.924   7.836   0.943
 5402TIP3    H116139   4.933   7.927   0.971
 5402TIP3    H216140   4.969   7.832   0.858
 5403TIP3   OH216141   4.993   7.765   1.348
 5403TIP3    H116142   5.075   7.776   1.396
 5403TIP3    H216143   4.976   7.671   1.351
 5404TIP3   OH216144   4.368   7.649   1.658
 5404TIP3    H116145   4.399   7.598   1.732
 5404TIP3    H216146   4.448   7.677   1.613
 5405TIP3   OH216147   8.128   0.031   0.898
 5405TIP3    H116148   8.199  -0.020   0.939
 5405TIP3    H216149   8.154   0.122   0.913
 5406TIP3   OH216150   7.214   0.037   1.368
 5406TIP3    H116151   7.225   0.038   1.463
 5406TIP3    H216152   7.296   0.074   1.335
 5407TIP3   OH216153   4.038   7.298   1.183
 5407TIP3    H116154   4.002   7.384   1.206
 5407TIP3    H216155   3.962   7.249   1.150
 5408TIP3   OH216156   4.109   7.569   1.368
 5408TIP3    H116157   4.163   7.496   1.396
 5408TIP3    H216158   4.162   7.615   1.303
 5409TIP3   OH216159   4.903   8.025   1.356
 5409TIP3    H116160   4.931   7.935   1.340
 5409TIP3    H216161   4.982   8.069   1.387
 5410TIP3   OH216162   5.897   7.324   1.399
 5410TIP3    H116163   5.923   7.408   1.437
 5410TIP3    H216164   5.877   7.344   1.307
 5411TIP3   OH216165   5.308   7.491   1.405
 5411TIP3    H116166   5.384   7.435   1.421
 5411TIP3    H216167   5.264   7.451   1.331
 5412TIP3   OH216168   4.642   7.149   1.357
 5412TIP3    H116169   4.617   7.222   1.299
 5412TIP3    H216170   4.589   7.075   1.326
 5413TIP3   OH216171   5.340   7.280   0.940
 5413TIP3    H116172   5.392   7.213   0.984
 5413TIP3    H216173   5.394   7.359   0.943
 5414TIP3   OH216174   4.265   7.369   1.464
 5414TIP3    H116175   4.348   7.352   1.509
 5414TIP3    H216176   4.266   7.310   1.388
 5415TIP3   OH216177   4.703   7.557   1.309
 5415TIP3    H116178   4.790   7.528   1.335
 5415TIP3    H216179   4.654   7.476   1.294
 5416TIP3   OH216180   5.971   7.542   1.552
 5416TIP3    H116181   5.885   7.583   1.552
 5416TIP3    H216182   5.996   7.538   1.645
 5417TIP3   OH216183   4.630   7.153   1.777
 5417TIP3    H116184   4.576   7.189   1.707
 5417TIP3    H216185   4.579   7.167   1.857
 5418TIP3   OH216186   7.800   0.092   0.793
 5418TIP3    H116187   7.736   0.065   0.728
 5418TIP3    H216188   7.752   0.091   0.876
 5419TIP3   OH216189   4.740   7.929   1.555
 5419TIP3    H116190   4.685   8.001   1.587
 5419TIP3    H216191   4.794   7.969   1.487
 5420TIP3   OH216192   5.527   7.316   1.382
 5420TIP3    H116193   5.515   7.263   1.304
 5420TIP3    H216194   5.588   7.385   1.354
 5421TIP3   OH216195   4.502   7.265   1.561
 5421TIP3    H116196   4.556   7.340   1.582
 5421TIP3    H216197   4.551   7.217   1.494
 5422TIP3   OH216198   7.413   0.125   1.640
 5422TIP3    H116199   7.382   0.206   1.600
 5422TIP3    H216200   7.348   0.105   1.708
 5423TIP3   OH216201   4.034   7.764   1.075
 5423TIP3    H116202   3.974   7.691   1.062
 5423TIP3    H216203   3.986   7.840   1.042
 5424TIP3   OH216204   5.711   7.207   1.556
 5424TIP3    H116205   5.629   7.240   1.518
 5424TIP3    H216206   5.779   7.237   1.496
 5425TIP3   OH216207   4.960   6.835   1.524
 5425TIP3    H116208   4.954   6.743   1.549
 5425TIP3    H216209   4.883   6.875   1.564
 5426TIP3   OH216210   8.403   0.277   1.571
 5426TIP3    H116211   8.446   0.222   1.506
 5426TIP3    H216212   8.405   0.365   1.533
 5427TIP3   OH216213   4.880   7.595   0.725
 5427TIP3    H116214   4.815   7.666   0.728
 5427TIP3    H216215   4.924   7.607   0.641
 5428TIP3   OH216216   5.788   7.919   1.373
 5428TIP3    H116217   5.694   7.922   1.360
 5428TIP3    H216218   5.824   7.902   1.286
 5429TIP3   OH216219   5.284   7.738   0.619
 5429TIP3    H116220   5.206   7.780   0.655
 5429TIP3    H216221   5.302   7.665   0.678
 5430TIP3   OH216222   5.467   7.748   1.662
 5430TIP3    H116223   5.477   7.825   1.718
 5430TIP3    H216224   5.390   7.766   1.609
 5431TIP3   OH216225   4.514   7.696   1.169
 5431TIP3    H116226   4.458   7.639   1.116
 5431TIP3    H216227   4.581   7.638   1.203
 5432TIP3   OH216228   7.467   0.102   1.293
 5432TIP3    H116229   7.501   0.020   1.259
 5432TIP3    H216230   7.545   0.147   1.327
 5433TIP3   OH216231   4.588   7.710   1.504
 5433TIP3    H116232   4.630   7.670   1.428
 5433TIP3    H216233   4.641   7.787   1.523
 5434TIP3   OH216234   7.651   0.164   1.792
 5434TIP3    H116235   7.631   0.253   1.822
 5434TIP3    H216236   7.575   0.138   1.741
 5435TIP3   OH216237   4.530   7.798   1.934
 5435TIP3    H116238   4.532   7.886   1.971
 5435TIP3    H216239   4.437   7.775   1.932
 5436TIP3   OH216240   4.341   7.556   1.023
 5436TIP3    H116241   4.290   7.618   0.970
 5436TIP3    H216242   4.311   7.470   0.994
 5437TIP3   OH216243   4.163   7.942   1.836
 5437TIP3    H116244   4.088   7.918   1.781
 5437TIP3    H216245   4.195   7.859   1.870
 5438TIP3   OH216246   5.737   7.695   1.829
 5438TIP3    H116247   5.682   7.706   1.752
 5438TIP3    H216248   5.758   7.601   1.831
 5439TIP3   OH216249   7.224   0.087   1.827
 5439TIP3    H116250   7.260   0.078   1.915
 5439TIP3    H216251   7.139   0.043   1.831
 5440TIP3   OH216252   4.727   6.936   1.633
 5440TIP3    H116253   4.641   6.908   1.601
 5440TIP3    H216254   4.710   7.019   1.676
 5441TIP3   OH216255   5.285   7.060   1.835
 5441TIP3    H116256   5.357   7.032   1.893
 5441TIP3    H216257   5.206   7.034   1.882
 5442TIP3   OH216258   5.494   7.488   1.740
 5442TIP3    H116259   5.460   7.488   1.829
 5442TIP3    H216260   5.479   7.577   1.709
 5443TIP3   OH216261   4.807   6.992   0.604
 5443TIP3    H116262   4.818   6.989   0.699
 5443TIP3    H216263   4.794   6.901   0.578
 5444TIP3   OH216264   4.664   7.474   1.630
 5444TIP3    H116265   4.634   7.486   1.720
 5444TIP3    H216266   4.646   7.558   1.588
 5445TIP3   OH216267   4.527   7.366   1.229
 5445TIP3    H116268   4.439   7.331   1.247
 5445TIP3    H216269   4.543   7.347   1.137
 5446TIP3   OH216270   5.236   7.493   0.758
 5446TIP3    H116271   5.188   7.516   0.837
 5446TIP3    H216272   5.238   7.397   0.758
 5447TIP3   OH216273   5.234   7.694   1.964
 5447TIP3    H116274   5.211   7.624   2.025
 5447TIP3    H216275   5.327   7.710   1.979
 5448TIP3   OH216276   5.134   7.448   1.161
 5448TIP3    H116277   5.100   7.463   1.072
 5448TIP3    H216278   5.175   7.361   1.156
 5449TIP3   OH216279   4.490   7.480   1.856
 5449TIP3    H116280   4.554   7.531   1.906
 5449TIP3    H216281   4.481   7.399   1.906
 5450TIP3   OH216282   4.418   6.915   0.651
 5450TIP3    H116283   4.503   6.908   0.695
 5450TIP3    H216284   4.403   7.009   0.643
 5451TIP3   OH216285   4.056   6.970   1.473
 5451TIP3    H116286   4.134   7.007   1.514
 5451TIP3    H216287   4.089   6.922   1.397
 5452TIP3   OH216288   4.085   7.034   1.036
 5452TIP3    H116289   4.074   7.001   0.947
 5452TIP3    H216290   4.005   7.083   1.053
 5453TIP3   OH216291   5.182   7.685   1.554
 5453TIP3    H116292   5.229   7.624   1.497
 5453TIP3    H216293   5.164   7.634   1.633
 5454TIP3   OH216294   4.905   7.195   1.268
 5454TIP3    H116295   4.828   7.171   1.320
 5454TIP3    H216296   4.975   7.140   1.302
 5455TIP3   OH216297   4.301   7.211   1.247
 5455TIP3    H116298   4.211   7.197   1.219
 5455TIP3    H216299   4.340   7.124   1.247
 5456TIP3   OH216300   4.559   7.275   0.979
 5456TIP3    H116301   4.654   7.271   0.987
 5456TIP3    H216302   4.544   7.339   0.909
 5457TIP3   OH216303   5.263   7.151   1.497
 5457TIP3    H116304   5.265   7.210   1.573
 5457TIP3    H216305   5.305   7.200   1.427
 5458TIP3   OH216306   4.434   7.329   0.734
 5458TIP3    H116307   4.378   7.251   0.733
 5458TIP3    H216308   4.488   7.321   0.655
 5459TIP3   OH216309   7.345   0.028   2.073
 5459TIP3    H116310   7.424   0.042   2.125
 5459TIP3    H216311   7.273   0.030   2.136
 5460TIP3   OH216312   4.956   7.493   1.360
 5460TIP3    H116313   5.019   7.458   1.297
 5460TIP3    H216314   4.967   7.437   1.437
 5461TIP3   OH216315   4.444   6.978   1.262
 5461TIP3    H116316   4.412   6.897   1.302
 5461TIP3    H216317   4.480   6.951   1.178
 5462TIP3   OH216318   4.933   7.394   1.616
 5462TIP3    H116319   4.846   7.434   1.624
 5462TIP3    H216320   4.991   7.451   1.666
 5463TIP3   OH216321   4.697   7.799   0.691
 5463TIP3    H116322   4.643   7.731   0.650
 5463TIP3    H216323   4.655   7.815   0.775
 5464TIP3   OH216324   5.533   7.968   1.300
 5464TIP3    H116325   5.566   8.026   1.232
 5464TIP3    H216326   5.466   8.018   1.345
 5465TIP3   OH216327   7.923   0.104   1.737
 5465TIP3    H116328   7.964   0.087   1.822
 5465TIP3    H216329   7.832   0.126   1.759
 5466TIP3   OH216330   4.311   7.776   1.326
 5466TIP3    H116331   4.383   7.740   1.274
 5466TIP3    H216332   4.328   7.745   1.415
 5467TIP3   OH216333   4.262   7.729   1.984
 5467TIP3    H116334   4.293   7.723   2.074
 5467TIP3    H216335   4.192   7.663   1.979
 5468TIP3   OH216336   5.000   7.832   1.990
 5468TIP3    H116337   4.952   7.802   1.913
 5468TIP3    H216338   5.089   7.797   1.978
 5469TIP3   OH216339   0.189   0.249   1.629
 5469TIP3    H116340   0.113   0.293   1.667
 5469TIP3    H216341   0.228   0.314   1.571
 5470TIP3   OH216342   5.255   7.895   1.342
 5470TIP3    H116343   5.215   7.947   1.272
 5470TIP3    H216344   5.274   7.811   1.301
 5471TIP3   OH216345   4.088   7.394   0.635
 5471TIP3    H116346   4.157   7.457   0.656
 5471TIP3    H216347   4.014   7.421   0.689
 5472TIP3   OH216348   4.585   7.846   0.931
 5472TIP3    H116349   4.652   7.885   0.987
 5472TIP3    H216350   4.559   7.766   0.976
 5473TIP3   OH216351   7.970   0.089   1.470
 5473TIP3    H116352   7.953   0.091   1.564
 5473TIP3    H216353   8.023   0.011   1.456
 5474TIP3   OH216354   4.471   7.222   1.992
 5474TIP3    H116355   4.377   7.208   2.002
 5474TIP3    H216356   4.511   7.175   2.066
 5475TIP3   OH216357   4.219   7.755   0.874
 5475TIP3    H116358   4.152   7.761   0.942
 5475TIP3    H216359   4.172   7.769   0.792
 5476TIP3   OH216360   5.285   7.308   1.718
 5476TIP3    H116361   5.371   7.350   1.725
 5476TIP3    H216362   5.293   7.227   1.767
 5477TIP3   OH216363   5.117   7.125   0.937
 5477TIP3    H116364   5.068   7.183   0.878
 5477TIP3    H216365   5.201   7.169   0.951
 5478TIP3   OH216366   4.827   7.259   1.019
 5478TIP3    H116367   4.901   7.294   0.969
 5478TIP3    H216368   4.862   7.244   1.107
 5479TIP3   OH216369   5.124   7.525   1.766
 5479TIP3    H116370   5.164   7.575   1.838
 5479TIP3    H216371   5.179   7.447   1.758
 5480TIP3   OH216372   5.039   6.930   1.101
 5480TIP3    H116373   5.067   6.953   1.189
 5480TIP3    H216374   5.065   7.004   1.047
 5481TIP3   OH216375   4.519   6.909   1.015
 5481TIP3    H116376   4.461   6.969   0.970
 5481TIP3    H216377   4.564   6.862   0.945
 5482TIP3   OH216378   5.755   7.422   1.735
 5482TIP3    H116379   5.662   7.444   1.740
 5482TIP3    H216380   5.759   7.347   1.676
 5483TIP3   OH216381   5.461   7.484   1.100
 5483TIP3    H116382   5.424   7.565   1.134
 5483TIP3    H216383   5.547   7.478   1.140
 5484TIP3   OH216384   4.150   7.829   0.611
 5484TIP3    H116385   4.167   7.923   0.616
 5484TIP3    H216386   4.224   7.793   0.563
 5485TIP3   OH216387   4.069   7.157   0.777
 5485TIP3    H116388   4.120   7.205   0.843
 5485TIP3    H216389   4.027   7.225   0.725
 5486TIP3   OH216390   4.462   6.855   1.600
 5486TIP3    H116391   4.428   6.821   1.518
 5486TIP3    H216392   4.458   6.782   1.661
 5487TIP3   OH216393   4.303   8.022   2.254
 5487TIP3    H116394   4.324   7.929   2.258
 5487TIP3    H216395   4.218   8.025   2.210
 5488TIP3   OH216396   7.731   0.070   2.038
 5488TIP3    H116397   7.708   0.094   1.948
 5488TIP3    H216398   7.780  -0.011   2.030
 5489TIP3   OH216399   8.209   0.106   1.662
 5489TIP3    H116400   8.269   0.170   1.623
 5489TIP3    H216401   8.123   0.148   1.659
 5490TIP3   OH216402   4.425   7.761   2.227
 5490TIP3    H116403   4.505   7.738   2.181
 5490TIP3    H216404   4.453   7.784   2.315
 5491TIP3   OH216405   4.565   7.589   0.590
 5491TIP3    H116406   4.568   7.547   0.676
 5491TIP3    H216407   4.626   7.538   0.536
 5492TIP3   OH216408   4.736   7.630   1.873
 5492TIP3    H116409   4.674   7.699   1.896
 5492TIP3    H216410   4.799   7.673   1.814
 5493TIP3   OH216411   8.104   0.033   1.997
 5493TIP3    H116412   8.180   0.009   1.944
 5493TIP3    H216413   8.109  -0.024   2.073
 5494TIP3   OH216414   4.879   7.440   2.015
 5494TIP3    H116415   4.889   7.362   1.960
 5494TIP3    H216416   4.837   7.504   1.958
 5495TIP3   OH216417   4.889   7.226   1.829
 5495TIP3    H116418   4.920   7.267   1.749
 5495TIP3    H216419   4.799   7.201   1.810
 5496TIP3   OH216420   4.909   7.769   1.712
 5496TIP3    H116421   4.991   7.758   1.665
 5496TIP3    H216422   4.857   7.828   1.657
 5497TIP3   OH216423   5.498   7.725   2.059
 5497TIP3    H116424   5.531   7.635   2.062
 5497TIP3    H216425   5.568   7.776   2.019
 5498TIP3   OH216426   5.520   7.971   1.827
 5498TIP3    H116427   5.465   8.026   1.772
 5498TIP3    H216428   5.608   7.981   1.791
 5499TIP3   OH216429   4.760   7.532   2.250
 5499TIP3    H116430   4.694   7.466   2.271
 5499TIP3    H216431   4.794   7.506   2.165
 5500TIP3   OH216432   5.017   6.995   1.911
 5500TIP3    H116433   4.977   7.078   1.882
 5500TIP3    H216434   4.949   6.929   1.896
 5501TIP3   OH216435   5.142   7.482   2.111
 5501TIP3    H116436   5.133   7.470   2.205
 5501TIP3    H216437   5.055   7.463   2.075
 5502TIP3   OH216438   5.398   7.446   1.990
 5502TIP3    H116439   5.319   7.437   2.043
 5502TIP3    H216440   5.469   7.414   2.046
 5503TIP3   OH216441   5.630   7.397   2.134
 5503TIP3    H116442   5.643   7.302   2.142
 5503TIP3    H216443   5.624   7.428   2.225
 5504TIP3   OH216444   4.599   7.309   2.314
 5504TIP3    H116445   4.608   7.220   2.280
 5504TIP3    H216446   4.636   7.305   2.402
 5505TIP3   OH216447   5.083   6.988   2.175
 5505TIP3    H116448   5.154   6.924   2.173
 5505TIP3    H216449   5.054   6.995   2.085
 5506TIP3   OH216450   5.172   7.206   2.318
 5506TIP3    H116451   5.145   7.133   2.262
 5506TIP3    H216452   5.099   7.267   2.316
 5507TIP3   OH216453   3.875   7.803   0.468
 5507TIP3    H116454   3.829   7.886   0.476
 5507TIP3    H216455   3.827   7.743   0.524
 5508TIP3   OH216456   0.096   0.393   1.872
 5508TIP3    H116457   0.024   0.389   1.936
 5508TIP3    H216458   0.127   0.483   1.877
 5509TIP3   OH216459  -0.006   0.099   1.110
 5509TIP3    H116460   0.079   0.060   1.089
 5509TIP3    H216461  -0.032   0.145   1.031
 5510TIP3   OH216462   5.460   7.649   0.861
 5510TIP3    H116463   5.474   7.559   0.890
 5510TIP3    H216464   5.535   7.698   0.894
 5511TIP3   OH216465   4.108   7.703   1.606
 5511TIP3    H116466   4.097   7.654   1.525
 5511TIP3    H216467   4.201   7.690   1.629
 5512TIP3   OH216468   0.099   0.006   1.719
 5512TIP3    H116469   0.168  -0.059   1.709
 5512TIP3    H216470   0.130   0.082   1.670
 5513TIP3   OH216471   5.957   7.825   1.720
 5513TIP3    H116472   5.885   7.773   1.757
 5513TIP3    H216473   6.036   7.778   1.744
 5514TIP3   OH216474   5.529   7.246   0.576
 5514TIP3    H116475   5.528   7.210   0.665
 5514TIP3    H216476   5.498   7.335   0.585
 5515TIP3   OH216477   5.687   7.497   1.260
 5515TIP3    H116478   5.772   7.521   1.222
 5515TIP3    H216479   5.651   7.578   1.295
 5516TIP3   OH216480   5.741   7.687   1.528
 5516TIP3    H116481   5.648   7.680   1.508
 5516TIP3    H216482   5.770   7.766   1.481
 5517TIP3   OH216483   4.334   7.356   2.244
 5517TIP3    H116484   4.428   7.358   2.262
 5517TIP3    H216485   4.304   7.275   2.285
 5518TIP3   OH216486   6.184   7.248   2.009
 5518TIP3    H116487   6.246   7.190   1.965
 5518TIP3    H216488   6.149   7.304   1.939
 5519TIP3   OH216489   5.578   7.099   0.802
 5519TIP3    H116490   5.622   7.064   0.879
 5519TIP3    H216491   5.515   7.032   0.777
 5520TIP3   OH216492   4.287   7.070   1.619
 5520TIP3    H116493   4.346   6.994   1.621
 5520TIP3    H216494   4.344   7.145   1.601
 5521TIP3   OH216495   4.086   7.346   1.677
 5521TIP3    H116496   4.139   7.341   1.597
 5521TIP3    H216497   4.127   7.415   1.728
 5522TIP3   OH216498   6.030   7.385   1.824
 5522TIP3    H116499   5.960   7.423   1.877
 5522TIP3    H216500   5.990   7.312   1.778
 5523TIP3   OH216501   4.068   6.830   1.215
 5523TIP3    H116502   3.981   6.810   1.182
 5523TIP3    H216503   4.097   6.906   1.163
 5524TIP3   OH216504   4.305   6.933   2.007
 5524TIP3    H116505   4.252   6.913   2.084
 5524TIP3    H216506   4.243   6.966   1.942
 5525TIP3   OH216507   5.929   7.137   1.727
 5525TIP3    H116508   5.843   7.138   1.686
 5525TIP3    H216509   5.959   7.046   1.720
 5526TIP3   OH216510   5.086   7.006   1.355
 5526TIP3    H116511   5.055   6.943   1.419
 5526TIP3    H216512   5.156   7.053   1.399
 5527TIP3   OH216513   5.652   6.979   1.320
 5527TIP3    H116514   5.689   7.063   1.295
 5527TIP3    H216515   5.557   6.992   1.315
 5528TIP3   OH216516   5.707   6.977   1.008
 5528TIP3    H116517   5.781   6.944   0.957
 5528TIP3    H216518   5.745   7.041   1.067
 5529TIP3   OH216519   4.352   6.744   1.374
 5529TIP3    H116520   4.263   6.711   1.385
 5529TIP3    H216521   4.405   6.666   1.364
 5530TIP3   OH216522   4.162   6.630   1.045
 5530TIP3    H116523   4.190   6.680   0.969
 5530TIP3    H216524   4.139   6.697   1.110
 5531TIP3   OH216525   4.840   6.817   1.263
 5531TIP3    H116526   4.885   6.867   1.195
 5531TIP3    H216527   4.883   6.841   1.344
 5532TIP3   OH216528   5.381   6.968   1.278
 5532TIP3    H116529   5.371   6.946   1.186
 5532TIP3    H216530   5.346   6.892   1.325
 5533TIP3   OH216531   5.495   6.810   0.792
 5533TIP3    H116532   5.401   6.826   0.782
 5533TIP3    H216533   5.504   6.776   0.881
 5534TIP3   OH216534   4.249   6.777   0.832
 5534TIP3    H116535   4.298   6.709   0.785
 5534TIP3    H216536   4.298   6.858   0.814
 5535TIP3   OH216537   4.832   7.016   0.883
 5535TIP3    H116538   4.890   6.959   0.934
 5535TIP3    H216539   4.834   7.099   0.931
 5536TIP3   OH216540   4.614   7.039   2.224
 5536TIP3    H116541   4.577   6.974   2.284
 5536TIP3    H216542   4.706   7.045   2.248
 5537TIP3   OH216543   4.861   7.040   2.347
 5537TIP3    H116544   4.940   7.020   2.297
 5537TIP3    H216545   4.857   6.972   2.414
 5538TIP3   OH216546   5.686   7.125   2.142
 5538TIP3    H116547   5.701   7.095   2.232
 5538TIP3    H216548   5.771   7.120   2.100
 5539TIP3   OH216549   6.199   7.919   1.067
 5539TIP3    H116550   6.213   7.952   1.156
 5539TIP3    H216551   6.165   7.993   1.019
 5540TIP3   OH216552   6.067   7.614   0.850
 5540TIP3    H116553   6.106   7.615   0.937
 5540TIP3    H216554   6.120   7.551   0.801
 5541TIP3   OH216555   6.309   7.450   1.259
 5541TIP3    H116556   6.326   7.356   1.261
 5541TIP3    H216557   6.298   7.475   1.350
 5542TIP3   OH216558   6.267   7.437   0.986
 5542TIP3    H116559   6.276   7.464   1.077
 5542TIP3    H216560   6.336   7.486   0.940
 5543TIP3   OH216561   6.753   7.174   0.961
 5543TIP3    H116562   6.695   7.141   0.892
 5543TIP3    H216563   6.694   7.200   1.031
 5544TIP3   OH216564   0.676   0.108   1.537
 5544TIP3    H116565   0.617   0.179   1.511
 5544TIP3    H216566   0.676   0.049   1.461
 5545TIP3   OH216567   0.344   0.187   1.310
 5545TIP3    H116568   0.258   0.188   1.268
 5545TIP3    H216569   0.332   0.133   1.388
 5546TIP3   OH216570   6.547   7.240   1.133
 5546TIP3    H116571   6.480   7.190   1.086
 5546TIP3    H216572   6.514   7.244   1.223
 5547TIP3   OH216573   7.105   7.269   1.344
 5547TIP3    H116574   7.173   7.334   1.364
 5547TIP3    H216575   7.024   7.309   1.377
 5548TIP3   OH216576   6.455   7.729   1.202
 5548TIP3    H116577   6.391   7.733   1.273
 5548TIP3    H216578   6.465   7.820   1.174
 5549TIP3   OH216579   6.314   7.729   1.442
 5549TIP3    H116580   6.341   7.789   1.512
 5549TIP3    H216581   6.293   7.647   1.488
 5550TIP3   OH216582   5.850   7.286   0.883
 5550TIP3    H116583   5.910   7.213   0.897
 5550TIP3    H216584   5.876   7.322   0.798
 5551TIP3   OH216585   6.009   8.008   1.513
 5551TIP3    H116586   6.026   7.962   1.596
 5551TIP3    H216587   5.935   7.960   1.475
 5552TIP3   OH216588   6.259   7.479   1.529
 5552TIP3    H116589   6.165   7.465   1.543
 5552TIP3    H216590   6.301   7.415   1.587
 5553TIP3   OH216591   6.360   7.140   0.958
 5553TIP3    H116592   6.319   7.121   0.874
 5553TIP3    H216593   6.342   7.062   1.011
 5554TIP3   OH216594   0.438   0.229   1.744
 5554TIP3    H116595   0.461   0.137   1.735
 5554TIP3    H216596   0.351   0.236   1.705
 5555TIP3   OH216597   0.562  -0.024   1.749
 5555TIP3    H116598   0.619   0.011   1.680
 5555TIP3    H216599   0.592   0.019   1.829
 5556TIP3   OH216600   6.764   7.690   1.618
 5556TIP3    H116601   6.850   7.677   1.579
 5556TIP3    H216602   6.703   7.648   1.557
 5557TIP3   OH216603   6.659   7.517   1.183
 5557TIP3    H116604   6.708   7.560   1.112
 5557TIP3    H216605   6.577   7.566   1.189
 5558TIP3   OH216606   6.549   7.814   1.740
 5558TIP3    H116607   6.492   7.741   1.766
 5558TIP3    H216608   6.626   7.771   1.702
 5559TIP3   OH216609   6.832   7.376   1.349
 5559TIP3    H116610   6.786   7.441   1.296
 5559TIP3    H216611   6.837   7.298   1.293
 5560TIP3   OH216612   6.411   7.582   1.815
 5560TIP3    H116613   6.408   7.496   1.773
 5560TIP3    H216614   6.447   7.565   1.902
 5561TIP3   OH216615   6.989   7.294   1.614
 5561TIP3    H116616   7.053   7.224   1.603
 5561TIP3    H216617   6.904   7.252   1.596
 5562TIP3   OH216618   7.014   7.459   1.829
 5562TIP3    H116619   7.007   7.404   1.751
 5562TIP3    H216620   6.930   7.505   1.833
 5563TIP3   OH216621   5.909   7.982   1.117
 5563TIP3    H116622   5.918   7.939   1.032
 5563TIP3    H216623   5.996   7.973   1.158
 5564TIP3   OH216624   6.143   7.635   1.786
 5564TIP3    H116625   6.238   7.632   1.795
 5564TIP3    H216626   6.114   7.549   1.816
 5565TIP3   OH216627   6.115   7.249   1.112
 5565TIP3    H116628   6.136   7.162   1.079
 5565TIP3    H216629   6.180   7.307   1.072
 5566TIP3   OH216630   5.855   7.708   1.182
 5566TIP3    H116631   5.898   7.634   1.138
 5566TIP3    H216632   5.916   7.733   1.252
 5567TIP3   OH216633   6.110   7.205   1.524
 5567TIP3    H116634   6.055   7.188   1.600
 5567TIP3    H216635   6.050   7.237   1.457
 5568TIP3   OH216636   6.221   7.066   0.731
 5568TIP3    H116637   6.141   7.050   0.781
 5568TIP3    H216638   6.267   6.982   0.731
 5569TIP3   OH216639   6.388   7.318   1.721
 5569TIP3    H116640   6.353   7.236   1.756
 5569TIP3    H216641   6.481   7.317   1.745
 5570TIP3   OH216642   6.627   7.297   1.848
 5570TIP3    H116643   6.718   7.288   1.818
 5570TIP3    H216644   6.616   7.225   1.911
 5571TIP3   OH216645   1.874   0.517   5.768
 5571TIP3    H116646   1.877   0.446   5.831
 5571TIP3    H216647   1.891   0.596   5.819
 5572TIP3   OH216648   1.466   0.976   5.766
 5572TIP3    H116649   1.525   0.925   5.710
 5572TIP3    H216650   1.477   0.937   5.853
 5573TIP3   OH216651   8.101   7.956   6.343
 5573TIP3    H116652   8.024   7.998   6.304
 5573TIP3    H216653   8.159   8.028   6.367
 5574TIP3   OH216654   1.513   0.437   5.527
 5574TIP3    H116655   1.475   0.395   5.450
 5574TIP3    H216656   1.463   0.518   5.537
 5575TIP3   OH216657   1.889   0.765   5.910
 5575TIP3    H116658   1.798   0.751   5.938
 5575TIP3    H216659   1.886   0.846   5.859
 5576TIP3   OH216660   1.631   0.822   5.603
 5576TIP3    H116661   1.676   0.739   5.588
 5576TIP3    H216662   1.691   0.888   5.570
 5577TIP3   OH216663   1.748   0.588   5.533
 5577TIP3    H116664   1.683   0.519   5.519
 5577TIP3    H216665   1.804   0.555   5.603
 5578TIP3   OH216666   2.133   0.658   6.251
 5578TIP3    H116667   2.125   0.583   6.191
 5578TIP3    H216668   2.117   0.734   6.195
 5579TIP3   OH216669   2.323   0.307   6.113
 5579TIP3    H116670   2.243   0.359   6.107
 5579TIP3    H216671   2.361   0.313   6.025
 5580TIP3   OH216672   1.805   0.172   5.499
 5580TIP3    H116673   1.730   0.179   5.558
 5580TIP3    H216674   1.874   0.131   5.551
 5581TIP3   OH216675   1.640   0.752   6.019
 5581TIP3    H116676   1.634   0.829   6.075
 5581TIP3    H216677   1.650   0.678   6.079
 5582TIP3   OH216678   1.394   0.693   5.543
 5582TIP3    H116679   1.472   0.733   5.581
 5582TIP3    H216680   1.325   0.758   5.555
 5583TIP3   OH216681   1.941   0.597   4.926
 5583TIP3    H116682   1.937   0.689   4.900
 5583TIP3    H216683   2.031   0.570   4.906
 5584TIP3   OH216684   2.362   1.003   6.301
 5584TIP3    H116685   2.369   0.909   6.320
 5584TIP3    H216686   2.283   1.031   6.347
 5585TIP3   OH216687   1.481   0.807   6.401
 5585TIP3    H116688   1.473   0.893   6.442
 5585TIP3    H216689   1.422   0.751   6.451
 5586TIP3   OH216690   1.224   0.902   5.368
 5586TIP3    H116691   1.184   0.897   5.281
 5586TIP3    H216692   1.202   0.989   5.399
 5587TIP3   OH216693   1.434   0.821   5.043
 5587TIP3    H116694   1.487   0.751   5.005
 5587TIP3    H216695   1.470   0.833   5.131
 5588TIP3   OH216696   1.494   0.872   5.310
 5588TIP3    H116697   1.404   0.879   5.342
 5588TIP3    H216698   1.534   0.805   5.365
 5589TIP3   OH216699   2.237   0.138   6.585
 5589TIP3    H116700   2.166   0.201   6.572
 5589TIP3    H216701   2.203   0.055   6.550
 5590TIP3   OH216702   1.703   0.010   5.110
 5590TIP3    H116703   1.670  -0.016   5.024
 5590TIP3    H216704   1.768   0.078   5.092
 5591TIP3   OH216705   2.078   1.362   6.402
 5591TIP3    H116706   2.077   1.378   6.308
 5591TIP3    H216707   2.158   1.405   6.432
 5592TIP3   OH216708   2.095   0.458   6.068
 5592TIP3    H116709   2.132   0.506   5.994
 5592TIP3    H216710   2.020   0.412   6.032
 5593TIP3   OH216711   1.395   0.399   5.244
 5593TIP3    H116712   1.330   0.468   5.263
 5593TIP3    H216713   1.343   0.320   5.233
 5594TIP3   OH216714   1.760   0.805   6.373
 5594TIP3    H116715   1.665   0.800   6.369
 5594TIP3    H216716   1.779   0.841   6.460
 5595TIP3   OH216717   7.869   7.873   5.233
 5595TIP3    H116718   7.803   7.816   5.194
 5595TIP3    H216719   7.847   7.961   5.201
 5596TIP3   OH216720   2.385   0.724   6.335
 5596TIP3    H116721   2.290   0.709   6.334
 5596TIP3    H216722   2.414   0.697   6.248
 5597TIP3   OH216723   1.853   0.658   5.187
 5597TIP3    H116724   1.836   0.582   5.244
 5597TIP3    H216725   1.882   0.619   5.104
 5598TIP3   OH216726   1.885   0.313   5.963
 5598TIP3    H116727   1.797   0.304   6.001
 5598TIP3    H216728   1.913   0.223   5.945
 5599TIP3   OH216729   1.271   0.917   6.238
 5599TIP3    H116730   1.313   0.974   6.173
 5599TIP3    H216731   1.343   0.868   6.277
 5600TIP3   OH216732   1.702   0.543   6.195
 5600TIP3    H116733   1.641   0.519   6.264
 5600TIP3    H216734   1.789   0.538   6.236
 5601TIP3   OH216735   1.631   0.414   5.093
 5601TIP3    H116736   1.699   0.384   5.154
 5601TIP3    H216737   1.551   0.415   5.146
 5602TIP3   OH216738   1.879   1.055   6.251
 5602TIP3    H116739   1.810   0.989   6.252
 5602TIP3    H216740   1.864   1.104   6.170
 5603TIP3   OH216741   1.937   0.872   4.879
 5603TIP3    H116742   1.956   0.929   4.805
 5603TIP3    H216743   1.863   0.913   4.924
 5604TIP3   OH216744   1.817   0.341   5.276
 5604TIP3    H116745   1.797   0.282   5.349
 5604TIP3    H216746   1.912   0.337   5.266
 5605TIP3   OH216747   1.200   0.589   5.296
 5605TIP3    H116748   1.137   0.574   5.367
 5605TIP3    H216749   1.225   0.681   5.305
 5606TIP3   OH216750   1.902   1.027   5.795
 5606TIP3    H116751   1.872   1.010   5.706
 5606TIP3    H216752   1.993   1.054   5.785
 5607TIP3   OH216753   1.161   0.562   5.017
 5607TIP3    H116754   1.184   0.541   5.107
 5607TIP3    H216755   1.225   0.514   4.964
 5608TIP3   OH216756   1.832   0.889   6.627
 5608TIP3    H116757   1.881   0.818   6.668
 5608TIP3    H216758   1.892   0.963   6.629
 5609TIP3   OH216759   1.587   0.633   4.919
 5609TIP3    H116760   1.637   0.574   4.975
 5609TIP3    H216761   1.634   0.632   4.836
 5610TIP3   OH216762   1.914   0.569   6.390
 5610TIP3    H116763   1.998   0.597   6.354
 5610TIP3    H216764   1.861   0.649   6.392
 5611TIP3   OH216765   1.908   0.146   4.968
 5611TIP3    H116766   1.916   0.098   4.886
 5611TIP3    H216767   1.872   0.231   4.942
 5612TIP3   OH216768   2.073   0.368   6.537
 5612TIP3    H116769   2.003   0.420   6.497
 5612TIP3    H216770   2.154   0.405   6.502
 5613TIP3   OH216771   0.900   0.936   5.101
 5613TIP3    H116772   0.984   0.890   5.102
 5613TIP3    H216773   0.853   0.899   5.027
 5614TIP3   OH216774   2.156   1.138   5.795
 5614TIP3    H116775   2.190   1.129   5.884
 5614TIP3    H216776   2.233   1.135   5.739
 5615TIP3   OH216777   2.215   1.098   6.073
 5615TIP3    H116778   2.163   1.018   6.074
 5615TIP3    H216779   2.287   1.080   6.134
 5616TIP3   OH216780   2.257   0.810   6.636
 5616TIP3    H116781   2.183   0.820   6.696
 5616TIP3    H216782   2.307   0.891   6.646
 5617TIP3   OH216783   2.091   0.326   5.269
 5617TIP3    H116784   2.153   0.394   5.242
 5617TIP3    H216785   2.123   0.297   5.354
 5618TIP3   OH216786   2.183   0.210   5.500
 5618TIP3    H116787   2.123   0.174   5.565
 5618TIP3    H216788   2.259   0.239   5.550
 5619TIP3   OH216789   2.254   0.590   5.889
 5619TIP3    H116790   2.308   0.517   5.859
 5619TIP3    H216791   2.271   0.660   5.826
 5620TIP3   OH216792   2.054   0.876   6.100
 5620TIP3    H116793   1.986   0.911   6.157
 5620TIP3    H216794   2.007   0.828   6.032
 5621TIP3   OH216795   2.122   0.096   5.124
 5621TIP3    H116796   2.047   0.107   5.066
 5621TIP3    H216797   2.118   0.172   5.182
 5622TIP3   OH216798   7.675   7.800   5.053
 5622TIP3    H116799   7.626   7.875   5.085
 5622TIP3    H216800   7.609   7.743   5.014
 5623TIP3   OH216801   2.013   0.044   5.662
 5623TIP3    H116802   2.032  -0.039   5.620
 5623TIP3    H216803   2.040   0.032   5.753
 5624TIP3   OH216804   2.317   0.462   6.450
 5624TIP3    H116805   2.375   0.386   6.440
 5624TIP3    H216806   2.353   0.528   6.391
 5625TIP3   OH216807   2.462   0.234   6.453
 5625TIP3    H116808   2.393   0.193   6.505
 5625TIP3    H216809   2.542   0.187   6.479
 5626TIP3   OH216810   2.119   0.019   5.962
 5626TIP3    H116811   2.209   0.025   5.929
 5626TIP3    H216812   2.130   0.004   6.056
 5627TIP3   OH216813   2.216   0.092   6.244
 5627TIP3    H116814   2.144   0.140   6.283
 5627TIP3    H216815   2.266   0.159   6.196
 5628TIP3   OH216816   1.811   0.991   5.488
 5628TIP3    H116817   1.787   0.952   5.404
 5628TIP3    H216818   1.897   1.030   5.473
 5629TIP3   OH216819   1.481   1.048   6.525
 5629TIP3    H116820   1.516   1.029   6.612
 5629TIP3    H216821   1.546   1.107   6.486
 5630TIP3   OH216822   1.668   1.206   6.399
 5630TIP3    H116823   1.737   1.157   6.353
 5630TIP3    H216824   1.715   1.275   6.447
 5631TIP3   OH216825   1.382   1.095   6.057
 5631TIP3    H116826   1.310   1.114   5.996
 5631TIP3    H216827   1.395   1.178   6.103
 5632TIP3   OH216828   1.636   1.016   6.113
 5632TIP3    H116829   1.543   1.033   6.100
 5632TIP3    H216830   1.680   1.086   6.065
 5633TIP3   OH216831   1.844   1.199   6.006
 5633TIP3    H116832   1.808   1.272   5.956
 5633TIP3    H216833   1.867   1.134   5.940
 5634TIP3   OH216834   1.160   0.829   5.103
 5634TIP3    H116835   1.249   0.846   5.072
 5634TIP3    H216836   1.140   0.741   5.071
 5635TIP3   OH216837   1.883   0.929   5.219
 5635TIP3    H116838   1.878   0.834   5.212
 5635TIP3    H216839   1.843   0.961   5.138
 5636TIP3   OH216840   2.116   1.088   6.394
 5636TIP3    H116841   2.037   1.063   6.347
 5636TIP3    H216842   2.109   1.183   6.404
 5637TIP3   OH216843   3.372   0.459   5.159
 5637TIP3    H116844   3.342   0.548   5.141
 5637TIP3    H216845   3.302   0.403   5.126
 5638TIP3   OH216846   3.374   0.472   5.586
 5638TIP3    H116847   3.431   0.444   5.657
 5638TIP3    H216848   3.328   0.392   5.559
 5639TIP3   OH216849   2.682   0.334   5.923
 5639TIP3    H116850   2.719   0.278   5.991
 5639TIP3    H216851   2.756   0.350   5.863
 5640TIP3   OH216852   3.645   0.772   5.250
 5640TIP3    H116853   3.626   0.709   5.320
 5640TIP3    H216854   3.671   0.852   5.296
 5641TIP3   OH216855   2.657   0.748   5.620
 5641TIP3    H116856   2.648   0.652   5.618
 5641TIP3    H216857   2.751   0.763   5.611
 5642TIP3   OH216858   8.001   7.999   5.440
 5642TIP3    H116859   7.950   8.079   5.451
 5642TIP3    H216860   7.950   7.947   5.378
 5643TIP3   OH216861   2.431   0.265   5.613
 5643TIP3    H116862   2.474   0.181   5.630
 5643TIP3    H216863   2.501   0.323   5.583
 5644TIP3   OH216864   3.310   1.197   5.264
 5644TIP3    H116865   3.333   1.134   5.195
 5644TIP3    H216866   3.322   1.148   5.345
 5645TIP3   OH216867   3.185   0.690   5.586
 5645TIP3    H116868   3.227   0.608   5.560
 5645TIP3    H216869   3.257   0.747   5.612
 5646TIP3   OH216870   3.632   0.165   5.639
 5646TIP3    H116871   3.705   0.103   5.637
 5646TIP3    H216872   3.582   0.146   5.559
 5647TIP3   OH216873   0.065   7.834   5.603
 5647TIP3    H116874   0.066   7.903   5.538
 5647TIP3    H216875   0.048   7.754   5.553
 5648TIP3   OH216876   0.722   7.966   5.265
 5648TIP3    H116877   0.796   7.907   5.276
 5648TIP3    H216878   0.716   7.981   5.171
 5649TIP3   OH216879   2.564   0.033   5.684
 5649TIP3    H116880   2.647   0.025   5.732
 5649TIP3    H216881   2.575  -0.023   5.607
 5650TIP3   OH216882   2.981   0.240   5.523
 5650TIP3    H116883   3.076   0.229   5.527
 5650TIP3    H216884   2.949   0.155   5.493
 5651TIP3   OH216885   4.262   0.228   5.769
 5651TIP3    H116886   4.170   0.255   5.760
 5651TIP3    H216887   4.283   0.248   5.861
 5652TIP3   OH216888   3.246   0.673   5.040
 5652TIP3    H116889   3.228   0.657   4.947
 5652TIP3    H216890   3.206   0.758   5.059
 5653TIP3   OH216891   3.032   0.604   5.798
 5653TIP3    H116892   2.978   0.674   5.833
 5653TIP3    H216893   3.080   0.644   5.726
 5654TIP3   OH216894  -0.027   8.000   5.800
 5654TIP3    H116895   0.050   8.045   5.835
 5654TIP3    H216896   0.009   7.932   5.742
 5655TIP3   OH216897   2.872   0.807   5.903
 5655TIP3    H116898   2.857   0.896   5.870
 5655TIP3    H216899   2.795   0.786   5.954
 5656TIP3   OH216900   2.264   0.510   5.153
 5656TIP3    H116901   2.228   0.524   5.065
 5656TIP3    H216902   2.290   0.597   5.182
 5657TIP3   OH216903   3.686   1.017   5.392
 5657TIP3    H116904   3.597   1.010   5.426
 5657TIP3    H216905   3.688   1.101   5.345
 5658TIP3   OH216906   3.392   1.046   5.044
 5658TIP3    H116907   3.442   0.965   5.034
 5658TIP3    H216908   3.453   1.115   5.017
 5659TIP3   OH216909   3.543   0.827   4.997
 5659TIP3    H116910   3.548   0.750   4.941
 5659TIP3    H216911   3.581   0.798   5.081
 5660TIP3   OH216912   3.921   0.909   5.734
 5660TIP3    H116913   3.905   0.833   5.678
 5660TIP3    H216914   3.908   0.984   5.678
 5661TIP3   OH216915   3.199   0.315   4.996
 5661TIP3    H116916   3.122   0.365   4.969
 5661TIP3    H216917   3.251   0.307   4.916
 5662TIP3   OH216918   3.173   0.114   4.715
 5662TIP3    H116919   3.244   0.170   4.746
 5662TIP3    H216920   3.200   0.026   4.740
 5663TIP3   OH216921   4.109   0.581   5.608
 5663TIP3    H116922   4.021   0.618   5.606
 5663TIP3    H216923   4.141   0.589   5.518
 5664TIP3   OH216924   3.559   0.408   4.965
 5664TIP3    H116925   3.499   0.427   5.037
 5664TIP3    H216926   3.645   0.398   5.007
 5665TIP3   OH216927   3.791   0.437   5.902
 5665TIP3    H116928   3.780   0.519   5.951
 5665TIP3    H216929   3.708   0.426   5.855
 5666TIP3   OH216930   2.795   0.381   5.373
 5666TIP3    H116931   2.760   0.321   5.307
 5666TIP3    H216932   2.865   0.331   5.415
 5667TIP3   OH216933   2.923   0.801   5.520
 5667TIP3    H116934   2.902   0.784   5.428
 5667TIP3    H216935   3.011   0.764   5.531
 5668TIP3   OH216936   2.897   0.369   5.751
 5668TIP3    H116937   2.932   0.329   5.671
 5668TIP3    H216938   2.950   0.447   5.764
 5669TIP3   OH216939   3.441   1.013   5.514
 5669TIP3    H116940   3.438   1.089   5.572
 5669TIP3    H216941   3.433   0.938   5.572
 5670TIP3   OH216942   3.073   0.912   6.065
 5670TIP3    H116943   3.011   0.969   6.112
 5670TIP3    H216944   3.017   0.857   6.009
 5671TIP3   OH216945   3.396   0.255   4.801
 5671TIP3    H116946   3.457   0.310   4.850
 5671TIP3    H216947   3.429   0.256   4.711
 5672TIP3   OH216948   2.831   0.479   6.185
 5672TIP3    H116949   2.835   0.569   6.218
 5672TIP3    H216950   2.738   0.460   6.177
 5673TIP3   OH216951   3.140   0.932   5.058
 5673TIP3    H116952   3.227   0.972   5.061
 5673TIP3    H216953   3.089   0.991   5.002
 5674TIP3   OH216954   2.860   1.070   6.147
 5674TIP3    H116955   2.835   1.076   6.055
 5674TIP3    H216956   2.777   1.056   6.193
 5675TIP3   OH216957   2.677   0.220   5.175
 5675TIP3    H116958   2.593   0.252   5.140
 5675TIP3    H216959   2.662   0.128   5.193
 5676TIP3   OH216960   3.736   0.855   4.409
 5676TIP3    H116961   3.732   0.948   4.386
 5676TIP3    H216962   3.825   0.829   4.388
 5677TIP3   OH216963   2.453   0.621   6.093
 5677TIP3    H116964   2.390   0.598   6.026
 5677TIP3    H216965   2.489   0.537   6.122
 5678TIP3   OH216966   2.365   0.798   5.727
 5678TIP3    H116967   2.447   0.768   5.690
 5678TIP3    H216968   2.391   0.863   5.793
 5679TIP3   OH216969   4.151   1.256   5.801
 5679TIP3    H116970   4.156   1.162   5.816
 5679TIP3    H216971   4.072   1.284   5.848
 5680TIP3   OH216972   3.261   1.054   5.924
 5680TIP3    H116973   3.254   1.144   5.955
 5680TIP3    H216974   3.196   1.006   5.976
 5681TIP3   OH216975   3.037   1.142   4.880
 5681TIP3    H116976   2.998   1.121   4.795
 5681TIP3    H216977   3.002   1.227   4.902
 5682TIP3   OH216978   2.466   1.012   5.267
 5682TIP3    H116979   2.516   1.001   5.348
 5682TIP3    H216980   2.424   0.927   5.253
 5683TIP3   OH216981   3.241   1.079   4.510
 5683TIP3    H116982   3.291   1.005   4.473
 5683TIP3    H216983   3.279   1.092   4.597
 5684TIP3   OH216984   3.294   1.125   4.780
 5684TIP3    H116985   3.208   1.125   4.821
 5684TIP3    H216986   3.352   1.086   4.845
 5685TIP3   OH216987   4.032   0.383   6.082
 5685TIP3    H116988   3.964   0.419   6.025
 5685TIP3    H216989   4.014   0.288   6.083
 5686TIP3   OH216990   2.649   0.812   6.069
 5686TIP3    H116991   2.702   0.801   6.149
 5686TIP3    H216992   2.582   0.744   6.076
 5687TIP3   OH216993   3.837   0.189   6.042
 5687TIP3    H116994   3.774   0.209   6.112
 5687TIP3    H216995   3.810   0.245   5.969
 5688TIP3   OH216996   3.475   0.245   4.539
 5688TIP3    H116997   3.428   0.248   4.456
 5688TIP3    H216998   3.560   0.284   4.520
 5689TIP3   OH216999   2.997   0.158   5.914
 5689TIP3    H117000   2.938   0.165   5.989
 5689TIP3    H217001   2.974   0.232   5.858
 5690TIP3   OH217002   2.849   0.018   5.417
 5690TIP3    H117003   2.758  -0.009   5.427
 5690TIP3    H217004   2.870  -0.004   5.326
 5691TIP3   OH217005   3.307   0.124   5.159
 5691TIP3    H117006   3.261   0.191   5.108
 5691TIP3    H217007   3.386   0.105   5.109
 5692TIP3   OH217008   3.529   0.386   6.205
 5692TIP3    H117009   3.495   0.321   6.266
 5692TIP3    H217010   3.621   0.398   6.231
 5693TIP3   OH217011   3.473   0.169   5.400
 5693TIP3    H117012   3.413   0.205   5.334
 5693TIP3    H217013   3.502   0.085   5.363
 5694TIP3   OH217014   2.814   0.187   6.120
 5694TIP3    H117015   2.840   0.260   6.177
 5694TIP3    H217016   2.787   0.118   6.181
 5695TIP3   OH217017   8.132   7.773   5.226
 5695TIP3    H117018   8.136   7.767   5.131
 5695TIP3    H217019   8.042   7.800   5.244
 5696TIP3   OH217020   3.534   0.366   5.792
 5696TIP3    H117021   3.572   0.300   5.733
 5696TIP3    H217022   3.496   0.315   5.863
 5697TIP3   OH217023   8.260   7.923   5.428
 5697TIP3    H117024   8.171   7.956   5.436
 5697TIP3    H217025   8.254   7.852   5.364
 5698TIP3   OH217026   0.048   7.947   5.161
 5698TIP3    H117027   0.141   7.927   5.151
 5698TIP3    H217028   0.010   7.926   5.075
 5699TIP3   OH217029   8.418   7.926   4.908
 5699TIP3    H117030   8.340   7.926   4.853
 5699TIP3    H217031   8.483   7.976   4.858
 5700TIP3   OH217032   3.867   1.608   5.894
 5700TIP3    H117033   3.865   1.621   5.799
 5700TIP3    H217034   3.946   1.653   5.923
 5701TIP3   OH217035   2.809   0.735   6.302
 5701TIP3    H117036   2.891   0.750   6.348
 5701TIP3    H217037   2.743   0.733   6.372
 5702TIP3   OH217038   3.254   0.215   5.565
 5702TIP3    H117039   3.329   0.179   5.518
 5702TIP3    H217040   3.259   0.175   5.652
 5703TIP3   OH217041   3.259   0.124   5.821
 5703TIP3    H117042   3.172   0.127   5.863
 5703TIP3    H217043   3.319   0.154   5.890
 5704TIP3   OH217044   2.964   0.460   4.935
 5704TIP3    H117045   2.895   0.395   4.920
 5704TIP3    H217046   2.947   0.493   5.023
 5705TIP3   OH217047   3.865   0.704   5.560
 5705TIP3    H117048   3.898   0.751   5.484
 5705TIP3    H217049   3.782   0.667   5.531
 5706TIP3   OH217050   0.466   7.897   4.786
 5706TIP3    H117051   0.453   7.815   4.834
 5706TIP3    H217052   0.557   7.921   4.803
 5707TIP3   OH217053   3.388   0.783   5.956
 5707TIP3    H117054   3.440   0.768   6.035
 5707TIP3    H217055   3.351   0.871   5.967
 5708TIP3   OH217056   3.529   0.066   5.002
 5708TIP3    H117057   3.620   0.095   5.006
 5708TIP3    H217058   3.498   0.097   4.916
 5709TIP3   OH217059   2.668   0.467   5.602
 5709TIP3    H117060   2.706   0.446   5.516
 5709TIP3    H217061   2.731   0.433   5.665
 5710TIP3   OH217062   3.134   0.608   4.784
 5710TIP3    H117063   3.089   0.693   4.782
 5710TIP3    H217064   3.077   0.551   4.835
 5711TIP3   OH217065   2.564   0.417   6.246
 5711TIP3    H117066   2.603   0.408   6.333
 5711TIP3    H217067   2.502   0.344   6.241
 5712TIP3   OH217068   3.294   0.536   6.255
 5712TIP3    H117069   3.225   0.480   6.221
 5712TIP3    H217070   3.375   0.501   6.218
 5713TIP3   OH217071   3.531   1.072   5.844
 5713TIP3    H117072   3.437   1.058   5.850
 5713TIP3    H217073   3.555   1.109   5.929
 5714TIP3   OH217074   3.905   0.153   4.752
 5714TIP3    H117075   3.855   0.099   4.690
 5714TIP3    H217076   3.917   0.236   4.706
 5715TIP3   OH217077   4.169   0.975   5.827
 5715TIP3    H117078   4.074   0.966   5.816
 5715TIP3    H217079   4.206   0.946   5.743
 5716TIP3   OH217080   3.652   0.924   4.668
 5716TIP3    H117081   3.629   0.849   4.723
 5716TIP3    H217082   3.676   0.886   4.584
 5717TIP3   OH217083   3.613   0.594   5.472
 5717TIP3    H117084   3.524   0.570   5.497
 5717TIP3    H217085   3.648   0.516   5.429
 5718TIP3   OH217086   2.795   0.802   5.268
 5718TIP3    H117087   2.796   0.880   5.212
 5718TIP3    H217088   2.706   0.769   5.261
 5719TIP3   OH217089   2.347   0.072   4.965
 5719TIP3    H117090   2.397   0.152   4.984
 5719TIP3    H217091   2.269   0.080   5.020
 5720TIP3   OH217092   2.883   0.555   5.174
 5720TIP3    H117093   2.878   0.644   5.208
 5720TIP3    H217094   2.859   0.499   5.248
 5721TIP3   OH217095   3.073   1.122   5.720
 5721TIP3    H117096   3.111   1.193   5.669
 5721TIP3    H217097   3.146   1.086   5.771
 5722TIP3   OH217098   2.700   1.027   5.116
 5722TIP3    H117099   2.614   1.033   5.157
 5722TIP3    H217100   2.734   1.116   5.118
 5723TIP3   OH217101   3.430   0.789   5.682
 5723TIP3    H117102   3.420   0.780   5.777
 5723TIP3    H217103   3.503   0.732   5.660
 5724TIP3   OH217104   3.418   0.666   4.573
 5724TIP3    H117105   3.465   0.653   4.655
 5724TIP3    H217106   3.332   0.625   4.587
 5725TIP3   OH217107   3.685   1.287   5.733
 5725TIP3    H117108   3.615   1.223   5.747
 5725TIP3    H217109   3.653   1.342   5.661
 5726TIP3   OH217110   3.734   1.128   4.368
 5726TIP3    H117111   3.746   1.183   4.291
 5726TIP3    H217112   3.665   1.172   4.418
 5727TIP3   OH217113   3.584   0.623   4.793
 5727TIP3    H117114   3.567   0.547   4.849
 5727TIP3    H217115   3.678   0.618   4.774
 5728TIP3   OH217116   2.491   0.999   5.892
 5728TIP3    H117117   2.547   0.938   5.941
 5728TIP3    H217118   2.510   1.084   5.932
 5729TIP3   OH217119   2.768   0.636   4.577
 5729TIP3    H117120   2.781   0.546   4.548
 5729TIP3    H217121   2.755   0.629   4.671
 5730TIP3   OH217122   2.720   0.645   4.851
 5730TIP3    H117123   2.798   0.615   4.898
 5730TIP3    H217124   2.723   0.740   4.858
 5731TIP3   OH217125   2.447   0.322   5.050
 5731TIP3    H117126   2.386   0.373   5.104
 5731TIP3    H217127   2.473   0.382   4.980
 5732TIP3   OH217128   2.986   0.834   4.785
 5732TIP3    H117129   2.903   0.860   4.825
 5732TIP3    H217130   3.008   0.906   4.725
 5733TIP3   OH217131   0.324   7.907   5.171
 5733TIP3    H117132   0.370   7.991   5.165
 5733TIP3    H217133   0.378   7.854   5.230
 5734TIP3   OH217134   3.450   0.211   6.006
 5734TIP3    H117135   3.467   0.276   6.074
 5734TIP3    H217136   3.497   0.133   6.035
 5735TIP3   OH217137   2.736   0.919   4.865
 5735TIP3    H117138   2.716   0.989   4.803
 5735TIP3    H217139   2.723   0.959   4.951
 5736TIP3   OH217140   3.685   0.352   5.365
 5736TIP3    H117141   3.619   0.287   5.386
 5736TIP3    H217142   3.761   0.326   5.417
 5737TIP3   OH217143   2.473   0.520   4.846
 5737TIP3    H117144   2.545   0.581   4.858
 5737TIP3    H217145   2.506   0.456   4.782
 5738TIP3   OH217146   8.031   7.803   4.953
 5738TIP3    H117147   8.049   7.897   4.949
 5738TIP3    H217148   7.946   7.796   4.997
 5739TIP3   OH217149   3.710   1.283   5.307
 5739TIP3    H117150   3.667   1.336   5.241
 5739TIP3    H217151   3.803   1.301   5.296
 5740TIP3   OH217152   2.304   0.784   5.228
 5740TIP3    H117153   2.246   0.805   5.300
 5740TIP3    H217154   2.263   0.824   5.151
 5741TIP3   OH217155   2.506   1.328   6.303
 5741TIP3    H117156   2.586   1.336   6.355
 5741TIP3    H217157   2.494   1.234   6.292
 5742TIP3   OH217158   2.964   1.237   6.340
 5742TIP3    H117159   3.054   1.209   6.354
 5742TIP3    H217160   2.932   1.182   6.268
 5743TIP3   OH217161   2.928   0.833   4.468
 5743TIP3    H117162   2.881   0.762   4.511
 5743TIP3    H217163   3.002   0.789   4.425
 5744TIP3   OH217164   3.584   1.175   6.092
 5744TIP3    H117165   3.590   1.103   6.154
 5744TIP3    H217166   3.660   1.229   6.110
 5745TIP3   OH217167   3.368   0.868   4.389
 5745TIP3    H117168   3.404   0.804   4.451
 5745TIP3    H217169   3.426   0.863   4.313
 5746TIP3   OH217170   2.610   0.713   6.496
 5746TIP3    H117171   2.633   0.620   6.499
 5746TIP3    H217172   2.525   0.715   6.453
 5747TIP3   OH217173   2.602   0.331   4.699
 5747TIP3    H117174   2.654   0.304   4.775
 5747TIP3    H217175   2.667   0.345   4.630
 5748TIP3   OH217176   3.223   0.808   6.272
 5748TIP3    H117177   3.182   0.828   6.188
 5748TIP3    H217178   3.261   0.721   6.261
 5749TIP3   OH217179   3.145   0.545   4.517
 5749TIP3    H117180   3.131   0.558   4.611
 5749TIP3    H217181   3.137   0.451   4.504
 5750TIP3   OH217182   3.698   0.846   5.887
 5750TIP3    H117183   3.777   0.872   5.839
 5750TIP3    H217184   3.634   0.914   5.865
 5751TIP3   OH217185   2.731   0.454   6.477
 5751TIP3    H117186   2.813   0.423   6.440
 5751TIP3    H217187   2.751   0.471   6.569
 5752TIP3   OH217188   2.769   0.265   4.911
 5752TIP3    H117189   2.756   0.238   5.002
 5752TIP3    H217190   2.818   0.192   4.872
 5753TIP3   OH217191   3.083   0.369   6.157
 5753TIP3    H117192   3.000   0.416   6.157
 5753TIP3    H217193   3.122   0.390   6.072
 5754TIP3   OH217194   2.903   0.080   4.756
 5754TIP3    H117195   2.876   0.088   4.664
 5754TIP3    H217196   2.998   0.092   4.753
 5755TIP3   OH217197   3.583   0.721   6.245
 5755TIP3    H117198   3.654   0.687   6.191
 5755TIP3    H217199   3.583   0.666   6.323
 5756TIP3   OH217200   3.699   0.367   4.424
 5756TIP3    H117201   3.679   0.328   4.339
 5756TIP3    H217202   3.675   0.459   4.415
 5757TIP3   OH217203   3.144   0.142   6.289
 5757TIP3    H117204   3.140   0.073   6.223
 5757TIP3    H217205   3.125   0.223   6.241
 5758TIP3   OH217206   3.216   0.453   5.938
 5758TIP3    H117207   3.302   0.462   5.897
 5758TIP3    H217208   3.159   0.511   5.888
 5759TIP3   OH217209   3.788   0.394   6.304
 5759TIP3    H117210   3.817   0.350   6.384
 5759TIP3    H217211   3.868   0.428   6.265
 5760TIP3   OH217212   3.816   0.674   6.059
 5760TIP3    H117213   3.762   0.734   6.008
 5760TIP3    H217214   3.905   0.687   6.027
 5761TIP3   OH217215   3.002   0.280   6.496
 5761TIP3    H117216   2.951   0.217   6.546
 5761TIP3    H217217   3.051   0.226   6.433
 5762TIP3   OH217218   3.416   0.183   6.345
 5762TIP3    H117219   3.439   0.123   6.415
 5762TIP3    H217220   3.322   0.171   6.332
 5763TIP3   OH217221   2.729   1.127   4.681
 5763TIP3    H117222   2.819   1.107   4.654
 5763TIP3    H217223   2.691   1.171   4.605
 5764TIP3   OH217224   2.201   0.510   4.873
 5764TIP3    H117225   2.295   0.526   4.865
 5764TIP3    H217226   2.188   0.424   4.834
 5765TIP3   OH217227   2.040   1.095   5.377
 5765TIP3    H117228   2.003   1.043   5.306
 5765TIP3    H217229   2.111   1.041   5.412
 5766TIP3   OH217230   2.231   0.939   5.503
 5766TIP3    H117231   2.238   0.863   5.561
 5766TIP3    H217232   2.292   1.003   5.539
 5767TIP3   OH217233   3.969   1.364   5.292
 5767TIP3    H117234   4.006   1.378   5.379
 5767TIP3    H217235   4.041   1.386   5.232
 5768TIP3   OH217236   4.006   1.364   5.577
 5768TIP3    H117237   3.958   1.282   5.566
 5768TIP3    H217238   4.074   1.344   5.641
 5769TIP3   OH217239   4.048   1.064   6.154
 5769TIP3    H117240   3.978   1.075   6.218
 5769TIP3    H217241   4.096   1.147   6.157
 5770TIP3   OH217242   3.857   0.605   4.755
 5770TIP3    H117243   3.918   0.670   4.719
 5770TIP3    H217244   3.902   0.569   4.831
 5771TIP3   OH217245   3.990   0.487   4.963
 5771TIP3    H117246   3.924   0.460   5.026
 5771TIP3    H217247   4.062   0.520   5.017
 5772TIP3   OH217248   4.042   0.845   5.394
 5772TIP3    H117249   4.092   0.772   5.357
 5772TIP3    H217250   4.051   0.915   5.329
 5773TIP3   OH217251   3.859   1.128   5.581
 5773TIP3    H117252   3.792   1.173   5.632
 5773TIP3    H217253   3.810   1.086   5.510
 5774TIP3   OH217254   3.907   0.382   4.604
 5774TIP3    H117255   3.838   0.376   4.537
 5774TIP3    H217256   3.884   0.460   4.654
 5775TIP3   OH217257   3.742   0.062   4.542
 5775TIP3    H117258   3.765   0.132   4.481
 5775TIP3    H217259   3.757  -0.019   4.493
 5776TIP3   OH217260   3.791   0.373   5.114
 5776TIP3    H117261   3.801   0.280   5.094
 5776TIP3    H217262   3.758   0.375   5.203
 5777TIP3   OH217263   2.422   0.378   5.863
 5777TIP3    H117264   2.412   0.333   5.779
 5777TIP3    H217265   2.515   0.370   5.883
 5778TIP3   OH217266   4.069   0.719   5.959
 5778TIP3    H117267   4.138   0.653   5.947
 5778TIP3    H217268   4.089   0.787   5.894
 5779TIP3   OH217269   4.248   0.515   5.970
 5779TIP3    H117270   4.173   0.465   6.002
 5779TIP3    H217271   4.323   0.459   5.989
 5780TIP3   OH217272   3.799   0.122   5.000
 5780TIP3    H117273   3.846   0.044   5.027
 5780TIP3    H217274   3.834   0.143   4.913
 5781TIP3   OH217275   3.915   0.312   5.500
 5781TIP3    H117276   3.997   0.310   5.450
 5781TIP3    H217277   3.942   0.304   5.592
 5782TIP3   OH217278   4.018   0.360   5.754
 5782TIP3    H117279   3.937   0.388   5.798
 5782TIP3    H217280   4.051   0.439   5.712
 5783TIP3   OH217281   2.665   0.064   6.515
 5783TIP3    H117282   2.721   0.107   6.579
 5783TIP3    H217283   2.666  -0.029   6.540
 5784TIP3   OH217284   2.385   0.042   5.897
 5784TIP3    H117285   2.435   0.032   5.815
 5784TIP3    H217286   2.452   0.051   5.965
 5785TIP3   OH217287   3.542   1.248   4.942
 5785TIP3    H117288   3.590   1.228   4.862
 5785TIP3    H217289   3.597   1.311   4.989
 5786TIP3   OH217290   2.633   1.048   6.311
 5786TIP3    H117291   2.542   1.022   6.303
 5786TIP3    H217292   2.656   1.029   6.402
 5787TIP3   OH217293   2.842   1.083   5.865
 5787TIP3    H117294   2.794   1.160   5.834
 5787TIP3    H217295   2.928   1.089   5.824
 5788TIP3   OH217296   3.248   1.321   6.008
 5788TIP3    H117297   3.287   1.311   6.095
 5788TIP3    H217298   3.313   1.371   5.958
 5789TIP3   OH217299   3.441   1.470   5.876
 5789TIP3    H117300   3.502   1.413   5.829
 5789TIP3    H217301   3.496   1.525   5.931
 5790TIP3   OH217302   2.503   1.329   5.913
 5790TIP3    H117303   2.414   1.357   5.895
 5790TIP3    H217304   2.534   1.388   5.982
 5791TIP3   OH217305   2.736   1.317   5.764
 5791TIP3    H117306   2.652   1.321   5.809
 5791TIP3    H217307   2.716   1.339   5.673
 5792TIP3   OH217308   3.154   1.331   5.557
 5792TIP3    H117309   3.085   1.345   5.492
 5792TIP3    H217310   3.165   1.417   5.599
 5793TIP3   OH217311   3.421   1.274   5.610
 5793TIP3    H117312   3.329   1.290   5.586
 5793TIP3    H217313   3.470   1.340   5.561
 5794TIP3   OH217314   3.619   1.448   5.508
 5794TIP3    H117315   3.619   1.535   5.468
 5794TIP3    H217316   3.652   1.390   5.439
 5795TIP3   OH217317   2.411   1.107   5.644
 5795TIP3    H117318   2.437   1.080   5.732
 5795TIP3    H217319   2.483   1.075   5.588
 5796TIP3   OH217320   2.614   0.995   5.501
 5796TIP3    H117321   2.626   0.908   5.539
 5796TIP3    H217322   2.702   1.033   5.500
 5797TIP3   OH217323   2.885   1.078   5.516
 5797TIP3    H117324   2.903   0.986   5.500
 5797TIP3    H217325   2.941   1.101   5.591
 5798TIP3   OH217326   2.178   0.909   5.020
 5798TIP3    H117327   2.097   0.873   4.984
 5798TIP3    H217328   2.184   0.997   4.981
 5799TIP3   OH217329   2.986   1.056   4.611
 5799TIP3    H117330   3.070   1.083   4.574
 5799TIP3    H217331   2.956   0.986   4.554
 5800TIP3   OH217332   3.685   1.192   4.712
 5800TIP3    H117333   3.679   1.097   4.702
 5800TIP3    H217334   3.646   1.227   4.633
 5801TIP3   OH217335   2.288   0.893   4.664
 5801TIP3    H117336   2.296   0.908   4.758
 5801TIP3    H217337   2.370   0.849   4.640
 5802TIP3   OH217338   3.904   1.334   5.902
 5802TIP3    H117339   3.831   1.305   5.847
 5802TIP3    H217340   3.894   1.428   5.909
 5803TIP3   OH217341   5.171   0.708   4.665
 5803TIP3    H117342   5.155   0.801   4.651
 5803TIP3    H217343   5.100   0.664   4.618
 5804TIP3   OH217344   5.182   0.751   5.033
 5804TIP3    H117345   5.220   0.741   5.120
 5804TIP3    H217346   5.139   0.668   5.016
 5805TIP3   OH217347   4.472   0.653   5.407
 5805TIP3    H117348   4.508   0.593   5.472
 5805TIP3    H217349   4.544   0.665   5.344
 5806TIP3   OH217350   5.441   1.034   4.734
 5806TIP3    H117351   5.436   0.967   4.803
 5806TIP3    H217352   5.469   1.113   4.780
 5807TIP3   OH217353   4.455   1.010   5.106
 5807TIP3    H117354   4.440   0.915   5.102
 5807TIP3    H217355   4.550   1.019   5.097
 5808TIP3   OH217356   4.130   0.253   4.916
 5808TIP3    H117357   4.083   0.336   4.925
 5808TIP3    H217358   4.080   0.204   4.851
 5809TIP3   OH217359   4.228   0.552   5.092
 5809TIP3    H117360   4.287   0.486   5.128
 5809TIP3    H217361   4.285   0.624   5.066
 5810TIP3   OH217362   5.107   1.452   4.752
 5810TIP3    H117363   5.133   1.388   4.686
 5810TIP3    H217364   5.117   1.406   4.835
 5811TIP3   OH217365   4.982   0.952   5.075
 5811TIP3    H117366   5.026   0.877   5.034
 5811TIP3    H217367   5.053   1.008   5.106
 5812TIP3   OH217368   5.367   0.469   5.091
 5812TIP3    H117369   5.401   0.379   5.087
 5812TIP3    H217370   5.312   0.477   5.013
 5813TIP3   OH217371   1.965   8.025   5.031
 5813TIP3    H117372   1.881   8.070   5.035
 5813TIP3    H217373   1.947   7.937   5.064
 5814TIP3   OH217374   5.344   0.150   4.782
 5814TIP3    H117375   5.431   0.146   4.822
 5814TIP3    H217376   5.350   0.221   4.718
 5815TIP3   OH217377   4.406   0.398   5.232
 5815TIP3    H117378   4.446   0.375   5.316
 5815TIP3    H217379   4.453   0.344   5.168
 5816TIP3   OH217380   4.793   0.562   4.985
 5816TIP3    H117381   4.888   0.552   4.991
 5816TIP3    H217382   4.763   0.481   4.944
 5817TIP3   OH217383   5.084   0.931   4.510
 5817TIP3    H117384   5.047   0.903   4.426
 5817TIP3    H217385   5.032   1.007   4.535
 5818TIP3   OH217386   4.835   0.867   5.295
 5818TIP3    H117387   4.778   0.937   5.327
 5818TIP3    H217388   4.881   0.907   5.221
 5819TIP3   OH217389   4.578   0.231   5.380
 5819TIP3    H117390   4.638   0.278   5.321
 5819TIP3    H217391   4.563   0.147   5.337
 5820TIP3   OH217392   4.665   1.064   5.390
 5820TIP3    H117393   4.651   1.153   5.357
 5820TIP3    H217394   4.587   1.045   5.442
 5821TIP3   OH217395   4.041   0.776   4.638
 5821TIP3    H117396   4.013   0.792   4.548
 5821TIP3    H217397   4.066   0.863   4.670
 5822TIP3   OH217398   5.483   1.275   4.878
 5822TIP3    H117399   5.394   1.266   4.913
 5822TIP3    H217400   5.483   1.360   4.835
 5823TIP3   OH217401   5.193   1.299   4.535
 5823TIP3    H117402   5.245   1.220   4.523
 5823TIP3    H217403   5.250   1.370   4.505
 5824TIP3   OH217404   5.329   1.067   4.486
 5824TIP3    H117405   5.256   1.006   4.490
 5824TIP3    H217406   5.379   1.050   4.566
 5825TIP3   OH217407   5.723   1.157   5.231
 5825TIP3    H117408   5.700   1.086   5.172
 5825TIP3    H217409   5.712   1.237   5.178
 5826TIP3   OH217410   4.999   0.583   4.488
 5826TIP3    H117411   4.916   0.624   4.465
 5826TIP3    H217412   5.048   0.581   4.406
 5827TIP3   OH217413   4.966   0.412   4.178
 5827TIP3    H117414   5.034   0.468   4.215
 5827TIP3    H217415   4.999   0.323   4.193
 5828TIP3   OH217416   5.356   0.666   4.462
 5828TIP3    H117417   5.299   0.685   4.537
 5828TIP3    H217418   5.444   0.663   4.499
 5829TIP3   OH217419   5.572   0.721   5.385
 5829TIP3    H117420   5.559   0.803   5.434
 5829TIP3    H217421   5.493   0.713   5.331
 5830TIP3   OH217422   4.570   0.653   4.845
 5830TIP3    H117423   4.540   0.585   4.785
 5830TIP3    H217424   4.650   0.617   4.884
 5831TIP3   OH217425   4.720   1.053   5.006
 5831TIP3    H117426   4.702   1.039   4.913
 5831TIP3    H217427   4.809   1.019   5.018
 5832TIP3   OH217428   4.679   0.659   5.215
 5832TIP3    H117429   4.718   0.625   5.135
 5832TIP3    H217430   4.734   0.732   5.241
 5833TIP3   OH217431   5.239   1.265   5.002
 5833TIP3    H117432   5.233   1.344   5.054
 5833TIP3    H217433   5.230   1.193   5.065
 5834TIP3   OH217434   4.866   1.166   5.554
 5834TIP3    H117435   4.809   1.226   5.601
 5834TIP3    H217436   4.806   1.115   5.499
 5835TIP3   OH217437   5.188   0.542   4.282
 5835TIP3    H117438   5.249   0.599   4.329
 5835TIP3    H217439   5.221   0.540   4.193
 5836TIP3   OH217440   4.625   0.740   5.688
 5836TIP3    H117441   4.629   0.832   5.715
 5836TIP3    H217442   4.531   0.719   5.690
 5837TIP3   OH217443   4.948   1.173   4.543
 5837TIP3    H117444   5.029   1.224   4.549
 5837TIP3    H217445   4.887   1.230   4.496
 5838TIP3   OH217446   4.649   1.323   5.630
 5838TIP3    H117447   4.626   1.330   5.537
 5838TIP3    H217448   4.565   1.310   5.674
 5839TIP3   OH217449   4.452   0.466   4.664
 5839TIP3    H117450   4.381   0.520   4.627
 5839TIP3    H217451   4.407   0.394   4.708
 5840TIP3   OH217452   5.530   1.115   3.892
 5840TIP3    H117453   5.527   1.209   3.876
 5840TIP3    H217454   5.620   1.089   3.870
 5841TIP3   OH217455   4.249   0.872   5.588
 5841TIP3    H117456   4.178   0.862   5.525
 5841TIP3    H217457   4.287   0.785   5.595
 5842TIP3   OH217458   4.139   1.054   5.225
 5842TIP3    H117459   4.227   1.035   5.192
 5842TIP3    H217460   4.151   1.128   5.285
 5843TIP3   OH217461   5.954   1.538   5.279
 5843TIP3    H117462   5.961   1.443   5.283
 5843TIP3    H217463   5.875   1.558   5.329
 5844TIP3   OH217464   5.055   1.303   5.411
 5844TIP3    H117465   5.058   1.391   5.448
 5844TIP3    H217466   4.989   1.257   5.463
 5845TIP3   OH217467   4.836   1.406   4.370
 5845TIP3    H117468   4.790   1.388   4.287
 5845TIP3    H217469   4.801   1.490   4.398
 5846TIP3   OH217470   4.270   1.265   4.748
 5846TIP3    H117471   4.315   1.257   4.832
 5846TIP3    H217472   4.222   1.182   4.738
 5847TIP3   OH217473   5.037   1.338   3.996
 5847TIP3    H117474   5.089   1.266   3.960
 5847TIP3    H217475   5.071   1.351   4.084
 5848TIP3   OH217476   5.089   1.381   4.265
 5848TIP3    H117477   5.004   1.383   4.309
 5848TIP3    H217478   5.150   1.349   4.332
 5849TIP3   OH217479   5.808   0.644   5.500
 5849TIP3    H117480   5.730   0.683   5.460
 5849TIP3    H217481   5.810   0.555   5.466
 5850TIP3   OH217482   4.445   1.066   5.558
 5850TIP3    H117483   4.497   1.057   5.638
 5850TIP3    H217484   4.377   0.999   5.566
 5851TIP3   OH217485   5.740   0.377   5.471
 5851TIP3    H117486   5.668   0.381   5.533
 5851TIP3    H217487   5.699   0.360   5.387
 5852TIP3   OH217488   5.272   0.511   4.026
 5852TIP3    H117489   5.225   0.513   3.943
 5852TIP3    H217490   5.357   0.551   4.008
 5853TIP3   OH217491   4.754   0.460   5.390
 5853TIP3    H117492   4.695   0.464   5.465
 5853TIP3    H217493   4.720   0.526   5.329
 5854TIP3   OH217494   4.670   0.366   4.842
 5854TIP3    H117495   4.579   0.360   4.814
 5854TIP3    H217496   4.718   0.308   4.783
 5855TIP3   OH217497   5.112   0.383   4.635
 5855TIP3    H117498   5.060   0.453   4.597
 5855TIP3    H217499   5.168   0.353   4.563
 5856TIP3   OH217500   5.307   0.693   5.682
 5856TIP3    H117501   5.286   0.609   5.722
 5856TIP3    H217502   5.403   0.699   5.688
 5857TIP3   OH217503   5.275   0.504   4.825
 5857TIP3    H117504   5.244   0.587   4.788
 5857TIP3    H217505   5.208   0.440   4.799
 5858TIP3   OH217506   4.559   0.462   5.589
 5858TIP3    H117507   4.524   0.518   5.658
 5858TIP3    H217508   4.533   0.373   5.614
 5859TIP3   OH217509   4.209   0.080   4.687
 5859TIP3    H117510   4.303   0.094   4.675
 5859TIP3    H217511   4.203   0.031   4.769
 5860TIP3   OH217512   5.319   0.671   5.264
 5860TIP3    H117513   5.345   0.604   5.201
 5860TIP3    H217514   5.289   0.622   5.340
 5861TIP3   OH217515   4.404   0.254   4.858
 5861TIP3    H117516   4.310   0.256   4.877
 5861TIP3    H217517   4.426   0.161   4.852
 5862TIP3   OH217518   4.710   0.206   4.618
 5862TIP3    H117519   4.805   0.195   4.610
 5862TIP3    H217520   4.680   0.221   4.528
 5863TIP3   OH217521   4.571   0.197   4.386
 5863TIP3    H117522   4.488   0.192   4.338
 5863TIP3    H217523   4.629   0.246   4.327
 5864TIP3   OH217524   5.664   1.866   5.380
 5864TIP3    H117525   5.658   1.886   5.287
 5864TIP3    H217526   5.739   1.917   5.411
 5865TIP3   OH217527   4.605   0.996   5.794
 5865TIP3    H117528   4.687   1.015   5.841
 5865TIP3    H217529   4.538   0.997   5.862
 5866TIP3   OH217530   5.059   0.506   5.037
 5866TIP3    H117531   5.095   0.422   5.010
 5866TIP3    H217532   5.049   0.499   5.132
 5867TIP3   OH217533   5.009   0.464   5.301
 5867TIP3    H117534   4.924   0.459   5.345
 5867TIP3    H217535   5.061   0.522   5.356
 5868TIP3   OH217536   4.759   0.709   4.427
 5868TIP3    H117537   4.685   0.651   4.411
 5868TIP3    H217538   4.741   0.749   4.512
 5869TIP3   OH217539   5.646   0.971   5.055
 5869TIP3    H117540   5.699   1.006   4.983
 5869TIP3    H217541   5.574   0.925   5.011
 5870TIP3   OH217542   5.102   0.184   4.228
 5870TIP3    H117543   5.072   0.105   4.272
 5870TIP3    H217544   5.180   0.211   4.277
 5871TIP3   OH217545   5.176   1.024   5.455
 5871TIP3    H117546   5.237   1.025   5.528
 5871TIP3    H217547   5.138   1.112   5.454
 5872TIP3   OH217548   5.274   0.315   4.427
 5872TIP3    H117549   5.349   0.336   4.482
 5872TIP3    H217550   5.263   0.392   4.372
 5873TIP3   OH217551   4.444   0.732   5.074
 5873TIP3    H117552   4.480   0.713   4.987
 5873TIP3    H217553   4.511   0.700   5.135
 5874TIP3   OH217554   4.929   0.864   4.281
 5874TIP3    H117555   4.885   0.949   4.278
 5874TIP3    H217556   4.868   0.807   4.329
 5875TIP3   OH217557   4.365   0.634   5.726
 5875TIP3    H117558   4.367   0.630   5.822
 5875TIP3    H217559   4.280   0.597   5.703
 5876TIP3   OH217560   5.066   0.798   5.755
 5876TIP3    H117561   5.006   0.732   5.721
 5876TIP3    H217562   5.152   0.772   5.720
 5877TIP3   OH217563   5.325   1.323   5.330
 5877TIP3    H117564   5.230   1.310   5.335
 5877TIP3    H217565   5.347   1.366   5.413
 5878TIP3   OH217566   5.696   0.388   4.196
 5878TIP3    H117567   5.634   0.348   4.136
 5878TIP3    H217568   5.714   0.474   4.159
 5879TIP3   OH217569   5.972   1.264   5.296
 5879TIP3    H117570   5.882   1.235   5.311
 5879TIP3    H217571   6.001   1.213   5.220
 5880TIP3   OH217572   5.451   1.186   4.160
 5880TIP3    H117573   5.425   1.118   4.222
 5880TIP3    H217574   5.469   1.139   4.078
 5881TIP3   OH217575   5.431   0.839   4.933
 5881TIP3    H117576   5.342   0.815   4.958
 5881TIP3    H217577   5.470   0.758   4.900
 5882TIP3   OH217578   4.589   1.061   4.753
 5882TIP3    H117579   4.588   1.139   4.696
 5882TIP3    H217580   4.497   1.040   4.767
 5883TIP3   OH217581   4.150   0.363   4.480
 5883TIP3    H117582   4.200   0.445   4.487
 5883TIP3    H217583   4.072   0.379   4.534
 5884TIP3   OH217584   4.685   0.821   4.659
 5884TIP3    H117585   4.670   0.911   4.687
 5884TIP3    H217586   4.647   0.767   4.728
 5885TIP3   OH217587   4.870   1.379   5.207
 5885TIP3    H117588   4.907   1.452   5.157
 5885TIP3    H217589   4.943   1.347   5.260
 5886TIP3   OH217590   4.504   1.283   4.601
 5886TIP3    H117591   4.417   1.290   4.641
 5886TIP3    H217592   4.539   1.372   4.604
 5887TIP3   OH217593   5.226   1.044   5.179
 5887TIP3    H117594   5.217   1.032   5.274
 5887TIP3    H217595   5.308   0.999   5.157
 5888TIP3   OH217596   5.210   0.921   4.046
 5888TIP3    H117597   5.260   0.892   4.122
 5888TIP3    H217598   5.123   0.883   4.058
 5889TIP3   OH217599   5.481   1.540   5.218
 5889TIP3    H117600   5.408   1.479   5.231
 5889TIP3    H217601   5.453   1.597   5.147
 5890TIP3   OH217602   5.538   1.390   3.861
 5890TIP3    H117603   5.576   1.459   3.808
 5890TIP3    H217604   5.461   1.430   3.902
 5891TIP3   OH217605   5.379   0.830   4.238
 5891TIP3    H117606   5.368   0.787   4.323
 5891TIP3    H217607   5.473   0.846   4.232
 5892TIP3   OH217608   4.285   1.265   5.376
 5892TIP3    H117609   4.340   1.204   5.425
 5892TIP3    H217610   4.305   1.351   5.413
 5893TIP3   OH217611   4.568   0.896   4.063
 5893TIP3    H117612   4.578   0.805   4.035
 5893TIP3    H217613   4.552   0.891   4.157
 5894TIP3   OH217614   4.513   0.904   4.334
 5894TIP3    H117615   4.586   0.876   4.390
 5894TIP3    H217616   4.513   1.000   4.342
 5895TIP3   OH217617   4.250   0.615   4.549
 5895TIP3    H117618   4.183   0.661   4.598
 5895TIP3    H217619   4.269   0.672   4.475
 5896TIP3   OH217620   4.783   1.092   4.273
 5896TIP3    H117621   4.697   1.116   4.310
 5896TIP3    H217622   4.807   1.166   4.218
 5897TIP3   OH217623   4.976   0.151   4.608
 5897TIP3    H117624   5.019   0.234   4.629
 5897TIP3    H217625   4.963   0.109   4.693
 5898TIP3   OH217626   5.245   0.508   5.475
 5898TIP3    H117627   5.206   0.579   5.526
 5898TIP3    H217628   5.311   0.470   5.533
 5899TIP3   OH217629   4.531   1.176   4.349
 5899TIP3    H117630   4.510   1.246   4.287
 5899TIP3    H217631   4.520   1.216   4.435
 5900TIP3   OH217632   5.538   0.591   4.850
 5900TIP3    H117633   5.458   0.547   4.877
 5900TIP3    H217634   5.601   0.574   4.920
 5901TIP3   OH217635   4.263   0.784   4.326
 5901TIP3    H117636   4.336   0.846   4.334
 5901TIP3    H217637   4.294   0.718   4.264
 5902TIP3   OH217638   3.991   0.163   4.384
 5902TIP3    H117639   4.047   0.227   4.427
 5902TIP3    H217640   4.003   0.083   4.435
 5903TIP3   OH217641   5.505   1.539   4.792
 5903TIP3    H117642   5.464   1.588   4.721
 5903TIP3    H217643   5.599   1.551   4.778
 5904TIP3   OH217644   4.097   1.042   4.722
 5904TIP3    H117645   4.052   1.077   4.799
 5904TIP3    H217646   4.053   1.085   4.648
 5905TIP3   OH217647   4.301   1.580   5.792
 5905TIP3    H117648   4.380   1.591   5.845
 5905TIP3    H217649   4.297   1.487   5.773
 5906TIP3   OH217650   4.749   1.497   5.819
 5906TIP3    H117651   4.839   1.468   5.831
 5906TIP3    H217652   4.716   1.442   5.747
 5907TIP3   OH217653   4.730   1.090   3.953
 5907TIP3    H117654   4.681   1.021   3.998
 5907TIP3    H217655   4.804   1.044   3.913
 5908TIP3   OH217656   5.370   1.443   5.571
 5908TIP3    H117657   5.370   1.379   5.643
 5908TIP3    H217658   5.446   1.498   5.589
 5909TIP3   OH217659   5.170   1.131   3.875
 5909TIP3    H117660   5.199   1.066   3.938
 5909TIP3    H217661   5.231   1.124   3.802
 5910TIP3   OH217662   4.401   0.979   5.983
 5910TIP3    H117663   4.426   0.886   5.990
 5910TIP3    H217664   4.314   0.977   5.943
 5911TIP3   OH217665   4.389   0.590   4.182
 5911TIP3    H117666   4.438   0.563   4.260
 5911TIP3    H217667   4.456   0.605   4.116
 5912TIP3   OH217668   5.017   1.071   5.763
 5912TIP3    H117669   4.975   1.090   5.680
 5912TIP3    H217670   5.047   0.980   5.754
 5913TIP3   OH217671   4.946   0.816   4.010
 5913TIP3    H117672   4.928   0.823   4.104
 5913TIP3    H217673   4.929   0.724   3.990
 5914TIP3   OH217674   5.488   1.099   5.370
 5914TIP3    H117675   5.569   1.121   5.324
 5914TIP3    H217676   5.429   1.171   5.350
 5915TIP3   OH217677   4.520   0.725   5.977
 5915TIP3    H117678   4.601   0.703   5.931
 5915TIP3    H217679   4.546   0.738   6.068
 5916TIP3   OH217680   4.555   0.526   4.399
 5916TIP3    H117681   4.534   0.487   4.485
 5916TIP3    H217682   4.605   0.458   4.354
 5917TIP3   OH217683   4.869   0.615   5.639
 5917TIP3    H117684   4.786   0.662   5.651
 5917TIP3    H217685   4.907   0.654   5.560
 5918TIP3   OH217686   4.703   0.366   4.228
 5918TIP3    H117687   4.667   0.367   4.139
 5918TIP3    H217688   4.796   0.385   4.216
 5919TIP3   OH217689   5.376   0.995   5.730
 5919TIP3    H117690   5.450   0.963   5.678
 5919TIP3    H217691   5.370   0.934   5.803
 5920TIP3   OH217692   5.495   0.626   3.908
 5920TIP3    H117693   5.474   0.590   3.822
 5920TIP3    H217694   5.472   0.718   3.901
 5921TIP3   OH217695   4.991   0.367   5.664
 5921TIP3    H117696   4.933   0.306   5.618
 5921TIP3    H217697   4.952   0.453   5.650
 5922TIP3   OH217698   5.029   0.734   5.439
 5922TIP3    H117699   5.100   0.798   5.442
 5922TIP3    H217700   4.961   0.776   5.387
 5923TIP3   OH217701   5.576   0.647   5.740
 5923TIP3    H117702   5.572   0.639   5.836
 5923TIP3    H217703   5.640   0.716   5.725
 5924TIP3   OH217704   5.603   0.946   5.562
 5924TIP3    H117705   5.551   1.004   5.506
 5924TIP3    H217706   5.692   0.950   5.525
 5925TIP3   OH217707   4.834   0.568   6.018
 5925TIP3    H117708   4.752   0.519   6.019
 5925TIP3    H217709   4.895   0.514   5.967
 5926TIP3   OH217710   5.236   0.449   5.767
 5926TIP3    H117711   5.246   0.428   5.859
 5926TIP3    H217712   5.154   0.406   5.741
 5927TIP3   OH217713   4.523   1.382   4.163
 5927TIP3    H117714   4.614   1.364   4.138
 5927TIP3    H217715   4.486   1.428   4.088
 5928TIP3   OH217716   3.991   0.765   4.354
 5928TIP3    H117717   4.085   0.782   4.344
 5928TIP3    H217718   3.978   0.680   4.312
 5929TIP3   OH217719   3.892   1.348   4.806
 5929TIP3    H117720   3.830   1.293   4.759
 5929TIP3    H217721   3.939   1.288   4.865
 5930TIP3   OH217722   4.037   1.184   4.977
 5930TIP3    H117723   4.030   1.116   5.043
 5930TIP3    H217724   4.088   1.253   5.019
 5931TIP3   OH217725   5.775   1.593   4.778
 5931TIP3    H117726   5.796   1.619   4.868
 5931TIP3    H217727   5.833   1.646   4.723
 5932TIP3   OH217728   5.796   1.615   5.058
 5932TIP3    H117729   5.750   1.531   5.054
 5932TIP3    H217730   5.866   1.601   5.122
 5933TIP3   OH217731   5.850   1.317   5.639
 5933TIP3    H117732   5.778   1.328   5.701
 5933TIP3    H217733   5.893   1.402   5.637
 5934TIP3   OH217734   5.653   0.860   4.226
 5934TIP3    H117735   5.711   0.929   4.193
 5934TIP3    H217736   5.698   0.826   4.303
 5935TIP3   OH217737   5.796   0.747   4.427
 5935TIP3    H117738   5.732   0.730   4.495
 5935TIP3    H217739   5.870   0.787   4.473
 5936TIP3   OH217740   5.825   1.102   4.888
 5936TIP3    H117741   5.879   1.035   4.846
 5936TIP3    H217742   5.825   1.174   4.825
 5937TIP3   OH217743   5.656   1.376   5.074
 5937TIP3    H117744   5.588   1.421   5.123
 5937TIP3    H217745   5.610   1.332   5.003
 5938TIP3   OH217746   5.708   0.635   4.080
 5938TIP3    H117747   5.636   0.630   4.017
 5938TIP3    H217748   5.688   0.712   4.133
 5939TIP3   OH217749   5.520   0.303   4.006
 5939TIP3    H117750   5.522   0.377   3.945
 5939TIP3    H217751   5.514   0.226   3.951
 5940TIP3   OH217752   5.601   0.643   4.588
 5940TIP3    H117753   5.633   0.558   4.558
 5940TIP3    H217754   5.589   0.632   4.683
 5941TIP3   OH217755   4.208   0.629   5.356
 5941TIP3    H117756   4.199   0.598   5.266
 5941TIP3    H217757   4.302   0.642   5.368
 5942TIP3   OH217758   5.841   0.983   5.429
 5942TIP3    H117759   5.916   0.926   5.413
 5942TIP3    H217760   5.823   1.024   5.345
 5943TIP3   OH217761   6.031   0.807   5.522
 5943TIP3    H117762   5.957   0.748   5.507
 5943TIP3    H217763   6.108   0.755   5.501
 5944TIP3   OH217764   5.678   0.409   4.462
 5944TIP3    H117765   5.626   0.331   4.481
 5944TIP3    H217766   5.683   0.411   4.367
 5945TIP3   OH217767   5.721   0.567   5.050
 5945TIP3    H117768   5.807   0.591   5.016
 5945TIP3    H217769   5.716   0.609   5.135
 5946TIP3   OH217770   4.358   0.266   6.041
 5946TIP3    H117771   4.410   0.198   5.999
 5946TIP3    H217772   4.310   0.221   6.110
 5947TIP3   OH217773   4.187   0.318   5.415
 5947TIP3    H117774   4.231   0.310   5.330
 5947TIP3    H217775   4.226   0.396   5.454
 5948TIP3   OH217776   5.331   1.500   4.422
 5948TIP3    H117777   5.390   1.491   4.347
 5948TIP3    H217778   5.372   1.567   4.476
 5949TIP3   OH217779   4.421   1.305   5.794
 5949TIP3    H117780   4.330   1.277   5.793
 5949TIP3    H217781   4.450   1.290   5.885
 5950TIP3   OH217782   4.638   1.337   5.349
 5950TIP3    H117783   4.589   1.414   5.318
 5950TIP3    H217784   4.724   1.346   5.309
 5951TIP3   OH217785   5.065   1.561   5.519
 5951TIP3    H117786   5.115   1.539   5.597
 5951TIP3    H217787   5.123   1.618   5.469
 5952TIP3   OH217788   5.237   1.725   5.374
 5952TIP3    H117789   5.300   1.672   5.325
 5952TIP3    H217790   5.291   1.783   5.427
 5953TIP3   OH217791   4.301   1.580   5.402
 5953TIP3    H117792   4.212   1.605   5.380
 5953TIP3    H217793   4.329   1.643   5.467
 5954TIP3   OH217794   4.533   1.572   5.250
 5954TIP3    H117795   4.449   1.577   5.296
 5954TIP3    H217796   4.513   1.597   5.160
 5955TIP3   OH217797   4.951   1.589   5.045
 5955TIP3    H117798   4.883   1.603   4.979
 5955TIP3    H217799   4.964   1.675   5.085
 5956TIP3   OH217800   5.216   1.525   5.093
 5956TIP3    H117801   5.125   1.546   5.074
 5956TIP3    H217802   5.266   1.594   5.049
 5957TIP3   OH217803   5.417   1.701   4.997
 5957TIP3    H117804   5.414   1.789   4.958
 5957TIP3    H217805   5.447   1.644   4.926
 5958TIP3   OH217806   4.209   1.362   5.125
 5958TIP3    H117807   4.236   1.336   5.213
 5958TIP3    H217808   4.280   1.332   5.068
 5959TIP3   OH217809   4.414   1.251   4.983
 5959TIP3    H117810   4.425   1.167   5.027
 5959TIP3    H217811   4.501   1.291   4.985
 5960TIP3   OH217812   4.683   1.332   5.004
 5960TIP3    H117813   4.701   1.239   4.991
 5960TIP3    H217814   4.739   1.357   5.078
 5961TIP3   OH217815   3.976   1.163   4.507
 5961TIP3    H117816   3.894   1.130   4.469
 5961TIP3    H217817   3.983   1.252   4.475
 5962TIP3   OH217818   4.782   1.314   4.099
 5962TIP3    H117819   4.866   1.342   4.062
 5962TIP3    H217820   4.754   1.242   4.042
 5963TIP3   OH217821   5.486   1.455   4.195
 5963TIP3    H117822   5.479   1.360   4.187
 5963TIP3    H217823   5.443   1.489   4.116
 5964TIP3   OH217824   4.089   1.158   4.153
 5964TIP3    H117825   4.093   1.171   4.248
 5964TIP3    H217826   4.170   1.111   4.132
 5965TIP3   OH217827   5.702   1.593   5.383
 5965TIP3    H117828   5.629   1.562   5.331
 5965TIP3    H217829   5.690   1.687   5.390
 5966TIP3   OH217830   6.959   0.960   4.151
 5966TIP3    H117831   6.947   1.054   4.143
 5966TIP3    H217832   6.888   0.922   4.100
 5967TIP3   OH217833   6.975   1.007   4.513
 5967TIP3    H117834   7.008   0.995   4.603
 5967TIP3    H217835   6.932   0.924   4.492
 5968TIP3   OH217836   6.256   0.843   4.863
 5968TIP3    H117837   6.218   0.836   4.951
 5968TIP3    H217838   6.328   0.905   4.874
 5969TIP3   OH217839   7.246   1.288   4.219
 5969TIP3    H117840   7.231   1.230   4.293
 5969TIP3    H217841   7.266   1.373   4.258
 5970TIP3   OH217842   6.262   1.266   4.591
 5970TIP3    H117843   6.245   1.172   4.596
 5970TIP3    H217844   6.356   1.273   4.577
 5971TIP3   OH217845   5.931   0.511   4.379
 5971TIP3    H117846   5.895   0.600   4.378
 5971TIP3    H217847   5.866   0.460   4.427
 5972TIP3   OH217848   6.034   0.824   4.534
 5972TIP3    H117849   6.085   0.753   4.571
 5972TIP3    H217850   6.097   0.896   4.524
 5973TIP3   OH217851   6.850   1.711   4.240
 5973TIP3    H117852   6.896   1.668   4.168
 5973TIP3    H217853   6.878   1.664   4.319
 5974TIP3   OH217854   6.779   1.207   4.557
 5974TIP3    H117855   6.823   1.133   4.516
 5974TIP3    H217856   6.850   1.261   4.591
 5975TIP3   OH217857   7.166   0.715   4.581
 5975TIP3    H117858   7.180   0.620   4.574
 5975TIP3    H217859   7.122   0.739   4.500
 5976TIP3   OH217860   6.613   0.259   4.513
 5976TIP3    H117861   6.597   0.313   4.590
 5976TIP3    H217862   6.527   0.245   4.475
 5977TIP3   OH217863   7.158   0.405   4.260
 5977TIP3    H117864   7.247   0.373   4.276
 5977TIP3    H217865   7.171   0.481   4.203
 5978TIP3   OH217866   6.190   0.653   4.676
 5978TIP3    H117867   6.220   0.713   4.745
 5978TIP3    H217868   6.268   0.603   4.652
 5979TIP3   OH217869   6.597   0.810   4.462
 5979TIP3    H117870   6.692   0.797   4.467
 5979TIP3    H217871   6.564   0.730   4.422
 5980TIP3   OH217872   7.843   0.694   4.771
 5980TIP3    H117873   7.766   0.745   4.748
 5980TIP3    H217874   7.886   0.744   4.840
 5981TIP3   OH217875   6.880   1.190   3.995
 5981TIP3    H117876   6.841   1.162   3.912
 5981TIP3    H217877   6.829   1.268   4.019
 5982TIP3   OH217878   6.629   1.130   4.778
 5982TIP3    H117879   6.569   1.197   4.810
 5982TIP3    H217880   6.672   1.170   4.702
 5983TIP3   OH217881   6.369   0.491   4.859
 5983TIP3    H117882   6.435   0.560   4.854
 5983TIP3    H217883   6.365   0.456   4.769
 5984TIP3   OH217884   6.457   1.320   4.881
 5984TIP3    H117885   6.444   1.410   4.852
 5984TIP3    H217886   6.375   1.297   4.924
 5985TIP3   OH217887   5.839   1.036   4.120
 5985TIP3    H117888   5.808   1.060   4.032
 5985TIP3    H217889   5.864   1.120   4.160
 5986TIP3   OH217890   7.288   1.536   4.352
 5986TIP3    H117891   7.205   1.524   4.398
 5986TIP3    H217892   7.278   1.620   4.306
 5987TIP3   OH217893   6.993   1.557   4.051
 5987TIP3    H117894   7.041   1.477   4.028
 5987TIP3    H217895   7.045   1.627   4.012
 5988TIP3   OH217896   7.125   1.323   3.973
 5988TIP3    H117897   7.048   1.266   3.978
 5988TIP3    H217898   7.175   1.304   4.052
 5989TIP3   OH217899   7.525   1.413   4.714
 5989TIP3    H117900   7.503   1.342   4.654
 5989TIP3    H217901   7.505   1.493   4.665
 5990TIP3   OH217902   6.797   0.845   3.959
 5990TIP3    H117903   6.711   0.885   3.945
 5990TIP3    H217904   6.839   0.848   3.874
 5991TIP3   OH217905   6.764   0.640   3.672
 5991TIP3    H117906   6.832   0.699   3.703
 5991TIP3    H217907   6.800   0.552   3.684
 5992TIP3   OH217908   7.694   1.085   4.557
 5992TIP3    H117909   7.607   1.125   4.559
 5992TIP3    H217910   7.723   1.096   4.466
 5993TIP3   OH217911   7.137   0.917   3.943
 5993TIP3    H117912   7.080   0.938   4.017
 5993TIP3    H217913   7.225   0.919   3.979
 5994TIP3   OH217914   7.417   0.985   4.848
 5994TIP3    H117915   7.345   1.049   4.848
 5994TIP3    H217916   7.373   0.900   4.838
 5995TIP3   OH217917   6.368   0.905   4.339
 5995TIP3    H117918   6.337   0.838   4.278
 5995TIP3    H217919   6.449   0.870   4.374
 5996TIP3   OH217920   6.522   1.305   4.488
 5996TIP3    H117921   6.502   1.295   4.395
 5996TIP3    H217922   6.611   1.273   4.497
 5997TIP3   OH217923   6.504   0.898   4.705
 5997TIP3    H117924   6.540   0.872   4.620
 5997TIP3    H217925   6.550   0.979   4.727
 5998TIP3   OH217926   7.064   1.514   4.502
 5998TIP3    H117927   7.041   1.596   4.545
 5998TIP3    H217928   7.040   1.446   4.565
 5999TIP3   OH217929   6.660   1.420   5.044
 5999TIP3    H117930   6.601   1.481   5.087
 5999TIP3    H217931   6.603   1.367   4.988
 6000TIP3   OH217932   6.985   0.786   3.753
 6000TIP3    H117933   7.042   0.848   3.798
 6000TIP3    H217934   7.013   0.790   3.661
 6001TIP3   OH217935   6.402   0.978   5.130
 6001TIP3    H117936   6.406   1.068   5.161
 6001TIP3    H217937   6.312   0.951   5.146
 6002TIP3   OH217938   6.747   1.432   4.028
 6002TIP3    H117939   6.825   1.484   4.048
 6002TIP3    H217940   6.689   1.492   3.982
 6003TIP3   OH217941   6.458   1.585   5.129
 6003TIP3    H117942   6.434   1.597   5.037
 6003TIP3    H217943   6.375   1.571   5.174
 6004TIP3   OH217944   6.246   0.728   4.140
 6004TIP3    H117945   6.178   0.786   4.106
 6004TIP3    H217946   6.197   0.655   4.179
 6005TIP3   OH217947   7.322   1.375   3.379
 6005TIP3    H117948   7.318   1.470   3.363
 6005TIP3    H217949   7.412   1.351   3.357
 6006TIP3   OH217950   6.031   1.109   5.079
 6006TIP3    H117951   5.956   1.103   5.019
 6006TIP3    H217952   6.053   1.017   5.099
 6007TIP3   OH217953   5.892   1.321   4.716
 6007TIP3    H117954   5.988   1.322   4.720
 6007TIP3    H217955   5.866   1.402   4.758
 6008TIP3   OH217956   7.759   1.801   4.769
 6008TIP3    H117957   7.766   1.705   4.773
 6008TIP3    H217958   7.676   1.821   4.812
 6009TIP3   OH217959   6.853   1.557   4.903
 6009TIP3    H117960   6.847   1.649   4.930
 6009TIP3    H217961   6.783   1.513   4.952
 6010TIP3   OH217962   6.638   1.647   3.859
 6010TIP3    H117963   6.598   1.635   3.772
 6010TIP3    H217964   6.609   1.734   3.886
 6011TIP3   OH217965   6.068   1.520   4.232
 6011TIP3    H117966   6.112   1.514   4.317
 6011TIP3    H217967   6.020   1.437   4.224
 6012TIP3   OH217968   6.831   1.593   3.489
 6012TIP3    H117969   6.884   1.521   3.452
 6012TIP3    H217970   6.868   1.608   3.576
 6013TIP3   OH217971   6.896   1.642   3.754
 6013TIP3    H117972   6.815   1.635   3.805
 6013TIP3    H217973   6.966   1.641   3.819
 6014TIP3   OH217974   7.622   0.931   5.031
 6014TIP3    H117975   7.565   0.987   4.979
 6014TIP3    H217976   7.607   0.843   4.995
 6015TIP3   OH217977   6.222   1.304   5.029
 6015TIP3    H117978   6.273   1.298   5.109
 6015TIP3    H217979   6.154   1.237   5.039
 6016TIP3   OH217980   7.543   0.674   4.986
 6016TIP3    H117981   7.448   0.671   5.003
 6016TIP3    H217982   7.556   0.612   4.915
 6017TIP3   OH217983   7.053   0.762   3.488
 6017TIP3    H117984   7.005   0.783   3.408
 6017TIP3    H217985   7.137   0.806   3.478
 6018TIP3   OH217986   6.560   0.695   4.878
 6018TIP3    H117987   6.510   0.711   4.958
 6018TIP3    H217988   6.531   0.765   4.818
 6019TIP3   OH217989   6.454   0.615   4.341
 6019TIP3    H117990   6.360   0.595   4.342
 6019TIP3    H217991   6.487   0.567   4.265
 6020TIP3   OH217992   6.912   0.646   4.102
 6020TIP3    H117993   6.867   0.718   4.057
 6020TIP3    H217994   6.997   0.640   4.057
 6021TIP3   OH217995   7.097   0.953   5.177
 6021TIP3    H117996   7.076   0.869   5.219
 6021TIP3    H217997   7.192   0.957   5.176
 6022TIP3   OH217998   7.075   0.756   4.318
 6022TIP3    H117999   7.025   0.825   4.274
 6022TIP3    H218000   7.015   0.682   4.323
 6023TIP3   OH218001   6.410   0.702   5.105
 6023TIP3    H118002   6.416   0.796   5.119
 6023TIP3    H218003   6.316   0.683   5.110
 6024TIP3   OH218004   5.999   0.371   4.149
 6024TIP3    H118005   6.072   0.325   4.190
 6024TIP3    H218006   5.959   0.421   4.221
 6025TIP3   OH218007   7.087   0.926   4.748
 6025TIP3    H118008   7.132   0.861   4.693
 6025TIP3    H218009   7.074   0.881   4.832
 6026TIP3   OH218010   6.206   0.492   4.366
 6026TIP3    H118011   6.113   0.507   4.380
 6026TIP3    H218012   6.211   0.408   4.321
 6027TIP3   OH218013   6.496   0.464   4.114
 6027TIP3    H118014   6.591   0.461   4.105
 6027TIP3    H218015   6.463   0.479   4.025
 6028TIP3   OH218016   6.365   0.443   3.881
 6028TIP3    H118017   6.275   0.448   3.847
 6028TIP3    H218018   6.418   0.491   3.818
 6029TIP3   OH218019   7.459   2.121   4.868
 6029TIP3    H118020   7.453   2.143   4.775
 6029TIP3    H218021   7.535   2.169   4.900
 6030TIP3   OH218022   6.389   1.234   5.247
 6030TIP3    H118023   6.459   1.284   5.290
 6030TIP3    H218024   6.347   1.186   5.318
 6031TIP3   OH218025   6.858   0.758   4.522
 6031TIP3    H118026   6.896   0.674   4.497
 6031TIP3    H218027   6.855   0.755   4.618
 6032TIP3   OH218028   6.815   0.719   4.788
 6032TIP3    H118029   6.731   0.713   4.834
 6032TIP3    H218030   6.866   0.782   4.839
 6033TIP3   OH218031   6.553   0.967   3.917
 6033TIP3    H118032   6.477   0.911   3.900
 6033TIP3    H218033   6.534   1.005   4.003
 6034TIP3   OH218034   7.459   1.224   4.529
 6034TIP3    H118035   7.492   1.272   4.453
 6034TIP3    H218036   7.375   1.188   4.501
 6035TIP3   OH218037   6.922   0.419   3.718
 6035TIP3    H118038   6.918   0.327   3.746
 6035TIP3    H218039   6.969   0.463   3.789
 6036TIP3   OH218040   6.972   1.284   4.945
 6036TIP3    H118041   7.029   1.284   5.022
 6036TIP3    H218042   6.936   1.373   4.943
 6037TIP3   OH218043   7.092   0.561   3.877
 6037TIP3    H118044   7.145   0.578   3.955
 6037TIP3    H218045   7.067   0.648   3.846
 6038TIP3   OH218046   6.259   0.986   4.578
 6038TIP3    H118047   6.297   0.968   4.491
 6038TIP3    H218048   6.321   0.947   4.639
 6039TIP3   OH218049   6.723   1.117   3.768
 6039TIP3    H118050   6.681   1.203   3.762
 6039TIP3    H218051   6.661   1.063   3.817
 6040TIP3   OH218052   6.858   1.059   5.257
 6040TIP3    H118053   6.796   0.991   5.229
 6040TIP3    H218054   6.942   1.032   5.219
 6041TIP3   OH218055   7.125   1.572   4.830
 6041TIP3    H118056   7.029   1.565   4.833
 6041TIP3    H218057   7.148   1.618   4.910
 6042TIP3   OH218058   7.518   0.662   3.704
 6042TIP3    H118059   7.463   0.622   3.637
 6042TIP3    H218060   7.535   0.750   3.672
 6043TIP3   OH218061   7.772   1.523   4.781
 6043TIP3    H118062   7.680   1.496   4.786
 6043TIP3    H218063   7.803   1.487   4.698
 6044TIP3   OH218064   7.256   1.448   3.650
 6044TIP3    H118065   7.218   1.386   3.712
 6044TIP3    H218066   7.264   1.398   3.569
 6045TIP3   OH218067   7.223   1.110   4.433
 6045TIP3    H118068   7.133   1.086   4.454
 6045TIP3    H218069   7.260   1.032   4.391
 6046TIP3   OH218070   6.387   1.318   4.239
 6046TIP3    H118071   6.386   1.394   4.181
 6046TIP3    H218072   6.296   1.308   4.267
 6047TIP3   OH218073   5.949   0.620   3.953
 6047TIP3    H118074   5.996   0.703   3.962
 6047TIP3    H218075   5.870   0.632   4.006
 6048TIP3   OH218076   6.480   1.074   4.152
 6048TIP3    H118077   6.462   1.165   4.176
 6048TIP3    H218078   6.441   1.023   4.222
 6049TIP3   OH218079   6.666   1.631   4.697
 6049TIP3    H118080   6.698   1.704   4.645
 6049TIP3    H218081   6.742   1.600   4.745
 6050TIP3   OH218082   6.302   1.540   4.087
 6050TIP3    H118083   6.216   1.546   4.127
 6050TIP3    H218084   6.338   1.629   4.091
 6051TIP3   OH218085   7.019   1.294   4.671
 6051TIP3    H118086   7.009   1.286   4.766
 6051TIP3    H218087   7.100   1.246   4.651
 6052TIP3   OH218088   7.003   1.176   3.527
 6052TIP3    H118089   7.049   1.142   3.604
 6052TIP3    H218090   6.915   1.137   3.532
 6053TIP3   OH218091   7.276   1.799   4.700
 6053TIP3    H118092   7.200   1.742   4.711
 6053TIP3    H218093   7.252   1.859   4.629
 6054TIP3   OH218094   7.329   1.650   3.343
 6054TIP3    H118095   7.340   1.708   3.268
 6054TIP3    H218096   7.260   1.689   3.395
 6055TIP3   OH218097   7.170   1.070   3.715
 6055TIP3    H118098   7.156   1.035   3.803
 6055TIP3    H218099   7.262   1.093   3.712
 6056TIP3   OH218100   6.087   1.519   4.856
 6056TIP3    H118101   6.132   1.452   4.907
 6056TIP3    H218102   6.107   1.601   4.901
 6057TIP3   OH218103   6.364   1.152   3.548
 6057TIP3    H118104   6.379   1.061   3.523
 6057TIP3    H218105   6.349   1.148   3.643
 6058TIP3   OH218106   6.309   1.161   3.820
 6058TIP3    H118107   6.382   1.134   3.876
 6058TIP3    H218108   6.307   1.256   3.826
 6059TIP3   OH218109   6.043   0.873   4.027
 6059TIP3    H118110   5.976   0.917   4.079
 6059TIP3    H218111   6.060   0.932   3.954
 6060TIP3   OH218112   6.577   1.344   3.756
 6060TIP3    H118113   6.493   1.370   3.794
 6060TIP3    H218114   6.606   1.421   3.708
 6061TIP3   OH218115   6.763   0.428   4.100
 6061TIP3    H118116   6.815   0.508   4.097
 6061TIP3    H218117   6.751   0.410   4.194
 6062TIP3   OH218118   7.038   0.769   4.973
 6062TIP3    H118119   7.007   0.840   5.029
 6062TIP3    H218120   7.113   0.733   5.019
 6063TIP3   OH218121   6.326   1.432   3.835
 6063TIP3    H118122   6.304   1.501   3.773
 6063TIP3    H218123   6.317   1.473   3.921
 6064TIP3   OH218124   7.318   0.876   4.321
 6064TIP3    H118125   7.242   0.823   4.344
 6064TIP3    H218126   7.387   0.847   4.380
 6065TIP3   OH218127   6.058   1.043   3.807
 6065TIP3    H118128   6.131   1.104   3.817
 6065TIP3    H218129   6.090   0.978   3.744
 6066TIP3   OH218130   5.799   0.404   3.865
 6066TIP3    H118131   5.849   0.470   3.913
 6066TIP3    H218132   5.809   0.324   3.917
 6067TIP3   OH218133   7.281   1.804   4.261
 6067TIP3    H118134   7.235   1.850   4.192
 6067TIP3    H218135   7.374   1.819   4.243
 6068TIP3   OH218136   5.895   1.296   4.215
 6068TIP3    H118137   5.855   1.333   4.293
 6068TIP3    H218138   5.852   1.340   4.142
 6069TIP3   OH218139   6.083   1.833   5.278
 6069TIP3    H118140   6.168   1.833   5.323
 6069TIP3    H218141   6.060   1.741   5.270
 6070TIP3   OH218142   6.559   1.733   5.340
 6070TIP3    H118143   6.654   1.718   5.341
 6070TIP3    H218144   6.528   1.686   5.263
 6071TIP3   OH218145   6.506   1.361   3.440
 6071TIP3    H118146   6.464   1.288   3.485
 6071TIP3    H218147   6.583   1.323   3.399
 6072TIP3   OH218148   7.179   1.688   5.073
 6072TIP3    H118149   7.193   1.621   5.141
 6072TIP3    H218150   7.253   1.747   5.083
 6073TIP3   OH218151   6.964   1.390   3.362
 6073TIP3    H118152   6.992   1.320   3.422
 6073TIP3    H218153   7.024   1.383   3.288
 6074TIP3   OH218154   6.176   1.269   5.479
 6074TIP3    H118155   6.211   1.180   5.471
 6074TIP3    H218156   6.098   1.269   5.424
 6075TIP3   OH218157   6.185   0.847   3.665
 6075TIP3    H118158   6.232   0.823   3.744
 6075TIP3    H218159   6.254   0.863   3.600
 6076TIP3   OH218160   6.814   1.333   5.254
 6076TIP3    H118161   6.772   1.352   5.170
 6076TIP3    H218162   6.844   1.242   5.245
 6077TIP3   OH218163   6.748   1.068   3.498
 6077TIP3    H118164   6.726   1.079   3.590
 6077TIP3    H218165   6.729   0.976   3.479
 6078TIP3   OH218166   7.287   1.346   4.849
 6078TIP3    H118167   7.367   1.376   4.807
 6078TIP3    H218168   7.225   1.418   4.837
 6079TIP3   OH218169   6.319   1.039   5.438
 6079TIP3    H118170   6.286   0.950   5.425
 6079TIP3    H218171   6.358   1.038   5.525
 6080TIP3   OH218172   6.350   0.783   3.881
 6080TIP3    H118173   6.329   0.749   3.968
 6080TIP3    H218174   6.402   0.713   3.840
 6081TIP3   OH218175   6.674   0.886   5.116
 6081TIP3    H118176   6.589   0.929   5.119
 6081TIP3    H218177   6.720   0.927   5.043
 6082TIP3   OH218178   6.496   0.610   3.719
 6082TIP3    H118179   6.461   0.617   3.630
 6082TIP3    H218180   6.590   0.624   3.708
 6083TIP3   OH218181   7.172   1.252   5.213
 6083TIP3    H118182   7.248   1.226   5.160
 6083TIP3    H218183   7.171   1.189   5.285
 6084TIP3   OH218184   7.294   0.875   3.409
 6084TIP3    H118185   7.277   0.843   3.321
 6084TIP3    H218186   7.274   0.969   3.404
 6085TIP3   OH218187   6.773   0.626   5.161
 6085TIP3    H118188   6.720   0.563   5.112
 6085TIP3    H218189   6.742   0.712   5.131
 6086TIP3   OH218190   6.826   0.997   4.917
 6086TIP3    H118191   6.903   1.054   4.911
 6086TIP3    H218192   6.758   1.042   4.866
 6087TIP3   OH218193   7.368   0.903   5.205
 6087TIP3    H118194   7.374   0.899   5.301
 6087TIP3    H218195   7.442   0.958   5.179
 6088TIP3   OH218196   7.404   1.212   5.055
 6088TIP3    H118197   7.350   1.258   4.990
 6088TIP3    H218198   7.491   1.208   5.014
 6089TIP3   OH218199   6.720   0.833   5.469
 6089TIP3    H118200   6.643   0.805   5.419
 6089TIP3    H218201   6.778   0.757   5.469
 6090TIP3   OH218202   7.022   0.713   5.269
 6090TIP3    H118203   7.037   0.688   5.360
 6090TIP3    H218204   6.941   0.669   5.244
 6091TIP3   OH218205   6.311   1.633   3.646
 6091TIP3    H118206   6.405   1.622   3.630
 6091TIP3    H218207   6.279   1.681   3.570
 6092TIP3   OH218208   5.786   1.027   3.830
 6092TIP3    H118209   5.880   1.043   3.825
 6092TIP3    H218210   5.775   0.940   3.793
 6093TIP3   OH218211   5.694   1.606   4.290
 6093TIP3    H118212   5.629   1.553   4.245
 6093TIP3    H218213   5.738   1.545   4.350
 6094TIP3   OH218214   5.836   1.439   4.460
 6094TIP3    H118215   5.826   1.373   4.528
 6094TIP3    H218216   5.887   1.509   4.502
 6095TIP3   OH218217   7.557   1.847   4.259
 6095TIP3    H118218   7.575   1.875   4.348
 6095TIP3    H218219   7.616   1.899   4.204
 6096TIP3   OH218220   7.582   1.880   4.540
 6096TIP3    H118221   7.540   1.794   4.543
 6096TIP3    H218222   7.659   1.872   4.595
 6097TIP3   OH218223   7.649   1.569   5.127
 6097TIP3    H118224   7.574   1.581   5.184
 6097TIP3    H218225   7.690   1.655   5.121
 6098TIP3   OH218226   7.445   1.116   3.719
 6098TIP3    H118227   7.502   1.182   3.679
 6098TIP3    H218228   7.491   1.090   3.799
 6099TIP3   OH218229   7.587   1.023   3.934
 6099TIP3    H118230   7.509   0.992   3.980
 6099TIP3    H218231   7.636   1.072   4.000
 6100TIP3   OH218232   7.645   1.349   4.357
 6100TIP3    H118233   7.677   1.289   4.290
 6100TIP3    H218234   7.642   1.434   4.314
 6101TIP3   OH218235   7.450   1.632   4.561
 6101TIP3    H118236   7.382   1.680   4.609
 6101TIP3    H218237   7.404   1.596   4.485
 6102TIP3   OH218238   7.512   0.898   3.571
 6102TIP3    H118239   7.437   0.888   3.512
 6102TIP3    H218240   7.492   0.976   3.623
 6103TIP3   OH218241   7.381   0.608   3.473
 6103TIP3    H118242   7.341   0.689   3.441
 6103TIP3    H218243   7.310   0.562   3.518
 6104TIP3   OH218244   7.383   0.907   4.062
 6104TIP3    H118245   7.415   0.819   4.041
 6104TIP3    H218246   7.366   0.904   4.156
 6105TIP3   OH218247   5.999   0.924   4.788
 6105TIP3    H118248   5.994   0.893   4.697
 6105TIP3    H218249   6.090   0.908   4.813
 6106TIP3   OH218250   7.649   1.232   4.925
 6106TIP3    H118251   7.725   1.177   4.903
 6106TIP3    H218252   7.635   1.285   4.847
 6107TIP3   OH218253   7.871   1.065   4.931
 6107TIP3    H118254   7.824   0.986   4.956
 6107TIP3    H218255   7.942   1.071   4.995
 6108TIP3   OH218256   7.452   0.662   3.969
 6108TIP3    H118257   7.489   0.578   3.996
 6108TIP3    H218258   7.472   0.667   3.876
 6109TIP3   OH218259   7.526   0.815   4.475
 6109TIP3    H118260   7.615   0.821   4.442
 6109TIP3    H218261   7.535   0.793   4.567
 6110TIP3   OH218262   7.639   0.872   4.726
 6110TIP3    H118263   7.560   0.905   4.769
 6110TIP3    H218264   7.664   0.942   4.666
 6111TIP3   OH218265   6.112   0.533   5.555
 6111TIP3    H118266   6.200   0.530   5.517
 6111TIP3    H218267   6.088   0.441   5.567
 6112TIP3   OH218268   5.981   0.613   4.961
 6112TIP3    H118269   6.020   0.638   4.877
 6112TIP3    H218270   6.019   0.673   5.024
 6113TIP3   OH218271   7.128   1.738   3.905
 6113TIP3    H118272   7.193   1.743   3.836
 6113TIP3    H218273   7.139   1.820   3.954
 6114TIP3   OH218274   6.232   1.547   5.282
 6114TIP3    H118275   6.137   1.537   5.272
 6114TIP3    H218276   6.250   1.513   5.370
 6115TIP3   OH218277   6.439   1.596   4.848
 6115TIP3    H118278   6.387   1.669   4.814
 6115TIP3    H218279   6.523   1.604   4.802
 6116TIP3   OH218280   6.842   1.825   4.979
 6116TIP3    H118281   6.880   1.822   5.067
 6116TIP3    H218282   6.903   1.879   4.929
 6117TIP3   OH218283   7.029   1.983   4.851
 6117TIP3    H118284   7.093   1.937   4.797
 6117TIP3    H218285   7.083   2.039   4.907
 6118TIP3   OH218286   6.100   1.839   4.890
 6118TIP3    H118287   6.010   1.858   4.865
 6118TIP3    H218288   6.121   1.906   4.955
 6119TIP3   OH218289   6.331   1.825   4.740
 6119TIP3    H118290   6.248   1.832   4.788
 6119TIP3    H218291   6.309   1.851   4.651
 6120TIP3   OH218292   6.746   1.836   4.532
 6120TIP3    H118293   6.684   1.842   4.459
 6120TIP3    H218294   6.755   1.926   4.564
 6121TIP3   OH218295   7.011   1.776   4.580
 6121TIP3    H118296   6.919   1.794   4.562
 6121TIP3    H218297   7.059   1.844   4.532
 6122TIP3   OH218298   7.208   1.956   4.480
 6122TIP3    H118299   7.201   2.045   4.445
 6122TIP3    H218300   7.232   1.902   4.403
 6123TIP3   OH218301   6.008   1.619   4.607
 6123TIP3    H118302   6.031   1.592   4.696
 6123TIP3    H218303   6.080   1.587   4.552
 6124TIP3   OH218304   6.209   1.503   4.466
 6124TIP3    H118305   6.219   1.420   4.513
 6124TIP3    H218306   6.296   1.544   4.472
 6125TIP3   OH218307   6.474   1.581   4.498
 6125TIP3    H118308   6.495   1.489   4.484
 6125TIP3    H218309   6.531   1.608   4.570
 6126TIP3   OH218310   5.779   1.415   3.999
 6126TIP3    H118311   5.695   1.381   3.969
 6126TIP3    H218312   5.782   1.504   3.964
 6127TIP3   OH218313   6.576   1.577   3.591
 6127TIP3    H118314   6.660   1.602   3.552
 6127TIP3    H218315   6.542   1.508   3.533
 6128TIP3   OH218316   7.292   1.717   3.679
 6128TIP3    H118317   7.283   1.622   3.673
 6128TIP3    H218318   7.242   1.750   3.605
 6129TIP3   OH218319   5.879   1.414   3.642
 6129TIP3    H118320   5.883   1.429   3.736
 6129TIP3    H218321   5.962   1.369   3.621
 6130TIP3   OH218322   7.502   1.849   4.862
 6130TIP3    H118323   7.427   1.819   4.812
 6130TIP3    H218324   7.487   1.943   4.873
 6131TIP3   OH218325   8.065   1.525   4.111
 6131TIP3    H118326   8.061   1.433   4.084
 6131TIP3    H218327   8.149   1.533   4.157
 6132TIP3   OH218328   7.750   0.785   3.932
 6132TIP3    H118329   7.673   0.832   3.899
 6132TIP3    H218330   7.788   0.744   3.854
 6133TIP3   OH218331   7.859   1.005   4.054
 6133TIP3    H118332   7.811   0.935   4.009
 6133TIP3    H218333   7.906   1.050   3.984
 6134TIP3   OH218334   7.636   1.276   3.599
 6134TIP3    H118335   7.599   1.299   3.513
 6134TIP3    H218336   7.654   1.360   3.641
 6135TIP3   OH218337   8.261   1.902   4.667
 6135TIP3    H118338   8.246   1.885   4.575
 6135TIP3    H218339   8.182   1.870   4.711
 6136TIP3   OH218340   7.847   1.396   4.550
 6136TIP3    H118341   7.774   1.372   4.492
 6136TIP3    H218342   7.877   1.313   4.586
 6137TIP3   OH218343   7.679   1.595   4.227
 6137TIP3    H118344   7.764   1.630   4.252
 6137TIP3    H218345   7.618   1.667   4.242
 6138TIP3   OH218346   7.851   1.790   3.750
 6138TIP3    H118347   7.924   1.784   3.810
 6138TIP3    H218348   7.814   1.702   3.748
 6139TIP3   OH218349   8.025   1.604   4.511
 6139TIP3    H118350   8.097   1.578   4.568
 6139TIP3    H218351   7.962   1.533   4.518
 6140TIP3   OH218352   7.857   0.662   3.706
 6140TIP3    H118353   7.845   0.639   3.613
 6140TIP3    H218354   7.847   0.578   3.752
 6141TIP3   OH218355   8.199   1.499   4.734
 6141TIP3    H118356   8.158   1.572   4.781
 6141TIP3    H218357   8.179   1.422   4.787
 6142TIP3   OH218358   7.924   1.163   4.679
 6142TIP3    H118359   7.925   1.136   4.770
 6142TIP3    H218360   7.849   1.118   4.641
 6143TIP3   OH218361   7.728   0.874   3.406
 6143TIP3    H118362   7.787   0.947   3.426
 6143TIP3    H218363   7.654   0.885   3.465
 6144TIP3   OH218364   7.878   1.778   4.339
 6144TIP3    H118365   7.937   1.723   4.390
 6144TIP3    H218366   7.892   1.866   4.373
 6145TIP3   OH218367   7.835   1.114   3.481
 6145TIP3    H118368   7.776   1.159   3.541
 6145TIP3    H218369   7.852   1.178   3.411
 6146TIP3   OH218370   7.848   1.311   3.278
 6146TIP3    H118371   7.902   1.383   3.312
 6146TIP3    H218372   7.860   1.316   3.183
 6147TIP3   OH218373   7.625   0.628   3.336
 6147TIP3    H118374   7.666   0.707   3.371
 6147TIP3    H218375   7.569   0.597   3.407
 6148TIP3   OH218376   7.672   1.532   3.699
 6148TIP3    H118377   7.638   1.578   3.775
 6148TIP3    H218378   7.641   1.582   3.624
 6149TIP3   OH218379   7.870   2.070   4.761
 6149TIP3    H118380   7.947   2.072   4.817
 6149TIP3    H218381   7.843   1.978   4.760
 6150TIP3   OH218382   7.985   1.501   4.958
 6150TIP3    H118383   8.024   1.416   4.942
 6150TIP3    H218384   7.905   1.502   4.906
 6151TIP3   OH218385   8.135   1.272   4.898
 6151TIP3    H118386   8.159   1.201   4.838
 6151TIP3    H218387   8.123   1.229   4.982
 6152TIP3   OH218388   7.576   1.283   3.317
 6152TIP3    H118389   7.671   1.290   3.310
 6152TIP3    H218390   7.556   1.195   3.284
 6153TIP3   OH218391   7.496   1.866   3.779
 6153TIP3    H118392   7.428   1.815   3.734
 6153TIP3    H218393   7.539   1.802   3.836
 6154TIP3   OH218394   7.634   1.686   3.943
 6154TIP3    H118395   7.621   1.626   4.016
 6154TIP3    H218396   7.691   1.754   3.978
 6155TIP3   OH218397   7.826   1.106   4.310
 6155TIP3    H118398   7.832   1.069   4.222
 6155TIP3    H218399   7.906   1.158   4.320
 6156TIP3   OH218400   7.926   0.800   5.045
 6156TIP3    H118401   8.015   0.834   5.041
 6156TIP3    H218402   7.937   0.705   5.040
 6157TIP3   OH218403   7.795   0.832   4.403
 6157TIP3    H118404   7.843   0.797   4.328
 6157TIP3    H218405   7.815   0.926   4.403
 6158TIP3   OH218406   8.044   1.786   4.805
 6158TIP3    H118407   7.956   1.781   4.768
 6158TIP3    H218408   8.031   1.777   4.899
 6159TIP3   OH218409   7.878   2.067   4.387
 6159TIP3    H118410   7.790   2.093   4.361
 6159TIP3    H218411   7.905   2.134   4.450
 6160TIP3   OH218412   8.100   2.024   4.225
 6160TIP3    H118413   8.026   2.039   4.284
 6160TIP3    H218414   8.084   2.083   4.150
 6161TIP3   OH218415   7.804   1.868   4.084
 6161TIP3    H118416   7.826   1.845   4.175
 6161TIP3    H218417   7.880   1.840   4.033
 6162TIP3   OH218418   8.024   1.755   3.966
 6162TIP3    H118419   8.031   1.673   4.015
 6162TIP3    H218420   8.106   1.800   3.984
 6163TIP3   OH218421   7.580   1.660   3.471
 6163TIP3    H118422   7.491   1.639   3.442
 6163TIP3    H218423   7.591   1.753   3.450
 6164TIP3   OH218424   7.634   1.701   3.163
 6164TIP3    H118425   7.600   1.769   3.220
 6164TIP3    H218426   7.666   1.633   3.223
 6165TIP3   OH218427   1.225   2.011   5.310
 6165TIP3    H118428   1.201   2.101   5.288
 6165TIP3    H218429   1.153   1.958   5.278
 6166TIP3   OH218430   1.241   2.008   5.717
 6166TIP3    H118431   1.283   1.994   5.802
 6166TIP3    H218432   1.186   1.930   5.705
 6167TIP3   OH218433   0.531   1.924   6.059
 6167TIP3    H118434   0.559   1.852   6.116
 6167TIP3    H218435   0.610   1.947   6.010
 6168TIP3   OH218436   1.496   2.318   5.400
 6168TIP3    H118437   1.481   2.257   5.473
 6168TIP3    H218438   1.516   2.401   5.442
 6169TIP3   OH218439   0.515   2.311   5.779
 6169TIP3    H118440   0.500   2.217   5.777
 6169TIP3    H218441   0.610   2.321   5.768
 6170TIP3   OH218442   0.259   1.811   5.794
 6170TIP3    H118443   0.320   1.737   5.804
 6170TIP3    H218444   0.292   1.859   5.718
 6171TIP3   OH218445   1.143   2.761   5.406
 6171TIP3    H118446   1.175   2.693   5.346
 6171TIP3    H218447   1.131   2.716   5.489
 6172TIP3   OH218448   1.030   2.239   5.729
 6172TIP3    H118449   1.070   2.164   5.685
 6172TIP3    H218450   1.104   2.289   5.763
 6173TIP3   OH218451   2.065   1.548   5.708
 6173TIP3    H118452   2.069   1.626   5.763
 6173TIP3    H218453   2.127   1.566   5.637
 6174TIP3   OH218454   1.446   1.719   5.771
 6174TIP3    H118455   1.480   1.631   5.788
 6174TIP3    H218456   1.404   1.712   5.685
 6175TIP3   OH218457   0.821   1.404   5.725
 6175TIP3    H118458   0.790   1.478   5.673
 6175TIP3    H218459   0.770   1.330   5.694
 6176TIP3   OH218460   1.476   1.499   5.351
 6176TIP3    H118461   1.549   1.471   5.407
 6176TIP3    H218462   1.518   1.536   5.274
 6177TIP3   OH218463   0.447   1.607   5.820
 6177TIP3    H118464   0.512   1.580   5.884
 6177TIP3    H218465   0.452   1.541   5.751
 6178TIP3   OH218466   0.849   1.809   5.665
 6178TIP3    H118467   0.942   1.790   5.672
 6178TIP3    H218468   0.809   1.728   5.633
 6179TIP3   OH218469   2.093   1.752   5.914
 6179TIP3    H118470   2.024   1.816   5.895
 6179TIP3    H218471   2.149   1.796   5.977
 6180TIP3   OH218472   0.783   1.371   6.165
 6180TIP3    H118473   0.732   1.416   6.098
 6180TIP3    H218474   0.726   1.371   6.243
 6181TIP3   OH218475   1.129   2.233   5.171
 6181TIP3    H118476   1.087   2.208   5.089
 6181TIP3    H218477   1.080   2.310   5.200
 6182TIP3   OH218478   0.877   2.166   5.949
 6182TIP3    H118479   0.819   2.233   5.984
 6182TIP3    H218480   0.918   2.207   5.873
 6183TIP3   OH218481   0.682   1.504   5.947
 6183TIP3    H118482   0.734   1.580   5.974
 6183TIP3    H218483   0.731   1.467   5.874
 6184TIP3   OH218484   0.715   2.360   6.057
 6184TIP3    H118485   0.702   2.450   6.027
 6184TIP3    H218486   0.633   2.338   6.102
 6185TIP3   OH218487   0.121   2.039   5.310
 6185TIP3    H118488   0.065   2.052   5.233
 6185TIP3    H218489   0.134   2.127   5.345
 6186TIP3   OH218490   1.537   2.566   5.535
 6186TIP3    H118491   1.452   2.559   5.577
 6186TIP3    H218492   1.534   2.649   5.488
 6187TIP3   OH218493   1.791   1.441   5.804
 6187TIP3    H118494   1.696   1.431   5.798
 6187TIP3    H218495   1.803   1.523   5.853
 6188TIP3   OH218496   1.146   1.117   5.905
 6188TIP3    H118497   1.138   1.022   5.915
 6188TIP3    H218498   1.063   1.151   5.940
 6189TIP3   OH218499   1.242   2.598   5.203
 6189TIP3    H118500   1.294   2.520   5.188
 6189TIP3    H218501   1.297   2.670   5.171
 6190TIP3   OH218502   1.385   2.371   5.151
 6190TIP3    H118503   1.318   2.304   5.142
 6190TIP3    H218504   1.432   2.347   5.231
 6191TIP3   OH218505   1.761   2.461   5.887
 6191TIP3    H118506   1.747   2.388   5.827
 6191TIP3    H218507   1.744   2.539   5.834
 6192TIP3   OH218508   1.053   1.860   5.152
 6192TIP3    H118509   0.970   1.907   5.140
 6192TIP3    H218510   1.098   1.868   5.068
 6193TIP3   OH218511   1.026   1.660   4.852
 6193TIP3    H118512   1.086   1.716   4.902
 6193TIP3    H218513   1.084   1.601   4.805
 6194TIP3   OH218514   1.949   2.118   5.752
 6194TIP3    H118515   1.866   2.167   5.749
 6194TIP3    H218516   1.987   2.132   5.665
 6195TIP3   OH218517   1.410   1.947   5.118
 6195TIP3    H118518   1.355   1.975   5.191
 6195TIP3    H218519   1.495   1.929   5.158
 6196TIP3   OH218520   1.639   1.986   6.055
 6196TIP3    H118521   1.639   2.069   6.103
 6196TIP3    H218522   1.555   1.986   6.009
 6197TIP3   OH218523   0.636   1.932   5.528
 6197TIP3    H118524   0.603   1.873   5.460
 6197TIP3    H218525   0.713   1.888   5.563
 6198TIP3   OH218526   0.776   2.358   5.664
 6198TIP3    H118527   0.749   2.342   5.574
 6198TIP3    H218528   0.863   2.319   5.671
 6199TIP3   OH218529   0.764   1.921   5.904
 6199TIP3    H118530   0.790   1.894   5.816
 6199TIP3    H218531   0.802   2.008   5.914
 6200TIP3   OH218532   1.306   2.556   5.675
 6200TIP3    H118533   1.285   2.639   5.718
 6200TIP3    H218534   1.280   2.489   5.738
 6201TIP3   OH218535   0.915   2.459   6.219
 6201TIP3    H118536   0.858   2.522   6.264
 6201TIP3    H218537   0.856   2.410   6.163
 6202TIP3   OH218538   1.247   1.807   4.947
 6202TIP3    H118539   1.304   1.868   4.994
 6202TIP3    H218540   1.274   1.815   4.855
 6203TIP3   OH218541   0.684   2.020   6.332
 6203TIP3    H118542   0.692   2.105   6.375
 6203TIP3    H218543   0.591   2.010   6.316
 6204TIP3   OH218544   0.996   2.475   5.211
 6204TIP3    H118545   1.076   2.527   5.214
 6204TIP3    H218546   0.933   2.531   5.164
 6205TIP3   OH218547   0.720   2.629   6.312
 6205TIP3    H118548   0.696   2.642   6.221
 6205TIP3    H218549   0.640   2.597   6.354
 6206TIP3   OH218550   1.748   1.036   5.001
 6206TIP3    H118551   1.670   1.058   5.052
 6206TIP3    H218552   1.763   1.112   4.945
 6207TIP3   OH218553   0.522   1.777   5.319
 6207TIP3    H118554   0.449   1.826   5.282
 6207TIP3    H218555   0.488   1.688   5.330
 6208TIP3   OH218556   1.576   2.415   4.554
 6208TIP3    H118557   1.574   2.509   4.536
 6208TIP3    H218558   1.667   2.389   4.536
 6209TIP3   OH218559   0.317   2.140   6.242
 6209TIP3    H118560   0.269   2.118   6.162
 6209TIP3    H218561   0.352   2.057   6.273
 6210TIP3   OH218562   0.191   2.331   5.842
 6210TIP3    H118563   0.286   2.336   5.854
 6210TIP3    H218564   0.155   2.381   5.915
 6211TIP3   OH218565   2.001   2.825   5.957
 6211TIP3    H118566   2.002   2.730   5.970
 6211TIP3    H218567   1.919   2.854   5.997
 6212TIP3   OH218568   1.101   2.602   6.077
 6212TIP3    H118569   1.097   2.694   6.104
 6212TIP3    H218570   1.032   2.559   6.127
 6213TIP3   OH218571   0.884   2.708   5.035
 6213TIP3    H118572   0.839   2.690   4.952
 6213TIP3    H218573   0.848   2.791   5.064
 6214TIP3   OH218574   0.325   2.590   5.414
 6214TIP3    H118575   0.377   2.575   5.493
 6214TIP3    H218576   0.254   2.527   5.419
 6215TIP3   OH218577   1.081   2.638   4.659
 6215TIP3    H118578   1.133   2.566   4.623
 6215TIP3    H218579   1.117   2.652   4.747
 6216TIP3   OH218580   1.137   2.683   4.928
 6216TIP3    H118581   1.052   2.685   4.973
 6216TIP3    H218582   1.198   2.656   4.996
 6217TIP3   OH218583   1.895   1.948   6.236
 6217TIP3    H118584   1.804   1.954   6.206
 6217TIP3    H218585   1.908   1.854   6.251
 6218TIP3   OH218586   0.487   2.357   6.211
 6218TIP3    H118587   0.514   2.376   6.301
 6218TIP3    H218588   0.422   2.287   6.220
 6219TIP3   OH218589   0.899   1.177   6.005
 6219TIP3    H118590   0.817   1.135   5.979
 6219TIP3    H218591   0.873   1.246   6.066
 6220TIP3   OH218592   1.461   1.299   6.230
 6220TIP3    H118593   1.523   1.267   6.295
 6220TIP3    H218594   1.375   1.286   6.271
 6221TIP3   OH218595   1.652   1.721   6.133
 6221TIP3    H118596   1.609   1.717   6.218
 6221TIP3    H218597   1.635   1.811   6.103
 6222TIP3   OH218598   1.326   1.788   4.685
 6222TIP3    H118599   1.278   1.796   4.602
 6222TIP3    H218600   1.407   1.837   4.671
 6223TIP3   OH218601   0.979   1.210   4.995
 6223TIP3    H118602   1.056   1.266   5.002
 6223TIP3    H218603   0.964   1.200   4.901
 6224TIP3   OH218604   0.834   1.707   6.056
 6224TIP3    H118605   0.780   1.716   6.134
 6224TIP3    H218606   0.815   1.785   6.004
 6225TIP3   OH218607   0.706   1.596   5.570
 6225TIP3    H118608   0.616   1.569   5.590
 6225TIP3    H218609   0.721   1.567   5.480
 6226TIP3   OH218610   1.185   1.651   5.272
 6226TIP3    H118611   1.135   1.725   5.237
 6226TIP3    H218612   1.250   1.632   5.205
 6227TIP3   OH218613   1.379   1.973   6.413
 6227TIP3    H118614   1.347   1.889   6.447
 6227TIP3    H218615   1.474   1.967   6.418
 6228TIP3   OH218616   1.343   1.692   5.517
 6228TIP3    H118617   1.279   1.739   5.464
 6228TIP3    H218618   1.370   1.618   5.462
 6229TIP3   OH218619   0.642   1.748   6.253
 6229TIP3    H118620   0.667   1.828   6.299
 6229TIP3    H218621   0.559   1.722   6.292
 6230TIP3   OH218622   1.385   1.921   5.946
 6230TIP3    H118623   1.411   1.853   5.884
 6230TIP3    H218624   1.344   1.874   6.018
 6231TIP3   OH218625   1.080   1.383   5.610
 6231TIP3    H118626   0.999   1.392   5.661
 6231TIP3    H218627   1.149   1.377   5.676
 6232TIP3   OH218628   0.489   1.423   5.614
 6232TIP3    H118629   0.407   1.399   5.571
 6232TIP3    H218630   0.546   1.348   5.600
 6233TIP3   OH218631   0.743   1.483   5.331
 6233TIP3    H118632   0.836   1.478   5.309
 6233TIP3    H218633   0.698   1.477   5.247
 6234TIP3   OH218634   1.516   1.448   5.814
 6234TIP3    H118635   1.491   1.470   5.904
 6234TIP3    H218636   1.448   1.388   5.784
 6235TIP3   OH218637   0.632   1.467   5.086
 6235TIP3    H118638   0.582   1.403   5.035
 6235TIP3    H218639   0.671   1.526   5.021
 6236TIP3   OH218640   1.709   3.167   6.040
 6236TIP3    H118641   1.701   3.190   5.947
 6236TIP3    H218642   1.787   3.215   6.069
 6237TIP3   OH218643   0.670   2.265   6.472
 6237TIP3    H118644   0.750   2.285   6.520
 6237TIP3    H218645   0.605   2.326   6.507
 6238TIP3   OH218646   1.116   1.744   5.719
 6238TIP3    H118647   1.184   1.694   5.674
 6238TIP3    H218648   1.115   1.707   5.808
 6239TIP3   OH218649   0.682   1.196   5.603
 6239TIP3    H118650   0.624   1.121   5.588
 6239TIP3    H218651   0.769   1.164   5.579
 6240TIP3   OH218652   1.097   1.655   5.986
 6240TIP3    H118653   1.009   1.685   6.010
 6240TIP3    H218654   1.156   1.706   6.041
 6241TIP3   OH218655   0.820   2.001   5.107
 6241TIP3    H118656   0.744   1.948   5.081
 6241TIP3    H218657   0.793   2.043   5.189
 6242TIP3   OH218658   1.716   2.257   5.706
 6242TIP3    H118659   1.749   2.308   5.632
 6242TIP3    H218660   1.634   2.218   5.674
 6243TIP3   OH218661   1.215   1.368   4.976
 6243TIP3    H118662   1.198   1.396   4.886
 6243TIP3    H218663   1.266   1.440   5.014
 6244TIP3   OH218664   1.212   2.338   6.113
 6244TIP3    H118665   1.250   2.340   6.201
 6244TIP3    H218666   1.170   2.423   6.103
 6245TIP3   OH218667   1.363   1.582   5.064
 6245TIP3    H118668   1.458   1.590   5.068
 6245TIP3    H218669   1.334   1.658   5.014
 6246TIP3   OH218670   0.515   2.037   5.754
 6246TIP3    H118671   0.553   2.007   5.672
 6246TIP3    H218672   0.538   1.969   5.817
 6247TIP3   OH218673   0.970   2.162   4.946
 6247TIP3    H118674   0.925   2.246   4.943
 6247TIP3    H218675   0.913   2.106   5.000
 6248TIP3   OH218676   0.424   1.917   6.394
 6248TIP3    H118677   0.460   1.941   6.480
 6248TIP3    H218678   0.340   1.876   6.414
 6249TIP3   OH218679   1.117   2.080   6.400
 6249TIP3    H118680   1.054   2.019   6.362
 6249TIP3    H218681   1.202   2.045   6.375
 6250TIP3   OH218682   1.375   2.609   6.012
 6250TIP3    H118683   1.279   2.606   6.014
 6250TIP3    H218684   1.399   2.655   6.093
 6251TIP3   OH218685   1.766   1.673   4.897
 6251TIP3    H118686   1.707   1.629   4.837
 6251TIP3    H218687   1.773   1.762   4.863
 6252TIP3   OH218688   2.008   2.534   5.980
 6252TIP3    H118689   1.913   2.526   5.971
 6252TIP3    H218690   2.042   2.510   5.894
 6253TIP3   OH218691   1.500   2.487   4.819
 6253TIP3    H118692   1.468   2.417   4.876
 6253TIP3    H218693   1.516   2.445   4.735
 6254TIP3   OH218694   1.486   2.120   5.610
 6254TIP3    H118695   1.396   2.098   5.636
 6254TIP3    H218696   1.520   2.040   5.570
 6255TIP3   OH218697   0.632   2.358   5.418
 6255TIP3    H118698   0.630   2.432   5.357
 6255TIP3    H218699   0.545   2.357   5.457
 6256TIP3   OH218700   0.178   1.640   5.125
 6256TIP3    H118701   0.225   1.722   5.138
 6256TIP3    H218702   0.100   1.648   5.180
 6257TIP3   OH218703   0.724   2.112   5.333
 6257TIP3    H118704   0.702   2.202   5.357
 6257TIP3    H218705   0.692   2.060   5.407
 6258TIP3   OH218706   0.920   2.683   5.872
 6258TIP3    H118707   0.953   2.757   5.821
 6258TIP3    H218708   0.996   2.651   5.921
 6259TIP3   OH218709   0.553   2.582   5.261
 6259TIP3    H118710   0.468   2.590   5.303
 6259TIP3    H218711   0.591   2.670   5.266
 6260TIP3   OH218712   1.268   2.332   5.843
 6260TIP3    H118713   1.253   2.330   5.938
 6260TIP3    H218714   1.355   2.296   5.832
 6261TIP3   OH218715   1.263   2.223   4.711
 6261TIP3    H118716   1.309   2.196   4.790
 6261TIP3    H218717   1.176   2.181   4.718
 6262TIP3   OH218718   1.524   2.842   5.880
 6262TIP3    H118719   1.446   2.787   5.890
 6262TIP3    H218720   1.503   2.901   5.808
 6263TIP3   OH218721   1.585   2.690   4.525
 6263TIP3    H118722   1.626   2.759   4.473
 6263TIP3    H218723   1.508   2.733   4.564
 6264TIP3   OH218724   1.428   2.136   4.913
 6264TIP3    H118725   1.416   2.081   4.990
 6264TIP3    H218726   1.523   2.147   4.905
 6265TIP3   OH218727   0.376   2.564   6.001
 6265TIP3    H118728   0.408   2.499   6.064
 6265TIP3    H218729   0.386   2.648   6.046
 6266TIP3   OH218730   0.622   2.188   4.723
 6266TIP3    H118731   0.629   2.096   4.696
 6266TIP3    H218732   0.600   2.184   4.816
 6267TIP3   OH218733   0.554   2.202   4.993
 6267TIP3    H118734   0.615   2.177   5.061
 6267TIP3    H218735   0.551   2.298   4.997
 6268TIP3   OH218736   0.303   1.882   5.189
 6268TIP3    H118737   0.242   1.927   5.247
 6268TIP3    H218738   0.315   1.941   5.115
 6269TIP3   OH218739   1.466   1.523   6.072
 6269TIP3    H118740   1.539   1.579   6.100
 6269TIP3    H218741   1.467   1.450   6.134
 6270TIP3   OH218742   1.330   1.280   5.243
 6270TIP3    H118743   1.283   1.307   5.164
 6270TIP3    H218744   1.368   1.361   5.278
 6271TIP3   OH218745   0.828   2.392   4.940
 6271TIP3    H118746   0.741   2.414   4.974
 6271TIP3    H218747   0.851   2.466   4.883
 6272TIP3   OH218748   1.021   1.443   5.344
 6272TIP3    H118749   1.075   1.516   5.314
 6272TIP3    H218750   1.039   1.437   5.438
 6273TIP3   OH218751   1.300   1.757   6.152
 6273TIP3    H118752   1.319   1.790   6.240
 6273TIP3    H218753   1.348   1.674   6.147
 6274TIP3   OH218754   1.175   1.172   5.449
 6274TIP3    H118755   1.156   1.250   5.501
 6274TIP3    H218756   1.229   1.204   5.377
 6275TIP3   OH218757   0.573   2.474   5.010
 6275TIP3    H118758   0.553   2.545   4.949
 6275TIP3    H218759   0.563   2.513   5.097
 6276TIP3   OH218760   1.918   1.671   6.136
 6276TIP3    H118761   1.823   1.679   6.133
 6276TIP3    H218762   1.948   1.703   6.051
 6277TIP3   OH218763   1.583   1.855   5.521
 6277TIP3    H118764   1.500   1.809   5.534
 6277TIP3    H218765   1.644   1.812   5.580
 6278TIP3   OH218766   0.301   2.072   4.981
 6278TIP3    H118767   0.367   2.140   4.994
 6278TIP3    H218768   0.340   2.012   4.917
 6279TIP3   OH218769   0.290   1.400   5.016
 6279TIP3    H118770   0.270   1.484   5.058
 6279TIP3    H218771   0.237   1.336   5.064
 6280TIP3   OH218772   1.550   2.831   5.447
 6280TIP3    H118773   1.509   2.883   5.378
 6280TIP3    H218774   1.644   2.847   5.436
 6281TIP3   OH218775   0.158   2.303   5.387
 6281TIP3    H118776   0.139   2.350   5.469
 6281TIP3    H218777   0.108   2.350   5.320
 6282TIP3   OH218778   0.356   2.845   6.422
 6282TIP3    H118779   0.429   2.864   6.482
 6282TIP3    H218780   0.278   2.852   6.477
 6283TIP3   OH218781   0.802   2.805   6.514
 6283TIP3    H118782   0.897   2.805   6.516
 6283TIP3    H218783   0.779   2.745   6.442
 6284TIP3   OH218784   0.772   2.392   4.617
 6284TIP3    H118785   0.726   2.320   4.660
 6284TIP3    H218786   0.847   2.349   4.574
 6285TIP3   OH218787   1.430   2.720   6.259
 6285TIP3    H118788   1.446   2.649   6.322
 6285TIP3    H218789   1.504   2.779   6.270
 6286TIP3   OH218790   1.212   2.430   4.537
 6286TIP3    H118791   1.247   2.366   4.599
 6286TIP3    H218792   1.270   2.426   4.462
 6287TIP3   OH218793   0.429   2.250   6.648
 6287TIP3    H118794   0.473   2.171   6.616
 6287TIP3    H218795   0.354   2.261   6.590
 6288TIP3   OH218796   0.440   1.882   4.843
 6288TIP3    H118797   0.493   1.861   4.920
 6288TIP3    H218798   0.504   1.897   4.773
 6289TIP3   OH218799   1.070   2.355   6.419
 6289TIP3    H118800   1.021   2.382   6.341
 6289TIP3    H218801   1.091   2.263   6.404
 6290TIP3   OH218802   1.008   2.106   4.680
 6290TIP3    H118803   0.983   2.120   4.771
 6290TIP3    H218804   0.988   2.014   4.662
 6291TIP3   OH218805   1.540   2.386   6.035
 6291TIP3    H118806   1.616   2.418   5.988
 6291TIP3    H218807   1.475   2.456   6.027
 6292TIP3   OH218808   0.545   1.984   6.637
 6292TIP3    H118809   0.609   1.913   6.641
 6292TIP3    H218810   0.554   2.028   6.722
 6293TIP3   OH218811   0.617   1.821   5.052
 6293TIP3    H118812   0.595   1.793   5.141
 6293TIP3    H218813   0.664   1.746   5.014
 6294TIP3   OH218814   0.932   1.903   6.285
 6294TIP3    H118815   0.849   1.950   6.295
 6294TIP3    H218816   0.967   1.933   6.202
 6295TIP3   OH218817   0.755   1.628   4.903
 6295TIP3    H118818   0.721   1.638   4.814
 6295TIP3    H218819   0.850   1.641   4.895
 6296TIP3   OH218820   1.433   2.254   6.412
 6296TIP3    H118821   1.507   2.248   6.352
 6296TIP3    H218822   1.400   2.165   6.418
 6297TIP3   OH218823   1.546   1.923   4.581
 6297TIP3    H118824   1.532   1.884   4.494
 6297TIP3    H218825   1.523   2.015   4.570
 6298TIP3   OH218826   1.032   1.669   6.386
 6298TIP3    H118827   1.031   1.597   6.324
 6298TIP3    H218828   0.994   1.743   6.338
 6299TIP3   OH218829   1.043   1.464   6.192
 6299TIP3    H118830   1.065   1.511   6.111
 6299TIP3    H218831   0.951   1.438   6.179
 6300TIP3   OH218832   1.063   2.007   6.071
 6300TIP3    H118833   1.146   2.052   6.056
 6300TIP3    H218834   0.998   2.063   6.029
 6301TIP3   OH218835   1.652   1.966   6.452
 6301TIP3    H118836   1.719   1.900   6.468
 6301TIP3    H218837   1.696   2.049   6.467
 6302TIP3   OH218838   1.670   2.225   6.210
 6302TIP3    H118839   1.615   2.282   6.156
 6302TIP3    H218840   1.759   2.241   6.178
 6303TIP3   OH218841   0.933   1.774   6.634
 6303TIP3    H118842   0.841   1.767   6.659
 6303TIP3    H218843   0.938   1.741   6.545
 6304TIP3   OH218844   1.192   1.246   6.277
 6304TIP3    H118845   1.140   1.322   6.253
 6304TIP3    H218846   1.138   1.171   6.252
 6305TIP3   OH218847   1.280   1.728   6.489
 6305TIP3    H118848   1.265   1.707   6.582
 6305TIP3    H218849   1.198   1.706   6.446
 6306TIP3   OH218850   1.526   1.674   6.367
 6306TIP3    H118851   1.447   1.678   6.421
 6306TIP3    H218852   1.598   1.661   6.429
 6307TIP3   OH218853   1.764   1.641   6.521
 6307TIP3    H118854   1.776   1.546   6.524
 6307TIP3    H218855   1.763   1.668   6.613
 6308TIP3   OH218856   1.270   1.225   6.539
 6308TIP3    H118857   1.329   1.150   6.539
 6308TIP3    H218858   1.231   1.226   6.452
 6309TIP3   OH218859   1.337   1.445   6.679
 6309TIP3    H118860   1.309   1.372   6.624
 6309TIP3    H218861   1.262   1.504   6.681
 6310TIP3   OH218862   0.567   2.680   4.826
 6310TIP3    H118863   0.658   2.664   4.805
 6310TIP3    H218864   0.531   2.725   4.750
 6311TIP3   OH218865   0.030   2.020   5.037
 6311TIP3    H118866   0.119   2.048   5.015
 6311TIP3    H218867   0.006   1.958   4.968
 6312TIP3   OH218868   8.479   2.628   5.446
 6312TIP3    H118869   8.431   2.574   5.383
 6312TIP3    H218870   8.520   2.565   5.505
 6313TIP3   OH218871   0.138   2.472   5.611
 6313TIP3    H118872   0.155   2.406   5.677
 6313TIP3    H218873   0.127   2.553   5.660
 6314TIP3   OH218874   1.819   2.888   5.441
 6314TIP3    H118875   1.834   2.929   5.527
 6314TIP3    H218876   1.868   2.943   5.380
 6315TIP3   OH218877   1.825   2.931   5.724
 6315TIP3    H118878   1.785   2.844   5.721
 6315TIP3    H218879   1.902   2.920   5.781
 6316TIP3   OH218880   1.898   2.612   6.302
 6316TIP3    H118881   1.823   2.625   6.360
 6316TIP3    H218882   1.942   2.696   6.301
 6317TIP3   OH218883   1.709   2.134   4.908
 6317TIP3    H118884   1.765   2.205   4.876
 6317TIP3    H218885   1.757   2.098   4.982
 6318TIP3   OH218886   1.841   1.989   5.107
 6318TIP3    H118887   1.771   1.956   5.163
 6318TIP3    H218888   1.903   2.029   5.168
 6319TIP3   OH218889   1.897   2.394   5.540
 6319TIP3    H118890   1.941   2.333   5.480
 6319TIP3    H218891   1.892   2.476   5.490
 6320TIP3   OH218892   1.698   2.680   5.735
 6320TIP3    H118893   1.630   2.727   5.784
 6320TIP3    H218894   1.651   2.642   5.660
 6321TIP3   OH218895   1.757   1.910   4.756
 6321TIP3    H118896   1.686   1.906   4.692
 6321TIP3    H218897   1.739   1.989   4.807
 6322TIP3   OH218898   1.601   1.568   4.709
 6322TIP3    H118899   1.565   1.608   4.630
 6322TIP3    H218900   1.588   1.474   4.697
 6323TIP3   OH218901   1.640   1.858   5.250
 6323TIP3    H118902   1.647   1.763   5.235
 6323TIP3    H218903   1.624   1.866   5.344
 6324TIP3   OH218904   0.258   1.961   6.021
 6324TIP3    H118905   0.249   1.909   5.941
 6324TIP3    H218906   0.351   1.961   6.040
 6325TIP3   OH218907   1.927   2.274   6.113
 6325TIP3    H118908   1.993   2.209   6.088
 6325TIP3    H218909   1.946   2.349   6.056
 6326TIP3   OH218910   2.099   2.057   6.091
 6326TIP3    H118911   2.027   2.022   6.144
 6326TIP3    H218912   2.173   1.998   6.111
 6327TIP3   OH218913   1.561   1.300   4.688
 6327TIP3    H118914   1.632   1.264   4.741
 6327TIP3    H218915   1.485   1.246   4.710
 6328TIP3   OH218916   1.644   1.578   5.136
 6328TIP3    H118917   1.689   1.495   5.149
 6328TIP3    H218918   1.688   1.618   5.061
 6329TIP3   OH218919   1.803   1.727   5.669
 6329TIP3    H118920   1.876   1.760   5.617
 6329TIP3    H218921   1.804   1.783   5.748
 6330TIP3   OH218922   1.854   1.897   5.887
 6330TIP3    H118923   1.782   1.929   5.942
 6330TIP3    H218924   1.888   1.976   5.844
 6331TIP3   OH218925   2.322   1.506   6.410
 6331TIP3    H118926   2.387   1.442   6.380
 6331TIP3    H218927   2.288   1.544   6.329
 6332TIP3   OH218928   1.751   1.320   5.196
 6332TIP3    H118929   1.798   1.290   5.273
 6332TIP3    H218930   1.685   1.252   5.180
 6333TIP3   OH218931   2.171   1.594   6.204
 6333TIP3    H118932   2.085   1.634   6.219
 6333TIP3    H218933   2.152   1.516   6.152
 6334TIP3   OH218934   1.803   1.241   4.827
 6334TIP3    H118935   1.848   1.182   4.767
 6334TIP3    H218936   1.855   1.322   4.824
 6335TIP3   OH218937   1.378   2.797   5.086
 6335TIP3    H118938   1.435   2.790   5.010
 6335TIP3    H218939   1.416   2.868   5.138
 6336TIP3   OH218940   0.494   2.546   6.456
 6336TIP3    H118941   0.434   2.612   6.422
 6336TIP3    H218942   0.488   2.557   6.551
 6337TIP3   OH218943   0.700   2.635   6.030
 6337TIP3    H118944   0.638   2.699   5.995
 6337TIP3    H218945   0.781   2.651   5.981
 6338TIP3   OH218946   1.095   2.867   6.154
 6338TIP3    H118947   1.132   2.865   6.243
 6338TIP3    H218948   1.155   2.923   6.105
 6339TIP3   OH218949   1.283   3.028   6.033
 6339TIP3    H118950   1.347   2.989   5.973
 6339TIP3    H218951   1.334   3.087   6.088
 6340TIP3   OH218952   2.086   1.338   6.109
 6340TIP3    H118953   1.997   1.309   6.089
 6340TIP3    H218954   2.139   1.259   6.105
 6341TIP3   OH218955   0.402   2.831   6.085
 6341TIP3    H118956   0.320   2.857   6.041
 6341TIP3    H218957   0.415   2.898   6.152
 6342TIP3   OH218958   0.604   2.867   5.903
 6342TIP3    H118959   0.526   2.860   5.959
 6342TIP3    H218960   0.570   2.897   5.819
 6343TIP3   OH218961   0.998   2.889   5.705
 6343TIP3    H118962   0.927   2.903   5.643
 6343TIP3    H218963   1.012   2.974   5.746
 6344TIP3   OH218964   1.260   2.817   5.756
 6344TIP3    H118965   1.169   2.841   5.738
 6344TIP3    H218966   1.312   2.883   5.711
 6345TIP3   OH218967   1.458   2.988   5.655
 6345TIP3    H118968   1.461   3.078   5.622
 6345TIP3    H218969   1.487   2.935   5.582
 6346TIP3   OH218970   0.291   2.695   5.764
 6346TIP3    H118971   0.297   2.652   5.850
 6346TIP3    H218972   0.352   2.645   5.709
 6347TIP3   OH218973   0.478   2.540   5.632
 6347TIP3    H118974   0.481   2.462   5.688
 6347TIP3    H218975   0.565   2.580   5.642
 6348TIP3   OH218976   0.739   2.636   5.664
 6348TIP3    H118977   0.760   2.543   5.653
 6348TIP3    H218978   0.788   2.661   5.742
 6349TIP3   OH218979   1.319   1.260   5.746
 6349TIP3    H118980   1.254   1.220   5.803
 6349TIP3    H218981   1.371   1.186   5.714
 6350TIP3   OH218982   1.939   1.326   5.501
 6350TIP3    H118983   1.969   1.240   5.471
 6350TIP3    H218984   1.966   1.386   5.431
 6351TIP3   OH218985   0.940   1.091   5.571
 6351TIP3    H118986   1.028   1.110   5.539
 6351TIP3    H218987   0.953   1.051   5.657
 6352TIP3   OH218988   1.556   1.117   5.189
 6352TIP3    H118989   1.474   1.165   5.206
 6352TIP3    H218990   1.543   1.033   5.232
 6353TIP3   OH218991   0.016   2.436   5.196
 6353TIP3    H118992  -0.047   2.386   5.143
 6353TIP3    H218993   0.037   2.513   5.143
 6354TIP3   OH218994   0.909   1.195   5.298
 6354TIP3    H118995   0.917   1.155   5.385
 6354TIP3    H218996   0.943   1.283   5.309
 6355TIP3   OH218997   0.827   2.614   4.765
 6355TIP3    H118998   0.910   2.643   4.727
 6355TIP3    H218999   0.797   2.544   4.707
 6356TIP3   OH219000   1.532   2.756   4.859
 6356TIP3    H119001   1.526   2.661   4.849
 6356TIP3    H219002   1.491   2.792   4.780
 6357TIP3   OH219003   0.134   2.449   4.833
 6357TIP3    H119004   0.141   2.501   4.914
 6357TIP3    H219005   0.221   2.412   4.821
 6358TIP3   OH219006   1.840   1.374   6.537
 6358TIP3    H119007   1.858   1.329   6.619
 6358TIP3    H219008   1.923   1.371   6.489
 6359TIP3   OH219009   1.746   2.894   6.046
 6359TIP3    H119010   1.672   2.864   5.994
 6359TIP3    H219011   1.736   2.989   6.051
 6360TIP3   OH219012   2.346   2.161   5.551
 6360TIP3    H119013   2.362   2.088   5.610
 6360TIP3    H219014   2.384   2.237   5.596
 6361TIP3   OH219015   3.286   2.561   4.895
 6361TIP3    H119016   3.286   2.503   4.971
 6361TIP3    H219017   3.307   2.647   4.931
 6362TIP3   OH219018   2.301   2.562   5.261
 6362TIP3    H119019   2.288   2.467   5.268
 6362TIP3    H219020   2.395   2.572   5.244
 6363TIP3   OH219021   1.995   1.761   5.043
 6363TIP3    H119022   1.957   1.847   5.063
 6363TIP3    H219023   1.926   1.716   4.993
 6364TIP3   OH219024   2.066   2.072   5.250
 6364TIP3    H119025   2.120   1.996   5.271
 6364TIP3    H219026   2.127   2.134   5.210
 6365TIP3   OH219027   2.941   3.017   4.894
 6365TIP3    H119028   2.969   2.948   4.833
 6365TIP3    H219029   2.926   2.971   4.977
 6366TIP3   OH219030   2.820   2.522   5.208
 6366TIP3    H119031   2.851   2.516   5.118
 6366TIP3    H219032   2.898   2.543   5.259
 6367TIP3   OH219033   3.855   1.812   5.228
 6367TIP3    H119034   3.877   1.895   5.269
 6367TIP3    H219035   3.890   1.819   5.139
 6368TIP3   OH219036   3.238   1.977   5.250
 6368TIP3    H119037   3.294   1.903   5.272
 6368TIP3    H219038   3.217   1.964   5.157
 6369TIP3   OH219039   2.584   1.651   5.212
 6369TIP3    H119040   2.559   1.721   5.151
 6369TIP3    H219041   2.537   1.574   5.181
 6370TIP3   OH219042   3.293   1.737   4.841
 6370TIP3    H119043   3.362   1.733   4.907
 6370TIP3    H219044   3.337   1.771   4.763
 6371TIP3   OH219045   2.212   1.853   5.342
 6371TIP3    H119046   2.295   1.837   5.386
 6371TIP3    H219047   2.217   1.803   5.261
 6372TIP3   OH219048   2.692   2.011   5.088
 6372TIP3    H119049   2.672   2.051   5.173
 6372TIP3    H219050   2.617   1.954   5.070
 6373TIP3   OH219051   3.920   2.026   5.399
 6373TIP3    H119052   3.834   2.067   5.394
 6373TIP3    H219053   3.959   2.062   5.478
 6374TIP3   OH219054   2.575   1.642   5.662
 6374TIP3    H119055   2.523   1.680   5.592
 6374TIP3    H219056   2.524   1.658   5.741
 6375TIP3   OH219057   2.884   2.460   4.686
 6375TIP3    H119058   2.870   2.451   4.592
 6375TIP3    H219059   2.851   2.547   4.707
 6376TIP3   OH219060   2.671   2.421   5.429
 6376TIP3    H119061   2.615   2.488   5.466
 6376TIP3    H219062   2.716   2.465   5.357
 6377TIP3   OH219063   3.458   1.776   5.054
 6377TIP3    H119064   3.444   1.740   5.141
 6377TIP3    H219065   3.520   1.848   5.067
 6378TIP3   OH219066   2.456   1.751   5.437
 6378TIP3    H119067   2.510   1.827   5.460
 6378TIP3    H219068   2.502   1.710   5.364
 6379TIP3   OH219069   2.512   2.621   5.539
 6379TIP3    H119070   2.500   2.710   5.505
 6379TIP3    H219071   2.432   2.605   5.590
 6380TIP3   OH219072   1.884   2.319   4.792
 6380TIP3    H119073   1.851   2.337   4.704
 6380TIP3    H219074   1.906   2.405   4.828
 6381TIP3   OH219075   3.327   2.817   5.027
 6381TIP3    H119076   3.241   2.811   5.067
 6381TIP3    H219077   3.327   2.900   4.980
 6382TIP3   OH219078   3.653   1.709   5.401
 6382TIP3    H119079   3.568   1.737   5.368
 6382TIP3    H219080   3.715   1.734   5.333
 6383TIP3   OH219081   2.912   1.335   5.388
 6383TIP3    H119082   2.909   1.243   5.415
 6383TIP3    H219083   2.836   1.375   5.429
 6384TIP3   OH219084   3.032   2.847   4.695
 6384TIP3    H119085   3.082   2.767   4.680
 6384TIP3    H219086   3.089   2.917   4.661
 6385TIP3   OH219087   3.181   2.628   4.643
 6385TIP3    H119088   3.201   2.562   4.576
 6385TIP3    H219089   3.221   2.594   4.723
 6386TIP3   OH219090   3.571   2.723   5.384
 6386TIP3    H119091   3.558   2.650   5.323
 6386TIP3    H219092   3.551   2.801   5.333
 6387TIP3   OH219093   2.841   2.113   4.636
 6387TIP3    H119094   2.773   2.179   4.626
 6387TIP3    H219095   2.893   2.120   4.557
 6388TIP3   OH219096   2.830   1.916   4.327
 6388TIP3    H119097   2.895   1.969   4.374
 6388TIP3    H219098   2.883   1.855   4.276
 6389TIP3   OH219099   3.749   2.370   5.230
 6389TIP3    H119100   3.669   2.423   5.232
 6389TIP3    H219101   3.784   2.383   5.142
 6390TIP3   OH219102   3.193   2.223   4.605
 6390TIP3    H119103   3.154   2.275   4.675
 6390TIP3    H219104   3.276   2.192   4.641
 6391TIP3   OH219105   3.458   2.239   5.551
 6391TIP3    H119106   3.450   2.322   5.598
 6391TIP3    H219107   3.376   2.231   5.502
 6392TIP3   OH219108   2.436   2.166   5.040
 6392TIP3    H119109   2.377   2.128   4.976
 6392TIP3    H219110   2.523   2.135   5.014
 6393TIP3   OH219111   2.555   2.610   5.156
 6393TIP3    H119112   2.537   2.603   5.062
 6393TIP3    H219113   2.647   2.584   5.165
 6394TIP3   OH219114   2.603   2.174   5.320
 6394TIP3    H119115   2.555   2.215   5.248
 6394TIP3    H219116   2.637   2.247   5.372
 6395TIP3   OH219117   3.093   2.808   5.167
 6395TIP3    H119118   3.078   2.895   5.204
 6395TIP3    H219119   3.070   2.748   5.238
 6396TIP3   OH219120   2.710   2.718   5.709
 6396TIP3    H119121   2.650   2.779   5.753
 6396TIP3    H219122   2.653   2.669   5.649
 6397TIP3   OH219123   3.042   2.070   4.433
 6397TIP3    H119124   3.096   2.130   4.484
 6397TIP3    H219125   3.067   2.087   4.342
 6398TIP3   OH219126   2.452   2.277   5.814
 6398TIP3    H119127   2.457   2.368   5.843
 6398TIP3    H219128   2.362   2.251   5.831
 6399TIP3   OH219129   2.785   2.725   4.707
 6399TIP3    H119130   2.870   2.770   4.707
 6399TIP3    H219131   2.729   2.780   4.653
 6400TIP3   OH219132   2.503   2.880   5.791
 6400TIP3    H119133   2.478   2.895   5.700
 6400TIP3    H219134   2.420   2.863   5.836
 6401TIP3   OH219135   3.553   1.296   4.493
 6401TIP3    H119136   3.475   1.319   4.543
 6401TIP3    H219137   3.567   1.372   4.435
 6402TIP3   OH219138   2.294   2.041   4.834
 6402TIP3    H119139   2.229   2.092   4.786
 6402TIP3    H219140   2.263   1.951   4.826
 6403TIP3   OH219141   3.375   2.677   4.052
 6403TIP3    H119142   3.372   2.770   4.027
 6403TIP3    H219143   3.463   2.648   4.027
 6404TIP3   OH219144   2.088   2.434   5.740
 6404TIP3    H119145   2.020   2.419   5.674
 6404TIP3    H219146   2.120   2.346   5.762
 6405TIP3   OH219147   1.933   2.635   5.398
 6405TIP3    H119148   2.025   2.661   5.406
 6405TIP3    H219149   1.883   2.713   5.422
 6406TIP3   OH219150   3.801   3.097   5.442
 6406TIP3    H119151   3.807   3.002   5.450
 6406TIP3    H219152   3.718   3.120   5.483
 6407TIP3   OH219153   2.895   2.863   5.565
 6407TIP3    H119154   2.889   2.954   5.592
 6407TIP3    H219155   2.828   2.818   5.616
 6408TIP3   OH219156   2.682   2.955   4.521
 6408TIP3    H119157   2.639   2.941   4.437
 6408TIP3    H219158   2.651   3.040   4.550
 6409TIP3   OH219159   2.110   2.817   4.892
 6409TIP3    H119160   2.153   2.812   4.977
 6409TIP3    H219161   2.061   2.736   4.885
 6410TIP3   OH219162   2.878   2.891   4.144
 6410TIP3    H119163   2.929   2.818   4.108
 6410TIP3    H219164   2.915   2.905   4.231
 6411TIP3   OH219165   2.935   2.938   4.413
 6411TIP3    H119166   2.851   2.937   4.459
 6411TIP3    H219167   2.999   2.914   4.480
 6412TIP3   OH219168   3.707   2.213   5.701
 6412TIP3    H119169   3.624   2.224   5.654
 6412TIP3    H219170   3.723   2.119   5.700
 6413TIP3   OH219171   2.291   2.617   5.703
 6413TIP3    H119172   2.335   2.610   5.787
 6413TIP3    H219173   2.215   2.561   5.711
 6414TIP3   OH219174   2.676   1.426   5.517
 6414TIP3    H119175   2.591   1.395   5.486
 6414TIP3    H219176   2.655   1.507   5.564
 6415TIP3   OH219177   3.220   1.549   5.718
 6415TIP3    H119178   3.293   1.524   5.775
 6415TIP3    H219179   3.142   1.531   5.770
 6416TIP3   OH219180   3.440   1.969   5.628
 6416TIP3    H119181   3.403   1.967   5.717
 6416TIP3    H219182   3.437   2.061   5.603
 6417TIP3   OH219183   3.118   2.110   4.177
 6417TIP3    H119184   3.064   2.088   4.101
 6417TIP3    H219185   3.208   2.105   4.144
 6418TIP3   OH219186   2.824   1.471   4.493
 6418TIP3    H119187   2.788   1.473   4.582
 6418TIP3    H219188   2.791   1.389   4.456
 6419TIP3   OH219189   2.608   1.966   5.515
 6419TIP3    H119190   2.562   1.985   5.596
 6419TIP3    H219191   2.596   2.044   5.461
 6420TIP3   OH219192   2.488   1.839   5.038
 6420TIP3    H119193   2.399   1.818   5.066
 6420TIP3    H219194   2.495   1.802   4.950
 6421TIP3   OH219195   2.967   1.937   4.797
 6421TIP3    H119196   2.919   2.003   4.747
 6421TIP3    H219197   3.027   1.897   4.733
 6422TIP3   OH219198   3.166   2.185   5.851
 6422TIP3    H119199   3.141   2.115   5.912
 6422TIP3    H219200   3.258   2.202   5.871
 6423TIP3   OH219201   3.164   1.928   4.990
 6423TIP3    H119202   3.110   1.952   4.915
 6423TIP3    H219203   3.213   1.851   4.961
 6424TIP3   OH219204   2.442   1.971   5.741
 6424TIP3    H119205   2.472   2.034   5.807
 6424TIP3    H219206   2.430   1.890   5.790
 6425TIP3   OH219207   2.493   1.451   4.462
 6425TIP3    H119208   2.482   1.456   4.557
 6425TIP3    H219209   2.416   1.497   4.427
 6426TIP3   OH219210   2.037   1.495   5.322
 6426TIP3    H119211   2.115   1.541   5.354
 6426TIP3    H219212   2.057   1.474   5.231
 6427TIP3   OH219213   1.955   1.477   4.835
 6427TIP3    H119214   1.999   1.509   4.756
 6427TIP3    H219215   1.892   1.545   4.857
 6428TIP3   OH219216   3.216   2.182   5.432
 6428TIP3    H119217   3.224   2.117   5.362
 6428TIP3    H219218   3.159   2.141   5.497
 6429TIP3   OH219219   2.847   1.696   5.102
 6429TIP3    H119220   2.771   1.676   5.157
 6429TIP3    H219221   2.917   1.639   5.136
 6430TIP3   OH219222   2.256   1.711   5.114
 6430TIP3    H119223   2.168   1.715   5.076
 6430TIP3    H219224   2.287   1.623   5.091
 6431TIP3   OH219225   2.509   1.715   4.797
 6431TIP3    H119226   2.604   1.724   4.784
 6431TIP3    H219227   2.472   1.733   4.711
 6432TIP3   OH219228   3.349   1.727   5.317
 6432TIP3    H119229   3.311   1.747   5.403
 6432TIP3    H219230   3.312   1.643   5.292
 6433TIP3   OH219231   2.394   1.747   4.552
 6433TIP3    H119232   2.332   1.697   4.499
 6433TIP3    H219233   2.451   1.791   4.489
 6434TIP3   OH219234   3.504   3.423   5.528
 6434TIP3    H119235   3.495   3.445   5.435
 6434TIP3    H219236   3.581   3.472   5.557
 6435TIP3   OH219237   2.433   2.527   5.937
 6435TIP3    H119238   2.513   2.561   5.977
 6435TIP3    H219239   2.365   2.541   6.004
 6436TIP3   OH219240   2.951   1.952   5.210
 6436TIP3    H119241   3.040   1.918   5.220
 6436TIP3    H219242   2.915   1.952   5.299
 6437TIP3   OH219243   2.407   1.468   5.091
 6437TIP3    H119244   2.381   1.392   5.143
 6437TIP3    H219245   2.437   1.431   5.007
 6438TIP3   OH219246   2.880   1.918   5.475
 6438TIP3    H119247   2.793   1.948   5.500
 6438TIP3    H219248   2.940   1.970   5.530
 6439TIP3   OH219249   2.607   2.275   4.592
 6439TIP3    H119250   2.536   2.214   4.573
 6439TIP3    H219251   2.588   2.305   4.681
 6440TIP3   OH219252   3.526   2.527   5.199
 6440TIP3    H119253   3.563   2.576   5.126
 6440TIP3    H219254   3.449   2.483   5.163
 6441TIP3   OH219255   3.076   1.577   4.489
 6441TIP3    H119256   2.983   1.553   4.483
 6441TIP3    H219257   3.076   1.672   4.493
 6442TIP3   OH219258   3.011   2.591   5.613
 6442TIP3    H119259   3.072   2.590   5.688
 6442TIP3    H219260   2.979   2.681   5.611
 6443TIP3   OH219261   3.133   1.849   4.578
 6443TIP3    H119262   3.228   1.844   4.572
 6443TIP3    H219263   3.108   1.917   4.516
 6444TIP3   OH219264   2.301   2.268   5.264
 6444TIP3    H119265   2.348   2.235   5.187
 6444TIP3    H219266   2.342   2.224   5.338
 6445TIP3   OH219267   2.770   2.417   4.425
 6445TIP3    H119268   2.728   2.503   4.423
 6445TIP3    H219269   2.713   2.365   4.482
 6446TIP3   OH219270   2.191   2.199   5.866
 6446TIP3    H119271   2.198   2.177   5.959
 6446TIP3    H219272   2.113   2.153   5.835
 6447TIP3   OH219273   2.933   2.335   5.893
 6447TIP3    H119274   2.869   2.282   5.846
 6447TIP3    H219275   3.017   2.300   5.867
 6448TIP3   OH219276   3.165   2.859   5.494
 6448TIP3    H119277   3.069   2.861   5.500
 6448TIP3    H219278   3.194   2.911   5.569
 6449TIP3   OH219279   3.569   1.937   4.392
 6449TIP3    H119280   3.511   1.884   4.337
 6449TIP3    H219281   3.572   2.022   4.349
 6450TIP3   OH219282   3.820   2.816   5.466
 6450TIP3    H119283   3.725   2.800   5.467
 6450TIP3    H219284   3.849   2.781   5.382
 6451TIP3   OH219285   3.290   2.741   4.309
 6451TIP3    H119286   3.257   2.664   4.355
 6451TIP3    H219287   3.314   2.708   4.222
 6452TIP3   OH219288   3.312   2.372   5.112
 6452TIP3    H119289   3.261   2.339   5.186
 6452TIP3    H219290   3.338   2.293   5.064
 6453TIP3   OH219291   2.436   2.611   4.902
 6453TIP3    H119292   2.444   2.686   4.843
 6453TIP3    H219293   2.342   2.606   4.921
 6454TIP3   OH219294   1.996   1.902   4.615
 6454TIP3    H119295   2.036   1.988   4.632
 6454TIP3    H219296   1.914   1.904   4.664
 6455TIP3   OH219297   2.530   2.356   4.843
 6455TIP3    H119298   2.515   2.450   4.850
 6455TIP3    H219299   2.480   2.318   4.916
 6456TIP3   OH219300   2.712   2.936   5.355
 6456TIP3    H119301   2.745   3.010   5.305
 6456TIP3    H219302   2.787   2.907   5.407
 6457TIP3   OH219303   2.350   2.836   4.752
 6457TIP3    H119304   2.262   2.844   4.789
 6457TIP3    H219305   2.385   2.925   4.754
 6458TIP3   OH219306   3.059   2.574   5.343
 6458TIP3    H119307   3.041   2.574   5.437
 6458TIP3    H219308   3.154   2.565   5.337
 6459TIP3   OH219309   3.061   2.483   4.214
 6459TIP3    H119310   3.111   2.467   4.294
 6459TIP3    H219311   2.978   2.438   4.228
 6460TIP3   OH219312   3.317   3.102   5.364
 6460TIP3    H119313   3.237   3.050   5.367
 6460TIP3    H219314   3.302   3.164   5.293
 6461TIP3   OH219315   3.384   2.950   4.012
 6461TIP3    H119316   3.426   3.019   3.961
 6461TIP3    H219317   3.306   2.992   4.049
 6462TIP3   OH219318   2.415   1.709   5.880
 6462TIP3    H119319   2.321   1.692   5.888
 6462TIP3    H219320   2.454   1.660   5.952
 6463TIP3   OH219321   3.236   2.440   4.432
 6463TIP3    H119322   3.214   2.360   4.480
 6463TIP3    H219323   3.327   2.427   4.405
 6464TIP3   OH219324   2.138   2.840   5.511
 6464TIP3    H119325   2.196   2.786   5.564
 6464TIP3    H219326   2.150   2.929   5.544
 6465TIP3   OH219327   2.411   2.443   4.206
 6465TIP3    H119328   2.423   2.352   4.181
 6465TIP3    H219329   2.392   2.440   4.300
 6466TIP3   OH219330   2.357   2.457   4.479
 6466TIP3    H119331   2.439   2.433   4.522
 6466TIP3    H219332   2.353   2.552   4.487
 6467TIP3   OH219333   2.087   2.156   4.691
 6467TIP3    H119334   2.019   2.202   4.741
 6467TIP3    H219335   2.105   2.214   4.618
 6468TIP3   OH219336   3.243   1.782   5.568
 6468TIP3    H119337   3.320   1.829   5.600
 6468TIP3    H219338   3.236   1.706   5.626
 6469TIP3   OH219339   3.135   1.526   4.754
 6469TIP3    H119340   3.116   1.543   4.661
 6469TIP3    H219341   3.186   1.602   4.782
 6470TIP3   OH219342   2.623   2.646   4.427
 6470TIP3    H119343   2.538   2.673   4.462
 6470TIP3    H219344   2.650   2.720   4.372
 6471TIP3   OH219345   2.787   1.727   4.838
 6471TIP3    H119346   2.854   1.787   4.806
 6471TIP3    H219347   2.813   1.708   4.928
 6472TIP3   OH219348   3.088   2.027   5.626
 6472TIP3    H119349   3.117   2.071   5.705
 6472TIP3    H219350   3.138   1.945   5.624
 6473TIP3   OH219351   2.962   1.411   4.932
 6473TIP3    H119352   2.992   1.452   5.013
 6473TIP3    H219353   3.020   1.446   4.865
 6474TIP3   OH219354   2.370   2.728   4.500
 6474TIP3    H119355   2.349   2.797   4.436
 6474TIP3    H219356   2.360   2.771   4.585
 6475TIP3   OH219357   2.466   1.442   4.743
 6475TIP3    H119358   2.457   1.534   4.768
 6475TIP3    H219359   2.560   1.424   4.749
 6476TIP3   OH219360   3.711   1.936   5.622
 6476TIP3    H119361   3.616   1.934   5.631
 6476TIP3    H219362   3.728   1.887   5.541
 6477TIP3   OH219363   3.378   2.121   5.002
 6477TIP3    H119364   3.309   2.055   5.010
 6477TIP3    H219365   3.452   2.085   5.050
 6478TIP3   OH219366   2.105   2.333   4.476
 6478TIP3    H119367   2.174   2.398   4.485
 6478TIP3    H219368   2.138   2.271   4.411
 6479TIP3   OH219369   2.017   1.624   4.612
 6479TIP3    H119370   2.028   1.718   4.620
 6479TIP3    H219371   1.973   1.612   4.528
 6480TIP3   OH219372   3.351   3.084   4.941
 6480TIP3    H119373   3.310   3.133   4.870
 6480TIP3    H219374   3.445   3.097   4.929
 6481TIP3   OH219375   2.409   1.343   5.484
 6481TIP3    H119376   2.382   1.309   5.398
 6481TIP3    H219377   2.404   1.267   5.542
 6482TIP3   OH219378   1.938   2.584   4.880
 6482TIP3    H119379   1.900   2.626   4.958
 6482TIP3    H219380   1.897   2.628   4.807
 6483TIP3   OH219381   2.131   3.128   5.936
 6483TIP3    H119382   2.213   3.131   5.985
 6483TIP3    H219383   2.110   3.034   5.929
 6484TIP3   OH219384   2.599   3.045   5.993
 6484TIP3    H119385   2.694   3.040   5.994
 6484TIP3    H219386   2.573   2.990   5.919
 6485TIP3   OH219387   2.567   2.646   4.103
 6485TIP3    H119388   2.521   2.574   4.145
 6485TIP3    H219389   2.643   2.605   4.061
 6486TIP3   OH219390   3.225   2.989   5.728
 6486TIP3    H119391   3.231   2.918   5.792
 6486TIP3    H219392   3.300   3.045   5.747
 6487TIP3   OH219393   3.007   2.680   4.024
 6487TIP3    H119394   3.040   2.617   4.088
 6487TIP3    H219395   3.064   2.670   3.948
 6488TIP3   OH219396   2.237   2.526   6.136
 6488TIP3    H119397   2.252   2.432   6.145
 6488TIP3    H219398   2.150   2.533   6.096
 6489TIP3   OH219399   2.232   2.140   4.331
 6489TIP3    H119400   2.287   2.120   4.407
 6489TIP3    H219401   2.295   2.153   4.259
 6490TIP3   OH219402   2.864   2.615   5.913
 6490TIP3    H119403   2.824   2.638   5.830
 6490TIP3    H219404   2.904   2.529   5.897
 6491TIP3   OH219405   2.778   2.362   4.155
 6491TIP3    H119406   2.766   2.372   4.250
 6491TIP3    H219407   2.772   2.267   4.141
 6492TIP3   OH219408   3.333   2.640   5.506
 6492TIP3    H119409   3.413   2.675   5.467
 6492TIP3    H219410   3.271   2.712   5.503
 6493TIP3   OH219411   2.360   2.265   6.132
 6493TIP3    H119412   2.438   2.271   6.078
 6493TIP3    H219413   2.388   2.291   6.220
 6494TIP3   OH219414   2.415   2.078   4.538
 6494TIP3    H119415   2.393   2.032   4.619
 6494TIP3    H219416   2.467   2.015   4.488
 6495TIP3   OH219417   2.700   2.148   5.784
 6495TIP3    H119418   2.622   2.203   5.793
 6495TIP3    H219419   2.746   2.183   5.708
 6496TIP3   OH219420   2.555   1.893   4.383
 6496TIP3    H119421   2.524   1.896   4.292
 6496TIP3    H219422   2.650   1.897   4.376
 6497TIP3   OH219423   3.218   2.529   5.892
 6497TIP3    H119424   3.291   2.495   5.841
 6497TIP3    H219425   3.216   2.474   5.970
 6498TIP3   OH219426   2.819   1.932   5.908
 6498TIP3    H119427   2.827   1.860   5.846
 6498TIP3    H219428   2.781   2.004   5.856
 6499TIP3   OH219429   2.833   1.733   5.703
 6499TIP3    H119430   2.863   1.771   5.621
 6499TIP3    H219431   2.743   1.705   5.686
 6500TIP3   OH219432   2.840   2.268   5.586
 6500TIP3    H119433   2.930   2.296   5.572
 6500TIP3    H219434   2.787   2.329   5.534
 6501TIP3   OH219435   3.431   2.224   5.957
 6501TIP3    H119436   3.477   2.140   5.962
 6501TIP3    H219437   3.501   2.289   5.948
 6502TIP3   OH219438   3.467   2.485   5.688
 6502TIP3    H119439   3.410   2.539   5.634
 6502TIP3    H219440   3.555   2.502   5.655
 6503TIP3   OH219441   2.700   2.020   6.148
 6503TIP3    H119442   2.635   1.951   6.165
 6503TIP3    H219443   2.735   1.998   6.061
 6504TIP3   OH219444   2.953   1.497   5.802
 6504TIP3    H119445   2.913   1.578   5.769
 6504TIP3    H219446   2.888   1.430   5.788
 6505TIP3   OH219447   3.081   1.972   6.004
 6505TIP3    H119448   3.073   1.964   6.099
 6505TIP3    H219449   2.993   1.952   5.970
 6506TIP3   OH219450   3.327   1.930   5.870
 6506TIP3    H119451   3.250   1.927   5.927
 6506TIP3    H219452   3.400   1.902   5.927
 6507TIP3   OH219453   3.555   1.881   6.021
 6507TIP3    H119454   3.573   1.787   6.030
 6507TIP3    H219455   3.553   1.913   6.111
 6508TIP3   OH219456   2.536   1.799   6.211
 6508TIP3    H119457   2.543   1.712   6.172
 6508TIP3    H219458   2.575   1.790   6.298
 6509TIP3   OH219459   3.024   1.482   6.067
 6509TIP3    H119460   3.093   1.417   6.064
 6509TIP3    H219461   2.994   1.490   5.976
 6510TIP3   OH219462   3.111   1.701   6.213
 6510TIP3    H119463   3.085   1.628   6.156
 6510TIP3    H219464   3.038   1.762   6.210
 6511TIP3   OH219465   2.360   2.925   4.307
 6511TIP3    H119466   2.453   2.916   4.286
 6511TIP3    H219467   2.325   2.979   4.236
 6512TIP3   OH219468   1.832   2.317   4.506
 6512TIP3    H119469   1.925   2.334   4.495
 6512TIP3    H219470   1.817   2.233   4.463
 6513TIP3   OH219471   1.745   2.906   4.950
 6513TIP3    H119472   1.678   2.855   4.904
 6513TIP3    H219473   1.788   2.843   5.007
 6514TIP3   OH219474   1.883   2.733   5.120
 6514TIP3    H119475   1.871   2.671   5.192
 6514TIP3    H219476   1.932   2.805   5.159
 6515TIP3   OH219477   3.619   3.143   4.928
 6515TIP3    H119478   3.635   3.188   5.010
 6515TIP3    H219479   3.669   3.194   4.863
 6516TIP3   OH219480   3.623   3.186   5.213
 6516TIP3    H119481   3.584   3.099   5.206
 6516TIP3    H219482   3.701   3.174   5.266
 6517TIP3   OH219483   3.689   2.869   5.794
 6517TIP3    H119484   3.618   2.880   5.857
 6517TIP3    H219485   3.732   2.955   5.792
 6518TIP3   OH219486   3.501   2.382   4.380
 6518TIP3    H119487   3.560   2.451   4.350
 6518TIP3    H219488   3.550   2.337   4.449
 6519TIP3   OH219489   3.634   2.249   4.589
 6519TIP3    H119490   3.565   2.216   4.646
 6519TIP3    H219491   3.698   2.288   4.648
 6520TIP3   OH219492   3.696   2.655   5.026
 6520TIP3    H119493   3.747   2.588   4.981
 6520TIP3    H219494   3.697   2.730   4.965
 6521TIP3   OH219495   3.494   2.935   5.226
 6521TIP3    H119496   3.425   2.984   5.270
 6521TIP3    H219497   3.449   2.894   5.151
 6522TIP3   OH219498   3.540   2.150   4.217
 6522TIP3    H119499   3.481   2.121   4.147
 6522TIP3    H219500   3.499   2.230   4.251
 6523TIP3   OH219501   3.413   1.812   4.217
 6523TIP3    H119502   3.395   1.874   4.147
 6523TIP3    H219503   3.389   1.726   4.181
 6524TIP3   OH219504   3.421   2.115   4.726
 6524TIP3    H119505   3.436   2.022   4.708
 6524TIP3    H219506   3.417   2.121   4.821
 6525TIP3   OH219507   2.071   2.149   5.511
 6525TIP3    H119508   2.055   2.130   5.419
 6525TIP3    H219509   2.165   2.164   5.517
 6526TIP3   OH219510   3.723   2.532   5.587
 6526TIP3    H119511   3.797   2.476   5.565
 6526TIP3    H219512   3.719   2.596   5.516
 6527TIP3   OH219513   3.934   2.337   5.607
 6527TIP3    H119514   3.854   2.303   5.647
 6527TIP3    H219515   3.997   2.265   5.616
 6528TIP3   OH219516   3.363   1.548   4.155
 6528TIP3    H119517   3.427   1.522   4.222
 6528TIP3    H219518   3.281   1.507   4.183
 6529TIP3   OH219519   3.433   1.835   4.619
 6529TIP3    H119520   3.479   1.752   4.630
 6529TIP3    H219521   3.476   1.876   4.544
 6530TIP3   OH219522   3.592   2.006   5.135
 6530TIP3    H119523   3.674   2.025   5.088
 6530TIP3    H219524   3.607   2.039   5.224
 6531TIP3   OH219525   3.665   2.146   5.368
 6531TIP3    H119526   3.595   2.179   5.426
 6531TIP3    H219527   3.694   2.224   5.320
 6532TIP3   OH219528   2.271   1.842   6.130
 6532TIP3    H119529   2.364   1.846   6.152
 6532TIP3    H219530   2.240   1.761   6.171
 6533TIP3   OH219531   4.114   1.747   5.906
 6533TIP3    H119532   4.180   1.688   5.869
 6533TIP3    H219533   4.079   1.794   5.830
 6534TIP3   OH219534   3.544   1.584   4.674
 6534TIP3    H119535   3.591   1.566   4.755
 6534TIP3    H219536   3.483   1.511   4.664
 6535TIP3   OH219537   2.252   1.568   5.507
 6535TIP3    H119538   2.306   1.489   5.503
 6535TIP3    H219539   2.312   1.639   5.485
 6536TIP3   OH219540   2.029   1.843   5.558
 6536TIP3    H119541   2.083   1.830   5.480
 6536TIP3    H219542   2.034   1.937   5.577
 6537TIP3   OH219543   3.965   1.858   5.704
 6537TIP3    H119544   3.880   1.899   5.716
 6537TIP3    H219545   3.947   1.777   5.656
 6538TIP3   OH219546   3.597   1.498   4.312
 6538TIP3    H119547   3.643   1.438   4.253
 6538TIP3    H219548   3.649   1.578   4.310
 6539TIP3   OH219549   2.023   1.351   5.068
 6539TIP3    H119550   1.934   1.329   5.096
 6539TIP3    H219551   2.011   1.402   4.988
 6540TIP3   OH219552   3.171   3.045   4.576
 6540TIP3    H119553   3.227   3.038   4.499
 6540TIP3    H219554   3.212   3.113   4.630
 6541TIP3   OH219555   2.249   1.436   5.899
 6541TIP3    H119556   2.191   1.405   5.968
 6541TIP3    H219557   2.190   1.462   5.828
 6542TIP3   OH219558   2.280   2.838   5.954
 6542TIP3    H119559   2.185   2.827   5.948
 6542TIP3    H219560   2.296   2.856   6.047
 6543TIP3   OH219561   2.485   2.899   5.507
 6543TIP3    H119562   2.431   2.971   5.475
 6543TIP3    H219563   2.569   2.909   5.462
 6544TIP3   OH219564   2.885   3.130   5.641
 6544TIP3    H119565   2.922   3.126   5.730
 6544TIP3    H219566   2.947   3.183   5.592
 6545TIP3   OH219567   3.077   3.285   5.519
 6545TIP3    H119568   3.143   3.243   5.463
 6545TIP3    H219569   3.128   3.344   5.575
 6546TIP3   OH219570   3.882   1.611   5.604
 6546TIP3    H119571   3.795   1.599   5.566
 6546TIP3    H219572   3.922   1.524   5.598
 6547TIP3   OH219573   2.143   3.126   5.558
 6547TIP3    H119574   2.052   3.144   5.532
 6547TIP3    H219575   2.165   3.197   5.617
 6548TIP3   OH219576   2.371   3.127   5.399
 6548TIP3    H119577   2.288   3.132   5.446
 6548TIP3    H219578   2.351   3.158   5.311
 6549TIP3   OH219579   2.793   3.144   5.193
 6549TIP3    H119580   2.722   3.158   5.131
 6549TIP3    H219581   2.808   3.229   5.234
 6550TIP3   OH219582   3.058   3.073   5.238
 6550TIP3    H119583   2.967   3.097   5.221
 6550TIP3    H219584   3.109   3.140   5.193
 6551TIP3   OH219585   3.255   3.251   5.140
 6551TIP3    H119586   3.251   3.339   5.103
 6551TIP3    H219587   3.287   3.196   5.068
 6552TIP3   OH219588   2.046   2.921   5.259
 6552TIP3    H119589   2.072   2.901   5.349
 6552TIP3    H219590   2.119   2.890   5.206
 6553TIP3   OH219591   2.251   2.800   5.129
 6553TIP3    H119592   2.263   2.719   5.179
 6553TIP3    H219593   2.336   2.843   5.134
 6554TIP3   OH219594   2.515   2.889   5.159
 6554TIP3    H119595   2.535   2.796   5.150
 6554TIP3    H219596   2.572   2.919   5.229
 6555TIP3   OH219597   3.039   1.503   5.183
 6555TIP3    H119598   3.016   1.449   5.259
 6555TIP3    H219599   3.132   1.484   5.168
 6556TIP3   OH219600   3.588   1.461   5.138
 6556TIP3    H119601   3.627   1.502   5.061
 6556TIP3    H219602   3.494   1.471   5.126
 6557TIP3   OH219603   3.701   1.526   4.897
 6557TIP3    H119604   3.769   1.465   4.867
 6557TIP3    H219605   3.739   1.613   4.884
 6558TIP3   OH219606   2.323   1.246   5.238
 6558TIP3    H119607   2.234   1.221   5.213
 6558TIP3    H219608   2.373   1.164   5.236
 6559TIP3   OH219609   2.152   1.152   4.893
 6559TIP3    H119610   2.179   1.193   4.811
 6559TIP3    H219611   2.113   1.223   4.944
 6560TIP3   OH219612   2.790   1.286   5.128
 6560TIP3    H119613   2.841   1.326   5.057
 6560TIP3    H219614   2.838   1.309   5.208
 6561TIP3   OH219615   3.301   1.428   5.118
 6561TIP3    H119616   3.319   1.395   5.030
 6561TIP3    H219617   3.308   1.350   5.174
 6562TIP3   OH219618   3.358   1.372   4.674
 6562TIP3    H119619   3.276   1.417   4.694
 6562TIP3    H219620   3.349   1.286   4.713
 6563TIP3   OH219621   1.824   2.710   4.669
 6563TIP3    H119622   1.739   2.679   4.637
 6563TIP3    H219623   1.834   2.797   4.630
 6564TIP3   OH219624   2.257   1.272   4.655
 6564TIP3    H119625   2.301   1.213   4.594
 6564TIP3    H219626   2.326   1.330   4.688
 6565TIP3   OH219627   2.741   1.468   4.760
 6565TIP3    H119628   2.804   1.419   4.812
 6565TIP3    H219629   2.757   1.560   4.782
 6566TIP3   OH219630   2.625   2.869   4.251
 6566TIP3    H119631   2.708   2.897   4.213
 6566TIP3    H219632   2.595   2.798   4.194
 6567TIP3   OH219633   3.324   3.010   4.347
 6567TIP3    H119634   3.317   2.915   4.338
 6567TIP3    H219635   3.285   3.045   4.267
 6568TIP3   OH219636   2.555   1.531   6.118
 6568TIP3    H119637   2.519   1.465   6.177
 6568TIP3    H219638   2.648   1.536   6.141
 6569TIP3   OH219639   2.803   1.526   6.241
 6569TIP3    H119640   2.881   1.507   6.190
 6569TIP3    H219641   2.801   1.457   6.308
 6570TIP3   OH219642   1.917   2.709   4.302
 6570TIP3    H119643   1.922   2.745   4.390
 6570TIP3    H219644   2.002   2.667   4.288
 6571TIP3   OH219645   3.625   1.612   6.033
 6571TIP3    H119646   3.642   1.582   6.122
 6571TIP3    H219647   3.710   1.608   5.989
 6572TIP3   OH219648   3.542   3.150   5.533
 6572TIP3    H119649   3.468   3.120   5.480
 6572TIP3    H219650   3.531   3.245   5.539
 6573TIP3   OH219651   4.819   2.535   4.276
 6573TIP3    H119652   4.790   2.623   4.252
 6573TIP3    H219653   4.747   2.477   4.250
 6574TIP3   OH219654   4.807   2.527   4.694
 6574TIP3    H119655   4.858   2.513   4.774
 6574TIP3    H219656   4.769   2.442   4.675
 6575TIP3   OH219657   4.118   2.395   5.053
 6575TIP3    H119658   4.155   2.338   5.121
 6575TIP3    H219659   4.193   2.419   4.998
 6576TIP3   OH219660   5.083   2.838   4.374
 6576TIP3    H119661   5.074   2.772   4.442
 6576TIP3    H219662   5.107   2.918   4.420
 6577TIP3   OH219663   4.107   2.817   4.744
 6577TIP3    H119664   4.090   2.723   4.745
 6577TIP3    H219665   4.201   2.824   4.728
 6578TIP3   OH219666   3.796   2.024   4.529
 6578TIP3    H119667   3.759   2.110   4.548
 6578TIP3    H219668   3.726   1.976   4.485
 6579TIP3   OH219669   3.867   2.329   4.732
 6579TIP3    H119670   3.917   2.252   4.757
 6579TIP3    H219671   3.932   2.393   4.703
 6580TIP3   OH219672   4.740   3.271   4.376
 6580TIP3    H119673   4.770   3.201   4.317
 6580TIP3    H219674   4.727   3.227   4.460
 6581TIP3   OH219675   4.623   2.746   4.713
 6581TIP3    H119676   4.668   2.668   4.683
 6581TIP3    H219677   4.693   2.805   4.741
 6582TIP3   OH219678   5.656   2.073   4.721
 6582TIP3    H119679   5.672   2.157   4.764
 6582TIP3    H219680   5.683   2.087   4.630
 6583TIP3   OH219681   5.026   2.243   4.742
 6583TIP3    H119682   5.067   2.162   4.771
 6583TIP3    H219683   4.991   2.223   4.655
 6584TIP3   OH219684   4.383   1.899   4.704
 6584TIP3    H119685   4.364   1.972   4.645
 6584TIP3    H219686   4.329   1.827   4.669
 6585TIP3   OH219687   5.083   1.999   4.335
 6585TIP3    H119688   5.147   1.992   4.406
 6585TIP3    H219689   5.133   2.034   4.261
 6586TIP3   OH219690   4.011   2.110   4.825
 6586TIP3    H119691   4.094   2.093   4.870
 6586TIP3    H219692   4.017   2.060   4.744
 6587TIP3   OH219693   4.431   2.310   4.648
 6587TIP3    H119694   4.526   2.294   4.654
 6587TIP3    H219695   4.396   2.229   4.611
 6588TIP3   OH219696   5.713   2.295   4.886
 6588TIP3    H119697   5.622   2.324   4.882
 6588TIP3    H219698   5.745   2.328   4.970
 6589TIP3   OH219699   4.372   1.901   5.152
 6589TIP3    H119700   4.321   1.936   5.079
 6589TIP3    H219701   4.317   1.915   5.229
 6590TIP3   OH219702   4.717   2.754   4.138
 6590TIP3    H119703   4.677   2.728   4.055
 6590TIP3    H219704   4.666   2.830   4.167
 6591TIP3   OH219705   4.472   2.669   4.933
 6591TIP3    H119706   4.417   2.742   4.963
 6591TIP3    H219707   4.521   2.704   4.859
 6592TIP3   OH219708   5.246   2.018   4.553
 6592TIP3    H119709   5.204   2.000   4.637
 6592TIP3    H219710   5.303   2.094   4.571
 6593TIP3   OH219711   4.253   2.006   4.925
 6593TIP3    H119712   4.309   2.081   4.947
 6593TIP3    H219713   4.299   1.963   4.852
 6594TIP3   OH219714   4.311   2.878   5.026
 6594TIP3    H119715   4.299   2.965   4.990
 6594TIP3    H219716   4.229   2.859   5.071
 6595TIP3   OH219717   3.679   2.576   4.279
 6595TIP3    H119718   3.645   2.601   4.193
 6595TIP3    H219719   3.703   2.659   4.320
 6596TIP3   OH219720   5.124   3.085   4.512
 6596TIP3    H119721   5.038   3.077   4.552
 6596TIP3    H219722   5.122   3.170   4.468
 6597TIP3   OH219723   5.454   1.961   4.886
 6597TIP3    H119724   5.369   1.989   4.851
 6597TIP3    H219725   5.518   1.990   4.821
 6598TIP3   OH219726   4.710   1.593   4.878
 6598TIP3    H119727   4.704   1.501   4.904
 6598TIP3    H219728   4.634   1.635   4.918
 6599TIP3   OH219729   4.832   3.111   4.165
 6599TIP3    H119730   4.884   3.032   4.155
 6599TIP3    H219731   4.890   3.182   4.138
 6600TIP3   OH219732   4.973   2.882   4.123
 6600TIP3    H119733   4.901   2.819   4.122
 6600TIP3    H219734   5.022   2.861   4.203
 6601TIP3   OH219735   5.358   2.975   4.859
 6601TIP3    H119736   5.342   2.900   4.802
 6601TIP3    H219737   5.345   3.051   4.803
 6602TIP3   OH219738   4.646   2.375   4.126
 6602TIP3    H119739   4.564   2.422   4.106
 6602TIP3    H219740   4.694   2.376   4.043
 6603TIP3   OH219741   4.613   2.181   3.822
 6603TIP3    H119742   4.678   2.229   3.873
 6603TIP3    H219743   4.662   2.114   3.776
 6604TIP3   OH219744   5.541   2.630   4.728
 6604TIP3    H119745   5.457   2.676   4.726
 6604TIP3    H219746   5.579   2.645   4.641
 6605TIP3   OH219747   5.004   2.461   4.089
 6605TIP3    H119748   4.950   2.491   4.162
 6605TIP3    H219749   5.088   2.438   4.129
 6606TIP3   OH219750   5.227   2.493   5.017
 6606TIP3    H119751   5.233   2.567   5.077
 6606TIP3    H219752   5.141   2.502   4.976
 6607TIP3   OH219753   4.231   2.444   4.497
 6607TIP3    H119754   4.196   2.385   4.430
 6607TIP3    H219755   4.305   2.396   4.535
 6608TIP3   OH219756   4.366   2.859   4.641
 6608TIP3    H119757   4.347   2.849   4.548
 6608TIP3    H219758   4.454   2.822   4.651
 6609TIP3   OH219759   4.331   2.442   4.871
 6609TIP3    H119760   4.369   2.407   4.790
 6609TIP3    H219761   4.383   2.520   4.890
 6610TIP3   OH219762   4.889   3.075   4.647
 6610TIP3    H119763   4.875   3.156   4.697
 6610TIP3    H219764   4.872   3.005   4.711
 6611TIP3   OH219765   4.508   2.980   5.193
 6611TIP3    H119766   4.447   3.042   5.233
 6611TIP3    H219767   4.455   2.929   5.132
 6612TIP3   OH219768   4.836   2.325   3.919
 6612TIP3    H119769   4.896   2.382   3.967
 6612TIP3    H219770   4.864   2.332   3.828
 6613TIP3   OH219771   4.253   2.530   5.342
 6613TIP3    H119772   4.248   2.624   5.358
 6613TIP3    H219773   4.162   2.503   5.332
 6614TIP3   OH219774   4.582   2.995   4.181
 6614TIP3    H119775   4.665   3.043   4.183
 6614TIP3    H219776   4.521   3.055   4.139
 6615TIP3   OH219777   4.295   3.132   5.276
 6615TIP3    H119778   4.272   3.146   5.184
 6615TIP3    H219779   4.212   3.112   5.319
 6616TIP3   OH219780   5.346   1.553   3.975
 6616TIP3    H119781   5.269   1.574   4.029
 6616TIP3    H219782   5.358   1.631   3.920
 6617TIP3   OH219783   4.106   2.289   4.293
 6617TIP3    H119784   4.028   2.336   4.262
 6617TIP3    H219785   4.075   2.199   4.306
 6618TIP3   OH219786   5.167   2.927   3.527
 6618TIP3    H119787   5.165   3.021   3.511
 6618TIP3    H219788   5.257   2.902   3.507
 6619TIP3   OH219789   3.884   2.695   5.230
 6619TIP3    H119790   3.819   2.680   5.162
 6619TIP3    H219791   3.920   2.609   5.249
 6620TIP3   OH219792   3.737   2.888   4.874
 6620TIP3    H119793   3.831   2.908   4.877
 6620TIP3    H219794   3.695   2.967   4.906
 6621TIP3   OH219795   5.588   3.339   4.924
 6621TIP3    H119796   5.594   3.244   4.934
 6621TIP3    H219797   5.508   3.363   4.971
 6622TIP3   OH219798   4.696   3.122   5.050
 6622TIP3    H119799   4.688   3.213   5.079
 6622TIP3    H219800   4.631   3.074   5.100
 6623TIP3   OH219801   4.470   3.229   4.001
 6623TIP3    H119802   4.424   3.209   3.919
 6623TIP3    H219803   4.434   3.314   4.028
 6624TIP3   OH219804   3.909   3.066   4.383
 6624TIP3    H119805   3.953   3.061   4.468
 6624TIP3    H219806   3.861   2.984   4.376
 6625TIP3   OH219807   4.675   3.149   3.635
 6625TIP3    H119808   4.727   3.076   3.601
 6625TIP3    H219809   4.709   3.163   3.723
 6626TIP3   OH219810   4.724   3.197   3.904
 6626TIP3    H119811   4.637   3.203   3.944
 6626TIP3    H219812   4.780   3.161   3.974
 6627TIP3   OH219813   4.081   2.883   5.185
 6627TIP3    H119814   4.132   2.865   5.264
 6627TIP3    H219815   4.007   2.823   5.189
 6628TIP3   OH219816   4.472   1.684   5.005
 6628TIP3    H119817   4.387   1.653   4.974
 6628TIP3    H219818   4.453   1.766   5.051
 6629TIP3   OH219819   5.021   1.805   5.207
 6629TIP3    H119820   5.090   1.782   5.269
 6629TIP3    H219821   4.940   1.790   5.256
 6630TIP3   OH219822   5.250   2.234   5.112
 6630TIP3    H119823   5.204   2.233   5.196
 6630TIP3    H219824   5.243   2.324   5.082
 6631TIP3   OH219825   4.912   2.308   3.654
 6631TIP3    H119826   4.872   2.309   3.567
 6631TIP3    H219827   4.994   2.357   3.643
 6632TIP3   OH219828   4.623   1.729   3.974
 6632TIP3    H119829   4.589   1.735   4.064
 6632TIP3    H219830   4.587   1.648   3.940
 6633TIP3   OH219831   4.413   2.215   5.009
 6633TIP3    H119832   4.376   2.227   5.096
 6633TIP3    H219833   4.391   2.295   4.962
 6634TIP3   OH219834   4.293   2.097   4.536
 6634TIP3    H119835   4.204   2.071   4.560
 6634TIP3    H219836   4.304   2.064   4.447
 6635TIP3   OH219837   4.773   2.172   4.262
 6635TIP3    H119838   4.726   2.244   4.221
 6635TIP3    H219839   4.832   2.140   4.194
 6636TIP3   OH219840   4.972   2.452   5.338
 6636TIP3    H119841   4.942   2.383   5.399
 6636TIP3    H219842   5.064   2.464   5.359
 6637TIP3   OH219843   4.935   2.184   4.490
 6637TIP3    H119844   4.870   2.207   4.424
 6637TIP3    H219845   4.984   2.112   4.451
 6638TIP3   OH219846   4.241   2.220   5.234
 6638TIP3    H119847   4.307   2.268   5.284
 6638TIP3    H219848   4.228   2.139   5.285
 6639TIP3   OH219849   4.288   1.709   3.947
 6639TIP3    H119850   4.280   1.713   4.042
 6639TIP3    H219851   4.210   1.754   3.915
 6640TIP3   OH219852   3.831   1.750   4.824
 6640TIP3    H119853   3.904   1.787   4.873
 6640TIP3    H219854   3.866   1.735   4.736
 6641TIP3   OH219855   3.751   1.734   4.319
 6641TIP3    H119856   3.792   1.766   4.238
 6641TIP3    H219857   3.691   1.804   4.344
 6642TIP3   OH219858   4.957   2.442   4.914
 6642TIP3    H119859   4.990   2.377   4.852
 6642TIP3    H219860   4.929   2.391   4.990
 6643TIP3   OH219861   4.651   1.889   4.586
 6643TIP3    H119862   4.575   1.890   4.644
 6643TIP3    H219863   4.726   1.880   4.646
 6644TIP3   OH219864   4.057   1.968   4.596
 6644TIP3    H119865   3.968   1.973   4.561
 6644TIP3    H219866   4.085   1.879   4.578
 6645TIP3   OH219867   4.307   1.972   4.291
 6645TIP3    H119868   4.401   1.983   4.280
 6645TIP3    H219869   4.270   1.990   4.205
 6646TIP3   OH219870   5.106   1.979   4.791
 6646TIP3    H119871   5.091   1.995   4.884
 6646TIP3    H219872   5.037   1.918   4.766
 6647TIP3   OH219873   4.189   1.997   4.046
 6647TIP3    H119874   4.124   1.949   3.993
 6647TIP3    H219875   4.243   2.043   3.982
 6648TIP3   OH219876   5.301   3.682   5.014
 6648TIP3    H119877   5.297   3.699   4.920
 6648TIP3    H219878   5.380   3.727   5.044
 6649TIP3   OH219879   4.227   2.799   5.414
 6649TIP3    H119880   4.302   2.856   5.428
 6649TIP3    H219881   4.165   2.823   5.482
 6650TIP3   OH219882   4.703   2.251   4.695
 6650TIP3    H119883   4.772   2.209   4.643
 6650TIP3    H219884   4.708   2.209   4.781
 6651TIP3   OH219885   4.199   1.721   4.581
 6651TIP3    H119886   4.169   1.646   4.632
 6651TIP3    H219887   4.228   1.684   4.498
 6652TIP3   OH219888   4.684   2.154   4.967
 6652TIP3    H119889   4.596   2.186   4.987
 6652TIP3    H219890   4.742   2.206   5.022
 6653TIP3   OH219891   4.411   2.517   4.069
 6653TIP3    H119892   4.337   2.461   4.047
 6653TIP3    H219893   4.387   2.556   4.153
 6654TIP3   OH219894   5.305   2.769   4.681
 6654TIP3    H119895   5.341   2.818   4.607
 6654TIP3    H219896   5.225   2.730   4.647
 6655TIP3   OH219897   4.876   1.833   3.969
 6655TIP3    H119898   4.783   1.812   3.969
 6655TIP3    H219899   4.880   1.927   3.985
 6656TIP3   OH219900   4.817   2.849   5.092
 6656TIP3    H119901   4.882   2.839   5.161
 6656TIP3    H219902   4.789   2.940   5.099
 6657TIP3   OH219903   4.938   2.094   4.046
 6657TIP3    H119904   5.032   2.098   4.059
 6657TIP3    H219905   4.917   2.173   3.996
 6658TIP3   OH219906   4.099   2.527   4.725
 6658TIP3    H119907   4.136   2.511   4.639
 6658TIP3    H219908   4.167   2.500   4.787
 6659TIP3   OH219909   4.564   2.678   3.910
 6659TIP3    H119910   4.517   2.761   3.909
 6659TIP3    H219911   4.510   2.620   3.963
 6660TIP3   OH219912   3.976   2.460   5.363
 6660TIP3    H119913   3.980   2.415   5.448
 6660TIP3    H219914   3.909   2.412   5.314
 6661TIP3   OH219915   4.738   2.602   5.374
 6661TIP3    H119916   4.693   2.579   5.293
 6661TIP3    H219917   4.827   2.568   5.363
 6662TIP3   OH219918   4.966   3.136   4.974
 6662TIP3    H119919   4.871   3.127   4.980
 6662TIP3    H219920   4.991   3.177   5.057
 6663TIP3   OH219921   5.355   2.182   3.867
 6663TIP3    H119922   5.299   2.136   3.804
 6663TIP3    H219923   5.360   2.271   3.834
 6664TIP3   OH219924   5.605   3.063   4.948
 6664TIP3    H119925   5.512   3.040   4.952
 6664TIP3    H219926   5.635   3.027   4.865
 6665TIP3   OH219927   5.090   3.000   3.795
 6665TIP3    H119928   5.064   2.932   3.858
 6665TIP3    H219929   5.107   2.952   3.714
 6666TIP3   OH219930   5.072   2.637   4.578
 6666TIP3    H119931   4.982   2.616   4.601
 6666TIP3    H219932   5.108   2.555   4.543
 6667TIP3   OH219933   4.230   2.869   4.391
 6667TIP3    H119934   4.233   2.947   4.334
 6667TIP3    H219935   4.138   2.860   4.415
 6668TIP3   OH219936   3.781   2.160   4.088
 6668TIP3    H119937   3.823   2.241   4.118
 6668TIP3    H219938   3.698   2.158   4.135
 6669TIP3   OH219939   4.318   2.623   4.300
 6669TIP3    H119940   4.301   2.713   4.327
 6669TIP3    H219941   4.290   2.570   4.374
 6670TIP3   OH219942   4.508   3.195   4.843
 6670TIP3    H119943   4.540   3.269   4.792
 6670TIP3    H219944   4.584   3.163   4.890
 6671TIP3   OH219945   4.145   3.093   4.240
 6671TIP3    H119946   4.058   3.098   4.279
 6671TIP3    H219947   4.178   3.183   4.243
 6672TIP3   OH219948   4.860   2.852   4.819
 6672TIP3    H119949   4.845   2.846   4.913
 6672TIP3    H219950   4.944   2.808   4.804
 6673TIP3   OH219951   4.853   2.734   3.691
 6673TIP3    H119952   4.908   2.707   3.765
 6673TIP3    H219953   4.766   2.699   3.713
 6674TIP3   OH219954   5.118   3.359   4.856
 6674TIP3    H119955   5.044   3.299   4.864
 6674TIP3    H219956   5.093   3.417   4.784
 6675TIP3   OH219957   5.175   3.203   3.498
 6675TIP3    H119958   5.214   3.274   3.448
 6675TIP3    H219959   5.098   3.243   3.539
 6676TIP3   OH219960   4.201   1.968   5.362
 6676TIP3    H119961   4.106   1.973   5.365
 6676TIP3    H219962   4.225   1.907   5.432
 6677TIP3   OH219963   5.029   2.646   3.881
 6677TIP3    H119964   5.014   2.594   3.959
 6677TIP3    H219965   5.124   2.656   3.877
 6678TIP3   OH219966   3.934   3.096   5.001
 6678TIP3    H119967   3.991   3.040   5.053
 6678TIP3    H219968   3.950   3.185   5.034
 6679TIP3   OH219969   4.208   2.698   3.696
 6679TIP3    H119970   4.217   2.606   3.672
 6679TIP3    H219971   4.190   2.697   3.790
 6680TIP3   OH219972   4.148   2.715   3.968
 6680TIP3    H119973   4.216   2.688   4.030
 6680TIP3    H219974   4.146   2.810   3.975
 6681TIP3   OH219975   3.878   2.407   4.181
 6681TIP3    H119976   3.814   2.454   4.234
 6681TIP3    H219977   3.900   2.466   4.110
 6682TIP3   OH219978   5.056   2.036   5.053
 6682TIP3    H119979   5.129   2.087   5.088
 6682TIP3    H219980   5.047   1.963   5.114
 6683TIP3   OH219981   4.935   1.783   4.240
 6683TIP3    H119982   4.916   1.802   4.148
 6683TIP3    H219983   4.978   1.861   4.273
 6684TIP3   OH219984   4.417   2.905   3.910
 6684TIP3    H119985   4.333   2.928   3.948
 6684TIP3    H219986   4.441   2.982   3.857
 6685TIP3   OH219987   4.586   1.981   4.333
 6685TIP3    H119988   4.649   2.049   4.307
 6685TIP3    H219989   4.608   1.962   4.424
 6686TIP3   OH219990   4.884   2.277   5.124
 6686TIP3    H119991   4.913   2.328   5.200
 6686TIP3    H219992   4.939   2.199   5.124
 6687TIP3   OH219993   4.751   1.679   4.421
 6687TIP3    H119994   4.729   1.756   4.473
 6687TIP3    H219995   4.820   1.709   4.362
 6688TIP3   OH219996   4.166   2.985   3.989
 6688TIP3    H119997   4.145   3.055   3.926
 6688TIP3    H219998   4.157   3.027   4.074
 6689TIP3   OH219999   4.264   1.700   4.227
 6689TIP3    H120000   4.253   1.790   4.257
 6689TIP3    H220001   4.358   1.684   4.233
 6690TIP3   OH220002   5.511   2.149   5.097
 6690TIP3    H120003   5.425   2.189   5.114
 6690TIP3    H220004   5.495   2.091   5.022
 6691TIP3   OH220005   5.164   2.378   4.491
 6691TIP3    H120006   5.087   2.323   4.507
 6691TIP3    H220007   5.233   2.340   4.544
 6692TIP3   OH220008   3.899   2.587   3.967
 6692TIP3    H120009   3.969   2.652   3.975
 6692TIP3    H220010   3.932   2.524   3.903
 6693TIP3   OH220011   3.793   1.882   4.090
 6693TIP3    H120012   3.809   1.976   4.094
 6693TIP3    H220013   3.712   1.873   4.040
 6694TIP3   OH220014   5.144   3.355   4.432
 6694TIP3    H120015   5.103   3.404   4.361
 6694TIP3    H220016   5.238   3.366   4.419
 6695TIP3   OH220017   4.206   1.601   4.970
 6695TIP3    H120018   4.179   1.569   4.884
 6695TIP3    H220019   4.198   1.525   5.028
 6696TIP3   OH220020   3.733   2.841   4.369
 6696TIP3    H120021   3.694   2.883   4.445
 6696TIP3    H220022   3.693   2.886   4.294
 6697TIP3   OH220023   3.923   3.385   5.423
 6697TIP3    H120024   4.005   3.383   5.472
 6697TIP3    H220025   3.894   3.294   5.420
 6698TIP3   OH220026   4.394   3.301   5.472
 6698TIP3    H120027   4.488   3.287   5.479
 6698TIP3    H220028   4.367   3.248   5.397
 6699TIP3   OH220029   4.366   2.898   3.587
 6699TIP3    H120030   4.318   2.829   3.633
 6699TIP3    H220031   4.441   2.853   3.549
 6700TIP3   OH220032   5.019   3.244   5.222
 6700TIP3    H120033   5.027   3.172   5.284
 6700TIP3    H220034   5.096   3.298   5.237
 6701TIP3   OH220035   4.805   2.939   3.514
 6701TIP3    H120036   4.837   2.875   3.578
 6701TIP3    H220037   4.867   2.934   3.442
 6702TIP3   OH220038   4.045   2.788   5.630
 6702TIP3    H120039   4.032   2.696   5.653
 6702TIP3    H220040   3.965   2.812   5.582
 6703TIP3   OH220041   4.025   2.397   3.819
 6703TIP3    H120042   4.078   2.373   3.896
 6703TIP3    H220043   4.089   2.409   3.749
 6704TIP3   OH220044   4.614   2.855   5.415
 6704TIP3    H120045   4.593   2.887   5.328
 6704TIP3    H220046   4.672   2.780   5.400
 6705TIP3   OH220047   4.576   2.621   3.641
 6705TIP3    H120048   4.561   2.634   3.734
 6705TIP3    H220049   4.565   2.527   3.627
 6706TIP3   OH220050   5.129   2.908   5.003
 6706TIP3    H120051   5.211   2.934   4.961
 6706TIP3    H220052   5.070   2.982   4.987
 6707TIP3   OH220053   4.251   2.531   5.684
 6707TIP3    H120054   4.305   2.470   5.634
 6707TIP3    H220055   4.175   2.481   5.711
 6708TIP3   OH220056   4.204   2.337   4.027
 6708TIP3    H120057   4.183   2.307   4.116
 6708TIP3    H220058   4.250   2.264   3.987
 6709TIP3   OH220059   4.471   2.379   5.266
 6709TIP3    H120060   4.406   2.444   5.294
 6709TIP3    H220061   4.532   2.429   5.211
 6710TIP3   OH220062   4.340   2.148   3.874
 6710TIP3    H120063   4.310   2.153   3.783
 6710TIP3    H220064   4.435   2.156   3.868
 6711TIP3   OH220065   5.019   2.786   5.369
 6711TIP3    H120066   5.094   2.758   5.316
 6711TIP3    H220067   5.023   2.730   5.447
 6712TIP3   OH220068   5.134   2.442   3.554
 6712TIP3    H120069   5.122   2.401   3.468
 6712TIP3    H220070   5.109   2.533   3.540
 6713TIP3   OH220071   4.607   2.189   5.412
 6713TIP3    H120072   4.625   2.113   5.356
 6713TIP3    H220073   4.572   2.255   5.352
 6714TIP3   OH220074   4.630   1.985   5.203
 6714TIP3    H120075   4.663   2.021   5.121
 6714TIP3    H220076   4.540   1.958   5.184
 6715TIP3   OH220077   4.640   2.535   5.113
 6715TIP3    H120078   4.726   2.533   5.071
 6715TIP3    H220079   4.585   2.586   5.054
 6716TIP3   OH220080   5.233   2.448   5.460
 6716TIP3    H120081   5.260   2.356   5.455
 6716TIP3    H220082   5.315   2.496   5.466
 6717TIP3   OH220083   5.242   2.734   5.181
 6717TIP3    H120084   5.194   2.794   5.123
 6717TIP3    H220085   5.333   2.742   5.153
 6718TIP3   OH220086   4.430   2.298   5.610
 6718TIP3    H120087   4.397   2.213   5.639
 6718TIP3    H220088   4.490   2.277   5.539
 6719TIP3   OH220089   4.755   1.748   5.291
 6719TIP3    H120090   4.714   1.830   5.264
 6719TIP3    H220091   4.688   1.682   5.276
 6720TIP3   OH220092   4.884   2.241   5.488
 6720TIP3    H120093   4.909   2.231   5.580
 6720TIP3    H220094   4.792   2.214   5.485
 6721TIP3   OH220095   5.104   2.174   5.333
 6721TIP3    H120096   5.027   2.186   5.389
 6721TIP3    H220097   5.173   2.148   5.393
 6722TIP3   OH220098   5.306   2.125   5.508
 6722TIP3    H120099   5.348   2.039   5.512
 6722TIP3    H220100   5.328   2.166   5.592
 6723TIP3   OH220101   4.337   2.049   5.700
 6723TIP3    H120102   4.344   1.965   5.655
 6723TIP3    H220103   4.384   2.035   5.783
 6724TIP3   OH220104   4.829   1.727   5.557
 6724TIP3    H120105   4.898   1.660   5.557
 6724TIP3    H220106   4.802   1.732   5.465
 6725TIP3   OH220107   4.915   1.948   5.697
 6725TIP3    H120108   4.891   1.873   5.643
 6725TIP3    H220109   4.838   2.005   5.695
 6726TIP3   OH220110   4.155   3.182   3.796
 6726TIP3    H120111   4.247   3.170   3.772
 6726TIP3    H220112   4.119   3.238   3.728
 6727TIP3   OH220113   3.627   2.580   3.991
 6727TIP3    H120114   3.721   2.595   3.982
 6727TIP3    H220115   3.615   2.488   3.966
 6728TIP3   OH220116   3.533   3.164   4.442
 6728TIP3    H120117   3.467   3.113   4.396
 6728TIP3    H220118   3.577   3.100   4.499
 6729TIP3   OH220119   3.677   2.992   4.608
 6729TIP3    H120120   3.668   2.928   4.678
 6729TIP3    H220121   3.728   3.063   4.645
 6730TIP3   OH220122   5.413   3.410   4.417
 6730TIP3    H120123   5.440   3.438   4.505
 6730TIP3    H220124   5.476   3.451   4.358
 6731TIP3   OH220125   5.439   3.436   4.700
 6731TIP3    H120126   5.389   3.354   4.692
 6731TIP3    H220127   5.507   3.416   4.764
 6732TIP3   OH220128   5.477   3.134   5.266
 6732TIP3    H120129   5.412   3.134   5.336
 6732TIP3    H220130   5.523   3.218   5.276
 6733TIP3   OH220131   5.308   2.647   3.881
 6733TIP3    H120132   5.366   2.718   3.852
 6733TIP3    H220133   5.353   2.610   3.958
 6734TIP3   OH220134   5.436   2.505   4.084
 6734TIP3    H120135   5.368   2.468   4.142
 6734TIP3    H220136   5.500   2.543   4.143
 6735TIP3   OH220137   5.482   2.906   4.515
 6735TIP3    H120138   5.535   2.836   4.477
 6735TIP3    H220139   5.485   2.977   4.450
 6736TIP3   OH220140   5.293   3.197   4.706
 6736TIP3    H120141   5.225   3.240   4.758
 6736TIP3    H220142   5.245   3.155   4.635
 6737TIP3   OH220143   5.345   2.421   3.729
 6737TIP3    H120144   5.272   2.422   3.667
 6737TIP3    H220145   5.331   2.499   3.783
 6738TIP3   OH220146   5.203   2.071   3.667
 6738TIP3    H120147   5.153   2.108   3.595
 6738TIP3    H220148   5.195   1.976   3.656
 6739TIP3   OH220149   5.232   2.368   4.222
 6739TIP3    H120150   5.239   2.273   4.211
 6739TIP3    H220151   5.213   2.379   4.315
 6740TIP3   OH220152   3.857   2.430   4.988
 6740TIP3    H120153   3.849   2.398   4.898
 6740TIP3    H220154   3.951   2.428   5.005
 6741TIP3   OH220155   5.497   2.768   5.087
 6741TIP3    H120156   5.559   2.695   5.093
 6741TIP3    H220157   5.528   2.821   5.014
 6742TIP3   OH220158   5.671   2.566   5.141
 6742TIP3    H120159   5.639   2.557   5.231
 6742TIP3    H220160   5.743   2.503   5.135
 6743TIP3   OH220161   5.163   1.799   3.636
 6743TIP3    H120162   5.227   1.775   3.702
 6743TIP3    H220163   5.081   1.761   3.667
 6744TIP3   OH220164   5.226   2.088   4.105
 6744TIP3    H120165   5.271   2.005   4.118
 6744TIP3    H220166   5.270   2.128   4.030
 6745TIP3   OH220167   5.379   2.254   4.625
 6745TIP3    H120168   5.460   2.272   4.578
 6745TIP3    H220169   5.391   2.293   4.712
 6746TIP3   OH220170   5.450   2.400   4.854
 6746TIP3    H120171   5.381   2.427   4.914
 6746TIP3    H220172   5.482   2.481   4.815
 6747TIP3   OH220173   4.073   2.102   5.631
 6747TIP3    H120174   4.167   2.100   5.649
 6747TIP3    H220175   4.040   2.020   5.668
 6748TIP3   OH220176   5.910   2.011   5.395
 6748TIP3    H120177   5.972   1.954   5.350
 6748TIP3    H220178   5.868   2.061   5.325
 6749TIP3   OH220179   5.341   1.839   4.156
 6749TIP3    H120180   5.388   1.824   4.238
 6749TIP3    H220181   5.279   1.766   4.151
 6750TIP3   OH220182   4.041   1.823   4.996
 6750TIP3    H120183   4.096   1.745   4.997
 6750TIP3    H220184   4.102   1.895   4.977
 6751TIP3   OH220185   3.832   2.097   5.040
 6751TIP3    H120186   3.881   2.083   4.959
 6751TIP3    H220187   3.870   2.176   5.078
 6752TIP3   OH220188   5.763   2.114   5.187
 6752TIP3    H120189   5.675   2.149   5.177
 6752TIP3    H220190   5.761   2.030   5.141
 6753TIP3   OH220191   5.389   1.757   3.794
 6753TIP3    H120192   5.436   1.694   3.739
 6753TIP3    H220193   5.446   1.833   3.799
 6754TIP3   OH220194   3.816   1.605   4.551
 6754TIP3    H120195   3.729   1.590   4.586
 6754TIP3    H220196   3.802   1.656   4.472
 6755TIP3   OH220197   4.980   3.309   4.062
 6755TIP3    H120198   5.035   3.300   3.984
 6755TIP3    H220199   5.023   3.376   4.115
 6756TIP3   OH220200   4.045   1.676   5.380
 6756TIP3    H120201   3.990   1.657   5.456
 6756TIP3    H220202   3.985   1.711   5.315
 6757TIP3   OH220203   4.083   3.083   5.455
 6757TIP3    H120204   3.988   3.083   5.440
 6757TIP3    H220205   4.095   3.138   5.532
 6758TIP3   OH220206   4.282   3.155   4.995
 6758TIP3    H120207   4.228   3.226   4.960
 6758TIP3    H220208   4.366   3.165   4.950
 6759TIP3   OH220209   4.681   3.388   5.134
 6759TIP3    H120210   4.721   3.380   5.221
 6759TIP3    H220211   4.743   3.439   5.083
 6760TIP3   OH220212   4.872   3.538   5.004
 6760TIP3    H120213   4.933   3.487   4.951
 6760TIP3    H220214   4.928   3.595   5.058
 6761TIP3   OH220215   5.686   1.866   5.087
 6761TIP3    H120216   5.597   1.863   5.052
 6761TIP3    H220217   5.717   1.776   5.080
 6762TIP3   OH220218   3.940   3.383   5.047
 6762TIP3    H120219   3.850   3.401   5.021
 6762TIP3    H220220   3.964   3.455   5.105
 6763TIP3   OH220221   4.167   3.379   4.884
 6763TIP3    H120222   4.084   3.388   4.931
 6763TIP3    H220223   4.148   3.409   4.796
 6764TIP3   OH220224   4.590   3.403   4.679
 6764TIP3    H120225   4.520   3.413   4.615
 6764TIP3    H220226   4.603   3.491   4.714
 6765TIP3   OH220227   4.855   3.341   4.729
 6765TIP3    H120228   4.763   3.358   4.710
 6765TIP3    H220229   4.903   3.407   4.679
 6766TIP3   OH220230   5.066   3.523   4.637
 6766TIP3    H120231   5.046   3.607   4.594
 6766TIP3    H220232   5.092   3.466   4.565
 6767TIP3   OH220233   3.845   3.175   4.748
 6767TIP3    H120234   3.871   3.156   4.838
 6767TIP3    H220235   3.918   3.145   4.695
 6768TIP3   OH220236   4.051   3.055   4.619
 6768TIP3    H120237   4.063   2.972   4.666
 6768TIP3    H220238   4.136   3.097   4.621
 6769TIP3   OH220239   4.316   3.137   4.644
 6769TIP3    H120240   4.339   3.045   4.634
 6769TIP3    H220241   4.373   3.168   4.714
 6770TIP3   OH220242   4.878   1.795   4.722
 6770TIP3    H120243   4.840   1.724   4.773
 6770TIP3    H220244   4.948   1.755   4.672
 6771TIP3   OH220245   5.387   1.704   4.607
 6771TIP3    H120246   5.428   1.754   4.536
 6771TIP3    H220247   5.299   1.740   4.614
 6772TIP3   OH220248   5.503   1.788   4.374
 6772TIP3    H120249   5.572   1.727   4.348
 6772TIP3    H220250   5.542   1.875   4.361
 6773TIP3   OH220251   4.121   1.497   4.728
 6773TIP3    H120252   4.031   1.464   4.734
 6773TIP3    H220253   4.175   1.419   4.719
 6774TIP3   OH220254   3.949   1.408   4.385
 6774TIP3    H120255   3.973   1.455   4.305
 6774TIP3    H220256   3.911   1.476   4.442
 6775TIP3   OH220257   4.600   1.538   4.617
 6775TIP3    H120258   4.648   1.585   4.549
 6775TIP3    H220259   4.641   1.566   4.699
 6776TIP3   OH220260   5.093   1.678   4.597
 6776TIP3    H120261   5.118   1.643   4.511
 6776TIP3    H220262   5.101   1.603   4.656
 6777TIP3   OH220263   5.155   1.628   4.160
 6777TIP3    H120264   5.075   1.676   4.184
 6777TIP3    H220265   5.144   1.542   4.200
 6778TIP3   OH220266   3.623   2.969   4.155
 6778TIP3    H120267   3.538   2.937   4.123
 6778TIP3    H220268   3.631   3.056   4.117
 6779TIP3   OH220269   4.051   1.533   4.143
 6779TIP3    H120270   4.095   1.473   4.083
 6779TIP3    H220271   4.121   1.589   4.176
 6780TIP3   OH220272   4.539   1.728   4.239
 6780TIP3    H120273   4.600   1.678   4.293
 6780TIP3    H220274   4.553   1.819   4.266
 6781TIP3   OH220275   4.418   3.125   3.732
 6781TIP3    H120276   4.502   3.153   3.697
 6781TIP3    H220277   4.391   3.052   3.676
 6782TIP3   OH220278   5.127   3.269   3.829
 6782TIP3    H120279   5.119   3.174   3.822
 6782TIP3    H220280   5.082   3.303   3.752
 6783TIP3   OH220281   4.350   1.780   5.605
 6783TIP3    H120282   4.316   1.715   5.665
 6783TIP3    H220283   4.443   1.788   5.628
 6784TIP3   OH220284   4.598   1.785   5.730
 6784TIP3    H120285   4.678   1.767   5.680
 6784TIP3    H220286   4.595   1.716   5.796
 6785TIP3   OH220287   3.720   2.977   3.788
 6785TIP3    H120288   3.722   3.002   3.881
 6785TIP3    H220289   3.801   2.930   3.773
 6786TIP3   OH220290   5.426   1.868   5.527
 6786TIP3    H120291   5.449   1.847   5.617
 6786TIP3    H220292   5.510   1.867   5.480
 6787TIP3   OH220293   5.338   3.407   5.023
 6787TIP3    H120294   5.265   3.376   4.970
 6787TIP3    H220295   5.325   3.502   5.029
 6788TIP3   OH220296   6.619   2.802   3.763
 6788TIP3    H120297   6.585   2.886   3.733
 6788TIP3    H220298   6.549   2.739   3.744
 6789TIP3   OH220299   6.611   2.786   4.189
 6789TIP3    H120300   6.665   2.768   4.266
 6789TIP3    H220301   6.571   2.702   4.167
 6790TIP3   OH220302   5.913   2.652   4.531
 6790TIP3    H120303   5.949   2.599   4.602
 6790TIP3    H220304   5.989   2.676   4.478
 6791TIP3   OH220305   6.879   3.093   3.859
 6791TIP3    H120306   6.868   3.025   3.925
 6791TIP3    H220307   6.903   3.172   3.908
 6792TIP3   OH220308   5.900   3.075   4.226
 6792TIP3    H120309   5.884   2.980   4.229
 6792TIP3    H220310   5.995   3.082   4.215
 6793TIP3   OH220311   5.588   2.279   4.005
 6793TIP3    H120312   5.551   2.363   4.031
 6793TIP3    H220313   5.515   2.231   3.967
 6794TIP3   OH220314   5.666   2.590   4.223
 6794TIP3    H120315   5.715   2.513   4.249
 6794TIP3    H220316   5.733   2.654   4.197
 6795TIP3   OH220317   6.536   3.534   3.858
 6795TIP3    H120318   6.567   3.465   3.800
 6795TIP3    H220319   6.518   3.490   3.941
 6796TIP3   OH220320   6.419   3.007   4.193
 6796TIP3    H120321   6.462   2.926   4.167
 6796TIP3    H220322   6.490   3.064   4.222
 6797TIP3   OH220323   7.444   2.330   4.210
 6797TIP3    H120324   7.455   2.419   4.243
 6797TIP3    H220325   7.466   2.336   4.117
 6798TIP3   OH220326   6.849   2.500   4.243
 6798TIP3    H120327   6.911   2.429   4.262
 6798TIP3    H220328   6.810   2.476   4.160
 6799TIP3   OH220329   6.160   2.160   4.200
 6799TIP3    H120330   6.148   2.231   4.137
 6799TIP3    H220331   6.110   2.087   4.163
 6800TIP3   OH220332   5.804   2.369   4.315
 6800TIP3    H120333   5.885   2.351   4.361
 6800TIP3    H220334   5.811   2.317   4.234
 6801TIP3   OH220335   6.232   2.567   4.132
 6801TIP3    H120336   6.326   2.551   4.138
 6801TIP3    H220337   6.197   2.485   4.097
 6802TIP3   OH220338   7.501   2.553   4.382
 6802TIP3    H120339   7.412   2.589   4.372
 6802TIP3    H220340   7.531   2.585   4.467
 6803TIP3   OH220341   6.164   2.157   4.642
 6803TIP3    H120342   6.114   2.193   4.569
 6803TIP3    H220343   6.109   2.173   4.719
 6804TIP3   OH220344   6.514   3.014   3.620
 6804TIP3    H120345   6.474   2.987   3.537
 6804TIP3    H220346   6.461   3.088   3.649
 6805TIP3   OH220347   6.261   2.933   4.408
 6805TIP3    H120348   6.206   3.004   4.442
 6805TIP3    H220349   6.309   2.972   4.335
 6806TIP3   OH220350   6.044   2.270   4.421
 6806TIP3    H120351   6.101   2.344   4.442
 6806TIP3    H220352   6.087   2.226   4.347
 6807TIP3   OH220353   6.101   3.135   4.512
 6807TIP3    H120354   6.086   3.224   4.481
 6807TIP3    H220355   6.024   3.114   4.564
 6808TIP3   OH220356   5.481   2.836   3.764
 6808TIP3    H120357   5.445   2.857   3.678
 6808TIP3    H220358   5.505   2.920   3.801
 6809TIP3   OH220359   6.924   3.340   4.001
 6809TIP3    H120360   6.837   3.332   4.042
 6809TIP3    H220361   6.921   3.424   3.955
 6810TIP3   OH220362   7.243   2.221   4.381
 6810TIP3    H120363   7.154   2.239   4.352
 6810TIP3    H220364   7.298   2.251   4.309
 6811TIP3   OH220365   6.501   1.837   4.373
 6811TIP3    H120366   6.490   1.746   4.400
 6811TIP3    H220367   6.426   1.882   4.412
 6812TIP3   OH220368   6.627   3.372   3.649
 6812TIP3    H120369   6.678   3.291   3.641
 6812TIP3    H220370   6.688   3.441   3.623
 6813TIP3   OH220371   6.766   3.140   3.610
 6813TIP3    H120372   6.693   3.079   3.609
 6813TIP3    H220373   6.815   3.117   3.689
 6814TIP3   OH220374   7.156   3.227   4.346
 6814TIP3    H120375   7.135   3.154   4.288
 6814TIP3    H220376   7.142   3.305   4.292
 6815TIP3   OH220377   6.450   2.625   3.625
 6815TIP3    H120378   6.369   2.671   3.603
 6815TIP3    H220379   6.498   2.620   3.542
 6816TIP3   OH220380   6.407   2.443   3.310
 6816TIP3    H120381   6.474   2.486   3.363
 6816TIP3    H220382   6.454   2.374   3.262
 6817TIP3   OH220383   7.334   2.897   4.211
 6817TIP3    H120384   7.248   2.939   4.209
 6817TIP3    H220385   7.365   2.903   4.120
 6818TIP3   OH220386   6.800   2.720   3.575
 6818TIP3    H120387   6.748   2.753   3.649
 6818TIP3    H220388   6.882   2.691   3.615
 6819TIP3   OH220389   7.027   2.753   4.520
 6819TIP3    H120390   7.022   2.835   4.570
 6819TIP3    H220391   6.946   2.749   4.471
 6820TIP3   OH220392   6.034   2.703   3.982
 6820TIP3    H120393   5.998   2.643   3.917
 6820TIP3    H220394   6.106   2.654   4.023
 6821TIP3   OH220395   6.163   3.122   4.124
 6821TIP3    H120396   6.141   3.108   4.032
 6821TIP3    H220397   6.250   3.083   4.134
 6822TIP3   OH220398   6.129   2.697   4.355
 6822TIP3    H120399   6.169   2.661   4.276
 6822TIP3    H220400   6.179   2.777   4.372
 6823TIP3   OH220401   6.689   3.335   4.137
 6823TIP3    H120402   6.672   3.413   4.190
 6823TIP3    H220403   6.673   3.262   4.196
 6824TIP3   OH220404   6.300   3.236   4.677
 6824TIP3    H120405   6.239   3.294   4.723
 6824TIP3    H220406   6.244   3.184   4.620
 6825TIP3   OH220407   6.637   2.567   3.415
 6825TIP3    H120408   6.695   2.626   3.463
 6825TIP3    H220409   6.663   2.577   3.324
 6826TIP3   OH220410   6.055   2.784   4.817
 6826TIP3    H120411   6.059   2.878   4.837
 6826TIP3    H220412   5.962   2.765   4.811
 6827TIP3   OH220413   6.380   3.252   3.671
 6827TIP3    H120414   6.462   3.301   3.671
 6827TIP3    H220415   6.316   3.311   3.632
 6828TIP3   OH220416   6.089   3.396   4.762
 6828TIP3    H120417   6.065   3.404   4.670
 6828TIP3    H220418   6.007   3.379   4.807
 6829TIP3   OH220419   7.143   1.812   3.465
 6829TIP3    H120420   7.066   1.831   3.518
 6829TIP3    H220421   7.155   1.890   3.410
 6830TIP3   OH220422   5.905   2.548   3.779
 6830TIP3    H120423   5.827   2.593   3.748
 6830TIP3    H220424   5.875   2.460   3.801
 6831TIP3   OH220425   6.961   3.183   3.015
 6831TIP3    H120426   6.958   3.278   3.000
 6831TIP3    H220427   7.051   3.158   2.993
 6832TIP3   OH220428   5.682   2.944   4.714
 6832TIP3    H120429   5.612   2.926   4.650
 6832TIP3    H220430   5.714   2.858   4.740
 6833TIP3   OH220431   5.542   3.130   4.351
 6833TIP3    H120432   5.637   3.136   4.347
 6833TIP3    H220433   5.514   3.208   4.399
 6834TIP3   OH220434   7.385   3.597   4.411
 6834TIP3    H120435   7.391   3.502   4.421
 6834TIP3    H220436   7.305   3.621   4.459
 6835TIP3   OH220437   6.490   3.377   4.537
 6835TIP3    H120438   6.482   3.468   4.566
 6835TIP3    H220439   6.422   3.330   4.586
 6836TIP3   OH220440   6.266   3.505   3.490
 6836TIP3    H120441   6.214   3.487   3.412
 6836TIP3    H220442   6.222   3.579   3.531
 6837TIP3   OH220443   5.707   3.331   3.867
 6837TIP3    H120444   5.749   3.325   3.953
 6837TIP3    H220445   5.658   3.249   3.859
 6838TIP3   OH220446   6.471   3.406   3.122
 6838TIP3    H120447   6.523   3.333   3.089
 6838TIP3    H220448   6.503   3.421   3.211
 6839TIP3   OH220449   6.518   3.458   3.392
 6839TIP3    H120450   6.431   3.470   3.430
 6839TIP3    H220451   6.570   3.419   3.462
 6840TIP3   OH220452   7.270   2.706   4.681
 6840TIP3    H120453   7.191   2.715   4.628
 6840TIP3    H220454   7.292   2.613   4.676
 6841TIP3   OH220455   5.884   3.130   4.683
 6841TIP3    H120456   5.933   3.117   4.764
 6841TIP3    H220457   5.811   3.068   4.689
 6842TIP3   OH220458   6.266   1.939   4.498
 6842TIP3    H120459   6.182   1.909   4.464
 6842TIP3    H220460   6.246   2.021   4.543
 6843TIP3   OH220461   6.811   2.061   4.686
 6843TIP3    H120462   6.880   2.037   4.748
 6843TIP3    H220463   6.730   2.044   4.734
 6844TIP3   OH220464   7.028   2.484   4.607
 6844TIP3    H120465   6.991   2.484   4.695
 6844TIP3    H220466   7.012   2.572   4.574
 6845TIP3   OH220467   6.709   2.572   3.149
 6845TIP3    H120468   6.668   2.568   3.063
 6845TIP3    H220469   6.790   2.621   3.135
 6846TIP3   OH220470   6.429   1.979   3.470
 6846TIP3    H120471   6.399   1.986   3.560
 6846TIP3    H220472   6.388   1.899   3.437
 6847TIP3   OH220473   6.206   2.476   4.505
 6847TIP3    H120474   6.161   2.486   4.589
 6847TIP3    H220475   6.186   2.557   4.458
 6848TIP3   OH220476   6.086   2.356   4.022
 6848TIP3    H120477   5.996   2.330   4.046
 6848TIP3    H220478   6.098   2.319   3.934
 6849TIP3   OH220479   6.587   2.422   3.762
 6849TIP3    H120480   6.539   2.497   3.726
 6849TIP3    H220481   6.642   2.392   3.690
 6850TIP3   OH220482   6.750   2.701   4.826
 6850TIP3    H120483   6.727   2.630   4.887
 6850TIP3    H220484   6.842   2.719   4.845
 6851TIP3   OH220485   6.749   2.427   3.996
 6851TIP3    H120486   6.693   2.429   3.919
 6851TIP3    H220487   6.788   2.340   3.996
 6852TIP3   OH220488   6.039   2.490   4.723
 6852TIP3    H120489   6.062   2.551   4.794
 6852TIP3    H220490   6.021   2.407   4.768
 6853TIP3   OH220491   6.083   1.965   3.435
 6853TIP3    H120492   6.079   1.968   3.531
 6853TIP3    H220493   6.006   2.013   3.406
 6854TIP3   OH220494   5.637   2.010   4.300
 6854TIP3    H120495   5.703   2.047   4.359
 6854TIP3    H220496   5.683   1.996   4.217
 6855TIP3   OH220497   5.547   1.987   3.809
 6855TIP3    H120498   5.593   2.023   3.733
 6855TIP3    H220499   5.485   2.056   3.834
 6856TIP3   OH220500   6.773   2.702   4.404
 6856TIP3    H120501   6.803   2.634   4.343
 6856TIP3    H220502   6.728   2.652   4.473
 6857TIP3   OH220503   6.416   2.192   4.082
 6857TIP3    H120504   6.346   2.174   4.145
 6857TIP3    H220505   6.490   2.139   4.112
 6858TIP3   OH220506   5.849   2.228   4.083
 6858TIP3    H120507   5.760   2.232   4.046
 6858TIP3    H220508   5.878   2.138   4.065
 6859TIP3   OH220509   6.102   2.227   3.778
 6859TIP3    H120510   6.196   2.241   3.769
 6859TIP3    H220511   6.066   2.246   3.692
 6860TIP3   OH220512   6.976   2.251   4.297
 6860TIP3    H120513   6.896   2.237   4.348
 6860TIP3    H220514   6.956   2.215   4.211
 6861TIP3   OH220515   5.984   2.255   3.531
 6861TIP3    H120516   5.920   2.207   3.479
 6861TIP3    H220517   6.039   2.301   3.468
 6862TIP3   OH220518   7.097   3.938   4.504
 6862TIP3    H120519   7.095   3.949   4.409
 6862TIP3    H220520   7.176   3.985   4.532
 6863TIP3   OH220521   6.039   3.047   4.917
 6863TIP3    H120522   6.119   3.068   4.966
 6863TIP3    H220523   5.969   3.051   4.982
 6864TIP3   OH220524   6.506   2.515   4.182
 6864TIP3    H120525   6.566   2.464   4.127
 6864TIP3    H220526   6.503   2.468   4.265
 6865TIP3   OH220527   5.989   1.980   4.067
 6865TIP3    H120528   5.962   1.903   4.118
 6865TIP3    H220529   6.029   1.943   3.988
 6866TIP3   OH220530   6.470   2.412   4.450
 6866TIP3    H120531   6.383   2.444   4.471
 6866TIP3    H220532   6.529   2.467   4.501
 6867TIP3   OH220533   6.215   2.768   3.560
 6867TIP3    H120534   6.140   2.714   3.536
 6867TIP3    H220535   6.190   2.810   3.642
 6868TIP3   OH220536   7.094   3.026   4.168
 6868TIP3    H120537   7.127   3.075   4.093
 6868TIP3    H220538   7.016   2.982   4.135
 6869TIP3   OH220539   6.639   2.130   3.379
 6869TIP3    H120540   6.566   2.083   3.420
 6869TIP3    H220541   6.673   2.186   3.448
 6870TIP3   OH220542   6.617   3.111   4.571
 6870TIP3    H120543   6.663   3.099   4.654
 6870TIP3    H220544   6.575   3.197   4.579
 6871TIP3   OH220545   6.744   2.333   3.549
 6871TIP3    H120546   6.839   2.340   3.560
 6871TIP3    H220547   6.721   2.408   3.495
 6872TIP3   OH220548   5.898   2.785   4.209
 6872TIP3    H120549   5.938   2.768   4.124
 6872TIP3    H220550   5.963   2.756   4.273
 6873TIP3   OH220551   6.358   2.935   3.396
 6873TIP3    H120552   6.310   3.017   3.398
 6873TIP3    H220553   6.307   2.876   3.451
 6874TIP3   OH220554   5.784   2.723   4.859
 6874TIP3    H120555   5.803   2.714   4.953
 6874TIP3    H220556   5.712   2.662   4.844
 6875TIP3   OH220557   6.520   2.854   4.863
 6875TIP3    H120558   6.452   2.796   4.827
 6875TIP3    H220559   6.602   2.814   4.836
 6876TIP3   OH220560   6.762   3.396   4.461
 6876TIP3    H120561   6.668   3.381   4.466
 6876TIP3    H220562   6.786   3.433   4.546
 6877TIP3   OH220563   7.159   2.434   3.345
 6877TIP3    H120564   7.104   2.388   3.283
 6877TIP3    H220565   7.159   2.525   3.315
 6878TIP3   OH220566   7.401   3.321   4.432
 6878TIP3    H120567   7.308   3.301   4.434
 6878TIP3    H220568   7.432   3.285   4.349
 6879TIP3   OH220569   6.890   3.255   3.287
 6879TIP3    H120570   6.861   3.191   3.351
 6879TIP3    H220571   6.902   3.205   3.206
 6880TIP3   OH220572   6.867   2.889   4.064
 6880TIP3    H120573   6.776   2.867   4.088
 6880TIP3    H220574   6.901   2.808   4.026
 6881TIP3   OH220575   6.023   3.128   3.874
 6881TIP3    H120576   6.023   3.206   3.819
 6881TIP3    H220577   5.932   3.118   3.901
 6882TIP3   OH220578   5.578   2.413   3.582
 6882TIP3    H120579   5.624   2.494   3.604
 6882TIP3    H220580   5.500   2.414   3.637
 6883TIP3   OH220581   6.114   2.883   3.783
 6883TIP3    H120582   6.095   2.972   3.812
 6883TIP3    H220583   6.089   2.828   3.857
 6884TIP3   OH220584   6.303   3.454   4.329
 6884TIP3    H120585   6.337   3.528   4.279
 6884TIP3    H220586   6.379   3.421   4.377
 6885TIP3   OH220587   5.944   3.358   3.724
 6885TIP3    H120588   5.857   3.364   3.764
 6885TIP3    H220589   5.978   3.448   3.727
 6886TIP3   OH220590   6.658   3.109   4.299
 6886TIP3    H120591   6.647   3.104   4.394
 6886TIP3    H220592   6.728   3.046   4.280
 6887TIP3   OH220593   6.647   2.989   3.176
 6887TIP3    H120594   6.703   2.962   3.250
 6887TIP3    H220595   6.562   2.951   3.196
 6888TIP3   OH220596   6.917   3.611   4.344
 6888TIP3    H120597   6.845   3.550   4.359
 6888TIP3    H220598   6.886   3.668   4.274
 6889TIP3   OH220599   6.965   3.458   2.984
 6889TIP3    H120600   6.995   3.526   2.923
 6889TIP3    H220601   6.891   3.498   3.029
 6890TIP3   OH220602   5.988   2.238   4.845
 6890TIP3    H120603   5.893   2.249   4.850
 6890TIP3    H220604   6.010   2.184   4.922
 6891TIP3   OH220605   6.825   2.901   3.364
 6891TIP3    H120606   6.808   2.848   3.442
 6891TIP3    H220607   6.920   2.910   3.361
 6892TIP3   OH220608   5.727   3.342   4.495
 6892TIP3    H120609   5.778   3.280   4.547
 6892TIP3    H220610   5.744   3.427   4.535
 6893TIP3   OH220611   6.003   2.957   3.185
 6893TIP3    H120612   6.014   2.865   3.160
 6893TIP3    H220613   5.986   2.955   3.279
 6894TIP3   OH220614   5.944   2.973   3.457
 6894TIP3    H120615   6.007   2.945   3.523
 6894TIP3    H220616   5.943   3.069   3.464
 6895TIP3   OH220617   5.677   2.662   3.666
 6895TIP3    H120618   5.613   2.709   3.719
 6895TIP3    H220619   5.697   2.722   3.594
 6896TIP3   OH220620   6.814   2.308   4.559
 6896TIP3    H120621   6.903   2.342   4.566
 6896TIP3    H220622   6.818   2.223   4.602
 6897TIP3   OH220623   6.756   2.063   3.744
 6897TIP3    H120624   6.748   2.146   3.698
 6897TIP3    H220625   6.800   2.086   3.827
 6898TIP3   OH220626   6.214   3.165   3.399
 6898TIP3    H120627   6.128   3.186   3.436
 6898TIP3    H220628   6.237   3.241   3.346
 6899TIP3   OH220629   6.379   2.246   3.817
 6899TIP3    H120630   6.448   2.308   3.794
 6899TIP3    H220631   6.389   2.231   3.911
 6900TIP3   OH220632   6.668   2.541   4.601
 6900TIP3    H120633   6.697   2.581   4.683
 6900TIP3    H220634   6.716   2.458   4.596
 6901TIP3   OH220635   6.566   1.919   3.895
 6901TIP3    H120636   6.588   1.958   3.979
 6901TIP3    H220637   6.626   1.960   3.833
 6902TIP3   OH220638   5.961   3.245   3.474
 6902TIP3    H120639   5.939   3.314   3.411
 6902TIP3    H220640   5.952   3.287   3.560
 6903TIP3   OH220641   6.067   1.954   3.714
 6903TIP3    H120642   6.055   2.044   3.745
 6903TIP3    H220643   6.161   1.938   3.723
 6904TIP3   OH220644   7.293   2.431   4.590
 6904TIP3    H120645   7.198   2.439   4.601
 6904TIP3    H220646   7.303   2.377   4.511
 6905TIP3   OH220647   6.951   2.633   3.971
 6905TIP3    H120648   6.883   2.567   3.985
 6905TIP3    H220649   7.026   2.602   4.023
 6906TIP3   OH220650   5.697   2.843   3.452
 6906TIP3    H120651   5.767   2.908   3.461
 6906TIP3    H220652   5.731   2.780   3.388
 6907TIP3   OH220653   5.609   2.135   3.585
 6907TIP3    H120654   5.623   2.229   3.593
 6907TIP3    H220655   5.540   2.127   3.519
 6908TIP3   OH220656   6.940   3.610   3.923
 6908TIP3    H120657   6.898   3.659   3.852
 6908TIP3    H220658   7.033   3.622   3.908
 6909TIP3   OH220659   6.003   1.858   4.454
 6909TIP3    H120660   5.975   1.825   4.369
 6909TIP3    H220661   5.995   1.782   4.513
 6910TIP3   OH220662   5.533   3.104   3.850
 6910TIP3    H120663   5.491   3.142   3.927
 6910TIP3    H220664   5.491   3.148   3.776
 6911TIP3   OH220665   5.730   3.644   4.917
 6911TIP3    H120666   5.813   3.647   4.964
 6911TIP3    H220667   5.712   3.551   4.904
 6912TIP3   OH220668   6.198   3.560   4.955
 6912TIP3    H120669   6.289   3.532   4.962
 6912TIP3    H220670   6.162   3.507   4.883
 6913TIP3   OH220671   6.161   3.156   3.075
 6913TIP3    H120672   6.113   3.087   3.121
 6913TIP3    H220673   6.236   3.112   3.037
 6914TIP3   OH220674   6.817   3.497   4.711
 6914TIP3    H120675   6.830   3.426   4.774
 6914TIP3    H220676   6.892   3.555   4.724
 6915TIP3   OH220677   6.603   3.196   3.002
 6915TIP3    H120678   6.632   3.131   3.066
 6915TIP3    H220679   6.665   3.189   2.930
 6916TIP3   OH220680   5.834   3.047   5.104
 6916TIP3    H120681   5.840   2.955   5.130
 6916TIP3    H220682   5.747   3.054   5.065
 6917TIP3   OH220683   5.826   2.653   3.303
 6917TIP3    H120684   5.877   2.631   3.381
 6917TIP3    H220685   5.891   2.667   3.235
 6918TIP3   OH220686   6.453   3.129   4.881
 6918TIP3    H120687   6.408   3.150   4.799
 6918TIP3    H220688   6.487   3.041   4.868
 6919TIP3   OH220689   6.374   2.877   3.128
 6919TIP3    H120690   6.358   2.890   3.222
 6919TIP3    H220691   6.362   2.783   3.115
 6920TIP3   OH220692   6.933   3.171   4.503
 6920TIP3    H120693   7.010   3.198   4.452
 6920TIP3    H220694   6.867   3.237   4.482
 6921TIP3   OH220695   5.944   2.774   5.104
 6921TIP3    H120696   6.023   2.766   5.051
 6921TIP3    H220697   5.975   2.802   5.190
 6922TIP3   OH220698   6.001   2.595   3.514
 6922TIP3    H120699   5.980   2.567   3.603
 6922TIP3    H220700   6.047   2.521   3.475
 6923TIP3   OH220701   6.303   2.664   4.770
 6923TIP3    H120702   6.220   2.712   4.780
 6923TIP3    H220703   6.339   2.695   4.687
 6924TIP3   OH220704   6.135   2.405   3.359
 6924TIP3    H120705   6.107   2.410   3.267
 6924TIP3    H220706   6.230   2.415   3.355
 6925TIP3   OH220707   6.816   3.048   4.859
 6925TIP3    H120708   6.883   3.009   4.804
 6925TIP3    H220709   6.812   2.991   4.936
 6926TIP3   OH220710   6.931   2.700   3.039
 6926TIP3    H120711   6.917   2.658   2.954
 6926TIP3    H220712   6.905   2.792   3.025
 6927TIP3   OH220713   6.417   2.440   4.877
 6927TIP3    H120714   6.420   2.368   4.814
 6927TIP3    H220715   6.379   2.513   4.829
 6928TIP3   OH220716   6.425   2.239   4.677
 6928TIP3    H120717   6.453   2.276   4.594
 6928TIP3    H220718   6.334   2.213   4.662
 6929TIP3   OH220719   6.427   2.771   4.556
 6929TIP3    H120720   6.518   2.786   4.528
 6929TIP3    H220721   6.376   2.833   4.505
 6930TIP3   OH220722   7.019   2.731   4.920
 6930TIP3    H120723   7.027   2.637   4.911
 6930TIP3    H220724   7.105   2.766   4.896
 6931TIP3   OH220725   7.050   2.994   4.672
 6931TIP3    H120726   6.998   3.055   4.621
 6931TIP3    H220727   7.140   3.006   4.640
 6932TIP3   OH220728   6.301   2.529   5.119
 6932TIP3    H120729   6.229   2.468   5.138
 6932TIP3    H220730   6.329   2.506   5.031
 6933TIP3   OH220731   6.548   2.007   4.775
 6933TIP3    H120732   6.507   2.087   4.741
 6933TIP3    H220733   6.482   1.939   4.759
 6934TIP3   OH220734   6.675   2.482   4.975
 6934TIP3    H120735   6.663   2.471   5.069
 6934TIP3    H220736   6.589   2.461   4.937
 6935TIP3   OH220737   6.937   2.466   4.863
 6935TIP3    H120738   6.854   2.449   4.909
 6935TIP3    H220739   7.003   2.422   4.916
 6936TIP3   OH220740   7.164   2.395   5.006
 6936TIP3    H120741   7.175   2.300   5.014
 6936TIP3    H220742   7.158   2.426   5.096
 6937TIP3   OH220743   6.130   2.309   5.180
 6937TIP3    H120744   6.137   2.221   5.143
 6937TIP3    H220745   6.171   2.302   5.266
 6938TIP3   OH220746   6.616   1.985   5.039
 6938TIP3    H120747   6.686   1.920   5.031
 6938TIP3    H220748   6.584   1.997   4.949
 6939TIP3   OH220749   6.707   2.205   5.179
 6939TIP3    H120750   6.677   2.133   5.123
 6939TIP3    H220751   6.634   2.268   5.179
 6940TIP3   OH220752   5.950   3.442   3.279
 6940TIP3    H120753   6.043   3.428   3.258
 6940TIP3    H220754   5.917   3.494   3.207
 6941TIP3   OH220755   5.423   2.835   3.471
 6941TIP3    H120756   5.518   2.849   3.468
 6941TIP3    H220757   5.410   2.748   3.433
 6942TIP3   OH220758   5.332   3.422   3.927
 6942TIP3    H120759   5.268   3.370   3.880
 6942TIP3    H220760   5.376   3.360   3.985
 6943TIP3   OH220761   5.473   3.250   4.095
 6943TIP3    H120762   5.463   3.183   4.162
 6943TIP3    H220763   5.523   3.320   4.138
 6944TIP3   OH220764   7.206   3.669   3.907
 6944TIP3    H120765   7.236   3.692   3.995
 6944TIP3    H220766   7.272   3.706   3.849
 6945TIP3   OH220767   7.238   3.688   4.188
 6945TIP3    H120768   7.187   3.607   4.180
 6945TIP3    H220769   7.305   3.668   4.254
 6946TIP3   OH220770   7.276   3.390   4.758
 6946TIP3    H120771   7.206   3.396   4.823
 6946TIP3    H220772   7.318   3.476   4.759
 6947TIP3   OH220773   7.103   2.904   3.366
 6947TIP3    H120774   7.163   2.975   3.341
 6947TIP3    H220775   7.144   2.865   3.443
 6948TIP3   OH220776   7.221   2.759   3.569
 6948TIP3    H120777   7.155   2.718   3.625
 6948TIP3    H220778   7.285   2.796   3.630
 6949TIP3   OH220779   7.272   3.165   4.002
 6949TIP3    H120780   7.321   3.093   3.963
 6949TIP3    H220781   7.275   3.234   3.935
 6950TIP3   OH220782   7.091   3.451   4.196
 6950TIP3    H120783   7.023   3.496   4.246
 6950TIP3    H220784   7.044   3.410   4.123
 6951TIP3   OH220785   7.139   2.677   3.215
 6951TIP3    H120786   7.066   2.678   3.154
 6951TIP3    H220787   7.125   2.754   3.270
 6952TIP3   OH220788   7.010   2.324   3.143
 6952TIP3    H120789   6.954   2.361   3.074
 6952TIP3    H220790   6.998   2.230   3.135
 6953TIP3   OH220791   7.024   2.615   3.704
 6953TIP3    H120792   7.025   2.521   3.688
 6953TIP3    H220793   7.004   2.624   3.797
 6954TIP3   OH220794   5.648   2.688   4.480
 6954TIP3    H120795   5.639   2.655   4.390
 6954TIP3    H220796   5.743   2.685   4.497
 6955TIP3   OH220797   7.302   3.042   4.566
 6955TIP3    H120798   7.371   2.977   4.552
 6955TIP3    H220799   7.301   3.093   4.486
 6956TIP3   OH220800   7.483   2.836   4.566
 6956TIP3    H120801   7.407   2.793   4.605
 6956TIP3    H220802   7.557   2.780   4.588
 6957TIP3   OH220803   6.961   2.053   3.118
 6957TIP3    H120804   7.018   2.031   3.191
 6957TIP3    H220805   6.876   2.015   3.141
 6958TIP3   OH220806   7.021   2.349   3.581
 6958TIP3    H120807   7.063   2.268   3.610
 6958TIP3    H220808   7.074   2.378   3.507
 6959TIP3   OH220809   7.176   2.554   4.110
 6959TIP3    H120810   7.262   2.557   4.069
 6959TIP3    H220811   7.192   2.576   4.201
 6960TIP3   OH220812   7.252   2.673   4.353
 6960TIP3    H120813   7.173   2.700   4.400
 6960TIP3    H220814   7.280   2.752   4.307
 6961TIP3   OH220815   5.863   2.365   5.126
 6961TIP3    H120816   5.957   2.363   5.140
 6961TIP3    H220817   5.832   2.281   5.161
 6962TIP3   OH220818   7.712   2.254   4.887
 6962TIP3    H120819   7.769   2.191   4.841
 6962TIP3    H220820   7.672   2.306   4.817
 6963TIP3   OH220821   7.139   2.095   3.640
 6963TIP3    H120822   7.179   2.087   3.727
 6963TIP3    H220823   7.073   2.027   3.637
 6964TIP3   OH220824   5.838   2.081   4.478
 6964TIP3    H120825   5.893   2.003   4.481
 6964TIP3    H220826   5.899   2.153   4.465
 6965TIP3   OH220827   5.623   2.342   4.530
 6965TIP3    H120828   5.675   2.339   4.450
 6965TIP3    H220829   5.653   2.421   4.575
 6966TIP3   OH220830   7.555   2.371   4.698
 6966TIP3    H120831   7.479   2.412   4.739
 6966TIP3    H220832   7.518   2.306   4.638
 6967TIP3   OH220833   7.186   2.013   3.279
 6967TIP3    H120834   7.237   1.951   3.226
 6967TIP3    H220835   7.243   2.089   3.289
 6968TIP3   OH220836   5.610   1.838   4.029
 6968TIP3    H120837   5.525   1.835   4.074
 6968TIP3    H220838   5.597   1.900   3.957
 6969TIP3   OH220839   6.783   3.566   3.550
 6969TIP3    H120840   6.837   3.556   3.471
 6969TIP3    H220841   6.825   3.637   3.599
 6970TIP3   OH220842   5.839   1.913   4.854
 6970TIP3    H120843   5.788   1.905   4.935
 6970TIP3    H220844   5.782   1.962   4.795
 6971TIP3   OH220845   5.864   3.365   4.926
 6971TIP3    H120846   5.771   3.344   4.917
 6971TIP3    H220847   5.885   3.345   5.017
 6972TIP3   OH220848   6.075   3.410   4.479
 6972TIP3    H120849   6.022   3.483   4.446
 6972TIP3    H220850   6.160   3.420   4.435
 6973TIP3   OH220851   6.477   3.643   4.619
 6973TIP3    H120852   6.517   3.636   4.706
 6973TIP3    H220853   6.537   3.698   4.569
 6974TIP3   OH220854   6.661   3.800   4.485
 6974TIP3    H120855   6.718   3.745   4.431
 6974TIP3    H220856   6.722   3.851   4.540
 6975TIP3   OH220857   7.462   2.134   4.574
 6975TIP3    H120858   7.377   2.137   4.530
 6975TIP3    H220859   7.490   2.043   4.565
 6976TIP3   OH220860   5.736   3.647   4.532
 6976TIP3    H120861   5.647   3.673   4.506
 6976TIP3    H220862   5.762   3.712   4.597
 6977TIP3   OH220863   5.964   3.640   4.375
 6977TIP3    H120864   5.881   3.645   4.422
 6977TIP3    H220865   5.943   3.671   4.287
 6978TIP3   OH220866   6.384   3.662   4.161
 6978TIP3    H120867   6.319   3.669   4.092
 6978TIP3    H220868   6.394   3.752   4.193
 6979TIP3   OH220869   6.649   3.604   4.220
 6979TIP3    H120870   6.557   3.618   4.199
 6979TIP3    H220871   6.696   3.665   4.163
 6980TIP3   OH220872   6.866   3.781   4.125
 6980TIP3    H120873   6.851   3.865   4.081
 6980TIP3    H220874   6.891   3.721   4.055
 6981TIP3   OH220875   5.643   3.428   4.245
 6981TIP3    H120876   5.671   3.405   4.333
 6981TIP3    H220877   5.715   3.398   4.189
 6982TIP3   OH220878   5.847   3.315   4.105
 6982TIP3    H120879   5.858   3.231   4.149
 6982TIP3    H220880   5.933   3.356   4.109
 6983TIP3   OH220881   6.113   3.398   4.131
 6983TIP3    H120882   6.134   3.306   4.118
 6983TIP3    H220883   6.169   3.425   4.204
 6984TIP3   OH220884   6.622   2.016   4.145
 6984TIP3    H120885   6.644   1.957   4.217
 6984TIP3    H220886   6.706   2.054   4.118
 6985TIP3   OH220887   7.148   1.963   4.072
 6985TIP3    H120888   7.201   2.010   4.008
 6985TIP3    H220889   7.064   2.008   4.070
 6986TIP3   OH220890   7.302   2.047   3.862
 6986TIP3    H120891   7.372   1.987   3.838
 6986TIP3    H220892   7.336   2.134   3.840
 6987TIP3   OH220893   5.919   1.753   4.211
 6987TIP3    H120894   5.830   1.719   4.221
 6987TIP3    H220895   5.974   1.675   4.204
 6988TIP3   OH220896   5.725   1.647   3.855
 6988TIP3    H120897   5.758   1.700   3.783
 6988TIP3    H220898   5.692   1.711   3.919
 6989TIP3   OH220899   6.394   1.797   4.106
 6989TIP3    H120900   6.440   1.844   4.036
 6989TIP3    H220901   6.438   1.824   4.186
 6990TIP3   OH220902   6.947   1.890   3.640
 6990TIP3    H120903   6.874   1.945   3.670
 6990TIP3    H220904   6.932   1.806   3.683
 6991TIP3   OH220905   5.418   3.227   3.634
 6991TIP3    H120906   5.333   3.193   3.606
 6991TIP3    H220907   5.420   3.317   3.601
 6992TIP3   OH220908   5.849   1.790   3.628
 6992TIP3    H120909   5.895   1.730   3.569
 6992TIP3    H220910   5.918   1.845   3.664
 6993TIP3   OH220911   6.344   1.986   3.735
 6993TIP3    H120912   6.409   1.940   3.788
 6993TIP3    H220913   6.354   2.078   3.759
 6994TIP3   OH220914   6.213   3.383   3.220
 6994TIP3    H120915   6.297   3.411   3.185
 6994TIP3    H220916   6.187   3.310   3.163
 6995TIP3   OH220917   6.926   3.524   3.315
 6995TIP3    H120918   6.917   3.429   3.309
 6995TIP3    H220919   6.877   3.557   3.240
 6996TIP3   OH220920   6.143   2.036   5.096
 6996TIP3    H120921   6.109   1.969   5.155
 6996TIP3    H220922   6.236   2.044   5.119
 6997TIP3   OH220923   6.395   2.043   5.211
 6997TIP3    H120924   6.473   2.019   5.161
 6997TIP3    H220925   6.386   1.974   5.277
 6998TIP3   OH220926   5.515   3.226   3.279
 6998TIP3    H120927   5.519   3.244   3.373
 6998TIP3    H220928   5.598   3.182   3.260
 6999TIP3   OH220929   7.216   2.122   5.007
 6999TIP3    H120930   7.233   2.093   5.097
 6999TIP3    H220931   7.301   2.119   4.964
 7000TIP3   OH220932   7.136   3.664   4.510
 7000TIP3    H120933   7.062   3.633   4.458
 7000TIP3    H220934   7.122   3.758   4.518
 7001TIP3   OH220935   7.680   2.889   4.035
 7001TIP3    H120936   7.717   2.860   4.119
 7001TIP3    H220937   7.756   2.917   3.984
 7002TIP3   OH220938   7.671   3.343   3.727
 7002TIP3    H120939   7.656   3.249   3.730
 7002TIP3    H220940   7.766   3.352   3.721
 7003TIP3   OH220941   7.383   2.544   3.484
 7003TIP3    H120942   7.341   2.624   3.514
 7003TIP3    H220943   7.312   2.491   3.449
 7004TIP3   OH220944   7.450   2.846   3.702
 7004TIP3    H120945   7.500   2.768   3.727
 7004TIP3    H220946   7.517   2.910   3.675
 7005TIP3   OH220947   8.415   3.820   3.386
 7005TIP3    H120948   8.476   3.751   3.414
 7005TIP3    H220949   8.332   3.774   3.371
 7006TIP3   OH220950   8.214   3.259   3.674
 7006TIP3    H120951   8.263   3.247   3.592
 7006TIP3    H220952   8.279   3.245   3.742
 7007TIP3   OH220953   7.986   2.308   3.661
 7007TIP3    H120954   7.958   2.389   3.703
 7007TIP3    H220955   7.908   2.276   3.616
 7008TIP3   OH220956   7.589   2.626   3.790
 7008TIP3    H120957   7.661   2.604   3.849
 7008TIP3    H220958   7.603   2.572   3.713
 7009TIP3   OH220959   7.937   2.820   3.561
 7009TIP3    H120960   8.007   2.801   3.624
 7009TIP3    H220961   7.913   2.734   3.525
 7010TIP3   OH220962   7.934   2.390   4.151
 7010TIP3    H120963   7.885   2.430   4.079
 7010TIP3    H220964   7.871   2.386   4.223
 7011TIP3   OH220965   8.033   3.195   3.897
 7011TIP3    H120966   7.967   3.261   3.921
 7011TIP3    H220967   8.055   3.214   3.806
 7012TIP3   OH220968   7.793   2.528   3.960
 7012TIP3    H120969   7.831   2.604   4.004
 7012TIP3    H220970   7.838   2.523   3.876
 7013TIP3   OH220971   7.855   3.381   3.982
 7013TIP3    H120972   7.844   3.473   3.955
 7013TIP3    H220973   7.780   3.363   4.038
 7014TIP3   OH220974   7.275   3.095   3.250
 7014TIP3    H120975   7.234   3.117   3.167
 7014TIP3    H220976   7.299   3.179   3.288
 7015TIP3   OH220977   7.736   2.969   3.460
 7015TIP3    H120978   7.704   2.909   3.392
 7015TIP3    H220979   7.805   2.920   3.505
 7016TIP3   OH220980   7.935   3.408   3.607
 7016TIP3    H120981   7.890   3.392   3.524
 7016TIP3    H220982   7.988   3.329   3.621
 7017TIP3   OH220983   7.900   2.954   3.869
 7017TIP3    H120984   7.953   2.927   3.793
 7017TIP3    H220985   7.935   3.039   3.894
 7018TIP3   OH220986   8.040   3.456   4.173
 7018TIP3    H120987   7.986   3.526   4.210
 7018TIP3    H220988   7.982   3.411   4.111
 7019TIP3   OH220989   7.838   3.061   4.281
 7019TIP3    H120990   7.837   3.150   4.319
 7019TIP3    H220991   7.748   3.030   4.294
 7020TIP3   OH220992   8.040   3.498   3.215
 7020TIP3    H120993   8.129   3.527   3.233
 7020TIP3    H220994   7.994   3.576   3.186
 7021TIP3   OH220995   7.869   3.655   4.246
 7021TIP3    H120996   7.839   3.662   4.156
 7021TIP3    H220997   7.790   3.640   4.297
 7022TIP3   OH220998   7.672   2.788   3.257
 7022TIP3    H120999   7.595   2.834   3.223
 7022TIP3    H221000   7.638   2.703   3.286
 7023TIP3   OH221001   7.471   3.201   4.198
 7023TIP3    H121002   7.402   3.183   4.134
 7023TIP3    H221003   7.505   3.115   4.222
 7024TIP3   OH221004   7.339   3.386   3.834
 7024TIP3    H121005   7.435   3.386   3.826
 7024TIP3    H221006   7.319   3.462   3.888
 7025TIP3   OH221007   8.197   3.610   4.010
 7025TIP3    H121008   8.181   3.692   4.058
 7025TIP3    H221009   8.153   3.543   4.062
 7026TIP3   OH221010   8.022   3.754   3.093
 7026TIP3    H121011   7.988   3.698   3.022
 7026TIP3    H221012   7.990   3.842   3.071
 7027TIP3   OH221013   7.494   3.584   3.348
 7027TIP3    H121014   7.533   3.579   3.435
 7027TIP3    H221015   7.444   3.503   3.339
 7028TIP3   OH221016   8.420   3.717   3.016
 7028TIP3    H121017   8.373   3.759   2.944
 7028TIP3    H221018   8.450   3.633   2.981
 7029TIP3   OH221019   7.658   3.397   4.170
 7029TIP3    H121020   7.711   3.385   4.249
 7029TIP3    H221021   7.590   3.330   4.176
 7030TIP3   OH221022   8.028   2.176   4.004
 7030TIP3    H121023   7.942   2.152   3.970
 7030TIP3    H221024   8.013   2.259   4.049
 7031TIP3   OH221025   7.962   2.734   4.035
 7031TIP3    H121026   7.918   2.756   4.117
 7031TIP3    H221027   7.949   2.811   3.979
 7032TIP3   OH221028   7.872   2.576   3.470
 7032TIP3    H121029   7.786   2.542   3.493
 7032TIP3    H221030   7.895   2.531   3.389
 7033TIP3   OH221031   7.798   2.750   4.255
 7033TIP3    H121032   7.825   2.796   4.334
 7033TIP3    H221033   7.772   2.663   4.284
 7034TIP3   OH221034   7.870   2.186   2.921
 7034TIP3    H121035   7.813   2.241   2.975
 7034TIP3    H221036   7.845   2.206   2.831
 7035TIP3   OH221037   7.427   2.265   3.762
 7035TIP3    H121038   7.484   2.300   3.830
 7035TIP3    H221039   7.486   2.239   3.692
 7036TIP3   OH221040   7.351   2.239   3.299
 7036TIP3    H121041   7.396   2.275   3.223
 7036TIP3    H221042   7.288   2.307   3.324
 7037TIP3   OH221043   7.637   2.475   3.563
 7037TIP3    H121044   7.547   2.485   3.531
 7037TIP3    H221045   7.658   2.383   3.545
 7038TIP3   OH221046   7.933   2.463   3.228
 7038TIP3    H121047   8.017   2.491   3.193
 7038TIP3    H221048   7.869   2.484   3.159
 7039TIP3   OH221049   7.763   2.503   3.021
 7039TIP3    H121050   7.692   2.457   2.976
 7039TIP3    H221051   7.813   2.545   2.951
 7040TIP3   OH221052   7.813   3.318   4.398
 7040TIP3    H121053   7.890   3.345   4.448
 7040TIP3    H221054   7.744   3.309   4.464
 7041TIP3   OH221055   7.756   2.228   3.518
 7041TIP3    H121056   7.738   2.151   3.571
 7041TIP3    H221057   7.779   2.193   3.432
 7042TIP3   OH221058   8.226   2.670   4.079
 7042TIP3    H121059   8.137   2.701   4.060
 7042TIP3    H221060   8.259   2.639   3.995
 7043TIP3   OH221061   8.001   2.966   3.061
 7043TIP3    H121062   7.919   2.924   3.036
 7043TIP3    H221063   7.987   2.993   3.152
 7044TIP3   OH221064   7.671   3.060   3.717
 7044TIP3    H121065   7.697   3.050   3.625
 7044TIP3    H221066   7.744   3.025   3.767
 7045TIP3   OH221067   8.088   3.081   2.829
 7045TIP3    H121068   8.080   3.173   2.854
 7045TIP3    H221069   8.051   3.033   2.903
 7046TIP3   OH221070   7.574   2.976   4.333
 7046TIP3    H121071   7.579   2.950   4.425
 7046TIP3    H221072   7.501   2.925   4.298
 7047TIP3   OH221073   8.252   3.115   4.316
 7047TIP3    H121074   8.187   3.051   4.288
 7047TIP3    H221075   8.282   3.084   4.401
 7048TIP3   OH221076   7.792   3.387   3.377
 7048TIP3    H121077   7.792   3.460   3.315
 7048TIP3    H221078   7.708   3.344   3.363
 7049TIP3   OH221079   7.373   2.667   3.073
 7049TIP3    H121080   7.412   2.753   3.090
 7049TIP3    H221081   7.293   2.666   3.125
 7050TIP3   OH221082   7.954   3.067   3.326
 7050TIP3    H121083   7.935   3.146   3.275
 7050TIP3    H221084   7.871   3.043   3.367
 7051TIP3   OH221085   8.044   3.701   3.805
 7051TIP3    H121086   8.074   3.788   3.779
 7051TIP3    H221087   8.117   3.664   3.856
 7052TIP3   OH221088   7.724   3.603   3.201
 7052TIP3    H121089   7.640   3.601   3.245
 7052TIP3    H221090   7.747   3.696   3.198
 7053TIP3   OH221091   7.759   2.455   4.366
 7053TIP3    H121092   7.667   2.482   4.363
 7053TIP3    H221093   7.760   2.382   4.427
 7054TIP3   OH221094   7.515   3.595   3.988
 7054TIP3    H121095   7.564   3.529   4.037
 7054TIP3    H221096   7.530   3.676   4.035
 7055TIP3   OH221097   7.779   3.219   2.677
 7055TIP3    H121098   7.790   3.128   2.650
 7055TIP3    H221099   7.768   3.214   2.772
 7056TIP3   OH221100   7.733   3.234   2.949
 7056TIP3    H121101   7.794   3.227   3.022
 7056TIP3    H221102   7.706   3.326   2.949
 7057TIP3   OH221103   7.461   2.920   3.145
 7057TIP3    H121104   7.399   2.968   3.200
 7057TIP3    H221105   7.481   2.981   3.074
 7058TIP3   OH221106   8.073   3.339   2.920
 7058TIP3    H121107   8.019   3.416   2.939
 7058TIP3    H221108   8.151   3.374   2.878
 7059TIP3   OH221109   7.664   3.495   2.951
 7059TIP3    H121110   7.664   3.567   2.888
 7059TIP3    H221111   7.687   3.536   3.034
 7060TIP3   OH221112   7.846   2.198   3.223
 7060TIP3    H121113   7.868   2.290   3.237
 7060TIP3    H221114   7.920   2.163   3.175
 7061TIP3   OH221115   7.489   3.102   2.937
 7061TIP3    H121116   7.560   3.165   2.950
 7061TIP3    H221117   7.523   3.041   2.871
 7062TIP3   OH221118   7.406   2.390   3.077
 7062TIP3    H121119   7.417   2.485   3.082
 7062TIP3    H221120   7.329   2.378   3.021
 7063TIP3   OH221121   7.770   2.108   3.941
 7063TIP3    H121122   7.754   2.079   3.851
 7063TIP3    H221123   7.771   2.026   3.992
 7064TIP3   OH221124   7.324   3.362   3.332
 7064TIP3    H121125   7.279   3.398   3.409
 7064TIP3    H221126   7.281   3.404   3.257
 7065TIP3   OH221127   7.517   3.903   4.404
 7065TIP3    H121128   7.598   3.908   4.456
 7065TIP3    H221129   7.500   3.809   4.395
 7066TIP3   OH221130   7.967   3.827   4.438
 7066TIP3    H121131   8.051   3.787   4.459
 7066TIP3    H221132   7.936   3.777   4.362
 7067TIP3   OH221133   7.951   3.412   2.582
 7067TIP3    H121134   7.886   3.350   2.614
 7067TIP3    H221135   8.035   3.372   2.605
 7068TIP3   OH221136   7.623   3.291   4.597
 7068TIP3    H121137   7.643   3.197   4.603
 7068TIP3    H221138   7.537   3.294   4.554
 7069TIP3   OH221139   7.616   2.915   2.785
 7069TIP3    H121140   7.662   2.884   2.863
 7069TIP3    H221141   7.685   2.927   2.719
 7070TIP3   OH221142   8.209   3.373   4.364
 7070TIP3    H121143   8.147   3.406   4.299
 7070TIP3    H221144   8.218   3.280   4.344
 7071TIP3   OH221145   8.066   3.014   2.552
 7071TIP3    H121146   8.102   3.041   2.636
 7071TIP3    H221147   7.974   2.995   2.570
 7072TIP3   OH221148   7.753   3.035   4.589
 7072TIP3    H121149   7.813   2.966   4.562
 7072TIP3    H221150   7.785   3.062   4.676
 7073TIP3   OH221151   7.773   2.827   2.996
 7073TIP3    H121152   7.744   2.797   3.082
 7073TIP3    H221153   7.816   2.751   2.957
 7074TIP3   OH221154   8.070   2.918   4.262
 7074TIP3    H121155   7.987   2.966   4.269
 7074TIP3    H221156   8.097   2.929   4.171
 7075TIP3   OH221157   7.914   2.640   2.841
 7075TIP3    H121158   7.889   2.650   2.749
 7075TIP3    H221159   8.009   2.628   2.839
 7076TIP3   OH221160   8.200   2.740   4.427
 7076TIP3    H121161   8.152   2.661   4.405
 7076TIP3    H221162   8.168   2.806   4.365
 7077TIP3   OH221163   8.212   2.421   4.194
 7077TIP3    H121164   8.216   2.508   4.152
 7077TIP3    H221165   8.125   2.388   4.169
 7078TIP3   OH221166   8.177   2.991   4.023
 7078TIP3    H121167   8.268   3.022   4.025
 7078TIP3    H221168   8.131   3.059   3.973
 7079TIP3   OH221169   7.927   2.800   4.527
 7079TIP3    H121170   7.914   2.718   4.575
 7079TIP3    H221171   7.996   2.781   4.464
 7080TIP3   OH221172   7.904   2.557   4.663
 7080TIP3    H121173   7.906   2.468   4.630
 7080TIP3    H221174   7.950   2.552   4.747
 7081TIP3   OH221175   7.722   3.696   2.764
 7081TIP3    H121176   7.806   3.741   2.775
 7081TIP3    H221177   7.687   3.730   2.682
 7082TIP3   OH221178   7.216   3.094   2.952
 7082TIP3    H121179   7.311   3.107   2.952
 7082TIP3    H221180   7.204   3.005   2.917
 7083TIP3   OH221181   7.127   3.680   3.413
 7083TIP3    H121182   7.063   3.626   3.366
 7083TIP3    H221183   7.170   3.618   3.473
 7084TIP3   OH221184   7.266   3.512   3.584
 7084TIP3    H121185   7.257   3.442   3.648
 7084TIP3    H221186   7.314   3.581   3.630
 7085TIP3   OH221187   7.428   2.944   3.957
 7085TIP3    H121188   7.421   2.913   3.867
 7085TIP3    H221189   7.521   2.935   3.978
 7086TIP3   OH221190   7.642   2.621   4.621
 7086TIP3    H121191   7.737   2.613   4.635
 7086TIP3    H221192   7.606   2.541   4.660
 7087TIP3   OH221193   7.602   2.325   3.967
 7087TIP3    H121194   7.659   2.249   3.966
 7087TIP3    H221195   7.661   2.400   3.971
 7088TIP3   OH221196   7.438   2.605   4.030
 7088TIP3    H121197   7.470   2.596   3.941
 7088TIP3    H221198   7.473   2.689   4.060
 7089TIP3   OH221199   7.405   2.074   3.510
 7089TIP3    H121200   7.324   2.077   3.561
 7089TIP3    H221201   7.394   2.141   3.443
 7090TIP3   OH221202   7.627   2.173   4.347
 7090TIP3    H121203   7.575   2.165   4.427
 7090TIP3    H221204   7.570   2.220   4.286
 7091TIP3   OH221205   7.658   3.623   4.421
 7091TIP3    H121206   7.565   3.604   4.409
 7091TIP3    H221207   7.675   3.606   4.513
 7092TIP3   OH221208   7.835   3.656   3.969
 7092TIP3    H121209   7.779   3.726   3.936
 7092TIP3    H221210   7.915   3.662   3.918
 7093TIP3   OH221211   8.230   3.864   4.115
 7093TIP3    H121212   8.297   3.809   4.154
 7093TIP3    H221213   8.271   3.900   4.037
 7094TIP3   OH221214   0.070   4.101   4.009
 7094TIP3    H121215   0.092   4.158   3.936
 7094TIP3    H221216   0.102   4.147   4.087
 7095TIP3   OH221217   7.516   3.913   4.018
 7095TIP3    H121218   7.426   3.938   3.998
 7095TIP3    H221219   7.545   3.977   4.083
 7096TIP3   OH221220   7.726   3.875   3.851
 7096TIP3    H121221   7.645   3.888   3.899
 7096TIP3    H221222   7.709   3.910   3.764
 7097TIP3   OH221223   8.099   3.952   3.726
 7097TIP3    H121224   8.104   3.978   3.634
 7097TIP3    H221225   8.096   4.035   3.774
 7098TIP3   OH221226   8.437   3.800   3.697
 7098TIP3    H121227   8.359   3.854   3.706
 7098TIP3    H221228   8.508   3.863   3.683
 7099TIP3   OH221229   7.434   3.694   3.742
 7099TIP3    H121230   7.463   3.667   3.829
 7099TIP3    H221231   7.500   3.660   3.682
 7100TIP3   OH221232   7.620   3.575   3.590
 7100TIP3    H121233   7.634   3.491   3.634
 7100TIP3    H221234   7.707   3.615   3.586
 7101TIP3   OH221235   7.880   3.671   3.592
 7101TIP3    H121236   7.899   3.578   3.588
 7101TIP3    H221237   7.925   3.702   3.670
 7102TIP3   OH221238   7.709   2.015   3.685
 7102TIP3    H121239   7.622   1.977   3.700
 7102TIP3    H221240   7.769   1.941   3.692
 7103TIP3   OH221241   7.539   1.904   3.332
 7103TIP3    H121242   7.557   1.969   3.264
 7103TIP3    H221243   7.495   1.954   3.402
 7104TIP3   OH221244   7.211   3.485   3.114
 7104TIP3    H121245   7.126   3.451   3.086
 7104TIP3    H221246   7.213   3.575   3.083
 7105TIP3   OH221247   7.627   2.060   3.116
 7105TIP3    H121248   7.672   2.000   3.056
 7105TIP3    H221249   7.698   2.111   3.155
 7106TIP3   OH221250   8.006   3.679   2.623
 7106TIP3    H121251   8.078   3.660   2.682
 7106TIP3    H221252   7.969   3.593   2.601
 7107TIP3   OH221253   7.912   2.280   4.580
 7107TIP3    H121254   7.878   2.212   4.638
 7107TIP3    H221255   8.005   2.287   4.604
 7108TIP3   OH221256   8.152   2.275   4.715
 7108TIP3    H121257   8.246   2.280   4.699
 7108TIP3    H221258   8.144   2.210   4.785
 7109TIP3   OH221259   7.312   3.484   2.772
 7109TIP3    H121260   7.315   3.493   2.867
 7109TIP3    H221261   7.394   3.439   2.749
 7110TIP3   OH221262   0.839   3.895   4.893
 7110TIP3    H121263   0.755   3.933   4.867
 7110TIP3    H221264   0.816   3.812   4.936
 7111TIP3   OH221265   0.882   3.815   5.359
 7111TIP3    H121266   0.926   3.805   5.444
 7111TIP3    H221267   0.834   3.733   5.347
 7112TIP3   OH221268   0.191   3.739   5.665
 7112TIP3    H121269   0.207   3.667   5.725
 7112TIP3    H221270   0.269   3.795   5.674
 7113TIP3   OH221271   1.098   4.171   5.116
 7113TIP3    H121272   1.107   4.087   5.160
 7113TIP3    H221273   1.067   4.231   5.184
 7114TIP3   OH221274   0.173   4.119   5.311
 7114TIP3    H121275   0.108   4.052   5.331
 7114TIP3    H221276   0.258   4.075   5.323
 7115TIP3   OH221277   8.421   3.580   5.430
 7115TIP3    H121278   8.394   3.672   5.428
 7115TIP3    H221279   8.466   3.566   5.347
 7116TIP3   OH221280   0.797   4.579   5.065
 7116TIP3    H121281   0.863   4.515   5.038
 7116TIP3    H221282   0.782   4.562   5.158
 7117TIP3   OH221283   0.726   4.047   5.343
 7117TIP3    H121284   0.768   3.962   5.331
 7117TIP3    H221285   0.795   4.103   5.377
 7118TIP3   OH221286   1.707   3.367   5.389
 7118TIP3    H121287   1.721   3.451   5.433
 7118TIP3    H221288   1.747   3.379   5.302
 7119TIP3   OH221289   1.071   3.532   5.410
 7119TIP3    H121290   1.109   3.448   5.435
 7119TIP3    H221291   1.046   3.521   5.318
 7120TIP3   OH221292   0.325   3.123   5.436
 7120TIP3    H121293   0.294   3.211   5.458
 7120TIP3    H221294   0.350   3.129   5.344
 7121TIP3   OH221295   1.132   3.298   4.996
 7121TIP3    H121296   1.199   3.290   5.064
 7121TIP3    H221297   1.180   3.333   4.920
 7122TIP3   OH221298   0.171   3.333   5.514
 7122TIP3    H121299   0.199   3.420   5.484
 7122TIP3    H221300   0.077   3.331   5.494
 7123TIP3   OH221301   0.520   3.602   5.252
 7123TIP3    H121302   0.609   3.580   5.279
 7123TIP3    H221303   0.477   3.517   5.239
 7124TIP3   OH221304   1.757   3.584   5.557
 7124TIP3    H121305   1.674   3.631   5.545
 7124TIP3    H221306   1.798   3.628   5.631
 7125TIP3   OH221307   0.423   3.237   5.752
 7125TIP3    H121308   0.427   3.320   5.705
 7125TIP3    H221309   0.393   3.261   5.840
 7126TIP3   OH221310   0.581   3.951   5.557
 7126TIP3    H121311   0.535   4.014   5.613
 7126TIP3    H221312   0.626   4.006   5.492
 7127TIP3   OH221313   1.305   3.318   5.205
 7127TIP3    H121314   1.258   3.297   5.286
 7127TIP3    H221315   1.359   3.394   5.228
 7128TIP3   OH221316   0.426   4.139   5.699
 7128TIP3    H121317   0.406   4.187   5.618
 7128TIP3    H221318   0.343   4.099   5.724
 7129TIP3   OH221319   1.511   3.246   5.552
 7129TIP3    H121320   1.425   3.282   5.529
 7129TIP3    H221321   1.569   3.279   5.484
 7130TIP3   OH221322   0.758   2.895   5.544
 7130TIP3    H121323   0.751   2.803   5.569
 7130TIP3    H221324   0.682   2.937   5.585
 7131TIP3   OH221325   0.953   4.393   4.903
 7131TIP3    H121326   0.861   4.380   4.878
 7131TIP3    H221327   0.984   4.464   4.847
 7132TIP3   OH221328   1.013   4.098   4.818
 7132TIP3    H121329   1.036   4.078   4.728
 7132TIP3    H221330   0.953   4.028   4.843
 7133TIP3   OH221331   1.387   4.300   5.501
 7133TIP3    H121332   1.377   4.220   5.449
 7133TIP3    H221333   1.362   4.371   5.441
 7134TIP3   OH221334   0.683   3.666   4.790
 7134TIP3    H121335   0.624   3.741   4.800
 7134TIP3    H221336   0.720   3.676   4.703
 7135TIP3   OH221337   0.669   3.475   4.485
 7135TIP3    H121338   0.734   3.523   4.536
 7135TIP3    H221339   0.719   3.409   4.437
 7136TIP3   OH221340   1.587   3.926   5.399
 7136TIP3    H121341   1.509   3.981   5.398
 7136TIP3    H221342   1.632   3.946   5.317
 7137TIP3   OH221343   1.045   3.781   4.738
 7137TIP3    H121344   0.986   3.812   4.806
 7137TIP3    H221345   1.122   3.750   4.785
 7138TIP3   OH221346   1.287   3.793   5.688
 7138TIP3    H121347   1.289   3.874   5.738
 7138TIP3    H221348   1.201   3.793   5.646
 7139TIP3   OH221349   0.285   3.737   5.194
 7139TIP3    H121350   0.254   3.713   5.107
 7139TIP3    H221351   0.375   3.705   5.197
 7140TIP3   OH221352   0.452   4.063   5.290
 7140TIP3    H121353   0.432   3.997   5.224
 7140TIP3    H221354   0.547   4.058   5.301
 7141TIP3   OH221355   0.448   3.716   5.496
 7141TIP3    H121356   0.487   3.702   5.410
 7141TIP3    H221357   0.486   3.798   5.527
 7142TIP3   OH221358   0.986   4.343   5.289
 7142TIP3    H121359   0.975   4.434   5.318
 7142TIP3    H221360   0.968   4.291   5.367
 7143TIP3   OH221361   0.589   4.284   5.863
 7143TIP3    H121362   0.545   4.369   5.856
 7143TIP3    H221363   0.533   4.224   5.814
 7144TIP3   OH221364   0.887   3.619   4.583
 7144TIP3    H121365   0.942   3.681   4.630
 7144TIP3    H221366   0.913   3.627   4.491
 7145TIP3   OH221367   0.267   3.822   6.024
 7145TIP3    H121368   0.332   3.891   6.034
 7145TIP3    H221369   0.191   3.865   5.985
 7146TIP3   OH221370   0.701   4.344   4.826
 7146TIP3    H121371   0.631   4.393   4.869
 7146TIP3    H221372   0.658   4.263   4.796
 7147TIP3   OH221373   0.302   4.572   5.959
 7147TIP3    H121374   0.346   4.544   5.880
 7147TIP3    H221375   0.261   4.493   5.994
 7148TIP3   OH221376   1.393   2.855   4.639
 7148TIP3    H121377   1.317   2.877   4.694
 7148TIP3    H221378   1.406   2.932   4.584
 7149TIP3   OH221379   0.186   3.631   4.956
 7149TIP3    H121380   0.106   3.684   4.948
 7149TIP3    H221381   0.155   3.541   4.957
 7150TIP3   OH221382   1.218   4.230   4.191
 7150TIP3    H121383   1.217   4.322   4.165
 7150TIP3    H221384   1.307   4.200   4.170
 7151TIP3   OH221385   1.629   4.622   5.583
 7151TIP3    H121386   1.632   4.527   5.594
 7151TIP3    H221387   1.553   4.650   5.634
 7152TIP3   OH221388   0.770   4.415   5.699
 7152TIP3    H121389   0.770   4.505   5.731
 7152TIP3    H221390   0.711   4.368   5.757
 7153TIP3   OH221391   0.496   4.509   4.638
 7153TIP3    H121392   0.453   4.518   4.553
 7153TIP3    H221393   0.493   4.596   4.676
 7154TIP3   OH221394   0.735   4.456   4.296
 7154TIP3    H121395   0.784   4.381   4.261
 7154TIP3    H221396   0.761   4.462   4.387
 7155TIP3   OH221397   0.760   4.478   4.572
 7155TIP3    H121398   0.667   4.487   4.593
 7155TIP3    H221399   0.798   4.433   4.648
 7156TIP3   OH221400   1.525   3.752   5.871
 7156TIP3    H121401   1.444   3.770   5.825
 7156TIP3    H221402   1.540   3.658   5.859
 7157TIP3   OH221403   0.518   2.983   5.668
 7157TIP3    H121404   0.438   2.938   5.641
 7157TIP3    H221405   0.490   3.073   5.685
 7158TIP3   OH221406   1.062   3.100   5.873
 7158TIP3    H121407   1.130   3.081   5.938
 7158TIP3    H221408   0.980   3.089   5.920
 7159TIP3   OH221409   1.278   3.526   5.767
 7159TIP3    H121410   1.238   3.527   5.855
 7159TIP3    H221411   1.267   3.616   5.735
 7160TIP3   OH221412   0.965   3.626   4.324
 7160TIP3    H121413   0.919   3.621   4.240
 7160TIP3    H221414   1.048   3.669   4.302
 7161TIP3   OH221415   0.675   3.024   4.635
 7161TIP3    H121416   0.640   3.031   4.724
 7161TIP3    H221417   0.637   2.943   4.601
 7162TIP3   OH221418   0.477   3.499   5.665
 7162TIP3    H121419   0.429   3.534   5.740
 7162TIP3    H221420   0.469   3.568   5.599
 7163TIP3   OH221421   0.378   3.361   5.212
 7163TIP3    H121422   0.287   3.358   5.241
 7163TIP3    H221423   0.375   3.328   5.122
 7164TIP3   OH221424   0.826   3.480   4.928
 7164TIP3    H121425   0.770   3.544   4.884
 7164TIP3    H221426   0.881   3.443   4.858
 7165TIP3   OH221427   0.994   3.487   5.150
 7165TIP3    H121428   0.923   3.503   5.089
 7165TIP3    H221429   1.041   3.412   5.112
 7166TIP3   OH221430   0.314   3.564   5.876
 7166TIP3    H121431   0.323   3.649   5.920
 7166TIP3    H221432   0.326   3.500   5.946
 7167TIP3   OH221433   0.351   3.012   4.616
 7167TIP3    H121434   0.340   3.021   4.711
 7167TIP3    H221435   0.278   3.061   4.579
 7168TIP3   OH221436   8.501   3.041   5.483
 7168TIP3    H121437   8.459   3.126   5.473
 7168TIP3    H221438   8.431   2.977   5.467
 7169TIP3   OH221439   8.371   3.178   5.081
 7169TIP3    H121440   8.405   3.165   4.992
 7169TIP3    H221441   8.283   3.213   5.068
 7170TIP3   OH221442   1.032   3.740   5.584
 7170TIP3    H121443   1.048   3.662   5.530
 7170TIP3    H221444   0.993   3.706   5.664
 7171TIP3   OH221445   0.714   3.206   5.242
 7171TIP3    H121446   0.647   3.241   5.301
 7171TIP3    H221447   0.788   3.186   5.299
 7172TIP3   OH221448   0.116   3.234   5.206
 7172TIP3    H121449   0.043   3.223   5.144
 7172TIP3    H221450   0.171   3.157   5.194
 7173TIP3   OH221451   0.361   3.268   4.950
 7173TIP3    H121452   0.454   3.290   4.939
 7173TIP3    H221453   0.321   3.293   4.867
 7174TIP3   OH221454   1.155   3.268   5.428
 7174TIP3    H121455   1.155   3.272   5.524
 7174TIP3    H221456   1.082   3.211   5.406
 7175TIP3   OH221457   0.248   3.296   4.701
 7175TIP3    H121458   0.192   3.254   4.636
 7175TIP3    H221459   0.304   3.355   4.649
 7176TIP3   OH221460   1.352   4.982   5.682
 7176TIP3    H121461   1.347   4.997   5.587
 7176TIP3    H221462   1.432   5.028   5.708
 7177TIP3   OH221463   0.325   4.102   6.051
 7177TIP3    H121464   0.412   4.097   6.090
 7177TIP3    H221465   0.264   4.093   6.124
 7178TIP3   OH221466   0.768   3.547   5.365
 7178TIP3    H121467   0.843   3.503   5.325
 7178TIP3    H221468   0.770   3.521   5.457
 7179TIP3   OH221469   0.267   3.006   5.180
 7179TIP3    H121470   0.248   2.927   5.230
 7179TIP3    H221471   0.289   2.974   5.092
 7180TIP3   OH221472   0.758   3.476   5.644
 7180TIP3    H121473   0.666   3.503   5.652
 7180TIP3    H221474   0.806   3.543   5.693
 7181TIP3   OH221475   1.354   4.073   5.338
 7181TIP3    H121476   1.373   4.092   5.247
 7181TIP3    H221477   1.274   4.020   5.335
 7182TIP3   OH221478   0.925   3.130   4.636
 7182TIP3    H121479   0.832   3.108   4.633
 7182TIP3    H221480   0.927   3.225   4.651
 7183TIP3   OH221481   0.902   4.138   5.742
 7183TIP3    H121482   0.899   4.061   5.799
 7183TIP3    H221483   0.850   4.204   5.789
 7184TIP3   OH221484   0.984   3.392   4.712
 7184TIP3    H121485   1.079   3.396   4.720
 7184TIP3    H221486   0.961   3.468   4.658
 7185TIP3   OH221487   0.129   3.853   5.397
 7185TIP3    H121488   0.185   3.816   5.329
 7185TIP3    H221489   0.156   3.807   5.477
 7186TIP3   OH221490   1.034   4.443   5.625
 7186TIP3    H121491   0.942   4.417   5.632
 7186TIP3    H221492   1.057   4.471   5.713
 7187TIP3   OH221493   1.395   3.485   4.527
 7187TIP3    H121494   1.342   3.435   4.465
 7187TIP3    H221495   1.399   3.573   4.491
 7188TIP3   OH221496   1.643   4.336   5.593
 7188TIP3    H121497   1.548   4.331   5.583
 7188TIP3    H221498   1.678   4.309   5.508
 7189TIP3   OH221499   1.133   4.279   4.451
 7189TIP3    H121500   1.104   4.195   4.487
 7189TIP3    H221501   1.161   4.258   4.362
 7190TIP3   OH221502   1.121   3.928   5.251
 7190TIP3    H121503   1.037   3.900   5.285
 7190TIP3    H221504   1.160   3.849   5.213
 7191TIP3   OH221505   0.277   4.028   5.017
 7191TIP3    H121506   0.347   3.994   4.961
 7191TIP3    H221507   0.249   4.108   4.973
 7192TIP3   OH221508   8.292   3.491   4.788
 7192TIP3    H121509   8.319   3.578   4.816
 7192TIP3    H221510   8.196   3.496   4.783
 7193TIP3   OH221511   0.596   4.489   5.496
 7193TIP3    H121512   0.636   4.567   5.456
 7193TIP3    H221513   0.666   4.451   5.550
 7194TIP3   OH221514   0.187   4.429   4.834
 7194TIP3    H121515   0.136   4.377   4.896
 7194TIP3    H221516   0.209   4.509   4.882
 7195TIP3   OH221517   0.950   4.142   5.476
 7195TIP3    H121518   0.922   4.146   5.568
 7195TIP3    H221519   1.029   4.089   5.477
 7196TIP3   OH221520   0.896   4.028   4.347
 7196TIP3    H121521   0.940   4.011   4.431
 7196TIP3    H221522   0.809   3.990   4.357
 7197TIP3   OH221523   1.160   4.674   5.534
 7197TIP3    H121524   1.101   4.600   5.544
 7197TIP3    H221525   1.129   4.719   5.455
 7198TIP3   OH221526   1.227   4.499   4.145
 7198TIP3    H121527   1.250   4.563   4.077
 7198TIP3    H221528   1.156   4.541   4.193
 7199TIP3   OH221529   0.335   3.278   6.013
 7199TIP3    H121530   0.241   3.263   6.025
 7199TIP3    H221531   0.377   3.215   6.072
 7200TIP3   OH221532   1.079   3.994   4.565
 7200TIP3    H121533   1.059   3.913   4.612
 7200TIP3    H221534   1.173   3.988   4.546
 7201TIP3   OH221535   0.331   3.972   4.351
 7201TIP3    H121536   0.326   3.884   4.313
 7201TIP3    H221537   0.281   3.966   4.432
 7202TIP3   OH221538   0.271   4.006   4.629
 7202TIP3    H121539   0.335   3.951   4.673
 7202TIP3    H221540   0.323   4.075   4.587
 7203TIP3   OH221541   8.392   3.730   4.878
 7203TIP3    H121542   8.427   3.797   4.937
 7203TIP3    H221543   8.408   3.763   4.790
 7204TIP3   OH221544   1.144   3.293   5.692
 7204TIP3    H121545   1.179   3.371   5.734
 7204TIP3    H221546   1.111   3.239   5.765
 7205TIP3   OH221547   0.982   3.082   4.906
 7205TIP3    H121548   0.962   3.100   4.814
 7205TIP3    H221549   1.026   3.161   4.937
 7206TIP3   OH221550   0.434   4.217   4.540
 7206TIP3    H121551   0.438   4.251   4.630
 7206TIP3    H221552   0.456   4.291   4.485
 7207TIP3   OH221553   0.640   3.284   4.987
 7207TIP3    H121554   0.700   3.355   4.964
 7207TIP3    H221555   0.659   3.265   5.079
 7208TIP3   OH221556   0.948   3.631   5.829
 7208TIP3    H121557   0.919   3.711   5.872
 7208TIP3    H221558   0.993   3.582   5.897
 7209TIP3   OH221559   0.797   2.982   5.087
 7209TIP3    H121560   0.775   3.061   5.137
 7209TIP3    H221561   0.867   3.010   5.028
 7210TIP3   OH221562   0.138   4.285   4.608
 7210TIP3    H121563   0.171   4.345   4.541
 7210TIP3    H221564   0.152   4.331   4.691
 7211TIP3   OH221565   0.324   2.999   4.898
 7211TIP3    H121566   0.310   3.090   4.923
 7211TIP3    H221567   0.419   2.988   4.898
 7212TIP3   OH221568   1.548   3.490   5.773
 7212TIP3    H121569   1.453   3.484   5.772
 7212TIP3    H221570   1.574   3.476   5.682
 7213TIP3   OH221571   1.211   3.678   5.153
 7213TIP3    H121572   1.138   3.617   5.163
 7213TIP3    H221573   1.282   3.639   5.204
 7214TIP3   OH221574   0.002   4.015   4.717
 7214TIP3    H121575   0.092   4.007   4.687
 7214TIP3    H221576  -0.042   4.068   4.650
 7215TIP3   OH221577   8.479   3.167   4.825
 7215TIP3    H121578   8.522   3.244   4.861
 7215TIP3    H221579   8.477   3.183   4.731
 7216TIP3   OH221580   1.200   4.652   5.104
 7216TIP3    H121581   1.149   4.689   5.033
 7216TIP3    H221582   1.291   4.676   5.085
 7217TIP3   OH221583   0.542   4.672   6.060
 7217TIP3    H121584   0.611   4.607   6.072
 7217TIP3    H221585   0.471   4.624   6.017
 7218TIP3   OH221586   0.426   4.203   4.237
 7218TIP3    H121587   0.386   4.134   4.290
 7218TIP3    H221588   0.504   4.162   4.200
 7219TIP3   OH221589   1.080   4.531   5.882
 7219TIP3    H121590   1.085   4.459   5.945
 7219TIP3    H221591   1.155   4.586   5.902
 7220TIP3   OH221592   0.855   4.241   4.176
 7220TIP3    H121593   0.889   4.174   4.236
 7220TIP3    H221594   0.913   4.236   4.100
 7221TIP3   OH221595   0.138   3.777   4.474
 7221TIP3    H121596   0.190   3.758   4.552
 7221TIP3    H221597   0.188   3.738   4.402
 7222TIP3   OH221598   0.768   4.195   6.050
 7222TIP3    H121599   0.704   4.212   5.980
 7222TIP3    H221600   0.797   4.105   6.034
 7223TIP3   OH221601   0.634   3.927   4.334
 7223TIP3    H121602   0.554   3.947   4.382
 7223TIP3    H221603   0.629   3.834   4.314
 7224TIP3   OH221604   1.195   4.173   5.666
 7224TIP3    H121605   1.250   4.237   5.620
 7224TIP3    H221606   1.111   4.217   5.677
 7225TIP3   OH221607   0.322   3.765   6.295
 7225TIP3    H121608   0.276   3.778   6.212
 7225TIP3    H221609   0.296   3.840   6.349
 7226TIP3   OH221610   0.291   3.683   4.681
 7226TIP3    H121611   0.317   3.690   4.772
 7226TIP3    H221612   0.344   3.611   4.646
 7227TIP3   OH221613   0.581   3.708   5.947
 7227TIP3    H121614   0.600   3.779   6.008
 7227TIP3    H221615   0.643   3.721   5.875
 7228TIP3   OH221616   0.400   3.463   4.544
 7228TIP3    H121617   0.370   3.461   4.453
 7228TIP3    H221618   0.495   3.462   4.538
 7229TIP3   OH221619   1.187   3.748   4.211
 7229TIP3    H121620   1.174   3.703   4.127
 7229TIP3    H221621   1.161   3.839   4.194
 7230TIP3   OH221622   0.675   3.472   6.049
 7230TIP3    H121623   0.680   3.401   5.985
 7230TIP3    H221624   0.641   3.547   6.000
 7231TIP3   OH221625   0.689   3.280   5.838
 7231TIP3    H121626   0.732   3.332   5.770
 7231TIP3    H221627   0.603   3.259   5.801
 7232TIP3   OH221628   0.707   3.763   5.708
 7232TIP3    H121629   0.763   3.817   5.763
 7232TIP3    H221630   0.661   3.825   5.651
 7233TIP3   OH221631   1.318   3.773   6.163
 7233TIP3    H121632   1.332   3.697   6.107
 7233TIP3    H221633   1.352   3.847   6.113
 7234TIP3   OH221634   1.338   4.021   5.838
 7234TIP3    H121635   1.276   4.075   5.790
 7234TIP3    H221636   1.424   4.047   5.804
 7235TIP3   OH221637   0.581   3.575   6.294
 7235TIP3    H121638   0.525   3.497   6.306
 7235TIP3    H221639   0.610   3.569   6.203
 7236TIP3   OH221640   0.801   3.054   5.955
 7236TIP3    H121641   0.762   3.133   5.917
 7236TIP3    H221642   0.739   2.984   5.935
 7237TIP3   OH221643   0.935   3.501   6.146
 7237TIP3    H121644   0.926   3.514   6.240
 7237TIP3    H221645   0.846   3.492   6.114
 7238TIP3   OH221646   1.174   3.509   6.014
 7238TIP3    H121647   1.095   3.504   6.069
 7238TIP3    H221648   1.244   3.479   6.072
 7239TIP3   OH221649   1.406   3.447   6.165
 7239TIP3    H121650   1.415   3.352   6.175
 7239TIP3    H221651   1.396   3.480   6.255
 7240TIP3   OH221652   0.438   3.342   6.340
 7240TIP3    H121653   0.431   3.259   6.291
 7240TIP3    H221654   0.465   3.316   6.428
 7241TIP3   OH221655   0.867   3.020   6.217
 7241TIP3    H121656   0.938   2.958   6.205
 7241TIP3    H221657   0.834   3.037   6.129
 7242TIP3   OH221658   0.958   3.241   6.357
 7242TIP3    H121659   0.924   3.174   6.297
 7242TIP3    H221660   0.890   3.308   6.358
 7243TIP3   OH221661   0.203   4.468   4.422
 7243TIP3    H121662   0.294   4.472   4.395
 7243TIP3    H221663   0.158   4.529   4.363
 7244TIP3   OH221664   1.453   4.744   5.077
 7244TIP3    H121665   1.490   4.756   5.165
 7244TIP3    H221666   1.527   4.758   5.018
 7245TIP3   OH221667   1.480   4.738   5.365
 7245TIP3    H121668   1.430   4.658   5.351
 7245TIP3    H221669   1.550   4.712   5.425
 7246TIP3   OH221670   1.530   4.434   5.935
 7246TIP3    H121671   1.459   4.441   5.999
 7246TIP3    H221672   1.575   4.519   5.940
 7247TIP3   OH221673   1.351   3.955   4.547
 7247TIP3    H121674   1.411   4.021   4.513
 7247TIP3    H221675   1.398   3.916   4.621
 7248TIP3   OH221676   1.478   3.822   4.755
 7248TIP3    H121677   1.414   3.778   4.812
 7248TIP3    H221678   1.546   3.851   4.815
 7249TIP3   OH221679   1.306   4.518   5.344
 7249TIP3    H121680   1.250   4.555   5.412
 7249TIP3    H221681   1.259   4.535   5.262
 7250TIP3   OH221682   1.387   3.725   4.396
 7250TIP3    H121683   1.318   3.727   4.330
 7250TIP3    H221684   1.373   3.805   4.448
 7251TIP3   OH221685   1.243   3.373   4.328
 7251TIP3    H121686   1.196   3.407   4.252
 7251TIP3    H221687   1.237   3.278   4.320
 7252TIP3   OH221688   1.262   3.674   4.879
 7252TIP3    H121689   1.275   3.581   4.861
 7252TIP3    H221690   1.252   3.678   4.975
 7253TIP3   OH221691   1.585   4.094   5.740
 7253TIP3    H121692   1.644   4.021   5.721
 7253TIP3    H221693   1.610   4.162   5.678
 7254TIP3   OH221694   1.736   3.866   5.738
 7254TIP3    H121695   1.664   3.829   5.789
 7254TIP3    H221696   1.811   3.810   5.758
 7255TIP3   OH221697   1.206   3.102   4.299
 7255TIP3    H121698   1.272   3.078   4.364
 7255TIP3    H221699   1.125   3.062   4.331
 7256TIP3   OH221700   1.272   3.395   4.767
 7256TIP3    H121701   1.317   3.312   4.783
 7256TIP3    H221702   1.315   3.431   4.689
 7257TIP3   OH221703   1.425   3.558   5.290
 7257TIP3    H121704   1.507   3.577   5.245
 7257TIP3    H221705   1.437   3.593   5.378
 7258TIP3   OH221706   1.501   3.697   5.524
 7258TIP3    H121707   1.428   3.728   5.579
 7258TIP3    H221708   1.533   3.777   5.481
 7259TIP3   OH221709   0.033   3.409   6.379
 7259TIP3    H121710   0.127   3.401   6.390
 7259TIP3    H221711   0.016   3.503   6.386
 7260TIP3   OH221712   1.963   3.300   6.064
 7260TIP3    H121713   2.025   3.243   6.018
 7260TIP3    H221714   1.923   3.354   5.995
 7261TIP3   OH221715   1.382   3.147   4.827
 7261TIP3    H121716   1.434   3.132   4.906
 7261TIP3    H221717   1.324   3.072   4.822
 7262TIP3   OH221718   1.812   3.427   5.878
 7262TIP3    H121719   1.741   3.470   5.925
 7262TIP3    H221720   1.768   3.366   5.818
 7263TIP3   OH221721   1.430   3.058   4.456
 7263TIP3    H121722   1.479   2.996   4.401
 7263TIP3    H221723   1.489   3.133   4.466
 7264TIP3   OH221724   8.462   2.836   5.221
 7264TIP3    H121725   8.390   2.778   5.245
 7264TIP3    H221726   8.431   2.881   5.142
 7265TIP3   OH221727   1.035   4.583   4.733
 7265TIP3    H121728   1.082   4.584   4.650
 7265TIP3    H221729   1.057   4.666   4.775
 7266TIP3   OH221730   8.460   2.984   6.124
 7266TIP3    H121731   8.443   2.983   6.219
 7266TIP3    H221732   8.404   3.054   6.090
 7267TIP3   OH221733   0.265   4.410   5.695
 7267TIP3    H121734   0.256   4.493   5.650
 7267TIP3    H221735   0.298   4.349   5.628
 7268TIP3   OH221736   0.784   4.682   5.774
 7268TIP3    H121737   0.812   4.680   5.866
 7268TIP3    H221738   0.852   4.733   5.730
 7269TIP3   OH221739   0.969   4.845   5.655
 7269TIP3    H121740   1.042   4.792   5.622
 7269TIP3    H221741   1.009   4.906   5.716
 7270TIP3   OH221742   1.711   3.190   5.752
 7270TIP3    H121743   1.633   3.202   5.698
 7270TIP3    H221744   1.734   3.098   5.740
 7271TIP3   OH221745   0.285   4.585   5.485
 7271TIP3    H121746   0.212   4.644   5.468
 7271TIP3    H221747   0.306   4.547   5.399
 7272TIP3   OH221748   0.693   4.706   5.345
 7272TIP3    H121749   0.639   4.731   5.271
 7272TIP3    H221750   0.698   4.785   5.399
 7273TIP3   OH221751   0.942   4.607   5.347
 7273TIP3    H121752   0.852   4.636   5.358
 7273TIP3    H221753   0.989   4.684   5.315
 7274TIP3   OH221754   1.111   4.822   5.297
 7274TIP3    H121755   1.100   4.909   5.259
 7274TIP3    H221756   1.147   4.769   5.226
 7275TIP3   OH221757   0.092   4.413   5.236
 7275TIP3    H121758   0.018   4.352   5.227
 7275TIP3    H221759   0.165   4.367   5.195
 7276TIP3   OH221760   0.436   4.502   5.270
 7276TIP3    H121761   0.405   4.418   5.236
 7276TIP3    H221762   0.487   4.479   5.348
 7277TIP3   OH221763   0.926   3.097   5.380
 7277TIP3    H121764   0.890   3.027   5.435
 7277TIP3    H221765   0.995   3.054   5.329
 7278TIP3   OH221766   1.439   3.005   5.263
 7278TIP3    H121767   1.481   3.055   5.194
 7278TIP3    H221768   1.353   3.045   5.273
 7279TIP3   OH221769   1.559   3.094   5.033
 7279TIP3    H121770   1.627   3.033   5.005
 7279TIP3    H221771   1.600   3.180   5.023
 7280TIP3   OH221772   0.196   2.832   5.416
 7280TIP3    H121773   0.109   2.802   5.390
 7280TIP3    H221774   0.250   2.753   5.418
 7281TIP3   OH221775   0.060   2.656   5.034
 7281TIP3    H121776   0.076   2.713   4.958
 7281TIP3    H221777   0.040   2.717   5.105
 7282TIP3   OH221778   0.652   2.836   5.283
 7282TIP3    H121779   0.697   2.887   5.215
 7282TIP3    H221780   0.691   2.867   5.365
 7283TIP3   OH221781   1.141   2.984   5.250
 7283TIP3    H121782   1.165   2.951   5.164
 7283TIP3    H221783   1.147   2.909   5.308
 7284TIP3   OH221784   1.203   2.931   4.826
 7284TIP3    H121785   1.123   2.978   4.848
 7284TIP3    H221786   1.190   2.843   4.863
 7285TIP3   OH221787   0.135   2.814   4.814
 7285TIP3    H121788   0.182   2.753   4.756
 7285TIP3    H221789   0.202   2.876   4.842
 7286TIP3   OH221790   0.595   3.030   4.898
 7286TIP3    H121791   0.654   2.982   4.957
 7286TIP3    H221792   0.606   3.122   4.922
 7287TIP3   OH221793   0.467   4.440   4.362
 7287TIP3    H121794   0.556   4.466   4.337
 7287TIP3    H221795   0.448   4.365   4.306
 7288TIP3   OH221796   1.176   4.551   4.493
 7288TIP3    H121797   1.164   4.457   4.484
 7288TIP3    H221798   1.135   4.588   4.414
 7289TIP3   OH221799   0.441   3.078   6.239
 7289TIP3    H121800   0.379   3.039   6.300
 7289TIP3    H221801   0.525   3.076   6.285
 7290TIP3   OH221802   0.665   3.075   6.400
 7290TIP3    H121803   0.740   3.055   6.345
 7290TIP3    H221804   0.656   2.999   6.458
 7291TIP3   OH221805   1.467   3.174   6.182
 7291TIP3    H121806   1.485   3.147   6.272
 7291TIP3    H221807   1.552   3.171   6.138
 7292TIP3   OH221808   1.388   4.708   5.692
 7292TIP3    H121809   1.312   4.681   5.640
 7292TIP3    H221810   1.381   4.803   5.698
 7293TIP3   OH221811   1.979   3.987   5.194
 7293TIP3    H121812   1.994   3.914   5.254
 7293TIP3    H221813   2.066   4.019   5.172
 7294TIP3   OH221814   1.955   4.357   4.867
 7294TIP3    H121815   1.948   4.263   4.885
 7294TIP3    H221816   2.049   4.375   4.869
 7295TIP3   OH221817   1.624   3.599   4.652
 7295TIP3    H121818   1.588   3.684   4.679
 7295TIP3    H221819   1.549   3.552   4.616
 7296TIP3   OH221820   1.710   3.898   4.904
 7296TIP3    H121821   1.750   3.814   4.924
 7296TIP3    H221822   1.782   3.952   4.872
 7297TIP3   OH221823   2.568   4.841   4.527
 7297TIP3    H121824   2.600   4.760   4.486
 7297TIP3    H221825   2.548   4.817   4.617
 7298TIP3   OH221826   3.500   3.619   4.880
 7298TIP3    H121827   3.516   3.703   4.923
 7298TIP3    H221828   3.531   3.631   4.791
 7299TIP3   OH221829   2.860   3.827   4.898
 7299TIP3    H121830   2.890   3.738   4.879
 7299TIP3    H221831   2.833   3.862   4.813
 7300TIP3   OH221832   2.159   3.472   4.858
 7300TIP3    H121833   2.156   3.563   4.828
 7300TIP3    H221834   2.115   3.422   4.789
 7301TIP3   OH221835   2.922   3.524   4.466
 7301TIP3    H121836   2.954   3.551   4.552
 7301TIP3    H221837   2.972   3.577   4.404
 7302TIP3   OH221838   1.829   3.661   4.977
 7302TIP3    H121839   1.922   3.667   4.998
 7302TIP3    H221840   1.825   3.593   4.909
 7303TIP3   OH221841   3.557   3.841   5.046
 7303TIP3    H121842   3.475   3.888   5.036
 7303TIP3    H221843   3.598   3.881   5.123
 7304TIP3   OH221844   2.211   3.475   5.294
 7304TIP3    H121845   2.169   3.524   5.224
 7304TIP3    H221846   2.153   3.485   5.369
 7305TIP3   OH221847   2.571   4.329   4.313
 7305TIP3    H121848   2.517   4.251   4.309
 7305TIP3    H221849   2.509   4.401   4.325
 7306TIP3   OH221850   2.329   4.270   5.158
 7306TIP3    H121851   2.246   4.316   5.166
 7306TIP3    H221852   2.380   4.322   5.096
 7307TIP3   OH221853   2.087   3.601   5.083
 7307TIP3    H121854   2.113   3.687   5.052
 7307TIP3    H221855   2.114   3.541   5.014
 7308TIP3   OH221856   2.129   4.450   5.191
 7308TIP3    H121857   2.121   4.539   5.157
 7308TIP3    H221858   2.049   4.436   5.242
 7309TIP3   OH221859   1.517   4.141   4.426
 7309TIP3    H121860   1.490   4.157   4.336
 7309TIP3    H221861   1.544   4.227   4.458
 7310TIP3   OH221862   2.957   4.664   4.700
 7310TIP3    H121863   2.875   4.637   4.740
 7310TIP3    H221864   2.938   4.750   4.661
 7311TIP3   OH221865   3.283   3.504   5.026
 7311TIP3    H121866   3.200   3.538   4.994
 7311TIP3    H221867   3.349   3.539   4.965
 7312TIP3   OH221868   2.554   3.159   5.040
 7312TIP3    H121869   2.536   3.066   5.055
 7312TIP3    H221870   2.478   3.205   5.075
 7313TIP3   OH221871   2.677   4.662   4.318
 7313TIP3    H121872   2.730   4.586   4.294
 7313TIP3    H221873   2.731   4.737   4.295
 7314TIP3   OH221874   2.818   4.408   4.238
 7314TIP3    H121875   2.730   4.378   4.260
 7314TIP3    H221876   2.867   4.404   4.320
 7315TIP3   OH221877   3.209   4.501   5.012
 7315TIP3    H121878   3.123   4.470   5.040
 7315TIP3    H221879   3.191   4.576   4.957
 7316TIP3   OH221880   2.499   3.929   4.249
 7316TIP3    H121881   2.419   3.980   4.242
 7316TIP3    H221882   2.552   3.957   4.175
 7317TIP3   OH221883   2.455   3.738   3.974
 7317TIP3    H121884   2.502   3.765   4.053
 7317TIP3    H221885   2.514   3.677   3.930
 7318TIP3   OH221886   3.303   4.203   4.883
 7318TIP3    H121887   3.273   4.290   4.909
 7318TIP3    H221888   3.240   4.174   4.817
 7319TIP3   OH221889   3.090   4.055   5.200
 7319TIP3    H121890   3.083   4.142   5.237
 7319TIP3    H221891   3.005   4.039   5.159
 7320TIP3   OH221892   2.215   4.445   4.794
 7320TIP3    H121893   2.208   4.408   4.706
 7320TIP3    H221894   2.306   4.430   4.819
 7321TIP3   OH221895   2.346   4.541   5.351
 7321TIP3    H121896   2.283   4.600   5.392
 7321TIP3    H221897   2.294   4.486   5.293
 7322TIP3   OH221898   2.719   3.913   4.061
 7322TIP3    H121899   2.761   3.998   4.070
 7322TIP3    H221900   2.724   3.894   3.967
 7323TIP3   OH221901   2.108   4.105   5.483
 7323TIP3    H121902   2.104   4.199   5.498
 7323TIP3    H221903   2.017   4.078   5.473
 7324TIP3   OH221904   2.421   4.562   4.336
 7324TIP3    H121905   2.504   4.609   4.336
 7324TIP3    H221906   2.362   4.618   4.284
 7325TIP3   OH221907   2.133   4.703   5.424
 7325TIP3    H121908   2.114   4.714   5.331
 7325TIP3    H221909   2.047   4.688   5.465
 7326TIP3   OH221910   3.190   3.112   4.124
 7326TIP3    H121911   3.115   3.133   4.179
 7326TIP3    H221912   3.202   3.189   4.069
 7327TIP3   OH221913   1.951   3.834   4.402
 7327TIP3    H121914   1.863   3.872   4.399
 7327TIP3    H221915   1.960   3.803   4.493
 7328TIP3   OH221916   3.011   4.486   3.686
 7328TIP3    H121917   3.008   4.579   3.664
 7328TIP3    H221918   3.099   4.458   3.663
 7329TIP3   OH221919   1.739   4.222   5.359
 7329TIP3    H121920   1.716   4.177   5.278
 7329TIP3    H221921   1.778   4.155   5.414
 7330TIP3   OH221922   3.434   4.903   5.076
 7330TIP3    H121923   3.438   4.807   5.080
 7330TIP3    H221924   3.352   4.925   5.121
 7331TIP3   OH221925   2.510   4.710   5.196
 7331TIP3    H121926   2.504   4.794   5.242
 7331TIP3    H221927   2.470   4.647   5.255
 7332TIP3   OH221928   2.314   4.783   4.154
 7332TIP3    H121929   2.263   4.762   4.077
 7332TIP3    H221930   2.278   4.866   4.185
 7333TIP3   OH221931   1.749   4.634   4.536
 7333TIP3    H121932   1.793   4.624   4.620
 7333TIP3    H221933   1.703   4.551   4.524
 7334TIP3   OH221934   2.514   4.707   3.782
 7334TIP3    H121935   2.565   4.633   3.749
 7334TIP3    H221936   2.548   4.721   3.871
 7335TIP3   OH221937   2.567   4.755   4.052
 7335TIP3    H121938   2.481   4.758   4.092
 7335TIP3    H221939   2.625   4.723   4.122
 7336TIP3   OH221940   3.316   4.012   5.362
 7336TIP3    H121941   3.238   4.027   5.308
 7336TIP3    H221942   3.334   3.919   5.352
 7337TIP3   OH221943   1.909   4.441   5.355
 7337TIP3    H121944   1.963   4.426   5.433
 7337TIP3    H221945   1.849   4.366   5.354
 7338TIP3   OH221946   2.312   3.249   5.160
 7338TIP3    H121947   2.229   3.221   5.122
 7338TIP3    H221948   2.293   3.335   5.197
 7339TIP3   OH221949   2.858   3.359   5.354
 7339TIP3    H121950   2.925   3.341   5.420
 7339TIP3    H221951   2.776   3.353   5.402
 7340TIP3   OH221952   3.074   3.777   5.270
 7340TIP3    H121953   3.033   3.772   5.357
 7340TIP3    H221954   3.055   3.865   5.239
 7341TIP3   OH221955   2.759   3.872   3.794
 7341TIP3    H121956   2.717   3.866   3.708
 7341TIP3    H221957   2.840   3.920   3.778
 7342TIP3   OH221958   2.459   3.290   4.130
 7342TIP3    H121959   2.432   3.295   4.222
 7342TIP3    H221960   2.422   3.207   4.099
 7343TIP3   OH221961   2.592   3.700   4.372
 7343TIP3    H121962   2.560   3.787   4.347
 7343TIP3    H221963   2.666   3.685   4.314
 7344TIP3   OH221964   2.814   4.004   5.509
 7344TIP3    H121965   2.786   3.934   5.567
 7344TIP3    H221966   2.909   4.011   5.523
 7345TIP3   OH221967   2.054   3.789   5.374
 7345TIP3    H121968   2.143   3.822   5.387
 7345TIP3    H221969   2.055   3.704   5.418
 7346TIP3   OH221970   2.122   3.265   4.098
 7346TIP3    H121971   2.120   3.267   4.193
 7346TIP3    H221972   2.048   3.319   4.071
 7347TIP3   OH221973   1.694   3.323   4.986
 7347TIP3    H121974   1.753   3.351   5.056
 7347TIP3    H221975   1.729   3.364   4.907
 7348TIP3   OH221976   1.591   3.287   4.477
 7348TIP3    H121977   1.636   3.321   4.399
 7348TIP3    H221978   1.533   3.358   4.504
 7349TIP3   OH221979   2.845   3.978   5.120
 7349TIP3    H121980   2.848   3.933   5.035
 7349TIP3    H221981   2.781   3.929   5.171
 7350TIP3   OH221982   1.824   3.463   4.787
 7350TIP3    H121983   1.772   3.505   4.719
 7350TIP3    H221984   1.889   3.412   4.739
 7351TIP3   OH221985   2.130   3.494   4.436
 7351TIP3    H121986   2.215   3.536   4.446
 7351TIP3    H221987   2.091   3.535   4.359
 7352TIP3   OH221988   2.941   3.557   4.920
 7352TIP3    H121989   2.919   3.573   5.012
 7352TIP3    H221990   2.877   3.493   4.890
 7353TIP3   OH221991   2.022   3.550   4.186
 7353TIP3    H121992   1.958   3.508   4.128
 7353TIP3    H221993   2.079   3.599   4.127
 7354TIP3   OH221994   3.143   5.241   5.173
 7354TIP3    H121995   3.140   5.253   5.078
 7354TIP3    H221996   3.222   5.287   5.201
 7355TIP3   OH221997   2.074   4.365   5.580
 7355TIP3    H121998   2.158   4.380   5.624
 7355TIP3    H221999   2.009   4.366   5.651
 7356TIP3   OH222000   2.020   3.286   4.698
 7356TIP3    H122001   2.007   3.208   4.753
 7356TIP3    H222002   2.059   3.252   4.617
 7357TIP3   OH222003   2.259   4.077   4.216
 7357TIP3    H122004   2.186   4.017   4.196
 7357TIP3    H222005   2.242   4.106   4.305
 7358TIP3   OH222006   2.711   3.395   4.107
 7358TIP3    H122007   2.617   3.378   4.114
 7358TIP3    H222008   2.720   3.488   4.126
 7359TIP3   OH222009   2.786   3.658   4.172
 7359TIP3    H122010   2.879   3.653   4.194
 7359TIP3    H222011   2.775   3.745   4.134
 7360TIP3   OH222012   1.960   4.069   4.920
 7360TIP3    H122013   2.043   4.028   4.894
 7360TIP3    H222014   1.952   4.048   5.013
 7361TIP3   OH222015   2.400   4.227   4.036
 7361TIP3    H122016   2.364   4.315   4.050
 7361TIP3    H222017   2.352   4.171   4.098
 7362TIP3   OH222018   1.838   4.038   5.531
 7362TIP3    H122019   1.873   4.031   5.620
 7362TIP3    H222020   1.781   3.962   5.522
 7363TIP3   OH222021   2.589   4.163   5.522
 7363TIP3    H122022   2.537   4.138   5.445
 7363TIP3    H222023   2.672   4.117   5.510
 7364TIP3   OH222024   2.803   4.660   5.090
 7364TIP3    H122025   2.736   4.611   5.043
 7364TIP3    H222026   2.760   4.688   5.171
 7365TIP3   OH222027   3.203   3.752   4.024
 7365TIP3    H122028   3.152   3.700   3.962
 7365TIP3    H222029   3.205   3.840   3.985
 7366TIP3   OH222030   3.451   4.626   5.080
 7366TIP3    H122031   3.360   4.597   5.088
 7366TIP3    H222032   3.481   4.587   4.998
 7367TIP3   OH222033   2.932   4.563   3.947
 7367TIP3    H122034   2.897   4.493   4.003
 7367TIP3    H222035   2.952   4.519   3.865
 7368TIP3   OH222036   2.077   4.409   4.537
 7368TIP3    H122037   2.067   4.486   4.480
 7368TIP3    H222038   1.990   4.397   4.575
 7369TIP3   OH222039   1.618   3.711   4.243
 7369TIP3    H122040   1.668   3.789   4.268
 7369TIP3    H222041   1.543   3.711   4.302
 7370TIP3   OH222042   2.213   4.172   4.465
 7370TIP3    H122043   2.169   4.250   4.498
 7370TIP3    H222044   2.252   4.131   4.542
 7371TIP3   OH222045   2.344   4.756   4.980
 7371TIP3    H122046   2.392   4.818   4.926
 7371TIP3    H222047   2.410   4.718   5.038
 7372TIP3   OH222048   1.983   4.649   4.389
 7372TIP3    H122049   1.897   4.654   4.431
 7372TIP3    H222050   2.017   4.738   4.394
 7373TIP3   OH222051   2.690   4.282   3.845
 7373TIP3    H122052   2.742   4.250   3.918
 7373TIP3    H222053   2.601   4.251   3.863
 7374TIP3   OH222054   2.946   4.889   5.023
 7374TIP3    H122055   2.902   4.810   5.056
 7374TIP3    H222056   2.889   4.921   4.953
 7375TIP3   OH222057   3.015   4.760   3.649
 7375TIP3    H122058   3.050   4.828   3.591
 7375TIP3    H222059   2.939   4.800   3.690
 7376TIP3   OH222060   2.037   3.530   5.506
 7376TIP3    H122061   1.942   3.540   5.514
 7376TIP3    H222062   2.064   3.483   5.585
 7377TIP3   OH222063   2.860   4.201   4.051
 7377TIP3    H122064   2.844   4.269   4.117
 7377TIP3    H222065   2.955   4.197   4.044
 7378TIP3   OH222066   1.773   4.649   5.163
 7378TIP3    H122067   1.811   4.574   5.210
 7378TIP3    H222068   1.809   4.726   5.207
 7379TIP3   OH222069   2.042   4.258   3.849
 7379TIP3    H122070   2.056   4.167   3.823
 7379TIP3    H222071   2.028   4.254   3.944
 7380TIP3   OH222072   1.990   4.274   4.122
 7380TIP3    H122073   2.059   4.242   4.180
 7380TIP3    H222074   1.994   4.370   4.130
 7381TIP3   OH222075   1.710   3.960   4.331
 7381TIP3    H122076   1.648   4.011   4.384
 7381TIP3    H222077   1.737   4.020   4.261
 7382TIP3   OH222078   2.889   3.584   5.190
 7382TIP3    H122079   2.961   3.639   5.221
 7382TIP3    H222080   2.885   3.512   5.253
 7383TIP3   OH222081   2.767   3.322   4.372
 7383TIP3    H122082   2.745   3.345   4.282
 7383TIP3    H222083   2.812   3.398   4.407
 7384TIP3   OH222084   2.269   4.466   4.062
 7384TIP3    H122085   2.183   4.485   4.101
 7384TIP3    H222086   2.287   4.540   4.005
 7385TIP3   OH222087   2.407   3.542   4.490
 7385TIP3    H122088   2.472   3.596   4.444
 7385TIP3    H222089   2.414   3.570   4.581
 7386TIP3   OH222090   2.709   3.828   5.303
 7386TIP3    H122091   2.751   3.877   5.374
 7386TIP3    H222092   2.759   3.747   5.297
 7387TIP3   OH222093   2.607   3.225   4.575
 7387TIP3    H122094   2.635   3.274   4.652
 7387TIP3    H222095   2.662   3.260   4.504
 7388TIP3   OH222096   2.015   4.547   4.136
 7388TIP3    H122097   1.991   4.618   4.076
 7388TIP3    H222098   2.001   4.584   4.223
 7389TIP3   OH222099   2.115   3.231   4.377
 7389TIP3    H122100   2.102   3.323   4.403
 7389TIP3    H222101   2.209   3.217   4.385
 7390TIP3   OH222102   3.345   3.748   5.266
 7390TIP3    H122103   3.249   3.740   5.270
 7390TIP3    H222104   3.365   3.746   5.172
 7391TIP3   OH222105   1.744   4.144   4.117
 7391TIP3    H122106   1.816   4.206   4.128
 7391TIP3    H222107   1.776   4.081   4.053
 7392TIP3   OH222108   1.650   3.430   4.249
 7392TIP3    H122109   1.677   3.521   4.259
 7392TIP3    H222110   1.579   3.433   4.184
 7393TIP3   OH222111   2.973   4.925   4.593
 7393TIP3    H122112   2.935   4.970   4.518
 7393TIP3    H222113   3.068   4.929   4.577
 7394TIP3   OH222114   2.048   3.167   5.111
 7394TIP3    H122115   2.022   3.143   5.022
 7394TIP3    H222116   2.034   3.088   5.163
 7395TIP3   OH222117   1.570   4.411   4.500
 7395TIP3    H122118   1.524   4.456   4.571
 7395TIP3    H222119   1.538   4.453   4.420
 7396TIP3   OH222120   1.781   4.950   5.579
 7396TIP3    H122121   1.862   4.960   5.629
 7396TIP3    H222122   1.777   4.857   5.558
 7397TIP3   OH222123   2.242   4.862   5.620
 7397TIP3    H122124   2.334   4.835   5.628
 7397TIP3    H222125   2.208   4.810   5.547
 7398TIP3   OH222126   2.202   4.455   3.741
 7398TIP3    H122127   2.154   4.386   3.786
 7398TIP3    H222128   2.278   4.410   3.702
 7399TIP3   OH222129   2.846   4.797   5.371
 7399TIP3    H122130   2.863   4.724   5.431
 7399TIP3    H222131   2.924   4.851   5.377
 7400TIP3   OH222132   2.646   4.494   3.669
 7400TIP3    H122133   2.676   4.427   3.730
 7400TIP3    H222134   2.705   4.487   3.594
 7401TIP3   OH222135   1.869   4.345   5.768
 7401TIP3    H122136   1.892   4.253   5.778
 7401TIP3    H222137   1.784   4.344   5.722
 7402TIP3   OH222138   1.868   3.958   3.961
 7402TIP3    H122139   1.920   3.932   4.037
 7402TIP3    H222140   1.933   3.971   3.891
 7403TIP3   OH222141   2.498   4.433   5.553
 7403TIP3    H122142   2.460   4.457   5.469
 7403TIP3    H222143   2.545   4.351   5.536
 7404TIP3   OH222144   2.404   4.173   3.771
 7404TIP3    H122145   2.392   4.187   3.865
 7404TIP3    H222146   2.400   4.078   3.761
 7405TIP3   OH222147   2.955   4.426   5.102
 7405TIP3    H122148   2.913   4.512   5.110
 7405TIP3    H222149   2.893   4.373   5.053
 7406TIP3   OH222150   1.997   4.091   5.765
 7406TIP3    H122151   2.074   4.079   5.710
 7406TIP3    H222152   2.032   4.110   5.852
 7407TIP3   OH222153   2.052   3.898   4.159
 7407TIP3    H122154   2.022   3.869   4.246
 7407TIP3    H222155   2.097   3.822   4.123
 7408TIP3   OH222156   2.298   3.923   5.405
 7408TIP3    H122157   2.239   3.992   5.435
 7408TIP3    H222158   2.365   3.969   5.354
 7409TIP3   OH222159   2.181   3.699   4.016
 7409TIP3    H122160   2.154   3.706   3.924
 7409TIP3    H222161   2.276   3.706   4.014
 7410TIP3   OH222162   2.875   4.354   5.553
 7410TIP3    H122163   2.899   4.309   5.473
 7410TIP3    H222164   2.867   4.285   5.619
 7411TIP3   OH222165   2.982   4.009   3.700
 7411TIP3    H122166   2.972   3.964   3.616
 7411TIP3    H222167   2.953   4.099   3.682
 7412TIP3   OH222168   2.460   3.744   5.535
 7412TIP3    H122169   2.475   3.673   5.473
 7412TIP3    H222170   2.411   3.809   5.486
 7413TIP3   OH222171   2.473   3.553   5.325
 7413TIP3    H122172   2.493   3.610   5.250
 7413TIP3    H222173   2.381   3.529   5.312
 7414TIP3   OH222174   2.482   4.082   5.280
 7414TIP3    H122175   2.557   4.066   5.222
 7414TIP3    H222176   2.428   4.145   5.233
 7415TIP3   OH222177   3.082   4.032   5.595
 7415TIP3    H122178   3.136   3.953   5.587
 7415TIP3    H222179   3.141   4.103   5.570
 7416TIP3   OH222180   3.091   4.311   5.318
 7416TIP3    H122181   3.035   4.354   5.254
 7416TIP3    H222182   3.180   4.330   5.290
 7417TIP3   OH222183   2.346   3.828   5.781
 7417TIP3    H122184   2.274   3.766   5.796
 7417TIP3    H222185   2.373   3.811   5.691
 7418TIP3   OH222186   2.586   3.320   5.434
 7418TIP3    H122187   2.552   3.400   5.395
 7418TIP3    H222188   2.520   3.253   5.417
 7419TIP3   OH222189   2.716   3.784   5.642
 7419TIP3    H122190   2.695   3.770   5.734
 7419TIP3    H222191   2.633   3.771   5.596
 7420TIP3   OH222192   2.961   3.736   5.512
 7420TIP3    H122193   2.883   3.739   5.568
 7420TIP3    H222194   3.033   3.719   5.573
 7421TIP3   OH222195   3.199   3.703   5.662
 7421TIP3    H122196   3.211   3.609   5.669
 7421TIP3    H222197   3.193   3.734   5.752
 7422TIP3   OH222198   2.177   3.608   5.845
 7422TIP3    H122199   2.184   3.521   5.808
 7422TIP3    H222200   2.217   3.601   5.932
 7423TIP3   OH222201   2.655   3.288   5.698
 7423TIP3    H122202   2.726   3.225   5.688
 7423TIP3    H222203   2.624   3.304   5.609
 7424TIP3   OH222204   2.749   3.504   5.846
 7424TIP3    H122205   2.719   3.435   5.786
 7424TIP3    H222206   2.679   3.569   5.845
 7425TIP3   OH222207   2.003   4.757   3.951
 7425TIP3    H122208   2.092   4.734   3.924
 7425TIP3    H222209   1.966   4.803   3.875
 7426TIP3   OH222210   1.471   4.134   4.136
 7426TIP3    H122211   1.566   4.147   4.132
 7426TIP3    H222212   1.457   4.047   4.098
 7427TIP3   OH222213   1.371   4.723   4.585
 7427TIP3    H122214   1.309   4.665   4.542
 7427TIP3    H222215   1.419   4.666   4.646
 7428TIP3   OH222216   1.521   4.562   4.753
 7428TIP3    H122217   1.530   4.483   4.806
 7428TIP3    H222218   1.567   4.630   4.803
 7429TIP3   OH222219   3.248   4.964   4.573
 7429TIP3    H122220   3.271   4.985   4.664
 7429TIP3    H222221   3.299   5.026   4.521
 7430TIP3   OH222222   3.290   4.988   4.849
 7430TIP3    H122223   3.237   4.909   4.851
 7430TIP3    H222224   3.358   4.973   4.915
 7431TIP3   OH222225   3.331   4.692   5.421
 7431TIP3    H122226   3.258   4.700   5.482
 7431TIP3    H222227   3.375   4.777   5.424
 7432TIP3   OH222228   3.145   4.217   4.052
 7432TIP3    H122229   3.197   4.280   4.002
 7432TIP3    H222230   3.187   4.213   4.138
 7433TIP3   OH222231   3.363   4.445   4.637
 7433TIP3    H122232   3.326   4.374   4.584
 7433TIP3    H222233   3.336   4.525   4.592
 7434TIP3   OH222234   3.144   4.754   4.879
 7434TIP3    H122235   3.078   4.797   4.933
 7434TIP3    H222236   3.093   4.714   4.808
 7435TIP3   OH222237   3.182   3.991   3.890
 7435TIP3    H122238   3.113   3.993   3.824
 7435TIP3    H222239   3.167   4.069   3.943
 7436TIP3   OH222240   3.054   3.636   3.821
 7436TIP3    H122241   3.000   3.672   3.750
 7436TIP3    H222242   3.043   3.541   3.814
 7437TIP3   OH222243   1.707   4.009   5.165
 7437TIP3    H122244   1.689   3.979   5.076
 7437TIP3    H222245   1.802   4.003   5.174
 7438TIP3   OH222246   3.352   4.347   5.228
 7438TIP3    H122247   3.415   4.277   5.211
 7438TIP3    H222248   3.339   4.389   5.143
 7439TIP3   OH222249   3.525   4.130   5.228
 7439TIP3    H122250   3.452   4.090   5.274
 7439TIP3    H222251   3.600   4.075   5.249
 7440TIP3   OH222252   3.000   3.366   3.788
 7440TIP3    H122253   3.067   3.339   3.851
 7440TIP3    H222254   2.920   3.322   3.818
 7441TIP3   OH222255   3.066   3.639   4.248
 7441TIP3    H122256   3.112   3.556   4.261
 7441TIP3    H222257   3.117   3.684   4.181
 7442TIP3   OH222258   3.314   3.969   5.034
 7442TIP3    H122259   3.230   3.977   5.079
 7442TIP3    H222260   3.319   4.046   4.977
 7443TIP3   OH222261   1.915   3.664   5.782
 7443TIP3    H122262   2.009   3.662   5.797
 7443TIP3    H222263   1.882   3.584   5.824
 7444TIP3   OH222264   3.755   3.562   5.548
 7444TIP3    H122265   3.817   3.504   5.502
 7444TIP3    H222266   3.714   3.613   5.478
 7445TIP3   OH222267   3.187   3.394   4.306
 7445TIP3    H122268   3.234   3.382   4.388
 7445TIP3    H222269   3.122   3.324   4.305
 7446TIP3   OH222270   1.890   3.392   5.171
 7446TIP3    H122271   1.949   3.318   5.155
 7446TIP3    H222272   1.941   3.469   5.148
 7447TIP3   OH222273   1.669   3.649   5.203
 7447TIP3    H122274   1.716   3.641   5.120
 7447TIP3    H222275   1.719   3.714   5.253
 7448TIP3   OH222276   3.604   3.680   5.356
 7448TIP3    H122277   3.523   3.723   5.383
 7448TIP3    H222278   3.575   3.610   5.297
 7449TIP3   OH222279   3.226   3.317   3.941
 7449TIP3    H122280   3.275   3.255   3.887
 7449TIP3    H222281   3.285   3.391   3.953
 7450TIP3   OH222282   1.648   3.108   4.677
 7450TIP3    H122283   1.575   3.123   4.737
 7450TIP3    H222284   1.645   3.182   4.617
 7451TIP3   OH222285   2.817   4.865   4.214
 7451TIP3    H122286   2.874   4.863   4.137
 7451TIP3    H222287   2.853   4.936   4.267
 7452TIP3   OH222288   1.880   3.193   5.519
 7452TIP3    H122289   1.835   3.205   5.603
 7452TIP3    H222290   1.830   3.246   5.457
 7453TIP3   OH222291   1.899   4.681   5.582
 7453TIP3    H122292   1.810   4.647   5.575
 7453TIP3    H222293   1.926   4.661   5.671
 7454TIP3   OH222294   2.121   4.723   5.143
 7454TIP3    H122295   2.073   4.798   5.109
 7454TIP3    H222296   2.206   4.725   5.098
 7455TIP3   OH222297   2.517   4.971   5.300
 7455TIP3    H122298   2.561   4.954   5.383
 7455TIP3    H222299   2.585   5.009   5.244
 7456TIP3   OH222300   2.716   5.092   5.149
 7456TIP3    H122301   2.775   5.030   5.106
 7456TIP3    H222302   2.773   5.148   5.201
 7457TIP3   OH222303   3.508   3.442   5.237
 7457TIP3    H122304   3.426   3.449   5.189
 7457TIP3    H222305   3.534   3.351   5.227
 7458TIP3   OH222306   1.787   4.976   5.185
 7458TIP3    H122307   1.695   4.992   5.166
 7458TIP3    H222308   1.809   5.038   5.254
 7459TIP3   OH222309   2.014   4.950   5.035
 7459TIP3    H122310   1.932   4.959   5.083
 7459TIP3    H222311   1.992   4.972   4.944
 7460TIP3   OH222312   2.443   4.958   4.809
 7460TIP3    H122313   2.362   4.972   4.761
 7460TIP3    H222314   2.454   5.037   4.862
 7461TIP3   OH222315   2.724   4.930   4.859
 7461TIP3    H122316   2.630   4.921   4.845
 7461TIP3    H222317   2.747   5.013   4.817
 7462TIP3   OH222318   2.928   5.122   4.784
 7462TIP3    H122319   2.916   5.200   4.730
 7462TIP3    H222320   2.942   5.051   4.721
 7463TIP3   OH222321   1.689   4.728   4.913
 7463TIP3    H122322   1.714   4.704   5.002
 7463TIP3    H222323   1.760   4.694   4.858
 7464TIP3   OH222324   1.890   4.608   4.772
 7464TIP3    H122325   1.905   4.522   4.810
 7464TIP3    H222326   1.975   4.652   4.776
 7465TIP3   OH222327   2.152   4.713   4.785
 7465TIP3    H122328   2.173   4.621   4.771
 7465TIP3    H222329   2.206   4.738   4.861
 7466TIP3   OH222330   2.701   3.320   4.818
 7466TIP3    H122331   2.676   3.274   4.898
 7466TIP3    H222332   2.792   3.296   4.802
 7467TIP3   OH222333   3.242   3.250   4.752
 7467TIP3    H122334   3.282   3.305   4.684
 7467TIP3    H222335   3.153   3.284   4.761
 7468TIP3   OH222336   3.354   3.359   4.524
 7468TIP3    H122337   3.421   3.297   4.496
 7468TIP3    H222338   3.391   3.445   4.507
 7469TIP3   OH222339   1.972   3.059   4.865
 7469TIP3    H122340   1.881   3.031   4.872
 7469TIP3    H222341   2.022   2.978   4.860
 7470TIP3   OH222342   1.779   2.932   4.507
 7470TIP3    H122343   1.810   2.989   4.436
 7470TIP3    H222344   1.739   2.992   4.569
 7471TIP3   OH222345   2.440   3.094   4.762
 7471TIP3    H122346   2.484   3.140   4.691
 7471TIP3    H222347   2.460   3.146   4.840
 7472TIP3   OH222348   2.956   3.241   4.742
 7472TIP3    H122349   2.967   3.205   4.653
 7472TIP3    H222350   2.955   3.164   4.799
 7473TIP3   OH222351   3.000   3.185   4.310
 7473TIP3    H122352   2.918   3.231   4.327
 7473TIP3    H222353   2.987   3.098   4.347
 7474TIP3   OH222354   1.470   4.532   4.275
 7474TIP3    H122355   1.387   4.497   4.243
 7474TIP3    H222356   1.470   4.624   4.250
 7475TIP3   OH222357   1.893   3.082   4.287
 7475TIP3    H122358   1.939   3.026   4.224
 7475TIP3    H222359   1.962   3.136   4.325
 7476TIP3   OH222360   2.391   3.283   4.400
 7476TIP3    H122361   2.457   3.245   4.458
 7476TIP3    H222362   2.386   3.374   4.426
 7477TIP3   OH222363   2.258   4.682   3.882
 7477TIP3    H122364   2.342   4.709   3.845
 7477TIP3    H222365   2.230   4.609   3.827
 7478TIP3   OH222366   2.967   4.831   3.981
 7478TIP3    H122367   2.961   4.736   3.974
 7478TIP3    H222368   2.923   4.865   3.903
 7479TIP3   OH222369   2.187   3.335   5.755
 7479TIP3    H122370   2.151   3.269   5.815
 7479TIP3    H222371   2.279   3.342   5.780
 7480TIP3   OH222372   2.436   3.340   5.876
 7480TIP3    H122373   2.514   3.322   5.822
 7480TIP3    H222374   2.434   3.268   5.939
 7481TIP3   OH222375   1.565   4.526   3.945
 7481TIP3    H122376   1.567   4.533   4.040
 7481TIP3    H222377   1.647   4.481   3.923
 7482TIP3   OH222378   3.262   3.431   5.671
 7482TIP3    H122379   3.281   3.402   5.760
 7482TIP3    H222380   3.347   3.427   5.626
 7483TIP3   OH222381   3.179   4.966   5.168
 7483TIP3    H122382   3.101   4.934   5.122
 7483TIP3    H222383   3.164   5.060   5.179
 7484TIP3   OH222384   3.760   4.658   4.396
 7484TIP3    H122385   3.773   4.629   4.486
 7484TIP3    H222386   3.848   4.657   4.358
 7485TIP3   OH222387   3.454   3.831   4.197
 7485TIP3    H122388   3.466   3.922   4.225
 7485TIP3    H222389   3.372   3.831   4.149
 7486TIP3   OH222390   4.371   5.092   4.019
 7486TIP3    H122391   4.401   5.023   3.959
 7486TIP3    H222392   4.360   5.048   4.103
 7487TIP3   OH222393   4.684   4.068   4.394
 7487TIP3    H122394   4.708   3.976   4.407
 7487TIP3    H222395   4.653   4.072   4.304
 7488TIP3   OH222396   4.018   3.686   4.312
 7488TIP3    H122397   4.029   3.725   4.225
 7488TIP3    H222398   3.949   3.622   4.301
 7489TIP3   OH222399   4.705   3.826   3.962
 7489TIP3    H122400   4.766   3.815   4.035
 7489TIP3    H222401   4.760   3.859   3.891
 7490TIP3   OH222402   5.354   4.085   4.536
 7490TIP3    H122403   5.285   4.110   4.474
 7490TIP3    H222404   5.337   4.139   4.613
 7491TIP3   OH222405   4.000   3.708   4.793
 7491TIP3    H122406   3.959   3.741   4.713
 7491TIP3    H222407   3.940   3.733   4.863
 7492TIP3   OH222408   4.368   4.581   3.737
 7492TIP3    H122409   4.330   4.494   3.727
 7492TIP3    H222410   4.297   4.635   3.770
 7493TIP3   OH222411   4.125   4.514   4.598
 7493TIP3    H122412   4.047   4.565   4.619
 7493TIP3    H222413   4.176   4.570   4.540
 7494TIP3   OH222414   4.880   3.811   4.175
 7494TIP3    H122415   4.835   3.804   4.259
 7494TIP3    H222416   4.973   3.817   4.197
 7495TIP3   OH222417   3.901   3.800   4.557
 7495TIP3    H122418   3.941   3.887   4.560
 7495TIP3    H222419   3.924   3.766   4.470
 7496TIP3   OH222420   3.924   4.695   4.658
 7496TIP3    H122421   3.918   4.787   4.634
 7496TIP3    H222422   3.853   4.682   4.721
 7497TIP3   OH222423   3.310   4.393   3.912
 7497TIP3    H122424   3.284   4.410   3.822
 7497TIP3    H222425   3.340   4.477   3.946
 7498TIP3   OH222426   4.783   4.922   4.173
 7498TIP3    H122427   4.699   4.909   4.215
 7498TIP3    H222428   4.772   5.000   4.119
 7499TIP3   OH222429   5.037   3.773   4.517
 7499TIP3    H122430   4.943   3.784   4.500
 7499TIP3    H222431   5.080   3.826   4.450
 7500TIP3   OH222432   4.351   3.412   4.530
 7500TIP3    H122433   4.333   3.319   4.538
 7500TIP3    H222434   4.272   3.455   4.563
 7501TIP3   OH222435   4.467   4.929   3.811
 7501TIP3    H122436   4.518   4.852   3.786
 7501TIP3    H222437   4.519   5.004   3.782
 7502TIP3   OH222438   4.598   4.715   3.692
 7502TIP3    H122439   4.515   4.668   3.703
 7502TIP3    H222440   4.662   4.645   3.675
 7503TIP3   OH222441   4.976   4.788   4.475
 7503TIP3    H122442   4.956   4.731   4.401
 7503TIP3    H222443   4.976   4.876   4.438
 7504TIP3   OH222444   4.297   4.308   3.724
 7504TIP3    H122445   4.208   4.302   3.757
 7504TIP3    H222446   4.318   4.219   3.697
 7505TIP3   OH222447   4.245   3.992   3.452
 7505TIP3    H122448   4.309   4.036   3.508
 7505TIP3    H222449   4.293   3.922   3.409
 7506TIP3   OH222450   4.574   4.288   3.750
 7506TIP3    H122451   4.491   4.335   3.759
 7506TIP3    H222452   4.566   4.213   3.810
 7507TIP3   OH222453   4.870   4.310   4.685
 7507TIP3    H122454   4.862   4.392   4.733
 7507TIP3    H222455   4.790   4.304   4.634
 7508TIP3   OH222456   4.002   4.679   4.261
 7508TIP3    H122457   3.968   4.678   4.171
 7508TIP3    H222458   4.061   4.605   4.266
 7509TIP3   OH222459   4.557   4.942   4.325
 7509TIP3    H122460   4.524   5.031   4.332
 7509TIP3    H222461   4.570   4.914   4.416
 7510TIP3   OH222462   4.137   4.794   4.823
 7510TIP3    H122463   4.076   4.850   4.871
 7510TIP3    H222464   4.082   4.736   4.772
 7511TIP3   OH222465   4.475   4.112   3.555
 7511TIP3    H122466   4.516   4.181   3.606
 7511TIP3    H222467   4.503   4.128   3.465
 7512TIP3   OH222468   3.895   4.337   4.967
 7512TIP3    H122469   3.899   4.431   4.985
 7512TIP3    H222470   3.801   4.318   4.959
 7513TIP3   OH222471   4.216   4.806   3.829
 7513TIP3    H122472   4.299   4.855   3.828
 7513TIP3    H222473   4.161   4.853   3.766
 7514TIP3   OH222474   3.930   4.952   4.913
 7514TIP3    H122475   3.902   4.964   4.823
 7514TIP3    H222476   3.848   4.936   4.962
 7515TIP3   OH222477   4.982   3.366   3.613
 7515TIP3    H122478   4.906   3.387   3.667
 7515TIP3    H222479   4.994   3.443   3.558
 7516TIP3   OH222480   4.803   4.741   3.168
 7516TIP3    H122481   4.802   4.835   3.151
 7516TIP3    H222482   4.893   4.714   3.147
 7517TIP3   OH222483   3.530   4.496   4.851
 7517TIP3    H122484   3.468   4.473   4.781
 7517TIP3    H222485   3.556   4.412   4.889
 7518TIP3   OH222486   3.356   4.712   4.511
 7518TIP3    H122487   3.443   4.734   4.545
 7518TIP3    H222488   3.300   4.784   4.540
 7519TIP3   OH222489   4.326   4.937   4.685
 7519TIP3    H122490   4.320   5.027   4.718
 7519TIP3    H222491   4.262   4.888   4.736
 7520TIP3   OH222492   4.113   5.042   3.639
 7520TIP3    H122493   4.062   5.021   3.561
 7520TIP3    H222494   4.076   5.124   3.671
 7521TIP3   OH222495   3.546   4.890   4.018
 7521TIP3    H122496   3.592   4.884   4.102
 7521TIP3    H222497   3.500   4.807   4.010
 7522TIP3   OH222498   4.310   4.963   3.267
 7522TIP3    H122499   4.361   4.888   3.235
 7522TIP3    H222500   4.344   4.977   3.356
 7523TIP3   OH222501   4.364   5.008   3.536
 7523TIP3    H122502   4.279   5.014   3.579
 7523TIP3    H222503   4.422   4.971   3.603
 7524TIP3   OH222504   5.107   4.273   4.858
 7524TIP3    H122505   5.033   4.282   4.798
 7524TIP3    H222506   5.130   4.181   4.854
 7525TIP3   OH222507   3.716   4.696   4.835
 7525TIP3    H122508   3.765   4.685   4.916
 7525TIP3    H222509   3.648   4.629   4.838
 7526TIP3   OH222510   4.104   3.496   4.643
 7526TIP3    H122511   4.020   3.471   4.607
 7526TIP3    H222512   4.087   3.580   4.686
 7527TIP3   OH222513   4.654   3.622   4.843
 7527TIP3    H122514   4.722   3.594   4.905
 7527TIP3    H222515   4.572   3.599   4.887
 7528TIP3   OH222516   4.886   4.043   4.769
 7528TIP3    H122517   4.841   4.041   4.853
 7528TIP3    H222518   4.863   4.128   4.732
 7529TIP3   OH222519   4.555   4.135   3.294
 7529TIP3    H122520   4.511   4.130   3.209
 7529TIP3    H222521   4.636   4.182   3.276
 7530TIP3   OH222522   4.247   3.558   3.640
 7530TIP3    H122523   4.210   3.581   3.725
 7530TIP3    H222524   4.206   3.474   3.618
 7531TIP3   OH222525   4.024   4.051   4.599
 7531TIP3    H122526   3.974   4.060   4.681
 7531TIP3    H222527   3.980   4.109   4.538
 7532TIP3   OH222528   4.456   4.060   3.877
 7532TIP3    H122529   4.370   4.056   3.919
 7532TIP3    H222530   4.472   3.972   3.846
 7533TIP3   OH222531   4.593   4.258   4.982
 7533TIP3    H122532   4.568   4.187   5.040
 7533TIP3    H222533   4.687   4.271   4.998
 7534TIP3   OH222534   4.591   4.022   4.140
 7534TIP3    H122535   4.542   4.088   4.090
 7534TIP3    H222536   4.612   3.955   4.075
 7535TIP3   OH222537   3.894   4.039   4.849
 7535TIP3    H122538   3.902   4.109   4.914
 7535TIP3    H222539   3.878   3.960   4.901
 7536TIP3   OH222540   3.915   3.531   3.583
 7536TIP3    H122541   3.910   3.542   3.678
 7536TIP3    H222542   3.837   3.575   3.550
 7537TIP3   OH222543   3.466   3.600   4.462
 7537TIP3    H122544   3.527   3.616   4.534
 7537TIP3    H222545   3.512   3.632   4.384
 7538TIP3   OH222546   3.390   3.544   3.966
 7538TIP3    H122547   3.432   3.576   3.886
 7538TIP3    H222548   3.343   3.621   4.000
 7539TIP3   OH222549   4.624   4.271   4.565
 7539TIP3    H122550   4.647   4.213   4.493
 7539TIP3    H222551   4.577   4.214   4.627
 7540TIP3   OH222552   4.295   3.643   4.264
 7540TIP3    H122553   4.203   3.662   4.278
 7540TIP3    H222554   4.342   3.712   4.312
 7541TIP3   OH222555   3.674   3.716   4.318
 7541TIP3    H122556   3.614   3.762   4.259
 7541TIP3    H222557   3.726   3.660   4.260
 7542TIP3   OH222558   4.763   3.800   4.449
 7542TIP3    H122559   4.733   3.829   4.535
 7542TIP3    H222560   4.698   3.735   4.422
 7543TIP3   OH222561   3.770   3.829   3.663
 7543TIP3    H122562   3.731   3.769   3.601
 7543TIP3    H222563   3.850   3.860   3.620
 7544TIP3   OH222564   4.938   5.494   4.651
 7544TIP3    H122565   4.934   5.510   4.556
 7544TIP3    H222566   5.020   5.534   4.678
 7545TIP3   OH222567   3.878   4.606   5.064
 7545TIP3    H122568   3.959   4.625   5.111
 7545TIP3    H222569   3.809   4.612   5.130
 7546TIP3   OH222570   3.828   3.520   4.199
 7546TIP3    H122571   3.802   3.441   4.246
 7546TIP3    H222572   3.871   3.488   4.120
 7547TIP3   OH222573   4.285   3.962   4.657
 7547TIP3    H122574   4.204   4.006   4.630
 7547TIP3    H222575   4.347   4.033   4.670
 7548TIP3   OH222576   4.004   4.369   3.705
 7548TIP3    H122577   3.954   4.288   3.702
 7548TIP3    H222578   4.013   4.389   3.798
 7549TIP3   OH222579   4.491   3.644   3.560
 7549TIP3    H122580   4.403   3.622   3.591
 7549TIP3    H222581   4.510   3.729   3.600
 7550TIP3   OH222582   4.432   4.655   4.716
 7550TIP3    H122583   4.497   4.651   4.786
 7550TIP3    H222584   4.410   4.748   4.710
 7551TIP3   OH222585   4.573   3.878   3.671
 7551TIP3    H122586   4.667   3.890   3.687
 7551TIP3    H222587   4.544   3.961   3.634
 7552TIP3   OH222588   4.168   4.487   3.504
 7552TIP3    H122589   4.145   4.576   3.528
 7552TIP3    H222590   4.128   4.433   3.573
 7553TIP3   OH222591   3.619   4.281   5.002
 7553TIP3    H122592   3.643   4.280   5.095
 7553TIP3    H222593   3.556   4.210   4.993
 7554TIP3   OH222594   4.360   4.408   5.019
 7554TIP3    H122595   4.290   4.350   4.989
 7554TIP3    H222596   4.441   4.367   4.989
 7555TIP3   OH222597   4.590   4.941   4.601
 7555TIP3    H122598   4.496   4.935   4.620
 7555TIP3    H222599   4.628   4.978   4.681
 7556TIP3   OH222600   5.003   4.000   3.503
 7556TIP3    H122601   4.948   3.951   3.442
 7556TIP3    H222602   5.005   4.089   3.467
 7557TIP3   OH222603   5.236   4.817   4.606
 7557TIP3    H122604   5.148   4.854   4.608
 7557TIP3    H222605   5.257   4.810   4.513
 7558TIP3   OH222606   4.727   4.821   3.434
 7558TIP3    H122607   4.677   4.764   3.493
 7558TIP3    H222608   4.741   4.767   3.356
 7559TIP3   OH222609   3.883   4.687   4.015
 7559TIP3    H122610   3.884   4.765   3.960
 7559TIP3    H222611   3.792   4.657   4.014
 7560TIP3   OH222612   3.400   3.960   3.720
 7560TIP3    H122613   3.451   4.039   3.737
 7560TIP3    H222614   3.329   3.962   3.784
 7561TIP3   OH222615   4.042   4.444   3.965
 7561TIP3    H122616   4.010   4.532   3.986
 7561TIP3    H222617   4.091   4.417   4.042
 7562TIP3   OH222618   4.144   5.013   4.478
 7562TIP3    H122619   4.180   5.087   4.430
 7562TIP3    H222620   4.217   4.980   4.531
 7563TIP3   OH222621   3.781   4.912   3.872
 7563TIP3    H122622   3.694   4.915   3.914
 7563TIP3    H222623   3.813   5.002   3.877
 7564TIP3   OH222624   4.493   4.546   3.349
 7564TIP3    H122625   4.550   4.520   3.422
 7564TIP3    H222626   4.405   4.519   3.376
 7565TIP3   OH222627   4.753   5.177   4.484
 7565TIP3    H122628   4.678   5.118   4.493
 7565TIP3    H222629   4.727   5.237   4.414
 7566TIP3   OH222630   4.813   5.017   3.136
 7566TIP3    H122631   4.852   5.087   3.084
 7566TIP3    H222632   4.736   5.057   3.176
 7567TIP3   OH222633   3.835   3.794   4.999
 7567TIP3    H122634   3.740   3.800   5.004
 7567TIP3    H222635   3.859   3.739   5.073
 7568TIP3   OH222636   4.673   4.467   3.551
 7568TIP3    H122637   4.647   4.402   3.616
 7568TIP3    H222638   4.768   4.455   3.542
 7569TIP3   OH222639   3.569   4.889   4.644
 7569TIP3    H122640   3.617   4.829   4.701
 7569TIP3    H222641   3.578   4.974   4.685
 7570TIP3   OH222642   3.836   4.514   3.332
 7570TIP3    H122643   3.851   4.423   3.307
 7570TIP3    H222644   3.822   4.511   3.427
 7571TIP3   OH222645   3.791   4.527   3.604
 7571TIP3    H122646   3.869   4.487   3.643
 7571TIP3    H222647   3.802   4.621   3.619
 7572TIP3   OH222648   3.489   4.211   3.785
 7572TIP3    H122649   3.436   4.259   3.848
 7572TIP3    H222650   3.522   4.278   3.724
 7573TIP3   OH222651   4.682   3.861   4.706
 7573TIP3    H122652   4.764   3.898   4.741
 7573TIP3    H222653   4.671   3.779   4.755
 7574TIP3   OH222654   4.571   3.602   3.869
 7574TIP3    H122655   4.540   3.628   3.782
 7574TIP3    H222656   4.610   3.682   3.905
 7575TIP3   OH222657   4.071   4.735   3.559
 7575TIP3    H122658   3.982   4.751   3.592
 7575TIP3    H222659   4.085   4.805   3.495
 7576TIP3   OH222660   4.523   4.093   4.747
 7576TIP3    H122661   4.550   4.126   4.833
 7576TIP3    H222662   4.567   4.009   4.738
 7577TIP3   OH222663   4.378   3.496   4.046
 7577TIP3    H122664   4.363   3.559   4.117
 7577TIP3    H222665   4.445   3.536   3.992
 7578TIP3   OH222666   3.813   4.802   3.623
 7578TIP3    H122667   3.787   4.871   3.562
 7578TIP3    H222668   3.798   4.841   3.710
 7579TIP3   OH222669   3.885   3.546   3.858
 7579TIP3    H122670   3.851   3.630   3.888
 7579TIP3    H222671   3.979   3.550   3.876
 7580TIP3   OH222672   5.154   4.009   4.756
 7580TIP3    H122673   5.058   4.006   4.765
 7580TIP3    H222674   5.171   3.974   4.669
 7581TIP3   OH222675   3.539   4.411   3.593
 7581TIP3    H122676   3.613   4.471   3.606
 7581TIP3    H222677   3.573   4.343   3.535
 7582TIP3   OH222678   3.454   3.677   3.734
 7582TIP3    H122679   3.497   3.762   3.738
 7582TIP3    H222680   3.372   3.694   3.688
 7583TIP3   OH222681   4.779   5.180   4.070
 7583TIP3    H122682   4.739   5.228   3.997
 7583TIP3    H222683   4.873   5.191   4.057
 7584TIP3   OH222684   3.836   3.419   4.599
 7584TIP3    H122685   3.812   3.391   4.511
 7584TIP3    H222686   3.828   3.340   4.653
 7585TIP3   OH222687   3.375   4.661   3.997
 7585TIP3    H122688   3.334   4.700   4.075
 7585TIP3    H222689   3.333   4.705   3.923
 7586TIP3   OH222690   3.567   5.202   5.065
 7586TIP3    H122691   3.650   5.205   5.112
 7586TIP3    H222692   3.545   5.109   5.060
 7587TIP3   OH222693   4.037   5.118   5.106
 7587TIP3    H122694   4.128   5.092   5.115
 7587TIP3    H222695   4.003   5.063   5.035
 7588TIP3   OH222696   4.000   4.711   3.230
 7588TIP3    H122697   3.950   4.641   3.272
 7588TIP3    H222698   4.075   4.666   3.190
 7589TIP3   OH222699   4.658   5.046   4.848
 7589TIP3    H122700   4.669   4.977   4.913
 7589TIP3    H222701   4.728   5.108   4.866
 7590TIP3   OH222702   4.443   4.747   3.159
 7590TIP3    H122703   4.474   4.683   3.223
 7590TIP3    H222704   4.504   4.740   3.086
 7591TIP3   OH222705   3.671   4.605   5.252
 7591TIP3    H122706   3.686   4.511   5.264
 7591TIP3    H222707   3.586   4.610   5.208
 7592TIP3   OH222708   3.666   4.208   3.462
 7592TIP3    H122709   3.713   4.176   3.539
 7592TIP3    H222710   3.733   4.220   3.395
 7593TIP3   OH222711   4.291   4.684   5.028
 7593TIP3    H122712   4.251   4.704   4.944
 7593TIP3    H222713   4.328   4.596   5.017
 7594TIP3   OH222714   4.186   4.425   3.243
 7594TIP3    H122715   4.175   4.442   3.336
 7594TIP3    H222716   4.188   4.330   3.236
 7595TIP3   OH222717   4.778   4.723   4.659
 7595TIP3    H122718   4.849   4.748   4.601
 7595TIP3    H222719   4.703   4.776   4.630
 7596TIP3   OH222720   3.785   4.345   5.249
 7596TIP3    H122721   3.863   4.327   5.196
 7596TIP3    H222722   3.821   4.364   5.336
 7597TIP3   OH222723   3.851   4.134   3.676
 7597TIP3    H122724   3.819   4.077   3.746
 7597TIP3    H222725   3.901   4.076   3.619
 7598TIP3   OH222726   4.156   4.234   4.925
 7598TIP3    H122727   4.068   4.272   4.927
 7598TIP3    H222728   4.188   4.251   4.837
 7599TIP3   OH222729   3.972   3.954   3.506
 7599TIP3    H122730   3.947   3.959   3.414
 7599TIP3    H222731   4.068   3.958   3.506
 7600TIP3   OH222732   4.662   4.608   5.016
 7600TIP3    H122733   4.725   4.567   4.957
 7600TIP3    H222734   4.655   4.547   5.089
 7601TIP3   OH222735   4.777   4.263   3.187
 7601TIP3    H122736   4.765   4.219   3.103
 7601TIP3    H222737   4.747   4.353   3.171
 7602TIP3   OH222738   4.256   4.001   5.033
 7602TIP3    H122739   4.254   3.926   4.974
 7602TIP3    H222740   4.223   4.074   4.980
 7603TIP3   OH222741   4.255   3.782   4.856
 7603TIP3    H122742   4.279   3.836   4.780
 7603TIP3    H222743   4.165   3.755   4.838
 7604TIP3   OH222744   4.280   4.312   4.696
 7604TIP3    H122745   4.368   4.350   4.690
 7604TIP3    H222746   4.223   4.378   4.658
 7605TIP3   OH222747   4.865   4.284   5.071
 7605TIP3    H122748   4.885   4.191   5.072
 7605TIP3    H222749   4.943   4.325   5.033
 7606TIP3   OH222750   4.895   4.550   4.832
 7606TIP3    H122751   4.844   4.612   4.779
 7606TIP3    H222752   4.984   4.557   4.798
 7607TIP3   OH222753   4.140   4.088   5.273
 7607TIP3    H122754   4.070   4.025   5.289
 7607TIP3    H222755   4.168   4.069   5.183
 7608TIP3   OH222756   4.391   3.554   4.925
 7608TIP3    H122757   4.349   3.636   4.898
 7608TIP3    H222758   4.326   3.486   4.906
 7609TIP3   OH222759   4.514   4.039   5.128
 7609TIP3    H122760   4.500   4.027   5.222
 7609TIP3    H222761   4.429   4.020   5.088
 7610TIP3   OH222762   4.766   4.011   5.008
 7610TIP3    H122763   4.684   4.001   5.057
 7610TIP3    H222764   4.833   3.972   5.065
 7611TIP3   OH222765   4.998   3.953   5.152
 7611TIP3    H122766   5.012   3.858   5.159
 7611TIP3    H222767   4.993   3.983   5.243
 7612TIP3   OH222768   3.972   3.867   5.333
 7612TIP3    H122769   3.979   3.780   5.293
 7612TIP3    H222770   4.012   3.857   5.420
 7613TIP3   OH222771   4.454   3.544   5.191
 7613TIP3    H122772   4.526   3.481   5.185
 7613TIP3    H222773   4.423   3.554   5.100
 7614TIP3   OH222774   4.547   3.761   5.335
 7614TIP3    H122775   4.518   3.691   5.277
 7614TIP3    H222776   4.476   3.825   5.333
 7615TIP3   OH222777   3.799   5.012   3.439
 7615TIP3    H122778   3.888   4.990   3.412
 7615TIP3    H222779   3.762   5.058   3.363
 7616TIP3   OH222780   3.266   4.393   3.625
 7616TIP3    H122781   3.360   4.410   3.615
 7616TIP3    H222782   3.254   4.306   3.587
 7617TIP3   OH222783   3.173   4.982   4.079
 7617TIP3    H122784   3.108   4.929   4.033
 7617TIP3    H222785   3.218   4.921   4.137
 7618TIP3   OH222786   3.321   4.814   4.244
 7618TIP3    H122787   3.312   4.749   4.314
 7618TIP3    H222788   3.371   4.885   4.284
 7619TIP3   OH222789   5.049   5.227   4.063
 7619TIP3    H122790   5.074   5.258   4.150
 7619TIP3    H222791   5.109   5.273   4.004
 7620TIP3   OH222792   5.093   5.279   4.343
 7620TIP3    H122793   5.064   5.189   4.356
 7620TIP3    H222794   5.170   5.288   4.400
 7621TIP3   OH222795   5.118   4.938   4.910
 7621TIP3    H122796   5.046   4.947   4.972
 7621TIP3    H222797   5.159   5.025   4.907
 7622TIP3   OH222798   4.955   4.457   3.537
 7622TIP3    H122799   5.001   4.530   3.495
 7622TIP3    H222800   5.016   4.426   3.604
 7623TIP3   OH222801   5.113   4.355   3.747
 7623TIP3    H122802   5.040   4.369   3.807
 7623TIP3    H222803   5.191   4.381   3.797
 7624TIP3   OH222804   4.954   5.034   4.356
 7624TIP3    H122805   4.886   5.081   4.405
 7624TIP3    H222806   4.908   4.996   4.282
 7625TIP3   OH222807   4.983   4.241   3.367
 7625TIP3    H122808   4.912   4.241   3.304
 7625TIP3    H222809   4.966   4.316   3.424
 7626TIP3   OH222810   4.852   3.886   3.300
 7626TIP3    H122811   4.798   3.923   3.231
 7626TIP3    H222812   4.841   3.792   3.293
 7627TIP3   OH222813   5.150   4.583   4.730
 7627TIP3    H122814   5.213   4.514   4.708
 7627TIP3    H222815   5.175   4.657   4.675
 7628TIP3   OH222816   5.330   4.371   4.720
 7628TIP3    H122817   5.254   4.333   4.765
 7628TIP3    H222818   5.405   4.324   4.756
 7629TIP3   OH222819   4.802   3.615   3.269
 7629TIP3    H122820   4.863   3.590   3.338
 7629TIP3    H222821   4.719   3.574   3.294
 7630TIP3   OH222822   4.854   3.889   3.727
 7630TIP3    H122823   4.901   3.807   3.744
 7630TIP3    H222824   4.907   3.933   3.660
 7631TIP3   OH222825   5.101   4.272   4.523
 7631TIP3    H122826   5.021   4.273   4.575
 7631TIP3    H222827   5.081   4.326   4.447
 7632TIP3   OH222828   3.707   3.926   5.275
 7632TIP3    H122829   3.802   3.922   5.288
 7632TIP3    H222830   3.674   3.845   5.316
 7633TIP3   OH222831   5.553   3.816   5.034
 7633TIP3    H122832   5.616   3.758   4.991
 7633TIP3    H222833   5.515   3.867   4.963
 7634TIP3   OH222834   4.979   3.649   3.793
 7634TIP3    H122835   5.025   3.637   3.876
 7634TIP3    H222836   4.915   3.578   3.790
 7635TIP3   OH222837   3.671   3.644   4.648
 7635TIP3    H122838   3.727   3.566   4.639
 7635TIP3    H222839   3.722   3.714   4.607
 7636TIP3   OH222840   5.409   3.936   4.835
 7636TIP3    H122841   5.323   3.975   4.846
 7636TIP3    H222842   5.395   3.862   4.776
 7637TIP3   OH222843   5.025   3.570   3.432
 7637TIP3    H122844   5.072   3.507   3.377
 7637TIP3    H222845   5.084   3.645   3.438
 7638TIP3   OH222846   3.442   3.364   4.166
 7638TIP3    H122847   3.362   3.373   4.218
 7638TIP3    H222848   3.440   3.439   4.106
 7639TIP3   OH222849   4.604   5.132   3.699
 7639TIP3    H122850   4.661   5.121   3.623
 7639TIP3    H222851   4.648   5.199   3.752
 7640TIP3   OH222852   3.678   3.452   5.009
 7640TIP3    H122853   3.630   3.460   5.092
 7640TIP3    H222854   3.626   3.502   4.946
 7641TIP3   OH222855   3.710   4.920   5.081
 7641TIP3    H122856   3.616   4.904   5.072
 7641TIP3    H222857   3.728   4.907   5.175
 7642TIP3   OH222858   3.915   4.969   4.629
 7642TIP3    H122859   3.864   5.044   4.598
 7642TIP3    H222860   4.000   4.980   4.586
 7643TIP3   OH222861   4.319   5.203   4.771
 7643TIP3    H122862   4.359   5.192   4.857
 7643TIP3    H222863   4.381   5.257   4.722
 7644TIP3   OH222864   4.505   5.361   4.642
 7644TIP3    H122865   4.563   5.311   4.585
 7644TIP3    H222866   4.564   5.415   4.695
 7645TIP3   OH222867   5.317   3.686   4.721
 7645TIP3    H122868   5.227   3.664   4.697
 7645TIP3    H222869   5.364   3.602   4.716
 7646TIP3   OH222870   3.572   5.213   4.673
 7646TIP3    H122871   3.480   5.230   4.653
 7646TIP3    H222872   3.594   5.277   4.741
 7647TIP3   OH222873   3.805   5.200   4.526
 7647TIP3    H122874   3.721   5.205   4.573
 7647TIP3    H222875   3.783   5.225   4.436
 7648TIP3   OH222876   4.215   5.228   4.314
 7648TIP3    H122877   4.142   5.236   4.253
 7648TIP3    H222878   4.219   5.313   4.358
 7649TIP3   OH222879   4.485   5.199   4.367
 7649TIP3    H122880   4.393   5.214   4.344
 7649TIP3    H222881   4.532   5.268   4.321
 7650TIP3   OH222882   4.700   5.353   4.268
 7650TIP3    H122883   4.695   5.437   4.224
 7650TIP3    H222884   4.726   5.291   4.200
 7651TIP3   OH222885   3.489   4.994   4.393
 7651TIP3    H122886   3.508   4.964   4.482
 7651TIP3    H222887   3.562   4.962   4.340
 7652TIP3   OH222888   3.692   4.881   4.252
 7652TIP3    H122889   3.704   4.800   4.301
 7652TIP3    H222890   3.779   4.922   4.253
 7653TIP3   OH222891   3.962   4.962   4.272
 7653TIP3    H122892   3.984   4.870   4.256
 7653TIP3    H222893   4.014   4.986   4.349
 7654TIP3   OH222894   4.570   3.613   4.394
 7654TIP3    H122895   4.494   3.556   4.410
 7654TIP3    H222896   4.619   3.568   4.326
 7655TIP3   OH222897   5.032   3.521   4.243
 7655TIP3    H122898   5.067   3.567   4.167
 7655TIP3    H222899   4.938   3.534   4.239
 7656TIP3   OH222900   5.147   3.611   4.011
 7656TIP3    H122901   5.214   3.549   3.982
 7656TIP3    H222902   5.185   3.697   3.996
 7657TIP3   OH222903   3.764   3.301   4.357
 7657TIP3    H122904   3.674   3.271   4.366
 7657TIP3    H222905   3.816   3.221   4.353
 7658TIP3   OH222906   3.574   3.192   3.994
 7658TIP3    H122907   3.605   3.250   3.924
 7658TIP3    H222908   3.533   3.250   4.057
 7659TIP3   OH222909   4.227   3.353   4.245
 7659TIP3    H122910   4.263   3.395   4.167
 7659TIP3    H222911   4.245   3.415   4.316
 7660TIP3   OH222912   4.752   3.493   4.220
 7660TIP3    H122913   4.747   3.456   4.132
 7660TIP3    H222914   4.749   3.417   4.278
 7661TIP3   OH222915   4.790   3.443   3.798
 7661TIP3    H122916   4.711   3.492   3.819
 7661TIP3    H222917   4.777   3.357   3.838
 7662TIP3   OH222918   3.259   4.787   3.783
 7662TIP3    H122919   3.175   4.751   3.754
 7662TIP3    H222920   3.260   4.876   3.749
 7663TIP3   OH222921   3.688   3.351   3.778
 7663TIP3    H122922   3.739   3.296   3.717
 7663TIP3    H222923   3.751   3.415   3.811
 7664TIP3   OH222924   4.154   3.597   3.898
 7664TIP3    H122925   4.224   3.559   3.951
 7664TIP3    H222926   4.123   3.672   3.949
 7665TIP3   OH222927   4.054   4.940   3.368
 7665TIP3    H122928   4.138   4.966   3.331
 7665TIP3    H222929   4.026   4.866   3.315
 7666TIP3   OH222930   4.758   5.088   3.470
 7666TIP3    H122931   4.755   4.992   3.463
 7666TIP3    H222932   4.715   5.119   3.391
 7667TIP3   OH222933   3.984   3.594   5.244
 7667TIP3    H122934   3.948   3.526   5.302
 7667TIP3    H222935   4.076   3.599   5.268
 7668TIP3   OH222936   4.235   3.592   5.364
 7668TIP3    H122937   4.311   3.581   5.308
 7668TIP3    H222938   4.238   3.517   5.424
 7669TIP3   OH222939   3.364   4.785   3.429
 7669TIP3    H122940   3.367   4.790   3.525
 7669TIP3    H222941   3.445   4.739   3.405
 7670TIP3   OH222942   5.059   3.682   5.156
 7670TIP3    H122943   5.078   3.652   5.245
 7670TIP3    H222944   5.144   3.678   5.112
 7671TIP3   OH222945   4.945   5.217   4.682
 7671TIP3    H122946   4.882   5.192   4.613
 7671TIP3    H222947   4.955   5.311   4.671
 7672TIP3   OH222948   6.263   4.615   3.444
 7672TIP3    H122949   6.225   4.694   3.406
 7672TIP3    H222950   6.204   4.545   3.416
 7673TIP3   OH222951   6.517   4.914   3.490
 7673TIP3    H122952   6.422   4.913   3.504
 7673TIP3    H222953   6.547   4.996   3.529
 7674TIP3   OH222954   5.537   4.886   3.851
 7674TIP3    H122955   5.512   4.832   3.775
 7674TIP3    H222956   5.631   4.901   3.839
 7675TIP3   OH222957   5.236   4.100   3.669
 7675TIP3    H122958   5.200   4.186   3.689
 7675TIP3    H222959   5.166   4.055   3.621
 7676TIP3   OH222960   6.172   5.347   3.488
 7676TIP3    H122961   6.201   5.273   3.434
 7676TIP3    H222962   6.125   5.306   3.561
 7677TIP3   OH222963   7.077   4.136   3.830
 7677TIP3    H122964   7.095   4.221   3.871
 7677TIP3    H222965   7.110   4.145   3.741
 7678TIP3   OH222966   6.525   4.298   3.860
 7678TIP3    H122967   6.554   4.217   3.901
 7678TIP3    H222968   6.474   4.269   3.784
 7679TIP3   OH222969   6.517   4.090   3.454
 7679TIP3    H122970   6.580   4.077   3.525
 7679TIP3    H222971   6.571   4.116   3.379
 7680TIP3   OH222972   7.131   4.344   4.016
 7680TIP3    H122973   7.057   4.398   3.990
 7680TIP3    H222974   7.105   4.304   4.098
 7681TIP3   OH222975   5.788   3.985   4.255
 7681TIP3    H122976   5.744   4.021   4.177
 7681TIP3    H222977   5.726   4.002   4.326
 7682TIP3   OH222978   6.130   4.813   3.299
 7682TIP3    H122979   6.105   4.790   3.209
 7682TIP3    H222980   6.087   4.896   3.315
 7683TIP3   OH222981   5.931   4.755   4.081
 7683TIP3    H122982   5.863   4.818   4.103
 7683TIP3    H222983   5.896   4.706   4.006
 7684TIP3   OH222984   6.685   4.096   3.667
 7684TIP3    H122985   6.663   4.055   3.751
 7684TIP3    H222986   6.738   4.172   3.690
 7685TIP3   OH222987   5.657   4.085   4.026
 7685TIP3    H122988   5.710   4.164   4.022
 7685TIP3    H222989   5.608   4.084   3.944
 7686TIP3   OH222990   5.735   4.945   4.154
 7686TIP3    H122991   5.722   5.034   4.121
 7686TIP3    H222992   5.656   4.926   4.205
 7687TIP3   OH222993   5.110   4.649   3.401
 7687TIP3    H122994   5.077   4.667   3.313
 7687TIP3    H222995   5.132   4.735   3.437
 7688TIP3   OH222996   6.563   5.148   3.638
 7688TIP3    H122997   6.480   5.142   3.686
 7688TIP3    H222998   6.559   5.234   3.595
 7689TIP3   OH222999   6.871   4.041   4.012
 7689TIP3    H123000   6.781   4.048   3.981
 7689TIP3    H223001   6.924   4.062   3.935
 7690TIP3   OH223002   6.133   3.658   4.008
 7690TIP3    H123003   6.122   3.567   4.037
 7690TIP3    H223004   6.058   3.704   4.048
 7691TIP3   OH223005   6.268   5.174   3.289
 7691TIP3    H123006   6.318   5.095   3.268
 7691TIP3    H223007   6.326   5.246   3.265
 7692TIP3   OH223008   6.425   4.961   3.222
 7692TIP3    H123009   6.423   4.886   3.163
 7692TIP3    H223010   6.478   4.932   3.297
 7693TIP3   OH223011   6.817   5.053   3.995
 7693TIP3    H123012   6.799   4.984   3.931
 7693TIP3    H223013   6.799   5.134   3.948
 7694TIP3   OH223014   6.089   4.482   3.260
 7694TIP3    H123015   6.019   4.519   3.207
 7694TIP3    H223016   6.144   4.434   3.198
 7695TIP3   OH223017   6.045   4.255   2.948
 7695TIP3    H123018   6.109   4.297   3.004
 7695TIP3    H223019   6.093   4.185   2.904
 7696TIP3   OH223020   6.967   4.708   3.837
 7696TIP3    H123021   6.885   4.757   3.833
 7696TIP3    H223022   7.005   4.715   3.749
 7697TIP3   OH223023   6.431   4.546   3.222
 7697TIP3    H123024   6.380   4.571   3.300
 7697TIP3    H223025   6.513   4.512   3.257
 7698TIP3   OH223026   6.682   4.567   4.166
 7698TIP3    H123027   6.681   4.648   4.216
 7698TIP3    H223028   6.598   4.567   4.120
 7699TIP3   OH223029   5.789   4.917   3.740
 7699TIP3    H123030   5.763   4.864   3.665
 7699TIP3    H223031   5.881   4.894   3.754
 7700TIP3   OH223032   6.339   5.141   3.792
 7700TIP3    H123033   6.314   5.232   3.808
 7700TIP3    H223034   6.322   5.096   3.874
 7701TIP3   OH223035   5.929   5.054   4.321
 7701TIP3    H123036   5.868   5.114   4.364
 7701TIP3    H223037   5.874   5.000   4.264
 7702TIP3   OH223038   6.270   4.386   3.061
 7702TIP3    H123039   6.328   4.447   3.107
 7702TIP3    H223040   6.297   4.393   2.969
 7703TIP3   OH223041   5.690   4.622   4.435
 7703TIP3    H123042   5.682   4.712   4.466
 7703TIP3    H223043   5.600   4.591   4.430
 7704TIP3   OH223044   6.016   5.066   3.319
 7704TIP3    H123045   6.100   5.111   3.309
 7704TIP3    H223046   5.955   5.119   3.268
 7705TIP3   OH223047   5.714   5.229   4.393
 7705TIP3    H123048   5.708   5.233   4.297
 7705TIP3    H223049   5.625   5.244   4.423
 7706TIP3   OH223050   6.777   3.624   3.103
 7706TIP3    H123051   6.700   3.644   3.156
 7706TIP3    H223052   6.789   3.701   3.048
 7707TIP3   OH223053   5.541   4.355   3.399
 7707TIP3    H123054   5.457   4.393   3.374
 7707TIP3    H223055   5.521   4.267   3.428
 7708TIP3   OH223056   6.601   4.997   2.652
 7708TIP3    H123057   6.598   5.091   2.632
 7708TIP3    H223058   6.692   4.971   2.633
 7709TIP3   OH223059   5.320   4.741   4.352
 7709TIP3    H123060   5.253   4.708   4.293
 7709TIP3    H223061   5.351   4.664   4.399
 7710TIP3   OH223062   5.175   4.978   3.980
 7710TIP3    H123063   5.261   4.996   4.018
 7710TIP3    H223064   5.116   5.039   4.024
 7711TIP3   OH223065   7.028   5.445   4.053
 7711TIP3    H123066   7.054   5.353   4.055
 7711TIP3    H223067   6.942   5.447   4.094
 7712TIP3   OH223068   6.120   5.185   4.169
 7712TIP3    H123069   6.119   5.277   4.198
 7712TIP3    H223070   6.054   5.142   4.223
 7713TIP3   OH223071   5.910   5.309   3.129
 7713TIP3    H123072   5.859   5.289   3.051
 7713TIP3    H223073   5.872   5.389   3.164
 7714TIP3   OH223074   5.342   5.151   3.510
 7714TIP3    H123075   5.389   5.144   3.593
 7714TIP3    H223076   5.301   5.065   3.498
 7715TIP3   OH223077   6.108   5.220   2.757
 7715TIP3    H123078   6.159   5.147   2.723
 7715TIP3    H223079   6.143   5.235   2.845
 7716TIP3   OH223080   6.162   5.269   3.026
 7716TIP3    H123081   6.076   5.279   3.067
 7716TIP3    H223082   6.218   5.234   3.096
 7717TIP3   OH223083   6.928   4.524   4.315
 7717TIP3    H123084   6.845   4.524   4.267
 7717TIP3    H223085   6.945   4.432   4.334
 7718TIP3   OH223086   5.513   4.941   4.320
 7718TIP3    H123087   5.562   4.933   4.402
 7718TIP3    H223088   5.441   4.879   4.329
 7719TIP3   OH223089   5.900   3.758   4.134
 7719TIP3    H123090   5.816   3.724   4.103
 7719TIP3    H223091   5.879   3.845   4.168
 7720TIP3   OH223092   6.443   3.890   4.324
 7720TIP3    H123093   6.512   3.859   4.383
 7720TIP3    H223094   6.361   3.863   4.367
 7721TIP3   OH223095   6.694   4.305   4.268
 7721TIP3    H123096   6.648   4.301   4.351
 7721TIP3    H223097   6.668   4.390   4.231
 7722TIP3   OH223098   6.346   4.390   2.794
 7722TIP3    H123099   6.301   4.385   2.709
 7722TIP3    H223100   6.429   4.433   2.775
 7723TIP3   OH223101   6.058   3.800   3.104
 7723TIP3    H123102   6.029   3.807   3.195
 7723TIP3    H223103   6.018   3.718   3.073
 7724TIP3   OH223104   5.842   4.297   4.117
 7724TIP3    H123105   5.775   4.307   4.184
 7724TIP3    H223106   5.829   4.373   4.059
 7725TIP3   OH223107   6.394   4.514   4.452
 7725TIP3    H123108   6.363   4.443   4.508
 7725TIP3    H223109   6.485   4.527   4.477
 7726TIP3   OH223110   6.381   4.263   3.622
 7726TIP3    H123111   6.287   4.245   3.619
 7726TIP3    H223112   6.420   4.199   3.562
 7727TIP3   OH223113   5.671   4.295   4.341
 7727TIP3    H123114   5.743   4.337   4.387
 7727TIP3    H223115   5.655   4.214   4.390
 7728TIP3   OH223116   5.721   3.783   3.065
 7728TIP3    H123117   5.715   3.775   3.161
 7728TIP3    H223118   5.643   3.831   3.040
 7729TIP3   OH223119   5.264   3.849   3.950
 7729TIP3    H123120   5.342   3.867   4.002
 7729TIP3    H223121   5.294   3.856   3.859
 7730TIP3   OH223122   5.188   3.798   3.447
 7730TIP3    H123123   5.237   3.831   3.372
 7730TIP3    H223124   5.131   3.871   3.473
 7731TIP3   OH223125   5.494   4.032   3.798
 7731TIP3    H123126   5.418   4.055   3.745
 7731TIP3    H223127   5.533   3.958   3.752
 7732TIP3   OH223128   5.784   3.997   3.397
 7732TIP3    H123129   5.829   4.056   3.457
 7732TIP3    H223130   5.733   4.054   3.340
 7733TIP3   OH223131   6.585   4.045   3.955
 7733TIP3    H123132   6.548   4.075   4.038
 7733TIP3    H223133   6.523   3.980   3.923
 7734TIP3   OH223134   5.613   4.086   3.184
 7734TIP3    H123135   5.550   4.031   3.138
 7734TIP3    H223136   5.672   4.118   3.116
 7735TIP3   OH223137   6.736   5.747   4.138
 7735TIP3    H123138   6.728   5.768   4.045
 7735TIP3    H223139   6.813   5.796   4.167
 7736TIP3   OH223140   5.668   4.875   4.556
 7736TIP3    H123141   5.747   4.898   4.605
 7736TIP3    H223142   5.599   4.871   4.622
 7737TIP3   OH223143   5.611   3.804   3.697
 7737TIP3    H123144   5.592   3.721   3.742
 7737TIP3    H223145   5.704   3.799   3.677
 7738TIP3   OH223146   6.103   4.208   4.122
 7738TIP3    H123147   6.014   4.242   4.113
 7738TIP3    H223148   6.156   4.284   4.142
 7739TIP3   OH223149   5.813   4.615   3.194
 7739TIP3    H123150   5.753   4.545   3.169
 7739TIP3    H223151   5.825   4.604   3.288
 7740TIP3   OH223152   6.750   4.874   3.794
 7740TIP3    H123153   6.805   4.919   3.730
 7740TIP3    H223154   6.664   4.869   3.753
 7741TIP3   OH223155   6.295   3.911   3.028
 7741TIP3    H123156   6.212   3.884   3.066
 7741TIP3    H223157   6.319   3.989   3.077
 7742TIP3   OH223158   6.241   4.914   4.160
 7742TIP3    H123159   6.242   4.882   4.250
 7742TIP3    H223160   6.190   4.995   4.163
 7743TIP3   OH223161   6.385   4.139   3.145
 7743TIP3    H123162   6.474   4.159   3.175
 7743TIP3    H223163   6.346   4.225   3.129
 7744TIP3   OH223164   5.995   4.753   3.044
 7744TIP3    H123165   5.958   4.841   3.040
 7744TIP3    H223166   5.930   4.703   3.094
 7745TIP3   OH223167   5.421   4.538   4.507
 7745TIP3    H123168   5.474   4.559   4.584
 7745TIP3    H223169   5.374   4.458   4.533
 7746TIP3   OH223170   6.175   4.682   4.483
 7746TIP3    H123171   6.119   4.649   4.413
 7746TIP3    H223172   6.258   4.635   4.471
 7747TIP3   OH223173   6.396   5.192   4.103
 7747TIP3    H123174   6.301   5.183   4.113
 7747TIP3    H223175   6.425   5.238   4.182
 7748TIP3   OH223176   6.791   4.252   2.987
 7748TIP3    H123177   6.737   4.205   2.924
 7748TIP3    H223178   6.794   4.342   2.953
 7749TIP3   OH223179   7.076   5.164   4.073
 7749TIP3    H123180   6.988   5.141   4.103
 7749TIP3    H223181   7.083   5.123   3.987
 7750TIP3   OH223182   6.529   5.073   2.914
 7750TIP3    H123183   6.496   5.003   2.971
 7750TIP3    H223184   6.546   5.029   2.830
 7751TIP3   OH223185   5.215   4.226   3.221
 7751TIP3    H123186   5.260   4.307   3.243
 7751TIP3    H223187   5.136   4.227   3.274
 7752TIP3   OH223188   5.940   5.263   3.954
 7752TIP3    H123189   5.971   5.340   3.906
 7752TIP3    H223190   6.014   5.238   4.009
 7753TIP3   OH223191   5.545   5.196   3.325
 7753TIP3    H123192   5.474   5.187   3.388
 7753TIP3    H223193   5.582   5.282   3.344
 7754TIP3   OH223194   6.393   4.817   3.947
 7754TIP3    H123195   6.320   4.839   4.004
 7754TIP3    H223196   6.468   4.863   3.986
 7755TIP3   OH223197   6.290   4.805   2.817
 7755TIP3    H123198   6.333   4.786   2.901
 7755TIP3    H223199   6.205   4.763   2.824
 7756TIP3   OH223200   6.544   5.430   3.974
 7756TIP3    H123201   6.466   5.375   3.979
 7756TIP3    H223202   6.527   5.491   3.903
 7757TIP3   OH223203   6.601   5.271   2.616
 7757TIP3    H123204   6.615   5.330   2.542
 7757TIP3    H223205   6.531   5.313   2.667
 7758TIP3   OH223206   5.625   4.051   4.478
 7758TIP3    H123207   5.531   4.061   4.493
 7758TIP3    H223208   5.654   3.988   4.544
 7759TIP3   OH223209   6.458   4.751   3.038
 7759TIP3    H123210   6.440   4.678   3.097
 7759TIP3    H223211   6.551   4.744   3.017
 7760TIP3   OH223212   5.367   5.155   4.132
 7760TIP3    H123213   5.416   5.098   4.191
 7760TIP3    H223214   5.375   5.243   4.170
 7761TIP3   OH223215   5.641   4.769   2.817
 7761TIP3    H123216   5.651   4.678   2.791
 7761TIP3    H223217   5.621   4.766   2.911
 7762TIP3   OH223218   5.587   4.782   3.089
 7762TIP3    H123219   5.667   4.752   3.133
 7762TIP3    H223220   5.588   4.877   3.100
 7763TIP3   OH223221   5.309   4.477   3.305
 7763TIP3    H123222   5.241   4.523   3.354
 7763TIP3    H223223   5.329   4.535   3.231
 7764TIP3   OH223224   6.473   4.138   4.196
 7764TIP3    H123225   6.555   4.165   4.237
 7764TIP3    H223226   6.451   4.055   4.238
 7765TIP3   OH223227   6.372   3.869   3.369
 7765TIP3    H123228   6.328   3.898   3.290
 7765TIP3    H223229   6.412   3.948   3.405
 7766TIP3   OH223230   5.859   4.988   3.041
 7766TIP3    H123231   5.771   5.006   3.074
 7766TIP3    H223232   5.878   5.061   2.983
 7767TIP3   OH223233   6.311   4.387   4.198
 7767TIP3    H123234   6.337   4.421   4.283
 7767TIP3    H223235   6.356   4.303   4.191
 7768TIP3   OH223236   6.160   3.808   3.573
 7768TIP3    H123237   6.112   3.887   3.598
 7768TIP3    H223238   6.234   3.840   3.522
 7769TIP3   OH223239   5.599   5.056   3.101
 7769TIP3    H123240   5.578   5.121   3.035
 7769TIP3    H223241   5.580   5.099   3.185
 7770TIP3   OH223242   5.699   3.740   3.336
 7770TIP3    H123243   5.699   3.829   3.371
 7770TIP3    H223244   5.787   3.708   3.353
 7771TIP3   OH223245   6.947   4.230   4.206
 7771TIP3    H123246   6.858   4.253   4.235
 7771TIP3    H223247   6.934   4.161   4.142
 7772TIP3   OH223248   6.587   4.448   3.615
 7772TIP3    H123249   6.519   4.380   3.612
 7772TIP3    H223250   6.660   4.406   3.661
 7773TIP3   OH223251   5.336   4.656   3.091
 7773TIP3    H123252   5.407   4.720   3.099
 7773TIP3    H223253   5.368   4.594   3.026
 7774TIP3   OH223254   5.247   3.948   3.222
 7774TIP3    H123255   5.260   4.042   3.228
 7774TIP3    H223256   5.170   3.937   3.167
 7775TIP3   OH223257   6.578   5.414   3.557
 7775TIP3    H123258   6.534   5.463   3.487
 7775TIP3    H223259   6.671   5.428   3.541
 7776TIP3   OH223260   5.640   3.669   4.093
 7776TIP3    H123261   5.614   3.641   4.005
 7776TIP3    H223262   5.628   3.592   4.147
 7777TIP3   OH223263   5.168   4.915   3.487
 7777TIP3    H123264   5.133   4.959   3.564
 7777TIP3    H223265   5.129   4.961   3.412
 7778TIP3   OH223266   5.833   5.331   4.622
 7778TIP3    H123267   5.927   5.320   4.610
 7778TIP3    H223268   5.794   5.302   4.540
 7779TIP3   OH223269   5.797   4.972   2.714
 7779TIP3    H123270   5.749   4.901   2.757
 7779TIP3    H223271   5.872   4.929   2.673
 7780TIP3   OH223272   6.458   5.308   4.345
 7780TIP3    H123273   6.471   5.241   4.412
 7780TIP3    H223274   6.528   5.371   4.361
 7781TIP3   OH223275   6.237   5.009   2.638
 7781TIP3    H123276   6.272   4.945   2.701
 7781TIP3    H223277   6.297   5.004   2.563
 7782TIP3   OH223278   5.471   4.836   4.745
 7782TIP3    H123279   5.495   4.744   4.745
 7782TIP3    H223280   5.383   4.838   4.707
 7783TIP3   OH223281   5.461   4.468   2.938
 7783TIP3    H123282   5.513   4.442   3.014
 7783TIP3    H223283   5.526   4.480   2.868
 7784TIP3   OH223284   6.071   4.940   4.531
 7784TIP3    H123285   6.028   4.962   4.448
 7784TIP3    H223286   6.113   4.856   4.515
 7785TIP3   OH223287   6.029   4.691   2.776
 7785TIP3    H123288   6.006   4.703   2.868
 7785TIP3    H223289   6.012   4.599   2.759
 7786TIP3   OH223290   6.572   4.971   4.102
 7786TIP3    H123291   6.652   5.014   4.074
 7786TIP3    H223292   6.508   5.042   4.107
 7787TIP3   OH223293   5.593   4.587   4.717
 7787TIP3    H123294   5.674   4.556   4.676
 7787TIP3    H223295   5.615   4.596   4.810
 7788TIP3   OH223296   5.641   4.407   3.144
 7788TIP3    H123297   5.614   4.374   3.230
 7788TIP3    H223298   5.685   4.332   3.103
 7789TIP3   OH223299   5.898   4.451   4.407
 7789TIP3    H123300   5.829   4.516   4.420
 7789TIP3    H223301   5.958   4.492   4.345
 7790TIP3   OH223302   5.772   4.213   2.996
 7790TIP3    H123303   5.744   4.216   2.904
 7790TIP3    H223304   5.867   4.220   2.992
 7791TIP3   OH223305   6.461   4.867   4.509
 7791TIP3    H123306   6.518   4.823   4.447
 7791TIP3    H223307   6.457   4.809   4.585
 7792TIP3   OH223308   6.569   4.512   2.679
 7792TIP3    H123309   6.556   4.469   2.594
 7792TIP3    H223310   6.543   4.603   2.663
 7793TIP3   OH223311   6.053   4.254   4.515
 7793TIP3    H123312   6.051   4.175   4.461
 7793TIP3    H223313   6.000   4.318   4.467
 7794TIP3   OH223314   6.046   4.042   4.330
 7794TIP3    H123315   6.080   4.086   4.253
 7794TIP3    H223316   5.955   4.020   4.308
 7795TIP3   OH223317   6.074   4.587   4.245
 7795TIP3    H123318   6.138   4.541   4.190
 7795TIP3    H223319   6.030   4.647   4.185
 7796TIP3   OH223320   6.658   4.539   4.559
 7796TIP3    H123321   6.665   4.444   4.556
 7796TIP3    H223322   6.749   4.570   4.550
 7797TIP3   OH223323   6.694   4.815   4.297
 7797TIP3    H123324   6.640   4.871   4.241
 7797TIP3    H223325   6.783   4.831   4.268
 7798TIP3   OH223326   5.940   4.349   4.759
 7798TIP3    H123327   5.873   4.284   4.779
 7798TIP3    H223328   5.967   4.328   4.669
 7799TIP3   OH223329   6.184   3.817   4.411
 7799TIP3    H123330   6.139   3.896   4.382
 7799TIP3    H223331   6.121   3.746   4.396
 7800TIP3   OH223332   6.309   4.304   4.609
 7800TIP3    H123333   6.297   4.290   4.703
 7800TIP3    H223334   6.224   4.281   4.570
 7801TIP3   OH223335   6.569   4.275   4.505
 7801TIP3    H123336   6.484   4.262   4.547
 7801TIP3    H223337   6.631   4.227   4.560
 7802TIP3   OH223338   6.803   4.207   4.641
 7802TIP3    H123339   6.813   4.113   4.648
 7802TIP3    H223340   6.796   4.237   4.732
 7803TIP3   OH223341   5.784   4.120   4.816
 7803TIP3    H123342   5.785   4.034   4.775
 7803TIP3    H223343   5.822   4.106   4.903
 7804TIP3   OH223344   6.252   3.804   4.676
 7804TIP3    H123345   6.321   3.737   4.671
 7804TIP3    H223346   6.221   3.813   4.587
 7805TIP3   OH223347   6.346   4.021   4.819
 7805TIP3    H123348   6.317   3.948   4.764
 7805TIP3    H223349   6.273   4.083   4.817
 7806TIP3   OH223350   5.588   5.256   2.911
 7806TIP3    H123351   5.682   5.244   2.893
 7806TIP3    H223352   5.556   5.308   2.838
 7807TIP3   OH223353   5.061   4.648   3.112
 7807TIP3    H123354   5.155   4.662   3.106
 7807TIP3    H223355   5.047   4.562   3.071
 7808TIP3   OH223356   4.966   5.238   3.563
 7808TIP3    H123357   4.900   5.185   3.518
 7808TIP3    H223358   5.012   5.176   3.619
 7809TIP3   OH223359   5.119   5.074   3.725
 7809TIP3    H123360   5.119   5.009   3.795
 7809TIP3    H223361   5.164   5.150   3.762
 7810TIP3   OH223362   6.847   5.471   3.542
 7810TIP3    H123363   6.866   5.505   3.630
 7810TIP3    H223364   6.891   5.533   3.483
 7811TIP3   OH223365   6.861   5.512   3.824
 7811TIP3    H123366   6.819   5.425   3.822
 7811TIP3    H223367   6.933   5.502   3.885
 7812TIP3   OH223368   6.932   5.210   4.390
 7812TIP3    H123369   6.858   5.217   4.451
 7812TIP3    H223370   6.974   5.296   4.394
 7813TIP3   OH223371   6.734   4.721   3.007
 7813TIP3    H123372   6.794   4.789   2.976
 7813TIP3    H223373   6.779   4.681   3.081
 7814TIP3   OH223374   6.859   4.577   3.207
 7814TIP3    H123375   6.792   4.536   3.262
 7814TIP3    H223376   6.925   4.610   3.269
 7815TIP3   OH223377   6.930   4.989   3.630
 7815TIP3    H123378   6.980   4.919   3.587
 7815TIP3    H223379   6.929   5.061   3.566
 7816TIP3   OH223380   6.727   5.265   3.841
 7816TIP3    H123381   6.656   5.312   3.885
 7816TIP3    H223382   6.685   5.223   3.765
 7817TIP3   OH223383   6.779   4.495   2.854
 7817TIP3    H123384   6.707   4.492   2.791
 7817TIP3    H223385   6.761   4.572   2.907
 7818TIP3   OH223386   6.647   4.139   2.783
 7818TIP3    H123387   6.593   4.174   2.713
 7818TIP3    H223388   6.636   4.044   2.776
 7819TIP3   OH223389   6.658   4.438   3.343
 7819TIP3    H123390   6.666   4.343   3.327
 7819TIP3    H223391   6.640   4.445   3.437
 7820TIP3   OH223392   6.950   4.859   4.198
 7820TIP3    H123393   7.021   4.795   4.186
 7820TIP3    H223394   6.945   4.906   4.115
 7821TIP3   OH223395   7.142   4.655   4.206
 7821TIP3    H123396   7.066   4.609   4.241
 7821TIP3    H223397   7.217   4.601   4.233
 7822TIP3   OH223398   6.601   3.867   2.756
 7822TIP3    H123399   6.658   3.843   2.829
 7822TIP3    H223400   6.516   3.827   2.778
 7823TIP3   OH223401   6.670   4.166   3.231
 7823TIP3    H123402   6.712   4.081   3.245
 7823TIP3    H223403   6.711   4.200   3.151
 7824TIP3   OH223404   6.815   4.334   3.735
 7824TIP3    H123405   6.899   4.352   3.693
 7824TIP3    H223406   6.826   4.365   3.825
 7825TIP3   OH223407   6.890   4.477   3.969
 7825TIP3    H123408   6.823   4.505   4.031
 7825TIP3    H223409   6.916   4.558   3.924
 7826TIP3   OH223410   5.522   4.201   4.818
 7826TIP3    H123411   5.616   4.181   4.807
 7826TIP3    H223412   5.482   4.115   4.833
 7827TIP3   OH223413   7.342   4.083   4.513
 7827TIP3    H123414   7.405   4.020   4.477
 7827TIP3    H223415   7.311   4.132   4.436
 7828TIP3   OH223416   6.775   3.911   3.280
 7828TIP3    H123417   6.818   3.896   3.364
 7828TIP3    H223418   6.709   3.842   3.273
 7829TIP3   OH223419   5.476   3.895   4.115
 7829TIP3    H123420   5.534   3.819   4.116
 7829TIP3    H223421   5.532   3.967   4.086
 7830TIP3   OH223422   7.208   4.199   4.302
 7830TIP3    H123423   7.119   4.230   4.322
 7830TIP3    H223424   7.194   4.116   4.255
 7831TIP3   OH223425   6.825   3.827   2.921
 7831TIP3    H123426   6.871   3.764   2.865
 7831TIP3    H223427   6.882   3.903   2.925
 7832TIP3   OH223428   5.238   3.643   3.668
 7832TIP3    H123429   5.152   3.644   3.708
 7832TIP3    H223430   5.233   3.709   3.598
 7833TIP3   OH223431   6.418   5.374   3.191
 7833TIP3    H123432   6.471   5.369   3.112
 7833TIP3    H223433   6.451   5.451   3.238
 7834TIP3   OH223434   5.484   3.754   4.495
 7834TIP3    H123435   5.417   3.744   4.562
 7834TIP3    H223436   5.447   3.815   4.432
 7835TIP3   OH223437   5.719   5.221   4.113
 7835TIP3    H123438   5.662   5.292   4.081
 7835TIP3    H223439   5.800   5.232   4.063
 7836TIP3   OH223440   6.121   5.450   4.252
 7836TIP3    H123441   6.158   5.446   4.340
 7836TIP3    H223442   6.180   5.507   4.203
 7837TIP3   OH223443   6.306   5.612   4.127
 7837TIP3    H123444   6.371   5.568   4.071
 7837TIP3    H223445   6.358   5.670   4.183
 7838TIP3   OH223446   7.113   3.933   4.219
 7838TIP3    H123447   7.023   3.913   4.192
 7838TIP3    H223448   7.159   3.849   4.213
 7839TIP3   OH223449   5.370   5.447   4.166
 7839TIP3    H123450   5.284   5.481   4.143
 7839TIP3    H223451   5.390   5.486   4.252
 7840TIP3   OH223452   5.601   5.447   4.012
 7840TIP3    H123453   5.518   5.454   4.061
 7840TIP3    H223454   5.579   5.479   3.925
 7841TIP3   OH223455   6.021   5.476   3.792
 7841TIP3    H123456   5.963   5.491   3.717
 7841TIP3    H223457   6.035   5.562   3.830
 7842TIP3   OH223458   6.286   5.407   3.837
 7842TIP3    H123459   6.194   5.427   3.821
 7842TIP3    H223460   6.334   5.477   3.793
 7843TIP3   OH223461   6.493   5.590   3.753
 7843TIP3    H123462   6.482   5.676   3.713
 7843TIP3    H223463   6.520   5.533   3.681
 7844TIP3   OH223464   5.279   5.261   3.885
 7844TIP3    H123465   5.303   5.234   3.974
 7844TIP3    H223466   5.350   5.227   3.830
 7845TIP3   OH223467   5.480   5.140   3.750
 7845TIP3    H123468   5.490   5.057   3.797
 7845TIP3    H223469   5.568   5.178   3.748
 7846TIP3   OH223470   5.750   5.206   3.757
 7846TIP3    H123471   5.770   5.115   3.737
 7846TIP3    H223472   5.809   5.229   3.829
 7847TIP3   OH223473   6.379   3.875   3.890
 7847TIP3    H123474   6.288   3.845   3.891
 7847TIP3    H223475   6.417   3.833   3.813
 7848TIP3   OH223476   6.827   3.779   3.739
 7848TIP3    H123477   6.862   3.827   3.663
 7848TIP3    H223478   6.732   3.787   3.730
 7849TIP3   OH223479   6.935   3.859   3.500
 7849TIP3    H123480   7.005   3.800   3.472
 7849TIP3    H223481   6.971   3.947   3.486
 7850TIP3   OH223482   5.562   3.568   3.847
 7850TIP3    H123483   5.472   3.537   3.854
 7850TIP3    H223484   5.614   3.489   3.838
 7851TIP3   OH223485   5.358   3.459   3.494
 7851TIP3    H123486   5.391   3.513   3.422
 7851TIP3    H223487   5.326   3.521   3.558
 7852TIP3   OH223488   6.038   3.617   3.740
 7852TIP3    H123489   6.068   3.687   3.683
 7852TIP3    H223490   6.072   3.641   3.827
 7853TIP3   OH223491   6.551   3.756   3.702
 7853TIP3    H123492   6.537   3.721   3.614
 7853TIP3    H223493   6.545   3.680   3.760
 7854TIP3   OH223494   6.584   3.705   3.285
 7854TIP3    H123495   6.506   3.755   3.310
 7854TIP3    H223496   6.570   3.619   3.324
 7855TIP3   OH223497   5.056   5.043   3.271
 7855TIP3    H123498   4.972   5.008   3.242
 7855TIP3    H223499   5.058   5.132   3.238
 7856TIP3   OH223500   5.474   3.596   3.261
 7856TIP3    H123501   5.520   3.535   3.204
 7856TIP3    H223502   5.544   3.650   3.299
 7857TIP3   OH223503   5.976   3.802   3.365
 7857TIP3    H123504   6.035   3.796   3.440
 7857TIP3    H223505   5.920   3.878   3.384
 7858TIP3   OH223506   5.852   5.199   2.857
 7858TIP3    H123507   5.936   5.227   2.821
 7858TIP3    H223508   5.824   5.126   2.801
 7859TIP3   OH223509   6.560   5.341   2.955
 7859TIP3    H123510   6.554   5.246   2.945
 7859TIP3    H223511   6.514   5.376   2.879
 7860TIP3   OH223512   5.787   3.847   4.734
 7860TIP3    H123513   5.751   3.781   4.794
 7860TIP3    H223514   5.879   3.854   4.760
 7861TIP3   OH223515   6.035   3.857   4.857
 7861TIP3    H123516   6.111   3.834   4.804
 7861TIP3    H223517   6.028   3.786   4.921
 7862TIP3   OH223518   5.155   5.042   2.917
 7862TIP3    H123519   5.160   5.055   3.012
 7862TIP3    H223520   5.236   4.997   2.895
 7863TIP3   OH223521   6.854   3.935   4.641
 7863TIP3    H123522   6.871   3.906   4.731
 7863TIP3    H223523   6.940   3.932   4.598
 7864TIP3   OH223524   6.766   5.472   4.145
 7864TIP3    H123525   6.692   5.444   4.092
 7864TIP3    H223526   6.757   5.567   4.151
 7865TIP3   OH223527   8.057   4.868   2.877
 7865TIP3    H123528   8.018   4.955   2.867
 7865TIP3    H223529   7.985   4.808   2.857
 7866TIP3   OH223530   7.990   4.855   3.300
 7866TIP3    H123531   8.045   4.849   3.378
 7866TIP3    H223532   7.956   4.766   3.288
 7867TIP3   OH223533   7.344   4.725   3.667
 7867TIP3    H123534   7.381   4.666   3.733
 7867TIP3    H223535   7.418   4.749   3.612
 7868TIP3   OH223536   8.300   5.131   2.987
 7868TIP3    H123537   8.286   5.090   3.073
 7868TIP3    H223538   8.310   5.224   3.006
 7869TIP3   OH223539   7.337   5.158   3.366
 7869TIP3    H123540   7.320   5.064   3.365
 7869TIP3    H223541   7.430   5.166   3.344
 7870TIP3   OH223542   7.020   4.355   3.128
 7870TIP3    H123543   6.978   4.437   3.152
 7870TIP3    H223544   6.950   4.303   3.089
 7871TIP3   OH223545   7.091   4.652   3.346
 7871TIP3    H123546   7.141   4.574   3.371
 7871TIP3    H223547   7.155   4.708   3.302
 7872TIP3   OH223548   7.965   5.600   3.001
 7872TIP3    H123549   7.994   5.530   2.943
 7872TIP3    H223550   7.982   5.567   3.089
 7873TIP3   OH223551   7.830   5.080   3.308
 7873TIP3    H123552   7.870   4.997   3.283
 7873TIP3    H223553   7.904   5.134   3.338
 7874TIP3   OH223554   8.220   4.580   3.335
 7874TIP3    H123555   8.217   4.503   3.391
 7874TIP3    H223556   8.156   4.562   3.265
 7875TIP3   OH223557   7.591   4.230   3.318
 7875TIP3    H123558   7.569   4.300   3.256
 7875TIP3    H223559   7.544   4.154   3.283
 7876TIP3   OH223560   8.251   4.343   2.939
 7876TIP3    H123561   8.297   4.300   3.011
 7876TIP3    H223562   8.267   4.437   2.953
 7877TIP3   OH223563   7.237   4.436   3.434
 7877TIP3    H123564   7.318   4.415   3.481
 7877TIP3    H223565   7.240   4.383   3.355
 7878TIP3   OH223566   7.641   4.641   3.258
 7878TIP3    H123567   7.735   4.626   3.267
 7878TIP3    H223568   7.607   4.559   3.222
 7879TIP3   OH223569   7.582   4.240   3.775
 7879TIP3    H123570   7.529   4.272   3.702
 7879TIP3    H223571   7.527   4.254   3.852
 7880TIP3   OH223572   7.929   5.083   2.748
 7880TIP3    H123573   7.889   5.052   2.667
 7880TIP3    H223574   7.875   5.158   2.774
 7881TIP3   OH223575   7.692   5.003   3.534
 7881TIP3    H123576   7.639   5.075   3.568
 7881TIP3    H223577   7.735   5.040   3.457
 7882TIP3   OH223578   7.472   4.333   3.540
 7882TIP3    H123579   7.528   4.408   3.559
 7882TIP3    H223580   7.516   4.289   3.467
 7883TIP3   OH223581   7.538   5.207   3.640
 7883TIP3    H123582   7.518   5.293   3.602
 7883TIP3    H223583   7.463   5.186   3.694
 7884TIP3   OH223584   6.911   4.906   2.888
 7884TIP3    H123585   6.877   4.922   2.800
 7884TIP3    H223586   6.934   4.992   2.922
 7885TIP3   OH223587   8.296   5.392   3.056
 7885TIP3    H123588   8.216   5.399   3.107
 7885TIP3    H223589   8.310   5.481   3.022
 7886TIP3   OH223590   7.865   3.915   3.456
 7886TIP3    H123591   7.877   3.829   3.498
 7886TIP3    H223592   7.808   3.963   3.516
 7887TIP3   OH223593   8.064   5.447   2.787
 7887TIP3    H123594   8.118   5.369   2.790
 7887TIP3    H223595   8.124   5.517   2.761
 7888TIP3   OH223596   8.178   5.191   2.751
 7888TIP3    H123597   8.092   5.148   2.750
 7888TIP3    H223598   8.216   5.166   2.835
 7889TIP3   OH223599   0.170   5.317   3.483
 7889TIP3    H123600   0.093   5.270   3.451
 7889TIP3    H223601   0.137   5.366   3.559
 7890TIP3   OH223602   7.859   4.728   2.733
 7890TIP3    H123603   7.776   4.775   2.725
 7890TIP3    H223604   7.889   4.717   2.643
 7891TIP3   OH223605   7.819   4.494   2.433
 7891TIP3    H123606   7.889   4.537   2.482
 7891TIP3    H223607   7.862   4.419   2.391
 7892TIP3   OH223608   8.196   4.823   2.645
 7892TIP3    H123609   8.147   4.855   2.720
 7892TIP3    H223610   8.263   4.766   2.683
 7893TIP3   OH223611   8.347   4.802   3.731
 7893TIP3    H123612   8.395   4.880   3.757
 7893TIP3    H223613   8.295   4.829   3.656
 7894TIP3   OH223614   7.449   4.775   3.110
 7894TIP3    H123615   7.415   4.716   3.043
 7894TIP3    H223616   7.521   4.727   3.151
 7895TIP3   OH223617   7.586   5.200   3.246
 7895TIP3    H123618   7.563   5.185   3.154
 7895TIP3    H223619   7.672   5.160   3.256
 7896TIP3   OH223620   7.555   4.771   3.485
 7896TIP3    H123621   7.590   4.735   3.404
 7896TIP3    H223622   7.607   4.850   3.501
 7897TIP3   OH223623   8.092   5.388   3.234
 7897TIP3    H123624   8.087   5.473   3.278
 7897TIP3    H223625   8.076   5.325   3.304
 7898TIP3   OH223626   7.732   5.316   3.804
 7898TIP3    H123627   7.670   5.375   3.846
 7898TIP3    H223628   7.679   5.262   3.745
 7899TIP3   OH223629   8.042   4.621   2.536
 7899TIP3    H123630   8.084   4.691   2.584
 7899TIP3    H223631   8.081   4.624   2.449
 7900TIP3   OH223632   7.464   4.885   3.935
 7900TIP3    H123633   7.471   4.873   4.030
 7900TIP3    H223634   7.380   4.846   3.912
 7901TIP3   OH223635   7.811   5.329   2.791
 7901TIP3    H123636   7.891   5.381   2.798
 7901TIP3    H223637   7.751   5.383   2.739
 7902TIP3   OH223638   7.518   5.480   3.871
 7902TIP3    H123639   7.517   5.491   3.776
 7902TIP3    H223640   7.428   5.456   3.893
 7903TIP3   OH223641   7.332   4.616   2.908
 7903TIP3    H123642   7.255   4.661   2.874
 7903TIP3    H223643   7.303   4.526   2.923
 7904TIP3   OH223644   8.427   5.256   2.009
 7904TIP3    H123645   8.395   5.336   1.966
 7904TIP3    H223646   8.521   5.256   1.992
 7905TIP3   OH223647   7.109   5.024   3.840
 7905TIP3    H123648   7.047   5.011   3.768
 7905TIP3    H223649   7.138   4.936   3.864
 7906TIP3   OH223650   6.960   5.221   3.478
 7906TIP3    H123651   7.053   5.242   3.485
 7906TIP3    H223652   6.914   5.298   3.509
 7907TIP3   OH223653   7.916   5.451   3.653
 7907TIP3    H123654   7.921   5.539   3.688
 7907TIP3    H223655   7.853   5.406   3.709
 7908TIP3   OH223656   7.707   5.555   2.613
 7908TIP3    H123657   7.656   5.535   2.535
 7908TIP3    H223658   7.670   5.637   2.646
 7909TIP3   OH223659   7.136   5.403   2.995
 7909TIP3    H123660   7.181   5.394   3.079
 7909TIP3    H223661   7.086   5.322   2.985
 7910TIP3   OH223662   7.890   5.498   2.243
 7910TIP3    H123663   7.933   5.429   2.192
 7910TIP3    H223664   7.937   5.499   2.326
 7911TIP3   OH223665   7.963   5.514   2.518
 7911TIP3    H123666   7.872   5.520   2.548
 7911TIP3    H223667   8.014   5.499   2.598
 7912TIP3   OH223668   7.337   5.176   3.826
 7912TIP3    H123669   7.388   5.116   3.881
 7912TIP3    H223670   7.251   5.135   3.818
 7913TIP3   OH223671   7.675   4.024   3.627
 7913TIP3    H123672   7.590   3.992   3.596
 7913TIP3    H223673   7.654   4.103   3.677
 7914TIP3   OH223674   8.137   4.196   3.884
 7914TIP3    H123675   8.191   4.187   3.963
 7914TIP3    H223676   8.049   4.170   3.912
 7915TIP3   OH223677   0.069   4.621   3.788
 7915TIP3    H123678  -0.001   4.640   3.851
 7915TIP3    H223679   0.082   4.703   3.741
 7916TIP3   OH223680   8.180   4.664   2.308
 7916TIP3    H123681   8.141   4.722   2.243
 7916TIP3    H223682   8.262   4.707   2.331
 7917TIP3   OH223683   7.814   4.055   2.587
 7917TIP3    H123684   7.787   4.060   2.679
 7917TIP3    H223685   7.779   3.971   2.556
 7918TIP3   OH223686   7.626   4.543   3.621
 7918TIP3    H123687   7.583   4.551   3.706
 7918TIP3    H223688   7.606   4.625   3.576
 7919TIP3   OH223689   7.508   4.427   3.146
 7919TIP3    H123690   7.420   4.399   3.169
 7919TIP3    H223691   7.521   4.393   3.057
 7920TIP3   OH223692   7.962   4.515   2.874
 7920TIP3    H123693   7.923   4.589   2.827
 7920TIP3    H223694   8.024   4.477   2.811
 7921TIP3   OH223695   8.154   4.785   3.957
 7921TIP3    H123696   8.133   4.713   4.017
 7921TIP3    H223697   8.249   4.786   3.953
 7922TIP3   OH223698   8.084   4.495   3.116
 7922TIP3    H123699   8.037   4.522   3.037
 7922TIP3    H223700   8.119   4.408   3.095
 7923TIP3   OH223701   7.467   4.551   3.848
 7923TIP3    H123702   7.537   4.595   3.896
 7923TIP3    H223703   7.446   4.474   3.901
 7924TIP3   OH223704   7.495   4.026   2.558
 7924TIP3    H123705   7.489   4.033   2.653
 7924TIP3    H223706   7.422   4.079   2.526
 7925TIP3   OH223707   7.062   4.083   3.420
 7925TIP3    H123708   7.134   4.116   3.473
 7925TIP3    H223709   7.104   4.055   3.338
 7926TIP3   OH223710   6.984   4.057   2.933
 7926TIP3    H123711   7.029   4.092   2.856
 7926TIP3    H223712   6.920   4.125   2.956
 7927TIP3   OH223713   8.151   4.789   3.514
 7927TIP3    H123714   8.193   4.722   3.460
 7927TIP3    H223715   8.118   4.741   3.589
 7928TIP3   OH223716   7.839   4.296   3.211
 7928TIP3    H123717   7.764   4.269   3.265
 7928TIP3    H223718   7.912   4.243   3.245
 7929TIP3   OH223719   7.277   4.292   3.205
 7929TIP3    H123720   7.189   4.298   3.168
 7929TIP3    H223721   7.305   4.203   3.186
 7930TIP3   OH223722   7.519   4.301   2.903
 7930TIP3    H123723   7.614   4.309   2.894
 7930TIP3    H223724   7.485   4.317   2.815
 7931TIP3   OH223725   8.194   4.323   3.426
 7931TIP3    H123726   8.166   4.342   3.516
 7931TIP3    H223727   8.290   4.315   3.432
 7932TIP3   OH223728   7.406   4.322   2.656
 7932TIP3    H123729   7.341   4.275   2.604
 7932TIP3    H223730   7.458   4.370   2.592
 7933TIP3   OH223731   0.001   6.069   3.662
 7933TIP3    H123732  -0.002   6.062   3.566
 7933TIP3    H223733   0.094   6.062   3.684
 7934TIP3   OH223734   7.905   4.588   3.310
 7934TIP3    H123735   7.944   4.527   3.248
 7934TIP3    H223736   7.906   4.541   3.394
 7935TIP3   OH223737   7.424   4.046   3.189
 7935TIP3    H123738   7.396   3.971   3.242
 7935TIP3    H223739   7.465   4.007   3.112
 7936TIP3   OH223740   7.889   4.492   3.569
 7936TIP3    H123741   7.797   4.511   3.589
 7936TIP3    H223742   7.938   4.552   3.625
 7937TIP3   OH223743   7.616   4.859   2.682
 7937TIP3    H123744   7.546   4.796   2.664
 7937TIP3    H223745   7.597   4.891   2.771
 7938TIP3   OH223746   0.014   5.074   3.366
 7938TIP3    H123747   0.061   5.004   3.321
 7938TIP3    H223748  -0.072   5.076   3.324
 7939TIP3   OH223749   8.056   4.172   2.563
 7939TIP3    H123750   7.964   4.151   2.578
 7939TIP3    H223751   8.067   4.258   2.602
 7940TIP3   OH223752   8.030   5.189   3.701
 7940TIP3    H123753   8.110   5.194   3.753
 7940TIP3    H223754   7.998   5.279   3.697
 7941TIP3   OH223755   8.121   4.408   2.674
 7941TIP3    H123756   8.214   4.423   2.693
 7941TIP3    H223757   8.097   4.480   2.617
 7942TIP3   OH223758   7.334   4.877   3.340
 7942TIP3    H123759   7.367   4.852   3.253
 7942TIP3    H223760   7.398   4.840   3.401
 7943TIP3   OH223761   7.768   5.020   2.525
 7943TIP3    H123762   7.722   5.104   2.527
 7943TIP3    H223763   7.712   4.961   2.576
 7944TIP3   OH223764   7.197   4.790   3.970
 7944TIP3    H123765   7.203   4.745   4.055
 7944TIP3    H223766   7.129   4.742   3.923
 7945TIP3   OH223767   7.934   4.941   3.980
 7945TIP3    H123768   7.890   4.924   3.897
 7945TIP3    H223769   8.019   4.897   3.971
 7946TIP3   OH223770   8.176   5.471   3.553
 7946TIP3    H123771   8.082   5.455   3.562
 7946TIP3    H223772   8.206   5.487   3.642
 7947TIP3   OH223773   8.436   5.253   2.366
 7947TIP3    H123774   8.372   5.254   2.438
 7947TIP3    H223775   8.422   5.169   2.323
 7948TIP3   OH223776   8.262   5.026   3.246
 7948TIP3    H123777   8.172   5.037   3.277
 7948TIP3    H223778   8.264   4.937   3.210
 7949TIP3   OH223779   7.451   5.198   2.999
 7949TIP3    H123780   7.452   5.275   2.942
 7949TIP3    H223781   7.358   5.181   3.014
 7950TIP3   OH223782   7.016   4.483   2.712
 7950TIP3    H123783   7.059   4.566   2.732
 7950TIP3    H223784   6.935   4.484   2.764
 7951TIP3   OH223785   7.553   4.953   2.925
 7951TIP3    H123786   7.530   5.043   2.949
 7951TIP3    H223787   7.520   4.900   2.997
 7952TIP3   OH223788   7.736   5.521   3.449
 7952TIP3    H123789   7.771   5.596   3.402
 7952TIP3    H223790   7.810   5.491   3.503
 7953TIP3   OH223791   7.370   5.423   2.850
 7953TIP3    H123792   7.283   5.429   2.890
 7953TIP3    H223793   7.405   5.512   2.854
 7954TIP3   OH223794   8.062   5.175   3.426
 7954TIP3    H123795   8.031   5.166   3.517
 7954TIP3    H223796   8.157   5.184   3.434
 7955TIP3   OH223797   8.043   5.140   2.301
 7955TIP3    H123798   8.117   5.126   2.360
 7955TIP3    H223799   7.976   5.080   2.332
 7956TIP3   OH223800   8.277   5.719   3.501
 7956TIP3    H123801   8.245   5.629   3.504
 7956TIP3    H223802   8.273   5.743   3.408
 7957TIP3   OH223803   7.410   4.312   3.985
 7957TIP3    H123804   7.316   4.323   3.991
 7957TIP3    H223805   7.432   4.249   4.053
 7958TIP3   OH223806   8.248   5.053   2.470
 7958TIP3    H123807   8.211   4.995   2.536
 7958TIP3    H223808   8.290   4.994   2.407
 7959TIP3   OH223809   7.160   5.428   3.603
 7959TIP3    H123810   7.227   5.373   3.644
 7959TIP3    H223811   7.174   5.515   3.641
 7960TIP3   OH223812   7.428   5.033   2.311
 7960TIP3    H123813   7.445   4.943   2.282
 7960TIP3    H223814   7.413   5.026   2.405
 7961TIP3   OH223815   7.377   5.044   2.582
 7961TIP3    H123816   7.452   5.018   2.634
 7961TIP3    H223817   7.373   5.139   2.590
 7962TIP3   OH223818   7.110   4.734   2.792
 7962TIP3    H123819   7.044   4.782   2.843
 7962TIP3    H223820   7.130   4.793   2.719
 7963TIP3   OH223821   8.158   4.394   3.690
 7963TIP3    H123822   8.243   4.439   3.697
 7963TIP3    H223823   8.148   4.349   3.774
 7964TIP3   OH223824   8.086   4.135   2.853
 7964TIP3    H123825   8.106   4.113   2.762
 7964TIP3    H223826   8.139   4.213   2.871
 7965TIP3   OH223827   7.637   5.253   2.533
 7965TIP3    H123828   7.548   5.273   2.563
 7965TIP3    H223829   7.656   5.321   2.469
 7966TIP3   OH223830   7.793   4.312   2.941
 7966TIP3    H123831   7.852   4.380   2.911
 7966TIP3    H223832   7.807   4.307   3.035
 7967TIP3   OH223833   8.058   4.652   3.730
 7967TIP3    H123834   8.092   4.700   3.805
 7967TIP3    H223835   8.099   4.566   3.735
 7968TIP3   OH223836   7.948   4.018   3.053
 7968TIP3    H123837   7.974   4.071   3.129
 7968TIP3    H223838   7.996   4.056   2.980
 7969TIP3   OH223839   7.380   5.318   2.597
 7969TIP3    H123840   7.360   5.389   2.537
 7969TIP3    H223841   7.373   5.358   2.684
 7970TIP3   OH223842   7.479   4.029   2.837
 7970TIP3    H123843   7.464   4.118   2.869
 7970TIP3    H223844   7.573   4.015   2.846
 7971TIP3   OH223845   8.294   4.773   3.156
 7971TIP3    H123846   8.230   4.727   3.101
 7971TIP3    H223847   8.298   4.722   3.237
 7972TIP3   OH223848   7.130   4.914   2.577
 7972TIP3    H123849   7.201   4.978   2.586
 7972TIP3    H223850   7.162   4.852   2.512
 7973TIP3   OH223851   7.042   4.205   2.709
 7973TIP3    H123852   7.056   4.299   2.716
 7973TIP3    H223853   6.970   4.196   2.646
 7974TIP3   OH223854   8.343   5.655   2.983
 7974TIP3    H123855   8.302   5.735   2.952
 7974TIP3    H223856   8.435   5.679   2.996
 7975TIP3   OH223857   7.422   3.926   3.582
 7975TIP3    H123858   7.400   3.891   3.495
 7975TIP3    H223859   7.415   3.851   3.641
 7976TIP3   OH223860   6.962   5.179   2.966
 7976TIP3    H123861   6.917   5.216   3.041
 7976TIP3    H223862   6.921   5.221   2.890
 7977TIP3   OH223863   7.148   5.704   4.035
 7977TIP3    H123864   7.229   5.700   4.086
 7977TIP3    H223865   7.115   5.614   4.037
 7978TIP3   OH223866   7.617   5.636   4.079
 7978TIP3    H123867   7.708   5.613   4.096
 7978TIP3    H223868   7.594   5.585   4.001
 7979TIP3   OH223869   7.585   5.232   2.207
 7979TIP3    H123870   7.535   5.164   2.251
 7979TIP3    H223871   7.654   5.186   2.161
 7980TIP3   OH223872   8.195   5.542   3.819
 7980TIP3    H123873   8.200   5.472   3.884
 7980TIP3    H223874   8.270   5.597   3.837
 7981TIP3   OH223875   7.978   5.293   2.081
 7981TIP3    H123876   8.012   5.253   2.162
 7981TIP3    H223877   8.042   5.269   2.014
 7982TIP3   OH223878   7.343   5.102   4.151
 7982TIP3    H123879   7.351   5.007   4.147
 7982TIP3    H223880   7.253   5.119   4.124
 7983TIP3   OH223881   7.256   4.726   2.426
 7983TIP3    H123882   7.307   4.701   2.503
 7983TIP3    H223883   7.322   4.742   2.358
 7984TIP3   OH223884   7.843   5.199   4.026
 7984TIP3    H123885   7.820   5.227   3.938
 7984TIP3    H223886   7.888   5.115   4.014
 7985TIP3   OH223887   7.779   4.942   2.257
 7985TIP3    H123888   7.783   4.960   2.351
 7985TIP3    H223889   7.769   4.847   2.251
 7986TIP3   OH223890   8.308   5.252   3.752
 7986TIP3    H123891   8.367   5.327   3.753
 7986TIP3    H223892   8.293   5.234   3.660
 7987TIP3   OH223893   7.467   4.845   4.208
 7987TIP3    H123894   7.532   4.775   4.214
 7987TIP3    H223895   7.458   4.877   4.298
 7988TIP3   OH223896   7.425   4.664   2.641
 7988TIP3    H123897   7.406   4.632   2.729
 7988TIP3    H223898   7.470   4.592   2.598
 7989TIP3   OH223899   7.685   4.721   3.878
 7989TIP3    H123900   7.620   4.788   3.896
 7989TIP3    H223901   7.749   4.763   3.820
 7990TIP3   OH223902   7.549   4.476   2.482
 7990TIP3    H123903   7.516   4.484   2.393
 7990TIP3    H223904   7.645   4.479   2.473
 7991TIP3   OH223905   8.234   5.105   4.026
 7991TIP3    H123906   8.282   5.057   3.958
 7991TIP3    H223907   8.230   5.044   4.100
 7992TIP3   OH223908   7.832   4.523   4.006
 7992TIP3    H123909   7.842   4.448   3.947
 7992TIP3    H223910   7.792   4.591   3.951
 7993TIP3   OH223911   7.841   4.324   3.804
 7993TIP3    H123912   7.878   4.352   3.720
 7993TIP3    H223913   7.750   4.302   3.784
 7994TIP3   OH223914   7.848   4.872   3.721
 7994TIP3    H123915   7.932   4.853   3.679
 7994TIP3    H223916   7.801   4.925   3.657
 7995TIP3   OH223917   8.408   4.749   4.068
 7995TIP3    H123918   8.421   4.660   4.098
 7995TIP3    H223919   8.496   4.779   4.042
 7996TIP3   OH223920   8.465   5.036   3.824
 7996TIP3    H123921   8.410   5.111   3.803
 7996TIP3    H223922   8.554   5.066   3.807
 7997TIP3   OH223923   7.693   4.623   4.231
 7997TIP3    H123924   7.646   4.544   4.258
 7997TIP3    H223925   7.739   4.597   4.151
 7998TIP3   OH223926   7.896   4.078   3.934
 7998TIP3    H123927   7.854   4.152   3.892
 7998TIP3    H223928   7.847   4.002   3.904
 7999TIP3   OH223929   8.097   4.560   4.097
 7999TIP3    H123930   8.113   4.543   4.190
 7999TIP3    H223931   8.005   4.538   4.084
 8000TIP3   OH223932   8.296   4.501   3.911
 8000TIP3    H123933   8.223   4.523   3.969
 8000TIP3    H223934   8.363   4.466   3.970
 8001TIP3   OH223935   8.454   4.445   4.122
 8001TIP3    H123936   8.510   4.370   4.140
 8001TIP3    H223937   8.435   4.482   4.208
 8002TIP3   OH223938   7.580   4.378   4.306
 8002TIP3    H123939   7.581   4.292   4.265
 8002TIP3    H223940   7.619   4.364   4.392
 8003TIP3   OH223941   8.026   4.051   4.173
 8003TIP3    H123942   8.092   3.982   4.163
 8003TIP3    H223943   7.978   4.050   4.090
 8004TIP3   OH223944   8.103   4.282   4.303
 8004TIP3    H123945   8.090   4.206   4.247
 8004TIP3    H223946   8.024   4.335   4.291
 8005TIP3   OH223947   7.383   5.527   2.415
 8005TIP3    H123948   7.473   5.508   2.390
 8005TIP3    H223949   7.346   5.573   2.339
 8006TIP3   OH223950   6.857   4.903   2.600
 8006TIP3    H123951   6.951   4.918   2.593
 8006TIP3    H223952   6.843   4.818   2.559
 8007TIP3   OH223953   6.766   5.496   3.045
 8007TIP3    H123954   6.700   5.444   2.999
 8007TIP3    H223955   6.809   5.434   3.104
 8008TIP3   OH223956   6.903   5.325   3.214
 8008TIP3    H123957   6.894   5.259   3.282
 8008TIP3    H223958   6.955   5.395   3.254
 8009TIP3   OH223959   0.279   5.783   3.304
 8009TIP3    H123960   0.268   5.692   3.276
 8009TIP3    H223961   0.263   5.782   3.398
 8010TIP3   OH223962   0.251   5.492   3.969
 8010TIP3    H123963   0.177   5.487   3.909
 8010TIP3    H223964   0.327   5.468   3.916
 8011TIP3   OH223965   8.466   5.655   3.284
 8011TIP3    H123966   8.498   5.673   3.373
 8011TIP3    H223967   8.449   5.561   3.284
 8012TIP3   OH223968   0.046   4.621   2.879
 8012TIP3    H123969   0.139   4.606   2.891
 8012TIP3    H223970   0.039   4.709   2.842
 8013TIP3   OH223971   7.085   4.761   3.597
 8013TIP3    H123972   7.077   4.724   3.509
 8013TIP3    H223973   7.178   4.757   3.616
 8014TIP3   OH223974   7.322   4.469   4.303
 8014TIP3    H123975   7.415   4.447   4.300
 8014TIP3    H223976   7.278   4.385   4.310
 8015TIP3   OH223977   7.264   4.151   3.600
 8015TIP3    H123978   7.315   4.070   3.604
 8015TIP3    H223979   7.328   4.220   3.584
 8016TIP3   OH223980   7.064   4.421   3.656
 8016TIP3    H123981   7.108   4.405   3.573
 8016TIP3    H223982   7.108   4.498   3.693
 8017TIP3   OH223983   7.046   3.923   3.163
 8017TIP3    H123984   6.959   3.912   3.201
 8017TIP3    H223985   7.031   3.977   3.085
 8018TIP3   OH223986   8.207   5.649   2.676
 8018TIP3    H123987   8.253   5.643   2.592
 8018TIP3    H223988   8.275   5.672   2.739
 8019TIP3   OH223989   7.261   4.004   3.990
 8019TIP3    H123990   7.205   3.981   4.064
 8019TIP3    H223991   7.202   4.040   3.924
 8020TIP3   OH223992   7.509   5.483   3.596
 8020TIP3    H123993   7.460   5.558   3.563
 8020TIP3    H223994   7.593   5.487   3.551
 8021TIP3   OH223995   7.905   5.714   3.747
 8021TIP3    H123996   7.944   5.707   3.834
 8021TIP3    H223997   7.967   5.768   3.697
 8022TIP3   OH223998   8.086   5.878   3.620
 8022TIP3    H123999   8.152   5.823   3.577
 8022TIP3    H224000   8.137   5.937   3.676
 8023TIP3   OH224001   7.168   5.717   3.654
 8023TIP3    H124002   7.078   5.737   3.629
 8023TIP3    H224003   7.190   5.784   3.718
 8024TIP3   OH224004   7.398   5.713   3.499
 8024TIP3    H124005   7.314   5.719   3.545
 8024TIP3    H224006   7.378   5.739   3.410
 8025TIP3   OH224007   7.802   5.739   3.293
 8025TIP3    H124008   7.732   5.754   3.229
 8025TIP3    H224009   7.816   5.825   3.332
 8026TIP3   OH224010   8.059   5.650   3.296
 8026TIP3    H124011   7.970   5.685   3.296
 8026TIP3    H224012   8.115   5.725   3.276
 8027TIP3   OH224013   8.254   5.843   3.246
 8027TIP3    H124014   8.258   5.924   3.195
 8027TIP3    H224015   8.318   5.786   3.204
 8028TIP3   OH224016   7.074   5.506   3.353
 8028TIP3    H124017   7.096   5.484   3.444
 8028TIP3    H224018   7.148   5.472   3.302
 8029TIP3   OH224019   7.284   5.389   3.228
 8029TIP3    H124020   7.296   5.307   3.277
 8029TIP3    H224021   7.370   5.430   3.229
 8030TIP3   OH224022   7.551   5.478   3.247
 8030TIP3    H124023   7.568   5.385   3.231
 8030TIP3    H224024   7.608   5.502   3.319
 8031TIP3   OH224025   8.052   4.137   3.280
 8031TIP3    H124026   8.060   4.067   3.344
 8031TIP3    H224027   8.105   4.208   3.315
 8032TIP3   OH224028   7.353   3.822   3.335
 8032TIP3    H124029   7.264   3.788   3.344
 8032TIP3    H224030   7.407   3.745   3.324
 8033TIP3   OH224031   7.161   3.726   2.989
 8033TIP3    H124032   7.189   3.777   2.913
 8033TIP3    H224033   7.129   3.792   3.051
 8034TIP3   OH224034   7.761   3.876   3.207
 8034TIP3    H124035   7.817   3.930   3.150
 8034TIP3    H224036   7.794   3.891   3.295
 8035TIP3   OH224037   8.513   3.960   3.174
 8035TIP3    H124038   8.441   3.949   3.112
 8035TIP3    H224039   8.488   3.908   3.250
 8036TIP3   OH224040   6.847   5.301   2.748
 8036TIP3    H124041   6.763   5.270   2.716
 8036TIP3    H224042   6.851   5.392   2.719
 8037TIP3   OH224043   7.272   3.858   2.753
 8037TIP3    H124044   7.321   3.798   2.697
 8037TIP3    H224045   7.339   3.916   2.789
 8038TIP3   OH224046   7.752   4.054   2.857
 8038TIP3    H124047   7.808   4.008   2.918
 8038TIP3    H224048   7.767   4.147   2.876
 8039TIP3   OH224049   7.640   5.460   2.346
 8039TIP3    H124050   7.722   5.491   2.308
 8039TIP3    H224051   7.613   5.387   2.290
 8040TIP3   OH224052   8.357   5.618   2.441
 8040TIP3    H124053   8.390   5.529   2.431
 8040TIP3    H224054   8.301   5.632   2.364
 8041TIP3   OH224055   7.576   4.105   4.221
 8041TIP3    H124056   7.540   4.039   4.280
 8041TIP3    H224057   7.668   4.112   4.247
 8042TIP3   OH224058   7.820   4.113   4.350
 8042TIP3    H124059   7.898   4.092   4.299
 8042TIP3    H224060   7.815   4.044   4.416
 8043TIP3   OH224061   6.953   5.297   2.401
 8043TIP3    H124062   6.954   5.310   2.496
 8043TIP3    H224063   7.035   5.252   2.382
 8044TIP3   OH224064   8.495   5.787   3.650
 8044TIP3    H124065   8.419   5.750   3.604
 8044TIP3    H224066   8.479   5.881   3.651
 8045TIP3   OH224067   0.554   5.694   4.592
 8045TIP3    H124068   0.511   5.768   4.634
 8045TIP3    H224069   0.482   5.634   4.570
 8046TIP3   OH224070   0.541   5.651   4.910
 8046TIP3    H124071   0.549   5.691   4.997
 8046TIP3    H224072   0.521   5.559   4.927
 8047TIP3   OH224073   0.766   5.960   4.657
 8047TIP3    H124074   0.771   5.888   4.719
 8047TIP3    H224075   0.793   6.037   4.707
 8048TIP3   OH224076   0.451   6.450   4.674
 8048TIP3    H124077   0.500   6.373   4.644
 8048TIP3    H224078   0.370   6.414   4.709
 8049TIP3   OH224079   0.306   5.800   5.133
 8049TIP3    H124080   0.283   5.801   5.040
 8049TIP3    H224081   0.389   5.752   5.137
 8050TIP3   OH224082   1.334   5.187   5.021
 8050TIP3    H124083   1.356   5.271   5.062
 8050TIP3    H224084   1.356   5.199   4.928
 8051TIP3   OH224085   0.785   5.366   5.050
 8051TIP3    H124086   0.807   5.273   5.056
 8051TIP3    H224087   0.699   5.368   5.008
 8052TIP3   OH224088   0.779   5.091   4.626
 8052TIP3    H124089   0.842   5.086   4.698
 8052TIP3    H224090   0.828   5.131   4.554
 8053TIP3   OH224091   1.402   5.403   5.188
 8053TIP3    H124092   1.316   5.443   5.178
 8053TIP3    H224093   1.437   5.440   5.269
 8054TIP3   OH224094   0.361   5.916   4.529
 8054TIP3    H124095   0.303   5.888   4.458
 8054TIP3    H224096   0.445   5.932   4.487
 8055TIP3   OH224097   0.935   5.131   4.845
 8055TIP3    H124098   0.898   5.106   4.929
 8055TIP3    H224099   0.993   5.205   4.864
 8056TIP3   OH224100   0.812   6.197   4.804
 8056TIP3    H124101   0.723   6.195   4.839
 8056TIP3    H224102   0.821   6.285   4.768
 8057TIP3   OH224103   1.130   5.077   5.185
 8057TIP3    H124104   1.045   5.100   5.147
 8057TIP3    H224105   1.194   5.106   5.119
 8058TIP3   OH224106   0.440   4.763   5.198
 8058TIP3    H124107   0.443   4.668   5.215
 8058TIP3    H224108   0.442   4.803   5.285
 8059TIP3   OH224109   0.509   6.226   4.499
 8059TIP3    H124110   0.534   6.134   4.487
 8059TIP3    H224111   0.578   6.275   4.455
 8060TIP3   OH224112   0.614   5.977   4.429
 8060TIP3    H124113   0.657   5.926   4.360
 8060TIP3    H224114   0.671   5.966   4.506
 8061TIP3   OH224115   1.049   6.089   5.165
 8061TIP3    H124116   1.026   6.014   5.110
 8061TIP3    H224117   1.032   6.166   5.110
 8062TIP3   OH224118   0.381   5.528   4.460
 8062TIP3    H124119   0.289   5.548   4.447
 8062TIP3    H224120   0.415   5.511   4.372
 8063TIP3   OH224121   0.348   5.267   4.169
 8063TIP3    H124122   0.406   5.335   4.204
 8063TIP3    H224123   0.401   5.222   4.103
 8064TIP3   OH224124   1.230   5.746   5.019
 8064TIP3    H124125   1.145   5.791   5.022
 8064TIP3    H224126   1.263   5.763   4.931
 8065TIP3   OH224127   0.710   5.593   4.396
 8065TIP3    H124128   0.661   5.631   4.469
 8065TIP3    H224129   0.790   5.558   4.435
 8066TIP3   OH224130   0.959   5.623   5.340
 8066TIP3    H124131   0.950   5.704   5.390
 8066TIP3    H224132   0.877   5.614   5.293
 8067TIP3   OH224133   0.561   6.235   4.912
 8067TIP3    H124134   0.542   6.321   4.950
 8067TIP3    H224135   0.591   6.182   4.985
 8068TIP3   OH224136   0.537   5.457   4.236
 8068TIP3    H124137   0.599   5.513   4.283
 8068TIP3    H224138   0.567   5.459   4.145
 8069TIP3   OH224139   1.045   4.658   4.270
 8069TIP3    H124140   0.972   4.672   4.330
 8069TIP3    H224141   1.050   4.739   4.218
 8070TIP3   OH224142   0.853   6.049   3.821
 8070TIP3    H124143   0.853   6.142   3.801
 8070TIP3    H224144   0.941   6.020   3.798
 8071TIP3   OH224145   1.278   6.458   5.228
 8071TIP3    H124146   1.284   6.363   5.236
 8071TIP3    H224147   1.197   6.481   5.275
 8072TIP3   OH224148   0.357   6.271   3.922
 8072TIP3    H124149   0.418   6.205   3.889
 8072TIP3    H224150   0.388   6.291   4.010
 8073TIP3   OH224151   0.459   6.296   4.178
 8073TIP3    H124152   0.410   6.219   4.206
 8073TIP3    H224153   0.534   6.299   4.238
 8074TIP3   OH224154   1.173   5.571   5.513
 8074TIP3    H124155   1.100   5.583   5.452
 8074TIP3    H224156   1.194   5.478   5.508
 8075TIP3   OH224157   0.753   4.928   5.502
 8075TIP3    H124158   0.830   4.899   5.551
 8075TIP3    H224159   0.700   4.976   5.567
 8076TIP3   OH224160   0.942   5.355   5.410
 8076TIP3    H124161   0.903   5.350   5.498
 8076TIP3    H224162   0.931   5.447   5.385
 8077TIP3   OH224163   0.633   5.428   3.985
 8077TIP3    H124164   0.578   5.422   3.907
 8077TIP3    H224165   0.709   5.478   3.958
 8078TIP3   OH224166   0.320   4.883   4.226
 8078TIP3    H124167   0.325   4.878   4.322
 8078TIP3    H224168   0.291   4.796   4.200
 8079TIP3   OH224169   0.487   5.300   4.557
 8079TIP3    H124170   0.440   5.380   4.537
 8079TIP3    H224171   0.528   5.275   4.474
 8080TIP3   OH224172   0.684   5.573   5.635
 8080TIP3    H124173   0.646   5.528   5.710
 8080TIP3    H224174   0.777   5.581   5.657
 8081TIP3   OH224175   0.666   5.313   4.761
 8081TIP3    H124176   0.602   5.327   4.691
 8081TIP3    H224177   0.716   5.236   4.733
 8082TIP3   OH224178   0.720   5.548   5.238
 8082TIP3    H124179   0.748   5.488   5.168
 8082TIP3    H224180   0.668   5.493   5.297
 8083TIP3   OH224181   0.349   4.949   4.898
 8083TIP3    H124182   0.289   4.973   4.969
 8083TIP3    H224183   0.436   4.971   4.931
 8084TIP3   OH224184   0.811   5.093   5.091
 8084TIP3    H124185   0.789   5.117   5.181
 8084TIP3    H224186   0.737   5.039   5.062
 8085TIP3   OH224187   0.988   6.789   5.323
 8085TIP3    H124188   0.984   6.801   5.228
 8085TIP3    H224189   1.065   6.838   5.350
 8086TIP3   OH224190   0.518   5.375   4.981
 8086TIP3    H124191   0.541   5.341   4.895
 8086TIP3    H224192   0.465   5.306   5.020
 8087TIP3   OH224193   0.393   5.230   5.188
 8087TIP3    H124194   0.362   5.287   5.258
 8087TIP3    H224195   0.436   5.157   5.234
 8088TIP3   OH224196   0.997   5.888   4.984
 8088TIP3    H124197   1.034   5.941   4.914
 8088TIP3    H224198   0.919   5.848   4.945
 8089TIP3   OH224199   0.577   4.965   4.254
 8089TIP3    H124200   0.483   4.956   4.238
 8089TIP3    H224201   0.590   5.057   4.274
 8090TIP3   OH224202   0.545   6.045   5.371
 8090TIP3    H124203   0.532   5.954   5.396
 8090TIP3    H224204   0.470   6.091   5.408
 8091TIP3   OH224205   0.643   5.219   4.339
 8091TIP3    H124206   0.737   5.221   4.353
 8091TIP3    H224207   0.624   5.299   4.289
 8092TIP3   OH224208   0.166   5.829   4.339
 8092TIP3    H124209   0.178   5.791   4.252
 8092TIP3    H224210   0.149   5.754   4.396
 8093TIP3   OH224211   0.446   5.752   5.789
 8093TIP3    H124212   0.421   5.679   5.734
 8093TIP3    H224213   0.515   5.797   5.740
 8094TIP3   OH224214   0.634   6.304   5.270
 8094TIP3    H124215   0.604   6.213   5.264
 8094TIP3    H224216   0.662   6.313   5.361
 8095TIP3   OH224217   1.041   5.296   4.166
 8095TIP3    H124218   0.986   5.250   4.103
 8095TIP3    H224219   1.043   5.386   4.134
 8096TIP3   OH224220   1.295   6.181   5.247
 8096TIP3    H124221   1.201   6.162   5.248
 8096TIP3    H224222   1.325   6.146   5.163
 8097TIP3   OH224223   0.775   6.111   4.082
 8097TIP3    H124224   0.725   6.041   4.123
 8097TIP3    H224225   0.795   6.079   3.994
 8098TIP3   OH224226   0.789   5.757   4.851
 8098TIP3    H124227   0.697   5.735   4.862
 8098TIP3    H224228   0.830   5.674   4.823
 8099TIP3   OH224229   0.668   6.045   5.091
 8099TIP3    H124230   0.575   6.045   5.114
 8099TIP3    H224231   0.688   5.953   5.074
 8100TIP3   OH224232   0.571   5.880   4.012
 8100TIP3    H124233   0.616   5.851   4.091
 8100TIP3    H224234   0.506   5.812   3.995
 8101TIP3   OH224235   0.820   6.462   5.144
 8101TIP3    H124236   0.749   6.409   5.181
 8101TIP3    H224237   0.775   6.530   5.094
 8102TIP3   OH224238   0.862   6.321   3.787
 8102TIP3    H124239   0.896   6.391   3.731
 8102TIP3    H224240   0.788   6.360   3.833
 8103TIP3   OH224241   0.727   5.811   4.228
 8103TIP3    H124242   0.712   5.734   4.284
 8103TIP3    H224243   0.820   5.804   4.205
 8104TIP3   OH224244   0.755   5.164   5.349
 8104TIP3    H124245   0.835   5.210   5.376
 8104TIP3    H224246   0.755   5.083   5.400
 8105TIP3   OH224247   0.660   4.870   4.500
 8105TIP3    H124248   0.624   4.893   4.414
 8105TIP3    H224249   0.698   4.951   4.532
 8106TIP3   OH224250   0.226   5.102   4.676
 8106TIP3    H124251   0.207   5.189   4.712
 8106TIP3    H224252   0.304   5.074   4.725
 8107TIP3   OH224253   0.605   5.393   5.435
 8107TIP3    H124254   0.655   5.427   5.510
 8107TIP3    H224255   0.646   5.309   5.414
 8108TIP3   OH224256   0.528   4.768   4.727
 8108TIP3    H124257   0.476   4.838   4.767
 8108TIP3    H224258   0.565   4.808   4.648
 8109TIP3   OH224259   1.204   5.300   5.407
 8109TIP3    H124260   1.109   5.308   5.411
 8109TIP3    H224261   1.221   5.253   5.326
 8110TIP3   OH224262   0.875   5.497   4.788
 8110TIP3    H124263   0.794   5.446   4.796
 8110TIP3    H224264   0.936   5.454   4.848
 8111TIP3   OH224265   0.840   6.464   4.742
 8111TIP3    H124266   0.802   6.503   4.664
 8111TIP3    H224267   0.934   6.476   4.732
 8112TIP3   OH224268   0.713   6.357   5.523
 8112TIP3    H124269   0.718   6.291   5.592
 8112TIP3    H224270   0.782   6.420   5.546
 8113TIP3   OH224271   0.515   6.072   3.822
 8113TIP3    H124272   0.542   6.012   3.892
 8113TIP3    H224273   0.574   6.054   3.750
 8114TIP3   OH224274   0.200   5.780   3.863
 8114TIP3    H124275   0.161   5.782   3.950
 8114TIP3    H224276   0.132   5.742   3.807
 8115TIP3   OH224277   0.838   6.014   5.332
 8115TIP3    H124278   0.904   6.058   5.278
 8115TIP3    H224279   0.755   6.040   5.293
 8116TIP3   OH224280   8.479   5.336   4.255
 8116TIP3    H124281   8.472   5.314   4.162
 8116TIP3    H224282   8.546   5.276   4.289
 8117TIP3   OH224283   0.699   5.899   5.711
 8117TIP3    H124284   0.745   5.866   5.634
 8117TIP3    H224285   0.724   5.839   5.781
 8118TIP3   OH224286   0.832   5.564   3.849
 8118TIP3    H124287   0.817   5.520   3.765
 8118TIP3    H224288   0.804   5.654   3.833
 8119TIP3   OH224289   0.210   5.040   5.456
 8119TIP3    H124290   0.288   5.062   5.404
 8119TIP3    H224291   0.238   5.051   5.547
 8120TIP3   OH224292   0.481   5.779   5.402
 8120TIP3    H124293   0.517   5.690   5.391
 8120TIP3    H224294   0.386   5.767   5.397
 8121TIP3   OH224295   0.950   5.572   5.737
 8121TIP3    H124296   0.980   5.482   5.750
 8121TIP3    H224297   1.024   5.616   5.695
 8122TIP3   OH224298   0.959   5.849   5.502
 8122TIP3    H124299   0.904   5.910   5.453
 8122TIP3    H224300   1.047   5.865   5.469
 8123TIP3   OH224301   0.448   4.801   5.484
 8123TIP3    H124302   0.476   4.818   5.574
 8123TIP3    H224303   0.395   4.722   5.491
 8124TIP3   OH224304   0.593   5.399   5.822
 8124TIP3    H124305   0.651   5.390   5.898
 8124TIP3    H224306   0.601   5.316   5.776
 8125TIP3   OH224307   0.835   5.294   5.646
 8125TIP3    H124308   0.766   5.230   5.665
 8125TIP3    H224309   0.903   5.274   5.710
 8126TIP3   OH224310   1.048   5.264   5.817
 8126TIP3    H124311   1.066   5.170   5.825
 8126TIP3    H224312   1.044   5.295   5.908
 8127TIP3   OH224313   0.544   4.806   5.744
 8127TIP3    H124314   0.633   4.772   5.758
 8127TIP3    H224315   0.554   4.901   5.745
 8128TIP3   OH224316   0.572   5.086   6.016
 8128TIP3    H124317   0.587   5.085   5.922
 8128TIP3    H224318   0.526   5.169   6.032
 8129TIP3   OH224319   1.107   6.517   4.727
 8129TIP3    H124320   1.124   6.546   4.816
 8129TIP3    H224321   1.149   6.583   4.671
 8130TIP3   OH224322   1.120   6.550   5.006
 8130TIP3    H124323   1.073   6.467   4.999
 8130TIP3    H224324   1.190   6.533   5.069
 8131TIP3   OH224325   1.177   6.249   5.568
 8131TIP3    H124326   1.104   6.258   5.629
 8131TIP3    H224327   1.220   6.335   5.568
 8132TIP3   OH224328   0.996   5.766   4.183
 8132TIP3    H124329   1.056   5.835   4.153
 8132TIP3    H224330   1.042   5.726   4.257
 8133TIP3   OH224331   1.122   5.622   4.382
 8133TIP3    H124332   1.056   5.581   4.439
 8133TIP3    H224333   1.187   5.658   4.443
 8134TIP3   OH224334   1.168   6.027   4.817
 8134TIP3    H124335   1.219   5.959   4.773
 8134TIP3    H224336   1.167   6.100   4.756
 8135TIP3   OH224337   0.986   6.302   5.001
 8135TIP3    H124338   0.920   6.351   5.049
 8135TIP3    H224339   0.938   6.258   4.931
 8136TIP3   OH224340   1.031   5.537   4.033
 8136TIP3    H124341   0.962   5.539   3.967
 8136TIP3    H224342   1.015   5.615   4.087
 8137TIP3   OH224343   0.896   5.183   3.964
 8137TIP3    H124344   0.842   5.221   3.896
 8137TIP3    H224345   0.887   5.088   3.952
 8138TIP3   OH224346   0.928   5.475   4.520
 8138TIP3    H124347   0.934   5.380   4.510
 8138TIP3    H224348   0.914   5.489   4.614
 8139TIP3   OH224349   1.203   5.899   5.383
 8139TIP3    H124350   1.270   5.835   5.361
 8139TIP3    H224351   1.197   5.956   5.307
 8140TIP3   OH224352   1.379   5.687   5.372
 8140TIP3    H124353   1.308   5.650   5.424
 8140TIP3    H224354   1.455   5.632   5.393
 8141TIP3   OH224355   0.854   4.911   3.933
 8141TIP3    H124356   0.914   4.889   4.003
 8141TIP3    H224357   0.769   4.875   3.961
 8142TIP3   OH224358   0.921   5.199   4.405
 8142TIP3    H124359   0.966   5.114   4.415
 8142TIP3    H224360   0.964   5.239   4.329
 8143TIP3   OH224361   1.077   5.358   4.927
 8143TIP3    H124362   1.158   5.381   4.883
 8143TIP3    H224363   1.083   5.399   5.013
 8144TIP3   OH224364   1.150   5.518   5.152
 8144TIP3    H124365   1.082   5.550   5.212
 8144TIP3    H224366   1.179   5.595   5.104
 8145TIP3   OH224367   1.601   5.117   5.698
 8145TIP3    H124368   1.665   5.060   5.657
 8145TIP3    H224369   1.564   5.168   5.626
 8146TIP3   OH224370   1.029   4.946   4.458
 8146TIP3    H124371   1.073   4.939   4.542
 8146TIP3    H224372   0.976   4.867   4.451
 8147TIP3   OH224373   1.455   5.230   5.498
 8147TIP3    H124374   1.369   5.271   5.508
 8147TIP3    H224375   1.439   5.152   5.445
 8148TIP3   OH224376   1.076   4.871   4.096
 8148TIP3    H124377   1.124   4.809   4.040
 8148TIP3    H224378   1.133   4.948   4.100
 8149TIP3   OH224379   0.668   6.389   4.353
 8149TIP3    H124380   0.730   6.392   4.280
 8149TIP3    H224381   0.700   6.457   4.413
 8150TIP3   OH224382   0.581   6.606   5.272
 8150TIP3    H124383   0.595   6.523   5.317
 8150TIP3    H224384   0.623   6.671   5.329
 8151TIP3   OH224385   1.362   4.986   5.392
 8151TIP3    H124386   1.274   4.977   5.355
 8151TIP3    H224387   1.400   4.899   5.386
 8152TIP3   OH224388   0.517   6.487   5.022
 8152TIP3    H124389   0.519   6.521   5.112
 8152TIP3    H224390   0.574   6.548   4.973
 8153TIP3   OH224391   0.746   6.645   4.931
 8153TIP3    H124392   0.738   6.725   4.880
 8153TIP3    H224393   0.774   6.579   4.868
 8154TIP3   OH224394   0.594   4.932   5.023
 8154TIP3    H124395   0.547   4.870   5.079
 8154TIP3    H224396   0.655   4.878   4.973
 8155TIP3   OH224397   1.065   4.801   4.912
 8155TIP3    H124398   1.106   4.856   4.845
 8155TIP3    H224399   0.972   4.822   4.907
 8156TIP3   OH224400   1.182   4.900   4.683
 8156TIP3    H124401   1.251   4.841   4.653
 8156TIP3    H224402   1.219   4.988   4.672
 8157TIP3   OH224403   0.314   4.651   4.943
 8157TIP3    H124404   0.387   4.591   4.928
 8157TIP3    H224405   0.346   4.711   5.010
 8158TIP3   OH224406   0.783   4.786   4.887
 8158TIP3    H124407   0.736   4.753   4.811
 8158TIP3    H224408   0.789   4.710   4.946
 8159TIP3   OH224409   0.873   4.710   4.471
 8159TIP3    H124410   0.793   4.762   4.478
 8159TIP3    H224411   0.852   4.627   4.514
 8160TIP3   OH224412   0.345   4.875   4.500
 8160TIP3    H124413   0.317   4.818   4.572
 8160TIP3    H224414   0.398   4.942   4.542
 8161TIP3   OH224415   0.820   6.377   4.123
 8161TIP3    H124416   0.809   6.283   4.112
 8161TIP3    H224417   0.774   6.415   4.048
 8162TIP3   OH224418   1.118   4.999   5.829
 8162TIP3    H124419   1.134   4.964   5.917
 8162TIP3    H224420   1.203   4.991   5.785
 8163TIP3   OH224421   1.026   6.516   5.327
 8163TIP3    H124422   0.957   6.486   5.269
 8163TIP3    H224423   1.012   6.611   5.334
 8164TIP3   OH224424   2.300   5.911   4.062
 8164TIP3    H124425   2.269   5.998   4.036
 8164TIP3    H224426   2.228   5.852   4.039
 8165TIP3   OH224427   2.295   5.899   4.487
 8165TIP3    H124428   2.346   5.883   4.566
 8165TIP3    H224429   2.252   5.815   4.469
 8166TIP3   OH224430   1.596   5.768   4.833
 8166TIP3    H124431   1.631   5.714   4.904
 8166TIP3    H224432   1.673   5.795   4.783
 8167TIP3   OH224433   2.561   6.209   4.161
 8167TIP3    H124434   2.551   6.142   4.229
 8167TIP3    H224435   2.584   6.288   4.208
 8168TIP3   OH224436   1.587   6.190   4.520
 8168TIP3    H124437   1.569   6.096   4.530
 8168TIP3    H224438   1.682   6.195   4.515
 8169TIP3   OH224439   1.273   5.395   4.305
 8169TIP3    H124440   1.235   5.479   4.330
 8169TIP3    H224441   1.200   5.347   4.265
 8170TIP3   OH224442   1.352   5.704   4.520
 8170TIP3    H124443   1.401   5.627   4.548
 8170TIP3    H224444   1.419   5.768   4.496
 8171TIP3   OH224445   2.215   6.644   4.171
 8171TIP3    H124446   2.246   6.576   4.111
 8171TIP3    H224447   2.214   6.601   4.257
 8172TIP3   OH224448   2.104   6.123   4.494
 8172TIP3    H124449   2.148   6.042   4.467
 8172TIP3    H224450   2.176   6.179   4.524
 8173TIP3   OH224451   3.138   5.449   4.498
 8173TIP3    H124452   3.156   5.532   4.543
 8173TIP3    H224453   3.166   5.464   4.408
 8174TIP3   OH224454   2.512   5.614   4.528
 8174TIP3    H124455   2.546   5.530   4.556
 8174TIP3    H224456   2.474   5.597   4.441
 8175TIP3   OH224457   1.865   5.274   4.489
 8175TIP3    H124458   1.843   5.346   4.430
 8175TIP3    H224459   1.810   5.201   4.459
 8176TIP3   OH224460   2.561   5.371   4.120
 8176TIP3    H124461   2.624   5.363   4.192
 8176TIP3    H224462   2.612   5.405   4.047
 8177TIP3   OH224463   1.490   5.484   4.615
 8177TIP3    H124464   1.573   5.466   4.660
 8177TIP3    H224465   1.494   5.432   4.535
 8178TIP3   OH224466   1.912   5.684   4.429
 8178TIP3    H124467   2.006   5.668   4.437
 8178TIP3    H224468   1.876   5.602   4.395
 8179TIP3   OH224469   3.193   5.665   4.672
 8179TIP3    H124470   3.102   5.696   4.668
 8179TIP3    H224471   3.224   5.694   4.757
 8180TIP3   OH224472   1.846   5.273   4.939
 8180TIP3    H124473   1.794   5.309   4.867
 8180TIP3    H224474   1.793   5.288   5.017
 8181TIP3   OH224475   2.197   6.127   3.919
 8181TIP3    H124476   2.158   6.099   3.837
 8181TIP3    H224477   2.143   6.202   3.947
 8182TIP3   OH224478   1.944   6.049   4.708
 8182TIP3    H124479   1.889   6.119   4.742
 8182TIP3    H224480   1.992   6.089   4.636
 8183TIP3   OH224481   2.723   5.392   4.339
 8183TIP3    H124482   2.681   5.370   4.422
 8183TIP3    H224483   2.779   5.467   4.359
 8184TIP3   OH224484   1.734   5.381   4.710
 8184TIP3    H124485   1.789   5.455   4.734
 8184TIP3    H224486   1.782   5.338   4.639
 8185TIP3   OH224487   1.784   6.250   4.811
 8185TIP3    H124488   1.770   6.340   4.781
 8185TIP3    H224489   1.707   6.230   4.864
 8186TIP3   OH224490   1.165   5.954   4.062
 8186TIP3    H124491   1.124   5.977   3.979
 8186TIP3    H224492   1.189   6.039   4.101
 8187TIP3   OH224493   2.602   6.455   4.300
 8187TIP3    H124494   2.515   6.447   4.340
 8187TIP3    H224495   2.600   6.540   4.255
 8188TIP3   OH224496   2.921   5.368   4.657
 8188TIP3    H124497   2.836   5.388   4.617
 8188TIP3    H224498   2.985   5.390   4.590
 8189TIP3   OH224499   2.187   4.968   4.665
 8189TIP3    H124500   2.178   4.877   4.692
 8189TIP3    H224501   2.112   5.013   4.704
 8190TIP3   OH224502   2.308   6.486   3.960
 8190TIP3    H124503   2.361   6.407   3.949
 8190TIP3    H224504   2.365   6.557   3.929
 8191TIP3   OH224505   2.447   6.256   3.913
 8191TIP3    H124506   2.374   6.195   3.912
 8191TIP3    H224507   2.497   6.233   3.992
 8192TIP3   OH224508   2.836   6.348   4.645
 8192TIP3    H124509   2.819   6.272   4.589
 8192TIP3    H224510   2.820   6.424   4.589
 8193TIP3   OH224511   2.125   5.748   3.915
 8193TIP3    H124512   2.043   5.795   3.895
 8193TIP3    H224513   2.173   5.747   3.832
 8194TIP3   OH224514   2.092   5.556   3.606
 8194TIP3    H124515   2.157   5.603   3.658
 8194TIP3    H224516   2.142   5.487   3.562
 8195TIP3   OH224517   3.021   6.005   4.509
 8195TIP3    H124518   2.937   6.050   4.509
 8195TIP3    H224519   3.055   6.019   4.421
 8196TIP3   OH224520   2.484   5.836   3.875
 8196TIP3    H124521   2.430   5.866   3.948
 8196TIP3    H224522   2.567   5.811   3.915
 8197TIP3   OH224523   2.713   5.868   4.818
 8197TIP3    H124524   2.710   5.951   4.866
 8197TIP3    H224525   2.630   5.866   4.770
 8198TIP3   OH224526   1.714   5.820   4.282
 8198TIP3    H124527   1.677   5.759   4.218
 8198TIP3    H224528   1.786   5.771   4.322
 8199TIP3   OH224529   1.851   6.240   4.423
 8199TIP3    H124530   1.830   6.223   4.331
 8199TIP3    H224531   1.938   6.202   4.435
 8200TIP3   OH224532   1.814   5.813   4.656
 8200TIP3    H124533   1.853   5.777   4.577
 8200TIP3    H224534   1.863   5.893   4.673
 8201TIP3   OH224535   2.365   6.446   4.432
 8201TIP3    H124536   2.351   6.527   4.481
 8201TIP3    H224537   2.350   6.376   4.495
 8202TIP3   OH224538   1.984   6.349   4.978
 8202TIP3    H124539   1.924   6.408   5.025
 8202TIP3    H224540   1.927   6.298   4.921
 8203TIP3   OH224541   2.313   5.699   3.709
 8203TIP3    H124542   2.374   5.755   3.757
 8203TIP3    H224543   2.341   5.706   3.617
 8204TIP3   OH224544   1.739   5.898   5.116
 8204TIP3    H124545   1.742   5.992   5.137
 8204TIP3    H224546   1.645   5.879   5.110
 8205TIP3   OH224547   2.060   6.366   3.960
 8205TIP3    H124548   2.142   6.415   3.970
 8205TIP3    H224549   2.000   6.429   3.920
 8206TIP3   OH224550   1.776   6.509   5.064
 8206TIP3    H124551   1.749   6.519   4.972
 8206TIP3    H224552   1.694   6.492   5.111
 8207TIP3   OH224553   2.824   4.925   3.763
 8207TIP3    H124554   2.747   4.945   3.816
 8207TIP3    H224555   2.836   5.002   3.708
 8208TIP3   OH224556   1.586   5.662   4.080
 8208TIP3    H124557   1.508   5.709   4.050
 8208TIP3    H224558   1.555   5.575   4.103
 8209TIP3   OH224559   2.647   6.296   3.319
 8209TIP3    H124560   2.643   6.390   3.302
 8209TIP3    H224561   2.736   6.271   3.296
 8210TIP3   OH224562   1.368   6.063   5.013
 8210TIP3    H124563   1.297   6.047   4.950
 8210TIP3    H224564   1.401   5.976   5.035
 8211TIP3   OH224565   1.211   6.262   4.661
 8211TIP3    H124566   1.304   6.280   4.677
 8211TIP3    H224567   1.165   6.339   4.694
 8212TIP3   OH224568   3.068   6.709   4.711
 8212TIP3    H124569   3.073   6.614   4.724
 8212TIP3    H224570   2.988   6.735   4.757
 8213TIP3   OH224571   2.172   6.493   4.838
 8213TIP3    H124572   2.166   6.583   4.867
 8213TIP3    H224573   2.105   6.446   4.888
 8214TIP3   OH224574   1.949   6.597   3.789
 8214TIP3    H124575   1.891   6.580   3.715
 8214TIP3    H224576   1.919   6.681   3.824
 8215TIP3   OH224577   1.387   6.447   4.170
 8215TIP3    H124578   1.432   6.440   4.255
 8215TIP3    H224579   1.338   6.365   4.163
 8216TIP3   OH224580   2.147   6.516   3.421
 8216TIP3    H124581   2.199   6.443   3.387
 8216TIP3    H224582   2.181   6.531   3.509
 8217TIP3   OH224583   2.202   6.565   3.688
 8217TIP3    H124584   2.116   6.570   3.730
 8217TIP3    H224585   2.261   6.533   3.757
 8218TIP3   OH224586   2.959   5.821   4.978
 8218TIP3    H124587   2.876   5.830   4.931
 8218TIP3    H224588   2.976   5.727   4.977
 8219TIP3   OH224589   1.568   6.249   4.982
 8219TIP3    H124590   1.616   6.238   5.064
 8219TIP3    H224591   1.496   6.187   4.989
 8220TIP3   OH224592   1.951   5.062   4.789
 8220TIP3    H124593   1.866   5.027   4.761
 8220TIP3    H224594   1.928   5.141   4.839
 8221TIP3   OH224595   2.497   5.167   4.986
 8221TIP3    H124596   2.567   5.142   5.046
 8221TIP3    H224597   2.417   5.152   5.035
 8222TIP3   OH224598   2.715   5.604   4.910
 8222TIP3    H124599   2.674   5.599   4.996
 8222TIP3    H224600   2.699   5.693   4.879
 8223TIP3   OH224601   2.391   5.690   3.446
 8223TIP3    H124602   2.352   5.685   3.359
 8223TIP3    H224603   2.473   5.737   3.433
 8224TIP3   OH224604   2.101   5.103   3.761
 8224TIP3    H124605   2.067   5.109   3.851
 8224TIP3    H224606   2.065   5.021   3.727
 8225TIP3   OH224607   1.889   5.590   4.805
 8225TIP3    H124608   1.843   5.597   4.888
 8225TIP3    H224609   1.868   5.671   4.758
 8226TIP3   OH224610   1.770   5.470   4.322
 8226TIP3    H124611   1.681   5.445   4.348
 8226TIP3    H224612   1.780   5.435   4.234
 8227TIP3   OH224613   2.252   5.545   4.051
 8227TIP3    H124614   2.204   5.617   4.011
 8227TIP3    H224615   2.310   5.513   3.982
 8228TIP3   OH224616   2.435   5.813   5.126
 8228TIP3    H124617   2.409   5.744   5.187
 8228TIP3    H224618   2.528   5.828   5.146
 8229TIP3   OH224619   2.420   5.559   4.275
 8229TIP3    H124620   2.351   5.581   4.213
 8229TIP3    H224621   2.466   5.485   4.236
 8230TIP3   OH224622   1.724   5.604   5.024
 8230TIP3    H124623   1.740   5.667   5.095
 8230TIP3    H224624   1.707   5.521   5.070
 8231TIP3   OH224625   1.766   5.082   3.735
 8231TIP3    H124626   1.758   5.084   3.831
 8231TIP3    H224627   1.688   5.128   3.704
 8232TIP3   OH224628   1.312   5.123   4.602
 8232TIP3    H124629   1.384   5.158   4.654
 8232TIP3    H224630   1.351   5.100   4.518
 8233TIP3   OH224631   1.232   5.102   4.108
 8233TIP3    H124632   1.277   5.136   4.031
 8233TIP3    H224633   1.170   5.171   4.132
 8234TIP3   OH224634   2.456   5.814   4.703
 8234TIP3    H124635   2.483   5.747   4.639
 8234TIP3    H224636   2.416   5.764   4.774
 8235TIP3   OH224637   2.130   5.264   4.375
 8235TIP3    H124638   2.053   5.263   4.431
 8235TIP3    H224639   2.204   5.252   4.436
 8236TIP3   OH224640   1.533   5.344   4.383
 8236TIP3    H124641   1.444   5.348   4.347
 8236TIP3    H224642   1.560   5.253   4.368
 8237TIP3   OH224643   1.785   5.343   4.079
 8237TIP3    H124644   1.880   5.355   4.068
 8237TIP3    H224645   1.748   5.362   3.993
 8238TIP3   OH224646   2.586   5.352   4.581
 8238TIP3    H124647   2.569   5.366   4.674
 8238TIP3    H224648   2.519   5.289   4.554
 8239TIP3   OH224649   1.667   5.371   3.833
 8239TIP3    H124650   1.602   5.323   3.782
 8239TIP3    H224651   1.721   5.415   3.768
 8240TIP3   OH224652   2.781   7.053   4.806
 8240TIP3    H124653   2.778   7.071   4.712
 8240TIP3    H224654   2.859   7.098   4.837
 8241TIP3   OH224655   1.723   6.161   5.217
 8241TIP3    H124656   1.804   6.183   5.264
 8241TIP3    H224657   1.654   6.170   5.283
 8242TIP3   OH224658   2.183   5.628   4.483
 8242TIP3    H124659   2.249   5.577   4.436
 8242TIP3    H224660   2.180   5.590   4.570
 8243TIP3   OH224661   1.679   5.095   4.373
 8243TIP3    H124662   1.649   5.021   4.425
 8243TIP3    H224663   1.709   5.057   4.291
 8244TIP3   OH224664   2.157   5.536   4.747
 8244TIP3    H124665   2.069   5.566   4.773
 8244TIP3    H224666   2.217   5.586   4.802
 8245TIP3   OH224667   1.891   5.891   3.854
 8245TIP3    H124668   1.818   5.833   3.834
 8245TIP3    H224669   1.868   5.931   3.938
 8246TIP3   OH224670   2.783   6.141   4.469
 8246TIP3    H124671   2.818   6.190   4.394
 8246TIP3    H224672   2.703   6.101   4.436
 8247TIP3   OH224673   2.353   5.207   3.754
 8247TIP3    H124674   2.260   5.185   3.756
 8247TIP3    H224675   2.357   5.301   3.772
 8248TIP3   OH224676   2.296   6.225   4.875
 8248TIP3    H124677   2.344   6.214   4.957
 8248TIP3    H224678   2.255   6.311   4.883
 8249TIP3   OH224679   2.415   5.467   3.834
 8249TIP3    H124680   2.510   5.470   3.846
 8249TIP3    H224681   2.394   5.546   3.784
 8250TIP3   OH224682   1.581   5.898   4.512
 8250TIP3    H124683   1.620   5.883   4.426
 8250TIP3    H224684   1.647   5.869   4.575
 8251TIP3   OH224685   2.044   6.050   3.690
 8251TIP3    H124686   1.996   6.132   3.689
 8251TIP3    H224687   1.991   5.992   3.746
 8252TIP3   OH224688   1.467   5.831   5.143
 8252TIP3    H124689   1.470   5.806   5.235
 8252TIP3    H224690   1.393   5.781   5.108
 8253TIP3   OH224691   2.202   5.965   5.166
 8253TIP3    H124692   2.133   5.904   5.137
 8253TIP3    H224693   2.284   5.924   5.137
 8254TIP3   OH224694   2.444   6.508   4.760
 8254TIP3    H124695   2.349   6.496   4.766
 8254TIP3    H224696   2.468   6.547   4.844
 8255TIP3   OH224697   2.835   5.555   3.654
 8255TIP3    H124698   2.779   5.509   3.591
 8255TIP3    H224699   2.840   5.645   3.621
 8256TIP3   OH224700   3.082   6.427   4.736
 8256TIP3    H124701   2.988   6.413   4.732
 8256TIP3    H224702   3.115   6.397   4.652
 8257TIP3   OH224703   2.567   6.372   3.586
 8257TIP3    H124704   2.541   6.306   3.650
 8257TIP3    H224705   2.585   6.323   3.507
 8258TIP3   OH224706   2.552   6.007   4.366
 8258TIP3    H124707   2.462   5.985   4.391
 8258TIP3    H224708   2.587   5.926   4.330
 8259TIP3   OH224709   1.703   6.241   4.175
 8259TIP3    H124710   1.697   6.317   4.117
 8259TIP3    H224711   1.616   6.236   4.216
 8260TIP3   OH224712   1.266   5.528   3.891
 8260TIP3    H124713   1.309   5.611   3.911
 8260TIP3    H224714   1.186   5.528   3.943
 8261TIP3   OH224715   1.797   5.998   4.084
 8261TIP3    H124716   1.775   6.087   4.112
 8261TIP3    H224717   1.771   5.943   4.157
 8262TIP3   OH224718   1.987   6.566   4.632
 8262TIP3    H124719   2.023   6.639   4.582
 8262TIP3    H224720   2.060   6.534   4.683
 8263TIP3   OH224721   1.619   6.467   4.021
 8263TIP3    H124722   1.533   6.471   4.064
 8263TIP3    H224723   1.654   6.556   4.028
 8264TIP3   OH224724   2.341   6.225   4.603
 8264TIP3    H124725   2.327   6.222   4.698
 8264TIP3    H224726   2.420   6.173   4.589
 8265TIP3   OH224727   2.326   6.105   3.483
 8265TIP3    H124728   2.387   6.079   3.551
 8265TIP3    H224729   2.241   6.075   3.514
 8266TIP3   OH224730   2.594   6.727   4.645
 8266TIP3    H124731   2.523   6.664   4.659
 8266TIP3    H224732   2.563   6.782   4.573
 8267TIP3   OH224733   2.648   6.571   3.284
 8267TIP3    H124734   2.676   6.637   3.221
 8267TIP3    H224735   2.575   6.612   3.330
 8268TIP3   OH224736   1.677   5.350   5.147
 8268TIP3    H124737   1.581   5.356   5.150
 8268TIP3    H224738   1.699   5.291   5.219
 8269TIP3   OH224739   2.510   6.018   3.664
 8269TIP3    H124740   2.494   5.966   3.742
 8269TIP3    H224741   2.605   6.026   3.660
 8270TIP3   OH224742   1.416   6.454   4.787
 8270TIP3    H124743   1.468   6.398   4.845
 8270TIP3    H224744   1.426   6.542   4.823
 8271TIP3   OH224745   1.679   6.078   3.474
 8271TIP3    H124746   1.695   5.986   3.453
 8271TIP3    H224747   1.667   6.078   3.569
 8272TIP3   OH224748   1.628   6.091   3.749
 8272TIP3    H124749   1.692   6.059   3.813
 8272TIP3    H224750   1.628   6.186   3.760
 8273TIP3   OH224751   1.360   5.780   3.968
 8273TIP3    H124752   1.296   5.827   4.020
 8273TIP3    H224753   1.379   5.838   3.895
 8274TIP3   OH224754   2.527   5.405   4.845
 8274TIP3    H124755   2.605   5.449   4.879
 8274TIP3    H224756   2.519   5.326   4.899
 8275TIP3   OH224757   2.412   5.155   4.026
 8275TIP3    H124758   2.393   5.175   3.935
 8275TIP3    H224759   2.455   5.234   4.059
 8276TIP3   OH224760   1.894   6.276   3.682
 8276TIP3    H124761   1.813   6.298   3.726
 8276TIP3    H224762   1.913   6.352   3.626
 8277TIP3   OH224763   2.065   5.354   4.121
 8277TIP3    H124764   2.128   5.422   4.096
 8277TIP3    H224765   2.086   5.334   4.212
 8278TIP3   OH224766   2.365   5.646   4.901
 8278TIP3    H124767   2.389   5.689   4.983
 8278TIP3    H224768   2.414   5.564   4.902
 8279TIP3   OH224769   2.229   5.053   4.210
 8279TIP3    H124770   2.207   5.130   4.263
 8279TIP3    H224771   2.297   5.084   4.150
 8280TIP3   OH224772   1.647   6.363   3.769
 8280TIP3    H124773   1.622   6.433   3.709
 8280TIP3    H224774   1.635   6.400   3.857
 8281TIP3   OH224775   1.743   5.071   4.013
 8281TIP3    H124776   1.731   5.161   4.046
 8281TIP3    H224777   1.837   5.056   4.020
 8282TIP3   OH224778   2.978   5.543   4.886
 8282TIP3    H124779   2.884   5.555   4.900
 8282TIP3    H224780   2.983   5.482   4.812
 8283TIP3   OH224781   2.644   5.750   4.277
 8283TIP3    H124782   2.567   5.694   4.290
 8283TIP3    H224783   2.711   5.710   4.332
 8284TIP3   OH224784   1.382   5.959   3.752
 8284TIP3    H124785   1.454   6.022   3.761
 8284TIP3    H224786   1.414   5.895   3.689
 8285TIP3   OH224787   1.287   5.249   3.882
 8285TIP3    H124788   1.301   5.344   3.891
 8285TIP3    H224789   1.211   5.242   3.825
 8286TIP3   OH224790   2.623   6.723   4.218
 8286TIP3    H124791   2.581   6.773   4.147
 8286TIP3    H224792   2.716   6.734   4.203
 8287TIP3   OH224793   1.690   4.969   4.758
 8287TIP3    H124794   1.661   4.936   4.673
 8287TIP3    H224795   1.681   4.895   4.817
 8288TIP3   OH224796   1.212   6.223   4.145
 8288TIP3    H124797   1.168   6.261   4.222
 8288TIP3    H224798   1.172   6.267   4.070
 8289TIP3   OH224799   1.405   6.750   5.216
 8289TIP3    H124800   1.490   6.756   5.260
 8289TIP3    H224801   1.387   6.656   5.212
 8290TIP3   OH224802   1.877   6.675   5.260
 8290TIP3    H124803   1.970   6.653   5.267
 8290TIP3    H224804   1.845   6.620   5.188
 8291TIP3   OH224805   1.805   6.275   3.323
 8291TIP3    H124806   1.767   6.211   3.384
 8291TIP3    H224807   1.890   6.239   3.300
 8292TIP3   OH224808   2.501   6.613   5.007
 8292TIP3    H124809   2.511   6.544   5.072
 8292TIP3    H224810   2.575   6.672   5.023
 8293TIP3   OH224811   2.275   6.304   3.299
 8293TIP3    H124812   2.307   6.242   3.364
 8293TIP3    H224813   2.339   6.301   3.228
 8294TIP3   OH224814   1.519   6.158   5.408
 8294TIP3    H124815   1.535   6.064   5.417
 8294TIP3    H224816   1.434   6.164   5.365
 8295TIP3   OH224817   1.510   5.769   3.604
 8295TIP3    H124818   1.559   5.744   3.682
 8295TIP3    H224819   1.576   5.782   3.536
 8296TIP3   OH224820   2.136   6.242   5.182
 8296TIP3    H124821   2.091   6.263   5.100
 8296TIP3    H224822   2.170   6.153   5.169
 8297TIP3   OH224823   2.032   5.990   3.420
 8297TIP3    H124824   2.027   6.003   3.514
 8297TIP3    H224825   2.030   5.896   3.408
 8298TIP3   OH224826   2.612   6.282   4.796
 8298TIP3    H124827   2.690   6.312   4.749
 8298TIP3    H224828   2.547   6.350   4.781
 8299TIP3   OH224829   1.634   5.900   5.410
 8299TIP3    H124830   1.711   5.887   5.354
 8299TIP3    H224831   1.671   5.923   5.496
 8300TIP3   OH224832   1.683   5.710   3.816
 8300TIP3    H124833   1.661   5.682   3.904
 8300TIP3    H224834   1.729   5.635   3.777
 8301TIP3   OH224835   1.993   5.787   5.069
 8301TIP3    H124836   1.908   5.831   5.077
 8301TIP3    H224837   2.026   5.816   4.983
 8302TIP3   OH224838   1.819   5.521   3.660
 8302TIP3    H124839   1.789   5.525   3.570
 8302TIP3    H224840   1.914   5.528   3.655
 8303TIP3   OH224841   2.494   6.164   5.160
 8303TIP3    H124842   2.563   6.126   5.106
 8303TIP3    H224843   2.491   6.108   5.237
 8304TIP3   OH224844   2.614   5.818   3.339
 8304TIP3    H124845   2.602   5.775   3.254
 8304TIP3    H224846   2.587   5.908   3.325
 8305TIP3   OH224847   2.097   5.558   5.179
 8305TIP3    H124848   2.100   5.486   5.115
 8305TIP3    H224849   2.062   5.632   5.129
 8306TIP3   OH224850   2.105   5.359   4.976
 8306TIP3    H124851   2.133   5.395   4.891
 8306TIP3    H224852   2.015   5.331   4.962
 8307TIP3   OH224853   2.114   5.882   4.845
 8307TIP3    H124854   2.203   5.913   4.831
 8307TIP3    H224855   2.059   5.945   4.798
 8308TIP3   OH224856   2.703   5.842   5.226
 8308TIP3    H124857   2.740   5.754   5.233
 8308TIP3    H224858   2.779   5.899   5.209
 8309TIP3   OH224859   2.738   6.109   4.965
 8309TIP3    H124860   2.684   6.170   4.914
 8309TIP3    H224861   2.827   6.124   4.933
 8310TIP3   OH224862   1.981   5.646   5.420
 8310TIP3    H124863   1.913   5.581   5.440
 8310TIP3    H224864   2.010   5.622   5.332
 8311TIP3   OH224865   2.231   5.126   5.071
 8311TIP3    H124866   2.189   5.207   5.040
 8311TIP3    H224867   2.165   5.058   5.058
 8312TIP3   OH224868   2.353   5.600   5.278
 8312TIP3    H124869   2.344   5.587   5.372
 8312TIP3    H224870   2.267   5.578   5.242
 8313TIP3   OH224871   2.600   5.558   5.148
 8313TIP3    H124872   2.521   5.554   5.203
 8313TIP3    H224873   2.670   5.527   5.206
 8314TIP3   OH224874   2.835   5.515   5.296
 8314TIP3    H124875   2.848   5.420   5.302
 8314TIP3    H224876   2.831   5.544   5.387
 8315TIP3   OH224877   1.817   5.427   5.485
 8315TIP3    H124878   1.821   5.339   5.447
 8315TIP3    H224879   1.856   5.417   5.572
 8316TIP3   OH224880   2.286   5.113   5.340
 8316TIP3    H124881   2.360   5.053   5.340
 8316TIP3    H224882   2.260   5.120   5.248
 8317TIP3   OH224883   2.388   5.324   5.485
 8317TIP3    H124884   2.357   5.253   5.429
 8317TIP3    H224885   2.316   5.387   5.486
 8318TIP3   OH224886   1.631   6.563   3.575
 8318TIP3    H124887   1.720   6.542   3.548
 8318TIP3    H224888   1.594   6.611   3.501
 8319TIP3   OH224889   1.108   5.955   3.760
 8319TIP3    H124890   1.203   5.964   3.764
 8319TIP3    H224891   1.094   5.866   3.728
 8320TIP3   OH224892   1.018   6.535   4.224
 8320TIP3    H124893   0.954   6.481   4.179
 8320TIP3    H224894   1.060   6.476   4.287
 8321TIP3   OH224895   1.157   6.370   4.397
 8321TIP3    H124896   1.149   6.304   4.465
 8321TIP3    H224897   1.209   6.440   4.438
 8322TIP3   OH224898   2.894   6.773   4.208
 8322TIP3    H124899   2.912   6.800   4.298
 8322TIP3    H224900   2.945   6.834   4.154
 8323TIP3   OH224901   2.911   6.807   4.488
 8323TIP3    H124902   2.862   6.724   4.484
 8323TIP3    H224903   2.980   6.791   4.552
 8324TIP3   OH224904   2.960   6.505   5.057
 8324TIP3    H124905   2.889   6.513   5.120
 8324TIP3    H224906   3.006   6.588   5.062
 8325TIP3   OH224907   2.789   6.020   3.668
 8325TIP3    H124908   2.847   6.091   3.640
 8325TIP3    H224909   2.831   5.982   3.745
 8326TIP3   OH224910   2.912   5.877   3.871
 8326TIP3    H124911   2.845   5.839   3.928
 8326TIP3    H224912   2.977   5.913   3.932
 8327TIP3   OH224913   2.959   6.281   4.303
 8327TIP3    H124914   3.013   6.213   4.262
 8327TIP3    H224915   2.960   6.353   4.240
 8328TIP3   OH224916   2.769   6.568   4.494
 8328TIP3    H124917   2.701   6.611   4.546
 8328TIP3    H224918   2.721   6.526   4.423
 8329TIP3   OH224919   2.824   5.794   3.516
 8329TIP3    H124920   2.751   5.794   3.454
 8329TIP3    H224921   2.809   5.872   3.570
 8330TIP3   OH224922   2.683   5.447   3.454
 8330TIP3    H124923   2.632   5.480   3.380
 8330TIP3    H224924   2.674   5.352   3.448
 8331TIP3   OH224925   2.710   5.738   4.008
 8331TIP3    H124926   2.716   5.643   3.996
 8331TIP3    H224927   2.692   5.749   4.101
 8332TIP3   OH224928   1.333   5.806   4.774
 8332TIP3    H124929   1.324   5.773   4.685
 8332TIP3    H224930   1.427   5.803   4.791
 8333TIP3   OH224931   2.995   6.157   4.870
 8333TIP3    H124932   3.062   6.090   4.855
 8333TIP3    H224933   3.013   6.223   4.803
 8334TIP3   OH224934   3.173   5.946   4.862
 8334TIP3    H124935   3.098   5.904   4.904
 8334TIP3    H224936   3.247   5.889   4.883
 8335TIP3   OH224937   2.638   5.178   3.431
 8335TIP3    H124938   2.705   5.148   3.493
 8335TIP3    H224939   2.558   5.134   3.459
 8336TIP3   OH224940   2.704   5.461   3.891
 8336TIP3    H124941   2.748   5.377   3.904
 8336TIP3    H224942   2.749   5.500   3.816
 8337TIP3   OH224943   2.859   5.624   4.414
 8337TIP3    H124944   2.940   5.641   4.367
 8337TIP3    H224945   2.872   5.664   4.500
 8338TIP3   OH224946   2.931   5.776   4.639
 8338TIP3    H124947   2.860   5.805   4.696
 8338TIP3    H224948   2.964   5.856   4.599
 8339TIP3   OH224949   1.553   5.480   5.425
 8339TIP3    H124950   1.647   5.478   5.441
 8339TIP3    H224951   1.521   5.398   5.463
 8340TIP3   OH224952   3.393   5.380   5.181
 8340TIP3    H124953   3.456   5.319   5.141
 8340TIP3    H224954   3.354   5.426   5.107
 8341TIP3   OH224955   2.818   5.211   3.941
 8341TIP3    H124956   2.864   5.197   4.024
 8341TIP3    H224957   2.756   5.139   3.936
 8342TIP3   OH224958   1.524   5.193   4.767
 8342TIP3    H124959   1.578   5.115   4.776
 8342TIP3    H224960   1.586   5.264   4.754
 8343TIP3   OH224961   1.316   5.459   4.836
 8343TIP3    H124962   1.365   5.453   4.754
 8343TIP3    H224963   1.339   5.545   4.871
 8344TIP3   OH224964   3.241   5.488   4.981
 8344TIP3    H124965   3.157   5.527   5.003
 8344TIP3    H224966   3.219   5.410   4.930
 8345TIP3   OH224967   2.868   5.128   3.582
 8345TIP3    H124968   2.915   5.065   3.526
 8345TIP3    H224969   2.926   5.204   3.586
 8346TIP3   OH224970   1.297   4.969   4.337
 8346TIP3    H124971   1.211   4.955   4.376
 8346TIP3    H224972   1.281   5.024   4.261
 8347TIP3   OH224973   2.448   6.686   3.847
 8347TIP3    H124974   2.507   6.677   3.772
 8347TIP3    H224975   2.489   6.754   3.901
 8348TIP3   OH224976   1.525   5.052   5.170
 8348TIP3    H124977   1.470   5.030   5.245
 8348TIP3    H224978   1.465   5.087   5.105
 8349TIP3   OH224979   1.555   6.473   5.230
 8349TIP3    H124980   1.461   6.457   5.221
 8349TIP3    H224981   1.571   6.467   5.324
 8350TIP3   OH224982   1.758   6.525   4.780
 8350TIP3    H124983   1.705   6.598   4.748
 8350TIP3    H224984   1.843   6.536   4.737
 8351TIP3   OH224985   2.161   6.760   4.917
 8351TIP3    H124986   2.197   6.752   5.005
 8351TIP3    H224987   2.224   6.812   4.869
 8352TIP3   OH224988   2.354   6.912   4.792
 8352TIP3    H124989   2.419   6.859   4.746
 8352TIP3    H224990   2.405   6.972   4.846
 8353TIP3   OH224991   3.162   5.231   4.887
 8353TIP3    H124992   3.073   5.206   4.864
 8353TIP3    H224993   3.212   5.150   4.881
 8354TIP3   OH224994   1.411   6.749   4.813
 8354TIP3    H124995   1.319   6.769   4.794
 8354TIP3    H224996   1.436   6.813   4.879
 8355TIP3   OH224997   1.647   6.752   4.671
 8355TIP3    H124998   1.563   6.755   4.717
 8355TIP3    H224999   1.627   6.781   4.582
 8356TIP3   OH225000   2.066   6.774   4.465
 8356TIP3    H125001   1.993   6.788   4.405
 8356TIP3    H225002   2.076   6.859   4.510
 8357TIP3   OH225003   2.330   6.710   4.514
 8357TIP3    H125004   2.239   6.730   4.497
 8357TIP3    H225005   2.380   6.780   4.471
 8358TIP3   OH225006   2.533   6.886   4.421
 8358TIP3    H125007   2.529   6.973   4.381
 8358TIP3    H225008   2.562   6.829   4.351
 8359TIP3   OH225009   1.332   6.549   4.536
 8359TIP3    H125010   1.351   6.524   4.627
 8359TIP3    H225011   1.406   6.514   4.486
 8360TIP3   OH225012   1.536   6.430   4.401
 8360TIP3    H125013   1.546   6.347   4.448
 8360TIP3    H225014   1.622   6.471   4.408
 8361TIP3   OH225015   1.802   6.518   4.427
 8361TIP3    H125016   1.822   6.425   4.414
 8361TIP3    H225017   1.854   6.543   4.503
 8362TIP3   OH225018   2.356   5.170   4.511
 8362TIP3    H125019   2.320   5.098   4.562
 8362TIP3    H225020   2.426   5.129   4.460
 8363TIP3   OH225021   2.863   5.077   4.392
 8363TIP3    H125022   2.902   5.128   4.321
 8363TIP3    H225023   2.773   5.107   4.398
 8364TIP3   OH225024   2.979   5.163   4.160
 8364TIP3    H125025   3.049   5.103   4.135
 8364TIP3    H225026   3.017   5.250   4.147
 8365TIP3   OH225027   1.602   4.868   4.514
 8365TIP3    H125028   1.512   4.836   4.520
 8365TIP3    H225029   1.656   4.790   4.508
 8366TIP3   OH225030   1.417   4.777   4.164
 8366TIP3    H125031   1.444   4.828   4.088
 8366TIP3    H225032   1.383   4.842   4.226
 8367TIP3   OH225033   2.077   4.908   4.405
 8367TIP3    H125034   2.126   4.957   4.339
 8367TIP3    H225035   2.115   4.935   4.488
 8368TIP3   OH225036   2.575   5.065   4.376
 8368TIP3    H125037   2.586   5.030   4.288
 8368TIP3    H225038   2.578   4.987   4.433
 8369TIP3   OH225039   2.632   5.001   3.947
 8369TIP3    H125040   2.552   5.048   3.971
 8369TIP3    H225041   2.621   4.914   3.986
 8370TIP3   OH225042   1.107   6.343   3.919
 8370TIP3    H125043   1.021   6.310   3.893
 8370TIP3    H225044   1.106   6.435   3.894
 8371TIP3   OH225045   1.530   4.907   3.929
 8371TIP3    H125046   1.575   4.843   3.873
 8371TIP3    H225047   1.599   4.962   3.964
 8372TIP3   OH225048   2.018   5.101   4.025
 8372TIP3    H125049   2.077   5.049   4.081
 8372TIP3    H225050   2.033   5.192   4.054
 8373TIP3   OH225051   1.884   6.487   3.499
 8373TIP3    H125052   1.972   6.512   3.470
 8373TIP3    H225053   1.854   6.425   3.432
 8374TIP3   OH225054   2.605   6.641   3.620
 8374TIP3    H125055   2.597   6.546   3.613
 8374TIP3    H225056   2.560   6.675   3.542
 8375TIP3   OH225057   1.828   5.157   5.398
 8375TIP3    H125058   1.793   5.089   5.455
 8375TIP3    H225059   1.920   5.164   5.422
 8376TIP3   OH225060   2.075   5.162   5.518
 8376TIP3    H125061   2.151   5.143   5.463
 8376TIP3    H225062   2.074   5.091   5.582
 8377TIP3   OH225063   1.185   6.329   3.596
 8377TIP3    H125064   1.185   6.331   3.691
 8377TIP3    H225065   1.270   6.291   3.572
 8378TIP3   OH225066   2.898   5.244   5.305
 8378TIP3    H125067   2.913   5.213   5.394
 8378TIP3    H225068   2.983   5.239   5.262
 8379TIP3   OH225069   2.819   6.779   4.807
 8379TIP3    H125070   2.743   6.749   4.757
 8379TIP3    H225071   2.805   6.873   4.817
 8380TIP3   OH225072   4.094   6.162   3.549
 8380TIP3    H125073   4.063   6.249   3.524
 8380TIP3    H225074   4.022   6.103   3.528
 8381TIP3   OH225075   4.087   6.156   3.975
 8381TIP3    H125076   4.141   6.140   4.052
 8381TIP3    H225077   4.046   6.072   3.956
 8382TIP3   OH225078   3.391   6.025   4.319
 8382TIP3    H125079   3.426   5.971   4.390
 8382TIP3    H225080   3.468   6.051   4.269
 8383TIP3   OH225081   4.357   6.465   3.647
 8383TIP3    H125082   4.347   6.397   3.714
 8383TIP3    H225083   4.380   6.544   3.695
 8384TIP3   OH225084   3.383   6.448   4.008
 8384TIP3    H125085   3.364   6.355   4.017
 8384TIP3    H225086   3.478   6.454   4.007
 8385TIP3   OH225087   3.068   5.654   3.792
 8385TIP3    H125088   3.029   5.737   3.818
 8385TIP3    H225089   2.996   5.603   3.755
 8386TIP3   OH225090   3.143   5.959   4.009
 8386TIP3    H125091   3.193   5.882   4.037
 8386TIP3    H225092   3.210   6.022   3.982
 8387TIP3   OH225093   4.003   6.898   3.666
 8387TIP3    H125094   4.051   6.834   3.614
 8387TIP3    H225095   4.012   6.867   3.756
 8388TIP3   OH225096   3.900   6.380   3.982
 8388TIP3    H125097   3.943   6.299   3.955
 8388TIP3    H225098   3.972   6.437   4.011
 8389TIP3   OH225099   4.931   5.702   3.990
 8389TIP3    H125100   4.950   5.785   4.034
 8389TIP3    H225101   4.964   5.713   3.901
 8390TIP3   OH225102   4.306   5.870   4.014
 8390TIP3    H125103   4.342   5.786   4.042
 8390TIP3    H225104   4.270   5.853   3.927
 8391TIP3   OH225105   3.661   5.530   3.976
 8391TIP3    H125106   3.640   5.602   3.917
 8391TIP3    H225107   3.607   5.457   3.945
 8392TIP3   OH225108   4.357   5.629   3.607
 8392TIP3    H125109   4.420   5.621   3.679
 8392TIP3    H225110   4.408   5.662   3.534
 8393TIP3   OH225111   3.285   5.741   4.103
 8393TIP3    H125112   3.368   5.723   4.148
 8393TIP3    H225113   3.290   5.689   4.023
 8394TIP3   OH225114   3.708   5.940   3.917
 8394TIP3    H125115   3.802   5.924   3.924
 8394TIP3    H225116   3.673   5.859   3.882
 8395TIP3   OH225117   4.987   5.917   4.163
 8395TIP3    H125118   4.899   5.954   4.158
 8395TIP3    H225119   5.023   5.954   4.244
 8396TIP3   OH225120   3.642   5.530   4.427
 8396TIP3    H125121   3.590   5.565   4.355
 8396TIP3    H225122   3.587   5.545   4.505
 8397TIP3   OH225123   3.974   6.371   3.417
 8397TIP3    H125124   3.944   6.350   3.328
 8397TIP3    H225125   3.940   6.459   3.434
 8398TIP3   OH225126   3.740   6.305   4.195
 8398TIP3    H125127   3.686   6.376   4.230
 8398TIP3    H225128   3.789   6.346   4.124
 8399TIP3   OH225129   4.519   5.651   3.826
 8399TIP3    H125130   4.479   5.629   3.910
 8399TIP3    H225131   4.577   5.724   3.845
 8400TIP3   OH225132   3.531   5.638   4.197
 8400TIP3    H125133   3.586   5.712   4.221
 8400TIP3    H225134   3.578   5.595   4.126
 8401TIP3   OH225135   3.580   6.507   4.298
 8401TIP3    H125136   3.565   6.597   4.269
 8401TIP3    H225137   3.503   6.486   4.351
 8402TIP3   OH225138   2.961   6.209   3.551
 8402TIP3    H125139   2.924   6.230   3.465
 8402TIP3    H225140   2.985   6.294   3.588
 8403TIP3   OH225141   4.395   6.712   3.789
 8403TIP3    H125142   4.307   6.704   3.825
 8403TIP3    H225143   4.394   6.796   3.742
 8404TIP3   OH225144   4.723   5.605   4.154
 8404TIP3    H125145   4.639   5.632   4.115
 8404TIP3    H225146   4.788   5.630   4.089
 8405TIP3   OH225147   3.980   5.224   4.151
 8405TIP3    H125148   3.974   5.132   4.177
 8405TIP3    H225149   3.904   5.265   4.192
 8406TIP3   OH225150   4.126   6.736   3.482
 8406TIP3    H125151   4.173   6.656   3.460
 8406TIP3    H225152   4.170   6.805   3.432
 8407TIP3   OH225153   4.264   6.520   3.393
 8407TIP3    H125154   4.252   6.439   3.343
 8407TIP3    H225155   4.301   6.492   3.476
 8408TIP3   OH225156   4.628   6.604   4.132
 8408TIP3    H125157   4.614   6.529   4.074
 8408TIP3    H225158   4.615   6.681   4.076
 8409TIP3   OH225159   3.916   6.005   3.399
 8409TIP3    H125160   3.838   6.056   3.378
 8409TIP3    H225161   3.966   6.004   3.317
 8410TIP3   OH225162   3.889   5.808   3.094
 8410TIP3    H125163   3.954   5.857   3.146
 8410TIP3    H225164   3.940   5.741   3.049
 8411TIP3   OH225165   4.816   6.258   3.996
 8411TIP3    H125166   4.733   6.305   3.995
 8411TIP3    H225167   4.852   6.273   3.908
 8412TIP3   OH225168   4.280   6.093   3.362
 8412TIP3    H125169   4.225   6.119   3.435
 8412TIP3    H225170   4.362   6.066   3.402
 8413TIP3   OH225171   4.508   6.123   4.307
 8413TIP3    H125172   4.507   6.206   4.354
 8413TIP3    H225173   4.426   6.121   4.258
 8414TIP3   OH225174   3.509   6.075   3.771
 8414TIP3    H125175   3.473   6.015   3.706
 8414TIP3    H225176   3.582   6.027   3.810
 8415TIP3   OH225177   3.648   6.498   3.911
 8415TIP3    H125178   3.626   6.475   3.821
 8415TIP3    H225179   3.734   6.459   3.925
 8416TIP3   OH225180   3.609   6.069   4.144
 8416TIP3    H125181   3.649   6.033   4.064
 8416TIP3    H225182   3.659   6.149   4.161
 8417TIP3   OH225183   4.152   6.704   3.914
 8417TIP3    H125184   4.144   6.784   3.967
 8417TIP3    H225185   4.142   6.633   3.977
 8418TIP3   OH225186   3.779   6.607   4.465
 8418TIP3    H125187   3.719   6.665   4.513
 8418TIP3    H225188   3.722   6.555   4.408
 8419TIP3   OH225189   4.108   5.955   3.196
 8419TIP3    H125190   4.169   6.011   3.244
 8419TIP3    H225191   4.136   5.963   3.105
 8420TIP3   OH225192   3.534   6.156   4.601
 8420TIP3    H125193   3.538   6.249   4.623
 8420TIP3    H225194   3.441   6.136   4.596
 8421TIP3   OH225195   3.877   6.632   3.445
 8421TIP3    H125196   3.962   6.670   3.467
 8421TIP3    H225197   3.817   6.670   3.509
 8422TIP3   OH225198   3.569   6.766   4.551
 8422TIP3    H125199   3.542   6.775   4.459
 8422TIP3    H225200   3.487   6.750   4.598
 8423TIP3   OH225201   4.620   5.181   3.249
 8423TIP3    H125202   4.543   5.202   3.302
 8423TIP3    H225203   4.632   5.259   3.194
 8424TIP3   OH225204   3.383   5.919   3.568
 8424TIP3    H125205   3.304   5.964   3.537
 8424TIP3    H225206   3.353   5.830   3.589
 8425TIP3   OH225207   4.444   6.556   2.803
 8425TIP3    H125208   4.442   6.650   2.785
 8425TIP3    H225209   4.534   6.529   2.783
 8426TIP3   OH225210   3.161   6.319   4.499
 8426TIP3    H125211   3.091   6.301   4.436
 8426TIP3    H225212   3.195   6.233   4.523
 8427TIP3   OH225213   3.006   6.515   4.146
 8427TIP3    H125214   3.099   6.533   4.161
 8427TIP3    H225215   2.961   6.592   4.180
 8428TIP3   OH225216   4.863   6.960   4.199
 8428TIP3    H125217   4.867   6.866   4.215
 8428TIP3    H225218   4.784   6.989   4.246
 8429TIP3   OH225219   3.967   6.750   4.324
 8429TIP3    H125220   3.962   6.841   4.354
 8429TIP3    H225221   3.901   6.704   4.375
 8430TIP3   OH225222   3.183   6.703   3.657
 8430TIP3    H125223   3.227   6.697   3.742
 8430TIP3    H225224   3.132   6.622   3.651
 8431TIP3   OH225225   3.956   6.788   2.904
 8431TIP3    H125226   4.002   6.708   2.877
 8431TIP3    H225227   3.965   6.789   2.999
 8432TIP3   OH225228   3.992   6.814   3.185
 8432TIP3    H125229   3.938   6.748   3.229
 8432TIP3    H225230   4.069   6.824   3.242
 8433TIP3   OH225231   4.751   6.081   4.474
 8433TIP3    H125232   4.671   6.090   4.421
 8433TIP3    H225233   4.772   5.988   4.470
 8434TIP3   OH225234   3.363   6.505   4.468
 8434TIP3    H125235   3.412   6.493   4.549
 8434TIP3    H225236   3.290   6.442   4.475
 8435TIP3   OH225237   3.746   5.316   4.281
 8435TIP3    H125238   3.662   5.283   4.249
 8435TIP3    H225239   3.725   5.396   4.329
 8436TIP3   OH225240   4.286   5.440   4.483
 8436TIP3    H125241   4.356   5.415   4.543
 8436TIP3    H225242   4.205   5.421   4.532
 8437TIP3   OH225243   4.511   5.857   4.393
 8437TIP3    H125244   4.471   5.854   4.480
 8437TIP3    H225245   4.498   5.947   4.363
 8438TIP3   OH225246   4.187   5.952   2.934
 8438TIP3    H125247   4.145   5.946   2.849
 8438TIP3    H225248   4.271   5.996   2.918
 8439TIP3   OH225249   3.896   5.360   3.247
 8439TIP3    H125250   3.862   5.366   3.336
 8439TIP3    H225251   3.861   5.277   3.214
 8440TIP3   OH225252   3.685   5.847   4.292
 8440TIP3    H125253   3.639   5.854   4.375
 8440TIP3    H225254   3.665   5.928   4.245
 8441TIP3   OH225255   3.567   5.726   3.809
 8441TIP3    H125256   3.478   5.701   3.835
 8441TIP3    H225257   3.577   5.691   3.721
 8442TIP3   OH225258   4.046   5.803   3.536
 8442TIP3    H125259   3.998   5.874   3.494
 8442TIP3    H225260   4.105   5.770   3.468
 8443TIP3   OH225261   4.232   6.069   4.613
 8443TIP3    H125262   4.206   6.001   4.674
 8443TIP3    H225263   4.325   6.084   4.631
 8444TIP3   OH225264   4.214   5.816   3.762
 8444TIP3    H125265   4.146   5.838   3.698
 8444TIP3    H225266   4.261   5.742   3.722
 8445TIP3   OH225267   3.519   5.861   4.511
 8445TIP3    H125268   3.535   5.923   4.581
 8445TIP3    H225269   3.501   5.778   4.555
 8446TIP3   OH225270   3.562   5.338   3.223
 8446TIP3    H125271   3.554   5.340   3.318
 8446TIP3    H225272   3.484   5.384   3.191
 8447TIP3   OH225273   3.112   5.385   4.084
 8447TIP3    H125274   3.182   5.419   4.139
 8447TIP3    H225275   3.155   5.360   4.002
 8448TIP3   OH225276   3.026   5.359   3.596
 8448TIP3    H125277   3.073   5.395   3.520
 8448TIP3    H225278   2.964   5.427   3.620
 8449TIP3   OH225279   4.252   6.070   4.189
 8449TIP3    H125280   4.278   6.004   4.125
 8449TIP3    H225281   4.211   6.021   4.260
 8450TIP3   OH225282   3.928   5.520   3.862
 8450TIP3    H125283   3.851   5.520   3.918
 8450TIP3    H225284   4.002   5.510   3.922
 8451TIP3   OH225285   3.329   5.601   3.870
 8451TIP3    H125286   3.240   5.605   3.834
 8451TIP3    H225287   3.357   5.511   3.855
 8452TIP3   OH225288   3.581   5.601   3.565
 8452TIP3    H125289   3.675   5.612   3.554
 8452TIP3    H225290   3.544   5.620   3.479
 8453TIP3   OH225291   4.381   5.608   4.068
 8453TIP3    H125292   4.362   5.624   4.160
 8453TIP3    H225293   4.314   5.546   4.039
 8454TIP3   OH225294   3.463   5.629   3.319
 8454TIP3    H125295   3.399   5.580   3.267
 8454TIP3    H225296   3.517   5.673   3.253
 8455TIP3   OH225297   4.574   7.311   4.291
 8455TIP3    H125298   4.575   7.329   4.197
 8455TIP3    H225299   4.652   7.356   4.325
 8456TIP3   OH225300   3.519   6.420   4.702
 8456TIP3    H125301   3.600   6.440   4.750
 8456TIP3    H225302   3.450   6.426   4.767
 8457TIP3   OH225303   3.979   5.884   3.969
 8457TIP3    H125304   4.047   5.835   3.922
 8457TIP3    H225305   3.978   5.845   4.056
 8458TIP3   OH225306   3.474   5.353   3.858
 8458TIP3    H125307   3.445   5.278   3.909
 8458TIP3    H225308   3.505   5.316   3.775
 8459TIP3   OH225309   3.952   5.790   4.235
 8459TIP3    H125310   3.865   5.821   4.259
 8459TIP3    H225311   4.012   5.841   4.289
 8460TIP3   OH225312   3.681   6.156   3.339
 8460TIP3    H125313   3.611   6.093   3.321
 8460TIP3    H225314   3.661   6.190   3.426
 8461TIP3   OH225315   4.580   6.398   3.955
 8461TIP3    H125316   4.616   6.446   3.880
 8461TIP3    H225317   4.500   6.357   3.920
 8462TIP3   OH225318   4.150   5.461   3.245
 8462TIP3    H125319   4.056   5.441   3.244
 8462TIP3    H225320   4.153   5.556   3.261
 8463TIP3   OH225321   4.091   6.481   4.359
 8463TIP3    H125322   4.141   6.470   4.440
 8463TIP3    H225323   4.051   6.568   4.368
 8464TIP3   OH225324   4.211   5.723   3.321
 8464TIP3    H125325   4.306   5.726   3.332
 8464TIP3    H225326   4.191   5.802   3.269
 8465TIP3   OH225327   3.378   6.160   4.000
 8465TIP3    H125328   3.417   6.141   3.914
 8465TIP3    H225329   3.443   6.128   4.063
 8466TIP3   OH225330   3.838   6.314   3.178
 8466TIP3    H125331   3.796   6.399   3.173
 8466TIP3    H225332   3.780   6.261   3.233
 8467TIP3   OH225333   3.261   6.090   4.632
 8467TIP3    H125334   3.267   6.066   4.724
 8467TIP3    H225335   3.187   6.039   4.598
 8468TIP3   OH225336   3.998   6.222   4.652
 8468TIP3    H125337   3.930   6.161   4.623
 8468TIP3    H225338   4.080   6.181   4.623
 8469TIP3   OH225339   4.239   6.766   4.247
 8469TIP3    H125340   4.145   6.753   4.253
 8469TIP3    H225341   4.264   6.804   4.331
 8470TIP3   OH225342   4.628   5.812   3.141
 8470TIP3    H125343   4.572   5.766   3.078
 8470TIP3    H225344   4.634   5.901   3.107
 8471TIP3   OH225345   4.875   6.676   4.226
 8471TIP3    H125346   4.780   6.665   4.218
 8471TIP3    H225347   4.910   6.651   4.140
 8472TIP3   OH225348   4.364   6.629   3.067
 8472TIP3    H125349   4.341   6.559   3.127
 8472TIP3    H225350   4.384   6.584   2.984
 8473TIP3   OH225351   4.347   6.264   3.852
 8473TIP3    H125352   4.257   6.241   3.876
 8473TIP3    H225353   4.383   6.183   3.816
 8474TIP3   OH225354   3.495   6.497   3.662
 8474TIP3    H125355   3.483   6.570   3.602
 8474TIP3    H225356   3.410   6.486   3.704
 8475TIP3   OH225357   3.058   5.785   3.371
 8475TIP3    H125358   3.103   5.866   3.394
 8475TIP3    H225359   2.979   5.785   3.425
 8476TIP3   OH225360   3.592   6.254   3.574
 8476TIP3    H125361   3.567   6.342   3.602
 8476TIP3    H225362   3.567   6.197   3.647
 8477TIP3   OH225363   3.782   6.824   4.119
 8477TIP3    H125364   3.820   6.896   4.069
 8477TIP3    H225365   3.856   6.790   4.170
 8478TIP3   OH225366   3.410   6.716   3.502
 8478TIP3    H125367   3.325   6.721   3.546
 8478TIP3    H225368   3.447   6.804   3.511
 8479TIP3   OH225369   4.138   6.483   4.087
 8479TIP3    H125370   4.124   6.479   4.182
 8479TIP3    H225371   4.218   6.432   4.073
 8480TIP3   OH225372   4.131   6.362   2.973
 8480TIP3    H125373   4.182   6.344   3.052
 8480TIP3    H225374   4.045   6.325   2.991
 8481TIP3   OH225375   4.389   6.985   4.132
 8481TIP3    H125376   4.319   6.921   4.145
 8481TIP3    H225377   4.359   7.039   4.059
 8482TIP3   OH225378   4.449   6.831   2.773
 8482TIP3    H125379   4.485   6.901   2.718
 8482TIP3    H225380   4.373   6.871   2.815
 8483TIP3   OH225381   3.468   5.608   4.633
 8483TIP3    H125382   3.373   5.617   4.638
 8483TIP3    H225383   3.492   5.555   4.709
 8484TIP3   OH225384   4.302   6.305   3.185
 8484TIP3    H125385   4.287   6.232   3.245
 8484TIP3    H225386   4.396   6.303   3.168
 8485TIP3   OH225387   3.211   6.709   4.278
 8485TIP3    H125388   3.261   6.647   4.331
 8485TIP3    H225389   3.224   6.793   4.322
 8486TIP3   OH225390   3.480   6.319   2.976
 8486TIP3    H125391   3.490   6.228   2.947
 8486TIP3    H225392   3.468   6.313   3.070
 8487TIP3   OH225393   3.436   6.334   3.248
 8487TIP3    H125394   3.503   6.299   3.307
 8487TIP3    H225395   3.445   6.429   3.256
 8488TIP3   OH225396   3.156   6.034   3.454
 8488TIP3    H125397   3.092   6.081   3.507
 8488TIP3    H225398   3.176   6.094   3.382
 8489TIP3   OH225399   4.319   5.667   4.329
 8489TIP3    H125400   4.398   5.712   4.361
 8489TIP3    H225401   4.310   5.591   4.388
 8490TIP3   OH225402   4.209   5.411   3.516
 8490TIP3    H125403   4.190   5.430   3.424
 8490TIP3    H225404   4.252   5.490   3.547
 8491TIP3   OH225405   3.701   6.548   3.146
 8491TIP3    H125406   3.622   6.580   3.190
 8491TIP3    H225407   3.685   6.563   3.053
 8492TIP3   OH225408   3.861   5.611   3.607
 8492TIP3    H125409   3.923   5.679   3.582
 8492TIP3    H225410   3.882   5.591   3.699
 8493TIP3   OH225411   4.159   5.904   4.387
 8493TIP3    H125412   4.184   5.947   4.469
 8493TIP3    H225413   4.209   5.822   4.386
 8494TIP3   OH225414   4.024   5.310   3.697
 8494TIP3    H125415   4.002   5.387   3.749
 8494TIP3    H225416   4.093   5.340   3.637
 8495TIP3   OH225417   3.451   6.609   3.253
 8495TIP3    H125418   3.382   6.651   3.201
 8495TIP3    H225419   3.441   6.647   3.340
 8496TIP3   OH225420   3.538   5.328   3.501
 8496TIP3    H125421   3.526   5.418   3.532
 8496TIP3    H225422   3.632   5.312   3.507
 8497TIP3   OH225423   4.779   5.810   4.384
 8497TIP3    H125424   4.683   5.814   4.390
 8497TIP3    H225425   4.796   5.755   4.308
 8498TIP3   OH225426   4.440   6.007   3.764
 8498TIP3    H125427   4.364   5.950   3.776
 8498TIP3    H225428   4.509   5.967   3.817
 8499TIP3   OH225429   3.179   6.217   3.241
 8499TIP3    H125430   3.252   6.278   3.252
 8499TIP3    H225431   3.211   6.154   3.177
 8500TIP3   OH225432   3.089   5.507   3.374
 8500TIP3    H125433   3.101   5.602   3.381
 8500TIP3    H225434   3.021   5.496   3.308
 8501TIP3   OH225435   4.415   6.979   3.700
 8501TIP3    H125436   4.375   7.024   3.625
 8501TIP3    H225437   4.509   6.993   3.689
 8502TIP3   OH225438   3.485   5.230   4.241
 8502TIP3    H125439   3.457   5.196   4.156
 8502TIP3    H225440   3.477   5.156   4.300
 8503TIP3   OH225441   3.010   6.479   3.635
 8503TIP3    H125442   2.965   6.515   3.711
 8503TIP3    H225443   2.967   6.521   3.560
 8504TIP3   OH225444   3.207   7.016   4.700
 8504TIP3    H125445   3.289   7.021   4.748
 8504TIP3    H225446   3.189   6.923   4.691
 8505TIP3   OH225447   3.673   6.933   4.744
 8505TIP3    H125448   3.765   6.909   4.753
 8505TIP3    H225449   3.640   6.878   4.673
 8506TIP3   OH225450   3.639   6.519   2.876
 8506TIP3    H125451   3.590   6.444   2.908
 8506TIP3    H225452   3.715   6.482   2.830
 8507TIP3   OH225453   4.295   6.869   4.495
 8507TIP3    H125454   4.307   6.799   4.559
 8507TIP3    H225455   4.370   6.927   4.508
 8508TIP3   OH225456   4.079   6.565   2.792
 8508TIP3    H125457   4.110   6.502   2.857
 8508TIP3    H225458   4.142   6.560   2.721
 8509TIP3   OH225459   3.314   6.417   4.891
 8509TIP3    H125460   3.333   6.324   4.901
 8509TIP3    H225461   3.226   6.419   4.851
 8510TIP3   OH225462   3.304   6.025   3.092
 8510TIP3    H125463   3.355   6.001   3.169
 8510TIP3    H225464   3.368   6.035   3.022
 8511TIP3   OH225465   3.932   6.499   4.669
 8511TIP3    H125466   3.888   6.520   4.586
 8511TIP3    H225467   3.966   6.410   4.655
 8512TIP3   OH225468   3.851   6.247   2.913
 8512TIP3    H125469   3.837   6.261   3.006
 8512TIP3    H225470   3.841   6.153   2.901
 8513TIP3   OH225471   4.407   6.539   4.284
 8513TIP3    H125472   4.485   6.567   4.237
 8513TIP3    H225473   4.343   6.608   4.268
 8514TIP3   OH225474   3.430   6.162   4.896
 8514TIP3    H125475   3.508   6.139   4.845
 8514TIP3    H225476   3.464   6.181   4.983
 8515TIP3   OH225477   3.481   5.967   3.302
 8515TIP3    H125478   3.459   5.936   3.390
 8515TIP3    H225479   3.527   5.893   3.262
 8516TIP3   OH225480   3.789   6.043   4.555
 8516TIP3    H125481   3.704   6.087   4.563
 8516TIP3    H225482   3.822   6.071   4.470
 8517TIP3   OH225483   3.615   5.778   3.145
 8517TIP3    H125484   3.587   5.782   3.054
 8517TIP3    H225485   3.711   5.784   3.140
 8518TIP3   OH225486   4.291   6.420   4.646
 8518TIP3    H125487   4.360   6.383   4.591
 8518TIP3    H225488   4.288   6.363   4.722
 8519TIP3   OH225489   4.411   6.075   2.826
 8519TIP3    H125490   4.399   6.031   2.742
 8519TIP3    H225491   4.385   6.165   2.810
 8520TIP3   OH225492   3.894   5.814   4.664
 8520TIP3    H125493   3.897   5.743   4.601
 8520TIP3    H225494   3.858   5.888   4.615
 8521TIP3   OH225495   3.902   5.613   4.463
 8521TIP3    H125496   3.929   5.651   4.379
 8521TIP3    H225497   3.811   5.587   4.449
 8522TIP3   OH225498   3.910   6.138   4.332
 8522TIP3    H125499   4.000   6.167   4.317
 8522TIP3    H225500   3.856   6.202   4.285
 8523TIP3   OH225501   4.502   6.097   4.711
 8523TIP3    H125502   4.536   6.008   4.718
 8523TIP3    H225503   4.578   6.151   4.686
 8524TIP3   OH225504   4.534   6.366   4.452
 8524TIP3    H125505   4.480   6.426   4.401
 8524TIP3    H225506   4.623   6.380   4.420
 8525TIP3   OH225507   3.777   5.901   4.906
 8525TIP3    H125508   3.708   5.839   4.927
 8525TIP3    H225509   3.806   5.877   4.818
 8526TIP3   OH225510   4.022   5.379   4.561
 8526TIP3    H125511   3.981   5.460   4.529
 8526TIP3    H225512   3.955   5.312   4.549
 8527TIP3   OH225513   4.150   5.856   4.764
 8527TIP3    H125514   4.141   5.844   4.858
 8527TIP3    H225515   4.064   5.834   4.728
 8528TIP3   OH225516   4.397   5.814   4.634
 8528TIP3    H125517   4.318   5.812   4.688
 8528TIP3    H225518   4.467   5.785   4.692
 8529TIP3   OH225519   4.629   5.772   4.785
 8529TIP3    H125520   4.645   5.677   4.790
 8529TIP3    H225521   4.626   5.801   4.876
 8530TIP3   OH225522   3.611   5.680   4.969
 8530TIP3    H125523   3.617   5.591   4.933
 8530TIP3    H225524   3.650   5.673   5.056
 8531TIP3   OH225525   4.093   5.362   4.826
 8531TIP3    H125526   4.162   5.296   4.821
 8531TIP3    H225527   4.061   5.371   4.736
 8532TIP3   OH225528   4.185   5.578   4.971
 8532TIP3    H125529   4.156   5.506   4.915
 8532TIP3    H225530   4.112   5.640   4.971
 8533TIP3   OH225531   2.904   6.209   3.255
 8533TIP3    H125532   2.999   6.221   3.254
 8533TIP3    H225533   2.891   6.122   3.219
 8534TIP3   OH225534   2.812   6.794   3.714
 8534TIP3    H125535   2.746   6.741   3.670
 8534TIP3    H225536   2.856   6.733   3.774
 8535TIP3   OH225537   2.954   6.627   3.884
 8535TIP3    H125538   2.944   6.559   3.951
 8535TIP3    H225539   3.005   6.696   3.927
 8536TIP3   OH225540   4.683   7.041   3.693
 8536TIP3    H125541   4.705   7.069   3.782
 8536TIP3    H225542   4.744   7.090   3.638
 8537TIP3   OH225543   4.705   7.067   3.976
 8537TIP3    H125544   4.660   6.983   3.971
 8537TIP3    H225545   4.776   7.053   4.038
 8538TIP3   OH225546   4.757   6.759   4.548
 8538TIP3    H125547   4.686   6.770   4.612
 8538TIP3    H225548   4.802   6.843   4.548
 8539TIP3   OH225549   4.579   6.279   3.157
 8539TIP3    H125550   4.639   6.347   3.126
 8539TIP3    H225551   4.624   6.240   3.232
 8540TIP3   OH225552   4.708   6.136   3.357
 8540TIP3    H125553   4.643   6.098   3.416
 8540TIP3    H225554   4.775   6.172   3.416
 8541TIP3   OH225555   4.755   6.534   3.787
 8541TIP3    H125556   4.810   6.465   3.750
 8541TIP3    H225557   4.759   6.606   3.724
 8542TIP3   OH225558   4.565   6.826   3.981
 8542TIP3    H125559   4.498   6.869   4.033
 8542TIP3    H225560   4.516   6.784   3.910
 8543TIP3   OH225561   4.620   6.053   3.004
 8543TIP3    H125562   4.548   6.053   2.941
 8543TIP3    H225563   4.604   6.130   3.058
 8544TIP3   OH225564   4.474   5.704   2.942
 8544TIP3    H125565   4.428   5.737   2.865
 8544TIP3    H225566   4.466   5.608   2.935
 8545TIP3   OH225567   4.505   5.995   3.494
 8545TIP3    H125568   4.513   5.901   3.482
 8545TIP3    H225569   4.488   6.007   3.587
 8546TIP3   OH225570   3.128   6.063   4.263
 8546TIP3    H125571   3.118   6.028   4.174
 8546TIP3    H225572   3.222   6.060   4.280
 8547TIP3   OH225573   4.791   6.413   4.357
 8547TIP3    H125574   4.857   6.345   4.340
 8547TIP3    H225575   4.813   6.483   4.295
 8548TIP3   OH225576   4.965   6.201   4.350
 8548TIP3    H125577   4.892   6.159   4.395
 8548TIP3    H225578   5.041   6.146   4.369
 8549TIP3   OH225579   4.434   5.433   2.914
 8549TIP3    H125580   4.501   5.406   2.977
 8549TIP3    H225581   4.354   5.390   2.945
 8550TIP3   OH225582   4.500   5.717   3.378
 8550TIP3    H125583   4.544   5.633   3.391
 8550TIP3    H225584   4.544   5.756   3.303
 8551TIP3   OH225585   4.656   5.884   3.900
 8551TIP3    H125586   4.736   5.902   3.851
 8551TIP3    H225587   4.670   5.922   3.986
 8552TIP3   OH225588   4.728   6.032   4.129
 8552TIP3    H125589   4.656   6.063   4.183
 8552TIP3    H225590   4.761   6.111   4.086
 8553TIP3   OH225591   3.346   5.737   4.912
 8553TIP3    H125592   3.440   5.734   4.929
 8553TIP3    H225593   3.312   5.655   4.950
 8554TIP3   OH225594   5.189   5.622   4.672
 8554TIP3    H125595   5.252   5.562   4.632
 8554TIP3    H225596   5.156   5.674   4.599
 8555TIP3   OH225597   4.613   5.468   3.429
 8555TIP3    H125598   4.660   5.454   3.512
 8555TIP3    H225599   4.552   5.395   3.424
 8556TIP3   OH225600   3.320   5.454   4.256
 8556TIP3    H125601   3.373   5.375   4.263
 8556TIP3    H225602   3.383   5.524   4.241
 8557TIP3   OH225603   3.102   5.714   4.318
 8557TIP3    H125604   3.155   5.709   4.238
 8557TIP3    H225605   3.133   5.794   4.362
 8558TIP3   OH225606   5.040   5.749   4.477
 8558TIP3    H125607   4.956   5.789   4.498
 8558TIP3    H225608   5.019   5.673   4.423
 8559TIP3   OH225609   4.663   5.385   3.068
 8559TIP3    H125610   4.709   5.323   3.012
 8559TIP3    H225611   4.722   5.461   3.073
 8560TIP3   OH225612   3.091   5.220   3.822
 8560TIP3    H125613   3.004   5.211   3.863
 8560TIP3    H225614   3.076   5.276   3.746
 8561TIP3   OH225615   4.221   6.935   3.323
 8561TIP3    H125616   4.286   6.925   3.253
 8561TIP3    H225617   4.260   7.000   3.382
 8562TIP3   OH225618   3.307   5.282   4.644
 8562TIP3    H125619   3.254   5.272   4.723
 8562TIP3    H225620   3.251   5.332   4.584
 8563TIP3   OH225621   3.344   6.735   4.716
 8563TIP3    H125622   3.251   6.716   4.707
 8563TIP3    H225623   3.363   6.723   4.809
 8564TIP3   OH225624   3.553   6.783   4.267
 8564TIP3    H125625   3.501   6.856   4.235
 8564TIP3    H225626   3.638   6.793   4.224
 8565TIP3   OH225627   3.959   7.017   4.403
 8565TIP3    H125628   3.996   7.009   4.491
 8565TIP3    H225629   4.024   7.069   4.355
 8566TIP3   OH225630   4.153   7.169   4.277
 8566TIP3    H125631   4.219   7.116   4.233
 8566TIP3    H225632   4.203   7.230   4.332
 8567TIP3   OH225633   4.949   5.510   4.364
 8567TIP3    H125634   4.862   5.490   4.329
 8567TIP3    H225635   4.996   5.427   4.359
 8568TIP3   OH225636   3.214   7.027   4.311
 8568TIP3    H125637   3.122   7.044   4.289
 8568TIP3    H225638   3.235   7.092   4.378
 8569TIP3   OH225639   3.444   7.013   4.161
 8569TIP3    H125640   3.361   7.019   4.209
 8569TIP3    H225641   3.421   7.039   4.072
 8570TIP3   OH225642   3.862   7.032   3.952
 8570TIP3    H125643   3.789   7.047   3.892
 8570TIP3    H225644   3.873   7.116   3.997
 8571TIP3   OH225645   4.125   6.965   4.002
 8571TIP3    H125646   4.034   6.989   3.985
 8571TIP3    H225647   4.177   7.035   3.960
 8572TIP3   OH225648   4.323   7.139   3.905
 8572TIP3    H125649   4.326   7.227   3.866
 8572TIP3    H225650   4.356   7.082   3.835
 8573TIP3   OH225651   3.128   6.805   4.028
 8573TIP3    H125652   3.149   6.779   4.117
 8573TIP3    H225653   3.201   6.771   3.975
 8574TIP3   OH225654   3.331   6.688   3.889
 8574TIP3    H125655   3.341   6.605   3.935
 8574TIP3    H225656   3.418   6.729   3.894
 8575TIP3   OH225657   3.600   6.775   3.912
 8575TIP3    H125658   3.618   6.681   3.901
 8575TIP3    H225659   3.651   6.800   3.989
 8576TIP3   OH225660   4.156   5.427   3.997
 8576TIP3    H125661   4.119   5.354   4.046
 8576TIP3    H225662   4.225   5.387   3.943
 8577TIP3   OH225663   4.660   5.340   3.883
 8577TIP3    H125664   4.698   5.389   3.810
 8577TIP3    H225665   4.568   5.368   3.885
 8578TIP3   OH225666   4.774   5.419   3.648
 8578TIP3    H125667   4.843   5.358   3.622
 8578TIP3    H225668   4.813   5.506   3.635
 8579TIP3   OH225669   3.400   5.126   3.999
 8579TIP3    H125670   3.310   5.092   4.009
 8579TIP3    H225671   3.454   5.047   3.991
 8580TIP3   OH225672   3.204   5.024   3.649
 8580TIP3    H125673   3.235   5.075   3.574
 8580TIP3    H225674   3.172   5.089   3.711
 8581TIP3   OH225675   3.871   5.170   3.891
 8581TIP3    H125676   3.921   5.215   3.824
 8581TIP3    H225677   3.911   5.197   3.974
 8582TIP3   OH225678   4.371   5.315   3.864
 8582TIP3    H125679   4.390   5.278   3.778
 8582TIP3    H225680   4.375   5.240   3.923
 8583TIP3   OH225681   4.428   5.257   3.434
 8583TIP3    H125682   4.348   5.303   3.459
 8583TIP3    H225683   4.419   5.170   3.473
 8584TIP3   OH225684   2.894   6.597   3.415
 8584TIP3    H125685   2.809   6.563   3.388
 8584TIP3    H225686   2.896   6.688   3.384
 8585TIP3   OH225687   3.324   5.162   3.416
 8585TIP3    H125688   3.369   5.100   3.359
 8585TIP3    H225689   3.393   5.217   3.452
 8586TIP3   OH225690   3.813   5.358   3.512
 8586TIP3    H125691   3.872   5.306   3.566
 8586TIP3    H225692   3.828   5.448   3.540
 8587TIP3   OH225693   4.394   6.897   3.109
 8587TIP3    H125694   4.390   6.802   3.099
 8587TIP3    H225695   4.354   6.931   3.030
 8588TIP3   OH225696   3.622   5.407   4.883
 8588TIP3    H125697   3.587   5.340   4.942
 8588TIP3    H225698   3.714   5.414   4.907
 8589TIP3   OH225699   3.871   5.414   5.004
 8589TIP3    H125700   3.950   5.391   4.954
 8589TIP3    H225701   3.864   5.345   5.070
 8590TIP3   OH225702   3.005   6.599   3.060
 8590TIP3    H125703   2.997   6.605   3.155
 8590TIP3    H225704   3.086   6.550   3.045
 8591TIP3   OH225705   4.697   5.502   4.792
 8591TIP3    H125706   4.714   5.474   4.882
 8591TIP3    H225707   4.781   5.495   4.748
 8592TIP3   OH225708   4.613   7.036   4.296
 8592TIP3    H125709   4.538   7.008   4.244
 8592TIP3    H225710   4.603   7.131   4.303
 8593TIP3   OH225711   5.892   6.424   3.032
 8593TIP3    H125712   5.850   6.507   3.007
 8593TIP3    H225713   5.822   6.359   3.024
 8594TIP3   OH225714   5.889   6.412   3.443
 8594TIP3    H125715   5.943   6.388   3.518
 8594TIP3    H225716   5.849   6.330   3.414
 8595TIP3   OH225717   5.187   6.282   3.805
 8595TIP3    H125718   5.222   6.228   3.876
 8595TIP3    H225719   5.264   6.304   3.752
 8596TIP3   OH225720   6.155   6.723   3.132
 8596TIP3    H125721   6.140   6.654   3.196
 8596TIP3    H225722   6.177   6.800   3.184
 8597TIP3   OH225723   5.174   6.703   3.497
 8597TIP3    H125724   5.158   6.609   3.501
 8597TIP3    H225725   5.269   6.711   3.489
 8598TIP3   OH225726   4.861   5.908   3.279
 8598TIP3    H125727   4.824   5.992   3.305
 8598TIP3    H225728   4.787   5.860   3.242
 8599TIP3   OH225729   4.942   6.217   3.495
 8599TIP3    H125730   4.990   6.139   3.521
 8599TIP3    H225731   5.009   6.281   3.471
 8600TIP3   OH225732   5.810   7.155   3.145
 8600TIP3    H125733   5.837   7.090   3.080
 8600TIP3    H225734   5.811   7.107   3.228
 8601TIP3   OH225735   5.691   6.630   3.464
 8601TIP3    H125736   5.732   6.550   3.432
 8601TIP3    H225737   5.765   6.686   3.491
 8602TIP3   OH225738   6.728   5.953   3.479
 8602TIP3    H125739   6.744   6.039   3.520
 8602TIP3    H225740   6.746   5.967   3.386
 8603TIP3   OH225741   6.092   6.120   3.461
 8603TIP3    H125742   6.122   6.034   3.489
 8603TIP3    H225743   5.997   6.110   3.447
 8604TIP3   OH225744   5.451   5.783   3.468
 8604TIP3    H125745   5.439   5.857   3.408
 8604TIP3    H225746   5.397   5.713   3.431
 8605TIP3   OH225747   6.168   5.844   3.087
 8605TIP3    H125748   6.215   5.856   3.169
 8605TIP3    H225749   6.204   5.911   3.029
 8606TIP3   OH225750   5.079   5.993   3.582
 8606TIP3    H125751   5.161   5.975   3.628
 8606TIP3    H225752   5.086   5.943   3.501
 8607TIP3   OH225753   5.491   6.192   3.398
 8607TIP3    H125754   5.584   6.176   3.409
 8607TIP3    H225755   5.456   6.110   3.364
 8608TIP3   OH225756   6.783   6.175   3.649
 8608TIP3    H125757   6.696   6.212   3.634
 8608TIP3    H225758   6.807   6.205   3.737
 8609TIP3   OH225759   5.431   5.782   3.918
 8609TIP3    H125760   5.385   5.819   3.843
 8609TIP3    H225761   5.374   5.801   3.992
 8610TIP3   OH225762   5.757   6.633   2.911
 8610TIP3    H125763   5.731   6.616   2.821
 8610TIP3    H225764   5.715   6.715   2.934
 8611TIP3   OH225765   5.544   6.556   3.688
 8611TIP3    H125766   5.488   6.627   3.718
 8611TIP3    H225767   5.590   6.592   3.613
 8612TIP3   OH225768   6.318   5.904   3.315
 8612TIP3    H125769   6.276   5.887   3.399
 8612TIP3    H225770   6.374   5.980   3.331
 8613TIP3   OH225771   5.317   5.887   3.686
 8613TIP3    H125772   5.371   5.963   3.709
 8613TIP3    H225773   5.366   5.844   3.615
 8614TIP3   OH225774   5.378   6.761   3.784
 8614TIP3    H125775   5.363   6.851   3.754
 8614TIP3    H225776   5.301   6.740   3.836
 8615TIP3   OH225777   4.754   6.464   3.038
 8615TIP3    H125778   4.722   6.485   2.951
 8615TIP3    H225779   4.780   6.549   3.075
 8616TIP3   OH225780   6.197   6.969   3.280
 8616TIP3    H125781   6.110   6.961   3.317
 8616TIP3    H225782   6.195   7.052   3.232
 8617TIP3   OH225783   6.513   5.853   3.647
 8617TIP3    H125784   6.425   5.871   3.614
 8617TIP3    H225785   6.571   5.878   3.575
 8618TIP3   OH225786   5.762   5.468   3.637
 8618TIP3    H125787   5.755   5.379   3.669
 8618TIP3    H225788   5.693   5.516   3.682
 8619TIP3   OH225789   5.898   7.001   2.930
 8619TIP3    H125790   5.949   6.921   2.919
 8619TIP3    H225791   5.958   7.071   2.902
 8620TIP3   OH225792   6.051   6.782   2.881
 8620TIP3    H125793   6.038   6.699   2.834
 8620TIP3    H225794   6.091   6.755   2.964
 8621TIP3   OH225795   6.434   6.852   3.621
 8621TIP3    H125796   6.411   6.779   3.563
 8621TIP3    H225797   6.419   6.931   3.569
 8622TIP3   OH225798   5.701   6.265   2.893
 8622TIP3    H125799   5.631   6.321   2.859
 8622TIP3    H225800   5.761   6.253   2.819
 8623TIP3   OH225801   5.679   6.065   2.587
 8623TIP3    H125802   5.741   6.113   2.642
 8623TIP3    H225803   5.732   5.999   2.543
 8624TIP3   OH225804   6.610   6.522   3.481
 8624TIP3    H125805   6.524   6.565   3.479
 8624TIP3    H225806   6.645   6.535   3.393
 8625TIP3   OH225807   6.076   6.350   2.848
 8625TIP3    H125808   6.018   6.378   2.919
 8625TIP3    H225809   6.156   6.321   2.892
 8626TIP3   OH225810   6.311   6.383   3.782
 8626TIP3    H125811   6.298   6.464   3.832
 8626TIP3    H225812   6.234   6.376   3.727
 8627TIP3   OH225813   5.303   6.334   3.252
 8627TIP3    H125814   5.270   6.274   3.187
 8627TIP3    H225815   5.375   6.288   3.294
 8628TIP3   OH225816   5.438   6.754   3.399
 8628TIP3    H125817   5.415   6.738   3.307
 8628TIP3    H225818   5.524   6.713   3.410
 8629TIP3   OH225819   5.402   6.327   3.625
 8629TIP3    H125820   5.440   6.289   3.546
 8629TIP3    H225821   5.457   6.404   3.643
 8630TIP3   OH225822   5.957   6.963   3.407
 8630TIP3    H125823   5.946   7.039   3.464
 8630TIP3    H225824   5.944   6.888   3.464
 8631TIP3   OH225825   5.574   6.863   3.953
 8631TIP3    H125826   5.514   6.921   3.999
 8631TIP3    H225827   5.518   6.811   3.896
 8632TIP3   OH225828   5.898   6.209   2.691
 8632TIP3    H125829   5.961   6.263   2.739
 8632TIP3    H225830   5.928   6.213   2.600
 8633TIP3   OH225831   5.328   6.424   4.098
 8633TIP3    H125832   5.326   6.518   4.115
 8633TIP3    H225833   5.236   6.400   4.087
 8634TIP3   OH225834   5.646   6.889   2.939
 8634TIP3    H125835   5.732   6.930   2.945
 8634TIP3    H225836   5.593   6.952   2.890
 8635TIP3   OH225837   5.366   7.025   4.040
 8635TIP3    H125838   5.341   7.034   3.948
 8635TIP3    H225839   5.283   7.010   4.086
 8636TIP3   OH225840   6.419   5.439   2.738
 8636TIP3    H125841   6.343   5.461   2.792
 8636TIP3    H225842   6.433   5.516   2.683
 8637TIP3   OH225843   5.177   6.173   3.052
 8637TIP3    H125844   5.100   6.220   3.020
 8637TIP3    H225845   5.143   6.090   3.084
 8638TIP3   OH225846   6.234   6.808   2.296
 8638TIP3    H125847   6.234   6.900   2.271
 8638TIP3    H225848   6.324   6.779   2.283
 8639TIP3   OH225849   4.956   6.579   3.985
 8639TIP3    H125850   4.888   6.558   3.921
 8639TIP3    H225851   4.991   6.494   4.012
 8640TIP3   OH225852   4.815   6.761   3.627
 8640TIP3    H125853   4.910   6.765   3.624
 8640TIP3    H225854   4.789   6.839   3.676
 8641TIP3   OH225855   6.661   7.232   3.683
 8641TIP3    H125856   6.666   7.136   3.690
 8641TIP3    H225857   6.581   7.255   3.730
 8642TIP3   OH225858   5.764   7.003   3.811
 8642TIP3    H125859   5.758   7.094   3.839
 8642TIP3    H225860   5.696   6.958   3.862
 8643TIP3   OH225861   5.542   7.107   2.767
 8643TIP3    H125862   5.497   7.089   2.684
 8643TIP3    H225863   5.507   7.191   2.795
 8644TIP3   OH225864   4.978   6.961   3.147
 8644TIP3    H125865   5.024   6.954   3.231
 8644TIP3    H225866   4.932   6.878   3.138
 8645TIP3   OH225867   5.744   7.034   2.396
 8645TIP3    H125868   5.793   6.960   2.362
 8645TIP3    H225869   5.780   7.048   2.484
 8646TIP3   OH225870   5.797   7.081   2.664
 8646TIP3    H125871   5.711   7.084   2.707
 8646TIP3    H225872   5.855   7.043   2.730
 8647TIP3   OH225873   6.548   6.338   3.951
 8647TIP3    H125874   6.468   6.350   3.900
 8647TIP3    H225875   6.566   6.244   3.947
 8648TIP3   OH225876   5.158   6.763   3.953
 8648TIP3    H125877   5.207   6.755   4.034
 8648TIP3    H225878   5.086   6.701   3.961
 8649TIP3   OH225879   5.538   5.569   3.774
 8649TIP3    H125880   5.453   5.542   3.739
 8649TIP3    H225881   5.520   5.652   3.818
 8650TIP3   OH225882   6.085   5.690   3.963
 8650TIP3    H125883   6.152   5.666   4.027
 8650TIP3    H225884   6.002   5.668   4.005
 8651TIP3   OH225885   6.318   6.123   3.894
 8651TIP3    H125886   6.270   6.120   3.977
 8651TIP3    H225887   6.289   6.204   3.853
 8652TIP3   OH225888   5.977   6.191   2.422
 8652TIP3    H125889   5.939   6.194   2.335
 8652TIP3    H225890   6.061   6.238   2.413
 8653TIP3   OH225891   5.683   5.624   2.744
 8653TIP3    H125892   5.655   5.629   2.836
 8653TIP3    H225893   5.650   5.540   2.714
 8654TIP3   OH225894   5.468   6.097   3.766
 8654TIP3    H125895   5.433   6.114   3.853
 8654TIP3    H225896   5.456   6.179   3.718
 8655TIP3   OH225897   5.364   5.971   3.286
 8655TIP3    H125898   5.275   5.942   3.307
 8655TIP3    H225899   5.380   5.936   3.198
 8656TIP3   OH225900   6.028   6.331   4.111
 8656TIP3    H125901   6.001   6.258   4.167
 8656TIP3    H225902   6.122   6.342   4.127
 8657TIP3   OH225903   5.306   6.115   3.995
 8657TIP3    H125904   5.369   6.163   4.048
 8657TIP3    H225905   5.292   6.033   4.044
 8658TIP3   OH225906   5.353   5.592   2.705
 8658TIP3    H125907   5.346   5.594   2.801
 8658TIP3    H225908   5.277   5.641   2.675
 8659TIP3   OH225909   4.908   5.641   3.574
 8659TIP3    H125910   4.975   5.677   3.632
 8659TIP3    H225911   4.955   5.619   3.493
 8660TIP3   OH225912   4.821   5.616   3.084
 8660TIP3    H125913   4.867   5.652   3.008
 8660TIP3    H225914   4.759   5.685   3.108
 8661TIP3   OH225915   6.076   6.327   3.641
 8661TIP3    H125916   6.088   6.258   3.576
 8661TIP3    H225917   6.035   6.283   3.716
 8662TIP3   OH225918   5.733   5.791   3.363
 8662TIP3    H125919   5.654   5.783   3.415
 8662TIP3    H225920   5.762   5.882   3.375
 8663TIP3   OH225921   5.124   5.852   3.347
 8663TIP3    H125922   5.033   5.856   3.316
 8663TIP3    H225923   5.150   5.761   3.336
 8664TIP3   OH225924   5.413   5.868   3.030
 8664TIP3    H125925   5.482   5.930   3.007
 8664TIP3    H225926   5.351   5.874   2.957
 8665TIP3   OH225927   6.201   5.878   3.572
 8665TIP3    H125928   6.173   5.910   3.658
 8665TIP3    H225929   6.142   5.805   3.554
 8666TIP3   OH225930   5.252   5.879   2.809
 8666TIP3    H125931   5.187   5.832   2.757
 8666TIP3    H225932   5.306   5.925   2.744
 8667TIP3   OH225933   6.373   7.566   3.778
 8667TIP3    H125934   6.369   7.580   3.683
 8667TIP3    H225935   6.454   7.611   3.805
 8668TIP3   OH225936   5.312   6.687   4.190
 8668TIP3    H125937   5.393   6.705   4.238
 8668TIP3    H225938   5.244   6.691   4.257
 8669TIP3   OH225939   5.269   5.605   3.340
 8669TIP3    H125940   5.239   5.533   3.395
 8669TIP3    H225941   5.316   5.563   3.268
 8670TIP3   OH225942   5.738   6.021   3.795
 8670TIP3    H125943   5.651   6.045   3.763
 8670TIP3    H225944   5.799   6.054   3.729
 8671TIP3   OH225945   5.470   6.417   2.815
 8671TIP3    H125946   5.401   6.353   2.800
 8671TIP3    H225947   5.453   6.451   2.903
 8672TIP3   OH225948   6.371   6.653   3.441
 8672TIP3    H125949   6.403   6.702   3.366
 8672TIP3    H225950   6.291   6.611   3.409
 8673TIP3   OH225951   5.945   5.704   2.718
 8673TIP3    H125952   5.850   5.696   2.725
 8673TIP3    H225953   5.962   5.797   2.730
 8674TIP3   OH225954   5.895   6.745   3.838
 8674TIP3    H125955   5.932   6.731   3.925
 8674TIP3    H225956   5.849   6.829   3.845
 8675TIP3   OH225957   6.022   5.960   2.768
 8675TIP3    H125958   6.109   5.977   2.804
 8675TIP3    H225959   5.983   6.047   2.759
 8676TIP3   OH225960   5.170   6.414   3.482
 8676TIP3    H125961   5.209   6.397   3.396
 8676TIP3    H225962   5.236   6.385   3.544
 8677TIP3   OH225963   5.638   6.566   2.659
 8677TIP3    H125964   5.592   6.650   2.660
 8677TIP3    H225965   5.584   6.508   2.712
 8678TIP3   OH225966   5.053   6.355   4.122
 8678TIP3    H125967   5.066   6.328   4.213
 8678TIP3    H225968   4.983   6.298   4.089
 8679TIP3   OH225969   5.801   6.486   4.129
 8679TIP3    H125970   5.748   6.458   4.054
 8679TIP3    H225971   5.885   6.442   4.117
 8680TIP3   OH225972   6.038   7.025   3.733
 8680TIP3    H125973   5.944   7.009   3.738
 8680TIP3    H225974   6.061   7.060   3.819
 8681TIP3   OH225975   6.430   6.068   2.626
 8681TIP3    H125976   6.374   6.021   2.564
 8681TIP3    H225977   6.434   6.158   2.591
 8682TIP3   OH225978   6.678   6.956   3.702
 8682TIP3    H125979   6.585   6.931   3.707
 8682TIP3    H225980   6.708   6.918   3.619
 8683TIP3   OH225981   6.160   6.883   2.557
 8683TIP3    H125982   6.139   6.810   2.615
 8683TIP3    H225983   6.180   6.842   2.473
 8684TIP3   OH225984   6.143   6.517   3.336
 8684TIP3    H125985   6.052   6.494   3.356
 8684TIP3    H225986   6.181   6.435   3.303
 8685TIP3   OH225987   5.300   6.757   3.151
 8685TIP3    H125988   5.299   6.834   3.093
 8685TIP3    H225989   5.208   6.740   3.170
 8686TIP3   OH225990   4.852   6.041   2.856
 8686TIP3    H125991   4.899   6.122   2.878
 8686TIP3    H225992   4.774   6.042   2.911
 8687TIP3   OH225993   5.386   6.512   3.054
 8687TIP3    H125994   5.373   6.601   3.086
 8687TIP3    H225995   5.364   6.456   3.128
 8688TIP3   OH225996   5.577   7.079   3.606
 8688TIP3    H125997   5.615   7.151   3.556
 8688TIP3    H225998   5.651   7.043   3.655
 8689TIP3   OH225999   5.210   6.981   2.998
 8689TIP3    H126000   5.124   6.986   3.040
 8689TIP3    H226001   5.244   7.071   3.003
 8690TIP3   OH226002   5.933   6.733   3.566
 8690TIP3    H126003   5.923   6.731   3.661
 8690TIP3    H226004   5.994   6.663   3.546
 8691TIP3   OH226005   5.919   6.621   2.470
 8691TIP3    H126006   5.979   6.603   2.543
 8691TIP3    H226007   5.834   6.591   2.501
 8692TIP3   OH226008   6.192   7.240   3.619
 8692TIP3    H126009   6.121   7.177   3.635
 8692TIP3    H226010   6.159   7.295   3.547
 8693TIP3   OH226011   6.239   7.082   2.252
 8693TIP3    H126012   6.262   7.142   2.182
 8693TIP3    H226013   6.169   7.126   2.300
 8694TIP3   OH226014   5.265   5.864   4.124
 8694TIP3    H126015   5.170   5.870   4.132
 8694TIP3    H226016   5.291   5.807   4.197
 8695TIP3   OH226017   6.098   6.563   2.671
 8695TIP3    H126018   6.082   6.490   2.731
 8695TIP3    H226019   6.192   6.559   2.654
 8696TIP3   OH226020   5.002   6.970   3.770
 8696TIP3    H126021   5.054   6.907   3.820
 8696TIP3    H226022   5.018   7.054   3.812
 8697TIP3   OH226023   5.270   6.587   2.458
 8697TIP3    H126024   5.286   6.497   2.432
 8697TIP3    H226025   5.258   6.584   2.553
 8698TIP3   OH226026   5.223   6.600   2.731
 8698TIP3    H126027   5.297   6.569   2.783
 8698TIP3    H226028   5.225   6.695   2.741
 8699TIP3   OH226029   4.951   6.290   2.940
 8699TIP3    H126030   4.887   6.338   2.993
 8699TIP3    H226031   4.973   6.351   2.869
 8700TIP3   OH226032   6.115   5.934   3.829
 8700TIP3    H126033   6.194   5.969   3.870
 8700TIP3    H226034   6.100   5.851   3.874
 8701TIP3   OH226035   5.996   5.655   2.994
 8701TIP3    H126036   5.978   5.677   2.902
 8701TIP3    H226037   6.048   5.728   3.026
 8702TIP3   OH226038   5.490   6.792   2.667
 8702TIP3    H126039   5.407   6.814   2.709
 8702TIP3    H226040   5.512   6.868   2.613
 8703TIP3   OH226041   5.991   6.194   3.858
 8703TIP3    H126042   5.991   6.220   3.950
 8703TIP3    H226043   6.005   6.099   3.861
 8704TIP3   OH226044   5.816   5.585   3.193
 8704TIP3    H126045   5.802   5.662   3.248
 8704TIP3    H226046   5.884   5.611   3.131
 8705TIP3   OH226047   5.239   6.874   2.747
 8705TIP3    H126048   5.217   6.945   2.686
 8705TIP3    H226049   5.228   6.912   2.834
 8706TIP3   OH226050   5.333   5.584   2.982
 8706TIP3    H126051   5.325   5.675   3.011
 8706TIP3    H226052   5.426   5.563   2.992
 8707TIP3   OH226053   6.577   6.061   3.862
 8707TIP3    H126054   6.484   6.073   3.879
 8707TIP3    H226055   6.581   6.007   3.783
 8708TIP3   OH226056   6.242   6.255   3.270
 8708TIP3    H126057   6.173   6.212   3.320
 8708TIP3    H226058   6.323   6.218   3.304
 8709TIP3   OH226059   4.974   6.474   2.727
 8709TIP3    H126060   5.046   6.535   2.738
 8709TIP3    H226061   5.007   6.410   2.663
 8710TIP3   OH226062   4.887   5.764   2.862
 8710TIP3    H126063   4.898   5.859   2.868
 8710TIP3    H226064   4.826   5.751   2.789
 8711TIP3   OH226065   6.216   7.237   3.196
 8711TIP3    H126066   6.174   7.288   3.126
 8711TIP3    H226067   6.310   7.248   3.179
 8712TIP3   OH226068   5.274   5.492   3.728
 8712TIP3    H126069   5.248   5.455   3.643
 8712TIP3    H226070   5.267   5.418   3.788
 8713TIP3   OH226071   4.807   6.734   3.124
 8713TIP3    H126072   4.764   6.771   3.201
 8713TIP3    H226073   4.766   6.778   3.050
 8714TIP3   OH226074   5.006   7.288   4.205
 8714TIP3    H126075   5.082   7.300   4.261
 8714TIP3    H226076   4.997   7.194   4.196
 8715TIP3   OH226077   5.463   7.196   4.239
 8715TIP3    H126078   5.556   7.174   4.242
 8715TIP3    H226079   5.428   7.142   4.168
 8716TIP3   OH226080   5.432   6.787   2.352
 8716TIP3    H126081   5.385   6.716   2.397
 8716TIP3    H226082   5.507   6.743   2.312
 8717TIP3   OH226083   6.093   7.123   3.984
 8717TIP3    H126084   6.106   7.053   4.048
 8717TIP3    H226085   6.167   7.182   3.997
 8718TIP3   OH226086   5.870   6.819   2.282
 8718TIP3    H126087   5.904   6.757   2.345
 8718TIP3    H226088   5.930   6.814   2.208
 8719TIP3   OH226089   5.107   6.667   4.378
 8719TIP3    H126090   5.128   6.574   4.385
 8719TIP3    H226091   5.021   6.670   4.337
 8720TIP3   OH226092   5.097   6.282   2.576
 8720TIP3    H126093   5.147   6.257   2.654
 8720TIP3    H226094   5.162   6.295   2.508
 8721TIP3   OH226095   5.728   6.757   4.156
 8721TIP3    H126096   5.682   6.777   4.074
 8721TIP3    H226097   5.763   6.669   4.143
 8722TIP3   OH226098   5.622   6.501   2.393
 8722TIP3    H126099   5.621   6.515   2.487
 8722TIP3    H226100   5.623   6.405   2.383
 8723TIP3   OH226101   6.212   6.799   3.783
 8723TIP3    H126102   6.286   6.827   3.729
 8723TIP3    H226103   6.142   6.860   3.759
 8724TIP3   OH226104   5.223   6.413   4.380
 8724TIP3    H126105   5.297   6.399   4.321
 8724TIP3    H226106   5.264   6.434   4.465
 8725TIP3   OH226107   5.271   6.222   2.787
 8725TIP3    H126108   5.253   6.194   2.877
 8725TIP3    H226109   5.320   6.149   2.748
 8726TIP3   OH226110   5.543   6.268   4.030
 8726TIP3    H126111   5.479   6.334   4.054
 8726TIP3    H226112   5.600   6.311   3.967
 8727TIP3   OH226113   5.407   6.029   2.637
 8727TIP3    H126114   5.379   6.034   2.545
 8727TIP3    H226115   5.502   6.038   2.634
 8728TIP3   OH226116   6.092   6.678   4.140
 8728TIP3    H126117   6.152   6.635   4.079
 8728TIP3    H226118   6.086   6.619   4.214
 8729TIP3   OH226119   6.200   6.323   2.322
 8729TIP3    H126120   6.195   6.283   2.236
 8729TIP3    H226121   6.176   6.415   2.307
 8730TIP3   OH226122   5.690   6.073   4.158
 8730TIP3    H126123   5.689   5.992   4.109
 8730TIP3    H226124   5.646   6.137   4.102
 8731TIP3   OH226125   5.686   5.846   3.995
 8731TIP3    H126126   5.716   5.901   3.923
 8731TIP3    H226127   5.597   5.822   3.972
 8732TIP3   OH226128   5.707   6.414   3.866
 8732TIP3    H126129   5.782   6.382   3.816
 8732TIP3    H226130   5.657   6.466   3.804
 8733TIP3   OH226131   6.297   6.358   4.198
 8733TIP3    H126132   6.323   6.266   4.193
 8733TIP3    H226133   6.373   6.407   4.167
 8734TIP3   OH226134   6.327   6.619   3.948
 8734TIP3    H126135   6.275   6.682   3.898
 8734TIP3    H226136   6.416   6.631   3.915
 8735TIP3   OH226137   5.576   6.158   4.399
 8735TIP3    H126138   5.508   6.093   4.416
 8735TIP3    H226139   5.606   6.139   4.310
 8736TIP3   OH226140   5.826   5.617   4.050
 8736TIP3    H126141   5.782   5.699   4.029
 8736TIP3    H226142   5.761   5.549   4.034
 8737TIP3   OH226143   5.948   6.111   4.253
 8737TIP3    H126144   5.933   6.098   4.347
 8737TIP3    H226145   5.863   6.094   4.212
 8738TIP3   OH226146   6.199   6.082   4.133
 8738TIP3    H126147   6.117   6.074   4.181
 8738TIP3    H226148   6.266   6.044   4.191
 8739TIP3   OH226149   6.436   6.027   4.275
 8739TIP3    H126150   6.446   5.932   4.283
 8739TIP3    H226151   6.429   6.057   4.366
 8740TIP3   OH226152   5.406   5.943   4.461
 8740TIP3    H126153   5.411   5.856   4.423
 8740TIP3    H226154   5.444   5.934   4.548
 8741TIP3   OH226155   5.896   5.614   4.314
 8741TIP3    H126156   5.965   5.548   4.307
 8741TIP3    H226157   5.861   5.622   4.226
 8742TIP3   OH226158   5.983   5.833   4.458
 8742TIP3    H126159   5.954   5.761   4.402
 8742TIP3    H226160   5.909   5.894   4.459
 8743TIP3   OH226161   5.230   7.083   2.562
 8743TIP3    H126162   5.320   7.063   2.537
 8743TIP3    H226163   5.194   7.130   2.487
 8744TIP3   OH226164   4.700   6.464   2.747
 8744TIP3    H126165   4.795   6.478   2.743
 8744TIP3    H226166   4.687   6.378   2.709
 8745TIP3   OH226167   4.605   7.048   3.202
 8745TIP3    H126168   4.539   6.993   3.159
 8745TIP3    H226169   4.650   6.988   3.262
 8746TIP3   OH226170   4.747   6.884   3.373
 8746TIP3    H126171   4.739   6.816   3.440
 8746TIP3    H226172   4.799   6.953   3.415
 8747TIP3   OH226173   6.487   7.287   3.180
 8747TIP3    H126174   6.510   7.318   3.267
 8747TIP3    H226175   6.547   7.332   3.121
 8748TIP3   OH226176   6.504   7.322   3.461
 8748TIP3    H126177   6.457   7.239   3.455
 8748TIP3    H226178   6.575   7.305   3.523
 8749TIP3   OH226179   6.554   7.013   4.030
 8749TIP3    H126180   6.481   7.021   4.091
 8749TIP3    H226181   6.596   7.099   4.031
 8750TIP3   OH226182   6.374   6.532   2.646
 8750TIP3    H126183   6.435   6.600   2.617
 8750TIP3    H226184   6.416   6.492   2.722
 8751TIP3   OH226185   6.493   6.386   2.851
 8751TIP3    H126186   6.425   6.347   2.906
 8751TIP3    H226187   6.557   6.421   2.912
 8752TIP3   OH226188   6.554   6.791   3.277
 8752TIP3    H126189   6.605   6.722   3.234
 8752TIP3    H226190   6.553   6.863   3.214
 8753TIP3   OH226191   6.367   7.078   3.474
 8753TIP3    H126192   6.299   7.123   3.524
 8753TIP3    H226193   6.319   7.036   3.401
 8754TIP3   OH226194   6.417   6.309   2.489
 8754TIP3    H126195   6.345   6.307   2.427
 8754TIP3    H226196   6.401   6.387   2.543
 8755TIP3   OH226197   6.282   5.952   2.427
 8755TIP3    H126198   6.230   5.992   2.357
 8755TIP3    H226199   6.270   5.858   2.415
 8756TIP3   OH226200   6.294   6.249   2.992
 8756TIP3    H126201   6.297   6.155   2.973
 8756TIP3    H226202   6.272   6.253   3.085
 8757TIP3   OH226203   4.924   6.320   3.750
 8757TIP3    H126204   4.916   6.284   3.662
 8757TIP3    H226205   5.018   6.317   3.768
 8758TIP3   OH226206   6.579   6.666   3.839
 8758TIP3    H126207   6.648   6.603   3.820
 8758TIP3    H226208   6.568   6.715   3.757
 8759TIP3   OH226209   6.765   6.460   3.835
 8759TIP3    H126210   6.689   6.418   3.877
 8759TIP3    H226211   6.839   6.406   3.860
 8760TIP3   OH226212   6.237   5.679   2.398
 8760TIP3    H126213   6.297   5.659   2.469
 8760TIP3    H226214   6.153   5.643   2.426
 8761TIP3   OH226215   6.301   5.983   2.870
 8761TIP3    H126216   6.344   5.899   2.884
 8761TIP3    H226217   6.344   6.019   2.792
 8762TIP3   OH226218   6.464   6.134   3.388
 8762TIP3    H126219   6.546   6.153   3.342
 8762TIP3    H226220   6.474   6.175   3.474
 8763TIP3   OH226221   6.529   6.291   3.613
 8763TIP3    H126222   6.454   6.318   3.666
 8763TIP3    H226223   6.557   6.372   3.569
 8764TIP3   OH226224   5.141   5.994   4.398
 8764TIP3    H126225   5.236   5.991   4.412
 8764TIP3    H226226   5.109   5.912   4.437
 8765TIP3   OH226227   6.985   5.887   4.157
 8765TIP3    H126228   7.045   5.827   4.112
 8765TIP3    H226229   6.946   5.939   4.087
 8766TIP3   OH226230   6.417   5.727   2.914
 8766TIP3    H126231   6.456   5.714   3.001
 8766TIP3    H226232   6.349   5.661   2.909
 8767TIP3   OH226233   5.108   5.710   3.755
 8767TIP3    H126234   5.162   5.632   3.757
 8767TIP3    H226235   5.170   5.781   3.737
 8768TIP3   OH226236   4.897   5.975   3.801
 8768TIP3    H126237   4.948   5.966   3.720
 8768TIP3    H226238   4.937   6.050   3.845
 8769TIP3   OH226239   6.837   6.007   3.961
 8769TIP3    H126240   6.755   6.048   3.986
 8769TIP3    H226241   6.812   5.935   3.904
 8770TIP3   OH226242   6.465   5.641   2.556
 8770TIP3    H126243   6.514   5.580   2.501
 8770TIP3    H226244   6.520   5.719   2.559
 8771TIP3   OH226245   4.886   5.473   3.307
 8771TIP3    H126246   4.800   5.466   3.349
 8771TIP3    H226247   4.871   5.531   3.233
 8772TIP3   OH226248   6.043   7.203   2.825
 8772TIP3    H126249   6.097   7.187   2.747
 8772TIP3    H226250   6.092   7.270   2.874
 8773TIP3   OH226251   5.115   5.548   4.132
 8773TIP3    H126252   5.065   5.543   4.213
 8773TIP3    H226253   5.057   5.593   4.071
 8774TIP3   OH226254   5.138   6.999   4.199
 8774TIP3    H126255   5.045   6.977   4.193
 8774TIP3    H226256   5.156   6.999   4.293
 8775TIP3   OH226257   5.349   7.038   3.755
 8775TIP3    H126258   5.297   7.112   3.724
 8775TIP3    H226259   5.434   7.048   3.712
 8776TIP3   OH226260   5.755   7.269   3.890
 8776TIP3    H126261   5.793   7.263   3.977
 8776TIP3    H226262   5.817   7.324   3.841
 8777TIP3   OH226263   5.941   7.428   3.762
 8777TIP3    H126264   6.000   7.375   3.709
 8777TIP3    H226265   5.999   7.482   3.815
 8778TIP3   OH226266   6.744   5.764   3.848
 8778TIP3    H126267   6.657   5.762   3.808
 8778TIP3    H226268   6.775   5.674   3.841
 8779TIP3   OH226269   5.011   7.284   3.799
 8779TIP3    H126270   4.919   7.302   3.778
 8779TIP3    H226271   5.033   7.348   3.867
 8780TIP3   OH226272   5.241   7.269   3.649
 8780TIP3    H126273   5.158   7.276   3.697
 8780TIP3    H226274   5.219   7.294   3.559
 8781TIP3   OH226275   5.659   7.287   3.441
 8781TIP3    H126276   5.588   7.297   3.378
 8781TIP3    H226277   5.668   7.373   3.482
 8782TIP3   OH226278   5.925   7.231   3.496
 8782TIP3    H126279   5.833   7.245   3.474
 8782TIP3    H226280   5.973   7.295   3.444
 8783TIP3   OH226281   6.130   7.406   3.396
 8783TIP3    H126282   6.123   7.491   3.352
 8783TIP3    H226283   6.159   7.346   3.327
 8784TIP3   OH226284   4.921   7.061   3.519
 8784TIP3    H126285   4.945   7.037   3.608
 8784TIP3    H226286   4.994   7.028   3.466
 8785TIP3   OH226287   5.125   6.946   3.380
 8785TIP3    H126288   5.136   6.861   3.423
 8785TIP3    H226289   5.212   6.986   3.383
 8786TIP3   OH226290   5.393   7.031   3.400
 8786TIP3    H126291   5.413   6.939   3.385
 8786TIP3    H226292   5.445   7.055   3.477
 8787TIP3   OH226293   6.015   5.678   3.539
 8787TIP3    H126294   5.922   5.676   3.517
 8787TIP3    H226295   6.058   5.641   3.462
 8788TIP3   OH226296   6.463   5.587   3.379
 8788TIP3    H126297   6.500   5.637   3.306
 8788TIP3    H226298   6.370   5.608   3.377
 8789TIP3   OH226299   6.572   5.669   3.141
 8789TIP3    H126300   6.641   5.611   3.108
 8789TIP3    H226301   6.607   5.757   3.129
 8790TIP3   OH226302   5.192   5.383   3.486
 8790TIP3    H126303   5.103   5.348   3.495
 8790TIP3    H226304   5.248   5.305   3.480
 8791TIP3   OH226305   4.997   5.277   3.133
 8791TIP3    H126306   5.031   5.329   3.060
 8791TIP3    H226307   4.967   5.342   3.196
 8792TIP3   OH226308   5.653   5.444   3.378
 8792TIP3    H126309   5.707   5.493   3.316
 8792TIP3    H226310   5.694   5.461   3.463
 8793TIP3   OH226311   6.184   5.576   3.343
 8793TIP3    H126312   6.177   5.549   3.252
 8793TIP3    H226313   6.181   5.494   3.393
 8794TIP3   OH226314   6.227   5.515   2.920
 8794TIP3    H126315   6.146   5.562   2.940
 8794TIP3    H226316   6.216   5.429   2.959
 8795TIP3   OH226317   4.692   6.858   2.908
 8795TIP3    H126318   4.608   6.822   2.878
 8795TIP3    H226319   4.694   6.947   2.874
 8796TIP3   OH226320   5.119   5.417   2.902
 8796TIP3    H126321   5.165   5.356   2.845
 8796TIP3    H226322   5.188   5.473   2.937
 8797TIP3   OH226323   5.606   5.628   3.013
 8797TIP3    H126324   5.674   5.595   3.071
 8797TIP3    H226325   5.582   5.713   3.050
 8798TIP3   OH226326   5.487   7.014   2.495
 8798TIP3    H126327   5.572   7.040   2.459
 8798TIP3    H226328   5.459   6.941   2.439
 8799TIP3   OH226329   6.191   7.151   2.595
 8799TIP3    H126330   6.186   7.056   2.587
 8799TIP3    H226331   6.151   7.185   2.515
 8800TIP3   OH226332   5.426   5.679   4.378
 8800TIP3    H126333   5.397   5.603   4.427
 8800TIP3    H226334   5.519   5.687   4.397
 8801TIP3   OH226335   5.682   5.697   4.489
 8801TIP3    H126336   5.754   5.664   4.435
 8801TIP3    H226337   5.675   5.634   4.560
 8802TIP3   OH226338   4.797   6.857   2.553
 8802TIP3    H126339   4.801   6.866   2.648
 8802TIP3    H226340   4.877   6.811   2.530
 8803TIP3   OH226341   6.493   5.754   4.280
 8803TIP3    H126342   6.511   5.728   4.370
 8803TIP3    H226343   6.578   5.750   4.236
 8804TIP3   OH226344   6.411   7.293   3.784
 8804TIP3    H126345   6.338   7.261   3.731
 8804TIP3    H226346   6.397   7.387   3.791
 8805TIP3   OH226347   7.677   6.685   2.544
 8805TIP3    H126348   7.652   6.771   2.511
 8805TIP3    H226349   7.608   6.626   2.512
 8806TIP3   OH226350   7.671   6.661   2.954
 8806TIP3    H126351   7.724   6.641   3.032
 8806TIP3    H226352   7.628   6.579   2.932
 8807TIP3   OH226353   6.986   6.538   3.290
 8807TIP3    H126354   7.022   6.483   3.359
 8807TIP3    H226355   7.062   6.560   3.235
 8808TIP3   OH226356   7.900   6.984   2.662
 8808TIP3    H126357   7.899   6.903   2.713
 8808TIP3    H226358   7.855   7.048   2.716
 8809TIP3   OH226359   6.973   6.968   2.997
 8809TIP3    H126360   6.957   6.874   2.999
 8809TIP3    H226361   7.067   6.976   2.980
 8810TIP3   OH226362   6.658   6.169   2.770
 8810TIP3    H126363   6.615   6.250   2.796
 8810TIP3    H226364   6.589   6.118   2.726
 8811TIP3   OH226365   6.726   6.462   2.986
 8811TIP3    H126366   6.779   6.387   3.012
 8811TIP3    H226367   6.787   6.517   2.936
 8812TIP3   OH226368   7.559   7.333   2.629
 8812TIP3    H126369   7.640   7.294   2.662
 8812TIP3    H226370   7.530   7.390   2.701
 8813TIP3   OH226371   7.484   6.888   2.949
 8813TIP3    H126372   7.524   6.805   2.921
 8813TIP3    H226373   7.558   6.942   2.976
 8814TIP3   OH226374   8.481   6.259   3.036
 8814TIP3    H126375   8.468   6.350   3.061
 8814TIP3    H226376   8.498   6.262   2.942
 8815TIP3   OH226377   7.899   6.384   2.990
 8815TIP3    H126378   7.933   6.298   3.015
 8815TIP3    H226379   7.861   6.370   2.903
 8816TIP3   OH226380   7.255   6.041   2.947
 8816TIP3    H126381   7.233   6.114   2.889
 8816TIP3    H226382   7.201   5.968   2.915
 8817TIP3   OH226383   7.938   6.139   2.590
 8817TIP3    H126384   8.005   6.128   2.657
 8817TIP3    H226385   7.985   6.174   2.514
 8818TIP3   OH226386   6.880   6.251   3.076
 8818TIP3    H126387   6.964   6.234   3.119
 8818TIP3    H226388   6.883   6.200   2.995
 8819TIP3   OH226389   7.298   6.452   2.892
 8819TIP3    H126390   7.392   6.435   2.897
 8819TIP3    H226391   7.261   6.371   2.856
 8820TIP3   OH226392   7.231   6.044   3.402
 8820TIP3    H126393   7.183   6.078   3.327
 8820TIP3    H226394   7.175   6.062   3.477
 8821TIP3   OH226395   7.587   6.901   2.394
 8821TIP3    H126396   7.546   6.881   2.310
 8821TIP3    H226397   7.543   6.980   2.424
 8822TIP3   OH226398   7.331   6.817   3.169
 8822TIP3    H126399   7.274   6.887   3.201
 8822TIP3    H226400   7.375   6.856   3.093
 8823TIP3   OH226401   8.111   6.152   2.799
 8823TIP3    H126402   8.071   6.130   2.884
 8823TIP3    H226403   8.164   6.230   2.817
 8824TIP3   OH226404   7.127   6.150   3.169
 8824TIP3    H126405   7.182   6.224   3.192
 8824TIP3    H226406   7.172   6.107   3.096
 8825TIP3   OH226407   7.170   7.017   3.271
 8825TIP3    H126408   7.154   7.104   3.236
 8825TIP3    H226409   7.092   6.997   3.323
 8826TIP3   OH226410   6.554   6.715   2.536
 8826TIP3    H126411   6.522   6.724   2.446
 8826TIP3    H226412   6.577   6.804   2.563
 8827TIP3   OH226413   8.278   6.088   3.124
 8827TIP3    H126414   8.194   6.128   3.099
 8827TIP3    H226415   8.344   6.152   3.098
 8828TIP3   OH226416   7.573   5.739   3.124
 8828TIP3    H126417   7.567   5.647   3.149
 8828TIP3    H226418   7.496   5.780   3.165
 8829TIP3   OH226419   7.856   6.985   2.379
 8829TIP3    H126420   7.763   6.962   2.380
 8829TIP3    H226421   7.881   6.990   2.471
 8830TIP3   OH226422   7.508   6.525   2.387
 8830TIP3    H126423   7.429   6.573   2.364
 8830TIP3    H226424   7.555   6.516   2.304
 8831TIP3   OH226425   7.483   6.318   2.078
 8831TIP3    H126426   7.546   6.370   2.127
 8831TIP3    H226427   7.536   6.252   2.034
 8832TIP3   OH226428   8.415   6.784   3.020
 8832TIP3    H126429   8.329   6.812   2.989
 8832TIP3    H226430   8.473   6.798   2.945
 8833TIP3   OH226431   7.856   6.608   2.348
 8833TIP3    H126432   7.809   6.643   2.424
 8833TIP3    H226433   7.941   6.581   2.383
 8834TIP3   OH226434   8.093   6.634   3.287
 8834TIP3    H126435   8.082   6.715   3.337
 8834TIP3    H226436   8.012   6.626   3.236
 8835TIP3   OH226437   7.095   6.587   2.747
 8835TIP3    H126438   7.058   6.529   2.681
 8835TIP3    H226439   7.169   6.538   2.784
 8836TIP3   OH226440   7.230   7.001   2.886
 8836TIP3    H126441   7.204   6.989   2.795
 8836TIP3    H226442   7.318   6.963   2.891
 8837TIP3   OH226443   7.204   6.579   3.119
 8837TIP3    H126444   7.240   6.544   3.038
 8837TIP3    H226445   7.252   6.661   3.134
 8838TIP3   OH226446   7.773   7.167   2.856
 8838TIP3    H126447   7.776   7.247   2.908
 8838TIP3    H226448   7.754   7.098   2.920
 8839TIP3   OH226449   7.362   7.110   3.445
 8839TIP3    H126450   7.302   7.172   3.487
 8839TIP3    H226451   7.307   7.061   3.384
 8840TIP3   OH226452   7.692   6.464   2.189
 8840TIP3    H126453   7.748   6.518   2.245
 8840TIP3    H226454   7.725   6.479   2.101
 8841TIP3   OH226455   7.124   6.661   3.584
 8841TIP3    H126456   7.129   6.755   3.601
 8841TIP3    H226457   7.030   6.643   3.576
 8842TIP3   OH226458   7.463   7.135   2.458
 8842TIP3    H126459   7.490   7.208   2.514
 8842TIP3    H226460   7.389   7.170   2.408
 8843TIP3   OH226461   7.155   7.278   3.517
 8843TIP3    H126462   7.131   7.285   3.424
 8843TIP3    H226463   7.072   7.261   3.562
 8844TIP3   OH226464   8.210   5.692   2.225
 8844TIP3    H126465   8.130   5.729   2.263
 8844TIP3    H226466   8.252   5.766   2.181
 8845TIP3   OH226467   6.971   6.432   2.544
 8845TIP3    H126468   6.897   6.480   2.508
 8845TIP3    H226469   6.938   6.343   2.557
 8846TIP3   OH226470   6.753   6.830   3.473
 8846TIP3    H126471   6.684   6.814   3.409
 8846TIP3    H226472   6.787   6.743   3.494
 8847TIP3   OH226473   6.600   7.022   3.118
 8847TIP3    H126474   6.694   7.037   3.122
 8847TIP3    H226475   6.562   7.101   3.157
 8848TIP3   OH226476   7.551   7.246   3.302
 8848TIP3    H126477   7.539   7.338   3.323
 8848TIP3    H226478   7.483   7.201   3.352
 8849TIP3   OH226479   7.268   7.448   2.227
 8849TIP3    H126480   7.272   7.390   2.151
 8849TIP3    H226481   7.358   7.450   2.260
 8850TIP3   OH226482   6.770   7.214   2.629
 8850TIP3    H126483   6.812   7.206   2.715
 8850TIP3    H226484   6.721   7.132   2.619
 8851TIP3   OH226485   8.353   6.630   3.424
 8851TIP3    H126486   8.265   6.628   3.386
 8851TIP3    H226487   8.391   6.544   3.403
 8852TIP3   OH226488   6.955   7.016   3.444
 8852TIP3    H126489   7.005   7.001   3.524
 8852TIP3    H226490   6.882   6.954   3.449
 8853TIP3   OH226491   7.340   5.830   3.256
 8853TIP3    H126492   7.257   5.797   3.221
 8853TIP3    H226493   7.316   5.910   3.303
 8854TIP3   OH226494   7.877   5.954   3.452
 8854TIP3    H126495   7.948   5.929   3.511
 8854TIP3    H226496   7.797   5.935   3.502
 8855TIP3   OH226497   8.121   6.362   3.363
 8855TIP3    H126498   8.078   6.357   3.448
 8855TIP3    H226499   8.107   6.452   3.335
 8856TIP3   OH226500   7.797   6.506   1.950
 8856TIP3    H126501   7.763   6.491   1.862
 8856TIP3    H226502   7.850   6.585   1.942
 8857TIP3   OH226503   7.487   5.870   2.221
 8857TIP3    H126504   7.451   5.876   2.310
 8857TIP3    H226505   7.452   5.788   2.188
 8858TIP3   OH226506   7.282   6.358   3.267
 8858TIP3    H126507   7.234   6.365   3.349
 8858TIP3    H226508   7.261   6.438   3.220
 8859TIP3   OH226509   7.158   6.239   2.784
 8859TIP3    H126510   7.069   6.215   2.808
 8859TIP3    H226511   7.169   6.206   2.695
 8860TIP3   OH226512   7.637   6.318   2.515
 8860TIP3    H126513   7.589   6.391   2.476
 8860TIP3    H226514   7.693   6.285   2.445
 8861TIP3   OH226515   7.826   6.585   3.587
 8861TIP3    H126516   7.798   6.516   3.647
 8861TIP3    H226517   7.920   6.593   3.604
 8862TIP3   OH226518   7.802   6.331   2.739
 8862TIP3    H126519   7.735   6.355   2.675
 8862TIP3    H226520   7.845   6.255   2.700
 8863TIP3   OH226521   7.113   6.377   3.483
 8863TIP3    H126522   7.120   6.443   3.552
 8863TIP3    H226523   7.092   6.296   3.529
 8864TIP3   OH226524   7.155   5.849   2.202
 8864TIP3    H126525   7.145   5.854   2.297
 8864TIP3    H226526   7.078   5.895   2.168
 8865TIP3   OH226527   6.701   5.893   3.065
 8865TIP3    H126528   6.776   5.929   3.113
 8865TIP3    H226529   6.735   5.874   2.978
 8866TIP3   OH226530   6.620   5.874   2.566
 8866TIP3    H126531   6.665   5.910   2.489
 8866TIP3    H226532   6.557   5.941   2.591
 8867TIP3   OH226533   7.841   6.582   3.165
 8867TIP3    H126534   7.869   6.517   3.100
 8867TIP3    H226535   7.801   6.530   3.235
 8868TIP3   OH226536   7.522   6.033   2.836
 8868TIP3    H126537   7.444   6.032   2.892
 8868TIP3    H226538   7.595   6.023   2.898
 8869TIP3   OH226539   6.919   6.114   2.843
 8869TIP3    H126540   6.830   6.120   2.807
 8869TIP3    H226541   6.946   6.024   2.824
 8870TIP3   OH226542   7.176   6.115   2.540
 8870TIP3    H126543   7.270   6.126   2.527
 8870TIP3    H226544   7.138   6.134   2.454
 8871TIP3   OH226545   7.969   6.120   3.042
 8871TIP3    H126546   7.950   6.137   3.134
 8871TIP3    H226547   7.901   6.059   3.014
 8872TIP3   OH226548   7.057   6.141   2.295
 8872TIP3    H126549   6.992   6.093   2.244
 8872TIP3    H226550   7.110   6.186   2.230
 8873TIP3   OH226551   7.109   6.929   3.676
 8873TIP3    H126552   7.189   6.950   3.724
 8873TIP3    H226553   7.039   6.933   3.741
 8874TIP3   OH226554   7.569   6.394   2.943
 8874TIP3    H126555   7.634   6.344   2.892
 8874TIP3    H226556   7.569   6.351   3.028
 8875TIP3   OH226557   7.068   5.866   2.826
 8875TIP3    H126558   7.039   5.790   2.876
 8875TIP3    H226559   7.090   5.831   2.739
 8876TIP3   OH226560   7.546   6.298   3.209
 8876TIP3    H126561   7.459   6.330   3.232
 8876TIP3    H226562   7.606   6.350   3.263
 8877TIP3   OH226563   7.281   6.671   2.316
 8877TIP3    H126564   7.210   6.610   2.296
 8877TIP3    H226565   7.258   6.706   2.402
 8878TIP3   OH226566   8.169   6.858   2.924
 8878TIP3    H126567   8.161   6.925   2.857
 8878TIP3    H226568   8.087   6.808   2.918
 8879TIP3   OH226569   7.739   5.972   2.223
 8879TIP3    H126570   7.645   5.952   2.221
 8879TIP3    H226571   7.743   6.067   2.238
 8880TIP3   OH226572   7.680   6.977   3.322
 8880TIP3    H126573   7.717   6.960   3.408
 8880TIP3    H226574   7.636   7.062   3.331
 8881TIP3   OH226575   7.795   6.232   2.300
 8881TIP3    H126576   7.890   6.238   2.312
 8881TIP3    H226577   7.773   6.309   2.248
 8882TIP3   OH226578   6.977   6.688   2.976
 8882TIP3    H126579   7.011   6.664   2.890
 8882TIP3    H226580   7.039   6.649   3.038
 8883TIP3   OH226581   7.432   6.830   2.151
 8883TIP3    H126582   7.388   6.915   2.158
 8883TIP3    H226583   7.381   6.771   2.206
 8884TIP3   OH226584   6.851   6.595   3.603
 8884TIP3    H126585   6.850   6.567   3.695
 8884TIP3    H226586   6.776   6.551   3.563
 8885TIP3   OH226587   7.591   6.735   3.625
 8885TIP3    H126588   7.523   6.675   3.597
 8885TIP3    H226589   7.673   6.695   3.595
 8886TIP3   OH226590   7.818   7.249   3.225
 8886TIP3    H126591   7.723   7.243   3.233
 8886TIP3    H226592   7.846   7.303   3.299
 8887TIP3   OH226593   7.917   6.755   2.841
 8887TIP3    H126594   7.827   6.729   2.860
 8887TIP3    H226595   7.954   6.681   2.794
 8888TIP3   OH226596   7.090   7.005   2.641
 8888TIP3    H126597   7.087   7.085   2.588
 8888TIP3    H226598   6.998   6.985   2.659
 8889TIP3   OH226599   6.649   6.298   2.338
 8889TIP3    H126600   6.692   6.382   2.356
 8889TIP3    H226601   6.568   6.301   2.389
 8890TIP3   OH226602   7.194   6.764   2.554
 8890TIP3    H126603   7.170   6.853   2.580
 8890TIP3    H226604   7.162   6.709   2.625
 8891TIP3   OH226605   7.371   7.322   3.088
 8891TIP3    H126606   7.412   7.384   3.027
 8891TIP3    H226607   7.444   7.285   3.137
 8892TIP3   OH226608   7.012   7.232   2.499
 8892TIP3    H126609   6.922   7.237   2.531
 8892TIP3    H226610   7.044   7.322   2.508
 8893TIP3   OH226611   7.733   6.972   3.049
 8893TIP3    H126612   7.720   6.973   3.143
 8893TIP3    H226613   7.791   6.897   3.034
 8894TIP3   OH226614   7.645   6.856   1.961
 8894TIP3    H126615   7.725   6.824   2.002
 8894TIP3    H226616   7.579   6.850   2.029
 8895TIP3   OH226617   7.056   6.126   3.604
 8895TIP3    H126618   6.961   6.137   3.607
 8895TIP3    H226619   7.076   6.074   3.681
 8896TIP3   OH226620   7.862   6.761   2.114
 8896TIP3    H126621   7.856   6.708   2.192
 8896TIP3    H226622   7.913   6.838   2.141
 8897TIP3   OH226623   6.799   7.223   3.255
 8897TIP3    H126624   6.853   7.161   3.303
 8897TIP3    H226625   6.816   7.307   3.298
 8898TIP3   OH226626   7.057   6.845   1.932
 8898TIP3    H126627   7.081   6.756   1.909
 8898TIP3    H226628   7.040   6.842   2.026
 8899TIP3   OH226629   7.019   6.858   2.206
 8899TIP3    H126630   7.086   6.827   2.267
 8899TIP3    H226631   7.018   6.953   2.219
 8900TIP3   OH226632   6.750   6.548   2.425
 8900TIP3    H126633   6.685   6.592   2.480
 8900TIP3    H226634   6.764   6.608   2.352
 8901TIP3   OH226635   7.912   6.183   3.304
 8901TIP3    H126636   7.995   6.222   3.333
 8901TIP3    H226637   7.902   6.106   3.359
 8902TIP3   OH226638   7.793   5.923   2.492
 8902TIP3    H126639   7.775   5.943   2.400
 8902TIP3    H226640   7.836   6.002   2.525
 8903TIP3   OH226641   7.299   7.067   2.180
 8903TIP3    H126642   7.209   7.081   2.208
 8903TIP3    H226643   7.316   7.137   2.116
 8904TIP3   OH226644   7.456   6.121   2.581
 8904TIP3    H126645   7.517   6.191   2.556
 8904TIP3    H226646   7.477   6.102   2.673
 8905TIP3   OH226647   7.752   6.413   3.362
 8905TIP3    H126648   7.779   6.454   3.444
 8905TIP3    H226649   7.803   6.332   3.357
 8906TIP3   OH226650   7.612   5.821   2.673
 8906TIP3    H126651   7.590   5.899   2.724
 8906TIP3    H226652   7.680   5.851   2.612
 8907TIP3   OH226653   7.039   7.127   2.246
 8907TIP3    H126654   7.011   7.196   2.186
 8907TIP3    H226655   7.026   7.165   2.333
 8908TIP3   OH226656   7.128   5.842   2.481
 8908TIP3    H126657   7.117   5.933   2.508
 8908TIP3    H226658   7.222   5.827   2.485
 8909TIP3   OH226659   8.409   6.375   3.348
 8909TIP3    H126660   8.322   6.335   3.346
 8909TIP3    H226661   8.468   6.305   3.375
 8910TIP3   OH226662   8.021   6.516   2.734
 8910TIP3    H126663   7.944   6.459   2.739
 8910TIP3    H226664   8.088   6.472   2.785
 8911TIP3   OH226665   6.766   6.735   2.217
 8911TIP3    H126666   6.836   6.800   2.220
 8911TIP3    H226667   6.793   6.672   2.150
 8912TIP3   OH226668   6.685   6.022   2.344
 8912TIP3    H126669   6.693   6.117   2.352
 8912TIP3    H226670   6.631   6.009   2.266
 8913TIP3   OH226671   7.081   5.744   3.208
 8913TIP3    H126672   7.052   5.713   3.121
 8913TIP3    H226673   7.069   5.668   3.265
 8914TIP3   OH226674   6.600   6.990   2.602
 8914TIP3    H126675   6.549   7.024   2.676
 8914TIP3    H226676   6.560   7.030   2.525
 8915TIP3   OH226677   6.798   7.529   3.672
 8915TIP3    H126678   6.884   7.529   3.715
 8915TIP3    H226679   6.778   7.436   3.660
 8916TIP3   OH226680   7.267   7.435   3.708
 8916TIP3    H126681   7.355   7.397   3.717
 8916TIP3    H226682   7.227   7.387   3.636
 8917TIP3   OH226683   7.240   7.043   1.861
 8917TIP3    H126684   7.181   6.974   1.893
 8917TIP3    H226685   7.319   6.996   1.834
 8918TIP3   OH226686   7.899   7.361   3.467
 8918TIP3    H126687   7.877   7.292   3.530
 8918TIP3    H226688   7.994   7.356   3.459
 8919TIP3   OH226689   6.901   6.924   3.862
 8919TIP3    H126690   6.918   6.830   3.871
 8919TIP3    H226691   6.816   6.928   3.817
 8920TIP3   OH226692   6.902   6.544   2.075
 8920TIP3    H126693   6.956   6.525   2.152
 8920TIP3    H226694   6.964   6.554   2.003
 8921TIP3   OH226695   7.522   7.008   3.642
 8921TIP3    H126696   7.472   7.026   3.563
 8921TIP3    H226697   7.554   6.918   3.631
 8922TIP3   OH226698   7.358   6.738   1.893
 8922TIP3    H126699   7.381   6.760   1.983
 8922TIP3    H226700   7.380   6.646   1.884
 8923TIP3   OH226701   7.995   7.036   3.249
 8923TIP3    H126702   8.046   7.050   3.170
 8923TIP3    H226703   7.922   7.098   3.242
 8924TIP3   OH226704   7.022   6.673   3.872
 8924TIP3    H126705   7.096   6.651   3.815
 8924TIP3    H226706   7.062   6.692   3.957
 8925TIP3   OH226707   7.083   6.482   2.280
 8925TIP3    H126708   7.056   6.448   2.366
 8925TIP3    H226709   7.124   6.407   2.237
 8926TIP3   OH226710   7.385   6.560   3.533
 8926TIP3    H126711   7.297   6.598   3.541
 8926TIP3    H226712   7.415   6.587   3.446
 8927TIP3   OH226713   7.209   6.289   2.122
 8927TIP3    H126714   7.179   6.294   2.031
 8927TIP3    H226715   7.304   6.295   2.116
 8928TIP3   OH226716   7.880   6.919   3.617
 8928TIP3    H126717   7.951   6.887   3.561
 8928TIP3    H226718   7.881   6.861   3.693
 8929TIP3   OH226719   7.485   6.328   3.639
 8929TIP3    H126720   7.488   6.257   3.575
 8929TIP3    H226721   7.452   6.403   3.591
 8930TIP3   OH226722   7.492   6.127   3.437
 8930TIP3    H126723   7.520   6.163   3.353
 8930TIP3    H226724   7.401   6.102   3.423
 8931TIP3   OH226725   7.502   6.652   3.306
 8931TIP3    H126726   7.591   6.678   3.283
 8931TIP3    H226727   7.446   6.715   3.259
 8932TIP3   OH226728   8.099   6.596   3.690
 8932TIP3    H126729   8.121   6.503   3.703
 8932TIP3    H226730   8.181   6.636   3.661
 8933TIP3   OH226731   8.108   6.880   3.439
 8933TIP3    H126732   8.055   6.936   3.381
 8933TIP3    H226733   8.197   6.887   3.405
 8934TIP3   OH226734   7.369   6.415   3.881
 8934TIP3    H126735   7.300   6.352   3.901
 8934TIP3    H226736   7.397   6.393   3.792
 8935TIP3   OH226737   7.613   5.896   3.537
 8935TIP3    H126738   7.573   5.976   3.504
 8935TIP3    H226739   7.548   5.827   3.521
 8936TIP3   OH226740   7.743   6.370   3.736
 8936TIP3    H126741   7.737   6.357   3.830
 8936TIP3    H226742   7.656   6.348   3.703
 8937TIP3   OH226743   7.982   6.325   3.595
 8937TIP3    H126744   7.903   6.324   3.649
 8937TIP3    H226745   8.053   6.300   3.655
 8938TIP3   OH226746   8.204   6.301   3.757
 8938TIP3    H126747   8.217   6.206   3.761
 8938TIP3    H226748   8.205   6.330   3.848
 8939TIP3   OH226749   7.207   6.189   3.943
 8939TIP3    H126750   7.212   6.101   3.905
 8939TIP3    H226751   7.247   6.181   4.029
 8940TIP3   OH226752   7.682   5.875   3.801
 8940TIP3    H126753   7.753   5.810   3.796
 8940TIP3    H226754   7.653   5.885   3.710
 8941TIP3   OH226755   7.777   6.090   3.945
 8941TIP3    H126756   7.748   6.019   3.888
 8941TIP3    H226757   7.704   6.153   3.943
 8942TIP3   OH226758   7.020   7.335   2.069
 8942TIP3    H126759   7.111   7.313   2.049
 8942TIP3    H226760   6.989   7.383   1.992
 8943TIP3   OH226761   6.492   6.712   2.264
 8943TIP3    H126762   6.580   6.736   2.236
 8943TIP3    H226763   6.473   6.631   2.218
 8944TIP3   OH226764   6.396   7.308   2.689
 8944TIP3    H126765   6.333   7.253   2.643
 8944TIP3    H226766   6.442   7.248   2.748
 8945TIP3   OH226767   6.537   7.143   2.860
 8945TIP3    H126768   6.528   7.073   2.925
 8945TIP3    H226769   6.591   7.209   2.903
 8946TIP3   OH226770   8.052   6.226   1.929
 8946TIP3    H126771   8.014   6.234   1.841
 8946TIP3    H226772   8.053   6.132   1.946
 8947TIP3   OH226773   8.080   6.502   2.463
 8947TIP3    H126774   8.096   6.408   2.453
 8947TIP3    H226775   8.071   6.515   2.557
 8948TIP3   OH226776   6.722   6.570   3.237
 8948TIP3    H126777   6.711   6.538   3.148
 8948TIP3    H226778   6.816   6.570   3.252
 8949TIP3   OH226779   8.358   6.890   3.327
 8949TIP3    H126780   8.385   6.804   3.358
 8949TIP3    H226781   8.387   6.893   3.236
 8950TIP3   OH226782   8.023   5.954   1.942
 8950TIP3    H126783   8.079   5.877   1.931
 8950TIP3    H226784   7.934   5.919   1.945
 8951TIP3   OH226785   8.076   6.227   2.358
 8951TIP3    H126786   8.118   6.143   2.374
 8951TIP3    H226787   8.112   6.256   2.274
 8952TIP3   OH226788   8.242   6.389   2.851
 8952TIP3    H126789   8.320   6.412   2.800
 8952TIP3    H226790   8.254   6.436   2.934
 8953TIP3   OH226791   8.291   6.540   3.074
 8953TIP3    H126792   8.227   6.558   3.143
 8953TIP3    H226793   8.341   6.621   3.066
 8954TIP3   OH226794   6.943   6.258   3.900
 8954TIP3    H126795   7.037   6.250   3.911
 8954TIP3    H226796   6.908   6.176   3.935
 8955TIP3   OH226797   8.177   5.984   2.426
 8955TIP3    H126798   8.226   5.966   2.506
 8955TIP3    H226799   8.120   5.908   2.414
 8956TIP3   OH226800   6.915   5.965   3.228
 8956TIP3    H126801   6.970   5.886   3.232
 8956TIP3    H226802   6.977   6.036   3.212
 8957TIP3   OH226803   6.706   6.230   3.298
 8957TIP3    H126804   6.755   6.218   3.216
 8957TIP3    H226805   6.722   6.322   3.321
 8958TIP3   OH226806   6.683   5.744   2.799
 8958TIP3    H126807   6.597   5.731   2.837
 8958TIP3    H226808   6.668   5.797   2.720
 8959TIP3   OH226809   6.906   5.790   3.615
 8959TIP3    H126810   6.856   5.790   3.697
 8959TIP3    H226811   6.852   5.840   3.554
 8960TIP3   OH226812   6.937   7.247   3.686
 8960TIP3    H126813   6.843   7.231   3.676
 8960TIP3    H226814   6.955   7.225   3.778
 8961TIP3   OH226815   7.142   7.292   3.238
 8961TIP3    H126816   7.088   7.363   3.203
 8961TIP3    H226817   7.225   7.301   3.192
 8962TIP3   OH226818   7.540   7.514   3.358
 8962TIP3    H126819   7.593   7.519   3.437
 8962TIP3    H226820   7.586   7.569   3.294
 8963TIP3   OH226821   8.465   5.980   3.403
 8963TIP3    H126822   8.384   5.941   3.370
 8963TIP3    H226823   8.517   5.997   3.325
 8964TIP3   OH226824   6.797   7.530   3.289
 8964TIP3    H126825   6.707   7.556   3.268
 8964TIP3    H226826   6.827   7.597   3.352
 8965TIP3   OH226827   7.021   7.514   3.132
 8965TIP3    H126828   6.938   7.520   3.179
 8965TIP3    H226829   7.001   7.541   3.042
 8966TIP3   OH226830   7.472   7.507   2.908
 8966TIP3    H126831   7.388   7.530   2.869
 8966TIP3    H226832   7.493   7.580   2.965
 8967TIP3   OH226833   6.713   7.319   3.008
 8967TIP3    H126834   6.742   7.294   3.096
 8967TIP3    H226835   6.782   7.286   2.950
 8968TIP3   OH226836   6.909   7.198   2.866
 8968TIP3    H126837   6.921   7.116   2.913
 8968TIP3    H226838   6.995   7.239   2.866
 8969TIP3   OH226839   7.173   7.272   2.895
 8969TIP3    H126840   7.197   7.181   2.882
 8969TIP3    H226841   7.231   7.303   2.964
 8970TIP3   OH226842   7.753   5.939   2.971
 8970TIP3    H126843   7.713   5.866   3.019
 8970TIP3    H226844   7.820   5.897   2.917
 8971TIP3   OH226845   8.242   5.883   2.871
 8971TIP3    H126846   8.258   5.925   2.786
 8971TIP3    H226847   8.147   5.882   2.880
 8972TIP3   OH226848   8.366   5.947   2.623
 8972TIP3    H126849   8.427   5.884   2.661
 8972TIP3    H226850   8.413   5.985   2.549
 8973TIP3   OH226851   6.993   5.640   2.968
 8973TIP3    H126852   6.903   5.609   2.976
 8973TIP3    H226853   7.046   5.560   2.961
 8974TIP3   OH226854   6.812   5.549   2.632
 8974TIP3    H126855   6.835   5.598   2.553
 8974TIP3    H226856   6.774   5.614   2.691
 8975TIP3   OH226857   7.465   5.678   2.866
 8975TIP3    H126858   7.512   5.726   2.798
 8975TIP3    H226859   7.506   5.708   2.948
 8976TIP3   OH226860   7.968   5.819   2.841
 8976TIP3    H126861   7.995   5.782   2.757
 8976TIP3    H226862   7.966   5.744   2.901
 8977TIP3   OH226863   8.010   5.767   2.408
 8977TIP3    H126864   7.928   5.810   2.432
 8977TIP3    H226865   8.002   5.679   2.444
 8978TIP3   OH226866   6.483   7.114   2.388
 8978TIP3    H126867   6.401   7.078   2.354
 8978TIP3    H226868   6.484   7.205   2.357
 8979TIP3   OH226869   6.916   5.677   2.390
 8979TIP3    H126870   6.962   5.616   2.331
 8979TIP3    H226871   6.985   5.732   2.425
 8980TIP3   OH226872   7.404   5.870   2.486
 8980TIP3    H126873   7.462   5.818   2.540
 8980TIP3    H226874   7.420   5.961   2.513
 8981TIP3   OH226875   7.282   7.281   1.990
 8981TIP3    H126876   7.307   7.347   1.925
 8981TIP3    H226877   7.265   7.202   1.939
 8982TIP3   OH226878   7.216   5.913   3.862
 8982TIP3    H126879   7.179   5.845   3.918
 8982TIP3    H226880   7.308   5.920   3.888
 8983TIP3   OH226881   7.468   5.918   3.978
 8983TIP3    H126882   7.543   5.908   3.920
 8983TIP3    H226883   7.474   5.844   4.038
 8984TIP3   OH226884   6.568   7.100   2.034
 8984TIP3    H126885   6.571   7.104   2.129
 8984TIP3    H226886   6.647   7.052   2.009
 8985TIP3   OH226887   8.257   6.033   3.777
 8985TIP3    H126888   8.273   6.003   3.867
 8985TIP3    H226889   8.344   6.042   3.739
 8986TIP3   OH226890   0.982   6.994   4.654
 8986TIP3    H126891   0.999   7.075   4.702
 8986TIP3    H226892   1.014   7.011   4.566
 8987TIP3   OH226893   0.388   6.884   4.258
 8987TIP3    H126894   0.435   6.917   4.335
 8987TIP3    H226895   0.425   6.932   4.185
 8988TIP3   OH226896   1.027   7.201   4.831
 8988TIP3    H126897   0.946   7.252   4.821
 8988TIP3    H226898   1.072   7.243   4.904
 8989TIP3   OH226899   0.545   6.969   4.470
 8989TIP3    H126900   0.569   6.881   4.500
 8989TIP3    H226901   0.619   7.024   4.498
 8990TIP3   OH226902   0.769   6.898   4.809
 8990TIP3    H126903   0.694   6.940   4.768
 8990TIP3    H226904   0.843   6.921   4.753
 8991TIP3   OH226905   0.730   7.961   4.719
 8991TIP3    H126906   0.728   7.878   4.671
 8991TIP3    H226907   0.783   8.019   4.664
 8992TIP3   OH226908   0.863   7.539   4.653
 8992TIP3    H126909   0.780   7.586   4.652
 8992TIP3    H226910   0.898   7.549   4.565
 8993TIP3   OH226911   0.678   6.483   3.910
 8993TIP3    H126912   0.598   6.503   3.960
 8993TIP3    H226913   0.693   6.562   3.858
 8994TIP3   OH226914   0.808   7.368   5.145
 8994TIP3    H126915   0.717   7.391   5.166
 8994TIP3    H226916   0.806   7.274   5.127
 8995TIP3   OH226917   0.621   7.670   4.623
 8995TIP3    H126918   0.664   7.720   4.553
 8995TIP3    H226919   0.545   7.630   4.581
 8996TIP3   OH226920   0.686   7.098   3.810
 8996TIP3    H126921   0.633   7.054   3.743
 8996TIP3    H226922   0.686   7.190   3.782
 8997TIP3   OH226923   0.922   7.863   4.895
 8997TIP3    H126924   0.850   7.918   4.867
 8997TIP3    H226925   0.967   7.839   4.813
 8998TIP3   OH226926   0.791   7.111   5.044
 8998TIP3    H126927   0.743   7.029   5.052
 8998TIP3    H226928   0.839   7.103   4.961
 8999TIP3   OH226929   0.484   7.256   4.442
 8999TIP3    H126930   0.438   7.173   4.448
 8999TIP3    H226931   0.568   7.241   4.486
 9000TIP3   OH226932   0.508   7.364   3.471
 9000TIP3    H126933   0.454   7.310   3.414
 9000TIP3    H226934   0.578   7.397   3.414
 9001TIP3   OH226935   0.729   7.047   5.470
 9001TIP3    H126936   0.729   6.952   5.461
 9001TIP3    H226937   0.640   7.067   5.499
 9002TIP3   OH226938   0.580   7.564   3.852
 9002TIP3    H126939   0.656   7.607   3.812
 9002TIP3    H226940   0.617   7.515   3.925
 9003TIP3   OH226941   0.741   7.419   4.022
 9003TIP3    H126942   0.683   7.373   4.083
 9003TIP3    H226943   0.808   7.459   4.078
 9004TIP3   OH226944   0.797   7.800   4.465
 9004TIP3    H126945   0.853   7.735   4.422
 9004TIP3    H226946   0.771   7.860   4.395
 9005TIP3   OH226947   0.675   7.345   3.687
 9005TIP3    H126948   0.607   7.350   3.620
 9005TIP3    H226949   0.655   7.416   3.748
 9006TIP3   OH226950   0.556   6.995   3.591
 9006TIP3    H126951   0.495   7.040   3.533
 9006TIP3    H226952   0.536   6.902   3.581
 9007TIP3   OH226953   0.579   7.273   4.181
 9007TIP3    H126954   0.564   7.182   4.155
 9007TIP3    H226955   0.538   7.280   4.267
 9008TIP3   OH226956   0.808   7.673   5.049
 9008TIP3    H126957   0.870   7.602   5.033
 9008TIP3    H226958   0.832   7.742   4.987
 9009TIP3   OH226959   1.014   7.491   5.023
 9009TIP3    H126960   0.946   7.444   5.071
 9009TIP3    H226961   1.093   7.438   5.035
 9010TIP3   OH226962   0.505   6.723   3.576
 9010TIP3    H126963   0.570   6.708   3.645
 9010TIP3    H226964   0.423   6.694   3.615
 9011TIP3   OH226965   0.562   7.014   4.065
 9011TIP3    H126966   0.606   6.929   4.074
 9011TIP3    H226967   0.594   7.049   3.982
 9012TIP3   OH226968   0.718   7.170   4.570
 9012TIP3    H126969   0.797   7.192   4.519
 9012TIP3    H226970   0.731   7.215   4.653
 9013TIP3   OH226971   0.782   7.324   4.795
 9013TIP3    H126972   0.726   7.362   4.863
 9013TIP3    H226973   0.814   7.399   4.746
 9014TIP3   OH226974   1.238   6.932   5.329
 9014TIP3    H126975   1.299   6.871   5.287
 9014TIP3    H226976   1.202   6.983   5.257
 9015TIP3   OH226977   0.670   6.757   4.089
 9015TIP3    H126978   0.711   6.744   4.175
 9015TIP3    H226979   0.598   6.694   4.086
 9016TIP3   OH226980   1.078   7.051   5.142
 9016TIP3    H126981   1.015   7.089   5.202
 9016TIP3    H226982   1.029   6.981   5.097
 9017TIP3   OH226983   0.729   6.686   3.733
 9017TIP3    H126984   0.775   6.626   3.674
 9017TIP3    H226985   0.788   6.761   3.739
 9018TIP3   OH226986   0.984   6.792   5.039
 9018TIP3    H126987   0.897   6.770   5.005
 9018TIP3    H226988   1.034   6.711   5.031
 9019TIP3   OH226989   0.740   6.595   4.527
 9019TIP3    H126990   0.780   6.648   4.458
 9019TIP3    H226991   0.652   6.630   4.538
 9020TIP3   OH226992   0.833   6.721   4.308
 9020TIP3    H126993   0.902   6.662   4.277
 9020TIP3    H226994   0.868   6.809   4.294
 9021TIP3   OH226995   0.484   6.685   4.535
 9021TIP3    H126996   0.405   6.703   4.484
 9021TIP3    H226997   0.462   6.608   4.587
 9022TIP3   OH226998   0.472   6.554   4.080
 9022TIP3    H126999   0.382   6.583   4.071
 9022TIP3    H227000   0.466   6.467   4.120
 9023TIP3   OH227001   0.738   6.771   5.449
 9023TIP3    H127002   0.750   6.749   5.541
 9023TIP3    H227003   0.826   6.769   5.412
 9024TIP3   OH227004   1.945   7.608   3.782
 9024TIP3    H127005   1.940   7.703   3.770
 9024TIP3    H227006   1.880   7.574   3.721
 9025TIP3   OH227007   1.922   7.711   4.123
 9025TIP3    H127008   1.970   7.696   4.205
 9025TIP3    H227009   1.883   7.626   4.102
 9026TIP3   OH227010   1.236   7.586   4.509
 9026TIP3    H127011   1.269   7.515   4.564
 9026TIP3    H227012   1.292   7.660   4.529
 9027TIP3   OH227013   2.213   7.993   3.827
 9027TIP3    H127014   2.186   7.934   3.897
 9027TIP3    H227015   2.239   8.074   3.872
 9028TIP3   OH227016   1.291   7.899   4.235
 9028TIP3    H127017   1.274   7.805   4.225
 9028TIP3    H227018   1.356   7.918   4.167
 9029TIP3   OH227019   0.912   7.208   3.943
 9029TIP3    H127020   0.869   7.290   3.969
 9029TIP3    H227021   0.840   7.153   3.912
 9030TIP3   OH227022   0.966   7.504   4.156
 9030TIP3    H127023   1.027   7.433   4.179
 9030TIP3    H227024   1.018   7.565   4.105
 9031TIP3   OH227025   1.755   7.933   4.180
 9031TIP3    H127026   1.793   7.855   4.140
 9031TIP3    H227027   1.828   7.976   4.223
 9032TIP3   OH227028   2.771   7.259   4.146
 9032TIP3    H127029   2.790   7.343   4.189
 9032TIP3    H227030   2.792   7.275   4.054
 9033TIP3   OH227031   2.158   7.424   4.171
 9033TIP3    H127032   2.189   7.337   4.197
 9033TIP3    H227033   2.122   7.411   4.083
 9034TIP3   OH227034   1.502   7.081   4.130
 9034TIP3    H127035   1.482   7.155   4.073
 9034TIP3    H227036   1.446   7.010   4.099
 9035TIP3   OH227037   2.193   7.184   3.757
 9035TIP3    H127038   2.251   7.182   3.833
 9035TIP3    H227039   2.248   7.220   3.687
 9036TIP3   OH227040   1.128   7.299   4.251
 9036TIP3    H127041   1.211   7.280   4.295
 9036TIP3    H227042   1.131   7.248   4.170
 9037TIP3   OH227043   1.574   7.487   4.040
 9037TIP3    H127044   1.667   7.469   4.058
 9037TIP3    H227045   1.537   7.402   4.016
 9038TIP3   OH227046   2.834   7.477   4.313
 9038TIP3    H127047   2.743   7.506   4.312
 9038TIP3    H227048   2.868   7.510   4.397
 9039TIP3   OH227049   1.482   7.080   4.578
 9039TIP3    H127050   1.426   7.119   4.510
 9039TIP3    H227051   1.432   7.092   4.659
 9040TIP3   OH227052   1.915   7.825   3.599
 9040TIP3    H127053   1.849   7.836   3.531
 9040TIP3    H227054   1.926   7.913   3.636
 9041TIP3   OH227055   1.597   7.817   4.364
 9041TIP3    H127056   1.540   7.886   4.399
 9041TIP3    H227057   1.650   7.862   4.297
 9042TIP3   OH227058   2.362   7.203   3.973
 9042TIP3    H127059   2.319   7.182   4.056
 9042TIP3    H227060   2.419   7.277   3.995
 9043TIP3   OH227061   1.367   7.190   4.348
 9043TIP3    H127062   1.423   7.262   4.376
 9043TIP3    H227063   1.417   7.147   4.278
 9044TIP3   OH227064   4.275   0.023   4.417
 9044TIP3    H127065   4.205  -0.024   4.373
 9044TIP3    H227066   4.237   0.051   4.500
 9045TIP3   OH227067   0.812   7.641   3.727
 9045TIP3    H127068   0.765   7.643   3.643
 9045TIP3    H227069   0.857   7.726   3.730
 9046TIP3   OH227070   2.569   7.149   4.313
 9046TIP3    H127071   2.483   7.173   4.278
 9046TIP3    H227072   2.630   7.178   4.245
 9047TIP3   OH227073   1.824   6.779   4.304
 9047TIP3    H127074   1.817   6.687   4.331
 9047TIP3    H227075   1.749   6.822   4.344
 9048TIP3   OH227076   2.228   7.936   3.554
 9048TIP3    H127077   2.158   7.975   3.502
 9048TIP3    H227078   2.204   7.956   3.644
 9049TIP3   OH227079   5.379   0.139   4.214
 9049TIP3    H127080   5.332   0.065   4.176
 9049TIP3    H227081   5.405   0.192   4.138
 9050TIP3   OH227082   1.781   7.524   3.575
 9050TIP3    H127083   1.699   7.572   3.563
 9050TIP3    H227084   1.823   7.525   3.489
 9051TIP3   OH227085   1.727   7.329   3.271
 9051TIP3    H127086   1.789   7.390   3.312
 9051TIP3    H227087   1.782   7.270   3.219
 9052TIP3   OH227088   2.670   7.801   4.149
 9052TIP3    H127089   2.583   7.841   4.152
 9052TIP3    H227090   2.700   7.816   4.060
 9053TIP3   OH227091   2.112   7.609   3.529
 9053TIP3    H127092   2.061   7.658   3.593
 9053TIP3    H227093   2.197   7.596   3.571
 9054TIP3   OH227094   2.348   7.657   4.433
 9054TIP3    H127095   2.349   7.732   4.492
 9054TIP3    H227096   2.264   7.662   4.388
 9055TIP3   OH227097   1.349   7.603   3.934
 9055TIP3    H127098   1.312   7.547   3.867
 9055TIP3    H227099   1.425   7.555   3.967
 9056TIP3   OH227100   1.482   7.935   4.048
 9056TIP3    H127101   1.472   8.008   3.986
 9056TIP3    H227102   1.569   7.901   4.031
 9057TIP3   OH227103   1.475   7.591   4.275
 9057TIP3    H127104   1.518   7.567   4.193
 9057TIP3    H227105   1.520   7.671   4.303
 9058TIP3   OH227106   4.472   0.072   4.625
 9058TIP3    H127107   4.544   0.135   4.621
 9058TIP3    H227108   4.449   0.057   4.533
 9059TIP3   OH227109   1.944   7.489   3.353
 9059TIP3    H127110   2.006   7.542   3.402
 9059TIP3    H227111   1.974   7.493   3.263
 9060TIP3   OH227112   1.384   7.739   4.709
 9060TIP3    H127113   1.397   7.811   4.772
 9060TIP3    H227114   1.305   7.695   4.740
 9061TIP3   OH227115   2.461   6.737   3.402
 9061TIP3    H127116   2.385   6.758   3.457
 9061TIP3    H227117   2.473   6.814   3.347
 9062TIP3   OH227118   1.239   7.439   3.736
 9062TIP3    H127119   1.168   7.488   3.695
 9062TIP3    H227120   1.198   7.358   3.766
 9063TIP3   OH227121   1.019   7.792   4.653
 9063TIP3    H127122   0.954   7.759   4.591
 9063TIP3    H227123   1.061   7.713   4.688
 9064TIP3   OH227124   2.597   7.624   4.626
 9064TIP3    H127125   2.508   7.633   4.591
 9064TIP3    H227126   2.615   7.530   4.620
 9065TIP3   OH227127   1.191   7.962   4.539
 9065TIP3    H127128   1.244   8.000   4.609
 9065TIP3    H227129   1.135   7.898   4.583
 9066TIP3   OH227130   1.588   6.871   4.428
 9066TIP3    H127131   1.503   6.839   4.397
 9066TIP3    H227132   1.568   6.950   4.478
 9067TIP3   OH227133   2.131   6.985   4.633
 9067TIP3    H127134   2.200   6.964   4.696
 9067TIP3    H227135   2.050   6.971   4.681
 9068TIP3   OH227136   2.357   7.406   4.550
 9068TIP3    H127137   2.308   7.403   4.633
 9068TIP3    H227138   2.332   7.490   4.511
 9069TIP3   OH227139   2.003   7.467   3.088
 9069TIP3    H127140   1.987   7.432   3.000
 9069TIP3    H227141   2.030   7.557   3.074
 9070TIP3   OH227142   1.733   6.912   3.399
 9070TIP3    H127143   1.703   6.917   3.490
 9070TIP3    H227144   1.697   6.829   3.367
 9071TIP3   OH227145   1.527   7.387   4.444
 9071TIP3    H127146   1.487   7.404   4.529
 9071TIP3    H227147   1.506   7.464   4.391
 9072TIP3   OH227148   1.412   7.277   3.964
 9072TIP3    H127149   1.323   7.258   3.991
 9072TIP3    H227150   1.418   7.243   3.875
 9073TIP3   OH227151   1.902   7.303   3.680
 9073TIP3    H127152   1.859   7.381   3.647
 9073TIP3    H227153   1.969   7.283   3.615
 9074TIP3   OH227154   2.092   7.612   4.766
 9074TIP3    H127155   2.063   7.547   4.830
 9074TIP3    H227156   2.183   7.629   4.788
 9075TIP3   OH227157   2.060   7.397   3.919
 9075TIP3    H127158   2.012   7.465   3.872
 9075TIP3    H227159   2.062   7.323   3.858
 9076TIP3   OH227160   1.363   7.399   4.672
 9076TIP3    H127161   1.431   7.445   4.721
 9076TIP3    H227162   1.347   7.319   4.722
 9077TIP3   OH227163   1.398   6.904   3.377
 9077TIP3    H127164   1.390   6.907   3.472
 9077TIP3    H227165   1.322   6.952   3.345
 9078TIP3   OH227166   0.958   6.948   4.240
 9078TIP3    H127167   1.027   6.982   4.297
 9078TIP3    H227168   1.002   6.935   4.155
 9079TIP3   OH227169   0.886   6.915   3.752
 9079TIP3    H127170   0.927   6.950   3.673
 9079TIP3    H227171   0.821   6.980   3.776
 9080TIP3   OH227172   2.090   7.630   4.331
 9080TIP3    H127173   2.118   7.560   4.271
 9080TIP3    H227174   2.053   7.585   4.406
 9081TIP3   OH227175   1.765   7.070   4.016
 9081TIP3    H127176   1.688   7.071   4.073
 9081TIP3    H227177   1.839   7.064   4.076
 9082TIP3   OH227178   1.170   7.159   4.019
 9082TIP3    H127179   1.081   7.163   3.984
 9082TIP3    H227180   1.198   7.069   4.003
 9083TIP3   OH227181   1.415   7.150   3.722
 9083TIP3    H127182   1.509   7.165   3.710
 9083TIP3    H227183   1.376   7.172   3.637
 9084TIP3   OH227184   2.226   7.157   4.212
 9084TIP3    H127185   2.211   7.171   4.305
 9084TIP3    H227186   2.155   7.099   4.184
 9085TIP3   OH227187   1.286   7.175   3.482
 9085TIP3    H127188   1.218   7.132   3.430
 9085TIP3    H227189   1.347   7.211   3.416
 9086TIP3   OH227190   1.370   7.941   4.909
 9086TIP3    H127191   1.443   7.937   4.970
 9086TIP3    H227192   1.292   7.945   4.965
 9087TIP3   OH227193   1.832   7.437   4.123
 9087TIP3    H127194   1.903   7.389   4.080
 9087TIP3    H227195   1.829   7.401   4.211
 9088TIP3   OH227196   1.313   6.910   4.008
 9088TIP3    H127197   1.284   6.835   4.060
 9088TIP3    H227198   1.343   6.873   3.925
 9089TIP3   OH227199   1.799   7.352   4.390
 9089TIP3    H127200   1.710   7.379   4.411
 9089TIP3    H227201   1.855   7.411   4.441
 9090TIP3   OH227202   1.550   7.667   3.541
 9090TIP3    H127203   1.471   7.613   3.532
 9090TIP3    H227204   1.542   7.706   3.629
 9091TIP3   OH227205   2.420   7.917   4.115
 9091TIP3    H127206   2.449   7.956   4.033
 9091TIP3    H227207   2.336   7.877   4.095
 9092TIP3   OH227208   1.988   7.013   3.380
 9092TIP3    H127209   1.894   6.998   3.389
 9092TIP3    H227210   2.000   7.106   3.403
 9093TIP3   OH227211   1.938   7.938   4.533
 9093TIP3    H127212   1.991   7.915   4.609
 9093TIP3    H227213   1.880   8.007   4.564
 9094TIP3   OH227214   2.070   7.262   3.464
 9094TIP3    H127215   2.164   7.273   3.481
 9094TIP3    H227216   2.044   7.345   3.424
 9095TIP3   OH227217   1.223   7.640   4.177
 9095TIP3    H127218   1.253   7.635   4.087
 9095TIP3    H227219   1.294   7.603   4.229
 9096TIP3   OH227220   1.583   7.864   3.353
 9096TIP3    H127221   1.625   7.937   3.399
 9096TIP3    H227222   1.578   7.794   3.418
 9097TIP3   OH227223   1.159   7.630   4.832
 9097TIP3    H127224   1.226   7.630   4.901
 9097TIP3    H227225   1.089   7.576   4.867
 9098TIP3   OH227226   1.848   7.745   4.786
 9098TIP3    H127227   1.792   7.672   4.812
 9098TIP3    H227228   1.934   7.707   4.774
 9099TIP3   OH227229   2.476   7.355   3.304
 9099TIP3    H127230   2.416   7.313   3.242
 9099TIP3    H227231   2.489   7.443   3.269
 9100TIP3   OH227232   5.583   0.148   4.386
 9100TIP3    H127233   5.495   0.166   4.351
 9100TIP3    H227234   5.637   0.132   4.309
 9101TIP3   OH227235   2.183   7.799   4.027
 9101TIP3    H127236   2.093   7.777   4.052
 9101TIP3    H227237   2.218   7.718   3.990
 9102TIP3   OH227238   0.898   7.323   3.520
 9102TIP3    H127239   0.955   7.398   3.539
 9102TIP3    H227240   0.824   7.333   3.580
 9103TIP3   OH227241   1.506   7.779   3.790
 9103TIP3    H127242   1.435   7.834   3.756
 9103TIP3    H227243   1.463   7.721   3.853
 9104TIP3   OH227244   2.013   7.975   4.268
 9104TIP3    H127245   1.986   7.968   4.360
 9104TIP3    H227246   2.099   7.933   4.265
 9105TIP3   OH227247   1.897   7.842   3.200
 9105TIP3    H127248   1.979   7.798   3.223
 9105TIP3    H227249   1.852   7.781   3.142
 9106TIP3   OH227250   1.324   7.148   4.798
 9106TIP3    H127251   1.230   7.149   4.813
 9106TIP3    H227252   1.361   7.111   4.878
 9107TIP3   OH227253   2.135   7.755   3.301
 9107TIP3    H127254   2.124   7.715   3.387
 9107TIP3    H227255   2.229   7.769   3.293
 9108TIP3   OH227256   1.310   7.798   3.315
 9108TIP3    H127257   1.269   7.798   3.229
 9108TIP3    H227258   1.398   7.831   3.300
 9109TIP3   OH227259   1.033   7.551   3.599
 9109TIP3    H127260   0.965   7.572   3.663
 9109TIP3    H227261   1.028   7.622   3.534
 9110TIP3   OH227262   2.178   7.205   4.474
 9110TIP3    H127263   2.247   7.257   4.515
 9110TIP3    H227264   2.161   7.134   4.535
 9111TIP3   OH227265   2.049   6.969   3.660
 9111TIP3    H127266   2.031   6.990   3.569
 9111TIP3    H227267   2.090   7.048   3.696
 9112TIP3   OH227268   1.691   7.157   3.764
 9112TIP3    H127269   1.763   7.211   3.733
 9112TIP3    H227270   1.712   7.139   3.855
 9113TIP3   OH227271   2.020   7.465   4.537
 9113TIP3    H127272   2.036   7.508   4.621
 9113TIP3    H227273   2.053   7.376   4.548
 9114TIP3   OH227274   1.868   6.868   3.847
 9114TIP3    H127275   1.845   6.944   3.900
 9114TIP3    H227276   1.935   6.900   3.787
 9115TIP3   OH227277   1.379   6.883   3.655
 9115TIP3    H127278   1.368   6.972   3.688
 9115TIP3    H227279   1.473   6.866   3.662
 9116TIP3   OH227280   2.619   7.352   4.526
 9116TIP3    H127281   2.525   7.363   4.541
 9116TIP3    H227282   2.625   7.294   4.450
 9117TIP3   OH227283   2.288   7.561   3.926
 9117TIP3    H127284   2.213   7.502   3.931
 9117TIP3    H227285   2.356   7.518   3.977
 9118TIP3   OH227286   0.965   7.725   3.382
 9118TIP3    H127287   0.939   7.781   3.309
 9118TIP3    H227288   1.031   7.667   3.344
 9119TIP3   OH227289   0.931   7.050   3.519
 9119TIP3    H127290   0.940   7.144   3.530
 9119TIP3    H227291   0.845   7.039   3.478
 9120TIP3   OH227292   1.326   6.787   4.390
 9120TIP3    H127293   1.297   6.754   4.305
 9120TIP3    H227294   1.319   6.712   4.448
 9121TIP3   OH227295   1.133   7.916   5.072
 9121TIP3    H127296   1.189   7.856   5.121
 9121TIP3    H227297   1.091   7.860   5.006
 9122TIP3   OH227298   1.141   7.535   3.296
 9122TIP3    H127299   1.195   7.523   3.374
 9122TIP3    H227300   1.203   7.535   3.223
 9123TIP3   OH227301   1.730   7.982   4.856
 9123TIP3    H127302   1.703   8.009   4.769
 9123TIP3    H227303   1.780   7.901   4.842
 9124TIP3   OH227304   1.650   7.768   3.096
 9124TIP3    H127305   1.639   7.833   3.166
 9124TIP3    H227306   1.609   7.689   3.132
 9125TIP3   OH227307   5.096  -0.006   4.428
 9125TIP3    H127308   5.175   0.047   4.435
 9125TIP3    H227309   5.032   0.040   4.484
 9126TIP3   OH227310   1.343   7.645   5.033
 9126TIP3    H127311   1.436   7.623   5.029
 9126TIP3    H227312   1.334   7.698   5.113
 9127TIP3   OH227313   1.347   7.493   3.482
 9127TIP3    H127314   1.316   7.460   3.566
 9127TIP3    H227315   1.382   7.416   3.437
 9128TIP3   OH227316   1.597   7.557   4.691
 9128TIP3    H127317   1.537   7.631   4.702
 9128TIP3    H227318   1.657   7.586   4.623
 9129TIP3   OH227319   1.456   7.297   3.311
 9129TIP3    H127320   1.429   7.293   3.219
 9129TIP3    H227321   1.550   7.313   3.308
 9130TIP3   OH227322   2.125   7.930   4.775
 9130TIP3    H127323   2.209   7.885   4.767
 9130TIP3    H227324   2.094   7.909   4.863
 9131TIP3   OH227325   2.325   7.615   2.962
 9131TIP3    H127326   2.267   7.575   2.897
 9131TIP3    H227327   2.398   7.650   2.911
 9132TIP3   OH227328   1.784   7.367   4.775
 9132TIP3    H127329   1.766   7.290   4.720
 9132TIP3    H227330   1.710   7.426   4.758
 9133TIP3   OH227331   1.747   7.155   4.594
 9133TIP3    H127332   1.769   7.203   4.514
 9133TIP3    H227333   1.653   7.136   4.585
 9134TIP3   OH227334   1.765   7.647   4.493
 9134TIP3    H127335   1.841   7.699   4.518
 9134TIP3    H227336   1.709   7.708   4.446
 9135TIP3   OH227337   2.354   7.635   4.876
 9135TIP3    H127338   2.398   7.550   4.881
 9135TIP3    H227339   2.426   7.698   4.877
 9136TIP3   OH227340   2.384   7.858   4.618
 9136TIP3    H127341   2.320   7.909   4.567
 9136TIP3    H227342   2.469   7.891   4.589
 9137TIP3   OH227343   1.865   6.931   4.709
 9137TIP3    H127344   1.826   7.010   4.671
 9137TIP3    H227345   1.798   6.864   4.699
 9138TIP3   OH227346   2.002   7.411   4.925
 9138TIP3    H127347   1.972   7.402   5.016
 9138TIP3    H227348   1.925   7.391   4.872
 9139TIP3   OH227349   2.232   7.347   4.783
 9139TIP3    H127350   2.157   7.356   4.841
 9139TIP3    H227351   2.306   7.331   4.841
 9140TIP3   OH227352   2.475   7.334   4.928
 9140TIP3    H127353   2.489   7.239   4.933
 9140TIP3    H227354   2.469   7.362   5.019
 9141TIP3   OH227355   1.449   7.255   5.108
 9141TIP3    H127356   1.537   7.221   5.095
 9141TIP3    H227357   1.457   7.318   5.179
 9142TIP3   OH227358   1.935   6.926   4.975
 9142TIP3    H127359   2.003   6.860   4.971
 9142TIP3    H227360   1.902   6.933   4.886
 9143TIP3   OH227361   2.010   7.145   5.127
 9143TIP3    H127362   1.985   7.074   5.068
 9143TIP3    H227363   1.937   7.207   5.120
 9144TIP3   OH227364   0.718   7.650   3.472
 9144TIP3    H127365   0.801   7.683   3.437
 9144TIP3    H227366   0.671   7.618   3.395
 9145TIP3   OH227367   5.444   0.372   4.644
 9145TIP3    H127368   5.390   0.430   4.697
 9145TIP3    H227369   5.534   0.389   4.673
 9146TIP3   OH227370   2.397   7.801   3.312
 9146TIP3    H127371   2.427   7.890   3.293
 9146TIP3    H227372   2.450   7.773   3.387
 9147TIP3   OH227373   2.541   7.678   3.511
 9147TIP3    H127374   2.476   7.642   3.572
 9147TIP3    H227375   2.607   7.718   3.568
 9148TIP3   OH227376   5.425   0.038   3.949
 9148TIP3    H127377   5.482  -0.029   3.911
 9148TIP3    H227378   5.397   0.091   3.874
 9149TIP3   OH227379   2.497   7.590   3.170
 9149TIP3    H127380   2.427   7.592   3.105
 9149TIP3    H227381   2.481   7.667   3.225
 9150TIP3   OH227382   2.316   7.254   3.106
 9150TIP3    H127383   2.272   7.298   3.033
 9150TIP3    H227384   2.307   7.161   3.087
 9151TIP3   OH227385   2.349   7.543   3.658
 9151TIP3    H127386   2.359   7.448   3.648
 9151TIP3    H227387   2.334   7.555   3.752
 9152TIP3   OH227388   0.983   7.608   4.408
 9152TIP3    H127389   0.973   7.560   4.326
 9152TIP3    H227390   1.075   7.596   4.432
 9153TIP3   OH227391   2.623   7.956   4.527
 9153TIP3    H127392   2.688   7.887   4.516
 9153TIP3    H227393   2.655   8.027   4.470
 9154TIP3   OH227394   2.810   7.756   4.526
 9154TIP3    H127395   2.736   7.709   4.564
 9154TIP3    H227396   2.885   7.698   4.542
 9155TIP3   OH227397   2.278   6.982   3.063
 9155TIP3    H127398   2.342   6.959   3.131
 9155TIP3    H227399   2.196   6.944   3.094
 9156TIP3   OH227400   2.348   7.271   3.538
 9156TIP3    H127401   2.392   7.186   3.551
 9156TIP3    H227402   2.393   7.310   3.464
 9157TIP3   OH227403   2.500   7.432   4.052
 9157TIP3    H127404   2.581   7.452   4.005
 9157TIP3    H227405   2.514   7.469   4.139
 9158TIP3   OH227406   2.573   7.576   4.281
 9158TIP3    H127407   2.497   7.601   4.334
 9158TIP3    H227408   2.603   7.658   4.241
 9159TIP3   OH227409   1.186   7.282   5.043
 9159TIP3    H127410   1.281   7.282   5.058
 9159TIP3    H227411   1.155   7.203   5.088
 9160TIP3   OH227412   3.033   7.188   4.823
 9160TIP3    H127413   3.096   7.129   4.780
 9160TIP3    H227414   2.994   7.237   4.751
 9161TIP3   OH227415   2.460   7.019   3.581
 9161TIP3    H127416   2.503   7.006   3.665
 9161TIP3    H227417   2.395   6.949   3.576
 9162TIP3   OH227418   1.162   7.010   4.417
 9162TIP3    H127419   1.216   6.931   4.420
 9162TIP3    H227420   1.223   7.080   4.398
 9163TIP3   OH227421   0.957   7.272   4.475
 9163TIP3    H127422   1.000   7.269   4.389
 9163TIP3    H227423   1.008   7.336   4.525
 9164TIP3   OH227424   2.884   7.306   4.629
 9164TIP3    H127425   2.806   7.347   4.666
 9164TIP3    H227426   2.850   7.237   4.572
 9165TIP3   OH227427   2.504   6.938   3.219
 9165TIP3    H127428   2.554   6.877   3.164
 9165TIP3    H227429   2.562   7.014   3.228
 9166TIP3   OH227430   0.936   6.772   3.978
 9166TIP3    H127431   0.848   6.764   4.016
 9166TIP3    H227432   0.924   6.832   3.904
 9167TIP3   OH227433   1.145   6.819   4.792
 9167TIP3    H127434   1.102   6.828   4.877
 9167TIP3    H227435   1.094   6.874   4.733
 9168TIP3   OH227436   2.792   7.060   4.515
 9168TIP3    H127437   2.704   7.054   4.478
 9168TIP3    H227438   2.827   6.971   4.510
 9169TIP3   OH227439   1.996   6.982   4.147
 9169TIP3    H127440   1.959   6.912   4.200
 9169TIP3    H227441   2.065   6.940   4.096
 9170TIP3   OH227442   2.503   6.889   4.035
 9170TIP3    H127443   2.541   6.940   3.963
 9170TIP3    H227444   2.413   6.920   4.041
 9171TIP3   OH227445   2.619   6.973   3.801
 9171TIP3    H127446   2.689   6.914   3.774
 9171TIP3    H227447   2.656   7.061   3.788
 9172TIP3   OH227448   1.242   6.682   4.147
 9172TIP3    H127449   1.153   6.650   4.157
 9172TIP3    H227450   1.296   6.603   4.142
 9173TIP3   OH227451   1.048   6.585   3.800
 9173TIP3    H127452   1.077   6.641   3.728
 9173TIP3    H227453   1.014   6.646   3.865
 9174TIP3   OH227454   1.717   6.723   4.042
 9174TIP3    H127455   1.764   6.774   3.977
 9174TIP3    H227456   1.753   6.751   4.126
 9175TIP3   OH227457   2.212   6.868   4.018
 9175TIP3    H127458   2.232   6.832   3.931
 9175TIP3    H227459   2.216   6.792   4.077
 9176TIP3   OH227460   2.269   6.813   3.585
 9176TIP3    H127461   2.190   6.862   3.609
 9176TIP3    H227462   2.258   6.727   3.625
 9177TIP3   OH227463   1.160   6.728   3.574
 9177TIP3    H127464   1.206   6.663   3.521
 9177TIP3    H227465   1.230   6.783   3.609
 9178TIP3   OH227466   1.655   6.907   3.664
 9178TIP3    H127467   1.716   6.859   3.720
 9178TIP3    H227468   1.662   6.998   3.692
 9179TIP3   OH227469   1.460   6.934   5.011
 9179TIP3    H127470   1.428   6.876   5.081
 9179TIP3    H227471   1.542   6.970   5.047
 9180TIP3   OH227472   1.700   6.986   5.151
 9180TIP3    H127473   1.780   6.962   5.103
 9180TIP3    H227474   1.690   6.916   5.216
 9181TIP3   OH227475   2.537   7.062   4.942
 9181TIP3    H127476   2.552   7.033   5.032
 9181TIP3    H227477   2.623   7.055   4.901
 9182TIP3   OH227478   3.755   7.872   3.251
 9182TIP3    H127479   3.746   7.967   3.262
 9182TIP3    H227480   3.685   7.848   3.191
 9183TIP3   OH227481   3.718   7.967   3.607
 9183TIP3    H127482   3.764   7.953   3.689
 9183TIP3    H227483   3.679   7.882   3.586
 9184TIP3   OH227484   3.030   7.848   3.977
 9184TIP3    H127485   3.069   7.780   4.032
 9184TIP3    H227486   3.076   7.928   4.000
 9185TIP3   OH227487   6.861   0.237   3.318
 9185TIP3    H127488   6.830   0.182   3.390
 9185TIP3    H227489   6.883   0.321   3.360
 9186TIP3   OH227490   5.930   0.130   3.729
 9186TIP3    H127491   5.905   0.038   3.717
 9186TIP3    H227492   5.987   0.150   3.655
 9187TIP3   OH227493   2.711   7.466   3.432
 9187TIP3    H127494   2.668   7.549   3.456
 9187TIP3    H227495   2.640   7.411   3.399
 9188TIP3   OH227496   2.769   7.753   3.645
 9188TIP3    H127497   2.823   7.678   3.671
 9188TIP3    H227498   2.831   7.817   3.610
 9189TIP3   OH227499   6.384   0.182   3.667
 9189TIP3    H127500   6.415   0.104   3.621
 9189TIP3    H227501   6.463   0.219   3.707
 9190TIP3   OH227502   4.565   7.515   3.632
 9190TIP3    H127503   4.585   7.596   3.678
 9190TIP3    H227504   4.591   7.531   3.542
 9191TIP3   OH227505   3.943   7.684   3.656
 9191TIP3    H127506   3.976   7.598   3.684
 9191TIP3    H227507   3.916   7.671   3.566
 9192TIP3   OH227508   3.287   7.334   3.611
 9192TIP3    H127509   3.269   7.407   3.553
 9192TIP3    H227510   3.232   7.262   3.578
 9193TIP3   OH227511   3.986   7.428   3.236
 9193TIP3    H127512   4.042   7.425   3.314
 9193TIP3    H227513   4.041   7.467   3.168
 9194TIP3   OH227514   2.925   7.548   3.742
 9194TIP3    H127515   3.008   7.533   3.786
 9194TIP3    H227516   2.932   7.500   3.659
 9195TIP3   OH227517   3.369   7.740   3.527
 9195TIP3    H127518   3.461   7.722   3.544
 9195TIP3    H227519   3.333   7.656   3.498
 9196TIP3   OH227520   4.626   7.728   3.799
 9196TIP3    H127521   4.536   7.761   3.798
 9196TIP3    H227522   4.665   7.767   3.878
 9197TIP3   OH227523   3.280   7.341   4.066
 9197TIP3    H127524   3.228   7.377   3.994
 9197TIP3    H227525   3.226   7.355   4.144
 9198TIP3   OH227526   6.562   0.087   3.050
 9198TIP3    H127527   6.479   0.081   3.003
 9198TIP3    H227528   6.556   0.171   3.096
 9199TIP3   OH227529   6.226   0.062   3.848
 9199TIP3    H127530   6.166   0.129   3.880
 9199TIP3    H227531   6.278   0.107   3.781
 9200TIP3   OH227532   4.149   7.453   3.461
 9200TIP3    H127533   4.102   7.441   3.544
 9200TIP3    H227534   4.208   7.526   3.477
 9201TIP3   OH227535   3.168   7.447   3.836
 9201TIP3    H127536   3.226   7.519   3.860
 9201TIP3    H227537   3.213   7.404   3.763
 9202TIP3   OH227538   6.085   0.294   3.900
 9202TIP3    H127539   6.011   0.242   3.868
 9202TIP3    H227540   6.050   0.340   3.976
 9203TIP3   OH227541   2.654   7.880   3.217
 9203TIP3    H127542   2.588   7.901   3.151
 9203TIP3    H227543   2.679   7.965   3.253
 9204TIP3   OH227544   4.364   7.396   3.791
 9204TIP3    H127545   4.282   7.435   3.762
 9204TIP3    H227546   4.430   7.427   3.728
 9205TIP3   OH227547   3.620   7.038   3.789
 9205TIP3    H127548   3.615   6.946   3.817
 9205TIP3    H227549   3.544   7.080   3.830
 9206TIP3   OH227550   6.833   0.178   3.047
 9206TIP3    H127551   6.745   0.143   3.032
 9206TIP3    H227552   6.831   0.207   3.139
 9207TIP3   OH227553   7.192   0.493   3.624
 9207TIP3    H127554   7.176   0.403   3.593
 9207TIP3    H227555   7.131   0.504   3.697
 9208TIP3   OH227556   3.585   7.794   3.049
 9208TIP3    H127557   3.502   7.839   3.040
 9208TIP3    H227558   3.620   7.788   2.960
 9209TIP3   OH227559   3.518   7.607   2.741
 9209TIP3    H127560   3.590   7.657   2.778
 9209TIP3    H227561   3.560   7.532   2.699
 9210TIP3   OH227562   7.298   0.042   3.663
 9210TIP3    H127563   7.216   0.090   3.664
 9210TIP3    H227564   7.326   0.044   3.571
 9211TIP3   OH227565   3.918   7.855   3.015
 9211TIP3    H127566   3.864   7.878   3.092
 9211TIP3    H227567   4.006   7.845   3.050
 9212TIP3   OH227568   4.135   7.903   3.919
 9212TIP3    H127569   4.149   7.978   3.977
 9212TIP3    H227570   4.048   7.919   3.880
 9213TIP3   OH227571   3.145   7.859   3.419
 9213TIP3    H127572   3.104   7.798   3.358
 9213TIP3    H227573   3.223   7.811   3.451
 9214TIP3   OH227574   6.100   0.182   3.528
 9214TIP3    H127575   6.114   0.276   3.539
 9214TIP3    H227576   6.185   0.148   3.498
 9215TIP3   OH227577   3.270   7.848   3.760
 9215TIP3    H127578   3.312   7.824   3.678
 9215TIP3    H227579   3.313   7.929   3.787
 9216TIP3   OH227580   6.272   0.307   4.134
 9216TIP3    H127581   6.340   0.374   4.123
 9216TIP3    H227582   6.239   0.293   4.046
 9217TIP3   OH227583   3.747   7.749   2.825
 9217TIP3    H127584   3.808   7.802   2.877
 9217TIP3    H227585   3.779   7.756   2.736
 9218TIP3   OH227586   3.172   7.960   4.224
 9218TIP3    H127587   3.180   8.045   4.268
 9218TIP3    H227588   3.082   7.932   4.244
 9219TIP3   OH227589   4.258   6.996   2.889
 9219TIP3    H127590   4.176   7.010   2.936
 9219TIP3    H227591   4.268   7.074   2.835
 9220TIP3   OH227592   3.020   7.687   3.241
 9220TIP3    H127593   2.964   7.738   3.182
 9220TIP3    H227594   2.963   7.619   3.277
 9221TIP3   OH227595   5.656   0.049   4.143
 9221TIP3    H127596   5.567   0.040   4.108
 9221TIP3    H227597   5.678  -0.039   4.174
 9222TIP3   OH227598   4.403   7.871   4.091
 9222TIP3    H127599   4.308   7.886   4.093
 9222TIP3    H227600   4.413   7.776   4.083
 9223TIP3   OH227601   5.849   0.184   4.019
 9223TIP3    H127602   5.886   0.241   4.087
 9223TIP3    H227603   5.778   0.137   4.063
 9224TIP3   OH227604   3.385   7.130   3.916
 9224TIP3    H127605   3.301   7.097   3.885
 9224TIP3    H227606   3.363   7.209   3.966
 9225TIP3   OH227607   3.929   7.241   4.120
 9225TIP3    H127608   4.000   7.221   4.181
 9225TIP3    H227609   3.849   7.228   4.170
 9226TIP3   OH227610   4.148   7.651   4.024
 9226TIP3    H127611   4.108   7.653   4.111
 9226TIP3    H227612   4.133   7.739   3.989
 9227TIP3   OH227613   3.838   7.734   2.569
 9227TIP3    H127614   3.794   7.731   2.483
 9227TIP3    H227615   3.914   7.790   2.555
 9228TIP3   OH227616   3.518   7.155   3.023
 9228TIP3    H127617   3.465   7.227   2.990
 9228TIP3    H227618   3.536   7.101   2.945
 9229TIP3   OH227619   3.328   7.648   3.934
 9229TIP3    H127620   3.280   7.660   4.016
 9229TIP3    H227621   3.303   7.723   3.880
 9230TIP3   OH227622   3.216   7.528   3.436
 9230TIP3    H127623   3.124   7.514   3.460
 9230TIP3    H227624   3.222   7.494   3.347
 9231TIP3   OH227625   3.696   7.569   3.159
 9231TIP3    H127626   3.654   7.649   3.127
 9231TIP3    H227627   3.763   7.550   3.093
 9232TIP3   OH227628   3.893   7.867   4.241
 9232TIP3    H127629   3.870   7.803   4.308
 9232TIP3    H227630   3.980   7.898   4.266
 9233TIP3   OH227631   3.859   7.651   3.399
 9233TIP3    H127632   3.811   7.716   3.348
 9233TIP3    H227633   3.864   7.575   3.341
 9234TIP3   OH227634   3.156   7.664   4.148
 9234TIP3    H127635   3.163   7.728   4.218
 9234TIP3    H227636   3.139   7.581   4.193
 9235TIP3   OH227637   2.748   7.197   3.726
 9235TIP3    H127638   2.819   7.232   3.781
 9235TIP3    H227639   2.791   7.176   3.643
 9236TIP3   OH227640   2.664   7.164   3.242
 9236TIP3    H127641   2.708   7.200   3.165
 9236TIP3    H227642   2.601   7.231   3.268
 9237TIP3   OH227643   3.870   7.884   3.824
 9237TIP3    H127644   3.902   7.816   3.764
 9237TIP3    H227645   3.835   7.835   3.899
 9238TIP3   OH227646   3.548   7.331   3.506
 9238TIP3    H127647   3.466   7.330   3.555
 9238TIP3    H227648   3.616   7.337   3.572
 9239TIP3   OH227649   2.971   7.418   3.503
 9239TIP3    H127650   2.881   7.423   3.471
 9239TIP3    H227651   2.997   7.327   3.487
 9240TIP3   OH227652   3.235   7.399   3.192
 9240TIP3    H127653   3.324   7.409   3.159
 9240TIP3    H227654   3.179   7.416   3.116
 9241TIP3   OH227655   4.005   7.415   3.696
 9241TIP3    H127656   3.995   7.428   3.790
 9241TIP3    H227657   3.931   7.360   3.671
 9242TIP3   OH227658   3.084   7.422   2.966
 9242TIP3    H127659   3.013   7.385   2.913
 9242TIP3    H227660   3.142   7.464   2.903
 9243TIP3   OH227661   6.014   0.177   4.385
 9243TIP3    H127662   6.086   0.186   4.448
 9243TIP3    H227663   5.935   0.191   4.436
 9244TIP3   OH227664   3.628   7.692   3.607
 9244TIP3    H127665   3.703   7.649   3.567
 9244TIP3    H227666   3.624   7.657   3.696
 9245TIP3   OH227667   3.102   7.165   3.478
 9245TIP3    H127668   3.078   7.088   3.529
 9245TIP3    H227669   3.117   7.132   3.389
 9246TIP3   OH227670   3.596   7.605   3.873
 9246TIP3    H127671   3.508   7.633   3.900
 9246TIP3    H227672   3.655   7.654   3.928
 9247TIP3   OH227673   3.352   7.932   3.037
 9247TIP3    H127674   3.282   7.869   3.019
 9247TIP3    H227675   3.333   7.966   3.125
 9248TIP3   OH227676   7.056   0.166   3.611
 9248TIP3    H127677   7.094   0.204   3.532
 9248TIP3    H227678   6.976   0.123   3.581
 9249TIP3   OH227679   3.772   7.286   2.841
 9249TIP3    H127680   3.681   7.280   2.812
 9249TIP3    H227681   3.785   7.378   2.860
 9250TIP3   OH227682   6.589   0.189   4.021
 9250TIP3    H127683   6.638   0.174   4.102
 9250TIP3    H227684   6.526   0.257   4.043
 9251TIP3   OH227685   3.866   7.525   2.945
 9251TIP3    H127686   3.960   7.534   2.961
 9251TIP3    H227687   3.842   7.606   2.900
 9252TIP3   OH227688   3.014   7.890   3.659
 9252TIP3    H127689   3.051   7.887   3.570
 9252TIP3    H227690   3.084   7.854   3.714
 9253TIP3   OH227691   6.251   0.095   2.840
 9253TIP3    H127692   6.260   0.171   2.897
 9253TIP3    H227693   6.225   0.024   2.898
 9254TIP3   OH227694   2.922   7.847   4.286
 9254TIP3    H127695   2.918   7.835   4.381
 9254TIP3    H227696   2.847   7.798   4.253
 9255TIP3   OH227697   3.648   7.981   4.303
 9255TIP3    H127698   3.584   7.926   4.258
 9255TIP3    H227699   3.733   7.955   4.267
 9256TIP3   OH227700   4.271   7.623   2.782
 9256TIP3    H127701   4.213   7.576   2.721
 9256TIP3    H227702   4.280   7.710   2.744
 9257TIP3   OH227703   7.358   0.401   3.850
 9257TIP3    H127704   7.294   0.470   3.830
 9257TIP3    H227705   7.391   0.373   3.765
 9258TIP3   OH227706   6.819   0.044   3.518
 9258TIP3    H127707   6.728   0.022   3.540
 9258TIP3    H227708   6.855  -0.036   3.479
 9259TIP3   OH227709   2.714   7.574   3.004
 9259TIP3    H127710   2.771   7.650   3.018
 9259TIP3    H227711   2.644   7.585   3.069
 9260TIP3   OH227712   6.126   0.028   3.278
 9260TIP3    H127713   6.067   0.102   3.266
 9260TIP3    H227714   6.078  -0.031   3.336
 9261TIP3   OH227715   6.643   0.219   3.747
 9261TIP3    H127716   6.621   0.214   3.840
 9261TIP3    H227717   6.732   0.186   3.740
 9262TIP3   OH227718   6.578   0.063   2.581
 9262TIP3    H127719   6.628   0.022   2.652
 9262TIP3    H227720   6.489   0.030   2.594
 9263TIP3   OH227721   3.108   7.415   4.273
 9263TIP3    H127722   3.013   7.425   4.280
 9263TIP3    H227723   3.132   7.365   4.351
 9264TIP3   OH227724   3.921   8.013   2.790
 9264TIP3    H127725   3.910   7.976   2.877
 9264TIP3    H227726   4.016   8.020   2.778
 9265TIP3   OH227727   5.958   0.052   2.759
 9265TIP3    H127728   5.885   0.023   2.706
 9265TIP3    H227729   6.014   0.102   2.698
 9266TIP3   OH227730   2.853   7.803   3.064
 9266TIP3    H127731   2.788   7.827   3.130
 9266TIP3    H227732   2.837   7.865   2.992
 9267TIP3   OH227733   3.960   7.463   3.959
 9267TIP3    H127734   4.035   7.513   3.992
 9267TIP3    H227735   3.951   7.390   4.021
 9268TIP3   OH227736   3.814   7.244   3.111
 9268TIP3    H127737   3.820   7.262   3.017
 9268TIP3    H227738   3.872   7.308   3.151
 9269TIP3   OH227739   3.541   7.363   3.229
 9269TIP3    H127740   3.588   7.444   3.207
 9269TIP3    H227741   3.524   7.371   3.323
 9270TIP3   OH227742   3.804   7.709   4.027
 9270TIP3    H127743   3.834   7.757   4.104
 9270TIP3    H227744   3.853   7.627   4.031
 9271TIP3   OH227745   3.677   7.138   3.355
 9271TIP3    H127746   3.643   7.204   3.415
 9271TIP3    H227747   3.766   7.121   3.386
 9272TIP3   OH227748   3.154   7.129   3.176
 9272TIP3    H127749   3.162   7.223   3.190
 9272TIP3    H227750   3.225   7.108   3.115
 9273TIP3   OH227751   4.413   7.600   4.010
 9273TIP3    H127752   4.318   7.607   4.020
 9273TIP3    H227753   4.425   7.553   3.928
 9274TIP3   OH227754   4.084   7.819   3.409
 9274TIP3    H127755   4.010   7.760   3.413
 9274TIP3    H227756   4.152   7.776   3.461
 9275TIP3   OH227757   2.768   7.979   2.866
 9275TIP3    H127758   2.809   8.066   2.866
 9275TIP3    H227759   2.824   7.926   2.810
 9276TIP3   OH227760   2.733   7.302   3.021
 9276TIP3    H127761   2.745   7.397   3.027
 9276TIP3    H227762   2.683   7.289   2.940
 9277TIP3   OH227763   3.125   7.042   3.874
 9277TIP3    H127764   3.095   7.009   3.789
 9277TIP3    H227765   3.115   6.967   3.933
 9278TIP3   OH227766   5.789   0.132   4.560
 9278TIP3    H127767   5.832   0.048   4.547
 9278TIP3    H227768   5.720   0.134   4.494
 9279TIP3   OH227769   2.946   7.779   2.783
 9279TIP3    H127770   2.996   7.766   2.864
 9279TIP3    H227771   3.013   7.781   2.714
 9280TIP3   OH227772   6.391   0.215   4.359
 9280TIP3    H127773   6.354   0.245   4.276
 9280TIP3    H227774   6.426   0.128   4.340
 9281TIP3   OH227775   3.477   8.012   2.592
 9281TIP3    H127776   3.460   8.065   2.669
 9281TIP3    H227777   3.429   7.930   2.608
 9282TIP3   OH227778   6.875   0.242   3.932
 9282TIP3    H127779   6.920   0.319   3.966
 9282TIP3    H227780   6.787   0.248   3.969
 9283TIP3   OH227781   3.108   7.917   4.539
 9283TIP3    H127782   3.190   7.892   4.496
 9283TIP3    H227783   3.135   7.951   4.624
 9284TIP3   OH227784   3.148   7.755   2.987
 9284TIP3    H127785   3.116   7.704   3.061
 9284TIP3    H227786   3.188   7.691   2.929
 9285TIP3   OH227787   3.424   7.841   4.188
 9285TIP3    H127788   3.341   7.889   4.192
 9285TIP3    H227789   3.466   7.873   4.108
 9286TIP3   OH227790   3.249   7.566   2.805
 9286TIP3    H127791   3.220   7.548   2.716
 9286TIP3    H227792   3.343   7.584   2.797
 9287TIP3   OH227793   6.752   0.169   4.272
 9287TIP3    H127794   6.847   0.164   4.285
 9287TIP3    H227795   6.716   0.159   4.360
 9288TIP3   OH227796   4.047   7.884   2.466
 9288TIP3    H127797   4.033   7.840   2.382
 9288TIP3    H227798   4.027   7.976   2.448
 9289TIP3   OH227799   3.535   7.622   4.306
 9289TIP3    H127800   3.540   7.549   4.244
 9289TIP3    H227801   3.496   7.694   4.256
 9290TIP3   OH227802   3.541   7.425   4.101
 9290TIP3    H127803   3.568   7.465   4.018
 9290TIP3    H227804   3.449   7.401   4.087
 9291TIP3   OH227805   3.581   7.943   3.991
 9291TIP3    H127806   3.662   7.994   3.985
 9291TIP3    H227807   3.518   7.990   3.937
 9292TIP3   OH227808   4.162   7.895   4.371
 9292TIP3    H127809   4.202   7.808   4.373
 9292TIP3    H227810   4.235   7.955   4.377
 9293TIP3   OH227811   7.030   0.089   4.094
 9293TIP3    H127812   6.966   0.142   4.047
 9293TIP3    H227813   7.114   0.127   4.070
 9294TIP3   OH227814   3.406   7.717   4.539
 9294TIP3    H127815   3.342   7.649   4.561
 9294TIP3    H227816   3.441   7.691   4.454
 9295TIP3   OH227817   3.661   7.192   4.198
 9295TIP3    H127818   3.621   7.273   4.166
 9295TIP3    H227819   3.594   7.125   4.185
 9296TIP3   OH227820   3.795   7.668   4.402
 9296TIP3    H127821   3.788   7.662   4.497
 9296TIP3    H227822   3.708   7.647   4.369
 9297TIP3   OH227823   4.032   7.604   4.264
 9297TIP3    H127824   3.956   7.612   4.321
 9297TIP3    H227825   4.106   7.593   4.324
 9298TIP3   OH227826   4.272   7.593   4.413
 9298TIP3    H127827   4.287   7.499   4.417
 9298TIP3    H227828   4.267   7.621   4.505
 9299TIP3   OH227829   3.251   7.493   4.604
 9299TIP3    H127830   3.257   7.404   4.570
 9299TIP3    H227831   3.287   7.487   4.692
 9300TIP3   OH227832   3.731   7.176   4.463
 9300TIP3    H127833   3.802   7.111   4.457
 9300TIP3    H227834   3.700   7.185   4.373
 9301TIP3   OH227835   3.819   7.392   4.610
 9301TIP3    H127836   3.791   7.320   4.553
 9301TIP3    H227837   3.746   7.454   4.608
 9302TIP3   OH227838   2.520   7.914   2.965
 9302TIP3    H127839   2.600   7.960   2.937
 9302TIP3    H227840   2.515   7.838   2.908
 9303TIP3   OH227841   7.209   0.631   4.110
 9303TIP3    H127842   7.184   0.687   4.183
 9303TIP3    H227843   7.300   0.655   4.092
 9304TIP3   OH227844   7.025   0.040   2.796
 9304TIP3    H127845   7.029   0.135   2.794
 9304TIP3    H227846   7.076   0.016   2.874
 9305TIP3   OH227847   4.346   7.947   2.997
 9305TIP3    H127848   4.283   7.908   3.057
 9305TIP3    H227849   4.412   7.987   3.054
 9306TIP3   OH227850   7.223   0.287   3.425
 9306TIP3    H127851   7.280   0.219   3.388
 9306TIP3    H227852   7.233   0.361   3.365
 9307TIP3   OH227853   4.266   7.854   2.630
 9307TIP3    H127854   4.192   7.854   2.569
 9307TIP3    H227855   4.247   7.926   2.690
 9308TIP3   OH227856   4.116   7.516   2.584
 9308TIP3    H127857   4.061   7.555   2.516
 9308TIP3    H227858   4.111   7.422   2.568
 9309TIP3   OH227859   4.157   7.802   3.143
 9309TIP3    H127860   4.168   7.708   3.134
 9309TIP3    H227861   4.140   7.816   3.236
 9310TIP3   OH227862   2.772   7.855   3.897
 9310TIP3    H127863   2.761   7.814   3.811
 9310TIP3    H227864   2.866   7.849   3.914
 9311TIP3   OH227865   7.260   0.205   4.011
 9311TIP3    H127866   7.324   0.135   3.994
 9311TIP3    H227867   7.285   0.275   3.950
 9312TIP3   OH227868   4.609   8.020   4.008
 9312TIP3    H127869   4.535   7.969   4.042
 9312TIP3    H227870   4.685   7.962   4.019
 9313TIP3   OH227871   4.084   7.245   2.538
 9313TIP3    H127872   4.148   7.222   2.606
 9313TIP3    H227873   4.003   7.203   2.567
 9314TIP3   OH227874   4.144   7.527   3.020
 9314TIP3    H127875   4.188   7.443   3.033
 9314TIP3    H227876   4.190   7.567   2.946
 9315TIP3   OH227877   4.292   7.684   3.536
 9315TIP3    H127878   4.374   7.703   3.490
 9315TIP3    H227879   4.305   7.722   3.623
 9316TIP3   OH227880   4.360   7.823   3.767
 9316TIP3    H127881   4.287   7.849   3.823
 9316TIP3    H227882   4.397   7.906   3.736
 9317TIP3   OH227883   2.987   7.548   4.547
 9317TIP3    H127884   3.081   7.545   4.563
 9317TIP3    H227885   2.954   7.467   4.586
 9318TIP3   OH227886   4.814   7.454   4.321
 9318TIP3    H127887   4.885   7.394   4.297
 9318TIP3    H227888   4.791   7.496   4.238
 9319TIP3   OH227889   4.250   7.274   3.069
 9319TIP3    H127890   4.298   7.260   3.151
 9319TIP3    H227891   4.187   7.202   3.065
 9320TIP3   OH227892   2.958   7.264   3.895
 9320TIP3    H127893   3.012   7.185   3.901
 9320TIP3    H227894   3.020   7.335   3.881
 9321TIP3   OH227895   2.743   7.523   3.957
 9321TIP3    H127896   2.794   7.518   3.877
 9321TIP3    H227897   2.773   7.603   4.000
 9322TIP3   OH227898   4.682   7.575   4.116
 9322TIP3    H127899   4.615   7.617   4.170
 9322TIP3    H227900   4.634   7.512   4.062
 9323TIP3   OH227901   4.302   7.199   2.705
 9323TIP3    H127902   4.350   7.135   2.653
 9323TIP3    H227903   4.361   7.274   2.712
 9324TIP3   OH227904   2.730   7.026   3.466
 9324TIP3    H127905   2.644   7.018   3.506
 9324TIP3    H227906   2.715   7.083   3.390
 9325TIP3   OH227907   2.949   7.093   4.279
 9325TIP3    H127908   2.901   7.090   4.362
 9325TIP3    H227909   2.894   7.144   4.221
 9326TIP3   OH227910   4.586   7.320   4.003
 9326TIP3    H127911   4.499   7.313   3.963
 9326TIP3    H227912   4.623   7.232   3.997
 9327TIP3   OH227913   3.788   7.238   3.634
 9327TIP3    H127914   3.748   7.172   3.690
 9327TIP3    H227915   3.852   7.190   3.582
 9328TIP3   OH227916   4.289   7.137   3.504
 9328TIP3    H127917   4.341   7.179   3.435
 9328TIP3    H227918   4.228   7.205   3.533
 9329TIP3   OH227919   4.417   7.231   3.285
 9329TIP3    H127920   4.487   7.171   3.258
 9329TIP3    H227921   4.455   7.318   3.272
 9330TIP3   OH227922   3.038   6.939   3.631
 9330TIP3    H127923   2.948   6.908   3.641
 9330TIP3    H227924   3.091   6.860   3.626
 9331TIP3   OH227925   2.843   6.836   3.288
 9331TIP3    H127926   2.869   6.887   3.212
 9331TIP3    H227927   2.811   6.900   3.351
 9332TIP3   OH227928   3.516   6.967   3.528
 9332TIP3    H127929   3.562   7.017   3.461
 9332TIP3    H227930   3.550   7.001   3.611
 9333TIP3   OH227931   3.958   7.091   3.476
 9333TIP3    H127932   4.031   7.082   3.415
 9333TIP3    H227933   3.975   7.026   3.544
 9334TIP3   OH227934   4.053   7.067   3.070
 9334TIP3    H127935   3.968   7.110   3.078
 9334TIP3    H227936   4.040   6.980   3.106
 9335TIP3   OH227937   2.949   6.972   3.060
 9335TIP3    H127938   2.999   6.917   3.000
 9335TIP3    H227939   3.013   7.029   3.102
 9336TIP3   OH227940   3.259   7.222   4.518
 9336TIP3    H127941   3.224   7.155   4.578
 9336TIP3    H227942   3.352   7.229   4.543
 9337TIP3   OH227943   3.508   7.228   4.640
 9337TIP3    H127944   3.587   7.206   4.591
 9337TIP3    H227945   3.501   7.159   4.706
 9338TIP3   OH227946   4.333   7.321   4.430
 9338TIP3    H127947   4.350   7.291   4.519
 9338TIP3    H227948   4.418   7.315   4.386
 9339TIP3   OH227949   8.358   0.202   2.690
 9339TIP3    H127950   8.329   0.290   2.665
 9339TIP3    H227951   8.289   0.144   2.660
 9340TIP3   OH227952   8.364   0.203   3.091
 9340TIP3    H127953   8.411   0.189   3.173
 9340TIP3    H227954   8.320   0.119   3.073
 9341TIP3   OH227955   7.655   0.090   3.457
 9341TIP3    H127956   7.692   0.025   3.517
 9341TIP3    H227957   7.717   0.163   3.460
 9342TIP3   OH227958   0.127   0.486   2.764
 9342TIP3    H127959   0.121   0.415   2.828
 9342TIP3    H227960   0.072   0.556   2.800
 9343TIP3   OH227961   7.765   0.401   3.199
 9343TIP3    H127962   7.733   0.320   3.158
 9343TIP3    H227963   7.823   0.440   3.133
 9344TIP3   OH227964   4.503   7.723   2.919
 9344TIP3    H127965   4.465   7.806   2.946
 9344TIP3    H227966   4.429   7.674   2.882
 9345TIP3   OH227967   4.576   8.015   3.136
 9345TIP3    H127968   4.621   7.934   3.162
 9345TIP3    H227969   4.648   8.076   3.115
 9346TIP3   OH227970   8.198   0.431   3.100
 9346TIP3    H127971   8.239   0.349   3.073
 9346TIP3    H227972   8.269   0.483   3.137
 9347TIP3   OH227973   6.359   7.767   3.112
 9347TIP3    H127974   6.373   7.854   3.148
 9347TIP3    H227975   6.392   7.773   3.022
 9348TIP3   OH227976   5.745   7.938   3.140
 9348TIP3    H127977   5.781   7.853   3.167
 9348TIP3    H227978   5.708   7.921   3.053
 9349TIP3   OH227979   5.096   7.598   3.103
 9349TIP3    H127980   5.075   7.671   3.043
 9349TIP3    H227981   5.041   7.526   3.072
 9350TIP3   OH227982   5.790   7.697   2.730
 9350TIP3    H127983   5.854   7.689   2.801
 9350TIP3    H227984   5.841   7.729   2.656
 9351TIP3   OH227985   4.717   7.799   3.227
 9351TIP3    H127986   4.801   7.786   3.273
 9351TIP3    H227987   4.726   7.750   3.146
 9352TIP3   OH227988   5.159   8.006   3.015
 9352TIP3    H127989   5.251   7.986   3.030
 9352TIP3    H227990   5.121   7.923   2.988
 9353TIP3   OH227991   6.408   7.988   3.286
 9353TIP3    H127992   6.321   8.024   3.269
 9353TIP3    H227993   6.418   7.991   3.381
 9354TIP3   OH227994   5.076   7.597   3.550
 9354TIP3    H127995   5.025   7.634   3.478
 9354TIP3    H227996   5.022   7.611   3.628
 9355TIP3   OH227997   8.265   0.421   2.550
 9355TIP3    H127998   8.231   0.406   2.462
 9355TIP3    H227999   8.345   0.472   2.536
 9356TIP3   OH228000   8.046   0.329   3.307
 9356TIP3    H128001   7.990   0.396   3.347
 9356TIP3    H228002   8.092   0.375   3.237
 9357TIP3   OH228003   5.950   7.718   2.950
 9357TIP3    H128004   5.913   7.694   3.034
 9357TIP3    H228005   6.009   7.791   2.969
 9358TIP3   OH228006   4.964   7.707   3.322
 9358TIP3    H128007   5.018   7.782   3.347
 9358TIP3    H228008   5.012   7.665   3.252
 9359TIP3   OH228009   7.888   0.520   3.438
 9359TIP3    H128010   7.840   0.538   3.357
 9359TIP3    H228011   7.823   0.478   3.495
 9360TIP3   OH228012   7.327   0.259   2.674
 9360TIP3    H128013   7.269   0.240   2.600
 9360TIP3    H228014   7.280   0.226   2.751
 9361TIP3   OH228015   6.157   7.669   3.285
 9361TIP3    H128016   6.071   7.687   3.247
 9361TIP3    H228017   6.219   7.692   3.216
 9362TIP3   OH228018   5.418   7.292   3.277
 9362TIP3    H128019   5.411   7.200   3.303
 9362TIP3    H228020   5.342   7.334   3.318
 9363TIP3   OH228021   0.013   0.525   2.508
 9363TIP3    H128022   0.048   0.472   2.436
 9363TIP3    H228023   0.071   0.506   2.582
 9364TIP3   OH228024   0.368   0.674   3.248
 9364TIP3    H128025   0.362   0.587   3.208
 9364TIP3    H228026   0.382   0.733   3.175
 9365TIP3   OH228027   8.185   0.052   2.532
 9365TIP3    H128028   8.105   0.101   2.514
 9365TIP3    H228029   8.232   0.050   2.449
 9366TIP3   OH228030   5.326   7.875   2.218
 9366TIP3    H128031   5.390   7.925   2.270
 9366TIP3    H228032   5.378   7.811   2.170
 9367TIP3   OH228033   0.570   0.305   3.107
 9367TIP3    H128034   0.488   0.354   3.112
 9367TIP3    H228035   0.602   0.321   3.018
 9368TIP3   OH228036   0.043   0.132   2.501
 9368TIP3    H128037  -0.010   0.158   2.575
 9368TIP3    H228038   0.127   0.105   2.539
 9369TIP3   OH228039   0.273   0.174   3.424
 9369TIP3    H128040   0.272   0.256   3.474
 9369TIP3    H228041   0.190   0.173   3.377
 9370TIP3   OH228042   7.783   0.121   2.887
 9370TIP3    H128043   7.749   0.059   2.823
 9370TIP3    H228044   7.863   0.080   2.921
 9371TIP3   OH228045   7.945   0.513   3.024
 9371TIP3    H128046   7.960   0.593   2.974
 9371TIP3    H228047   8.033   0.483   3.048
 9372TIP3   OH228048   7.893   0.109   3.243
 9372TIP3    H128049   7.935   0.075   3.164
 9372TIP3    H228050   7.943   0.187   3.265
 9373TIP3   OH228051   8.121   0.612   3.569
 9373TIP3    H128052   8.078   0.690   3.605
 9373TIP3    H228053   8.053   0.570   3.516
 9374TIP3   OH228054   8.371   0.008   2.327
 9374TIP3    H128055   8.433   0.059   2.380
 9374TIP3    H228056   8.402   0.019   2.237
 9375TIP3   OH228057   7.812   0.206   3.706
 9375TIP3    H128058   7.822   0.290   3.751
 9375TIP3    H228059   7.722   0.180   3.723
 9376TIP3   OH228060   6.056   7.251   2.374
 9376TIP3    H128061   5.979   7.274   2.426
 9376TIP3    H228062   6.069   7.327   2.317
 9377TIP3   OH228063   4.832   7.967   2.697
 9377TIP3    H128064   4.758   8.005   2.650
 9377TIP3    H228065   4.802   7.880   2.723
 9378TIP3   OH228066   7.447   0.309   3.612
 9378TIP3    H128067   7.392   0.294   3.535
 9378TIP3    H228068   7.477   0.222   3.637
 9379TIP3   OH228069   0.526   0.134   3.586
 9379TIP3    H128070   0.444   0.144   3.539
 9379TIP3    H228071   0.543   0.040   3.584
 9380TIP3   OH228072   7.669   0.461   3.585
 9380TIP3    H128073   7.639   0.528   3.647
 9380TIP3    H228074   7.597   0.398   3.581
 9381TIP3   OH228075   5.181   7.384   3.404
 9381TIP3    H128076   5.097   7.351   3.373
 9381TIP3    H228077   5.160   7.464   3.452
 9382TIP3   OH228078   5.721   7.505   3.603
 9382TIP3    H128079   5.789   7.480   3.665
 9382TIP3    H228080   5.639   7.488   3.650
 9383TIP3   OH228081   5.950   7.930   3.527
 9383TIP3    H128082   5.905   7.925   3.611
 9383TIP3    H228083   5.930   8.017   3.494
 9384TIP3   OH228084   8.460   0.021   2.074
 9384TIP3    H128085   8.416   0.003   1.991
 9384TIP3    H228086   8.538   0.071   2.049
 9385TIP3   OH228087   5.326   7.432   2.371
 9385TIP3    H128088   5.294   7.437   2.460
 9385TIP3    H228089   5.292   7.349   2.338
 9386TIP3   OH228090   5.118   7.916   3.414
 9386TIP3    H128091   5.071   7.926   3.497
 9386TIP3    H228092   5.094   7.993   3.363
 9387TIP3   OH228093   5.004   7.792   2.933
 9387TIP3    H128094   4.915   7.769   2.959
 9387TIP3    H228095   5.012   7.757   2.844
 9388TIP3   OH228096   5.484   7.863   2.662
 9388TIP3    H128097   5.435   7.934   2.621
 9388TIP3    H228098   5.544   7.832   2.594
 9389TIP3   OH228099   0.003   0.117   3.731
 9389TIP3    H128100  -0.025   0.052   3.795
 9389TIP3    H228101   0.095   0.133   3.750
 9390TIP3   OH228102   5.652   7.885   2.887
 9390TIP3    H128103   5.583   7.908   2.825
 9390TIP3    H228104   5.697   7.811   2.846
 9391TIP3   OH228105   4.952   7.926   3.632
 9391TIP3    H128106   4.959   7.989   3.703
 9391TIP3    H228107   4.934   7.842   3.676
 9392TIP3   OH228108   4.991   7.409   2.345
 9392TIP3    H128109   4.984   7.411   2.440
 9392TIP3    H228110   4.914   7.457   2.314
 9393TIP3   OH228111   4.546   7.455   3.210
 9393TIP3    H128112   4.615   7.489   3.266
 9393TIP3    H228113   4.590   7.432   3.128
 9394TIP3   OH228114   4.462   7.427   2.724
 9394TIP3    H128115   4.507   7.460   2.647
 9394TIP3    H228116   4.401   7.497   2.748
 9395TIP3   OH228117   0.016   0.122   3.313
 9395TIP3    H128118   0.045   0.058   3.248
 9395TIP3    H228119  -0.020   0.070   3.384
 9396TIP3   OH228120   5.362   7.589   2.988
 9396TIP3    H128121   5.286   7.588   3.045
 9396TIP3    H228122   5.437   7.579   3.047
 9397TIP3   OH228123   4.764   7.670   2.991
 9397TIP3    H128124   4.675   7.673   2.957
 9397TIP3    H228125   4.792   7.579   2.977
 9398TIP3   OH228126   5.013   7.669   2.688
 9398TIP3    H128127   5.107   7.681   2.677
 9398TIP3    H228128   4.977   7.688   2.601
 9399TIP3   OH228129   5.820   7.675   3.196
 9399TIP3    H128130   5.800   7.692   3.288
 9399TIP3    H228131   5.753   7.613   3.167
 9400TIP3   OH228132   4.893   7.697   2.442
 9400TIP3    H128133   4.828   7.650   2.390
 9400TIP3    H228134   4.951   7.738   2.378
 9401TIP3   OH228135   7.820   0.443   3.868
 9401TIP3    H128136   7.887   0.467   3.931
 9401TIP3    H228137   7.740   0.434   3.920
 9402TIP3   OH228138   5.420   7.949   3.092
 9402TIP3    H128139   5.488   7.896   3.049
 9402TIP3    H228140   5.414   7.912   3.180
 9403TIP3   OH228141   4.907   7.422   2.983
 9403TIP3    H128142   4.878   7.347   3.034
 9403TIP3    H228143   4.943   7.384   2.903
 9404TIP3   OH228144   5.385   7.861   3.358
 9404TIP3    H128145   5.298   7.892   3.383
 9404TIP3    H228146   5.445   7.912   3.413
 9405TIP3   OH228147   7.955   0.199   2.478
 9405TIP3    H128148   7.882   0.142   2.452
 9405TIP3    H228149   7.923   0.244   2.556
 9406TIP3   OH228150   0.336   0.449   3.085
 9406TIP3    H128151   0.371   0.492   3.007
 9406TIP3    H228152   0.257   0.404   3.054
 9407TIP3   OH228153   5.583   7.527   2.374
 9407TIP3    H128154   5.489   7.509   2.369
 9407TIP3    H228155   5.589   7.622   2.385
 9408TIP3   OH228156   8.388   0.556   3.499
 9408TIP3    H128157   8.424   0.526   3.583
 9408TIP3    H228158   8.298   0.580   3.519
 9409TIP3   OH228159   5.648   7.789   2.444
 9409TIP3    H128160   5.743   7.793   2.453
 9409TIP3    H228161   5.625   7.865   2.391
 9410TIP3   OH228162   7.644   0.152   3.123
 9410TIP3    H128163   7.683   0.144   3.036
 9410TIP3    H228164   7.711   0.120   3.183
 9411TIP3   OH228165   8.099   0.370   2.320
 9411TIP3    H128166   8.054   0.453   2.337
 9411TIP3    H228167   8.052   0.306   2.373
 9412TIP3   OH228168   7.560   0.105   3.771
 9412TIP3    H128169   7.569   0.102   3.866
 9412TIP3    H228170   7.479   0.056   3.753
 9413TIP3   OH228171   8.267   0.260   3.783
 9413TIP3    H128172   8.197   0.202   3.753
 9413TIP3    H228173   8.347   0.221   3.748
 9414TIP3   OH228174   6.059   7.878   2.264
 9414TIP3    H128175   6.002   7.829   2.205
 9414TIP3    H228176   6.064   7.966   2.226
 9415TIP3   OH228177   0.647   0.686   3.360
 9415TIP3    H128178   0.563   0.732   3.366
 9415TIP3    H228179   0.665   0.679   3.267
 9416TIP3   OH228180   0.113   0.307   2.981
 9416TIP3    H128181   0.024   0.286   3.009
 9416TIP3    H228182   0.148   0.224   2.947
 9417TIP3   OH228183   4.495   7.841   2.479
 9417TIP3    H128184   4.548   7.918   2.502
 9417TIP3    H228185   4.418   7.848   2.536
 9418TIP3   OH228186   7.855   0.318   2.705
 9418TIP3    H128187   7.885   0.392   2.758
 9418TIP3    H228188   7.824   0.254   2.769
 9419TIP3   OH228189   8.423   0.520   3.227
 9419TIP3    H128190   8.406   0.534   3.320
 9419TIP3    H228191   8.512   0.484   3.224
 9420TIP3   OH228192   8.417   0.378   2.078
 9420TIP3    H128193   8.466   0.363   2.159
 9420TIP3    H228194   8.325   0.375   2.105
 9421TIP3   OH228195   4.904   7.675   3.755
 9421TIP3    H128196   4.809   7.682   3.764
 9421TIP3    H228197   4.933   7.634   3.837
 9422TIP3   OH228198   0.062   0.328   2.309
 9422TIP3    H128199   0.051   0.258   2.373
 9422TIP3    H228200   0.156   0.328   2.290
 9423TIP3   OH228201   7.733   0.328   2.154
 9423TIP3    H128202   7.734   0.237   2.123
 9423TIP3    H228203   7.821   0.361   2.135
 9424TIP3   OH228204   7.464   0.061   2.542
 9424TIP3    H128205   7.432   0.135   2.593
 9424TIP3    H228206   7.481   0.098   2.455
 9425TIP3   OH228207   5.760   7.736   3.457
 9425TIP3    H128208   5.836   7.779   3.494
 9425TIP3    H228209   5.746   7.659   3.512
 9426TIP3   OH228210   5.641   7.479   2.642
 9426TIP3    H128211   5.621   7.497   2.550
 9426TIP3    H228212   5.685   7.559   2.673
 9427TIP3   OH228213   5.292   7.679   2.734
 9427TIP3    H128214   5.357   7.744   2.707
 9427TIP3    H228215   5.315   7.659   2.825
 9428TIP3   OH228216   5.596   7.968   3.509
 9428TIP3    H128217   5.619   8.011   3.592
 9428TIP3    H228218   5.646   7.886   3.510
 9429TIP3   OH228219   5.456   7.378   2.821
 9429TIP3    H128220   5.435   7.455   2.874
 9429TIP3    H228221   5.526   7.408   2.763
 9430TIP3   OH228222   4.970   7.398   2.623
 9430TIP3    H128223   4.959   7.487   2.655
 9430TIP3    H228224   5.064   7.381   2.629
 9431TIP3   OH228225   6.210   7.868   3.490
 9431TIP3    H128226   6.118   7.884   3.508
 9431TIP3    H228227   6.211   7.804   3.419
 9432TIP3   OH228228   0.206   0.057   2.891
 9432TIP3    H128229   0.130   0.000   2.900
 9432TIP3    H228230   0.273   0.015   2.945
 9433TIP3   OH228231   7.446   0.306   2.339
 9433TIP3    H128232   7.523   0.345   2.381
 9433TIP3    H228233   7.482   0.239   2.281
 9434TIP3   OH228234   4.522   7.566   2.497
 9434TIP3    H128235   4.537   7.661   2.499
 9434TIP3    H228236   4.453   7.554   2.432
 9435TIP3   OH228237   4.918   7.298   3.366
 9435TIP3    H128238   4.890   7.264   3.281
 9435TIP3    H228239   4.911   7.224   3.425
 9436TIP3   OH228240   7.578   0.410   4.012
 9436TIP3    H128241   7.619   0.325   4.025
 9436TIP3    H228242   7.502   0.391   3.958
 9437TIP3   OH228243   7.563   0.073   2.249
 9437TIP3    H128244   7.623   0.046   2.319
 9437TIP3    H228245   7.618   0.075   2.170
 9438TIP3   OH228246   8.210   0.531   3.819
 9438TIP3    H128247   8.182   0.554   3.730
 9438TIP3    H228248   8.242   0.441   3.811
 9439TIP3   OH228249   8.002   0.286   2.070
 9439TIP3    H128250   8.052   0.309   2.149
 9439TIP3    H228251   8.038   0.202   2.042
 9440TIP3   OH228252   0.168   0.560   3.409
 9440TIP3    H128253   0.225   0.621   3.362
 9440TIP3    H228254   0.087   0.610   3.424
 9441TIP3   OH228255   7.714   0.173   4.035
 9441TIP3    H128256   7.775   0.100   4.029
 9441TIP3    H228257   7.723   0.204   4.126
 9442TIP3   OH228258   4.925   8.022   2.431
 9442TIP3    H128259   4.911   7.985   2.519
 9442TIP3    H228260   4.972   7.953   2.384
 9443TIP3   OH228261   8.063   0.091   3.679
 9443TIP3    H128262   7.978   0.134   3.682
 9443TIP3    H228263   8.101   0.118   3.595
 9444TIP3   OH228264   5.054   7.836   2.268
 9444TIP3    H128265   5.025   7.832   2.177
 9444TIP3    H228266   5.149   7.845   2.264
 9445TIP3   OH228267   0.047   0.466   3.764
 9445TIP3    H128268   0.126   0.435   3.720
 9445TIP3    H228269   0.037   0.408   3.840
 9446TIP3   OH228270   0.177   0.141   1.949
 9446TIP3    H128271   0.157   0.091   1.869
 9446TIP3    H228272   0.162   0.232   1.925
 9447TIP3   OH228273   5.335   7.877   3.784
 9447TIP3    H128274   5.335   7.805   3.720
 9447TIP3    H228275   5.297   7.951   3.738
 9448TIP3   OH228276   5.336   7.680   3.581
 9448TIP3    H128277   5.361   7.720   3.497
 9448TIP3    H228278   5.245   7.655   3.569
 9449TIP3   OH228279   8.204   0.175   3.464
 9449TIP3    H128280   8.294   0.194   3.440
 9449TIP3    H228281   8.151   0.231   3.406
 9450TIP3   OH228282   0.269   0.148   3.831
 9450TIP3    H128283   0.312   0.063   3.839
 9450TIP3    H228284   0.341   0.209   3.816
 9451TIP3   OH228285   0.306   0.405   3.577
 9451TIP3    H128286   0.249   0.462   3.525
 9451TIP3    H228287   0.393   0.417   3.539
 9452TIP3   OH228288   5.221   7.974   4.023
 9452TIP3    H128289   5.144   7.921   4.045
 9452TIP3    H228290   5.247   7.943   3.936
 9453TIP3   OH228291   5.457   7.449   3.683
 9453TIP3    H128292   5.416   7.529   3.650
 9453TIP3    H228293   5.391   7.381   3.672
 9454TIP3   OH228294   5.584   7.926   3.892
 9454TIP3    H128295   5.571   7.916   3.986
 9454TIP3    H228296   5.500   7.903   3.853
 9455TIP3   OH228297   5.826   7.875   3.760
 9455TIP3    H128298   5.748   7.876   3.815
 9455TIP3    H228299   5.896   7.849   3.819
 9456TIP3   OH228300   6.064   7.841   3.906
 9456TIP3    H128301   6.078   7.747   3.912
 9456TIP3    H228302   6.060   7.871   3.997
 9457TIP3   OH228303   5.045   7.753   4.065
 9457TIP3    H128304   5.051   7.661   4.039
 9457TIP3    H228305   5.090   7.757   4.150
 9458TIP3   OH228306   5.532   7.432   3.948
 9458TIP3    H128307   5.600   7.365   3.939
 9458TIP3    H228308   5.497   7.442   3.859
 9459TIP3   OH228309   5.617   7.647   4.096
 9459TIP3    H128310   5.587   7.576   4.040
 9459TIP3    H228311   5.545   7.710   4.097
 9460TIP3   OH228312   7.192   0.215   2.437
 9460TIP3    H128313   7.268   0.253   2.392
 9460TIP3    H228314   7.170   0.138   2.385
 9461TIP3   OH228315   0.535   0.838   3.627
 9461TIP3    H128316   0.453   0.838   3.678
 9461TIP3    H228317   0.568   0.927   3.635
 9462TIP3   OH228318   0.334   0.317   2.291
 9462TIP3    H128319   0.395   0.379   2.252
 9462TIP3    H228320   0.381   0.279   2.365
 9463TIP3   OH228321   0.465   0.186   2.492
 9463TIP3    H128322   0.399   0.142   2.546
 9463TIP3    H228323   0.530   0.216   2.554
 9464TIP3   OH228324   0.506   0.571   2.901
 9464TIP3    H128325   0.565   0.503   2.871
 9464TIP3    H228326   0.488   0.625   2.824
 9465TIP3   OH228327   0.383   0.103   2.126
 9465TIP3    H128328   0.314   0.106   2.060
 9465TIP3    H228329   0.364   0.177   2.184
 9466TIP3   OH228330   5.902   7.764   2.074
 9466TIP3    H128331   5.861   7.805   1.998
 9466TIP3    H228332   5.896   7.670   2.057
 9467TIP3   OH228333   0.273   0.040   2.625
 9467TIP3    H128334   0.280  -0.054   2.610
 9467TIP3    H228335   0.256   0.048   2.719
 9468TIP3   OH228336   7.390   0.057   3.405
 9468TIP3    H128337   7.380   0.041   3.311
 9468TIP3    H228338   7.484   0.075   3.416
 9469TIP3   OH228339   0.549   0.451   3.460
 9469TIP3    H128340   0.621   0.389   3.453
 9469TIP3    H228341   0.578   0.528   3.412
 9470TIP3   OH228342   0.744   0.261   3.475
 9470TIP3    H128343   0.668   0.218   3.515
 9470TIP3    H228344   0.818   0.206   3.499
 9471TIP3   OH228345   5.876   7.491   2.032
 9471TIP3    H128346   5.941   7.470   2.099
 9471TIP3    H228347   5.794   7.456   2.066
 9472TIP3   OH228348   5.936   7.786   2.504
 9472TIP3    H128349   5.982   7.703   2.517
 9472TIP3    H228350   5.978   7.824   2.427
 9473TIP3   OH228351   6.086   7.948   3.025
 9473TIP3    H128352   6.168   7.967   2.979
 9473TIP3    H228353   6.098   7.987   3.112
 9474TIP3   OH228354   0.487   0.085   3.250
 9474TIP3    H128355   0.414   0.115   3.306
 9474TIP3    H228356   0.515   0.164   3.204
 9475TIP3   OH228357   4.782   7.810   4.019
 9475TIP3    H128358   4.877   7.811   4.036
 9475TIP3    H228359   4.751   7.730   4.062
 9476TIP3   OH228360   6.625   7.700   3.793
 9476TIP3    H128361   6.689   7.641   3.752
 9476TIP3    H228362   6.589   7.751   3.720
 9477TIP3   OH228363   6.048   7.537   2.557
 9477TIP3    H128364   6.093   7.522   2.640
 9477TIP3    H228365   5.986   7.464   2.549
 9478TIP3   OH228366   4.752   7.521   3.383
 9478TIP3    H128367   4.807   7.443   3.390
 9478TIP3    H228368   4.815   7.592   3.370
 9479TIP3   OH228369   4.532   7.778   3.438
 9479TIP3    H128370   4.589   7.763   3.363
 9479TIP3    H228371   4.546   7.870   3.460
 9480TIP3   OH228372   6.474   7.823   3.600
 9480TIP3    H128373   6.397   7.863   3.640
 9480TIP3    H228374   6.440   7.753   3.545
 9481TIP3   OH228375   6.104   7.448   2.187
 9481TIP3    H128376   6.155   7.386   2.134
 9481TIP3    H228377   6.160   7.526   2.193
 9482TIP3   OH228378   4.524   7.285   2.948
 9482TIP3    H128379   4.438   7.276   2.988
 9482TIP3    H228380   4.510   7.344   2.873
 9483TIP3   OH228381   4.746   7.353   3.769
 9483TIP3    H128382   4.701   7.354   3.853
 9483TIP3    H228383   4.689   7.402   3.710
 9484TIP3   OH228384   6.382   7.570   3.492
 9484TIP3    H128385   6.293   7.558   3.458
 9484TIP3    H228386   6.423   7.484   3.484
 9485TIP3   OH228387   5.593   7.496   3.121
 9485TIP3    H128388   5.554   7.423   3.171
 9485TIP3    H228389   5.662   7.455   3.069
 9486TIP3   OH228390   6.096   7.410   3.019
 9486TIP3    H128391   6.132   7.457   2.944
 9486TIP3    H228392   6.002   7.429   3.016
 9487TIP3   OH228393   6.205   7.486   2.780
 9487TIP3    H128394   6.274   7.427   2.750
 9487TIP3    H228395   6.242   7.574   2.766
 9488TIP3   OH228396   4.831   7.195   3.123
 9488TIP3    H128397   4.742   7.161   3.132
 9488TIP3    H228398   4.886   7.117   3.118
 9489TIP3   OH228399   4.635   7.093   2.769
 9489TIP3    H128400   4.668   7.145   2.696
 9489TIP3    H228401   4.606   7.157   2.833
 9490TIP3   OH228402   5.303   7.239   3.017
 9490TIP3    H128403   5.354   7.284   2.949
 9490TIP3    H228404   5.345   7.264   3.099
 9491TIP3   OH228405   5.810   7.380   2.992
 9491TIP3    H128406   5.828   7.344   2.905
 9491TIP3    H228407   5.812   7.304   3.050
 9492TIP3   OH228408   5.862   7.328   2.558
 9492TIP3    H128409   5.782   7.374   2.582
 9492TIP3    H228410   5.853   7.241   2.597
 9493TIP3   OH228411   4.756   7.232   2.539
 9493TIP3    H128412   4.802   7.171   2.481
 9493TIP3    H228413   4.825   7.288   2.575
 9494TIP3   OH228414   5.246   7.428   2.636
 9494TIP3    H128415   5.305   7.375   2.689
 9494TIP3    H228416   5.261   7.518   2.665
 9495TIP3   OH228417   5.058   7.476   4.006
 9495TIP3    H128418   5.019   7.416   4.070
 9495TIP3    H228419   5.149   7.484   4.034
 9496TIP3   OH228420   5.301   7.484   4.139
 9496TIP3    H128421   5.380   7.453   4.096
 9496TIP3    H228422   5.288   7.423   4.212
 9497TIP3   OH228423   6.130   7.571   3.915
 9497TIP3    H128424   6.147   7.542   4.005
 9497TIP3    H228425   6.216   7.566   3.872
 9498TIP3   OH228426   0.958   0.343   2.920
 9498TIP3    H128427   0.989   0.278   2.982
 9498TIP3    H228428   0.999   0.425   2.948
 9499TIP3   OH228429   6.284   7.981   2.401
 9499TIP3    H128430   6.241   8.062   2.428
 9499TIP3    H228431   6.215   7.930   2.358
 9500TIP3   OH228432   0.701   0.254   2.618
 9500TIP3    H128433   0.747   0.178   2.653
 9500TIP3    H228434   0.749   0.276   2.538
 9501TIP3   OH228435   6.845   7.871   2.578
 9501TIP3    H128436   6.831   7.943   2.517
 9501TIP3    H228437   6.796   7.798   2.541
 9502TIP3   OH228438   0.838   0.041   2.718
 9502TIP3    H128439   0.924   0.028   2.758
 9502TIP3    H228440   0.840  -0.014   2.640
 9503TIP3   OH228441   6.842   7.846   3.051
 9503TIP3    H128442   6.795   7.879   2.975
 9503TIP3    H228443   6.787   7.868   3.126
 9504TIP3   OH228444   6.748   7.961   2.818
 9504TIP3    H128445   6.813   8.027   2.843
 9504TIP3    H228446   6.782   7.923   2.737
 9505TIP3   OH228447   0.517   0.475   2.165
 9505TIP3    H128448   0.509   0.460   2.071
 9505TIP3    H228449   0.555   0.562   2.173
 9506TIP3   OH228450   7.214   7.547   2.827
 9506TIP3    H128451   7.188   7.456   2.812
 9506TIP3    H228452   7.131   7.595   2.831
 9507TIP3   OH228453   1.052   0.474   3.152
 9507TIP3    H128454   1.089   0.513   3.231
 9507TIP3    H228455   0.963   0.449   3.176
 9508TIP3   OH228456   0.926   0.186   2.220
 9508TIP3    H128457   0.914   0.267   2.170
 9508TIP3    H228458   0.861   0.126   2.185
 9509TIP3   OH228459   0.699   0.623   3.104
 9509TIP3    H128460   0.639   0.603   3.032
 9509TIP3    H228461   0.744   0.541   3.121
 9510TIP3   OH228462   6.956   7.643   2.898
 9510TIP3    H128463   6.876   7.610   2.857
 9510TIP3    H228464   6.927   7.718   2.950
 9511TIP3   OH228465   7.494   7.701   3.115
 9511TIP3    H128466   7.513   7.793   3.136
 9511TIP3    H228467   7.400   7.693   3.128
 9512TIP3   OH228468   1.262   0.131   2.921
 9512TIP3    H128469   1.204   0.150   2.995
 9512TIP3    H228470   1.274   0.215   2.877
 9513TIP3   OH228471   1.080   0.049   2.408
 9513TIP3    H128472   1.001   0.000   2.432
 9513TIP3    H228473   1.052   0.106   2.337
 9514TIP3   OH228474   1.098   0.176   3.134
 9514TIP3    H128475   1.073   0.252   3.186
 9514TIP3    H228476   1.067   0.101   3.185
 9515TIP3   OH228477   6.772   7.575   1.864
 9515TIP3    H128478   6.755   7.637   1.935
 9515TIP3    H228479   6.765   7.628   1.784
 9516TIP3   OH228480   6.330   7.712   2.700
 9516TIP3    H128481   6.405   7.745   2.750
 9516TIP3    H228482   6.367   7.687   2.616
 9517TIP3   OH228483   6.252   7.683   2.207
 9517TIP3    H128484   6.297   7.717   2.129
 9517TIP3    H228485   6.188   7.751   2.229
 9518TIP3   OH228486   7.101   7.765   2.579
 9518TIP3    H128487   7.012   7.800   2.580
 9518TIP3    H228488   7.157   7.841   2.590
 9519TIP3   OH228489   6.534   7.908   2.491
 9519TIP3    H128490   6.448   7.916   2.448
 9519TIP3    H228491   6.566   7.822   2.465
 9520TIP3   OH228492   6.648   7.903   1.991
 9520TIP3    H128493   6.596   7.877   1.914
 9520TIP3    H228494   6.688   7.986   1.965
 9521TIP3   OH228495   6.688   7.676   2.454
 9521TIP3    H128496   6.668   7.595   2.501
 9521TIP3    H228497   6.711   7.648   2.365
 9522TIP3   OH228498   0.805   0.383   3.227
 9522TIP3    H128499   0.812   0.353   3.318
 9522TIP3    H228500   0.724   0.342   3.195
 9523TIP3   OH228501   0.620   0.109   1.987
 9523TIP3    H128502   0.620   0.201   1.960
 9523TIP3    H228503   0.543   0.100   2.042
 9524TIP3   OH228504   6.682   7.939   3.257
 9524TIP3    H128505   6.588   7.958   3.259
 9524TIP3    H228506   6.693   7.865   3.316
 9525TIP3   OH228507   6.728   7.677   2.134
 9525TIP3    H128508   6.706   7.766   2.104
 9525TIP3    H228509   6.823   7.677   2.142
 9526TIP3   OH228510   6.309   7.837   1.988
 9526TIP3    H128511   6.329   7.930   2.000
 9526TIP3    H228512   6.265   7.833   1.903
 9527TIP3   OH228513   6.698   7.554   2.850
 9527TIP3    H128514   6.675   7.521   2.763
 9527TIP3    H228515   6.694   7.477   2.907
 9528TIP3   OH228516   0.899   0.688   3.470
 9528TIP3    H128517   0.937   0.606   3.440
 9528TIP3    H228518   0.811   0.690   3.432
 9529TIP3   OH228519   1.039   0.433   3.436
 9529TIP3    H128520   1.126   0.394   3.444
 9529TIP3    H228521   1.012   0.449   3.527
 9530TIP3   OH228522   1.399   0.149   3.252
 9530TIP3    H128523   1.440   0.066   3.226
 9530TIP3    H228524   1.331   0.164   3.187
 9531TIP3   OH228525   7.097   7.940   3.077
 9531TIP3    H128526   7.098   7.996   2.999
 9531TIP3    H228527   7.009   7.902   3.078
 9532TIP3   OH228528   1.310   0.245   3.492
 9532TIP3    H128529   1.258   0.170   3.519
 9532TIP3    H228530   1.347   0.219   3.408
 9533TIP3   OH228531   7.223   7.705   3.166
 9533TIP3    H128532   7.181   7.784   3.132
 9533TIP3    H228533   7.160   7.635   3.150
 9534TIP3   OH228534   6.847   8.013   3.547
 9534TIP3    H128535   6.851   7.939   3.487
 9534TIP3    H228536   6.869   7.976   3.632
 9535TIP3   OH228537   7.324   7.685   3.419
 9535TIP3    H128538   7.388   7.614   3.408
 9535TIP3    H228539   7.282   7.693   3.334
 9536TIP3   OH228540   7.420   7.906   3.552
 9536TIP3    H128541   7.386   7.836   3.497
 9536TIP3    H228542   7.351   7.973   3.551
 9537TIP3   OH228543   0.502   0.448   1.893
 9537TIP3    H128544   0.505   0.518   1.828
 9537TIP3    H228545   0.476   0.370   1.844
 9538TIP3   OH228546   0.689   0.371   2.864
 9538TIP3    H128547   0.680   0.334   2.776
 9538TIP3    H228548   0.783   0.368   2.882
 9539TIP3   OH228549   0.913   0.060   3.545
 9539TIP3    H128550   1.008   0.052   3.542
 9539TIP3    H228551   0.883  -0.025   3.577
 9540TIP3   OH228552   6.538   7.776   2.880
 9540TIP3    H128553   6.590   7.696   2.877
 9540TIP3    H228554   6.600   7.846   2.859
 9541TIP3   OH228555   0.663   0.027   2.936
 9541TIP3    H128556   0.712   0.015   2.856
 9541TIP3    H228557   0.700   0.106   2.976
 9542TIP3   OH228558   6.321   7.564   2.443
 9542TIP3    H128559   6.233   7.547   2.477
 9542TIP3    H228560   6.307   7.612   2.362
 9543TIP3   OH228561   6.544   7.631   3.267
 9543TIP3    H128562   6.489   7.616   3.344
 9543TIP3    H228563   6.485   7.669   3.202
 9544TIP3   OH228564   6.625   7.449   2.605
 9544TIP3    H128565   6.536   7.415   2.613
 9544TIP3    H228566   6.679   7.370   2.597
 9545TIP3   OH228567   6.434   7.359   2.272
 9545TIP3    H128568   6.466   7.405   2.194
 9545TIP3    H228569   6.408   7.429   2.332
 9546TIP3   OH228570   7.089   7.495   2.512
 9546TIP3    H128571   7.122   7.509   2.423
 9546TIP3    H228572   7.096   7.580   2.554
 9547TIP3   OH228573   6.541   7.489   2.045
 9547TIP3    H128574   6.590   7.435   1.983
 9547TIP3    H228575   6.607   7.549   2.080
 9548TIP3   OH228576   7.003   7.655   2.148
 9548TIP3    H128577   7.034   7.565   2.147
 9548TIP3    H228578   7.081   7.708   2.132
 9549TIP3   OH228579   6.855   7.730   3.481
 9549TIP3    H128580   6.816   7.670   3.545
 9549TIP3    H228581   6.946   7.737   3.506
 9550TIP3   OH228582   7.108   7.726   3.596
 9550TIP3    H128583   7.186   7.711   3.543
 9550TIP3    H228584   7.108   7.654   3.659
 9551TIP3   OH228585   5.078   4.910   0.617
 9551TIP3    H128586   5.064   4.842   0.683
 9551TIP3    H228587   5.119   4.982   0.664
 9552TIP3   OH228588   4.750   5.425   0.624
 9552TIP3    H128589   4.782   5.348   0.578
 9552TIP3    H228590   4.707   5.391   0.702
 9553TIP3   OH228591   4.818   4.810   0.290
 9553TIP3    H128592   4.755   4.752   0.247
 9553TIP3    H228593   4.820   4.889   0.235
 9554TIP3   OH228594   4.840   5.239   0.429
 9554TIP3    H128595   4.900   5.166   0.411
 9554TIP3    H228596   4.875   5.313   0.380
 9555TIP3   OH228597   4.993   5.023   0.375
 9555TIP3    H128598   5.023   4.964   0.306
 9555TIP3    H228599   5.057   5.010   0.446
 9556TIP3   OH228600   4.985   4.559   0.378
 9556TIP3    H128601   4.942   4.612   0.445
 9556TIP3    H228602   5.075   4.548   0.410
 9557TIP3   OH228603   4.595   5.146   0.503
 9557TIP3    H128604   4.670   5.193   0.467
 9557TIP3    H228605   4.627   5.056   0.513
 9558TIP3   OH228606   2.390   1.046   6.689
 9558TIP3    H128607   2.388   1.137   6.659
 9558TIP3    H228608   2.480   1.018   6.672
 9559TIP3   OH228609   1.901   1.268   6.783
 9559TIP3    H128610   1.966   1.207   6.749
 9559TIP3    H228611   1.829   1.212   6.812
 9560TIP3   OH228612   4.697   5.345   0.127
 9560TIP3    H128613   4.633   5.333   0.197
 9560TIP3    H228614   4.776   5.375   0.173
 9561TIP3   OH228615   2.126   0.394   6.820
 9561TIP3    H128616   2.089   0.380   6.733
 9561TIP3    H228617   2.195   0.459   6.806
 9562TIP3   OH228618   4.648   4.850   0.012
 9562TIP3    H128619   4.694   4.920   0.059
 9562TIP3    H228620   4.651   4.775   0.072
 9563TIP3   OH228621   2.631   0.276   6.904
 9563TIP3    H128622   2.546   0.234   6.891
 9563TIP3    H228623   2.611   0.369   6.916
 9564TIP3   OH228624   2.251   1.089   6.927
 9564TIP3    H128625   2.266   1.014   6.984
 9564TIP3    H228626   2.301   1.069   6.848
 9565TIP3   OH228627   2.061   0.854   6.821
 9565TIP3    H128628   2.122   0.854   6.894
 9565TIP3    H228629   1.976   0.837   6.861
 9566TIP3   OH228630   2.382   1.311   6.618
 9566TIP3    H128631   2.448   1.378   6.601
 9566TIP3    H228632   2.314   1.357   6.668
 9567TIP3   OH228633   5.056   4.842   0.099
 9567TIP3    H128634   5.006   4.765   0.127
 9567TIP3    H228635   5.145   4.810   0.088
 9568TIP3   OH228636   1.658   1.199   6.874
 9568TIP3    H128637   1.622   1.204   6.963
 9568TIP3    H228638   1.619   1.120   6.837
 9569TIP3   OH228639   5.185   5.461   0.814
 9569TIP3    H128640   5.143   5.482   0.730
 9569TIP3    H228641   5.251   5.395   0.792
 9570TIP3   OH228642   1.595   0.955   6.756
 9570TIP3    H128643   1.557   0.875   6.793
 9570TIP3    H228644   1.680   0.927   6.722
 9571TIP3   OH228645   2.037   1.075   6.658
 9571TIP3    H128646   2.077   1.013   6.719
 9571TIP3    H228647   2.091   1.069   6.579
 9572TIP3   OH228648   2.324   0.555   6.706
 9572TIP3    H128649   2.327   0.515   6.619
 9572TIP3    H228650   2.308   0.648   6.690
 9573TIP3   OH228651   1.357   1.293   6.908
 9573TIP3    H128652   1.439   1.330   6.940
 9573TIP3    H228653   1.341   1.337   6.825
 9574TIP3   OH228654   5.438   5.559   0.610
 9574TIP3    H128655   5.470   5.598   0.691
 9574TIP3    H228656   5.441   5.630   0.546
 9575TIP3   OH228657   5.335   4.808   0.048
 9575TIP3    H128658   5.405   4.860   0.009
 9575TIP3    H228659   5.376   4.766   0.124
 9576TIP3   OH228660   5.455   4.710   0.267
 9576TIP3    H128661   5.395   4.722   0.341
 9576TIP3    H228662   5.540   4.740   0.301
 9577TIP3   OH228663   5.395   4.983   0.693
 9577TIP3    H128664   5.395   4.912   0.758
 9577TIP3    H228665   5.484   4.985   0.659
 9578TIP3   OH228666   2.549   0.546   6.865
 9578TIP3    H128667   2.472   0.537   6.808
 9578TIP3    H228668   2.530   0.624   6.918
 9579TIP3   OH228669   2.386   0.187   6.830
 9579TIP3    H128670   2.329   0.255   6.794
 9579TIP3    H228671   2.357   0.106   6.787
 9580TIP3   OH228672   5.229   4.475   0.451
 9580TIP3    H128673   5.303   4.441   0.401
 9580TIP3    H228674   5.248   4.452   0.542
 9581TIP3   OH228675   5.105   5.522   0.138
 9581TIP3    H128676   5.131   5.431   0.153
 9581TIP3    H228677   5.159   5.572   0.199
 9582TIP3   OH228678   2.400   1.326   6.910
 9582TIP3    H128679   2.356   1.250   6.947
 9582TIP3    H228680   2.329   1.379   6.873
 9583TIP3   OH228681   3.810   0.896   6.965
 9583TIP3    H128682   3.786   0.984   6.936
 9583TIP3    H228683   3.748   0.838   6.921
 9584TIP3   OH228684   6.673   4.923   0.315
 9584TIP3    H128685   6.640   4.856   0.375
 9584TIP3    H228686   6.655   4.889   0.228
 9585TIP3   OH228687   5.887   4.859   0.783
 9585TIP3    H128688   5.895   4.867   0.878
 9585TIP3    H228689   5.903   4.766   0.765
 9586TIP3   OH228690   6.931   5.219   0.053
 9586TIP3    H128691   6.925   5.153   0.122
 9586TIP3    H228692   6.953   5.300   0.100
 9587TIP3   OH228693   5.969   5.258   0.408
 9587TIP3    H128694   6.013   5.178   0.379
 9587TIP3    H228695   6.040   5.315   0.437
 9588TIP3   OH228696   5.650   4.397   0.227
 9588TIP3    H128697   5.555   4.402   0.211
 9588TIP3    H228698   5.678   4.320   0.178
 9589TIP3   OH228699   5.674   4.756   0.422
 9589TIP3    H128700   5.646   4.669   0.451
 9589TIP3    H228701   5.763   4.743   0.388
 9590TIP3   OH228702   6.577   5.655   0.079
 9590TIP3    H128703   6.609   5.582   0.026
 9590TIP3    H228704   6.583   5.623   0.169
 9591TIP3   OH228705   6.464   5.115   0.357
 9591TIP3    H128706   6.499   5.033   0.323
 9591TIP3    H228707   6.541   5.170   0.370
 9592TIP3   OH228708   6.947   4.557   0.424
 9592TIP3    H128709   6.967   4.464   0.425
 9592TIP3    H228710   6.903   4.572   0.340
 9593TIP3   OH228711   6.234   4.291   0.313
 9593TIP3    H128712   6.217   4.364   0.254
 9593TIP3    H228713   6.198   4.214   0.268
 9594TIP3   OH228714   6.916   4.388   0.113
 9594TIP3    H128715   7.012   4.394   0.113
 9594TIP3    H228716   6.893   4.381   0.020
 9595TIP3   OH228717   5.815   4.369   0.570
 9595TIP3    H128718   5.887   4.355   0.631
 9595TIP3    H228719   5.822   4.297   0.507
 9596TIP3   OH228720   6.340   4.696   0.147
 9596TIP3    H128721   6.404   4.669   0.213
 9596TIP3    H228722   6.282   4.621   0.137
 9597TIP3   OH228723   7.542   4.675   0.548
 9597TIP3    H128724   7.465   4.731   0.548
 9597TIP3    H228725   7.595   4.707   0.622
 9598TIP3   OH228726   3.702   1.108   6.820
 9598TIP3    H128727   3.684   1.094   6.727
 9598TIP3    H228728   3.661   1.192   6.841
 9599TIP3   OH228729   6.322   5.051   0.582
 9599TIP3    H128730   6.349   5.124   0.638
 9599TIP3    H228731   6.360   5.071   0.497
 9600TIP3   OH228732   6.058   4.383   0.709
 9600TIP3    H128733   6.121   4.452   0.730
 9600TIP3    H228734   6.111   4.313   0.671
 9601TIP3   OH228735   6.242   5.210   0.798
 9601TIP3    H128736   6.237   5.296   0.757
 9601TIP3    H228737   6.164   5.205   0.853
 9602TIP3   OH228738   2.701   0.966   6.911
 9602TIP3    H128739   2.685   0.990   6.819
 9602TIP3    H228740   2.748   1.042   6.947
 9603TIP3   OH228741   6.973   5.458   0.192
 9603TIP3    H128742   6.885   5.455   0.230
 9603TIP3    H228743   6.978   5.543   0.149
 9604TIP3   OH228744   3.839   1.480   6.818
 9604TIP3    H128745   3.891   1.402   6.800
 9604TIP3    H228746   3.896   1.553   6.794
 9605TIP3   OH228747   3.993   1.269   6.746
 9605TIP3    H128748   3.994   1.188   6.695
 9605TIP3    H228749   4.033   1.244   6.830
 9606TIP3   OH228750   7.181   5.374   0.542
 9606TIP3    H128751   7.175   5.292   0.493
 9606TIP3    H228752   7.172   5.442   0.476
 9607TIP3   OH228753   3.663   0.750   6.779
 9607TIP3    H128754   3.580   0.792   6.758
 9607TIP3    H228755   3.709   0.745   6.695
 9608TIP3   OH228756   3.629   0.556   6.472
 9608TIP3    H128757   3.695   0.601   6.524
 9608TIP3    H228758   3.677   0.488   6.425
 9609TIP3   OH228759   7.400   5.041   0.391
 9609TIP3    H128760   7.312   5.077   0.391
 9609TIP3    H228761   7.430   5.049   0.301
 9610TIP3   OH228762   3.997   0.851   6.751
 9610TIP3    H128763   3.944   0.872   6.828
 9610TIP3    H228764   4.082   0.826   6.787
 9611TIP3   OH228765   7.089   4.956   0.704
 9611TIP3    H128766   7.071   4.979   0.795
 9611TIP3    H228767   7.006   4.970   0.659
 9612TIP3   OH228768   6.094   4.826   0.129
 9612TIP3    H128769   6.052   4.755   0.081
 9612TIP3    H228770   6.178   4.790   0.157
 9613TIP3   OH228771   6.240   5.265   0.307
 9613TIP3    H128772   6.191   5.222   0.237
 9613TIP3    H228773   6.319   5.212   0.317
 9614TIP3   OH228774   6.168   4.850   0.660
 9614TIP3    H128775   6.150   4.814   0.573
 9614TIP3    H228776   6.232   4.919   0.645
 9615TIP3   OH228777   6.722   5.475   0.295
 9615TIP3    H128778   6.712   5.539   0.365
 9615TIP3    H228779   6.688   5.394   0.333
 9616TIP3   OH228780   6.421   5.376   0.946
 9616TIP3    H128781   6.421   5.321   1.024
 9616TIP3    H228782   6.386   5.320   0.877
 9617TIP3   OH228783   3.852   0.693   6.578
 9617TIP3    H128784   3.904   0.758   6.625
 9617TIP3    H228785   3.878   0.704   6.486
 9618TIP3   OH228786   3.588   1.367   6.836
 9618TIP3    H128787   3.675   1.408   6.840
 9618TIP3    H228788   3.535   1.428   6.786
 9619TIP3   OH228789   6.134   5.467   1.028
 9619TIP3    H128790   6.096   5.549   0.996
 9619TIP3    H228791   6.112   5.466   1.122
 9620TIP3   OH228792   3.107   0.641   6.920
 9620TIP3    H128793   3.026   0.682   6.892
 9620TIP3    H228794   3.081   0.554   6.950
 9621TIP3   OH228795   4.188   1.299   6.186
 9621TIP3    H128796   4.183   1.392   6.166
 9621TIP3    H228797   4.277   1.274   6.163
 9622TIP3   OH228798   5.568   5.168   0.536
 9622TIP3    H128799   5.630   5.115   0.485
 9622TIP3    H228800   5.600   5.161   0.626
 9623TIP3   OH228801   7.433   5.728   0.535
 9623TIP3    H128802   7.439   5.633   0.539
 9623TIP3    H228803   7.347   5.748   0.570
 9624TIP3   OH228804   6.511   5.528   0.737
 9624TIP3    H128805   6.485   5.620   0.746
 9624TIP3    H228806   6.490   5.489   0.822
 9625TIP3   OH228807   3.480   1.581   6.661
 9625TIP3    H128808   3.441   1.566   6.575
 9625TIP3    H228809   3.452   1.668   6.686
 9626TIP3   OH228810   5.743   5.470   0.070
 9626TIP3    H128811   5.796   5.472   0.150
 9626TIP3    H228812   5.701   5.384   0.071
 9627TIP3   OH228813   3.683   1.522   6.288
 9627TIP3    H128814   3.734   1.448   6.253
 9627TIP3    H228815   3.719   1.536   6.375
 9628TIP3   OH228816   3.736   1.568   6.557
 9628TIP3    H128817   3.652   1.565   6.602
 9628TIP3    H228818   3.799   1.536   6.621
 9629TIP3   OH228819   7.355   4.836   0.907
 9629TIP3    H128820   7.348   4.856   0.814
 9629TIP3    H228821   7.288   4.769   0.923
 9630TIP3   OH228822   7.160   4.656   0.961
 9630TIP3    H128823   7.081   4.704   0.983
 9630TIP3    H228824   7.155   4.643   0.866
 9631TIP3   OH228825   3.924   0.709   6.317
 9631TIP3    H128826   3.878   0.700   6.234
 9631TIP3    H228827   4.008   0.751   6.293
 9632TIP3   OH228828   6.232   4.589   0.720
 9632TIP3    H128829   6.328   4.584   0.724
 9632TIP3    H228830   6.214   4.681   0.699
 9633TIP3   OH228831   6.156   4.495   0.147
 9633TIP3    H128832   6.068   4.474   0.177
 9633TIP3    H228833   6.170   4.437   0.072
 9634TIP3   OH228834   3.789   0.554   6.922
 9634TIP3    H128835   3.733   0.621   6.883
 9634TIP3    H228836   3.852   0.532   6.853
 9635TIP3   OH228837   6.785   4.606   0.203
 9635TIP3    H128838   6.717   4.631   0.141
 9635TIP3    H228839   6.817   4.522   0.172
 9636TIP3   OH228840   5.715   4.205   0.052
 9636TIP3    H128841   5.769   4.176  -0.021
 9636TIP3    H228842   5.627   4.216   0.015
 9637TIP3   OH228843   6.812   4.850   0.683
 9637TIP3    H128844   6.831   4.911   0.611
 9637TIP3    H228845   6.726   4.876   0.715
 9638TIP3   OH228846   5.922   4.386   0.235
 9638TIP3    H128847   5.827   4.398   0.224
 9638TIP3    H228848   5.932   4.297   0.268
 9639TIP3   OH228849   3.361   0.296   6.905
 9639TIP3    H128850   3.453   0.298   6.882
 9639TIP3    H228851   3.315   0.304   6.822
 9640TIP3   OH228852   3.210   0.350   6.676
 9640TIP3    H128853   3.133   0.335   6.622
 9640TIP3    H228854   3.265   0.408   6.625
 9641TIP3   OH228855   7.165   6.065   0.682
 9641TIP3    H128856   7.161   6.095   0.592
 9641TIP3    H228857   7.213   6.134   0.728
 9642TIP3   OH228858   6.508   4.582   0.337
 9642TIP3    H128859   6.570   4.531   0.286
 9642TIP3    H228860   6.561   4.631   0.399
 9643TIP3   OH228861   6.506   4.624   0.723
 9643TIP3    H128862   6.537   4.538   0.695
 9643TIP3    H228863   6.558   4.644   0.801
 9644TIP3   OH228864   3.432   0.880   6.701
 9644TIP3    H128865   3.355   0.826   6.683
 9644TIP3    H228866   3.407   0.934   6.776
 9645TIP3   OH228867   7.146   5.163   0.363
 9645TIP3    H128868   7.193   5.217   0.299
 9645TIP3    H228869   7.078   5.119   0.311
 9646TIP3   OH228870   3.846   0.304   6.557
 9646TIP3    H128871   3.802   0.241   6.613
 9646TIP3    H228872   3.896   0.359   6.617
 9647TIP3   OH228873   6.674   5.212   0.837
 9647TIP3    H128874   6.672   5.135   0.894
 9647TIP3    H228875   6.597   5.201   0.781
 9648TIP3   OH228876   3.977   0.487   6.725
 9648TIP3    H128877   4.072   0.495   6.727
 9648TIP3    H228878   3.949   0.558   6.667
 9649TIP3   OH228879   6.062   5.017   0.325
 9649TIP3    H128880   6.089   4.963   0.251
 9649TIP3    H228881   6.053   4.955   0.397
 9650TIP3   OH228882   3.590   1.052   6.559
 9650TIP3    H128883   3.539   1.133   6.561
 9650TIP3    H228884   3.536   0.989   6.607
 9651TIP3   OH228885   6.943   5.544   0.542
 9651TIP3    H128886   6.866   5.490   0.558
 9651TIP3    H228887   6.985   5.553   0.627
 9652TIP3   OH228888   4.385   0.557   6.517
 9652TIP3    H128889   4.339   0.500   6.455
 9652TIP3    H228890   4.382   0.644   6.476
 9653TIP3   OH228891   7.435   5.461   0.594
 9653TIP3    H128892   7.343   5.434   0.601
 9653TIP3    H228893   7.467   5.417   0.516
 9654TIP3   OH228894   4.100   1.376   6.445
 9654TIP3    H128895   4.076   1.307   6.507
 9654TIP3    H228896   4.124   1.329   6.366
 9655TIP3   OH228897   6.932   5.020   0.254
 9655TIP3    H128898   6.840   4.999   0.273
 9655TIP3    H228899   6.970   4.937   0.225
 9656TIP3   OH228900   6.056   5.254   0.083
 9656TIP3    H128901   6.058   5.338   0.036
 9656TIP3    H228902   5.965   5.226   0.078
 9657TIP3   OH228903   2.791   0.518   6.736
 9657TIP3    H128904   2.837   0.599   6.757
 9657TIP3    H228905   2.709   0.523   6.785
 9658TIP3   OH228906   6.159   5.032  -0.041
 9658TIP3    H128907   6.149   5.114   0.007
 9658TIP3    H228908   6.145   4.964   0.025
 9659TIP3   OH228909   6.463   5.493   0.461
 9659TIP3    H128910   6.452   5.564   0.398
 9659TIP3    H228911   6.449   5.534   0.547
 9660TIP3   OH228912   3.149   1.485   6.880
 9660TIP3    H128913   3.060   1.483   6.915
 9660TIP3    H228914   3.170   1.578   6.873
 9661TIP3   OH228915   6.693   5.235   0.440
 9661TIP3    H128916   6.711   5.290   0.516
 9661TIP3    H228917   6.745   5.156   0.454
 9662TIP3   OH228918   3.863   1.110   6.353
 9662TIP3    H128919   3.916   1.093   6.431
 9662TIP3    H228920   3.777   1.075   6.374
 9663TIP3   OH228921   6.963   5.817   0.525
 9663TIP3    H128922   6.935   5.726   0.517
 9663TIP3    H228923   6.941   5.856   0.441
 9664TIP3   OH228924   4.186   1.574   6.152
 9664TIP3    H128925   4.224   1.644   6.098
 9664TIP3    H228926   4.109   1.614   6.193
 9665TIP3   OH228927   4.033   1.054   6.565
 9665TIP3    H128928   4.017   0.982   6.627
 9665TIP3    H228929   4.126   1.048   6.545
 9666TIP3   OH228930   5.635   5.469   0.827
 9666TIP3    H128931   5.681   5.404   0.774
 9666TIP3    H228932   5.670   5.553   0.797
 9667TIP3   OH228933   3.209   1.079   6.357
 9667TIP3    H128934   3.223   0.989   6.328
 9667TIP3    H228935   3.201   1.072   6.452
 9668TIP3   OH228936   3.164   1.092   6.634
 9668TIP3    H128937   3.229   1.066   6.699
 9668TIP3    H228938   3.165   1.187   6.635
 9669TIP3   OH228939   2.885   0.768   6.821
 9669TIP3    H128940   2.836   0.820   6.885
 9669TIP3    H228941   2.908   0.830   6.752
 9670TIP3   OH228942   3.431   1.272   6.560
 9670TIP3    H128943   3.347   1.298   6.599
 9670TIP3    H228944   3.458   1.348   6.509
 9671TIP3   OH228945   6.473   4.328  -0.011
 9671TIP3    H128946   6.519   4.411  -0.014
 9671TIP3    H228947   6.490   4.294   0.077
 9672TIP3   OH228948   6.675   4.697   0.936
 9672TIP3    H128949   6.669   4.699   1.032
 9672TIP3    H228950   6.766   4.675   0.918
 9673TIP3   OH228951   3.181   1.366   6.635
 9673TIP3    H128952   3.160   1.436   6.574
 9673TIP3    H228953   3.173   1.406   6.722
 9674TIP3   OH228954   7.016   4.763   0.194
 9674TIP3    H128955   6.933   4.717   0.208
 9674TIP3    H228956   7.082   4.705   0.232
 9675TIP3   OH228957   2.918   0.963   6.620
 9675TIP3    H128958   2.991   1.023   6.633
 9675TIP3    H228959   2.951   0.900   6.555
 9676TIP3   OH228960   2.803   0.226   6.697
 9676TIP3    H128961   2.839   0.315   6.693
 9676TIP3    H228962   2.735   0.230   6.764
 9677TIP3   OH228963   6.994   5.719   0.113
 9677TIP3    H128964   6.947   5.772   0.048
 9677TIP3    H228965   7.086   5.743   0.099
 9678TIP3   OH228966   5.609   5.231   0.062
 9678TIP3    H128967   5.547   5.225   0.135
 9678TIP3    H228968   5.558   5.268  -0.010
 9679TIP3   OH228969   3.371   1.275   6.246
 9679TIP3    H128970   3.324   1.205   6.291
 9679TIP3    H228971   3.446   1.232   6.206
 9680TIP3   OH228972   6.872   5.659   1.046
 9680TIP3    H128973   6.873   5.574   1.002
 9680TIP3    H228974   6.963   5.689   1.041
 9681TIP3   OH228975   3.812   1.311   6.169
 9681TIP3    H128976   3.847   1.247   6.232
 9681TIP3    H228977   3.871   1.305   6.094
 9682TIP3   OH228978   3.037   0.772   6.468
 9682TIP3    H128979   3.089   0.744   6.543
 9682TIP3    H228980   3.102   0.786   6.398
 9683TIP3   OH228981   3.578   0.994   6.290
 9683TIP3    H128982   3.572   1.005   6.385
 9683TIP3    H228983   3.573   0.899   6.276
 9684TIP3   OH228984   6.985   5.246   0.696
 9684TIP3    H128985   7.047   5.306   0.656
 9684TIP3    H228986   6.918   5.303   0.734
 9685TIP3   OH228987   3.214   0.708   6.672
 9685TIP3    H128988   3.191   0.676   6.760
 9685TIP3    H228989   3.265   0.637   6.633
 9686TIP3   OH228990   3.357   0.524   6.525
 9686TIP3    H128991   3.328   0.531   6.434
 9686TIP3    H228992   3.452   0.533   6.520
 9687TIP3   OH228993   4.151   0.819   6.202
 9687TIP3    H128994   4.133   0.778   6.117
 9687TIP3    H228995   4.126   0.911   6.190
 9688TIP3   OH228996   6.578   4.915   0.791
 9688TIP3    H128997   6.589   4.837   0.846
 9688TIP3    H228998   6.515   4.969   0.839
 9689TIP3   OH228999   7.091   5.092   0.939
 9689TIP3    H129000   7.050   5.169   0.900
 9689TIP3    H229001   7.183   5.117   0.951
 9690TIP3   OH229002   3.175   1.581   6.457
 9690TIP3    H129003   3.264   1.557   6.432
 9690TIP3    H229004   3.138   1.624   6.380
 9691TIP3   OH229005   2.646   0.954   6.628
 9691TIP3    H129006   2.740   0.966   6.624
 9691TIP3    H229007   2.631   0.865   6.596
 9692TIP3   OH229008   5.385   5.554   0.052
 9692TIP3    H129009   5.335   5.482   0.015
 9692TIP3    H229010   5.400   5.528   0.144
 9693TIP3   OH229011   5.408   5.468   0.306
 9693TIP3    H129012   5.406   5.373   0.294
 9693TIP3    H229013   5.483   5.483   0.365
 9694TIP3   OH229014   7.247   5.812   0.082
 9694TIP3    H129015   7.260   5.846   0.171
 9694TIP3    H229016   7.323   5.842   0.033
 9695TIP3   OH229017   7.253   5.845   0.355
 9695TIP3    H129018   7.211   5.759   0.355
 9695TIP3    H229019   7.338   5.830   0.397
 9696TIP3   OH229020   7.333   5.543   0.885
 9696TIP3    H129021   7.365   5.557   0.975
 9696TIP3    H229022   7.380   5.609   0.833
 9697TIP3   OH229023   4.306   1.033   6.524
 9697TIP3    H129024   4.366   1.100   6.491
 9697TIP3    H229025   4.348   1.001   6.604
 9698TIP3   OH229026   4.424   0.916   6.739
 9698TIP3    H129027   4.362   0.874   6.799
 9698TIP3    H229028   4.498   0.941   6.794
 9699TIP3   OH229029   7.327   5.301   0.213
 9699TIP3    H129030   7.382   5.235   0.171
 9699TIP3    H229031   7.333   5.378   0.156
 9700TIP3   OH229032   7.148   5.589   0.369
 9700TIP3    H129033   7.069   5.583   0.423
 9700TIP3    H229034   7.124   5.546   0.287
 9701TIP3   OH229035   4.352   0.798   6.386
 9701TIP3    H129036   4.283   0.799   6.320
 9701TIP3    H229037   4.336   0.878   6.437
 9702TIP3   OH229038   4.227   0.453   6.317
 9702TIP3    H129039   4.211   0.522   6.252
 9702TIP3    H229040   4.185   0.375   6.279
 9703TIP3   OH229041   4.231   0.758   6.865
 9703TIP3    H129042   4.246   0.666   6.844
 9703TIP3    H229043   4.222   0.760   6.960
 9704TIP3   OH229044   5.662   4.912   0.644
 9704TIP3    H129045   5.672   4.869   0.559
 9704TIP3    H229046   5.747   4.901   0.686
 9705TIP3   OH229047   7.527   5.209   0.706
 9705TIP3    H129048   7.455   5.179   0.762
 9705TIP3    H229049   7.487   5.273   0.647
 9706TIP3   OH229050   7.603   4.961   0.854
 9706TIP3    H129051   7.535   4.910   0.897
 9706TIP3    H229052   7.661   4.895   0.815
 9707TIP3   OH229053   4.258   0.497   6.756
 9707TIP3    H129054   4.322   0.436   6.792
 9707TIP3    H229055   4.295   0.524   6.672
 9708TIP3   OH229056   7.226   4.585   0.251
 9708TIP3    H129057   7.301   4.636   0.223
 9708TIP3    H229058   7.256   4.539   0.330
 9709TIP3   OH229059   7.293   4.783   0.466
 9709TIP3    H129060   7.307   4.789   0.372
 9709TIP3    H229061   7.328   4.865   0.501
 9710TIP3   OH229062   3.976   1.689   6.714
 9710TIP3    H129063   4.035   1.677   6.639
 9710TIP3    H229064   4.019   1.755   6.768
 9711TIP3   OH229065   6.118   5.471   0.499
 9711TIP3    H129066   6.052   5.524   0.544
 9711TIP3    H229067   6.183   5.452   0.567
 9712TIP3   OH229068   6.507   5.784   0.838
 9712TIP3    H129069   6.529   5.764   0.929
 9712TIP3    H229070   6.589   5.773   0.790
 9713TIP3   OH229071   6.738   5.985   0.603
 9713TIP3    H129072   6.812   5.932   0.572
 9713TIP3    H229073   6.775   6.038   0.673
 9714TIP3   OH229074   5.693   5.736   0.764
 9714TIP3    H129075   5.711   5.785   0.683
 9714TIP3    H229076   5.756   5.771   0.827
 9715TIP3   OH229077   6.035   5.751   0.507
 9715TIP3    H129078   5.997   5.793   0.584
 9715TIP3    H229079   5.992   5.793   0.433
 9716TIP3   OH229080   6.461   5.742   0.344
 9716TIP3    H129081   6.382   5.756   0.292
 9716TIP3    H229082   6.462   5.816   0.405
 9717TIP3   OH229083   6.709   5.713   0.448
 9717TIP3    H129084   6.618   5.717   0.418
 9717TIP3    H229085   6.755   5.775   0.393
 9718TIP3   OH229086   6.866   5.895   0.290
 9718TIP3    H129087   6.879   5.984   0.259
 9718TIP3    H229088   6.904   5.840   0.222
 9719TIP3   OH229089   5.761   5.651   0.414
 9719TIP3    H129090   5.697   5.581   0.427
 9719TIP3    H229091   5.830   5.612   0.362
 9720TIP3   OH229092   5.922   5.487   0.271
 9720TIP3    H129093   5.941   5.405   0.317
 9720TIP3    H229094   6.008   5.520   0.245
 9721TIP3   OH229095   6.195   5.532   0.244
 9721TIP3    H129096   6.238   5.451   0.216
 9721TIP3    H229097   6.183   5.522   0.338
 9722TIP3   OH229098   2.644   1.333   6.781
 9722TIP3    H129099   2.556   1.313   6.812
 9722TIP3    H229100   2.637   1.422   6.747
 9723TIP3   OH229101   3.428   1.501   6.389
 9723TIP3    H129102   3.513   1.526   6.352
 9723TIP3    H229103   3.399   1.428   6.335
 9724TIP3   OH229104   4.132   1.643   6.488
 9724TIP3    H129105   4.127   1.548   6.480
 9724TIP3    H229106   4.091   1.676   6.408
 9725TIP3   OH229107   2.738   1.343   6.453
 9725TIP3    H129108   2.736   1.333   6.548
 9725TIP3    H229109   2.818   1.299   6.426
 9726TIP3   OH229110   7.201   5.800   0.645
 9726TIP3    H129111   7.126   5.804   0.586
 9726TIP3    H229112   7.206   5.887   0.684
 9727TIP3   OH229113   5.612   1.169   6.427
 9727TIP3    H129114   5.576   1.256   6.412
 9727TIP3    H229115   5.543   1.109   6.398
 9728TIP3   OH229116   5.623   1.169   6.838
 9728TIP3    H129117   5.668   1.151   6.921
 9728TIP3    H229118   5.573   1.089   6.819
 9729TIP3   OH229119   7.757   5.040   0.225
 9729TIP3    H129120   7.779   4.985   0.300
 9729TIP3    H229121   7.840   5.055   0.180
 9730TIP3   OH229122   5.887   1.467   6.513
 9730TIP3    H129123   5.876   1.404   6.585
 9730TIP3    H229124   5.913   1.548   6.557
 9731TIP3   OH229125   4.909   1.454   6.890
 9731TIP3    H129126   4.896   1.359   6.889
 9731TIP3    H229127   5.003   1.465   6.880
 9732TIP3   OH229128   4.571   0.688   6.684
 9732TIP3    H129129   4.525   0.772   6.695
 9732TIP3    H229130   4.514   0.637   6.627
 9733TIP3   OH229131   4.673   0.960   6.855
 9733TIP3    H129132   4.716   0.879   6.884
 9733TIP3    H229133   4.744   1.012   6.819
 9734TIP3   OH229134   5.428   1.388   6.844
 9734TIP3    H129135   5.469   1.307   6.813
 9734TIP3    H229136   5.500   1.441   6.877
 9735TIP3   OH229137   5.848   0.879   6.913
 9735TIP3    H129138   5.905   0.802   6.917
 9735TIP3    H229139   5.809   0.875   6.826
 9736TIP3   OH229140   5.137   0.508   6.869
 9736TIP3    H129141   5.133   0.580   6.806
 9736TIP3    H229142   5.126   0.429   6.816
 9737TIP3   OH229143   5.791   0.645   6.523
 9737TIP3    H129144   5.881   0.612   6.525
 9737TIP3    H229145   5.777   0.669   6.431
 9738TIP3   OH229146   7.636   4.743   0.011
 9738TIP3    H129147   7.720   4.735   0.057
 9738TIP3    H229148   7.645   4.685  -0.065
 9739TIP3   OH229149   5.231   0.946   6.786
 9739TIP3    H129150   5.325   0.930   6.789
 9739TIP3    H229151   5.193   0.860   6.768
 9740TIP3   OH229152   0.805   4.899   0.120
 9740TIP3    H129153   0.724   4.946   0.103
 9740TIP3    H229154   0.859   4.960   0.171
 9741TIP3   OH229155   5.497   1.387   6.298
 9741TIP3    H129156   5.463   1.372   6.210
 9741TIP3    H229157   5.581   1.432   6.283
 9742TIP3   OH229158   8.110   5.316   0.123
 9742TIP3    H129159   8.053   5.384   0.158
 9742TIP3    H229160   8.154   5.358   0.048
 9743TIP3   OH229161   7.881   4.692   0.120
 9743TIP3    H129162   7.958   4.735   0.158
 9743TIP3    H229163   7.918   4.622   0.066
 9744TIP3   OH229164   7.944   5.515   0.229
 9744TIP3    H129165   7.928   5.604   0.195
 9744TIP3    H229166   7.866   5.495   0.279
 9745TIP3   OH229167   4.490   1.212   6.414
 9745TIP3    H129168   4.464   1.233   6.324
 9745TIP3    H229169   4.516   1.297   6.451
 9746TIP3   OH229170   5.938   1.716   6.644
 9746TIP3    H129171   5.855   1.707   6.691
 9746TIP3    H229172   5.931   1.801   6.599
 9747TIP3   OH229173   5.664   1.752   6.332
 9747TIP3    H129174   5.711   1.668   6.330
 9747TIP3    H229175   5.729   1.816   6.304
 9748TIP3   OH229176   5.750   1.496   6.277
 9748TIP3    H129177   5.796   1.451   6.206
 9748TIP3    H229178   5.803   1.476   6.355
 9749TIP3   OH229179   0.502   5.613   0.056
 9749TIP3    H129180   0.483   5.538  -0.001
 9749TIP3    H229181   0.486   5.690   0.002
 9750TIP3   OH229182   5.439   1.021   6.263
 9750TIP3    H129183   5.360   1.070   6.238
 9750TIP3    H229184   5.489   1.014   6.182
 9751TIP3   OH229185   5.410   0.837   5.966
 9751TIP3    H129186   5.479   0.893   6.002
 9751TIP3    H229187   5.442   0.747   5.980
 9752TIP3   OH229188   6.349   1.255   6.849
 9752TIP3    H129189   6.266   1.302   6.851
 9752TIP3    H229190   6.389   1.279   6.766
 9753TIP3   OH229191   5.798   1.121   6.233
 9753TIP3    H129192   5.736   1.139   6.303
 9753TIP3    H229193   5.883   1.111   6.277
 9754TIP3   OH229194   0.363   5.142   0.223
 9754TIP3    H129195   0.361   5.221   0.277
 9754TIP3    H229196   0.277   5.140   0.181
 9755TIP3   OH229197   5.037   1.078   6.639
 9755TIP3    H129198   5.002   1.018   6.572
 9755TIP3    H229199   5.108   1.029   6.680
 9756TIP3   OH229200   5.171   1.502   6.787
 9756TIP3    H129201   5.144   1.483   6.697
 9756TIP3    H229202   5.258   1.463   6.795
 9757TIP3   OH229203   7.986   5.074   0.080
 9757TIP3    H129204   8.020   5.039  -0.002
 9757TIP3    H229205   8.036   5.155   0.094
 9758TIP3   OH229206   5.717   1.702   6.797
 9758TIP3    H129207   5.689   1.783   6.840
 9758TIP3    H229208   5.690   1.632   6.856
 9759TIP3   OH229209   8.152   5.611   0.387
 9759TIP3    H129210   8.094   5.675   0.429
 9759TIP3    H229211   8.094   5.557   0.333
 9760TIP3   OH229212   5.641   0.960   6.069
 9760TIP3    H129213   5.699   1.019   6.118
 9760TIP3    H229214   5.674   0.962   5.980
 9761TIP3   OH229215   7.918   5.179   0.476
 9761TIP3    H129216   7.923   5.262   0.522
 9761TIP3    H229217   7.825   5.154   0.481
 9762TIP3   OH229218   5.344   1.663   6.335
 9762TIP3    H129219   5.341   1.589   6.395
 9762TIP3    H229220   5.280   1.643   6.267
 9763TIP3   OH229221   7.960   5.797   0.454
 9763TIP3    H129222   7.939   5.802   0.361
 9763TIP3    H229223   7.875   5.787   0.498
 9764TIP3   OH229224   4.913   0.923   6.436
 9764TIP3    H129225   4.832   0.962   6.403
 9764TIP3    H229226   4.888   0.834   6.461
 9765TIP3   OH229227   5.972   1.562   5.670
 9765TIP3    H129228   5.969   1.654   5.644
 9765TIP3    H229229   6.063   1.536   5.661
 9766TIP3   OH229230   7.546   5.314   0.398
 9766TIP3    H129231   7.478   5.300   0.332
 9766TIP3    H229232   7.585   5.228   0.410
 9767TIP3   OH229233   7.403   5.519   0.062
 9767TIP3    H129234   7.493   5.503   0.034
 9767TIP3    H229235   7.409   5.599   0.114
 9768TIP3   OH229236   0.728   5.984   0.116
 9768TIP3    H129237   0.737   5.889   0.128
 9768TIP3    H229238   0.649   6.007   0.164
 9769TIP3   OH229239   8.337   5.759   0.248
 9769TIP3    H129240   8.328   5.849   0.279
 9769TIP3    H229241   8.271   5.710   0.297
 9770TIP3   OH229242   4.711   1.711   6.525
 9770TIP3    H129243   4.762   1.700   6.606
 9770TIP3    H229244   4.669   1.626   6.512
 9771TIP3   OH229245   5.481   1.769   5.796
 9771TIP3    H129246   5.538   1.706   5.751
 9771TIP3    H229247   5.399   1.721   5.810
 9772TIP3   OH229248   5.460   1.773   6.076
 9772TIP3    H129249   5.377   1.729   6.061
 9772TIP3    H229250   5.500   1.780   5.989
 9773TIP3   OH229251   0.608   5.058   0.350
 9773TIP3    H129252   0.525   5.095   0.321
 9773TIP3    H229253   0.591   4.964   0.360
 9774TIP3   OH229254   7.729   5.520   0.421
 9774TIP3    H129255   7.797   5.485   0.479
 9774TIP3    H229256   7.668   5.447   0.409
 9775TIP3   OH229257   0.348   4.904   0.374
 9775TIP3    H129258   0.362   4.956   0.453
 9775TIP3    H229259   0.345   4.968   0.303
 9776TIP3   OH229260   5.728   0.960   5.810
 9776TIP3    H129261   5.675   0.965   5.731
 9776TIP3    H229262   5.813   0.997   5.784
 9777TIP3   OH229263   8.075   4.859   0.244
 9777TIP3    H129264   8.014   4.863   0.317
 9777TIP3    H229265   8.054   4.935   0.190
 9778TIP3   OH229266   5.081   0.725   6.705
 9778TIP3    H129267   4.990   0.696   6.714
 9778TIP3    H229268   5.102   0.708   6.613
 9779TIP3   OH229269   5.566   0.858   6.441
 9779TIP3    H129270   5.509   0.913   6.387
 9779TIP3    H229271   5.634   0.828   6.380
 9780TIP3   OH229272   0.109   5.104   0.525
 9780TIP3    H129273   0.081   5.035   0.586
 9780TIP3    H229274   0.203   5.113   0.539
 9781TIP3   OH229275   5.740   0.875   6.661
 9781TIP3    H129276   5.679   0.920   6.602
 9781TIP3    H229277   5.755   0.790   6.620
 9782TIP3   OH229278   7.878   4.881   0.438
 9782TIP3    H129279   7.871   4.960   0.490
 9782TIP3    H229280   7.826   4.816   0.485
 9783TIP3   OH229281   4.670   0.434   6.530
 9783TIP3    H129282   4.689   0.465   6.442
 9783TIP3    H229283   4.575   0.445   6.539
 9784TIP3   OH229284   0.097   5.091   0.126
 9784TIP3    H129285   0.132   5.023   0.068
 9784TIP3    H229286   0.060   5.042   0.200
 9785TIP3   OH229287   4.829   0.606   6.702
 9785TIP3    H129288   4.740   0.641   6.696
 9785TIP3    H229289   4.825   0.523   6.655
 9786TIP3   OH229290   5.128   0.662   6.448
 9786TIP3    H129291   5.222   0.662   6.433
 9786TIP3    H229292   5.090   0.647   6.361
 9787TIP3   OH229293   5.041   0.601   6.199
 9787TIP3    H129294   4.953   0.592   6.161
 9787TIP3    H229295   5.087   0.659   6.138
 9788TIP3   OH229296   0.441   6.319   0.217
 9788TIP3    H129297   0.437   6.334   0.122
 9788TIP3    H229298   0.519   6.366   0.246
 9789TIP3   OH229299   7.914   5.426   0.610
 9789TIP3    H129300   7.990   5.436   0.667
 9789TIP3    H229301   7.840   5.420   0.670
 9790TIP3   OH229302   5.504   0.911   6.828
 9790TIP3    H129303   5.578   0.869   6.784
 9790TIP3    H229304   5.506   0.875   6.917
 9791TIP3   OH229305   8.338   4.829   0.146
 9791TIP3    H129306   8.252   4.832   0.187
 9791TIP3    H229307   8.399   4.859   0.214
 9792TIP3   OH229308   5.203   1.166   6.200
 9792TIP3    H129309   5.133   1.102   6.184
 9792TIP3    H229310   5.187   1.196   6.290
 9793TIP3   OH229311   6.115   1.401   6.821
 9793TIP3    H129312   6.147   1.451   6.745
 9793TIP3    H229313   6.031   1.366   6.792
 9794TIP3   OH229314   5.555   0.611   6.015
 9794TIP3    H129315   5.528   0.551   6.085
 9794TIP3    H229316   5.649   0.621   6.027
 9795TIP3   OH229317   8.462   5.487   0.290
 9795TIP3    H129318   8.509   5.472   0.372
 9795TIP3    H229319   8.423   5.574   0.300
 9796TIP3   OH229320   5.752   0.766   6.261
 9796TIP3    H129321   5.844   0.792   6.258
 9796TIP3    H229322   5.713   0.805   6.183
 9797TIP3   OH229323   4.918   1.174   6.868
 9797TIP3    H129324   4.956   1.149   6.784
 9797TIP3    H229325   4.974   1.133   6.934
 9798TIP3   OH229326   5.364   1.330   6.050
 9798TIP3    H129327   5.318   1.414   6.045
 9798TIP3    H229328   5.305   1.273   6.099
 9799TIP3   OH229329   7.660   5.075   0.512
 9799TIP3    H129330   7.638   5.108   0.599
 9799TIP3    H229331   7.579   5.033   0.482
 9800TIP3   OH229332   8.369   5.241   0.579
 9800TIP3    H129333   8.300   5.183   0.547
 9800TIP3    H229334   8.450   5.205   0.544
 9801TIP3   OH229335   0.107   5.777   0.174
 9801TIP3    H129336   0.012   5.764   0.178
 9801TIP3    H229337   0.130   5.815   0.259
 9802TIP3   OH229338   6.144   0.843   6.005
 9802TIP3    H129339   6.081   0.799   5.948
 9802TIP3    H229340   6.156   0.929   5.966
 9803TIP3   OH229341   0.746   5.708   0.143
 9803TIP3    H129342   0.653   5.686   0.148
 9803TIP3    H229343   0.775   5.673   0.058
 9804TIP3   OH229344   5.892   1.612   5.932
 9804TIP3    H129345   5.861   1.530   5.973
 9804TIP3    H229346   5.914   1.587   5.843
 9805TIP3   OH229347   5.875   1.279   6.730
 9805TIP3    H129348   5.784   1.255   6.751
 9805TIP3    H229349   5.916   1.196   6.704
 9806TIP3   OH229350   5.042   1.495   6.539
 9806TIP3    H129351   5.038   1.581   6.496
 9806TIP3    H229352   4.951   1.466   6.543
 9807TIP3   OH229353   4.585   0.794   6.236
 9807TIP3    H129354   4.628   0.877   6.255
 9807TIP3    H229355   4.506   0.796   6.291
 9808TIP3   OH229356   5.136   1.252   6.446
 9808TIP3    H129357   5.116   1.341   6.475
 9808TIP3    H229358   5.106   1.196   6.518
 9809TIP3   OH229359   8.151   5.832   0.044
 9809TIP3    H129360   8.188   5.905  -0.006
 9809TIP3    H229361   8.225   5.797   0.093
 9810TIP3   OH229362   4.976   1.741   6.434
 9810TIP3    H129363   4.881   1.744   6.439
 9810TIP3    H229364   5.001   1.827   6.400
 9811TIP3   OH229365  -0.001   5.487   0.018
 9811TIP3    H129366  -0.011   5.483   0.113
 9811TIP3    H229367   0.077   5.434  -0.000
 9812TIP3   OH229368   5.661   1.368   5.830
 9812TIP3    H129369   5.697   1.352   5.917
 9812TIP3    H229370   5.573   1.330   5.832
 9813TIP3   OH229371   0.258   5.993   0.057
 9813TIP3    H129372   0.188   5.929   0.072
 9813TIP3    H229373   0.227   6.046  -0.016
 9814TIP3   OH229374   5.978   1.832   5.623
 9814TIP3    H129375   5.987   1.891   5.548
 9814TIP3    H229376   5.909   1.873   5.676
 9815TIP3   OH229377   5.836   1.334   6.058
 9815TIP3    H129378   5.815   1.259   6.112
 9815TIP3    H229379   5.928   1.321   6.034
 9816TIP3   OH229380   7.558   5.732   0.206
 9816TIP3    H129381   7.613   5.675   0.260
 9816TIP3    H229382   7.575   5.820   0.240
 9817TIP3   OH229383   4.980   1.343   5.824
 9817TIP3    H129384   5.008   1.253   5.805
 9817TIP3    H229385   4.996   1.353   5.918
 9818TIP3   OH229386   4.993   1.374   6.101
 9818TIP3    H129387   5.052   1.321   6.155
 9818TIP3    H229388   5.039   1.457   6.091
 9819TIP3   OH229389   4.689   1.041   6.316
 9819TIP3    H129390   4.625   1.089   6.368
 9819TIP3    H229391   4.718   1.103   6.250
 9820TIP3   OH229392   5.400   0.643   6.435
 9820TIP3    H129393   5.458   0.714   6.463
 9820TIP3    H229394   5.414   0.573   6.499
 9821TIP3   OH229395   0.032   4.918   0.332
 9821TIP3    H129396   0.038   4.985   0.400
 9821TIP3    H229397   0.104   4.858   0.351
 9822TIP3   OH229398   5.980   1.028   6.660
 9822TIP3    H129399   5.900   0.975   6.663
 9822TIP3    H229400   6.047   0.973   6.700
 9823TIP3   OH229401   4.725   1.239   6.112
 9823TIP3    H129402   4.792   1.307   6.117
 9823TIP3    H229403   4.758   1.177   6.048
 9824TIP3   OH229404   4.676   0.534   6.278
 9824TIP3    H129405   4.658   0.627   6.265
 9824TIP3    H229406   4.639   0.491   6.201
 9825TIP3   OH229407   5.944   1.987   6.562
 9825TIP3    H129408   5.900   2.039   6.495
 9825TIP3    H229409   6.037   2.005   6.549
 9826TIP3   OH229410   4.545   1.478   6.504
 9826TIP3    H129411   4.503   1.517   6.581
 9826TIP3    H229412   4.503   1.522   6.429
 9827TIP3   OH229413   7.598   6.006   0.564
 9827TIP3    H129414   7.651   6.007   0.643
 9827TIP3    H229415   7.604   5.915   0.533
 9828TIP3   OH229416   8.068   5.925   0.672
 9828TIP3    H129417   8.156   5.887   0.679
 9828TIP3    H229418   8.032   5.885   0.593
 9829TIP3   OH229419   0.161   5.880   0.423
 9829TIP3    H129420   0.174   5.809   0.486
 9829TIP3    H229421   0.236   5.938   0.436
 9830TIP3   OH229422   5.606   1.572   5.650
 9830TIP3    H129423   5.640   1.505   5.709
 9830TIP3    H229424   5.662   1.566   5.573
 9831TIP3   OH229425   7.672   5.432   0.735
 9831TIP3    H129426   7.658   5.340   0.755
 9831TIP3    H229427   7.589   5.460   0.695
 9832TIP3   OH229428   4.833   1.039   5.961
 9832TIP3    H129429   4.883   1.008   6.036
 9832TIP3    H229430   4.898   1.054   5.893
 9833TIP3   OH229431   8.303   5.510   0.594
 9833TIP3    H129432   8.258   5.528   0.511
 9833TIP3    H229433   8.337   5.421   0.584
 9834TIP3   OH229434   5.399   1.267   5.782
 9834TIP3    H129435   5.371   1.281   5.872
 9834TIP3    H229436   5.381   1.174   5.766
 9835TIP3   OH229437   0.273   5.551   0.203
 9835TIP3    H129438   0.352   5.581   0.157
 9835TIP3    H229439   0.209   5.621   0.187
 9836TIP3   OH229440   7.883   5.132   0.782
 9836TIP3    H129441   7.958   5.095   0.737
 9836TIP3    H229442   7.903   5.123   0.875
 9837TIP3   OH229443   5.007   0.971   6.172
 9837TIP3    H129444   4.989   0.944   6.262
 9837TIP3    H229445   5.053   0.897   6.133
 9838TIP3   OH229446   8.173   5.076   0.469
 9838TIP3    H129447   8.084   5.111   0.465
 9838TIP3    H229448   8.211   5.097   0.384
 9839TIP3   OH229449   5.144   0.783   6.022
 9839TIP3    H129450   5.105   0.788   5.934
 9839TIP3    H229451   5.236   0.805   6.008
 9840TIP3   OH229452   0.157   5.426   0.573
 9840TIP3    H129453   0.226   5.391   0.515
 9840TIP3    H229454   0.151   5.363   0.644
 9841TIP3   OH229455   5.948   1.068   5.677
 9841TIP3    H129456   5.934   1.025   5.592
 9841TIP3    H229457   5.921   1.158   5.663
 9842TIP3   OH229458   8.237   4.836   0.579
 9842TIP3    H129459   8.216   4.774   0.510
 9842TIP3    H229460   8.215   4.922   0.541
 9843TIP3   OH229461   8.302   5.163   0.248
 9843TIP3    H129462   8.388   5.193   0.217
 9843TIP3    H229463   8.239   5.221   0.205
 9844TIP3   OH229464   0.393   5.089   0.578
 9844TIP3    H129465   0.382   5.056   0.667
 9844TIP3    H229466   0.478   5.132   0.578
 9845TIP3   OH229467   0.390   5.378   0.375
 9845TIP3    H129468   0.337   5.438   0.323
 9845TIP3    H229469   0.480   5.391   0.344
 9846TIP3   OH229470   8.128   4.982   0.794
 9846TIP3    H129471   8.077   4.929   0.855
 9846TIP3    H229472   8.164   4.919   0.731
 9847TIP3   OH229473   8.498   4.896   0.661
 9847TIP3    H129474   8.506   4.858   0.749
 9847TIP3    H229475   8.411   4.871   0.632
 9848TIP3   OH229476   4.997   1.887   5.966
 9848TIP3    H129477   5.038   1.802   5.983
 9848TIP3    H229478   4.975   1.886   5.873
 9849TIP3   OH229479   4.447   1.214   6.126
 9849TIP3    H129480   4.541   1.229   6.120
 9849TIP3    H229481   4.434   1.127   6.087
 9850TIP3   OH229482   4.339   1.797   6.582
 9850TIP3    H129483   4.274   1.743   6.537
 9850TIP3    H229484   4.384   1.737   6.641
 9851TIP3   OH229485   4.482   1.629   6.748
 9851TIP3    H129486   4.467   1.566   6.819
 9851TIP3    H229487   4.535   1.697   6.788
 9852TIP3   OH229488   6.207   2.064   6.552
 9852TIP3    H129489   6.240   2.078   6.640
 9852TIP3    H229490   6.281   2.087   6.495
 9853TIP3   OH229491   6.242   2.066   6.835
 9853TIP3    H129492   6.193   1.985   6.826
 9853TIP3    H229493   6.309   2.047   6.900
 9854TIP3   OH229494   0.620   5.776   0.464
 9854TIP3    H129495   0.547   5.780   0.526
 9854TIP3    H229496   0.662   5.862   0.472
 9855TIP3   OH229497   6.108   1.288   6.016
 9855TIP3    H129498   6.168   1.355   5.985
 9855TIP3    H229499   6.149   1.254   6.096
 9856TIP3   OH229500   6.233   1.176   6.235
 9856TIP3    H129501   6.166   1.158   6.301
 9856TIP3    H229502   6.301   1.224   6.282
 9857TIP3   OH229503   6.287   1.540   6.651
 9857TIP3    H129504   6.341   1.470   6.615
 9857TIP3    H229505   6.295   1.612   6.588
 9858TIP3   OH229506   6.099   1.827   6.844
 9858TIP3    H129507   6.030   1.869   6.895
 9858TIP3    H229508   6.054   1.786   6.770
 9859TIP3   OH229509   6.156   1.069   5.854
 9859TIP3    H129510   6.086   1.068   5.789
 9859TIP3    H229511   6.139   1.148   5.906
 9860TIP3   OH229512   5.989   0.753   5.794
 9860TIP3    H129513   5.995   0.816   5.723
 9860TIP3    H229514   5.998   0.668   5.752
 9861TIP3   OH229515   6.025   1.084   6.392
 9861TIP3    H129516   6.028   0.992   6.365
 9861TIP3    H229517   6.014   1.081   6.487
 9862TIP3   OH229518   7.504   5.107   0.149
 9862TIP3    H129519   7.494   5.061   0.065
 9862TIP3    H229520   7.596   5.092   0.172
 9863TIP3   OH229521   0.642   5.424   0.270
 9863TIP3    H129522   0.708   5.355   0.263
 9863TIP3    H229523   0.647   5.471   0.187
 9864TIP3   OH229524   0.816   5.217   0.276
 9864TIP3    H129525   0.744   5.163   0.310
 9864TIP3    H229526   0.895   5.167   0.298
 9865TIP3   OH229527   6.015   0.835   6.255
 9865TIP3    H129528   6.084   0.822   6.320
 9865TIP3    H229529   6.061   0.835   6.171
 9866TIP3   OH229530   6.181   0.867   6.782
 9866TIP3    H129531   6.259   0.891   6.733
 9866TIP3    H229532   6.191   0.911   6.867
 9867TIP3   OH229533   0.573   5.048   0.049
 9867TIP3    H129534   0.503   5.083   0.104
 9867TIP3    H229535   0.612   5.125   0.008
 9868TIP3   OH229536   7.735   4.741   0.754
 9868TIP3    H129537   7.764   4.749   0.845
 9868TIP3    H229538   7.755   4.650   0.730
 9869TIP3   OH229539   7.449   4.746   0.219
 9869TIP3    H129540   7.503   4.747   0.139
 9869TIP3    H229541   7.513   4.744   0.290
 9870TIP3   OH229542   5.811   1.940   6.209
 9870TIP3    H129543   5.856   1.923   6.126
 9870TIP3    H229544   5.829   2.032   6.227
 9871TIP3   OH229545   7.726   5.749   0.584
 9871TIP3    H129546   7.709   5.669   0.534
 9871TIP3    H229547   7.746   5.718   0.672
 9872TIP3   OH229548   7.919   5.789   0.182
 9872TIP3    H129549   7.869   5.864   0.150
 9872TIP3    H229550   8.004   5.797   0.139
 9873TIP3   OH229551   8.324   6.024   0.332
 9873TIP3    H129552   8.361   6.017   0.420
 9873TIP3    H229553   8.387   6.075   0.283
 9874TIP3   OH229554   0.014   6.176   0.203
 9874TIP3    H129555   0.076   6.122   0.153
 9874TIP3    H229556   0.069   6.233   0.257
 9875TIP3   OH229557   7.579   6.024   0.233
 9875TIP3    H129558   7.490   6.048   0.205
 9875TIP3    H229559   7.605   6.092   0.294
 9876TIP3   OH229560   7.811   6.022   0.084
 9876TIP3    H129561   7.727   6.025   0.131
 9876TIP3    H229562   7.790   6.048  -0.005
 9877TIP3   OH229563   5.395   2.036   6.821
 9877TIP3    H129564   5.322   2.049   6.761
 9877TIP3    H229565   5.409   2.121   6.862
 9878TIP3   OH229566   5.659   1.967   6.872
 9878TIP3    H129567   5.568   1.984   6.849
 9878TIP3    H229568   5.709   2.033   6.823
 9879TIP3   OH229569   5.861   2.143   6.773
 9879TIP3    H129570   5.860   2.231   6.734
 9879TIP3    H229571   5.890   2.086   6.701
 9880TIP3   OH229572   4.661   1.811   6.891
 9880TIP3    H129573   4.685   1.788   6.980
 9880TIP3    H229574   4.732   1.775   6.837
 9881TIP3   OH229575   4.862   1.690   6.756
 9881TIP3    H129576   4.875   1.606   6.801
 9881TIP3    H229577   4.949   1.730   6.754
 9882TIP3   OH229578   5.131   1.780   6.781
 9882TIP3    H129579   5.148   1.686   6.767
 9882TIP3    H229580   5.187   1.804   6.855
 9883TIP3   OH229581   4.428   1.600   6.289
 9883TIP3    H129582   4.345   1.564   6.258
 9883TIP3    H229583   4.429   1.690   6.255
 9884TIP3   OH229584   5.938   1.881   5.970
 9884TIP3    H129585   5.927   1.786   5.964
 9884TIP3    H229586   5.890   1.916   5.895
 9885TIP3   OH229587   4.531   1.602   5.940
 9885TIP3    H129588   4.541   1.605   6.035
 9885TIP3    H229589   4.610   1.557   5.909
 9886TIP3   OH229590   0.480   6.046   0.219
 9886TIP3    H129591   0.406   6.014   0.167
 9886TIP3    H229592   0.465   6.140   0.227
 9887TIP3   OH229593   7.413   1.421   5.924
 9887TIP3    H129594   7.391   1.507   5.888
 9887TIP3    H229595   7.334   1.368   5.910
 9888TIP3   OH229596   7.422   1.426   6.282
 9888TIP3    H129597   7.427   1.435   6.377
 9888TIP3    H229598   7.364   1.351   6.269
 9889TIP3   OH229599   6.720   1.257   6.657
 9889TIP3    H129600   6.758   1.217   6.735
 9889TIP3    H229601   6.793   1.302   6.614
 9890TIP3   OH229602   7.691   1.725   6.003
 9890TIP3    H129603   7.635   1.689   6.071
 9890TIP3    H229604   7.721   1.809   6.038
 9891TIP3   OH229605   6.668   1.722   6.402
 9891TIP3    H129606   6.684   1.642   6.351
 9891TIP3    H229607   6.750   1.736   6.450
 9892TIP3   OH229608   6.370   0.962   6.132
 9892TIP3    H129609   6.335   1.043   6.167
 9892TIP3    H229610   6.293   0.907   6.116
 9893TIP3   OH229611   6.475   1.282   6.333
 9893TIP3    H129612   6.531   1.209   6.360
 9893TIP3    H229613   6.533   1.341   6.285
 9894TIP3   OH229614   7.341   2.158   6.011
 9894TIP3    H129615   7.371   2.094   5.946
 9894TIP3    H229616   7.325   2.107   6.090
 9895TIP3   OH229617   7.218   1.647   6.340
 9895TIP3    H129618   7.237   1.581   6.274
 9895TIP3    H229619   7.304   1.683   6.363
 9896TIP3   OH229620   7.627   1.139   6.433
 9896TIP3    H129621   7.636   1.044   6.420
 9896TIP3    H229622   7.559   1.166   6.372
 9897TIP3   OH229623   7.029   0.723   6.298
 9897TIP3    H129624   6.955   0.780   6.317
 9897TIP3    H229625   7.004   0.638   6.334
 9898TIP3   OH229626   7.573   0.847   6.026
 9898TIP3    H129627   7.667   0.830   6.028
 9898TIP3    H229628   7.560   0.900   5.948
 9899TIP3   OH229629   6.627   1.092   6.456
 9899TIP3    H129630   6.657   1.143   6.531
 9899TIP3    H229631   6.704   1.043   6.427
 9900TIP3   OH229632   7.144   1.202   6.162
 9900TIP3    H129633   7.152   1.186   6.256
 9900TIP3    H229634   7.053   1.180   6.142
 9901TIP3   OH229635   7.331   1.634   5.769
 9901TIP3    H129636   7.291   1.606   5.687
 9901TIP3    H229637   7.279   1.710   5.797
 9902TIP3   OH229638   7.082   1.571   6.570
 9902TIP3    H129639   7.015   1.635   6.592
 9902TIP3    H229640   7.121   1.604   6.489
 9903TIP3   OH229641   6.795   0.929   6.625
 9903TIP3    H129642   6.868   0.987   6.647
 9903TIP3    H229643   6.812   0.902   6.534
 9904TIP3   OH229644   6.901   1.767   6.650
 9904TIP3    H129645   6.890   1.859   6.626
 9904TIP3    H229646   6.823   1.746   6.703
 9905TIP3   OH229647   6.297   1.463   5.912
 9905TIP3    H129648   6.264   1.478   5.823
 9905TIP3    H229649   6.320   1.550   5.944
 9906TIP3   OH229650   7.729   1.977   6.132
 9906TIP3    H129651   7.642   1.967   6.172
 9906TIP3    H229652   7.725   2.060   6.085
 9907TIP3   OH229653   7.435   2.002   5.801
 9907TIP3    H129654   7.488   1.924   5.786
 9907TIP3    H229655   7.491   2.075   5.774
 9908TIP3   OH229656   7.576   1.774   5.754
 9908TIP3    H129657   7.505   1.710   5.749
 9908TIP3    H229658   7.628   1.747   5.829
 9909TIP3   OH229659   7.942   1.864   6.499
 9909TIP3    H129660   7.944   1.788   6.442
 9909TIP3    H229661   7.943   1.939   6.439
 9910TIP3   OH229662   7.229   1.268   5.756
 9910TIP3    H129663   7.149   1.314   5.733
 9910TIP3    H229664   7.282   1.271   5.676
 9911TIP3   OH229665   7.215   1.100   5.451
 9911TIP3    H129666   7.285   1.154   5.487
 9911TIP3    H229667   7.249   1.010   5.457
 9912TIP3   OH229668   8.154   1.502   6.325
 9912TIP3    H129669   8.072   1.552   6.326
 9912TIP3    H229670   8.192   1.521   6.239
 9913TIP3   OH229671   7.601   1.362   5.730
 9913TIP3    H129672   7.543   1.383   5.804
 9913TIP3    H229673   7.688   1.354   5.769
 9914TIP3   OH229674   7.868   1.409   6.484
 9914TIP3    H129675   7.930   1.481   6.489
 9914TIP3    H229676   7.807   1.435   6.414
 9915TIP3   OH229677   6.963   1.754   6.281
 9915TIP3    H129678   6.914   1.673   6.265
 9915TIP3    H229679   7.053   1.725   6.295
 9916TIP3   OH229680   6.939   1.342   6.503
 9916TIP3    H129681   6.896   1.366   6.420
 9916TIP3    H229682   6.992   1.419   6.525
 9917TIP3   OH229683   7.494   1.956   6.265
 9917TIP3    H129684   7.480   2.033   6.320
 9917TIP3    H229685   7.481   1.882   6.324
 9918TIP3   OH229686   7.100   1.862   6.823
 9918TIP3    H129687   7.037   1.921   6.866
 9918TIP3    H229688   7.046   1.809   6.765
 9919TIP3   OH229689   7.437   1.223   5.559
 9919TIP3    H129690   7.496   1.279   5.610
 9919TIP3    H229691   7.470   1.229   5.470
 9920TIP3   OH229692   6.857   1.447   6.917
 9920TIP3    H129693   6.852   1.534   6.957
 9920TIP3    H229694   6.768   1.413   6.926
 9921TIP3   OH229695   7.194   1.870   5.812
 9921TIP3    H129696   7.271   1.926   5.814
 9921TIP3    H229697   7.127   1.921   5.766
 9922TIP3   OH229698   6.896   2.028   6.908
 9922TIP3    H129699   6.870   2.038   6.816
 9922TIP3    H229700   6.813   2.010   6.954
 9923TIP3   OH229701   7.765   1.817   5.147
 9923TIP3    H129702   7.760   1.912   5.135
 9923TIP3    H229703   7.856   1.794   5.127
 9924TIP3   OH229704   6.484   1.584   6.848
 9924TIP3    H129705   6.415   1.562   6.785
 9924TIP3    H229706   6.518   1.499   6.876
 9925TIP3   OH229707   6.385   1.750   6.484
 9925TIP3    H129708   6.474   1.734   6.453
 9925TIP3    H229709   6.393   1.825   6.544
 9926TIP3   OH229710   8.180   2.254   6.520
 9926TIP3    H129711   8.203   2.162   6.509
 9926TIP3    H229712   8.099   2.252   6.571
 9927TIP3   OH229713   7.289   1.997   6.674
 9927TIP3    H129714   7.290   2.090   6.700
 9927TIP3    H229715   7.219   1.959   6.726
 9928TIP3   OH229716   7.075   2.110   5.635
 9928TIP3    H129717   7.031   2.090   5.552
 9928TIP3    H229718   7.038   2.194   5.662
 9929TIP3   OH229719   6.511   1.961   6.007
 9929TIP3    H129720   6.555   1.953   6.092
 9929TIP3    H229721   6.463   1.879   5.997
 9930TIP3   OH229722   7.276   2.030   5.261
 9930TIP3    H129723   7.330   1.961   5.223
 9930TIP3    H229724   7.314   2.045   5.348
 9931TIP3   OH229725   7.326   2.072   5.533
 9931TIP3    H129726   7.241   2.079   5.576
 9931TIP3    H229727   7.385   2.038   5.601
 9932TIP3   OH229728   6.679   1.774   6.815
 9932TIP3    H129729   6.728   1.762   6.896
 9932TIP3    H229730   6.609   1.709   6.820
 9933TIP3   OH229731   7.521   1.222   5.303
 9933TIP3    H129732   7.469   1.221   5.223
 9933TIP3    H229733   7.603   1.265   5.277
 9934TIP3   OH229734   7.018   1.123   6.642
 9934TIP3    H129735   6.983   1.133   6.731
 9934TIP3    H229736   6.993   1.203   6.597
 9935TIP3   OH229737   6.909   1.059   6.098
 9935TIP3    H129738   6.814   1.048   6.104
 9935TIP3    H229739   6.927   1.052   6.004
 9936TIP3   OH229740   7.372   1.097   5.912
 9936TIP3    H129741   7.312   1.162   5.875
 9936TIP3    H229742   7.422   1.065   5.837
 9937TIP3   OH229743   7.522   1.199   6.114
 9937TIP3    H129744   7.492   1.289   6.122
 9937TIP3    H229745   7.455   1.155   6.063
 9938TIP3   OH229746   6.847   1.108   6.863
 9938TIP3    H129747   6.861   1.133   6.954
 9938TIP3    H229748   6.847   1.012   6.865
 9939TIP3   OH229749   6.516   0.794   5.972
 9939TIP3    H129750   6.490   0.718   6.025
 9939TIP3    H229751   6.466   0.867   6.009
 9940TIP3   OH229752   7.474   1.374   6.553
 9940TIP3    H129753   7.466   1.288   6.511
 9940TIP3    H229754   7.562   1.373   6.591
 9941TIP3   OH229755   6.655   0.949   6.157
 9941TIP3    H129756   6.565   0.980   6.159
 9941TIP3    H229757   6.648   0.855   6.143
 9942TIP3   OH229758   6.959   0.986   5.823
 9942TIP3    H129759   7.049   0.959   5.843
 9942TIP3    H229760   6.906   0.908   5.842
 9943TIP3   OH229761   6.700   1.021   5.665
 9943TIP3    H129762   6.611   1.018   5.700
 9943TIP3    H229763   6.701   0.954   5.597
 9944TIP3   OH229764   7.906   2.557   6.638
 9944TIP3    H129765   7.903   2.587   6.548
 9944TIP3    H229766   7.969   2.615   6.681
 9945TIP3   OH229767   1.161   5.704   0.104
 9945TIP3    H129768   1.240   5.726   0.152
 9945TIP3    H229769   1.093   5.694   0.171
 9946TIP3   OH229770   7.356   1.165   6.368
 9946TIP3    H129771   7.378   1.094   6.308
 9946TIP3    H229772   7.320   1.121   6.445
 9947TIP3   OH229773   7.292   1.043   6.600
 9947TIP3    H129774   7.206   1.044   6.641
 9947TIP3    H229775   7.352   1.073   6.669
 9948TIP3   OH229776   6.984   1.402   5.707
 9948TIP3    H129777   6.914   1.455   5.669
 9948TIP3    H229778   6.980   1.420   5.801
 9949TIP3   OH229779   7.920   1.652   6.321
 9949TIP3    H129780   7.954   1.704   6.248
 9949TIP3    H229781   7.837   1.617   6.288
 9950TIP3   OH229782   7.360   0.871   5.477
 9950TIP3    H129783   7.338   0.792   5.527
 9950TIP3    H229784   7.454   0.883   5.490
 9951TIP3   OH229785   7.425   1.747   6.688
 9951TIP3    H129786   7.414   1.701   6.771
 9951TIP3    H229787   7.373   1.828   6.698
 9952TIP3   OH229788   7.522   0.993   5.713
 9952TIP3    H129789   7.600   1.027   5.758
 9952TIP3    H229790   7.508   1.054   5.641
 9953TIP3   OH229791   7.163   1.558   5.555
 9953TIP3    H129792   7.122   1.644   5.550
 9953TIP3    H229793   7.102   1.506   5.608
 9954TIP3   OH229794   0.926   5.374   0.046
 9954TIP3    H129795   0.958   5.372   0.136
 9954TIP3    H229796   0.862   5.303   0.041
 9955TIP3   OH229797   1.658   5.507   0.046
 9955TIP3    H129798   1.641   5.480  -0.044
 9955TIP3    H229799   1.647   5.428   0.097
 9956TIP3   OH229800   7.564   2.009   6.573
 9956TIP3    H129801   7.474   1.979   6.572
 9956TIP3    H229802   7.573   2.059   6.654
 9957TIP3   OH229803   7.926   1.108   5.492
 9957TIP3    H129804   7.867   1.067   5.429
 9957TIP3    H229805   7.941   1.196   5.457
 9958TIP3   OH229806   7.682   1.880   5.412
 9958TIP3    H129807   7.654   1.807   5.467
 9958TIP3    H229808   7.701   1.840   5.327
 9959TIP3   OH229809   7.693   1.496   6.264
 9959TIP3    H129810   7.599   1.482   6.261
 9959TIP3    H229811   7.728   1.437   6.197
 9960TIP3   OH229812   6.793   1.711   5.909
 9960TIP3    H129813   6.788   1.804   5.888
 9960TIP3    H229814   6.754   1.704   5.997
 9961TIP3   OH229815   6.392   1.052   5.712
 9961TIP3    H129816   6.434   1.136   5.728
 9961TIP3    H229817   6.313   1.053   5.766
 9962TIP3   OH229818   6.936   1.478   5.962
 9962TIP3    H129819   6.902   1.566   5.948
 9962TIP3    H229820   6.910   1.456   6.052
 9963TIP3   OH229821   7.106   2.078   6.468
 9963TIP3    H129822   7.142   2.151   6.418
 9963TIP3    H229823   7.181   2.042   6.515
 9964TIP3   OH229824   6.736   1.981   5.848
 9964TIP3    H129825   6.652   1.985   5.894
 9964TIP3    H229826   6.773   2.069   5.857
 9965TIP3   OH229827   7.476   1.722   6.422
 9965TIP3    H129828   7.461   1.725   6.517
 9965TIP3    H229829   7.557   1.671   6.413
 9966TIP3   OH229830   7.454   1.623   5.308
 9966TIP3    H129831   7.499   1.594   5.387
 9966TIP3    H229832   7.367   1.584   5.314
 9967TIP3   OH229833   7.718   2.240   6.483
 9967TIP3    H129834   7.646   2.177   6.487
 9967TIP3    H229835   7.695   2.297   6.409
 9968TIP3   OH229836   7.774   2.092   5.129
 9968TIP3    H129837   7.790   2.156   5.060
 9968TIP3    H229838   7.709   2.133   5.186
 9969TIP3   OH229839   7.612   1.536   5.512
 9969TIP3    H129840   7.601   1.485   5.592
 9969TIP3    H229841   7.707   1.551   5.506
 9970TIP3   OH229842   6.527   1.963   6.639
 9970TIP3    H129843   6.579   1.899   6.688
 9970TIP3    H229844   6.543   2.046   6.683
 9971TIP3   OH229845   6.821   1.594   5.353
 9971TIP3    H129846   6.826   1.505   5.318
 9971TIP3    H229847   6.819   1.582   5.448
 9972TIP3   OH229848   6.787   1.601   5.644
 9972TIP3    H129849   6.783   1.609   5.740
 9972TIP3    H229850   6.780   1.692   5.613
 9973TIP3   OH229851   6.488   1.298   5.776
 9973TIP3    H129852   6.440   1.338   5.848
 9973TIP3    H229853   6.502   1.369   5.714
 9974TIP3   OH229854   7.032   1.794   5.540
 9974TIP3    H129855   6.944   1.815   5.573
 9974TIP3    H229856   7.054   1.868   5.483
 9975TIP3   OH229857   7.200   0.888   5.906
 9975TIP3    H129858   7.259   0.963   5.915
 9975TIP3    H229859   7.198   0.849   5.993
 9976TIP3   OH229860   7.460   1.145   6.790
 9976TIP3    H129861   7.497   1.233   6.784
 9976TIP3    H229862   7.533   1.090   6.821
 9977TIP3   OH229863   6.772   1.871   5.599
 9977TIP3    H129864   6.749   1.939   5.535
 9977TIP3    H229865   6.755   1.911   5.684
 9978TIP3   OH229866   7.788   1.272   6.118
 9978TIP3    H129867   7.704   1.231   6.140
 9978TIP3    H229868   7.850   1.236   6.181
 9979TIP3   OH229869   6.498   1.502   5.586
 9979TIP3    H129870   6.559   1.576   5.588
 9979TIP3    H229871   6.532   1.445   5.517
 9980TIP3   OH229872   6.319   0.800   5.612
 9980TIP3    H129873   6.328   0.890   5.645
 9980TIP3    H229874   6.288   0.751   5.688
 9981TIP3   OH229875   7.742   2.244   6.044
 9981TIP3    H129876   7.702   2.297   5.975
 9981TIP3    H229877   7.836   2.251   6.028
 9982TIP3   OH229878   6.336   1.737   5.983
 9982TIP3    H129879   6.290   1.774   6.058
 9982TIP3    H229880   6.295   1.778   5.907
 9983TIP3   OH229881   0.862   6.280   0.113
 9983TIP3    H129882   0.945   6.280   0.161
 9983TIP3    H229883   0.839   6.187   0.106
 9984TIP3   OH229884   1.327   6.192   0.171
 9984TIP3    H129885   1.417   6.211   0.146
 9984TIP3    H229886   1.292   6.138   0.099
 9985TIP3   OH229887   6.964   1.791   5.220
 9985TIP3    H129888   6.922   1.722   5.270
 9985TIP3    H229889   7.039   1.749   5.178
 9986TIP3   OH229890   7.568   2.145   6.811
 9986TIP3    H129891   7.580   2.079   6.879
 9986TIP3    H229892   7.642   2.206   6.823
 9987TIP3   OH229893   7.410   1.829   5.132
 9987TIP3    H129894   7.443   1.765   5.195
 9987TIP3    H229895   7.471   1.824   5.059
 9988TIP3   OH229896   0.969   5.671   0.300
 9988TIP3    H129897   0.986   5.577   0.311
 9988TIP3    H229898   0.883   5.676   0.260
 9989TIP3   OH229899   6.602   1.308   5.423
 9989TIP3    H129900   6.623   1.228   5.472
 9989TIP3    H229901   6.678   1.322   5.366
 9990TIP3   OH229902   1.596   5.772   0.080
 9990TIP3    H129903   1.544   5.795   0.003
 9990TIP3    H229904   1.617   5.679   0.068
 9991TIP3   OH229905   7.197   1.516   5.284
 9991TIP3    H129906   7.176   1.523   5.377
 9991TIP3    H229907   7.179   1.425   5.262
 9992TIP3   OH229908   7.756   1.776   6.686
 9992TIP3    H129909   7.827   1.806   6.629
 9992TIP3    H229910   7.678   1.820   6.652
 9993TIP3   OH229911   1.086   5.407   0.280
 9993TIP3    H129912   1.157   5.350   0.251
 9993TIP3    H229913   1.105   5.425   0.372
 9994TIP3   OH229914   7.087   1.302   6.887
 9994TIP3    H129915   7.006   1.354   6.890
 9994TIP3    H229916   7.143   1.348   6.824
 9995TIP3   OH229917   6.951   1.095   5.514
 9995TIP3    H129918   6.909   1.078   5.430
 9995TIP3    H229919   7.045   1.100   5.493
 9996TIP3   OH229920   7.742   1.319   5.167
 9996TIP3    H129921   7.721   1.284   5.080
 9996TIP3    H229922   7.720   1.412   5.161
 9997TIP3   OH229923   7.217   1.057   6.894
 9997TIP3    H129924   7.305   1.085   6.869
 9997TIP3    H229925   7.164   1.136   6.888
 9998TIP3   OH229926   7.265   1.437   6.723
 9998TIP3    H129927   7.335   1.415   6.662
 9998TIP3    H229928   7.202   1.486   6.671
 9999TIP3   OH229929   1.314   5.182   0.172
 9999TIP3    H129930   1.353   5.095   0.171
 9999TIP3    H229931   1.362   5.232   0.106
10000TIP3   OH229932   6.761   2.081   5.421
10000TIP3    H129933   6.853   2.067   5.399
10000TIP3    H229934   6.726   2.128   5.346
10001TIP3   OH229935   6.231   1.477   5.642
10001TIP3    H129936   6.322   1.496   5.620
10001TIP3    H229937   6.210   1.398   5.592
10002TIP3   OH229938   6.143   2.043   6.057
10002TIP3    H129939   6.080   1.987   6.013
10002TIP3    H229940   6.186   1.986   6.121
10003TIP3   OH229941   6.279   1.884   6.240
10003TIP3    H129942   6.273   1.814   6.305
10003TIP3    H229943   6.327   1.954   6.284
10004TIP3   OH229944   8.013   2.280   6.025
10004TIP3    H129945   8.039   2.314   6.110
10004TIP3    H229946   8.075   2.320   5.963
10005TIP3   OH229947   8.022   2.330   6.304
10005TIP3    H129948   7.975   2.247   6.297
10005TIP3    H229949   8.093   2.312   6.366
10006TIP3   OH229950   7.887   1.557   5.503
10006TIP3    H129951   7.946   1.619   5.460
10006TIP3    H229952   7.935   1.528   5.580
10007TIP3   OH229953   8.034   1.458   5.711
10007TIP3    H129954   7.962   1.424   5.764
10007TIP3    H229955   8.096   1.494   5.774
10008TIP3   OH229956   8.069   1.789   6.142
10008TIP3    H129957   8.125   1.725   6.097
10008TIP3    H229958   8.075   1.868   6.088
10009TIP3   OH229959   7.897   2.084   6.329
10009TIP3    H129960   7.824   2.117   6.381
10009TIP3    H229961   7.854   2.038   6.256
10010TIP3   OH229962   7.946   1.339   5.350
10010TIP3    H129963   7.880   1.333   5.281
10010TIP3    H229964   7.921   1.416   5.400
10011TIP3   OH229965   7.781   1.026   5.271
10011TIP3    H129966   7.762   1.107   5.225
10011TIP3    H229967   7.782   0.959   5.203
10012TIP3   OH229968   7.848   1.328   5.856
10012TIP3    H129969   7.888   1.244   5.833
10012TIP3    H229970   7.834   1.322   5.951
10013TIP3   OH229971   6.461   1.332   6.607
10013TIP3    H129972   6.454   1.316   6.513
10013TIP3    H229973   6.553   1.319   6.627
10014TIP3   OH229974   7.944   1.082   5.763
10014TIP3    H129975   7.882   1.011   5.778
10014TIP3    H229976   7.941   1.097   5.668
10015TIP3   OH229977   7.980   1.197   6.295
10015TIP3    H129978   8.074   1.207   6.275
10015TIP3    H229979   7.967   1.247   6.375
10016TIP3   OH229980   0.990   5.008   0.318
10016TIP3    H129981   1.079   5.021   0.350
10016TIP3    H229982   0.970   4.917   0.340
10017TIP3   OH229983   6.424   0.985   6.708
10017TIP3    H129984   6.489   1.005   6.641
10017TIP3    H229985   6.428   1.059   6.768
10018TIP3   OH229986   7.578   2.208   5.707
10018TIP3    H129987   7.630   2.188   5.629
10018TIP3    H229988   7.620   2.285   5.744
10019TIP3   OH229989   1.003   6.007   0.126
10019TIP3    H129990   0.912   5.988   0.102
10019TIP3    H229991   1.007   5.989   0.220
10020TIP3   OH229992   6.883   2.042   6.624
10020TIP3    H129993   6.829   2.114   6.593
10020TIP3    H229994   6.964   2.050   6.575
10021TIP3   OH229995   7.278   2.269   6.750
10021TIP3    H129996   7.314   2.276   6.838
10021TIP3    H229997   7.340   2.318   6.695
10022TIP3   OH229998   7.468   2.425   6.620
10022TIP3    H129999   7.526   2.373   6.565
10022TIP3    H230000   7.526   2.484   6.669
10023TIP3   OH230001   6.546   2.288   6.668
10023TIP3    H130002   6.455   2.308   6.644
10023TIP3    H230003   6.567   2.353   6.735
10024TIP3   OH230004   6.774   2.271   6.517
10024TIP3    H130005   6.691   2.278   6.563
10024TIP3    H230006   6.753   2.294   6.426
10025TIP3   OH230007   7.191   2.286   6.305
10025TIP3    H130008   7.119   2.294   6.241
10025TIP3    H230009   7.200   2.374   6.342
10026TIP3   OH230010   7.455   2.222   6.357
10026TIP3    H130011   7.364   2.240   6.334
10026TIP3    H230012   7.505   2.285   6.304
10027TIP3   OH230013   7.658   2.394   6.258
10027TIP3    H130014   7.654   2.483   6.221
10027TIP3    H230015   7.687   2.340   6.184
10028TIP3   OH230016   6.451   2.062   6.389
10028TIP3    H130017   6.477   2.033   6.476
10028TIP3    H230018   6.520   2.031   6.331
10029TIP3   OH230019   6.654   1.950   6.245
10029TIP3    H130020   6.661   1.868   6.292
10029TIP3    H230021   6.743   1.985   6.243
10030TIP3   OH230022   6.925   2.027   6.260
10030TIP3    H130023   6.940   1.933   6.246
10030TIP3    H230024   6.979   2.049   6.336
10031TIP3   OH230025   6.222   1.858   5.765
10031TIP3    H130026   6.138   1.829   5.727
10031TIP3    H230027   6.232   1.947   5.732
10032TIP3   OH230028   7.022   2.016   5.365
10032TIP3    H130029   7.107   2.042   5.327
10032TIP3    H230030   6.992   1.946   5.307
10033TIP3   OH230031   7.721   2.142   5.486
10033TIP3    H130032   7.713   2.050   5.462
10033TIP3    H230033   7.693   2.190   5.408
10034TIP3   OH230034   6.325   1.860   5.412
10034TIP3    H130035   6.321   1.881   5.505
10034TIP3    H230036   6.406   1.809   5.402
10035TIP3   OH230037   7.935   2.285   6.651
10035TIP3    H130038   7.866   2.254   6.593
10035TIP3    H230039   7.931   2.381   6.645
10036TIP3   OH230040  -0.015   1.980   5.911
10036TIP3    H130041  -0.013   1.896   5.864
10036TIP3    H230042   0.067   1.983   5.959
10037TIP3   OH230043   8.238   1.251   5.704
10037TIP3    H130044   8.153   1.288   5.680
10037TIP3    H230045   8.272   1.213   5.623
10038TIP3   OH230046   8.295   1.484   5.833
10038TIP3    H130047   8.285   1.392   5.807
10038TIP3    H230048   8.330   1.527   5.756
10039TIP3   OH230049   8.077   1.705   5.372
10039TIP3    H130050   8.042   1.728   5.286
10039TIP3    H230051   8.094   1.789   5.414
10040TIP3   OH230052   8.281   1.813   6.327
10040TIP3    H130053   8.206   1.822   6.268
10040TIP3    H230054   8.263   1.733   6.377
10041TIP3   OH230055   8.126   2.017   6.002
10041TIP3    H130056   8.215   2.040   5.976
10041TIP3    H230057   8.083   2.101   6.017
10042TIP3   OH230058   8.288   2.240   5.522
10042TIP3    H130059   8.366   2.221   5.575
10042TIP3    H230060   8.220   2.185   5.560
10043TIP3   OH230061   8.323   1.111   5.484
10043TIP3    H130062   8.318   1.115   5.389
10043TIP3    H230063   8.271   1.034   5.508
10044TIP3   OH230064   8.196   1.314   5.239
10044TIP3    H130065   8.246   1.396   5.242
10044TIP3    H230066   8.113   1.335   5.283
10045TIP3   OH230067   8.320   2.245   6.103
10045TIP3    H130068   8.382   2.179   6.132
10045TIP3    H230069   8.356   2.328   6.135
10046TIP3   OH230070   8.298   1.570   5.270
10046TIP3    H130071   8.231   1.607   5.328
10046TIP3    H230072   8.307   1.634   5.200
10047TIP3   OH230073   8.299   1.778   5.085
10047TIP3    H130074   8.322   1.861   5.127
10047TIP3    H230075   8.345   1.780   5.001
10048TIP3   OH230076   8.072   1.104   5.122
10048TIP3    H130077   8.116   1.177   5.166
10048TIP3    H230078   8.068   1.035   5.188
10049TIP3   OH230079   8.117   1.956   5.463
10049TIP3    H130080   8.106   2.010   5.541
10049TIP3    H230081   8.093   2.014   5.390
10050TIP3   OH230082   8.302   2.505   6.531
10050TIP3    H130083   8.364   2.491   6.602
10050TIP3    H230084   8.258   2.421   6.520
10051TIP3   OH230085   8.025   1.732   5.093
10051TIP3    H130086   8.120   1.743   5.090
10051TIP3    H230087   8.010   1.644   5.059
10052TIP3   OH230088   8.093   2.125   5.685
10052TIP3    H130089   8.008   2.097   5.719
10052TIP3    H230090   8.125   2.189   5.749
10053TIP3   OH230091   8.256   1.592   6.081
10053TIP3    H130092   8.265   1.548   5.996
10053TIP3    H230093   8.343   1.628   6.098
10054TIP3   OH230094   8.323   2.522   6.188
10054TIP3    H130095   8.254   2.569   6.142
10054TIP3    H230096   8.286   2.504   6.275
10055TIP3   OH230097   0.046   2.484   6.024
10055TIP3    H130098  -0.024   2.510   6.083
10055TIP3    H230099   0.031   2.536   5.945
10056TIP3   OH230100   8.236   2.307   5.852
10056TIP3    H130101   8.266   2.290   5.941
10056TIP3    H230102   8.310   2.282   5.796
10057TIP3   OH230103   8.463   2.201   5.744
10057TIP3    H130104   8.465   2.118   5.792
10057TIP3    H230105   8.545   2.244   5.769
10058TIP3   OH230106   8.031   2.102   5.242
10058TIP3    H130107   7.942   2.077   5.220
10058TIP3    H230108   8.034   2.197   5.229
10059TIP3   OH230109   8.072   2.136   4.947
10059TIP3    H130110   8.033   2.209   4.994
10059TIP3    H230111   8.109   2.080   5.015
10060TIP3   OH230112   4.433   6.428   0.080
10060TIP3    H130113   4.434   6.522   0.060
10060TIP3    H230114   4.367   6.420   0.150
10061TIP3   OH230115   4.514   6.468   0.423
10061TIP3    H130116   4.502   6.411   0.499
10061TIP3    H230117   4.478   6.418   0.350
10062TIP3   OH230118   4.786   6.759   0.150
10062TIP3    H130119   4.787   6.689   0.215
10062TIP3    H230120   4.815   6.837   0.198
10063TIP3   OH230121   3.750   6.821   0.635
10063TIP3    H130122   3.701   6.799   0.713
10063TIP3    H230123   3.823   6.758   0.634
10064TIP3   OH230124   3.510   6.336   0.591
10064TIP3    H130125   3.500   6.241   0.581
10064TIP3    H230126   3.603   6.352   0.573
10065TIP3   OH230127   4.433   7.231   0.194
10065TIP3    H130128   4.473   7.166   0.137
10065TIP3    H230129   4.372   7.181   0.249
10066TIP3   OH230130   4.383   6.717   0.442
10066TIP3    H130131   4.448   6.648   0.429
10066TIP3    H230132   4.418   6.770   0.512
10067TIP3   OH230133   5.317   6.009   0.463
10067TIP3    H130134   5.361   6.015   0.547
10067TIP3    H230135   5.376   6.053   0.402
10068TIP3   OH230136   4.706   6.161   0.541
10068TIP3    H130137   4.743   6.155   0.629
10068TIP3    H230138   4.752   6.236   0.501
10069TIP3   OH230139   4.108   5.857   0.561
10069TIP3    H130140   4.050   5.922   0.601
10069TIP3    H230141   4.057   5.817   0.492
10070TIP3   OH230142   4.746   5.943   0.131
10070TIP3    H130143   4.795   5.933   0.213
10070TIP3    H230144   4.814   5.960   0.065
10071TIP3   OH230145   4.145   6.235   0.459
10071TIP3    H130146   4.229   6.192   0.443
10071TIP3    H230147   4.080   6.168   0.436
10072TIP3   OH230148   5.356   6.175   0.869
10072TIP3    H130149   5.294   6.220   0.813
10072TIP3    H230150   5.430   6.236   0.877
10073TIP3   OH230151   1.559   2.669   6.936
10073TIP3    H130152   1.520   2.663   6.848
10073TIP3    H230153   1.526   2.752   6.970
10074TIP3   OH230154   4.927   6.018   0.341
10074TIP3    H130155   4.919   5.968   0.423
10074TIP3    H230156   4.997   6.080   0.358
10075TIP3   OH230157   3.414   6.535   0.081
10075TIP3    H130158   3.329   6.542   0.037
10075TIP3    H230159   3.445   6.625   0.088
10076TIP3   OH230160   4.827   6.996   0.285
10076TIP3    H130161   4.743   7.006   0.330
10076TIP3    H230162   4.846   7.083   0.250
10077TIP3   OH230163   4.988   5.824   0.822
10077TIP3    H130164   5.021   5.913   0.811
10077TIP3    H230165   5.061   5.775   0.860
10078TIP3   OH230166   1.698   3.042   6.954
10078TIP3    H130167   1.741   2.961   6.927
10078TIP3    H230168   1.759   3.111   6.931
10079TIP3   OH230169   1.830   2.823   6.858
10079TIP3    H130170   1.805   2.739   6.820
10079TIP3    H230171   1.879   2.800   6.938
10080TIP3   OH230172   5.063   6.906   0.659
10080TIP3    H130173   5.044   6.820   0.620
10080TIP3    H230174   5.014   6.968   0.607
10081TIP3   OH230175   5.176   6.533   0.446
10081TIP3    H130176   5.101   6.589   0.467
10081TIP3    H230177   5.234   6.589   0.395
10082TIP3   OH230178   1.854   2.377   6.879
10082TIP3    H130179   1.809   2.393   6.962
10082TIP3    H230180   1.941   2.346   6.905
10083TIP3   OH230181   4.880   6.470   0.935
10083TIP3    H130182   4.882   6.562   0.909
10083TIP3    H230183   4.850   6.423   0.857
10084TIP3   OH230184   3.925   6.381   0.353
10084TIP3    H130185   3.926   6.360   0.260
10084TIP3    H230186   4.009   6.350   0.386
10085TIP3   OH230187   3.991   6.689   0.627
10085TIP3    H130188   4.016   6.634   0.552
10085TIP3    H230189   4.057   6.759   0.628
10086TIP3   OH230190   3.958   6.314   0.748
10086TIP3    H130191   3.965   6.219   0.752
10086TIP3    H230192   4.046   6.343   0.724
10087TIP3   OH230193   4.598   7.035   0.432
10087TIP3    H130194   4.571   7.127   0.431
10087TIP3    H230195   4.655   7.028   0.509
10088TIP3   OH230196   1.638   2.315   6.719
10088TIP3    H130197   1.723   2.344   6.752
10088TIP3    H230198   1.654   2.294   6.627
10089TIP3   OH230199   4.286   6.921   0.048
10089TIP3    H130200   4.362   6.980   0.044
10089TIP3    H230201   4.217   6.968   0.002
10090TIP3   OH230202   2.207   1.478   6.768
10090TIP3    H130203   2.129   1.500   6.819
10090TIP3    H230204   2.223   1.555   6.714
10091TIP3   OH230205   3.787   6.218   0.139
10091TIP3    H130206   3.724   6.275   0.094
10091TIP3    H230207   3.761   6.222   0.231
10092TIP3   OH230208   2.019   2.855   6.336
10092TIP3    H130209   2.014   2.949   6.318
10092TIP3    H230210   2.110   2.831   6.318
10093TIP3   OH230211   5.232   7.244   0.651
10093TIP3    H130212   5.274   7.169   0.693
10093TIP3    H230213   5.143   7.215   0.632
10094TIP3   OH230214   4.335   7.087   0.923
10094TIP3    H130215   4.357   7.177   0.945
10094TIP3    H230216   4.256   7.068   0.973
10095TIP3   OH230217   1.326   3.154   6.808
10095TIP3    H130218   1.282   3.135   6.725
10095TIP3    H230219   1.294   3.241   6.832
10096TIP3   OH230220   3.523   7.025   0.198
10096TIP3    H130221   3.583   7.020   0.273
10096TIP3    H230222   3.484   6.938   0.194
10097TIP3   OH230223   1.530   3.083   6.437
10097TIP3    H130224   1.579   3.010   6.401
10097TIP3    H230225   1.566   3.096   6.524
10098TIP3   OH230226   1.579   3.131   6.708
10098TIP3    H130227   1.492   3.134   6.747
10098TIP3    H230228   1.635   3.093   6.776
10099TIP3   OH230229   1.758   2.228   6.475
10099TIP3    H130230   1.720   2.232   6.388
10099TIP3    H230231   1.841   2.276   6.467
10100TIP3   OH230232   1.537   1.609   6.767
10100TIP3    H130233   1.494   1.619   6.852
10100TIP3    H230234   1.479   1.552   6.717
10101TIP3   OH230235   3.952   6.070   0.360
10101TIP3    H130236   3.928   5.983   0.390
10101TIP3    H230237   3.949   6.064   0.264
10102TIP3   OH230238   4.443   6.153   0.014
10102TIP3    H130239   4.496   6.187   0.086
10102TIP3    H230240   4.503   6.101  -0.038
10103TIP3   OH230241   4.664   6.193   0.218
10103TIP3    H130242   4.593   6.195   0.281
10103TIP3    H230243   4.680   6.100   0.203
10104TIP3   OH230244   1.156   1.645   6.722
10104TIP3    H130245   1.142   1.634   6.816
10104TIP3    H230246   1.077   1.690   6.692
10105TIP3   OH230247   4.653   6.401   0.786
10105TIP3    H130248   4.690   6.473   0.737
10105TIP3    H230249   4.614   6.441   0.863
10106TIP3   OH230250   4.360   5.751   0.475
10106TIP3    H130251   4.265   5.760   0.476
10106TIP3    H230252   4.389   5.795   0.555
10107TIP3   OH230253   3.854   5.833   0.431
10107TIP3    H130254   3.765   5.868   0.434
10107TIP3    H230255   3.846   5.753   0.379
10108TIP3   OH230256   3.984   5.919   0.107
10108TIP3    H130257   4.045   5.991   0.093
10108TIP3    H230258   3.911   5.937   0.047
10109TIP3   OH230259   4.757   5.948   0.753
10109TIP3    H130260   4.828   5.915   0.807
10109TIP3    H230261   4.704   5.871   0.733
10110TIP3   OH230262   0.975   1.958   6.849
10110TIP3    H130263   0.914   1.896   6.808
10110TIP3    H230264   1.038   1.979   6.780
10111TIP3   OH230265   5.042   7.571   0.935
10111TIP3    H130266   4.975   7.587   0.869
10111TIP3    H230267   5.090   7.654   0.941
10112TIP3   OH230268   4.380   6.052   0.552
10112TIP3    H130269   4.445   5.987   0.578
10112TIP3    H230270   4.319   6.056   0.626
10113TIP3   OH230271   3.907   5.563   0.552
10113TIP3    H130272   3.851   5.507   0.499
10113TIP3    H230273   3.992   5.519   0.555
10114TIP3   OH230274   1.337   2.368   6.868
10114TIP3    H130275   1.256   2.325   6.841
10114TIP3    H230276   1.309   2.438   6.927
10115TIP3   OH230277   4.966   6.725   0.462
10115TIP3    H130278   5.011   6.782   0.400
10115TIP3    H230279   4.903   6.677   0.409
10116TIP3   OH230280   1.777   1.738   6.786
10116TIP3    H130281   1.686   1.709   6.787
10116TIP3    H230282   1.772   1.833   6.795
10117TIP3   OH230283   1.803   2.022   6.800
10117TIP3    H130284   1.889   2.016   6.841
10117TIP3    H230285   1.817   2.080   6.725
10118TIP3   OH230286   3.776   6.418   0.577
10118TIP3    H130287   3.824   6.411   0.495
10118TIP3    H230288   3.837   6.386   0.644
10119TIP3   OH230289   1.402   2.611   6.712
10119TIP3    H130290   1.359   2.697   6.712
10119TIP3    H230291   1.341   2.554   6.759
10120TIP3   OH230292   4.595   7.090   0.773
10120TIP3    H130293   4.552   7.138   0.843
10120TIP3    H230294   4.673   7.052   0.813
10121TIP3   OH230295   2.219   2.119   6.663
10121TIP3    H130296   2.157   2.079   6.603
10121TIP3    H230297   2.224   2.210   6.636
10122TIP3   OH230298   5.305   6.998   0.737
10122TIP3    H130299   5.213   6.972   0.749
10122TIP3    H230300   5.332   6.954   0.657
10123TIP3   OH230301   1.942   2.937   6.601
10123TIP3    H130302   1.910   2.877   6.668
10123TIP3    H230303   1.957   2.882   6.524
10124TIP3   OH230304   4.764   6.562   0.342
10124TIP3    H130305   4.681   6.524   0.373
10124TIP3    H230306   4.820   6.487   0.325
10125TIP3   OH230307   3.983   6.833   0.090
10125TIP3    H130308   3.931   6.909   0.063
10125TIP3    H230309   3.996   6.844   0.184
10126TIP3   OH230310   0.576   2.137   6.869
10126TIP3    H130311   0.643   2.205   6.880
10126TIP3    H230312   0.499   2.185   6.836
10127TIP3   OH230313   4.054   6.570   0.081
10127TIP3    H130314   4.057   6.666   0.078
10127TIP3    H230315   3.963   6.549   0.098
10128TIP3   OH230316   4.272   7.157   0.596
10128TIP3    H130317   4.256   7.247   0.566
10128TIP3    H230318   4.199   7.138   0.654
10129TIP3   OH230319   3.782   7.041   0.086
10129TIP3    H130320   3.692   7.063   0.110
10129TIP3    H230321   3.829   7.125   0.090
10130TIP3   OH230322   4.614   6.775   0.800
10130TIP3    H130323   4.533   6.724   0.789
10130TIP3    H230324   4.679   6.727   0.749
10131TIP3   OH230325   1.707   2.660   6.489
10131TIP3    H130326   1.752   2.637   6.570
10131TIP3    H230327   1.622   2.616   6.495
10132TIP3   OH230328   4.751   7.316   0.690
10132TIP3    H130329   4.693   7.240   0.682
10132TIP3    H230330   4.755   7.353   0.602
10133TIP3   OH230331   2.019   3.130   6.298
10133TIP3    H130332   2.035   3.188   6.223
10133TIP3    H230333   1.948   3.172   6.346
10134TIP3   OH230334   1.870   2.586   6.701
10134TIP3    H130335   1.865   2.515   6.765
10134TIP3    H230336   1.964   2.596   6.685
10135TIP3   OH230337   1.086   2.626   6.506
10135TIP3    H130338   1.086   2.533   6.480
10135TIP3    H230339   1.059   2.625   6.598
10136TIP3   OH230340   1.003   2.646   6.770
10136TIP3    H130341   1.023   2.616   6.859
10136TIP3    H230342   1.004   2.742   6.777
10137TIP3   OH230343   0.750   2.333   6.937
10137TIP3    H130344   0.693   2.393   6.986
10137TIP3    H230345   0.785   2.387   6.866
10138TIP3   OH230346   1.271   2.845   6.721
10138TIP3    H130347   1.185   2.864   6.761
10138TIP3    H230348   1.286   2.920   6.663
10139TIP3   OH230349   4.296   5.908   0.061
10139TIP3    H130350   4.320   5.991   0.020
10139TIP3    H230351   4.263   5.932   0.147
10140TIP3   OH230352   4.484   5.642   0.251
10140TIP3    H130353   4.443   5.681   0.328
10140TIP3    H230354   4.577   5.640   0.272
10141TIP3   OH230355   1.005   2.921   6.780
10141TIP3    H130356   0.995   2.986   6.710
10141TIP3    H230357   0.974   2.966   6.859
10142TIP3   OH230358   3.991   5.651   0.057
10142TIP3    H130359   3.993   5.746   0.066
10142TIP3    H230360   4.083   5.625   0.060
10143TIP3   OH230361   4.891   6.331   0.284
10143TIP3    H130362   4.822   6.265   0.278
10143TIP3    H230363   4.960   6.288   0.335
10144TIP3   OH230364   0.745   2.533   6.733
10144TIP3    H130365   0.804   2.607   6.749
10144TIP3    H230366   0.796   2.472   6.679
10145TIP3   OH230367   0.712   1.807   6.810
10145TIP3    H130368   0.697   1.872   6.879
10145TIP3    H230369   0.695   1.723   6.852
10146TIP3   OH230370   4.851   7.271   0.254
10146TIP3    H130371   4.795   7.324   0.197
10146TIP3    H230372   4.940   7.297   0.232
10147TIP3   OH230373   3.383   6.786   0.226
10147TIP3    H130374   3.306   6.762   0.277
10147TIP3    H230375   3.349   6.803   0.138
10148TIP3   OH230376   1.219   2.836   6.394
10148TIP3    H130377   1.175   2.764   6.439
10148TIP3    H230378   1.294   2.795   6.350
10149TIP3   OH230379   1.655   2.871   6.316
10149TIP3    H130380   1.695   2.807   6.375
10149TIP3    H230381   1.712   2.870   6.238
10150TIP3   OH230382   0.899   2.333   6.630
10150TIP3    H130383   0.956   2.313   6.704
10150TIP3    H230384   0.959   2.344   6.556
10151TIP3   OH230385   1.457   2.531   6.457
10151TIP3    H130386   1.427   2.556   6.544
10151TIP3    H230387   1.433   2.439   6.449
10152TIP3   OH230388   4.880   6.740   0.910
10152TIP3    H130389   4.932   6.745   0.830
10152TIP3    H230390   4.798   6.784   0.888
10153TIP3   OH230391   1.084   2.258   6.832
10153TIP3    H130392   1.048   2.231   6.916
10153TIP3    H230393   1.104   2.176   6.787
10154TIP3   OH230394   1.166   2.051   6.670
10154TIP3    H130395   1.129   2.062   6.582
10154TIP3    H230396   1.260   2.045   6.656
10155TIP3   OH230397   1.977   2.362   6.368
10155TIP3    H130398   1.968   2.323   6.281
10155TIP3    H230399   1.957   2.455   6.355
10156TIP3   OH230400   1.012   3.119   6.595
10156TIP3    H130401   1.105   3.110   6.573
10156TIP3    H230402   0.975   3.167   6.522
10157TIP3   OH230403   0.472   2.517   6.736
10157TIP3    H130404   0.566   2.527   6.748
10157TIP3    H230405   0.459   2.424   6.720
10158TIP3   OH230406   3.174   7.064   0.098
10158TIP3    H130407   3.097   7.019   0.134
10158TIP3    H230408   3.229   7.081   0.174
10159TIP3   OH230409   3.222   7.000   0.604
10159TIP3    H130410   3.311   6.968   0.590
10159TIP3    H230411   3.208   7.063   0.534
10160TIP3   OH230412   5.106   7.354   0.233
10160TIP3    H130413   5.120   7.399   0.316
10160TIP3    H230414   5.165   7.398   0.172
10161TIP3   OH230415   5.096   7.436   0.495
10161TIP3    H130416   5.050   7.353   0.508
10161TIP3    H230417   5.172   7.431   0.553
10162TIP3   OH230418   2.150   2.585   6.679
10162TIP3    H130419   2.207   2.655   6.646
10162TIP3    H230420   2.202   2.544   6.749
10163TIP3   OH230421   2.301   2.439   6.856
10163TIP3    H130422   2.237   2.395   6.912
10163TIP3    H230423   2.360   2.482   6.917
10164TIP3   OH230424   5.146   6.861   0.313
10164TIP3    H130425   5.217   6.805   0.282
10164TIP3    H230426   5.158   6.943   0.266
10165TIP3   OH230427   4.983   7.182   0.515
10165TIP3    H130428   4.911   7.134   0.555
10165TIP3    H230429   4.973   7.168   0.421
10166TIP3   OH230430   2.198   2.358   6.531
10166TIP3    H130431   2.122   2.353   6.472
10166TIP3    H230432   2.183   2.437   6.582
10167TIP3   OH230433   2.044   2.016   6.484
10167TIP3    H130434   2.004   2.055   6.405
10167TIP3    H230435   2.039   1.922   6.469
10168TIP3   OH230436   4.932   6.285   0.022
10168TIP3    H130437   4.940   6.189   0.021
10168TIP3    H230438   4.924   6.307   0.115
10169TIP3   OH230439   5.187   6.775   0.911
10169TIP3    H130440   5.127   6.704   0.933
10169TIP3    H230441   5.147   6.853   0.949
10170TIP3   OH230442   5.359   6.464   0.987
10170TIP3    H130443   5.339   6.453   1.080
10170TIP3    H230444   5.454   6.466   0.983
10171TIP3   OH230445   2.014   1.747   6.442
10171TIP3    H130446   2.082   1.715   6.501
10171TIP3    H230447   1.935   1.699   6.468
10172TIP3   OH230448   2.096   1.995   6.877
10172TIP3    H130449   2.149   1.916   6.886
10172TIP3    H230450   2.138   2.045   6.807
10173TIP3   OH230451   5.096   6.218   0.422
10173TIP3    H130452   5.187   6.243   0.405
10173TIP3    H230453   5.100   6.167   0.504
10174TIP3   OH230454   5.184   6.299   0.697
10174TIP3    H130455   5.125   6.309   0.772
10174TIP3    H230456   5.219   6.387   0.683
10175TIP3   OH230457   5.069   5.758  -0.012
10175TIP3    H130458   5.037   5.779   0.076
10175TIP3    H230459   5.097   5.667  -0.006
10176TIP3   OH230460   2.243   1.688   6.594
10176TIP3    H130461   2.287   1.629   6.533
10176TIP3    H230462   2.300   1.765   6.598
10177TIP3   OH230463   1.846   3.247   6.868
10177TIP3    H130464   1.894   3.235   6.786
10177TIP3    H230465   1.880   3.330   6.903
10178TIP3   OH230466   3.894   6.962   0.825
10178TIP3    H130467   3.843   6.936   0.748
10178TIP3    H230468   3.951   7.032   0.794
10179TIP3   OH230469   4.627   7.516   0.844
10179TIP3    H130470   4.693   7.459   0.804
10179TIP3    H230471   4.673   7.556   0.918
10180TIP3   OH230472   3.842   7.357   0.756
10180TIP3    H130473   3.776   7.365   0.824
10180TIP3    H230474   3.806   7.292   0.695
10181TIP3   OH230475   4.323   7.413   0.452
10181TIP3    H130476   4.262   7.407   0.378
10181TIP3    H230477   4.297   7.492   0.498
10182TIP3   OH230478   4.555   7.292   0.483
10182TIP3    H130479   4.471   7.331   0.458
10182TIP3    H230480   4.620   7.347   0.439
10183TIP3   OH230481   4.762   7.461   0.437
10183TIP3    H130482   4.764   7.545   0.391
10183TIP3    H230483   4.807   7.400   0.378
10184TIP3   OH230484   3.458   7.185   0.657
10184TIP3    H130485   3.483   7.184   0.749
10184TIP3    H230486   3.468   7.095   0.628
10185TIP3   OH230487   3.701   6.942   0.398
10185TIP3    H130488   3.718   6.886   0.474
10185TIP3    H230489   3.787   6.960   0.361
10186TIP3   OH230490   4.055   7.112   0.376
10186TIP3    H130491   4.017   7.027   0.352
10186TIP3    H230492   4.143   7.090   0.406
10187TIP3   OH230493   4.645   5.695   0.683
10187TIP3    H130494   4.615   5.609   0.652
10187TIP3    H230495   4.635   5.752   0.607
10188TIP3   OH230496   5.127   5.650   0.405
10188TIP3    H130497   5.199   5.680   0.349
10188TIP3    H230498   5.145   5.688   0.490
10189TIP3   OH230499   5.281   5.753   0.216
10189TIP3    H130500   5.331   5.710   0.146
10189TIP3    H230501   5.281   5.845   0.193
10190TIP3   OH230502   4.235   5.495   0.377
10190TIP3    H130503   4.328   5.494   0.397
10190TIP3    H230504   4.193   5.464   0.458
10191TIP3   OH230505   4.739   5.637   0.418
10191TIP3    H130506   4.784   5.721   0.430
10191TIP3    H230507   4.748   5.592   0.502
10192TIP3   OH230508   1.967   1.574   6.915
10192TIP3    H130509   1.928   1.654   6.879
10192TIP3    H230510   2.024   1.605   6.985
10193TIP3   OH230511   0.483   2.829   6.907
10193TIP3    H130512   0.459   2.790   6.823
10193TIP3    H230513   0.476   2.923   6.893
10194TIP3   OH230514   4.266   5.641   0.077
10194TIP3    H130515   4.337   5.623   0.140
10194TIP3    H230516   4.268   5.736   0.066
10195TIP3   OH230517   1.275   3.060   6.540
10195TIP3    H130518   1.357   3.090   6.502
10195TIP3    H230519   1.246   2.990   6.482
10196TIP3   OH230520   1.978   3.203   6.632
10196TIP3    H130521   1.972   3.108   6.623
10196TIP3    H230522   1.933   3.237   6.555
10197TIP3   OH230523   0.555   2.890   6.602
10197TIP3    H130524   0.554   2.957   6.671
10197TIP3    H230525   0.645   2.859   6.601
10198TIP3   OH230526   4.991   7.322   0.807
10198TIP3    H130527   4.909   7.314   0.757
10198TIP3    H230528   5.009   7.416   0.808
10199TIP3   OH230529   3.469   2.717   6.562
10199TIP3    H130530   3.434   2.805   6.546
10199TIP3    H230531   3.395   2.658   6.543
10200TIP3   OH230532   6.297   6.733   0.043
10200TIP3    H130533   6.344   6.725   0.126
10200TIP3    H230534   6.264   6.644   0.026
10201TIP3   OH230535   5.598   6.585   0.353
10201TIP3    H130536   5.626   6.505   0.399
10201TIP3    H230537   5.659   6.652   0.383
10202TIP3   OH230538   3.732   3.023   6.662
10202TIP3    H130539   3.722   2.957   6.731
10202TIP3    H230540   3.753   3.104   6.709
10203TIP3   OH230541   5.587   7.009   0.088
10203TIP3    H130542   5.571   6.915   0.099
10203TIP3    H230543   5.682   7.016   0.082
10204TIP3   OH230544   2.458   2.212   6.803
10204TIP3    H130545   2.422   2.300   6.817
10204TIP3    H230546   2.384   2.162   6.770
10205TIP3   OH230547   5.350   6.550   0.055
10205TIP3    H130548   5.393   6.472   0.089
10205TIP3    H230549   5.422   6.612   0.039
10206TIP3   OH230550   3.387   3.458   6.672
10206TIP3    H130551   3.415   3.389   6.612
10206TIP3    H230552   3.391   3.417   6.759
10207TIP3   OH230553   6.115   6.952   0.052
10207TIP3    H130554   6.161   6.872   0.027
10207TIP3    H230555   6.183   7.009   0.086
10208TIP3   OH230556   7.138   6.276   0.060
10208TIP3    H130557   7.157   6.356   0.107
10208TIP3    H230558   7.162   6.294  -0.031
10209TIP3   OH230559   6.517   6.429   0.096
10209TIP3    H130560   6.563   6.349   0.123
10209TIP3    H230561   6.482   6.408   0.010
10210TIP3   OH230562   5.819   6.110   0.018
10210TIP3    H130563   5.727   6.135   0.015
10210TIP3    H230564   5.823   6.025  -0.027
10211TIP3   OH230565   3.732   2.185   6.619
10211TIP3    H130566   3.798   2.182   6.688
10211TIP3    H230567   3.778   2.221   6.543
10212TIP3   OH230568   5.472   6.330   0.157
10212TIP3    H130569   5.560   6.324   0.193
10212TIP3    H230570   5.466   6.258   0.095
10213TIP3   OH230571   3.119   2.487   6.895
10213TIP3    H130572   3.212   2.506   6.912
10213TIP3    H230573   3.113   2.392   6.900
10214TIP3   OH230574   7.196   6.483   0.238
10214TIP3    H130575   7.112   6.527   0.229
10214TIP3    H230576   7.236   6.523   0.316
10215TIP3   OH230577   5.856   6.123   0.455
10215TIP3    H130578   5.824   6.203   0.413
10215TIP3    H230579   5.848   6.140   0.549
10216TIP3   OH230580   3.328   2.927   6.450
10216TIP3    H130581   3.318   2.923   6.355
10216TIP3    H230582   3.291   3.012   6.475
10217TIP3   OH230583   5.959   6.871   0.262
10217TIP3    H130584   5.908   6.942   0.302
10217TIP3    H230585   6.012   6.914   0.195
10218TIP3   OH230586   3.909   2.217   6.822
10218TIP3    H130587   3.872   2.193   6.906
10218TIP3    H230588   3.966   2.291   6.841
10219TIP3   OH230589   5.721   6.249   0.230
10219TIP3    H130590   5.769   6.321   0.272
10219TIP3    H230591   5.787   6.204   0.177
10220TIP3   OH230592   5.805   7.073   0.366
10220TIP3    H130593   5.786   7.163   0.340
10220TIP3    H230594   5.721   7.037   0.393
10221TIP3   OH230595   2.333   2.763   6.567
10221TIP3    H130596   2.302   2.781   6.478
10221TIP3    H230597   2.356   2.849   6.602
10222TIP3   OH230598   3.768   3.270   6.802
10222TIP3    H130599   3.682   3.261   6.842
10222TIP3    H230600   3.766   3.355   6.758
10223TIP3   OH230601   6.940   6.157   0.222
10223TIP3    H130602   6.857   6.203   0.209
10223TIP3    H230603   6.997   6.191   0.153
10224TIP3   OH230604   6.185   5.775   0.125
10224TIP3    H130605   6.195   5.684   0.153
10224TIP3    H230606   6.182   5.824   0.207
10225TIP3   OH230607   3.478   3.294   6.465
10225TIP3    H130608   3.529   3.214   6.452
10225TIP3    H230609   3.537   3.364   6.437
10226TIP3   OH230610   3.630   3.074   6.410
10226TIP3    H130611   3.633   2.992   6.361
10226TIP3    H230612   3.668   3.052   6.495
10227TIP3   OH230613   6.840   7.176   0.203
10227TIP3    H130614   6.826   7.099   0.147
10227TIP3    H230615   6.826   7.251   0.145
10228TIP3   OH230616   3.293   2.552   6.415
10228TIP3    H130617   3.217   2.607   6.396
10228TIP3    H230618   3.347   2.558   6.335
10229TIP3   OH230619   3.257   2.363   6.122
10229TIP3    H130620   3.321   2.414   6.171
10229TIP3    H230621   3.309   2.299   6.073
10230TIP3   OH230622   7.028   6.831   0.071
10230TIP3    H130623   6.943   6.874   0.074
10230TIP3    H230624   7.060   6.847  -0.018
10231TIP3   OH230625   3.657   2.647   6.378
10231TIP3    H130626   3.600   2.675   6.450
10231TIP3    H230627   3.739   2.622   6.420
10232TIP3   OH230628   6.712   6.703   0.335
10232TIP3    H130629   6.718   6.783   0.388
10232TIP3    H230630   6.623   6.703   0.301
10233TIP3   OH230631   2.910   2.643   6.804
10233TIP3    H130632   2.857   2.573   6.766
10233TIP3    H230633   2.989   2.599   6.834
10234TIP3   OH230634   3.019   3.051   6.925
10234TIP3    H130635   3.005   3.036   6.832
10234TIP3    H230636   3.108   3.019   6.942
10235TIP3   OH230637   5.839   6.643   0.175
10235TIP3    H130638   5.892   6.621   0.098
10235TIP3    H230639   5.878   6.724   0.208
10236TIP3   OH230640   6.365   7.269  -0.005
10236TIP3    H130641   6.354   7.350   0.045
10236TIP3    H230642   6.352   7.199   0.060
10237TIP3   OH230643   6.018   7.173   0.517
10237TIP3    H130644   5.964   7.229   0.571
10237TIP3    H230645   5.956   7.118   0.469
10238TIP3   OH230646   3.484   2.513   6.210
10238TIP3    H130647   3.545   2.568   6.258
10238TIP3    H230648   3.512   2.519   6.119
10239TIP3   OH230649   5.730   6.774   0.502
10239TIP3    H130650   5.758   6.862   0.525
10239TIP3    H230651   5.657   6.756   0.561
10240TIP3   OH230652   3.225   3.186   6.469
10240TIP3    H130653   3.311   3.227   6.477
10240TIP3    H230654   3.171   3.250   6.423
10241TIP3   OH230655   5.799   7.340   0.600
10241TIP3    H130656   5.805   7.353   0.505
10241TIP3    H230657   5.711   7.303   0.614
10242TIP3   OH230658   3.993   1.738   6.267
10242TIP3    H130659   3.917   1.759   6.321
10242TIP3    H230660   4.005   1.814   6.210
10243TIP3   OH230661   3.813   3.113   5.820
10243TIP3    H130662   3.808   3.207   5.802
10243TIP3    H230663   3.905   3.091   5.805
10244TIP3   OH230664   5.341   6.850   0.512
10244TIP3    H130665   5.256   6.874   0.476
10244TIP3    H230666   5.371   6.777   0.458
10245TIP3   OH230667   5.229   7.093   0.200
10245TIP3    H130668   5.325   7.099   0.206
10245TIP3    H230669   5.198   7.178   0.234
10246TIP3   OH230670   7.074   7.527   0.272
10246TIP3    H130671   7.078   7.433   0.288
10246TIP3    H230672   6.993   7.556   0.315
10247TIP3   OH230673   6.179   7.336   0.364
10247TIP3    H130674   6.168   7.420   0.409
10247TIP3    H230675   6.137   7.272   0.422
10248TIP3   OH230676   3.122   3.408   6.299
10248TIP3    H130677   3.079   3.392   6.215
10248TIP3    H230678   3.088   3.493   6.327
10249TIP3   OH230679   2.553   3.264   6.670
10249TIP3    H130680   2.603   3.252   6.750
10249TIP3    H230681   2.506   3.181   6.659
10250TIP3   OH230682   3.325   3.337   5.924
10250TIP3    H130683   3.376   3.264   5.890
10250TIP3    H230684   3.360   3.351   6.012
10251TIP3   OH230685   3.377   3.384   6.194
10251TIP3    H130686   3.292   3.385   6.238
10251TIP3    H230687   3.439   3.358   6.262
10252TIP3   OH230688   6.979   6.640   0.528
10252TIP3    H130689   6.891   6.646   0.566
10252TIP3    H230690   6.993   6.547   0.515
10253TIP3   OH230691   5.563   7.004   0.466
10253TIP3    H130692   5.546   7.090   0.505
10253TIP3    H230693   5.484   6.953   0.484
10254TIP3   OH230694   5.929   5.903   0.308
10254TIP3    H130695   5.850   5.897   0.256
10254TIP3    H230696   5.928   5.993   0.343
10255TIP3   OH230697   6.488   5.948   0.518
10255TIP3    H130698   6.577   5.958   0.552
10255TIP3    H230699   6.438   6.015   0.564
10256TIP3   OH230700   6.751   6.442   0.398
10256TIP3    H130701   6.681   6.422   0.459
10256TIP3    H230702   6.736   6.534   0.373
10257TIP3   OH230703   3.567   2.499   5.948
10257TIP3    H130704   3.525   2.503   5.863
10257TIP3    H230705   3.652   2.541   5.935
10258TIP3   OH230706   3.262   1.929   6.271
10258TIP3    H130707   3.237   1.926   6.363
10258TIP3    H230708   3.231   1.846   6.235
10259TIP3   OH230709   5.917   6.421   0.312
10259TIP3    H130710   5.918   6.447   0.404
10259TIP3    H230711   5.892   6.501   0.265
10260TIP3   OH230712   2.861   2.273   6.691
10260TIP3    H130713   2.797   2.245   6.757
10260TIP3    H230714   2.945   2.269   6.736
10261TIP3   OH230715   3.431   2.357   6.550
10261TIP3    H130716   3.381   2.428   6.509
10261TIP3    H230717   3.490   2.326   6.482
10262TIP3   OH230718   6.482   6.677   0.637
10262TIP3    H130719   6.489   6.650   0.728
10262TIP3    H230720   6.572   6.694   0.610
10263TIP3   OH230721   3.589   2.371   6.782
10263TIP3    H130722   3.526   2.396   6.714
10263TIP3    H230723   3.637   2.297   6.743
10264TIP3   OH230724   5.695   6.365   0.492
10264TIP3    H130725   5.745   6.397   0.567
10264TIP3    H230726   5.628   6.309   0.530
10265TIP3   OH230727   2.936   1.914   6.250
10265TIP3    H130728   2.920   1.901   6.343
10265TIP3    H230729   2.856   1.955   6.217
10266TIP3   OH230730   5.306   6.005   0.120
10266TIP3    H130731   5.381   6.034   0.172
10266TIP3    H230732   5.345   5.969   0.040
10267TIP3   OH230733   2.401   1.920   6.600
10267TIP3    H130734   2.449   1.957   6.525
10267TIP3    H230735   2.339   1.989   6.624
10268TIP3   OH230736   6.452   6.641   0.256
10268TIP3    H130737   6.479   6.568   0.200
10268TIP3    H230738   6.400   6.600   0.325
10269TIP3   OH230739   3.276   2.134   6.897
10269TIP3    H130740   3.210   2.113   6.963
10269TIP3    H230741   3.355   2.088   6.927
10270TIP3   OH230742   2.708   2.135   6.878
10270TIP3    H130743   2.619   2.159   6.851
10270TIP3    H230744   2.713   2.041   6.858
10271TIP3   OH230745   3.033   2.178   6.470
10271TIP3    H130746   3.109   2.184   6.527
10271TIP3    H230747   3.061   2.124   6.397
10272TIP3   OH230748   6.623   6.164   0.118
10272TIP3    H130749   6.601   6.174   0.211
10272TIP3    H230750   6.580   6.083   0.092
10273TIP3   OH230751   2.781   2.227   6.327
10273TIP3    H130752   2.728   2.163   6.278
10273TIP3    H230753   2.844   2.259   6.263
10274TIP3   OH230754   6.786   7.879   0.361
10274TIP3    H130755   6.786   7.898   0.267
10274TIP3    H230756   6.863   7.924   0.394
10275TIP3   OH230757   5.801   6.970   0.692
10275TIP3    H130758   5.877   6.999   0.743
10275TIP3    H230759   5.733   7.035   0.710
10276TIP3   OH230760   6.214   6.465   0.026
10276TIP3    H130761   6.280   6.416  -0.024
10276TIP3    H230762   6.214   6.424   0.112
10277TIP3   OH230763   2.926   1.873   6.812
10277TIP3    H130764   2.867   1.811   6.854
10277TIP3    H230765   3.013   1.834   6.821
10278TIP3   OH230766   6.185   6.360   0.280
10278TIP3    H130767   6.096   6.393   0.290
10278TIP3    H230768   6.237   6.414   0.340
10279TIP3   OH230769   3.073   2.711   6.359
10279TIP3    H130770   2.988   2.684   6.324
10279TIP3    H230771   3.052   2.752   6.443
10280TIP3   OH230772   3.956   2.959   6.972
10280TIP3    H130773   3.990   3.007   6.896
10280TIP3    H230774   3.875   2.919   6.940
10281TIP3   OH230775   3.521   2.021   6.258
10281TIP3    H130776   3.427   2.005   6.258
10281TIP3    H230777   3.531   2.115   6.272
10282TIP3   OH230778   6.296   7.048   0.444
10282TIP3    H130779   6.365   7.028   0.508
10282TIP3    H230780   6.222   7.076   0.497
10283TIP3   OH230781   3.590   2.280   6.331
10283TIP3    H130782   3.685   2.283   6.342
10283TIP3    H230783   3.569   2.359   6.282
10284TIP3   OH230784   5.577   6.715   0.080
10284TIP3    H130785   5.637   6.712   0.005
10284TIP3    H230786   5.627   6.680   0.153
10285TIP3   OH230787   3.221   2.871   6.189
10285TIP3    H130788   3.171   2.953   6.191
10285TIP3    H230789   3.176   2.814   6.251
10286TIP3   OH230790   5.570   6.581   0.663
10286TIP3    H130791   5.625   6.631   0.724
10286TIP3    H230792   5.492   6.635   0.652
10287TIP3   OH230793   6.223   6.747   0.584
10287TIP3    H130794   6.171   6.776   0.658
10287TIP3    H230795   6.314   6.751   0.615
10288TIP3   OH230796   6.448   7.331   0.301
10288TIP3    H130797   6.354   7.317   0.311
10288TIP3    H230798   6.473   7.382   0.378
10289TIP3   OH230799   4.020   2.371   6.141
10289TIP3    H130800   3.954   2.328   6.087
10289TIP3    H230801   4.028   2.459   6.104
10290TIP3   OH230802   7.085   7.243   0.301
10290TIP3    H130803   6.990   7.234   0.294
10290TIP3    H230804   7.118   7.217   0.215
10291TIP3   OH230805   3.739   3.189   6.084
10291TIP3    H130806   3.712   3.119   6.143
10291TIP3    H230807   3.757   3.145   6.001
10292TIP3   OH230808   3.724   2.826   6.869
10292TIP3    H130809   3.635   2.808   6.898
10292TIP3    H230810   3.757   2.743   6.835
10293TIP3   OH230811   2.874   3.059   6.671
10293TIP3    H130812   2.872   3.135   6.613
10293TIP3    H230813   2.791   3.063   6.719
10294TIP3   OH230814   2.432   2.344   6.386
10294TIP3    H130815   2.477   2.427   6.404
10294TIP3    H230816   2.352   2.348   6.438
10295TIP3   OH230817   2.957   2.812   6.583
10295TIP3    H130818   2.939   2.902   6.608
10295TIP3    H230819   2.946   2.762   6.664
10296TIP3   OH230820   5.993   7.393   0.173
10296TIP3    H130821   6.030   7.467   0.125
10296TIP3    H230822   6.065   7.362   0.228
10297TIP3   OH230823   2.787   3.283   6.521
10297TIP3    H130824   2.700   3.291   6.561
10297TIP3    H230825   2.824   3.371   6.528
10298TIP3   OH230826   6.344   7.053   0.174
10298TIP3    H130827   6.320   7.054   0.267
10298TIP3    H230828   6.432   7.016   0.173
10299TIP3   OH230829   3.507   2.921   5.993
10299TIP3    H130830   3.562   2.902   6.070
10299TIP3    H230831   3.419   2.898   6.020
10300TIP3   OH230832   6.598   7.552   0.201
10300TIP3    H130833   6.527   7.488   0.212
10300TIP3    H230834   6.568   7.609   0.130
10301TIP3   OH230835   3.816   3.387   5.784
10301TIP3    H130836   3.838   3.449   5.714
10301TIP3    H230837   3.746   3.430   5.833
10302TIP3   OH230838   5.768   6.129   0.711
10302TIP3    H130839   5.677   6.159   0.703
10302TIP3    H230840   5.791   6.146   0.803
10303TIP3   OH230841   3.682   2.858   6.200
10303TIP3    H130842   3.667   2.785   6.261
10303TIP3    H230843   3.776   2.854   6.181
10304TIP3   OH230844   5.404   7.288   0.324
10304TIP3    H130845   5.449   7.247   0.398
10304TIP3    H230846   5.415   7.382   0.338
10305TIP3   OH230847   2.865   2.889   5.993
10305TIP3    H130848   2.876   2.798   5.967
10305TIP3    H230849   2.852   2.886   6.087
10306TIP3   OH230850   2.809   2.901   6.270
10306TIP3    H130851   2.867   2.890   6.345
10306TIP3    H230852   2.797   2.995   6.262
10307TIP3   OH230853   2.527   2.593   6.448
10307TIP3    H130854   2.472   2.636   6.514
10307TIP3    H230855   2.545   2.662   6.383
10308TIP3   OH230856   6.547   6.184   0.373
10308TIP3    H130857   6.558   6.246   0.445
10308TIP3    H230858   6.530   6.100   0.416
10309TIP3   OH230859   3.581   1.969   6.526
10309TIP3    H130860   3.565   1.990   6.434
10309TIP3    H230861   3.625   2.047   6.560
10310TIP3   OH230862   3.063   3.091   6.198
10310TIP3    H130863   2.978   3.115   6.236
10310TIP3    H230864   3.089   3.168   6.147
10311TIP3   OH230865   3.248   2.172   6.633
10311TIP3    H130866   3.316   2.234   6.607
10311TIP3    H230867   3.260   2.160   6.727
10312TIP3   OH230868   6.344   6.487   0.468
10312TIP3    H130869   6.345   6.562   0.526
10312TIP3    H230870   6.424   6.439   0.489
10313TIP3   OH230871   3.406   1.851   6.702
10313TIP3    H130872   3.431   1.894   6.783
10313TIP3    H230873   3.466   1.887   6.636
10314TIP3   OH230874   2.807   3.172   6.271
10314TIP3    H130875   2.790   3.242   6.208
10314TIP3    H230876   2.798   3.214   6.357
10315TIP3   OH230877   2.915   1.872   6.527
10315TIP3    H130878   2.897   1.878   6.621
10315TIP3    H230879   3.011   1.874   6.520
10316TIP3   OH230880   7.004   6.372   0.449
10316TIP3    H130881   6.909   6.383   0.441
10316TIP3    H230882   7.033   6.347   0.361
10317TIP3   OH230883   3.813   2.567   6.782
10317TIP3    H130884   3.737   2.511   6.801
10317TIP3    H230885   3.884   2.530   6.836
10318TIP3   OH230886   2.547   2.788   6.250
10318TIP3    H130887   2.618   2.851   6.263
10318TIP3    H230888   2.577   2.733   6.178
10319TIP3   OH230889   2.485   2.074   6.389
10319TIP3    H130890   2.479   2.169   6.399
10319TIP3    H230891   2.444   2.055   6.305
10320TIP3   OH230892   3.792   3.536   6.720
10320TIP3    H130893   3.751   3.586   6.649
10320TIP3    H230894   3.886   3.548   6.706
10321TIP3   OH230895   5.674   5.839   0.227
10321TIP3    H130896   5.649   5.793   0.147
10321TIP3    H230897   5.684   5.769   0.292
10322TIP3   OH230898   2.381   3.031   6.647
10322TIP3    H130899   2.343   3.071   6.725
10322TIP3    H230900   2.338   3.076   6.574
10323TIP3   OH230901   5.464   7.505   0.610
10323TIP3    H130902   5.530   7.533   0.673
10323TIP3    H230903   5.384   7.498   0.661
10324TIP3   OH230904   5.813   7.564   0.767
10324TIP3    H130905   5.905   7.579   0.791
10324TIP3    H230906   5.816   7.498   0.699
10325TIP3   OH230907   3.013   3.093   5.879
10325TIP3    H130908   2.970   3.021   5.924
10325TIP3    H230909   3.087   3.053   5.834
10326TIP3   OH230910   6.516   7.477   0.522
10326TIP3    H130911   6.509   7.396   0.573
10326TIP3    H230912   6.596   7.518   0.554
10327TIP3   OH230913   3.453   3.124   5.806
10327TIP3    H130914   3.493   3.061   5.866
10327TIP3    H230915   3.511   3.122   5.729
10328TIP3   OH230916   5.389   7.006   1.002
10328TIP3    H130917   5.412   6.913   1.011
10328TIP3    H230918   5.350   7.012   0.914
10329TIP3   OH230919   2.657   2.594   6.088
10329TIP3    H130920   2.697   2.542   6.158
10329TIP3    H230921   2.729   2.609   6.027
10330TIP3   OH230922   3.216   2.803   5.923
10330TIP3    H130923   3.209   2.820   6.017
10330TIP3    H230924   3.210   2.708   5.915
10331TIP3   OH230925   6.604   7.104   0.324
10331TIP3    H130926   6.683   7.141   0.285
10331TIP3    H230927   6.539   7.174   0.319
10332TIP3   OH230928   5.638   6.560   0.977
10332TIP3    H130929   5.695   6.607   0.917
10332TIP3    H230930   5.654   6.601   1.062
10333TIP3   OH230931   5.927   6.597   0.538
10333TIP3    H130932   5.861   6.663   0.519
10333TIP3    H230933   6.004   6.623   0.487
10334TIP3   OH230934   2.980   2.318   6.166
10334TIP3    H130935   2.957   2.328   6.073
10334TIP3    H230936   3.075   2.333   6.169
10335TIP3   OH230937   6.505   6.995   0.647
10335TIP3    H130938   6.575   6.971   0.586
10335TIP3    H230939   6.533   6.959   0.731
10336TIP3   OH230940   3.794   2.624   5.835
10336TIP3    H130941   3.773   2.585   5.750
10336TIP3    H230942   3.766   2.715   5.828
10337TIP3   OH230943   6.021   6.337   0.590
10337TIP3    H130944   6.089   6.404   0.586
10337TIP3    H230945   5.946   6.381   0.630
10338TIP3   OH230946   6.154   6.142   0.440
10338TIP3    H130947   6.175   6.202   0.368
10338TIP3    H230948   6.077   6.179   0.481
10339TIP3   OH230949   6.117   6.665   0.350
10339TIP3    H130950   6.173   6.698   0.420
10339TIP3    H230951   6.074   6.742   0.315
10340TIP3   OH230952   6.776   6.680   0.713
10340TIP3    H130953   6.828   6.630   0.776
10340TIP3    H230954   6.798   6.771   0.731
10341TIP3   OH230955   6.739   6.938   0.486
10341TIP3    H130956   6.689   6.996   0.428
10341TIP3    H230957   6.830   6.951   0.460
10342TIP3   OH230958   5.953   6.533   0.935
10342TIP3    H130959   5.943   6.482   1.015
10342TIP3    H230960   5.892   6.493   0.873
10343TIP3   OH230961   6.204   5.946   0.661
10343TIP3    H130962   6.218   6.033   0.623
10343TIP3    H230963   6.108   5.939   0.669
10344TIP3   OH230964   6.390   6.390   0.781
10344TIP3    H130965   6.423   6.399   0.871
10344TIP3    H230966   6.312   6.445   0.778
10345TIP3   OH230967   6.569   6.370   0.582
10345TIP3    H130968   6.499   6.381   0.646
10345TIP3    H230969   6.645   6.342   0.633
10346TIP3   OH230970   6.987   6.282   0.928
10346TIP3    H130971   6.936   6.219   0.877
10346TIP3    H230972   6.922   6.344   0.961
10347TIP3   OH230973   5.833   6.305   1.053
10347TIP3    H130974   5.877   6.222   1.038
10347TIP3    H230975   5.836   6.317   1.148
10348TIP3   OH230976   6.284   5.921   0.915
10348TIP3    H130977   6.365   5.875   0.895
10348TIP3    H230978   6.248   5.946   0.830
10349TIP3   OH230979   6.369   6.153   1.050
10349TIP3    H130980   6.354   6.090   0.980
10349TIP3    H230981   6.295   6.214   1.044
10350TIP3   OH230982   2.805   3.374   6.084
10350TIP3    H130983   2.898   3.363   6.063
10350TIP3    H230984   2.770   3.423   6.010
10351TIP3   OH230985   2.275   2.762   6.284
10351TIP3    H130986   2.368   2.781   6.273
10351TIP3    H230987   2.262   2.677   6.242
10352TIP3   OH230988   2.185   3.354   6.725
10352TIP3    H130989   2.120   3.303   6.676
10352TIP3    H230990   2.230   3.290   6.780
10353TIP3   OH230991   2.328   3.181   6.884
10353TIP3    H130992   2.325   3.120   6.958
10353TIP3    H230993   2.382   3.253   6.915
10354TIP3   OH230994   4.063   3.588   6.710
10354TIP3    H130995   4.081   3.617   6.799
10354TIP3    H230996   4.116   3.646   6.655
10355TIP3   OH230997   6.914   7.632   0.049
10355TIP3    H130998   6.866   7.549   0.045
10355TIP3    H230999   6.984   7.615   0.111
10356TIP3   OH231000   6.959   7.341   0.597
10356TIP3    H131001   6.894   7.355   0.666
10356TIP3    H231002   7.012   7.420   0.597
10357TIP3   OH231003   3.960   2.825   6.168
10357TIP3    H131004   4.019   2.894   6.139
10357TIP3    H231005   4.003   2.787   6.245
10358TIP3   OH231006   4.090   2.691   6.375
10358TIP3    H131007   4.024   2.657   6.435
10358TIP3    H231008   4.155   2.732   6.432
10359TIP3   OH231009   4.130   3.098   6.805
10359TIP3    H131010   4.183   3.030   6.763
10359TIP3    H231011   4.132   3.171   6.743
10360TIP3   OH231012   6.771   7.393   0.051
10360TIP3    H131013   6.704   7.437   0.103
10360TIP3    H231014   6.723   7.350  -0.019
10361TIP3   OH231015   4.013   2.609   6.003
10361TIP3    H131016   3.939   2.607   5.942
10361TIP3    H231017   3.996   2.684   6.060
10362TIP3   OH231018   3.841   2.269   5.961
10362TIP3    H131019   3.799   2.298   5.880
10362TIP3    H231020   3.832   2.174   5.960
10363TIP3   OH231021   3.883   2.557   6.514
10363TIP3    H131022   3.893   2.462   6.505
10363TIP3    H231023   3.863   2.570   6.607
10364TIP3   OH231024   5.352   6.673   0.296
10364TIP3    H131025   5.335   6.642   0.207
10364TIP3    H231026   5.442   6.648   0.314
10365TIP3   OH231027   7.005   6.986   0.426
10365TIP3    H131028   7.070   6.917   0.412
10365TIP3    H231029   7.033   7.056   0.367
10366TIP3   OH231030   7.181   6.776   0.415
10366TIP3    H131031   7.106   6.730   0.450
10366TIP3    H231032   7.256   6.722   0.439
10367TIP3   OH231033   3.801   2.001   5.943
10367TIP3    H131034   3.871   1.967   5.998
10367TIP3    H231035   3.724   1.949   5.966
10368TIP3   OH231036   3.875   2.274   6.388
10368TIP3    H131037   3.919   2.191   6.404
10368TIP3    H231038   3.924   2.314   6.316
10369TIP3   OH231039   4.033   2.448   6.913
10369TIP3    H131040   4.116   2.466   6.869
10369TIP3    H231041   4.044   2.485   7.000
10370TIP3   OH231042   6.946   6.602   0.199
10370TIP3    H131043   6.874   6.629   0.255
10370TIP3    H231044   6.976   6.683   0.158
10371TIP3   OH231045   5.595   6.295   0.898
10371TIP3    H131046   5.627   6.352   0.967
10371TIP3    H231047   5.606   6.207   0.932
10372TIP3   OH231048   7.439   6.178   0.705
10372TIP3    H131049   7.485   6.117   0.648
10372TIP3    H231050   7.387   6.232   0.646
10373TIP3   OH231051   3.987   2.026   6.447
10373TIP3    H131052   4.033   2.013   6.530
10373TIP3    H231053   3.926   1.952   6.442
10374TIP3   OH231054   5.525   6.057   0.285
10374TIP3    H131055   5.579   5.980   0.270
10374TIP3    H231056   5.586   6.130   0.288
10375TIP3   OH231057   5.353   6.322   0.413
10375TIP3    H131058   5.391   6.335   0.326
10375TIP3    H231059   5.300   6.400   0.428
10376TIP3   OH231060   7.259   6.318   0.556
10376TIP3    H131061   7.190   6.365   0.603
10376TIP3    H231062   7.211   6.269   0.489
10377TIP3   OH231063   4.034   1.939   6.083
10377TIP3    H131064   4.078   1.875   6.026
10377TIP3    H231065   4.095   2.013   6.087
10378TIP3   OH231066   2.493   1.822   6.835
10378TIP3    H131067   2.408   1.797   6.872
10378TIP3    H231068   2.472   1.858   6.749
10379TIP3   OH231069   3.618   3.495   6.353
10379TIP3    H131070   3.677   3.489   6.278
10379TIP3    H231071   3.656   3.564   6.407
10380TIP3   OH231072   5.418   5.953   0.714
10380TIP3    H131073   5.402   5.998   0.797
10380TIP3    H231074   5.494   5.897   0.732
10381TIP3   OH231075   5.587   7.382   0.843
10381TIP3    H131076   5.585   7.287   0.846
10381TIP3    H231077   5.678   7.404   0.863
10382TIP3   OH231078   5.775   7.348   0.327
10382TIP3    H131079   5.721   7.421   0.297
10382TIP3    H231080   5.856   7.356   0.277
10383TIP3   OH231081   6.165   7.591   0.469
10383TIP3    H131082   6.208   7.578   0.554
10383TIP3    H231083   6.229   7.639   0.417
10384TIP3   OH231084   6.361   7.735   0.344
10384TIP3    H131085   6.426   7.673   0.309
10384TIP3    H231086   6.413   7.797   0.395
10385TIP3   OH231087   7.150   6.098   0.405
10385TIP3    H131088   7.067   6.110   0.358
10385TIP3    H231089   7.171   6.005   0.391
10386TIP3   OH231090   5.421   7.558   0.347
10386TIP3    H131091   5.347   7.615   0.328
10386TIP3    H231092   5.432   7.562   0.442
10387TIP3   OH231093   5.662   7.577   0.223
10387TIP3    H131094   5.578   7.578   0.269
10387TIP3    H231095   5.641   7.604   0.134
10388TIP3   OH231096   6.073   7.606   0.020
10388TIP3    H131097   5.999   7.618  -0.040
10388TIP3    H231098   6.084   7.691   0.062
10389TIP3   OH231099   6.334   7.535   0.072
10389TIP3    H131100   6.243   7.556   0.053
10389TIP3    H231101   6.385   7.605   0.031
10390TIP3   OH231102   3.701   3.704   6.920
10390TIP3    H131103   3.700   3.791   6.880
10390TIP3    H231104   3.731   3.646   6.850
10391TIP3   OH231105   5.335   7.374   0.072
10391TIP3    H131106   5.357   7.351   0.162
10391TIP3    H231107   5.408   7.341   0.020
10392TIP3   OH231108   2.708   3.236   6.895
10392TIP3    H131109   2.717   3.156   6.947
10392TIP3    H231110   2.793   3.280   6.903
10393TIP3   OH231111   5.802   7.336  -0.016
10393TIP3    H131112   5.824   7.243  -0.027
10393TIP3    H231113   5.860   7.365   0.054
10394TIP3   OH231114   6.327   5.972  -0.003
10394TIP3    H131115   6.295   5.901   0.054
10394TIP3    H231116   6.419   5.952  -0.015
10395TIP3   OH231117   4.036   1.894   6.897
10395TIP3    H131118   4.076   1.945   6.826
10395TIP3    H231119   3.949   1.932   6.908
10396TIP3   OH231120   4.149   1.980   6.665
10396TIP3    H131121   4.219   1.919   6.641
10396TIP3    H231122   4.187   2.067   6.652
10397TIP3   OH231123   5.611   5.696   0.004
10397TIP3    H131124   5.520   5.665   0.004
10397TIP3    H231125   5.663   5.617   0.019
10398TIP3   OH231126   2.567   1.577   6.663
10398TIP3    H131127   2.603   1.622   6.586
10398TIP3    H231128   2.555   1.645   6.728
10399TIP3   OH231129   3.179   1.768   6.857
10399TIP3    H131130   3.246   1.790   6.792
10399TIP3    H231131   3.226   1.773   6.941
10400TIP3   OH231132   3.751   1.884   6.887
10400TIP3    H131133   3.779   1.853   6.801
10400TIP3    H231134   3.750   1.805   6.942
10401TIP3   OH231135   3.802   1.815   6.452
10401TIP3    H131136   3.722   1.862   6.475
10401TIP3    H231137   3.793   1.729   6.493
10402TIP3   OH231138   2.262   3.160   6.436
10402TIP3    H131139   2.178   3.130   6.401
10402TIP3    H231140   2.271   3.249   6.404
10403TIP3   OH231141   2.696   1.714   6.430
10403TIP3    H131142   2.739   1.650   6.373
10403TIP3    H231143   2.769   1.765   6.466
10404TIP3   OH231144   3.190   1.920   6.536
10404TIP3    H131145   3.251   1.860   6.579
10404TIP3    H231146   3.211   2.006   6.573
10405TIP3   OH231147   3.069   3.316   6.028
10405TIP3    H131148   3.153   3.345   5.991
10405TIP3    H231149   3.040   3.246   5.970
10406TIP3   OH231150   3.774   3.457   6.125
10406TIP3    H131151   3.767   3.362   6.116
10406TIP3    H231152   3.730   3.493   6.048
10407TIP3   OH231153   5.823   5.856   0.977
10407TIP3    H131154   5.825   5.824   1.067
10407TIP3    H231155   5.879   5.934   0.978
10408TIP3   OH231156   2.363   3.149   6.081
10408TIP3    H131157   2.367   3.181   6.171
10408TIP3    H231158   2.448   3.108   6.067
10409TIP3   OH231159   6.918   6.057   0.790
10409TIP3    H131160   6.931   6.027   0.879
10409TIP3    H231161   7.005   6.054   0.750
10410TIP3   OH231162   6.824   7.606   0.357
10410TIP3    H131163   6.748   7.575   0.309
10410TIP3    H231164   6.811   7.701   0.365
10411TIP3   OH231165   5.259   2.971   6.060
10411TIP3    H131166   5.225   3.058   6.040
10411TIP3    H231167   5.192   2.911   6.027
10412TIP3   OH231168   5.264   2.976   6.475
10412TIP3    H131169   5.314   2.956   6.555
10412TIP3    H231170   5.221   2.894   6.452
10413TIP3   OH231171   4.557   2.841   6.830
10413TIP3    H131172   4.591   2.783   6.899
10413TIP3    H231173   4.634   2.889   6.800
10414TIP3   OH231174   5.529   3.281   6.148
10414TIP3    H131175   5.516   3.214   6.216
10414TIP3    H231176   5.550   3.360   6.196
10415TIP3   OH231177   4.551   3.256   6.508
10415TIP3    H131178   4.535   3.162   6.520
10415TIP3    H231179   4.647   3.263   6.500
10416TIP3   OH231180   4.244   2.471   6.286
10416TIP3    H131181   4.204   2.552   6.319
10416TIP3    H231182   4.171   2.422   6.249
10417TIP3   OH231183   4.322   2.781   6.508
10417TIP3    H131184   4.370   2.703   6.536
10417TIP3    H231185   4.390   2.847   6.494
10418TIP3   OH231186   5.184   3.714   6.158
10418TIP3    H131187   5.211   3.649   6.093
10418TIP3    H231188   5.183   3.666   6.241
10419TIP3   OH231189   5.069   3.198   6.484
10419TIP3    H131190   5.113   3.119   6.452
10419TIP3    H231191   5.140   3.254   6.515
10420TIP3   OH231192   6.100   2.514   6.493
10420TIP3    H131193   6.116   2.601   6.528
10420TIP3    H231194   6.124   2.520   6.401
10421TIP3   OH231195   5.470   2.682   6.518
10421TIP3    H131196   5.501   2.596   6.546
10421TIP3    H231197   5.439   2.669   6.428
10422TIP3   OH231198   4.814   2.351   6.482
10422TIP3    H131199   4.800   2.420   6.417
10422TIP3    H231200   4.760   2.278   6.450
10423TIP3   OH231201   5.536   2.454   6.126
10423TIP3    H131202   5.602   2.430   6.191
10423TIP3    H231203   5.587   2.480   6.049
10424TIP3   OH231204   4.456   2.558   6.599
10424TIP3    H131205   4.536   2.541   6.648
10424TIP3    H231206   4.465   2.507   6.519
10425TIP3   OH231207   4.884   2.749   6.415
10425TIP3    H131208   4.979   2.735   6.424
10425TIP3    H231209   4.852   2.669   6.374
10426TIP3   OH231210   6.158   2.737   6.662
10426TIP3    H131211   6.070   2.771   6.654
10426TIP3    H231212   6.190   2.772   6.746
10427TIP3   OH231213   4.812   2.344   6.930
10427TIP3    H131214   4.760   2.382   6.859
10427TIP3    H231215   4.759   2.359   7.008
10428TIP3   OH231216   5.120   3.182   5.946
10428TIP3    H131217   5.108   3.169   5.852
10428TIP3    H231218   5.082   3.268   5.963
10429TIP3   OH231219   4.910   3.121   6.698
10429TIP3    H131220   4.856   3.191   6.733
10429TIP3    H231221   4.958   3.162   6.626
10430TIP3   OH231222   5.702   2.435   6.353
10430TIP3    H131223   5.646   2.436   6.430
10430TIP3    H231224   5.753   2.516   6.359
10431TIP3   OH231225   4.695   2.457   6.705
10431TIP3    H131226   4.751   2.532   6.729
10431TIP3    H231227   4.740   2.416   6.632
10432TIP3   OH231228   4.751   3.321   6.803
10432TIP3    H131229   4.736   3.411   6.772
10432TIP3    H231230   4.674   3.302   6.857
10433TIP3   OH231231   4.140   3.005   6.050
10433TIP3    H131232   4.102   3.030   5.965
10433TIP3    H231233   4.164   3.088   6.090
10434TIP3   OH231234   5.570   3.528   6.293
10434TIP3    H131235   5.483   3.520   6.331
10434TIP3    H231236   5.567   3.611   6.246
10435TIP3   OH231237   5.906   2.409   6.670
10435TIP3    H131238   5.820   2.433   6.634
10435TIP3    H231239   5.968   2.433   6.601
10436TIP3   OH231240   5.154   2.042   6.660
10436TIP3    H131241   5.148   1.949   6.682
10436TIP3    H231242   5.078   2.081   6.702
10437TIP3   OH231243   5.272   3.556   5.945
10437TIP3    H131244   5.322   3.475   5.934
10437TIP3    H231245   5.333   3.625   5.918
10438TIP3   OH231246   5.424   3.337   5.896
10438TIP3    H131247   5.435   3.263   5.836
10438TIP3    H231248   5.462   3.307   5.978
10439TIP3   OH231249   5.807   3.417   6.636
10439TIP3    H131250   5.787   3.343   6.579
10439TIP3    H231251   5.791   3.495   6.582
10440TIP3   OH231252   5.082   2.816   5.907
10440TIP3    H131253   5.006   2.869   5.886
10440TIP3    H231254   5.135   2.816   5.827
10441TIP3   OH231255   5.064   2.621   5.600
10441TIP3    H131256   5.126   2.679   5.643
10441TIP3    H231257   5.118   2.553   5.560
10442TIP3   OH231258   5.985   3.077   6.499
10442TIP3    H131259   5.901   3.122   6.498
10442TIP3    H231260   6.021   3.090   6.411
10443TIP3   OH231261   5.445   2.915   5.863
10443TIP3    H131262   5.391   2.937   5.940
10443TIP3    H231263   5.526   2.881   5.900
10444TIP3   OH231264   5.678   2.939   6.807
10444TIP3    H131265   5.675   3.022   6.855
10444TIP3    H231266   5.595   2.936   6.759
10445TIP3   OH231267   4.686   2.889   6.281
10445TIP3    H131268   4.652   2.827   6.216
10445TIP3    H231269   4.761   2.845   6.320
10446TIP3   OH231270   4.814   3.311   6.413
10446TIP3    H131271   4.794   3.297   6.321
10446TIP3    H231272   4.902   3.274   6.424
10447TIP3   OH231273   4.785   2.884   6.640
10447TIP3    H131274   4.825   2.848   6.561
10447TIP3    H231275   4.833   2.965   6.657
10448TIP3   OH231276   5.332   3.522   6.425
10448TIP3    H131277   5.320   3.601   6.477
10448TIP3    H231278   5.317   3.450   6.486
10449TIP3   OH231279   7.783   7.429   0.029
10449TIP3    H131280   7.724   7.486   0.077
10449TIP3    H231281   7.726   7.376  -0.027
10450TIP3   OH231282   5.252   2.804   5.694
10450TIP3    H131283   5.328   2.831   5.746
10450TIP3    H231284   5.281   2.815   5.603
10451TIP3   OH231285   7.541   6.985   0.147
10451TIP3    H131286   7.547   7.074   0.182
10451TIP3    H231287   7.448   6.965   0.149
10452TIP3   OH231288   5.020   3.445   5.960
10452TIP3    H131289   5.107   3.485   5.962
10452TIP3    H231290   4.967   3.506   5.908
10453TIP3   OH231291   7.573   7.588   0.115
10453TIP3    H131292   7.546   7.596   0.023
10453TIP3    H231293   7.492   7.572   0.163
10454TIP3   OH231294   5.799   1.989   5.759
10454TIP3    H131295   5.720   2.019   5.803
10454TIP3    H231296   5.834   2.068   5.716
10455TIP3   OH231297   4.543   2.729   6.092
10455TIP3    H131298   4.473   2.783   6.054
10455TIP3    H231299   4.497   2.664   6.145
10456TIP3   OH231300   5.613   3.370   5.311
10456TIP3    H131301   5.611   3.463   5.287
10456TIP3    H231302   5.702   3.342   5.289
10457TIP3   OH231303   7.164   7.145   0.060
10457TIP3    H131304   7.094   7.125  -0.003
10457TIP3    H231305   7.200   7.060   0.084
10458TIP3   OH231306   4.175   3.332   6.651
10458TIP3    H131307   4.267   3.353   6.669
10458TIP3    H231308   4.127   3.409   6.683
10459TIP3   OH231309   6.036   3.788   6.700
10459TIP3    H131310   6.043   3.693   6.710
10459TIP3    H231311   5.956   3.811   6.747
10460TIP3   OH231312   5.139   3.563   6.828
10460TIP3    H131313   5.132   3.654   6.856
10460TIP3    H231314   5.072   3.517   6.878
10461TIP3   OH231315   4.917   3.665   5.784
10461TIP3    H131316   4.875   3.645   5.700
10461TIP3    H231317   4.879   3.749   5.811
10462TIP3   OH231318   4.350   3.518   6.162
10462TIP3    H131319   4.395   3.511   6.246
10462TIP3    H231320   4.302   3.436   6.153
10463TIP3   OH231321   5.121   3.592   5.411
10463TIP3    H131322   5.171   3.518   5.376
10463TIP3    H231323   5.157   3.605   5.499
10464TIP3   OH231324   5.172   3.640   5.681
10464TIP3    H131325   5.086   3.643   5.723
10464TIP3    H231326   5.229   3.600   5.747
10465TIP3   OH231327   0.258   6.906   0.031
10465TIP3    H131328   0.175   6.915  -0.016
10465TIP3    H231329   0.277   6.812   0.028
10466TIP3   OH231330   7.368   7.328   0.033
10466TIP3    H131331   7.418   7.316   0.114
10466TIP3    H231332   7.295   7.267   0.041
10467TIP3   OH231333   4.917   2.133   6.782
10467TIP3    H131334   4.834   2.099   6.749
10467TIP3    H231335   4.894   2.212   6.831
10468TIP3   OH231336   8.296   6.259   0.043
10468TIP3    H131337   8.365   6.232   0.104
10468TIP3    H231338   8.214   6.241   0.090
10469TIP3   OH231339   5.687   2.675   6.901
10469TIP3    H131340   5.643   2.672   6.986
10469TIP3    H231341   5.669   2.764   6.868
10470TIP3   OH231342   5.340   2.820   5.437
10470TIP3    H131343   5.311   2.795   5.349
10470TIP3    H231344   5.412   2.760   5.456
10471TIP3   OH231345   5.037   2.197   5.728
10471TIP3    H131346   5.014   2.201   5.821
10471TIP3    H231347   5.025   2.105   5.704
10472TIP3   OH231348   4.855   2.664   6.793
10472TIP3    H131349   4.809   2.673   6.876
10472TIP3    H231350   4.832   2.744   6.745
10473TIP3   OH231351   4.746   2.538   6.292
10473TIP3    H131352   4.656   2.511   6.311
10473TIP3    H231353   4.760   2.510   6.201
10474TIP3   OH231354   5.225   2.607   6.026
10474TIP3    H131355   5.170   2.677   5.990
10474TIP3    H231356   5.284   2.584   5.954
10475TIP3   OH231357   8.235   6.891   0.176
10475TIP3    H131358   8.208   6.823   0.238
10475TIP3    H231359   8.327   6.908   0.196
10476TIP3   OH231360   5.381   2.636   6.263
10476TIP3    H131361   5.316   2.661   6.197
10476TIP3    H231362   5.430   2.564   6.222
10477TIP3   OH231363   7.523   6.680   0.074
10477TIP3    H131364   7.546   6.742   0.143
10477TIP3    H231365   7.507   6.598   0.120
10478TIP3   OH231366   4.712   2.138   5.715
10478TIP3    H131367   4.707   2.152   5.810
10478TIP3    H231368   4.643   2.194   5.679
10479TIP3   OH231369   4.282   2.201   6.585
10479TIP3    H131370   4.352   2.234   6.640
10479TIP3    H231371   4.326   2.169   6.506
10480TIP3   OH231372   4.203   2.163   6.093
10480TIP3    H131373   4.272   2.193   6.034
10480TIP3    H231374   4.147   2.240   6.104
10481TIP3   OH231375   5.422   2.884   6.692
10481TIP3    H131376   5.446   2.817   6.628
10481TIP3    H231377   5.380   2.836   6.763
10482TIP3   OH231378   5.076   2.316   6.393
10482TIP3    H131379   4.994   2.331   6.439
10482TIP3    H231380   5.144   2.334   6.458
10483TIP3   OH231381   4.505   2.421   6.362
10483TIP3    H131382   4.414   2.423   6.332
10483TIP3    H231383   4.530   2.328   6.356
10484TIP3   OH231384   4.795   2.428   6.037
10484TIP3    H131385   4.885   2.410   6.066
10484TIP3    H231386   4.805   2.460   5.948
10485TIP3   OH231387   5.538   2.420   6.576
10485TIP3    H131388   5.524   2.439   6.669
10485TIP3    H231389   5.471   2.356   6.554
10486TIP3   OH231390   5.746   4.125   6.797
10486TIP3    H131391   5.744   4.138   6.702
10486TIP3    H231392   5.825   4.171   6.825
10487TIP3   OH231393   7.526   7.244   0.264
10487TIP3    H131394   7.607   7.263   0.312
10487TIP3    H231395   7.457   7.248   0.330
10488TIP3   OH231396   5.154   2.699   6.469
10488TIP3    H131397   5.227   2.658   6.423
10488TIP3    H231398   5.155   2.659   6.556
10489TIP3   OH231399   4.638   2.169   6.358
10489TIP3    H131400   4.609   2.093   6.409
10489TIP3    H231401   4.677   2.131   6.279
10490TIP3   OH231402   5.122   2.603   6.738
10490TIP3    H131403   5.036   2.638   6.759
10490TIP3    H231404   5.182   2.656   6.791
10491TIP3   OH231405   4.847   2.964   5.844
10491TIP3    H131406   4.776   2.902   5.828
10491TIP3    H231407   4.826   3.003   5.929
10492TIP3   OH231408   5.749   3.214   6.459
10492TIP3    H131409   5.783   3.262   6.384
10492TIP3    H231410   5.669   3.172   6.426
10493TIP3   OH231411   5.307   2.276   5.746
10493TIP3    H131412   5.212   2.270   5.731
10493TIP3    H231413   5.326   2.370   5.741
10494TIP3   OH231414   5.265   3.296   6.867
10494TIP3    H131415   5.312   3.286   6.950
10494TIP3    H231416   5.223   3.381   6.873
10495TIP3   OH231417   5.403   2.540   5.810
10495TIP3    H131418   5.492   2.534   5.845
10495TIP3    H231419   5.415   2.567   5.719
10496TIP3   OH231420   4.544   2.958   6.508
10496TIP3    H131421   4.586   2.947   6.422
10496TIP3    H231422   4.610   2.930   6.571
10497TIP3   OH231423   5.009   3.120   5.686
10497TIP3    H131424   4.962   3.204   5.687
10497TIP3    H231425   4.956   3.062   5.740
10498TIP3   OH231426   7.271   6.921   0.190
10498TIP3    H131427   7.279   6.903   0.283
10498TIP3    H231428   7.197   6.867   0.162
10499TIP3   OH231429   8.001   7.045   0.215
10499TIP3    H131430   7.933   6.985   0.186
10499TIP3    H231431   8.083   7.004   0.187
10500TIP3   OH231432   5.411   3.581   6.749
10500TIP3    H131433   5.316   3.567   6.755
10500TIP3    H231434   5.435   3.619   6.833
10501TIP3   OH231435   5.792   2.621   5.641
10501TIP3    H131436   5.711   2.587   5.604
10501TIP3    H231437   5.802   2.708   5.602
10502TIP3   OH231438   6.052   3.511   6.722
10502TIP3    H131439   5.959   3.491   6.723
10502TIP3    H231440   6.083   3.474   6.639
10503TIP3   OH231441   5.538   3.440   5.572
10503TIP3    H131442   5.508   3.366   5.625
10503TIP3    H231443   5.557   3.401   5.486
10504TIP3   OH231444   5.520   3.078   6.357
10504TIP3    H131445   5.429   3.057   6.379
10504TIP3    H231446   5.555   2.998   6.317
10505TIP3   OH231447   4.674   3.316   6.166
10505TIP3    H131448   4.674   3.391   6.106
10505TIP3    H231449   4.585   3.311   6.199
10506TIP3   OH231450   4.749   3.066   6.074
10506TIP3    H131451   4.738   3.157   6.101
10506TIP3    H231452   4.733   3.015   6.153
10507TIP3   OH231453   4.952   3.638   6.623
10507TIP3    H131454   4.989   3.710   6.573
10507TIP3    H231455   5.025   3.603   6.673
10508TIP3   OH231456   4.584   3.539   6.013
10508TIP3    H131457   4.498   3.545   6.055
10508TIP3    H231458   4.619   3.628   6.019
10509TIP3   OH231459   5.306   3.299   6.594
10509TIP3    H131460   5.295   3.294   6.689
10509TIP3    H231461   5.380   3.240   6.575
10510TIP3   OH231462   5.304   3.178   5.476
10510TIP3    H131463   5.355   3.162   5.556
10510TIP3    H231464   5.227   3.123   5.485
10511TIP3   OH231465   5.563   3.800   6.635
10511TIP3    H131466   5.492   3.738   6.649
10511TIP3    H231467   5.533   3.856   6.564
10512TIP3   OH231468   5.613   3.644   5.268
10512TIP3    H131469   5.625   3.701   5.192
10512TIP3    H231470   5.544   3.685   5.319
10513TIP3   OH231471   7.478   6.427   0.199
10513TIP3    H131472   7.383   6.433   0.209
10513TIP3    H231473   7.508   6.378   0.275
10514TIP3   OH231474   5.475   3.136   5.697
10514TIP3    H131475   5.452   3.058   5.748
10514TIP3    H231476   5.567   3.125   5.674
10515TIP3   OH231477   4.381   3.525   6.782
10515TIP3    H131478   4.432   3.464   6.835
10515TIP3    H231479   4.394   3.610   6.824
10516TIP3   OH231480   4.646   3.143   5.476
10516TIP3    H131481   4.652   3.050   5.453
10516TIP3    H231482   4.640   3.143   5.572
10517TIP3   OH231483   4.602   3.158   5.751
10517TIP3    H131484   4.679   3.133   5.802
10517TIP3    H231485   4.599   3.253   5.756
10518TIP3   OH231486   4.297   2.817   5.886
10518TIP3    H131487   4.236   2.832   5.958
10518TIP3    H231488   4.325   2.905   5.860
10519TIP3   OH231489   5.492   2.484   6.839
10519TIP3    H131490   5.571   2.528   6.871
10519TIP3    H231491   5.483   2.407   6.894
10520TIP3   OH231492   5.393   2.233   6.008
10520TIP3    H131493   5.359   2.253   5.920
10520TIP3    H231494   5.421   2.318   6.042
10521TIP3   OH231495   4.858   3.346   5.689
10521TIP3    H131496   4.774   3.375   5.726
10521TIP3    H231497   4.885   3.418   5.633
10522TIP3   OH231498   5.055   2.404   6.126
10522TIP3    H131499   5.120   2.469   6.099
10522TIP3    H231500   5.079   2.384   6.217
10523TIP3   OH231501   5.328   2.719   6.892
10523TIP3    H131502   5.352   2.763   6.973
10523TIP3    H231503   5.379   2.638   6.892
10524TIP3   OH231504   4.606   3.431   5.762
10524TIP3    H131505   4.588   3.502   5.701
10524TIP3    H231506   4.596   3.471   5.849
10525TIP3   OH231507   4.704   2.162   5.995
10525TIP3    H131508   4.709   2.254   6.020
10525TIP3    H231509   4.794   2.131   5.996
10526TIP3   OH231510   5.952   2.624   6.885
10526TIP3    H131511   5.857   2.631   6.896
10526TIP3    H231512   5.963   2.570   6.807
10527TIP3   OH231513   5.610   2.820   6.265
10527TIP3    H131514   5.532   2.765   6.273
10527TIP3    H231515   5.676   2.776   6.318
10528TIP3   OH231516   4.348   3.044   5.736
10528TIP3    H131517   4.414   3.109   5.762
10528TIP3    H231518   4.389   2.997   5.663
10529TIP3   OH231519   5.590   3.798   6.212
10529TIP3    H131520   5.546   3.847   6.143
10529TIP3    H231521   5.683   3.809   6.196
10530TIP3   OH231522   4.657   2.046   6.740
10530TIP3    H131523   4.626   2.013   6.655
10530TIP3    H231524   4.650   1.971   6.799
10531TIP3   OH231525   4.179   3.283   6.136
10531TIP3    H131526   4.137   3.321   6.213
10531TIP3    H231527   4.137   3.327   6.062
10532TIP3   OH231528   7.211   7.841   0.266
10532TIP3    H131529   7.292   7.847   0.315
10532TIP3    H231530   7.194   7.747   0.257
10533TIP3   OH231531   7.676   7.759   0.306
10533TIP3    H131532   7.767   7.733   0.319
10533TIP3    H231533   7.645   7.702   0.235
10534TIP3   OH231534   4.807   3.345   5.371
10534TIP3    H131535   4.761   3.272   5.413
10534TIP3    H231536   4.882   3.305   5.328
10535TIP3   OH231537   8.302   7.692   0.055
10535TIP3    H131538   8.311   7.623   0.120
10535TIP3    H231539   8.376   7.751   0.072
10536TIP3   OH231540   5.250   3.380   5.294
10536TIP3    H131541   5.283   3.315   5.356
10536TIP3    H231542   5.308   3.372   5.218
10537TIP3   OH231543   7.318   7.243   0.451
10537TIP3    H131544   7.342   7.150   0.459
10537TIP3    H231545   7.231   7.242   0.411
10538TIP3   OH231546   4.461   2.796   5.634
10538TIP3    H131547   4.532   2.800   5.698
10538TIP3    H231548   4.505   2.808   5.549
10539TIP3   OH231549   7.938   7.324   0.233
10539TIP3    H131550   7.892   7.345   0.152
10539TIP3    H231551   7.970   7.235   0.220
10540TIP3   OH231552   5.022   3.059   5.418
10540TIP3    H131553   5.014   3.071   5.513
10540TIP3    H231554   5.019   2.964   5.406
10541TIP3   OH231555   5.581   3.356   6.788
10541TIP3    H131556   5.658   3.385   6.740
10541TIP3    H231557   5.515   3.422   6.770
10542TIP3   OH231558   7.430   6.990   0.452
10542TIP3    H131559   7.495   6.927   0.421
10542TIP3    H231560   7.460   7.014   0.540
10543TIP3   OH231561   4.649   2.765   5.826
10543TIP3    H131562   4.646   2.735   5.916
10543TIP3    H231563   4.704   2.701   5.781
10544TIP3   OH231564   7.790   6.862   0.113
10544TIP3    H131565   7.708   6.910   0.121
10544TIP3    H231566   7.827   6.892   0.030
10545TIP3   OH231567   4.792   2.598   5.662
10545TIP3    H131568   4.760   2.590   5.572
10545TIP3    H231569   4.888   2.602   5.653
10546TIP3   OH231570   8.291   7.245   0.208
10546TIP3    H131571   8.361   7.205   0.156
10546TIP3    H231572   8.287   7.190   0.287
10547TIP3   OH231573   5.622   2.904   5.299
10547TIP3    H131574   5.573   2.843   5.244
10547TIP3    H231575   5.573   2.986   5.294
10548TIP3   OH231576   7.899   6.635   0.223
10548TIP3    H131577   7.902   6.564   0.159
10548TIP3    H231578   7.863   6.709   0.175
10549TIP3   OH231579   5.072   2.427   6.963
10549TIP3    H131580   5.098   2.467   6.880
10549TIP3    H231581   4.980   2.402   6.950
10550TIP3   OH231582   5.082   2.956   6.835
10550TIP3    H131583   5.171   2.989   6.821
10550TIP3    H231584   5.026   3.017   6.788
10551TIP3   OH231585   0.003   6.925   0.275
10551TIP3    H131586   0.046   6.840   0.283
10551TIP3    H231587   0.075   6.986   0.260
10552TIP3   OH231588   5.703   3.180   6.955
10552TIP3    H131589   5.649   3.241   6.905
10552TIP3    H231590   5.792   3.195   6.923
10553TIP3   OH231591   7.788   6.725   0.464
10553TIP3    H131592   7.708   6.677   0.484
10553TIP3    H231593   7.813   6.695   0.377
10554TIP3   OH231594   8.029   6.201   0.115
10554TIP3    H131595   7.988   6.282   0.085
10554TIP3    H231596   7.961   6.134   0.104
10555TIP3   OH231597   8.154   6.677   0.327
10555TIP3    H131598   8.142   6.667   0.422
10555TIP3    H231599   8.068   6.657   0.290
10556TIP3   OH231600   8.398   6.634   0.196
10556TIP3    H131601   8.320   6.634   0.251
10556TIP3    H231602   8.469   6.608   0.255
10557TIP3   OH231603   0.134   6.594   0.344
10557TIP3    H131604   0.147   6.499   0.352
10557TIP3    H231605   0.128   6.625   0.434
10558TIP3   OH231606   7.611   6.507   0.514
10558TIP3    H131607   7.617   6.418   0.478
10558TIP3    H231608   7.661   6.502   0.595
10559TIP3   OH231609   8.106   6.193   0.376
10559TIP3    H131610   8.173   6.124   0.375
10559TIP3    H231611   8.075   6.198   0.286
10560TIP3   OH231612   8.190   6.401   0.537
10560TIP3    H131613   8.164   6.332   0.476
10560TIP3    H231614   8.118   6.463   0.536
10561TIP3   OH231615   4.605   3.637   5.577
10561TIP3    H131616   4.696   3.620   5.552
10561TIP3    H231617   4.568   3.684   5.502
10562TIP3   OH231618   4.074   3.028   5.774
10562TIP3    H131619   4.165   3.051   5.758
10562TIP3    H231620   4.061   2.946   5.727
10563TIP3   OH231621   3.982   3.609   6.219
10563TIP3    H131622   3.916   3.556   6.174
10563TIP3    H231623   4.027   3.547   6.277
10564TIP3   OH231624   4.126   3.439   6.386
10564TIP3    H131625   4.117   3.373   6.454
10564TIP3    H231626   4.177   3.509   6.426
10565TIP3   OH231627   5.859   3.853   6.195
10565TIP3    H131628   5.884   3.880   6.284
10565TIP3    H231629   5.922   3.896   6.138
10566TIP3   OH231630   5.883   3.878   6.477
10566TIP3    H131631   5.833   3.797   6.470
10566TIP3    H231632   5.951   3.858   6.542
10567TIP3   OH231633   0.259   7.582   0.109
10567TIP3    H131634   0.186   7.590   0.170
10567TIP3    H231635   0.305   7.666   0.115
10568TIP3   OH231636   5.747   3.094   5.659
10568TIP3    H131637   5.809   3.160   5.627
10568TIP3    H231638   5.792   3.052   5.732
10569TIP3   OH231639   5.871   2.949   5.859
10569TIP3    H131640   5.801   2.907   5.910
10569TIP3    H231641   5.933   2.979   5.925
10570TIP3   OH231642   5.929   3.349   6.293
10570TIP3    H131643   5.980   3.279   6.252
10570TIP3    H231644   5.928   3.419   6.228
10571TIP3   OH231645   5.738   3.640   6.486
10571TIP3    H131646   5.670   3.684   6.537
10571TIP3    H231647   5.691   3.598   6.414
10572TIP3   OH231648   5.794   2.864   5.508
10572TIP3    H131649   5.729   2.863   5.438
10572TIP3    H231650   5.769   2.940   5.562
10573TIP3   OH231651   5.671   2.807   5.992
10573TIP3    H131652   5.676   2.713   5.976
10573TIP3    H231653   5.654   2.815   6.086
10574TIP3   OH231654   4.297   2.879   6.763
10574TIP3    H131655   4.290   2.847   6.674
10574TIP3    H231656   4.390   2.874   6.784
10575TIP3   OH231657   5.958   3.229   6.857
10575TIP3    H131658   6.027   3.164   6.841
10575TIP3    H231659   5.962   3.286   6.781
10576TIP3   OH231660   6.139   3.020   6.852
10576TIP3    H131661   6.064   2.980   6.895
10576TIP3    H231662   6.213   2.963   6.874
10577TIP3   OH231663   5.679   2.531   5.895
10577TIP3    H131664   5.721   2.446   5.904
10577TIP3    H231665   5.714   2.566   5.812
10578TIP3   OH231666   5.822   2.689   6.403
10578TIP3    H131667   5.902   2.706   6.353
10578TIP3    H231668   5.836   2.731   6.488
10579TIP3   OH231669   5.898   2.846   6.629
10579TIP3    H131670   5.825   2.876   6.683
10579TIP3    H231671   5.929   2.926   6.585
10580TIP3   OH231672   7.348   6.563   0.462
10580TIP3    H131673   7.442   6.570   0.482
10580TIP3    H231674   7.320   6.483   0.507
10581TIP3   OH231675   0.693   6.456   0.234
10581TIP3    H131676   0.753   6.396   0.191
10581TIP3    H231677   0.653   6.506   0.163
10582TIP3   OH231678   5.777   2.275   5.941
10582TIP3    H131679   5.827   2.251   6.019
10582TIP3    H231680   5.714   2.203   5.930
10583TIP3   OH231681   4.489   2.268   6.756
10583TIP3    H131682   4.544   2.190   6.764
10583TIP3    H231683   4.551   2.340   6.746
10584TIP3   OH231684   4.278   2.532   6.820
10584TIP3    H131685   4.329   2.528   6.738
10584TIP3    H231686   4.305   2.614   6.861
10585TIP3   OH231687   0.544   6.569   0.036
10585TIP3    H131688   0.459   6.609   0.052
10585TIP3    H231689   0.525   6.493  -0.019
10586TIP3   OH231690   5.928   2.181   5.615
10586TIP3    H131691   5.919   2.138   5.530
10586TIP3    H231692   5.943   2.274   5.593
10587TIP3   OH231693   4.256   2.033   6.328
10587TIP3    H131694   4.170   2.024   6.371
10587TIP3    H231695   4.238   2.087   6.251
10588TIP3   OH231696   5.422   3.756   5.844
10588TIP3    H131697   5.476   3.742   5.766
10588TIP3    H231698   5.468   3.825   5.892
10589TIP3   OH231699   7.327   6.116   0.188
10589TIP3    H131700   7.278   6.115   0.270
10589TIP3    H231701   7.269   6.162   0.126
10590TIP3   OH231702   7.350   7.559   0.281
10590TIP3    H131703   7.257   7.539   0.271
10590TIP3    H231704   7.367   7.546   0.374
10591TIP3   OH231705   4.722   3.597   6.770
10591TIP3    H131706   4.671   3.671   6.739
10591TIP3    H231707   4.807   3.607   6.728
10592TIP3   OH231708   5.127   3.830   6.905
10592TIP3    H131709   5.164   3.821   6.993
10592TIP3    H231710   5.190   3.884   6.858
10593TIP3   OH231711   5.317   3.987   6.778
10593TIP3    H131712   5.378   3.931   6.731
10593TIP3    H231713   5.372   4.041   6.834
10594TIP3   OH231714   6.124   2.317   6.868
10594TIP3    H131715   6.038   2.313   6.826
10594TIP3    H231716   6.158   2.228   6.859
10595TIP3   OH231717   4.384   3.840   6.816
10595TIP3    H131718   4.293   3.858   6.793
10595TIP3    H231719   4.406   3.906   6.883
10596TIP3   OH231720   4.615   3.829   6.666
10596TIP3    H131721   4.532   3.834   6.713
10596TIP3    H231722   4.593   3.854   6.576
10597TIP3   OH231723   5.034   3.846   6.458
10597TIP3    H131724   4.962   3.856   6.395
10597TIP3    H231725   5.042   3.933   6.498
10598TIP3   OH231726   5.300   3.788   6.508
10598TIP3    H131727   5.207   3.803   6.488
10598TIP3    H231728   5.346   3.854   6.458
10599TIP3   OH231729   5.508   3.968   6.413
10599TIP3    H131730   5.499   4.052   6.370
10599TIP3    H231731   5.535   3.908   6.344
10600TIP3   OH231732   4.298   3.619   6.532
10600TIP3    H131733   4.320   3.595   6.621
10600TIP3    H231734   4.370   3.585   6.479
10601TIP3   OH231735   4.499   3.499   6.394
10601TIP3    H131736   4.510   3.415   6.438
10601TIP3    H231737   4.586   3.540   6.399
10602TIP3   OH231738   4.766   3.589   6.418
10602TIP3    H131739   4.787   3.497   6.404
10602TIP3    H231740   4.819   3.614   6.494
10603TIP3   OH231741   5.328   2.241   6.518
10603TIP3    H131742   5.281   2.173   6.566
10603TIP3    H231743   5.334   2.208   6.428
10604TIP3   OH231744   5.834   2.182   6.395
10604TIP3    H131745   5.890   2.196   6.318
10604TIP3    H231746   5.770   2.254   6.391
10605TIP3   OH231747   5.951   2.215   6.152
10605TIP3    H131748   6.022   2.161   6.118
10605TIP3    H231749   5.983   2.305   6.146
10606TIP3   OH231750   4.564   1.943   6.501
10606TIP3    H131751   4.475   1.908   6.512
10606TIP3    H231752   4.620   1.865   6.495
10607TIP3   OH231753   4.369   1.837   6.154
10607TIP3    H131754   4.405   1.888   6.082
10607TIP3    H231755   4.339   1.902   6.218
10608TIP3   OH231756   5.026   2.023   6.404
10608TIP3    H131757   5.036   2.112   6.369
10608TIP3    H231758   5.072   2.026   6.488
10609TIP3   OH231759   5.585   2.062   5.915
10609TIP3    H131760   5.518   2.118   5.954
10609TIP3    H231761   5.541   1.979   5.899
10610TIP3   OH231762   4.061   3.413   5.923
10610TIP3    H131763   3.976   3.384   5.890
10610TIP3    H231764   4.069   3.503   5.892
10611TIP3   OH231765   4.496   1.982   5.922
10611TIP3    H131766   4.541   1.918   5.867
10611TIP3    H231767   4.566   2.038   5.955
10612TIP3   OH231768   4.977   2.161   5.995
10612TIP3    H131769   5.008   2.072   6.008
10612TIP3    H231770   5.036   2.215   6.049
10613TIP3   OH231771   4.865   3.570   5.514
10613TIP3    H131772   4.949   3.597   5.477
10613TIP3    H231773   4.836   3.499   5.458
10614TIP3   OH231774   5.570   3.708   5.613
10614TIP3    H131775   5.565   3.613   5.605
10614TIP3    H231776   5.526   3.742   5.535
10615TIP3   OH231777   7.632   6.240   0.420
10615TIP3    H131778   7.607   6.164   0.474
10615TIP3    H231779   7.724   6.254   0.441
10616TIP3   OH231780   7.885   6.263   0.526
10616TIP3    H131781   7.961   6.240   0.473
10616TIP3    H231782   7.894   6.211   0.606
10617TIP3   OH231783   4.155   3.386   5.571
10617TIP3    H131784   4.162   3.427   5.657
10617TIP3    H231785   4.243   3.355   5.551
10618TIP3   OH231786   0.198   6.323   0.355
10618TIP3    H131787   0.215   6.295   0.445
10618TIP3    H231788   0.283   6.318   0.312
10619TIP3   OH231789   5.786   3.851   6.798
10619TIP3    H131790   5.711   3.820   6.748
10619TIP3    H231791   5.770   3.945   6.809
10620TIP3   OH231792   7.060   3.234   5.547
10620TIP3    H131793   7.027   3.321   5.524
10620TIP3    H231794   6.992   3.174   5.518
10621TIP3   OH231795   7.060   3.231   5.963
10621TIP3    H131796   7.111   3.209   6.041
10621TIP3    H231797   7.016   3.149   5.940
10622TIP3   OH231798   6.360   3.096   6.309
10622TIP3    H131799   6.396   3.041   6.378
10622TIP3    H231800   6.435   3.118   6.254
10623TIP3   OH231801   7.323   3.537   5.635
10623TIP3    H131802   7.311   3.470   5.702
10623TIP3    H231803   7.346   3.616   5.683
10624TIP3   OH231804   6.348   3.532   6.012
10624TIP3    H131805   6.332   3.438   6.013
10624TIP3    H231806   6.442   3.541   5.996
10625TIP3   OH231807   6.027   2.726   5.781
10625TIP3    H131808   5.982   2.808   5.801
10625TIP3    H231809   5.959   2.671   5.741
10626TIP3   OH231810   6.099   3.019   6.005
10626TIP3    H131811   6.150   2.942   6.031
10626TIP3    H231812   6.159   3.069   5.950
10627TIP3   OH231813   6.981   3.969   5.646
10627TIP3    H131814   7.007   3.906   5.579
10627TIP3    H231815   6.982   3.920   5.728
10628TIP3   OH231816   6.860   3.454   5.970
10628TIP3    H131817   6.902   3.375   5.935
10628TIP3    H231818   6.933   3.509   5.998
10629TIP3   OH231819   7.882   2.765   5.985
10629TIP3    H131820   7.883   2.857   6.011
10629TIP3    H231821   7.919   2.765   5.897
10630TIP3   OH231822   7.273   2.941   6.005
10630TIP3    H131823   7.309   2.855   6.029
10630TIP3    H231824   7.237   2.928   5.917
10631TIP3   OH231825   6.630   2.600   5.963
10631TIP3    H131826   6.606   2.672   5.905
10631TIP3    H231827   6.577   2.526   5.932
10632TIP3   OH231828   7.335   2.702   5.605
10632TIP3    H131829   7.402   2.687   5.671
10632TIP3    H231830   7.382   2.733   5.528
10633TIP3   OH231831   6.250   2.805   6.093
10633TIP3    H131832   6.334   2.787   6.135
10633TIP3    H231833   6.253   2.755   6.011
10634TIP3   OH231834   6.671   3.010   5.910
10634TIP3    H131835   6.765   2.994   5.913
10634TIP3    H231836   6.634   2.929   5.874
10635TIP3   OH231837   7.910   2.989   6.173
10635TIP3    H131838   7.831   3.036   6.148
10635TIP3    H231839   7.948   3.041   6.244
10636TIP3   OH231840   6.608   2.601   6.417
10636TIP3    H131841   6.558   2.633   6.342
10636TIP3    H231842   6.551   2.617   6.492
10637TIP3   OH231843   6.930   3.444   5.426
10637TIP3    H131844   6.904   3.426   5.336
10637TIP3    H231845   6.888   3.527   5.447
10638TIP3   OH231846   6.705   3.376   6.185
10638TIP3    H131847   6.650   3.447   6.219
10638TIP3    H231848   6.751   3.415   6.111
10639TIP3   OH231849   7.507   2.703   5.826
10639TIP3    H131850   7.453   2.691   5.904
10639TIP3    H231851   7.553   2.786   5.841
10640TIP3   OH231852   6.499   2.706   6.185
10640TIP3    H131853   6.555   2.781   6.207
10640TIP3    H231854   6.545   2.664   6.112
10641TIP3   OH231855   6.548   3.579   6.291
10641TIP3    H131856   6.531   3.667   6.257
10641TIP3    H231857   6.469   3.558   6.341
10642TIP3   OH231858   5.926   3.278   5.541
10642TIP3    H131859   5.889   3.293   5.454
10642TIP3    H231860   5.949   3.365   5.572
10643TIP3   OH231861   7.366   3.782   5.781
10643TIP3    H131862   7.278   3.776   5.818
10643TIP3    H231863   7.366   3.865   5.733
10644TIP3   OH231864   7.687   2.652   6.152
10644TIP3    H131865   7.602   2.680   6.119
10644TIP3    H231866   7.750   2.684   6.087
10645TIP3   OH231867   6.953   2.291   6.144
10645TIP3    H131868   6.942   2.198   6.165
10645TIP3    H231869   6.876   2.333   6.183
10646TIP3   OH231870   7.068   3.815   5.431
10646TIP3    H131871   7.119   3.734   5.420
10646TIP3    H231872   7.128   3.884   5.403
10647TIP3   OH231873   7.223   3.598   5.382
10647TIP3    H131874   7.222   3.519   5.327
10647TIP3    H231875   7.260   3.568   5.465
10648TIP3   OH231876   7.601   3.670   6.127
10648TIP3    H131877   7.582   3.597   6.068
10648TIP3    H231878   7.586   3.748   6.075
10649TIP3   OH231879   6.887   3.076   5.394
10649TIP3    H131880   6.806   3.124   5.375
10649TIP3    H231881   6.934   3.074   5.310
10650TIP3   OH231882   6.857   2.880   5.087
10650TIP3    H131883   6.923   2.930   5.137
10650TIP3    H231884   6.908   2.817   5.037
10651TIP3   OH231885   7.779   3.338   5.995
10651TIP3    H131886   7.695   3.385   5.989
10651TIP3    H231887   7.816   3.346   5.907
10652TIP3   OH231888   7.243   3.170   5.353
10652TIP3    H131889   7.190   3.196   5.428
10652TIP3    H231890   7.326   3.140   5.391
10653TIP3   OH231891   7.468   3.198   6.296
10653TIP3    H131892   7.464   3.281   6.344
10653TIP3    H231893   7.386   3.193   6.248
10654TIP3   OH231894   6.469   3.146   5.765
10654TIP3    H131895   6.431   3.087   5.699
10654TIP3    H231896   6.542   3.096   5.802
10655TIP3   OH231897   6.606   3.574   5.901
10655TIP3    H131898   6.580   3.557   5.811
10655TIP3    H231899   6.692   3.534   5.909
10656TIP3   OH231900   6.576   3.138   6.137
10656TIP3    H131901   6.612   3.102   6.055
10656TIP3    H231902   6.625   3.219   6.151
10657TIP3   OH231903   7.125   3.781   5.910
10657TIP3    H131904   7.113   3.858   5.965
10657TIP3    H231905   7.112   3.707   5.969
10658TIP3   OH231906   6.744   3.680   6.457
10658TIP3    H131907   6.683   3.738   6.503
10658TIP3    H231908   6.688   3.628   6.399
10659TIP3   OH231909   7.076   3.026   5.189
10659TIP3    H131910   7.136   3.083   5.237
10659TIP3    H231911   7.103   3.036   5.097
10660TIP3   OH231912   6.499   3.222   6.601
10660TIP3    H131913   6.503   3.316   6.618
10660TIP3    H231914   6.406   3.203   6.592
10661TIP3   OH231915   6.818   3.700   5.451
10661TIP3    H131916   6.903   3.743   5.450
10661TIP3    H231917   6.762   3.755   5.395
10662TIP3   OH231918   6.535   3.841   6.541
10662TIP3    H131919   6.509   3.848   6.449
10662TIP3    H231920   6.453   3.823   6.588
10663TIP3   OH231921   7.603   2.262   5.263
10663TIP3    H131922   7.524   2.280   5.313
10663TIP3    H231923   7.613   2.337   5.204
10664TIP3   OH231924   6.344   2.989   5.564
10664TIP3    H131925   6.269   3.036   5.528
10664TIP3    H231926   6.313   2.900   5.577
10665TIP3   OH231927   7.395   3.634   4.793
10665TIP3    H131928   7.398   3.727   4.772
10665TIP3    H231929   7.483   3.602   4.774
10666TIP3   OH231930   6.128   3.390   6.489
10666TIP3    H131931   6.059   3.374   6.425
10666TIP3    H231932   6.162   3.304   6.511
10667TIP3   OH231933   5.982   3.575   6.129
10667TIP3    H131934   6.078   3.582   6.125
10667TIP3    H231935   5.955   3.654   6.176
10668TIP3   OH231936   7.835   4.041   6.191
10668TIP3    H131937   7.839   3.946   6.199
10668TIP3    H231938   7.753   4.065   6.234
10669TIP3   OH231939   6.935   3.819   6.317
10669TIP3    H131940   6.927   3.910   6.344
10669TIP3    H231941   6.866   3.774   6.366
10670TIP3   OH231942   6.713   3.923   5.268
10670TIP3    H131943   6.668   3.901   5.187
10670TIP3    H231944   6.675   4.006   5.296
10671TIP3   OH231945   6.148   3.779   5.648
10671TIP3    H131946   6.191   3.769   5.733
10671TIP3    H231947   6.098   3.698   5.638
10672TIP3   OH231948   6.916   3.850   4.897
10672TIP3    H131949   6.966   3.776   4.863
10672TIP3    H231950   6.950   3.863   4.986
10673TIP3   OH231951   6.967   3.895   5.167
10673TIP3    H131952   6.881   3.900   5.208
10673TIP3    H231953   7.023   3.857   5.234
10674TIP3   OH231954   7.707   3.156   6.470
10674TIP3    H131955   7.631   3.168   6.412
10674TIP3    H231956   7.727   3.063   6.465
10675TIP3   OH231957   6.328   3.576   6.459
10675TIP3    H131958   6.379   3.563   6.540
10675TIP3    H231959   6.257   3.513   6.465
10676TIP3   OH231960   6.716   2.385   6.271
10676TIP3    H131961   6.633   2.351   6.238
10676TIP3    H231962   6.692   2.466   6.318
10677TIP3   OH231963   7.249   2.509   6.464
10677TIP3    H131964   7.317   2.482   6.525
10677TIP3    H231965   7.167   2.491   6.510
10678TIP3   OH231966   7.479   2.930   6.382
10678TIP3    H131967   7.435   2.928   6.467
10678TIP3    H231968   7.462   3.018   6.347
10679TIP3   OH231969   7.155   3.040   4.930
10679TIP3    H131970   7.109   3.027   4.847
10679TIP3    H231971   7.239   3.077   4.905
10680TIP3   OH231972   6.863   2.429   5.237
10680TIP3    H131973   6.826   2.435   5.325
10680TIP3    H231974   6.826   2.348   5.202
10681TIP3   OH231975   6.654   2.916   6.283
10681TIP3    H131976   6.606   2.922   6.365
10681TIP3    H231977   6.633   2.996   6.236
10682TIP3   OH231978   6.529   2.796   5.801
10682TIP3    H131979   6.439   2.771   5.824
10682TIP3    H231980   6.541   2.764   5.712
10683TIP3   OH231981   7.017   2.873   5.528
10683TIP3    H131982   6.968   2.944   5.487
10683TIP3    H231983   7.075   2.841   5.458
10684TIP3   OH231984   7.198   3.145   6.604
10684TIP3    H131985   7.170   3.077   6.665
10684TIP3    H231986   7.291   3.157   6.622
10685TIP3   OH231987   7.186   2.889   5.750
10685TIP3    H131988   7.118   2.911   5.687
10685TIP3    H231989   7.233   2.816   5.710
10686TIP3   OH231990   6.488   2.933   6.501
10686TIP3    H131991   6.495   2.998   6.572
10686TIP3    H231992   6.468   2.851   6.546
10687TIP3   OH231993   6.531   2.411   5.213
10687TIP3    H131994   6.521   2.415   5.308
10687TIP3    H231995   6.453   2.455   5.178
10688TIP3   OH231996   6.058   2.458   6.107
10688TIP3    H131997   6.142   2.492   6.141
10688TIP3    H231998   6.074   2.444   6.014
10689TIP3   OH231999   6.000   2.444   5.586
10689TIP3    H132000   6.042   2.482   5.509
10689TIP3    H232001   5.926   2.502   5.603
10690TIP3   OH232002   7.219   3.140   6.179
10690TIP3    H132003   7.244   3.074   6.115
10690TIP3    H232004   7.175   3.091   6.248
10691TIP3   OH232005   6.898   2.593   5.854
10691TIP3    H132006   6.819   2.591   5.907
10691TIP3    H232007   6.970   2.584   5.917
10692TIP3   OH232008   6.288   2.671   5.857
10692TIP3    H132009   6.199   2.677   5.822
10692TIP3    H232010   6.314   2.580   5.842
10693TIP3   OH232011   6.550   2.677   5.555
10693TIP3    H132012   6.644   2.686   5.542
10693TIP3    H232013   6.512   2.694   5.469
10694TIP3   OH232014   7.348   2.679   6.060
10694TIP3    H132015   7.325   2.698   6.151
10694TIP3    H232016   7.281   2.617   6.030
10695TIP3   OH232017   6.430   2.701   5.310
10695TIP3    H132018   6.365   2.652   5.260
10695TIP3    H232019   6.484   2.745   5.244
10696TIP3   OH232020   7.542   4.377   6.279
10696TIP3    H132021   7.533   4.398   6.187
10696TIP3    H232022   7.619   4.426   6.308
10697TIP3   OH232023   6.484   3.490   6.693
10697TIP3    H132024   6.565   3.511   6.741
10697TIP3    H232025   6.415   3.498   6.758
10698TIP3   OH232026   6.946   2.957   5.958
10698TIP3    H132027   7.008   2.906   5.907
10698TIP3    H232028   6.944   2.915   6.043
10699TIP3   OH232029   6.445   2.424   5.846
10699TIP3    H132030   6.413   2.350   5.898
10699TIP3    H232031   6.462   2.387   5.760
10700TIP3   OH232032   6.919   2.858   6.224
10700TIP3    H132033   6.831   2.888   6.246
10700TIP3    H232034   6.977   2.912   6.277
10701TIP3   OH232035   6.650   3.217   5.337
10701TIP3    H132036   6.577   3.160   5.316
10701TIP3    H232037   6.627   3.256   5.422
10702TIP3   OH232038   7.543   3.471   5.946
10702TIP3    H132039   7.578   3.520   5.871
10702TIP3    H232040   7.463   3.430   5.912
10703TIP3   OH232041   7.117   2.529   5.246
10703TIP3    H132042   7.024   2.509   5.238
10703TIP3    H232043   7.120   2.625   5.253
10704TIP3   OH232044   7.058   3.554   6.346
10704TIP3    H132045   7.105   3.548   6.430
10704TIP3    H232046   7.017   3.640   6.348
10705TIP3   OH232047   7.182   2.796   5.313
10705TIP3    H132048   7.277   2.797   5.315
10705TIP3    H232049   7.158   2.871   5.258
10706TIP3   OH232050   6.354   3.254   5.993
10706TIP3    H132051   6.385   3.226   5.907
10706TIP3    H232052   6.413   3.211   6.055
10707TIP3   OH232053   6.805   3.377   5.179
10707TIP3    H132054   6.758   3.461   5.178
10707TIP3    H232055   6.750   3.320   5.232
10708TIP3   OH232056   6.226   3.157   6.620
10708TIP3    H132057   6.226   3.131   6.712
10708TIP3    H232058   6.152   3.110   6.582
10709TIP3   OH232059   6.964   3.295   6.644
10709TIP3    H132060   6.894   3.237   6.615
10709TIP3    H232061   7.044   3.255   6.612
10710TIP3   OH232062   7.207   3.837   6.241
10710TIP3    H132063   7.112   3.825   6.245
10710TIP3    H232064   7.229   3.876   6.325
10711TIP3   OH232065   7.583   2.896   5.145
10711TIP3    H132066   7.552   2.834   5.079
10711TIP3    H232067   7.586   2.980   5.101
10712TIP3   OH232068   7.847   3.763   6.212
10712TIP3    H132069   7.753   3.745   6.212
10712TIP3    H232070   7.878   3.726   6.129
10713TIP3   OH232071   7.333   3.700   5.060
10713TIP3    H132072   7.303   3.627   5.115
10713TIP3    H232073   7.345   3.660   4.973
10714TIP3   OH232074   7.314   3.334   5.845
10714TIP3    H132075   7.223   3.312   5.866
10714TIP3    H232076   7.350   3.255   5.806
10715TIP3   OH232077   6.465   3.570   5.655
10715TIP3    H132078   6.466   3.647   5.598
10715TIP3    H232079   6.373   3.549   5.666
10716TIP3   OH232080   6.023   2.859   5.356
10716TIP3    H132081   6.067   2.941   5.379
10716TIP3    H232082   5.944   2.858   5.410
10717TIP3   OH232083   6.559   3.324   5.569
10717TIP3    H132084   6.543   3.414   5.597
10717TIP3    H232085   6.530   3.270   5.642
10718TIP3   OH232086   6.747   3.895   6.110
10718TIP3    H132087   6.784   3.967   6.059
10718TIP3    H232088   6.822   3.858   6.157
10719TIP3   OH232089   6.382   3.796   5.503
10719TIP3    H132090   6.295   3.801   5.542
10719TIP3    H232091   6.415   3.886   5.507
10720TIP3   OH232092   7.101   3.554   6.073
10720TIP3    H132093   7.092   3.548   6.168
10720TIP3    H232094   7.171   3.492   6.052
10721TIP3   OH232095   7.096   3.436   4.957
10721TIP3    H132096   7.138   3.418   5.042
10721TIP3    H232097   7.012   3.391   4.962
10722TIP3   OH232098   7.361   4.054   6.121
10722TIP3    H132099   7.288   3.994   6.135
10722TIP3    H232100   7.332   4.110   6.049
10723TIP3   OH232101   7.415   3.907   4.757
10723TIP3    H132102   7.451   3.976   4.701
10723TIP3    H232103   7.340   3.948   4.800
10724TIP3   OH232104   6.433   2.680   6.622
10724TIP3    H132105   6.338   2.690   6.623
10724TIP3    H232106   6.451   2.617   6.691
10725TIP3   OH232107   7.261   3.388   5.181
10725TIP3    H132108   7.244   3.312   5.238
10725TIP3    H232109   7.354   3.381   5.159
10726TIP3   OH232110   6.174   3.779   6.274
10726TIP3    H132111   6.225   3.713   6.320
10726TIP3    H232112   6.193   3.860   6.320
10727TIP3   OH232113   6.446   3.402   4.962
10727TIP3    H132114   6.456   3.311   4.934
10727TIP3    H232115   6.429   3.397   5.056
10728TIP3   OH232116   6.390   3.419   5.233
10728TIP3    H132117   6.460   3.391   5.292
10728TIP3    H232118   6.390   3.515   5.240
10729TIP3   OH232119   6.124   3.107   5.443
10729TIP3    H132120   6.057   3.152   5.495
10729TIP3    H232121   6.142   3.166   5.370
10730TIP3   OH232122   7.281   2.743   6.321
10730TIP3    H132123   7.362   2.783   6.353
10730TIP3    H232124   7.271   2.664   6.374
10731TIP3   OH232125   7.177   2.485   5.514
10731TIP3    H132126   7.158   2.500   5.421
10731TIP3    H232127   7.224   2.563   5.542
10732TIP3   OH232128   6.662   3.608   5.177
10732TIP3    H132129   6.577   3.632   5.213
10732TIP3    H232130   6.683   3.678   5.116
10733TIP3   OH232131   6.831   2.681   5.597
10733TIP3    H132132   6.894   2.749   5.571
10733TIP3    H232133   6.853   2.663   5.689
10734TIP3   OH232134   7.123   2.975   6.376
10734TIP3    H132135   7.149   3.015   6.459
10734TIP3    H232136   7.172   2.893   6.372
10735TIP3   OH232137   6.989   2.382   5.689
10735TIP3    H132138   6.966   2.460   5.739
10735TIP3    H232139   7.058   2.412   5.629
10736TIP3   OH232140   6.411   3.693   5.250
10736TIP3    H132141   6.388   3.764   5.189
10736TIP3    H232142   6.398   3.730   5.337
10737TIP3   OH232143   6.503   2.403   5.491
10737TIP3    H132144   6.491   2.493   5.522
10737TIP3    H232145   6.597   2.388   5.498
10738TIP3   OH232146   7.747   2.889   6.391
10738TIP3    H132147   7.651   2.882   6.386
10738TIP3    H232148   7.775   2.879   6.300
10739TIP3   OH232149   7.405   3.078   5.754
10739TIP3    H132150   7.328   3.022   5.760
10739TIP3    H232151   7.471   3.035   5.808
10740TIP3   OH232152   6.143   3.288   5.230
10740TIP3    H132153   6.214   3.352   5.238
10740TIP3    H232154   6.174   3.224   5.166
10741TIP3   OH232155   6.057   2.583   5.357
10741TIP3    H132156   6.065   2.678   5.363
10741TIP3    H232157   5.993   2.569   5.287
10742TIP3   OH232158   7.383   4.047   5.696
10742TIP3    H132159   7.342   4.099   5.627
10742TIP3    H232160   7.477   4.060   5.682
10743TIP3   OH232161   6.454   2.299   6.232
10743TIP3    H132162   6.425   2.268   6.147
10743TIP3    H232163   6.441   2.225   6.291
10744TIP3   OH232164   5.977   3.554   5.617
10744TIP3    H132165   5.924   3.585   5.691
10744TIP3    H232166   5.935   3.594   5.540
10745TIP3   OH232167   6.170   4.088   6.694
10745TIP3    H132168   6.253   4.089   6.740
10745TIP3    H232169   6.148   3.995   6.685
10746TIP3   OH232170   6.641   4.005   6.735
10746TIP3    H132171   6.733   3.979   6.741
10746TIP3    H232172   6.606   3.951   6.664
10747TIP3   OH232173   6.604   3.602   4.856
10747TIP3    H132174   6.555   3.531   4.898
10747TIP3    H232175   6.678   3.559   4.814
10748TIP3   OH232176   7.260   3.941   6.491
10748TIP3    H132177   7.276   3.871   6.554
10748TIP3    H232178   7.335   4.000   6.501
10749TIP3   OH232179   7.045   3.640   4.779
10749TIP3    H132180   7.078   3.575   4.842
10749TIP3    H232181   7.104   3.634   4.704
10750TIP3   OH232182   6.279   3.491   6.883
10750TIP3    H132183   6.296   3.398   6.893
10750TIP3    H232184   6.193   3.495   6.841
10751TIP3   OH232185   6.269   3.097   5.081
10751TIP3    H132186   6.321   3.072   5.158
10751TIP3    H232187   6.333   3.110   5.011
10752TIP3   OH232188   6.898   3.571   6.659
10752TIP3    H132189   6.852   3.593   6.577
10752TIP3    H232190   6.930   3.482   6.645
10753TIP3   OH232191   6.839   3.318   4.913
10753TIP3    H132192   6.816   3.330   5.006
10753TIP3    H232193   6.824   3.225   4.896
10754TIP3   OH232194   7.377   3.614   6.282
10754TIP3    H132195   7.453   3.640   6.231
10754TIP3    H232196   7.311   3.680   6.262
10755TIP3   OH232197   6.394   3.236   6.889
10755TIP3    H132198   6.468   3.216   6.831
10755TIP3    H232199   6.435   3.255   6.973
10756TIP3   OH232200   6.446   3.035   5.292
10756TIP3    H132201   6.424   3.000   5.378
10756TIP3    H232202   6.493   2.964   5.249
10757TIP3   OH232203   6.758   3.120   6.550
10757TIP3    H132204   6.671   3.158   6.558
10757TIP3    H232205   6.789   3.147   6.464
10758TIP3   OH232206   6.583   2.849   5.135
10758TIP3    H132207   6.553   2.853   5.045
10758TIP3    H232208   6.678   2.855   5.130
10759TIP3   OH232209   7.262   3.494   6.640
10759TIP3    H132210   7.324   3.453   6.580
10759TIP3    H232211   7.255   3.431   6.713
10760TIP3   OH232212   7.380   3.146   4.809
10760TIP3    H132213   7.364   3.103   4.725
10760TIP3    H232214   7.354   3.237   4.794
10761TIP3   OH232215   6.862   2.887   6.652
10761TIP3    H132216   6.862   2.816   6.588
10761TIP3    H232217   6.826   2.962   6.605
10762TIP3   OH232218   6.867   2.686   6.452
10762TIP3    H132219   6.894   2.722   6.367
10762TIP3    H232220   6.776   2.659   6.439
10763TIP3   OH232221   6.876   3.213   6.325
10763TIP3    H132222   6.965   3.240   6.301
10763TIP3    H232223   6.819   3.274   6.276
10764TIP3   OH232224   7.471   3.168   6.700
10764TIP3    H132225   7.502   3.078   6.703
10764TIP3    H232226   7.544   3.218   6.661
10765TIP3   OH232227   7.495   3.436   6.448
10765TIP3    H132228   7.443   3.499   6.398
10765TIP3    H232229   7.585   3.449   6.416
10766TIP3   OH232230   6.745   2.973   6.895
10766TIP3    H132231   6.674   2.912   6.915
10766TIP3    H232232   6.771   2.951   6.806
10767TIP3   OH232233   6.987   2.454   6.551
10767TIP3    H132234   6.946   2.534   6.517
10767TIP3    H232235   6.922   2.385   6.536
10768TIP3   OH232236   7.116   2.930   6.754
10768TIP3    H132237   7.102   2.919   6.848
10768TIP3    H232238   7.031   2.909   6.715
10769TIP3   OH232239   7.359   2.891   6.620
10769TIP3    H132240   7.280   2.888   6.675
10769TIP3    H232241   7.429   2.862   6.677
10770TIP3   OH232242   7.595   2.851   6.762
10770TIP3    H132243   7.609   2.756   6.766
10770TIP3    H232244   7.591   2.879   6.853
10771TIP3   OH232245   0.910   6.762   0.017
10771TIP3    H132246   0.913   6.673  -0.020
10771TIP3    H232247   0.948   6.752   0.104
10772TIP3   OH232248   7.054   2.427   6.815
10772TIP3    H132249   7.124   2.363   6.802
10772TIP3    H232250   7.019   2.443   6.728
10773TIP3   OH232251   7.148   2.653   6.944
10773TIP3    H132252   7.117   2.580   6.892
10773TIP3    H232253   7.075   2.715   6.947
10774TIP3   OH232254   6.405   3.906   5.068
10774TIP3    H132255   6.494   3.882   5.040
10774TIP3    H232256   6.366   3.948   4.992
10775TIP3   OH232257   5.869   3.277   5.255
10775TIP3    H132258   5.963   3.290   5.247
10775TIP3    H232259   5.853   3.192   5.215
10776TIP3   OH232260   5.773   3.869   5.705
10776TIP3    H132261   5.709   3.814   5.660
10776TIP3    H232262   5.818   3.809   5.765
10777TIP3   OH232263   5.913   3.705   5.877
10777TIP3    H132264   5.903   3.634   5.940
10777TIP3    H232265   5.966   3.770   5.923
10778TIP3   OH232266   7.650   4.106   5.683
10778TIP3    H132267   7.673   4.138   5.770
10778TIP3    H232268   7.706   4.156   5.623
10779TIP3   OH232269   7.672   4.135   5.965
10779TIP3    H132270   7.629   4.050   5.959
10779TIP3    H232271   7.746   4.121   6.024
10780TIP3   OH232272   7.722   3.826   6.538
10780TIP3    H132273   7.650   3.836   6.600
10780TIP3    H232274   7.764   3.912   6.535
10781TIP3   OH232275   7.534   3.354   5.145
10781TIP3    H132276   7.594   3.422   5.116
10781TIP3    H232277   7.577   3.314   5.220
10782TIP3   OH232278   7.658   3.216   5.347
10782TIP3    H132279   7.594   3.170   5.401
10782TIP3    H232280   7.724   3.247   5.408
10783TIP3   OH232281   7.721   3.605   5.777
10783TIP3    H132282   7.771   3.535   5.736
10783TIP3    H232283   7.725   3.677   5.714
10784TIP3   OH232284   7.535   3.891   5.976
10784TIP3    H132285   7.467   3.938   6.024
10784TIP3    H232286   7.489   3.850   5.903
10785TIP3   OH232287   7.582   3.127   4.993
10785TIP3    H132288   7.512   3.124   4.928
10785TIP3    H232289   7.561   3.204   5.046
10786TIP3   OH232290   7.452   2.773   4.930
10786TIP3    H132291   7.405   2.810   4.855
10786TIP3    H232292   7.442   2.678   4.921
10787TIP3   OH232293   7.467   3.066   5.483
10787TIP3    H132294   7.481   2.972   5.469
10787TIP3    H232295   7.452   3.074   5.577
10788TIP3   OH232296   6.096   3.130   6.255
10788TIP3    H132297   6.085   3.096   6.166
10788TIP3    H232298   6.190   3.128   6.270
10789TIP3   OH232299   7.748   3.482   6.343
10789TIP3    H132300   7.816   3.417   6.323
10789TIP3    H232301   7.746   3.539   6.266
10790TIP3   OH232302   7.923   3.268   6.339
10790TIP3    H132303   7.850   3.232   6.389
10790TIP3    H232304   7.999   3.217   6.367
10791TIP3   OH232305   7.404   2.500   4.903
10791TIP3    H132306   7.469   2.479   4.970
10791TIP3    H232307   7.322   2.465   4.937
10792TIP3   OH232308   7.487   2.791   5.383
10792TIP3    H132309   7.553   2.723   5.397
10792TIP3    H232310   7.515   2.834   5.302
10793TIP3   OH232311   7.615   2.951   5.895
10793TIP3    H132312   7.696   2.972   5.848
10793TIP3    H232313   7.624   2.997   5.978
10794TIP3   OH232314   7.675   3.115   6.118
10794TIP3    H132315   7.601   3.148   6.169
10794TIP3    H232316   7.710   3.192   6.074
10795TIP3   OH232317   6.311   2.812   6.904
10795TIP3    H132318   6.406   2.807   6.917
10795TIP3    H232319   6.278   2.730   6.941
10796TIP3   OH232320   8.156   2.713   6.663
10796TIP3    H132321   8.210   2.646   6.621
10796TIP3    H232322   8.113   2.758   6.591
10797TIP3   OH232323   6.290   2.523   6.253
10797TIP3    H132324   6.342   2.443   6.255
10797TIP3    H232325   6.352   2.593   6.232
10798TIP3   OH232326   6.067   2.786   6.310
10798TIP3    H132327   6.117   2.771   6.231
10798TIP3    H232328   6.091   2.874   6.338
10799TIP3   OH232329   7.998   2.811   6.467
10799TIP3    H132330   7.913   2.853   6.477
10799TIP3    H232331   7.982   2.738   6.407
10800TIP3   OH232332   7.626   2.451   5.061
10800TIP3    H132333   7.674   2.387   5.008
10800TIP3    H232334   7.681   2.529   5.061
10801TIP3   OH232335   6.051   2.359   5.848
10801TIP3    H132336   5.968   2.313   5.857
10801TIP3    H232337   6.053   2.387   5.756
10802TIP3   OH232338   7.215   4.015   5.327
10802TIP3    H132339   7.271   4.002   5.250
10802TIP3    H232340   7.261   4.081   5.378
10803TIP3   OH232341   6.289   2.377   6.644
10803TIP3    H132342   6.233   2.359   6.719
10803TIP3    H232343   6.230   2.415   6.578
10804TIP3   OH232344   6.313   3.807   6.708
10804TIP3    H132345   6.219   3.790   6.696
10804TIP3    H232346   6.329   3.792   6.801
10805TIP3   OH232347   6.519   3.856   6.259
10805TIP3    H132348   6.467   3.930   6.226
10805TIP3    H232349   6.603   3.864   6.215
10806TIP3   OH232350   6.922   4.086   6.395
10806TIP3    H132351   6.961   4.081   6.483
10806TIP3    H232352   6.984   4.139   6.345
10807TIP3   OH232353   7.109   4.241   6.264
10807TIP3    H132354   7.165   4.190   6.207
10807TIP3    H232355   7.169   4.293   6.318
10808TIP3   OH232356   7.910   2.580   6.343
10808TIP3    H132357   7.824   2.588   6.300
10808TIP3    H232358   7.935   2.489   6.329
10809TIP3   OH232359   6.182   4.106   6.302
10809TIP3    H132360   6.090   4.124   6.281
10809TIP3    H232361   6.204   4.169   6.370
10810TIP3   OH232362   6.412   4.087   6.153
10810TIP3    H132363   6.329   4.094   6.200
10810TIP3    H232364   6.391   4.110   6.062
10811TIP3   OH232365   6.828   4.103   5.945
10811TIP3    H132366   6.759   4.113   5.879
10811TIP3    H232367   6.838   4.191   5.982
10812TIP3   OH232368   7.091   4.042   6.006
10812TIP3    H132369   7.001   4.059   5.980
10812TIP3    H232370   7.143   4.103   5.954
10813TIP3   OH232371   7.290   4.208   5.898
10813TIP3    H132372   7.287   4.295   5.858
10813TIP3    H232373   7.321   4.151   5.828
10814TIP3   OH232374   6.091   3.877   6.027
10814TIP3    H132375   6.118   3.850   6.115
10814TIP3    H232376   6.161   3.845   5.970
10815TIP3   OH232377   6.293   3.767   5.883
10815TIP3    H132378   6.305   3.683   5.928
10815TIP3    H232379   6.380   3.806   5.883
10816TIP3   OH232380   6.562   3.851   5.903
10816TIP3    H132381   6.581   3.759   5.886
10816TIP3    H232382   6.615   3.873   5.979
10817TIP3   OH232383   7.131   2.498   5.992
10817TIP3    H132384   7.089   2.425   6.037
10817TIP3    H232385   7.198   2.457   5.937
10818TIP3   OH232386   7.629   2.431   5.868
10818TIP3    H132387   7.648   2.517   5.831
10818TIP3    H232388   7.534   2.429   5.876
10819TIP3   OH232389   6.368   2.198   5.991
10819TIP3    H132390   6.278   2.166   5.993
10819TIP3    H232391   6.421   2.119   5.981
10820TIP3   OH232392   6.201   2.095   5.626
10820TIP3    H132393   6.230   2.145   5.550
10820TIP3    H232394   6.116   2.134   5.649
10821TIP3   OH232395   6.840   2.235   5.881
10821TIP3    H132396   6.886   2.283   5.813
10821TIP3    H232397   6.880   2.263   5.963
10822TIP3   OH232398   7.349   2.384   5.860
10822TIP3    H132399   7.357   2.351   5.771
10822TIP3    H232400   7.348   2.306   5.915
10823TIP3   OH232401   7.383   2.314   5.416
10823TIP3    H132402   7.311   2.369   5.446
10823TIP3    H232403   7.369   2.230   5.458
10824TIP3   OH232404   5.859   3.675   5.399
10824TIP3    H132405   5.776   3.642   5.366
10824TIP3    H232406   5.862   3.766   5.371
10825TIP3   OH232407   6.295   2.235   5.398
10825TIP3    H132408   6.342   2.177   5.338
10825TIP3    H232409   6.363   2.292   5.434
10826TIP3   OH232410   6.778   2.430   5.502
10826TIP3    H132411   6.838   2.378   5.556
10826TIP3    H232412   6.795   2.520   5.529
10827TIP3   OH232413   6.659   3.828   4.998
10827TIP3    H132414   6.744   3.854   4.961
10827TIP3    H232415   6.630   3.756   4.942
10828TIP3   OH232416   7.365   3.968   5.096
10828TIP3    H132417   7.359   3.873   5.089
10828TIP3    H232418   7.322   4.001   5.018
10829TIP3   OH232419   6.587   2.481   6.877
10829TIP3    H132420   6.551   2.413   6.933
10829TIP3    H232421   6.679   2.489   6.904
10830TIP3   OH232422   1.170   6.498   0.057
10830TIP3    H132423   1.246   6.470   0.005
10830TIP3    H232424   1.159   6.428   0.122
10831TIP3   OH232425   5.968   3.668   5.056
10831TIP3    H132426   5.968   3.673   5.152
10831TIP3    H232427   6.049   3.622   5.035
10832TIP3   OH232428   7.656   2.580   6.767
10832TIP3    H132429   7.667   2.563   6.861
10832TIP3    H232430   7.744   2.571   6.730
10833TIP3   OH232431   7.581   4.104   6.286
10833TIP3    H132432   7.508   4.074   6.232
10833TIP3    H232433   7.570   4.200   6.289
10834TIP3   OH232434   8.140   3.335   5.815
10834TIP3    H132435   8.185   3.294   5.889
10834TIP3    H232436   8.209   3.355   5.752
10835TIP3   OH232437   8.109   3.795   5.514
10835TIP3    H132438   8.093   3.700   5.517
10835TIP3    H232439   8.203   3.803   5.498
10836TIP3   OH232440   7.825   3.008   5.251
10836TIP3    H132441   7.776   3.085   5.278
10836TIP3    H232442   7.759   2.946   5.221
10837TIP3   OH232443   7.887   3.286   5.488
10837TIP3    H132444   7.932   3.204   5.506
10837TIP3    H232445   7.954   3.341   5.446
10838TIP3   OH232446   0.326   4.280   5.149
10838TIP3    H132447   0.393   4.224   5.111
10838TIP3    H232448   0.266   4.220   5.193
10839TIP3   OH232449   0.235   3.569   5.406
10839TIP3    H132450   0.237   3.610   5.320
10839TIP3    H232451   0.299   3.618   5.458
10840TIP3   OH232452   8.311   2.839   5.497
10840TIP3    H132453   8.244   2.829   5.429
10840TIP3    H232454   8.368   2.763   5.486
10841TIP3   OH232455   8.010   3.056   5.568
10841TIP3    H132456   8.092   3.039   5.614
10841TIP3    H232457   8.001   2.982   5.508
10842TIP3   OH232458   8.416   3.286   5.385
10842TIP3    H132459   8.488   3.280   5.322
10842TIP3    H232460   8.355   3.217   5.358
10843TIP3   OH232461   8.369   2.833   5.911
10843TIP3    H132462   8.308   2.883   5.857
10843TIP3    H232463   8.371   2.880   5.994
10844TIP3   OH232464   8.448   3.623   5.724
10844TIP3    H132465   8.386   3.692   5.746
10844TIP3    H232466   8.515   3.668   5.672
10845TIP3   OH232467   8.238   2.980   5.714
10845TIP3    H132468   8.303   3.048   5.729
10845TIP3    H232469   8.271   2.930   5.639
10846TIP3   OH232470   8.300   3.841   5.788
10846TIP3    H132471   8.292   3.930   5.755
10846TIP3    H232472   8.220   3.826   5.838
10847TIP3   OH232473   7.708   3.541   5.034
10847TIP3    H132474   7.670   3.559   4.948
10847TIP3    H232475   7.735   3.627   5.066
10848TIP3   OH232476   8.206   3.428   5.258
10848TIP3    H132477   8.166   3.364   5.200
10848TIP3    H232478   8.278   3.381   5.301
10849TIP3   OH232479   8.359   3.845   5.383
10849TIP3    H132480   8.334   3.834   5.291
10849TIP3    H232481   8.455   3.851   5.381
10850TIP3   OH232482   8.333   3.392   5.628
10850TIP3    H132483   8.363   3.371   5.540
10850TIP3    H232484   8.372   3.477   5.647
10851TIP3   OH232485   8.511   3.908   5.952
10851TIP3    H132486   8.462   3.979   5.993
10851TIP3    H232487   8.448   3.866   5.893
10852TIP3   OH232488   8.299   3.488   6.081
10852TIP3    H132489   8.297   3.581   6.099
10852TIP3    H232490   8.207   3.462   6.075
10853TIP3   OH232491   0.020   3.925   5.014
10853TIP3    H132492   0.111   3.944   5.035
10853TIP3    H232493  -0.012   4.004   4.971
10854TIP3   OH232494   8.327   4.098   6.029
10854TIP3    H132495   8.296   4.108   5.939
10854TIP3    H232496   8.247   4.081   6.080
10855TIP3   OH232497   8.105   3.247   5.078
10855TIP3    H132498   8.042   3.297   5.025
10855TIP3    H232499   8.069   3.159   5.081
10856TIP3   OH232500   7.914   3.641   5.978
10856TIP3    H132501   7.848   3.623   5.911
10856TIP3    H232502   7.955   3.557   5.995
10857TIP3   OH232503   7.785   3.832   5.616
10857TIP3    H132504   7.880   3.837   5.609
10857TIP3    H232505   7.760   3.912   5.663
10858TIP3   OH232506   0.177   4.059   5.783
10858TIP3    H132507   0.157   4.126   5.848
10858TIP3    H232508   0.129   3.982   5.814
10859TIP3   OH232509   8.514   4.217   4.905
10859TIP3    H132510   8.507   4.151   4.836
10859TIP3    H232511   8.454   4.286   4.878
10860TIP3   OH232512   7.941   4.029   5.125
10860TIP3    H132513   7.979   4.025   5.213
10860TIP3    H232514   7.890   3.949   5.117
10861TIP3   OH232515   0.383   4.205   4.812
10861TIP3    H132516   0.306   4.180   4.761
10861TIP3    H232517   0.438   4.127   4.813
10862TIP3   OH232518   8.086   3.852   5.956
10862TIP3    H132519   8.142   3.833   6.032
10862TIP3    H232520   8.022   3.781   5.956
10863TIP3   OH232521   8.473   2.616   5.794
10863TIP3    H132522   8.391   2.586   5.754
10863TIP3    H232523   8.452   2.700   5.833
10864TIP3   OH232524   8.440   3.159   5.785
10864TIP3    H132525   8.395   3.173   5.869
10864TIP3    H232526   8.450   3.247   5.749
10865TIP3   OH232527   8.250   3.088   5.319
10865TIP3    H132528   8.181   3.021   5.325
10865TIP3    H232529   8.283   3.080   5.229
10866TIP3   OH232530   8.278   3.177   6.016
10866TIP3    H132531   8.284   3.229   6.095
10866TIP3    H232532   8.222   3.103   6.039
10867TIP3   OH232533   8.308   2.608   4.666
10867TIP3    H132534   8.298   2.623   4.760
10867TIP3    H232535   8.252   2.674   4.625
10868TIP3   OH232536   7.858   2.778   5.549
10868TIP3    H132537   7.921   2.756   5.618
10868TIP3    H232538   7.874   2.714   5.480
10869TIP3   OH232539   7.803   2.657   5.046
10869TIP3    H132540   7.848   2.732   5.009
10869TIP3    H232541   7.844   2.644   5.132
10870TIP3   OH232542   8.058   2.888   5.334
10870TIP3    H132543   7.979   2.932   5.304
10870TIP3    H232544   8.036   2.795   5.329
10871TIP3   OH232545   8.384   2.901   4.966
10871TIP3    H132546   8.447   2.933   4.901
10871TIP3    H232547   8.305   2.953   4.952
10872TIP3   OH232548   8.131   2.995   4.915
10872TIP3    H132549   8.048   2.956   4.943
10872TIP3    H232550   8.150   2.952   4.831
10873TIP3   OH232551   8.247   3.756   6.165
10873TIP3    H132552   8.335   3.773   6.198
10873TIP3    H232553   8.192   3.755   6.243
10874TIP3   OH232554   8.257   2.656   5.250
10874TIP3    H132555   8.228   2.607   5.327
10874TIP3    H232556   8.186   2.644   5.187
10875TIP3   OH232557   0.199   3.064   5.694
10875TIP3    H132558   0.116   3.092   5.732
10875TIP3    H232559   0.261   3.132   5.720
10876TIP3   OH232560   8.505   3.419   4.942
10876TIP3    H132561   8.435   3.435   4.878
10876TIP3    H232562   8.476   3.464   5.021
10877TIP3   OH232563   0.412   3.850   5.775
10877TIP3    H132564   0.473   3.796   5.825
10877TIP3    H232565   0.403   3.930   5.827
10878TIP3   OH232566   8.109   3.517   5.500
10878TIP3    H132567   8.138   3.501   5.410
10878TIP3    H232568   8.177   3.477   5.554
10879TIP3   OH232569   0.048   3.518   4.643
10879TIP3    H132570   0.003   3.601   4.657
10879TIP3    H232571   0.124   3.522   4.701
10880TIP3   OH232572   8.028   3.415   6.110
10880TIP3    H132573   8.034   3.400   6.204
10880TIP3    H232574   7.951   3.365   6.082
10881TIP3   OH232575   0.227   3.513   6.152
10881TIP3    H132576   0.157   3.452   6.129
10881TIP3    H232577   0.305   3.458   6.165
10882TIP3   OH232578   8.246   3.823   5.133
10882TIP3    H132579   8.252   3.902   5.079
10882TIP3    H232580   8.153   3.801   5.133
10883TIP3   OH232581   7.813   3.122   4.847
10883TIP3    H132582   7.856   3.205   4.868
10883TIP3    H232583   7.733   3.122   4.899
10884TIP3   OH232584   8.402   3.582   5.142
10884TIP3    H132585   8.369   3.667   5.115
10884TIP3    H232586   8.326   3.538   5.181
10885TIP3   OH232587   0.002   4.142   5.591
10885TIP3    H132588   0.024   4.232   5.566
10885TIP3    H232589   0.080   4.110   5.636
10886TIP3   OH232590   8.175   4.054   4.984
10886TIP3    H132591   8.089   4.049   5.024
10886TIP3    H232592   8.195   4.148   4.980
10887TIP3   OH232593   8.170   2.939   6.110
10887TIP3    H132594   8.077   2.955   6.124
10887TIP3    H232595   8.180   2.845   6.124
10888TIP3   OH232596   7.958   4.042   5.759
10888TIP3    H132597   8.005   3.986   5.821
10888TIP3    H232598   7.971   4.131   5.793
10889TIP3   OH232599   8.184   3.655   4.475
10889TIP3    H132600   8.159   3.565   4.495
10889TIP3    H232601   8.240   3.681   4.547
10890TIP3   OH232602   8.122   3.725   4.783
10890TIP3    H132603   8.196   3.730   4.843
10890TIP3    H232604   8.117   3.811   4.742
10891TIP3   OH232605   7.903   3.371   4.938
10891TIP3    H132606   7.837   3.414   4.992
10891TIP3    H232607   7.916   3.430   4.864
10892TIP3   OH232608   8.403   3.769   4.610
10892TIP3    H132609   8.382   3.860   4.630
10892TIP3    H232610   8.482   3.774   4.556
10893TIP3   OH232611   8.167   3.981   4.715
10893TIP3    H132612   8.150   4.057   4.660
10893TIP3    H232613   8.171   4.016   4.804
10894TIP3   OH232614   8.288   2.637   4.941
10894TIP3    H132615   8.284   2.732   4.951
10894TIP3    H232616   8.373   2.613   4.979
10895TIP3   OH232617   7.910   3.559   4.734
10895TIP3    H132618   7.974   3.628   4.750
10895TIP3    H232619   7.949   3.508   4.663
10896TIP3   OH232620   7.887   2.862   4.879
10896TIP3    H132621   7.858   2.953   4.866
10896TIP3    H232622   7.824   2.810   4.829
10897TIP3   OH232623   8.214   2.554   5.723
10897TIP3    H132624   8.206   2.537   5.629
10897TIP3    H232625   8.207   2.468   5.764
10898TIP3   OH232626   7.769   3.808   5.110
10898TIP3    H132627   7.723   3.843   5.185
10898TIP3    H232628   7.728   3.850   5.034
10899TIP3   OH232629   7.965   4.325   6.205
10899TIP3    H132630   8.050   4.329   6.249
10899TIP3    H232631   7.948   4.231   6.194
10900TIP3   OH232632   8.427   4.283   6.206
10900TIP3    H132633   8.508   4.239   6.231
10900TIP3    H232634   8.392   4.228   6.135
10901TIP3   OH232635   8.442   3.932   4.351
10901TIP3    H132636   8.371   3.867   4.351
10901TIP3    H232637   8.520   3.883   4.373
10902TIP3   OH232638   8.068   3.736   6.378
10902TIP3    H132639   8.088   3.643   6.380
10902TIP3    H232640   7.984   3.742   6.332
10903TIP3   OH232641   8.031   3.381   4.569
10903TIP3    H132642   8.055   3.322   4.640
10903TIP3    H232643   8.097   3.365   4.501
10904TIP3   OH232644   0.041   3.717   6.158
10904TIP3    H132645   0.042   3.767   6.077
10904TIP3    H232646   0.112   3.653   6.148
10905TIP3   OH232647   0.043   3.495   4.371
10905TIP3    H132648   0.058   3.498   4.466
10905TIP3    H232649   0.088   3.416   4.343
10906TIP3   OH232650   8.173   3.476   6.370
10906TIP3    H132651   8.230   3.413   6.326
10906TIP3    H232652   8.218   3.496   6.452
10907TIP3   OH232653   8.143   3.233   4.764
10907TIP3    H132654   8.137   3.160   4.826
10907TIP3    H232655   8.236   3.247   4.751
10908TIP3   OH232656   0.034   3.343   6.062
10908TIP3    H132657  -0.049   3.387   6.080
10908TIP3    H232658   0.048   3.357   5.968
10909TIP3   OH232659   8.319   3.044   4.567
10909TIP3    H132660   8.348   3.135   4.578
10909TIP3    H232661   8.400   2.993   4.570
10910TIP3   OH232662   0.153   3.155   6.221
10910TIP3    H132663   0.135   3.077   6.169
10910TIP3    H232664   0.100   3.224   6.181
10911TIP3   OH232665   0.181   2.914   5.955
10911TIP3    H132666   0.181   2.884   5.864
10911TIP3    H232667   0.089   2.913   5.980
10912TIP3   OH232668   0.091   3.409   5.809
10912TIP3    H132669   0.178   3.449   5.804
10912TIP3    H232670   0.031   3.478   5.779
10913TIP3   OH232671   8.333   3.249   6.287
10913TIP3    H132672   8.351   3.165   6.330
10913TIP3    H232673   8.409   3.303   6.309
10914TIP3   OH232674   8.376   3.005   6.410
10914TIP3    H132675   8.372   2.910   6.402
10914TIP3    H232676   8.428   3.021   6.489
10915TIP3   OH232677   8.160   4.202   4.557
10915TIP3    H132678   8.254   4.194   4.541
10915TIP3    H232679   8.123   4.230   4.473
10916TIP3   OH232680   7.642   3.527   4.743
10916TIP3    H132681   7.736   3.544   4.741
10916TIP3    H232682   7.632   3.440   4.705
10917TIP3   OH232683   7.568   4.124   5.193
10917TIP3    H132684   7.504   4.070   5.147
10917TIP3    H232685   7.612   4.063   5.252
10918TIP3   OH232686   7.709   3.957   5.363
10918TIP3    H132687   7.701   3.887   5.427
10918TIP3    H232688   7.757   4.026   5.408
10919TIP3   OH232689   7.882   3.379   5.745
10919TIP3    H132690   7.874   3.352   5.654
10919TIP3    H232691   7.976   3.374   5.763
10920TIP3   OH232692   8.095   3.064   6.406
10920TIP3    H132693   8.189   3.053   6.394
10920TIP3    H232694   8.064   2.980   6.438
10921TIP3   OH232695   8.049   2.770   5.763
10921TIP3    H132696   8.108   2.696   5.753
10921TIP3    H232697   8.104   2.847   5.751
10922TIP3   OH232698   7.858   3.049   5.806
10922TIP3    H132699   7.890   3.022   5.720
10922TIP3    H232700   7.888   3.139   5.817
10923TIP3   OH232701   8.088   2.658   6.137
10923TIP3    H132702   8.029   2.632   6.208
10923TIP3    H232703   8.030   2.685   6.066
10924TIP3   OH232704   8.113   4.061   6.202
10924TIP3    H132705   8.022   4.039   6.183
10924TIP3    H232706   8.121   4.046   6.297
10925TIP3   OH232707   8.289   4.112   5.755
10925TIP3    H132708   8.231   4.176   5.714
10925TIP3    H232709   8.369   4.117   5.703
10926TIP3   OH232710   0.186   4.306   5.931
10926TIP3    H132711   0.252   4.242   5.956
10926TIP3    H232712   0.215   4.338   5.845
10927TIP3   OH232713   0.507   4.534   5.775
10927TIP3    H132714   0.502   4.512   5.682
10927TIP3    H232715   0.519   4.629   5.776
10928TIP3   OH232716   7.954   4.326   5.780
10928TIP3    H132717   7.865   4.355   5.759
10928TIP3    H232718   7.982   4.385   5.850
10929TIP3   OH232719   8.171   4.313   5.617
10929TIP3    H132720   8.086   4.321   5.662
10929TIP3    H232721   8.155   4.352   5.531
10930TIP3   OH232722   0.040   4.394   5.505
10930TIP3    H132723   0.051   4.419   5.414
10930TIP3    H232724   0.051   4.476   5.554
10931TIP3   OH232725   0.347   4.264   5.472
10931TIP3    H132726   0.258   4.266   5.435
10931TIP3    H232727   0.398   4.215   5.408
10932TIP3   OH232728   7.875   4.141   5.512
10932TIP3    H132729   7.901   4.114   5.600
10932TIP3    H232730   7.943   4.106   5.455
10933TIP3   OH232731   8.066   4.021   5.367
10933TIP3    H132732   8.077   3.940   5.417
10933TIP3    H232733   8.152   4.064   5.372
10934TIP3   OH232734   8.323   4.116   5.387
10934TIP3    H132735   8.339   4.022   5.381
10934TIP3    H232736   8.377   4.145   5.461
10935TIP3   OH232737   8.193   2.488   5.461
10935TIP3    H132738   8.105   2.491   5.424
10935TIP3    H232739   8.215   2.395   5.464
10936TIP3   OH232740   7.965   2.347   5.101
10936TIP3    H132741   7.980   2.406   5.027
10936TIP3    H232742   7.942   2.405   5.173
10937TIP3   OH232743   7.658   3.930   4.891
10937TIP3    H132744   7.575   3.894   4.861
10937TIP3    H232745   7.658   4.021   4.861
10938TIP3   OH232746   8.065   2.484   4.878
10938TIP3    H132747   8.104   2.418   4.821
10938TIP3    H232748   8.138   2.538   4.906
10939TIP3   OH232749   8.422   4.162   4.499
10939TIP3    H132750   8.507   4.200   4.522
10939TIP3    H232751   8.444   4.089   4.440
10940TIP3   OH232752   8.388   2.734   6.386
10940TIP3    H132753   8.360   2.658   6.437
10940TIP3    H232754   8.417   2.697   6.302
10941TIP3   OH232755   7.746   3.929   4.555
10941TIP3    H132756   7.754   3.938   4.650
10941TIP3    H232757   7.826   3.884   4.528
10942TIP3   OH232758   1.313   4.282   6.723
10942TIP3    H132759   1.278   4.369   6.703
10942TIP3    H232760   1.245   4.221   6.694
10943TIP3   OH232761   6.969   0.287   0.169
10943TIP3    H132762   7.020   0.258   0.245
10943TIP3    H232763   6.931   0.207   0.134
10944TIP3   OH232764   6.298   0.198   0.527
10944TIP3    H132765   6.254   0.114   0.513
10944TIP3    H232766   6.374   0.195   0.470
10945TIP3   OH232767   1.574   4.583   6.811
10945TIP3    H132768   1.563   4.516   6.878
10945TIP3    H232769   1.596   4.662   6.859
10946TIP3   OH232770   6.275   0.578   0.229
10946TIP3    H132771   6.249   0.485   0.231
10946TIP3    H232772   6.368   0.576   0.206
10947TIP3   OH232773   6.022   0.094   0.208
10947TIP3    H132774   6.070   0.025   0.255
10947TIP3    H232775   6.079   0.171   0.213
10948TIP3   OH232776   1.231   5.011   6.826
10948TIP3    H132777   1.255   4.951   6.756
10948TIP3    H232778   1.243   4.961   6.907
10949TIP3   OH232779   6.782   0.498   0.205
10949TIP3    H132780   6.824   0.420   0.169
10949TIP3    H232781   6.855   0.553   0.235
10950TIP3   OH232782   4.977   7.841   0.199
10950TIP3    H132783   5.000   7.920   0.248
10950TIP3    H232784   5.011   7.855   0.111
10951TIP3   OH232785   4.350   7.982   0.237
10951TIP3    H132786   4.403   7.905   0.256
10951TIP3    H232787   4.318   7.968   0.147
10952TIP3   OH232788   3.713   7.642   0.194
10952TIP3    H132789   3.707   7.721   0.140
10952TIP3    H232790   3.661   7.577   0.148
10953TIP3   OH232791   1.578   3.743   6.770
10953TIP3    H132792   1.650   3.737   6.833
10953TIP3    H232793   1.618   3.780   6.692
10954TIP3   OH232794   3.353   7.909   0.305
10954TIP3    H132795   3.426   7.865   0.349
10954TIP3    H232796   3.336   7.855   0.228
10955TIP3   OH232797   6.596   0.046   0.140
10955TIP3    H132798   6.690   0.040   0.123
10955TIP3    H232799   6.559  -0.033   0.101
10956TIP3   OH232800   7.878   0.032   0.383
10956TIP3    H132801   7.807   0.094   0.367
10956TIP3    H232802   7.926   0.067   0.458
10957TIP3   OH232803   3.706   7.689   0.655
10957TIP3    H132804   3.626   7.737   0.633
10957TIP3    H232805   3.677   7.620   0.715
10958TIP3   OH232806   1.178   4.492   6.606
10958TIP3    H132807   1.161   4.478   6.513
10958TIP3    H232808   1.133   4.574   6.627
10959TIP3   OH232809   6.640   0.428   0.432
10959TIP3    H132810   6.580   0.495   0.464
10959TIP3    H232811   6.682   0.468   0.356
10960TIP3   OH232812   4.598   7.775   0.026
10960TIP3    H132813   4.559   7.749   0.109
10960TIP3    H232814   4.649   7.853   0.046
10961TIP3   OH232815   3.578   7.786   0.397
10961TIP3    H132816   3.627   7.861   0.429
10961TIP3    H232817   3.629   7.753   0.323
10962TIP3   OH232818   6.453   0.602   0.548
10962TIP3    H132819   6.403   0.664   0.495
10962TIP3    H232820   6.388   0.558   0.602
10963TIP3   OH232821   7.277   0.821   0.016
10963TIP3    H132822   7.189   0.815   0.051
10963TIP3    H232823   7.278   0.904  -0.032
10964TIP3   OH232824   4.765   7.715   0.330
10964TIP3    H132825   4.676   7.729   0.298
10964TIP3    H232826   4.820   7.760   0.266
10965TIP3   OH232827   4.137   7.372   0.261
10965TIP3    H132828   4.103   7.282   0.256
10965TIP3    H232829   4.064   7.422   0.297
10966TIP3   OH232830   1.316   4.861   6.608
10966TIP3    H132831   1.366   4.780   6.597
10966TIP3    H232832   1.377   4.930   6.581
10967TIP3   OH232833   1.469   4.642   6.560
10967TIP3    H132834   1.475   4.565   6.502
10967TIP3    H232835   1.507   4.612   6.643
10968TIP3   OH232836   7.510   0.715   0.357
10968TIP3    H132837   7.496   0.640   0.299
10968TIP3    H232838   7.496   0.791   0.301
10969TIP3   OH232839   1.140   4.126   6.574
10969TIP3    H132840   1.057   4.169   6.555
10969TIP3    H232841   1.182   4.115   6.488
10970TIP3   OH232842   1.114   3.884   6.313
10970TIP3    H132843   1.175   3.954   6.338
10970TIP3    H232844   1.166   3.827   6.256
10971TIP3   OH232845   7.704   0.379   0.221
10971TIP3    H132846   7.620   0.424   0.219
10971TIP3    H232847   7.741   0.393   0.134
10972TIP3   OH232848   1.492   4.218   6.525
10972TIP3    H132849   1.438   4.243   6.600
10972TIP3    H232850   1.575   4.189   6.565
10973TIP3   OH232851   7.378   0.280   0.479
10973TIP3    H132852   7.365   0.369   0.513
10973TIP3    H232853   7.300   0.263   0.426
10974TIP3   OH232854   6.389   0.187   0.022
10974TIP3    H132855   6.356   0.129  -0.047
10974TIP3    H232856   6.465   0.140   0.058
10975TIP3   OH232857   6.536   0.612   0.130
10975TIP3    H132858   6.514   0.593   0.039
10975TIP3    H232859   6.622   0.572   0.143
10976TIP3   OH232860   6.514   0.191   0.364
10976TIP3    H132861   6.548   0.150   0.284
10976TIP3    H232862   6.566   0.271   0.373
10977TIP3   OH232863   7.035   0.817   0.143
10977TIP3    H132864   7.034   0.894   0.201
10977TIP3    H232865   7.027   0.742   0.202
10978TIP3   OH232866   6.656   0.723   0.691
10978TIP3    H132867   6.600   0.785   0.738
10978TIP3    H232868   6.595   0.670   0.640
10979TIP3   OH232869   1.320   4.071   6.364
10979TIP3    H132870   1.383   4.128   6.409
10979TIP3    H232871   1.344   4.077   6.272
10980TIP3   OH232872   6.390   0.253   0.782
10980TIP3    H132873   6.382   0.340   0.820
10980TIP3    H232874   6.344   0.259   0.698
10981TIP3   OH232875   1.064   4.749   6.627
10981TIP3    H132876   1.151   4.789   6.627
10981TIP3    H232877   1.012   4.804   6.568
10982TIP3   OH232878   6.452   0.897   0.771
10982TIP3    H132879   6.440   0.914   0.678
10982TIP3    H232880   6.370   0.858   0.800
10983TIP3   OH232881   1.834   3.297   6.418
10983TIP3    H132882   1.758   3.321   6.471
10983TIP3    H232883   1.850   3.374   6.362
10984TIP3   OH232884   0.627   4.050   6.743
10984TIP3    H132885   0.586   4.121   6.695
10984TIP3    H232886   0.563   3.978   6.738
10985TIP3   OH232887   1.659   4.673   5.974
10985TIP3    H132888   1.657   4.766   5.951
10985TIP3    H232889   1.749   4.646   5.953
10986TIP3   OH232890   7.749   1.063   0.420
10986TIP3    H132891   7.752   0.969   0.436
10986TIP3    H232892   7.668   1.092   0.463
10987TIP3   OH232893   6.852   0.843   0.543
10987TIP3    H132894   6.852   0.934   0.572
10987TIP3    H232895   6.783   0.801   0.594
10988TIP3   OH232896   0.961   4.972   6.445
10988TIP3    H132897   0.916   4.957   6.362
10988TIP3    H232898   0.928   5.058   6.474
10989TIP3   OH232899   1.170   4.895   6.078
10989TIP3    H132900   1.219   4.820   6.043
10989TIP3    H232901   1.205   4.907   6.166
10990TIP3   OH232902   1.216   4.942   6.347
10990TIP3    H132903   1.129   4.947   6.387
10990TIP3    H232904   1.272   4.903   6.415
10991TIP3   OH232905   7.568   0.220   0.675
10991TIP3    H132906   7.510   0.267   0.615
10991TIP3    H232907   7.592   0.141   0.627
10992TIP3   OH232908   3.692   7.507   0.442
10992TIP3    H132909   3.684   7.557   0.360
10992TIP3    H232910   3.683   7.573   0.511
10993TIP3   OH232911   4.289   7.556   0.697
10993TIP3    H132912   4.353   7.489   0.722
10993TIP3    H232913   4.303   7.626   0.761
10994TIP3   OH232914   7.329   0.028   0.600
10994TIP3    H132915   7.356   0.043   0.691
10994TIP3    H232916   7.359   0.107   0.554
10995TIP3   OH232917   1.401   4.074   6.104
10995TIP3    H132918   1.358   4.060   6.020
10995TIP3    H232919   1.484   4.117   6.082
10996TIP3   OH232920   1.119   3.460   6.414
10996TIP3    H132921   1.074   3.472   6.498
10996TIP3    H232922   1.078   3.382   6.376
10997TIP3   OH232923   6.531  -0.022   0.533
10997TIP3    H132924   6.490  -0.005   0.618
10997TIP3    H232925   6.532   0.063   0.489
10998TIP3   OH232926   3.630   7.844   0.031
10998TIP3    H132927   3.538   7.827   0.054
10998TIP3    H232928   3.636   7.817  -0.061
10999TIP3   OH232929   1.268   3.920   6.702
10999TIP3    H132930   1.218   3.992   6.663
10999TIP3    H232931   1.324   3.888   6.631
11000TIP3   OH232932   7.123   0.222   0.836
11000TIP3    H132933   7.141   0.130   0.855
11000TIP3    H232934   7.202   0.269   0.863
11001TIP3   OH232935   1.438   3.933   6.918
11001TIP3    H132936   1.372   3.956   6.853
11001TIP3    H232937   1.484   3.857   6.881
11002TIP3   OH232938   3.518   7.991   0.756
11002TIP3    H132939   3.530   8.084   0.774
11002TIP3    H232940   3.486   7.954   0.838
11003TIP3   OH232941   0.795   3.453   6.407
11003TIP3    H132942   0.778   3.457   6.501
11003TIP3    H232943   0.723   3.502   6.368
11004TIP3   OH232944   3.151   7.640   0.196
11004TIP3    H132945   3.198   7.641   0.279
11004TIP3    H232946   3.144   7.547   0.173
11005TIP3   OH232947   0.315   3.538   6.845
11005TIP3    H132948   0.374   3.570   6.777
11005TIP3    H232949   0.245   3.603   6.849
11006TIP3   OH232950   7.138   0.197   0.372
11006TIP3    H132951   7.158   0.118   0.321
11006TIP3    H232952   7.098   0.165   0.452
11007TIP3   OH232953   3.986   7.639   0.072
11007TIP3    H132954   3.917   7.638   0.139
11007TIP3    H232955   4.067   7.653   0.121
11008TIP3   OH232956   3.388   7.725   0.088
11008TIP3    H132957   3.295   7.704   0.095
11008TIP3    H232958   3.430   7.643   0.064
11009TIP3   OH232959   0.800   3.726   6.715
11009TIP3    H132960   0.894   3.739   6.703
11009TIP3    H232961   0.762   3.751   6.631
11010TIP3   OH232962   4.478   7.732   0.269
11010TIP3    H132963   4.455   7.747   0.361
11010TIP3    H232964   4.404   7.683   0.234
11011TIP3   OH232965   0.681   3.777   6.465
11011TIP3    H132966   0.629   3.708   6.424
11011TIP3    H232967   0.740   3.807   6.396
11012TIP3   OH232968   7.462   1.412   0.512
11012TIP3    H132969   7.454   1.427   0.418
11012TIP3    H232970   7.542   1.458   0.537
11013TIP3   OH232971   6.378   0.507   0.895
11013TIP3    H132972   6.455   0.548   0.934
11013TIP3    H232973   6.309   0.519   0.961
11014TIP3   OH232974   4.039   8.036   0.133
11014TIP3    H132975   4.110   7.984   0.095
11014TIP3    H232976   4.048   8.025   0.227
11015TIP3   OH232977   3.546   7.488   0.043
11015TIP3    H132978   3.506   7.413   0.087
11015TIP3    H232979   3.550   7.462  -0.049
11016TIP3   OH232980   4.036   8.029   0.409
11016TIP3    H132981   3.999   7.942   0.427
11016TIP3    H232982   4.101   8.042   0.478
11017TIP3   OH232983   0.907   4.308   6.519
11017TIP3    H132984   0.868   4.221   6.510
11017TIP3    H232985   0.891   4.333   6.610
11018TIP3   OH232986   7.462   0.508   0.181
11018TIP3    H132987   7.497   0.557   0.107
11018TIP3    H232988   7.382   0.468   0.147
11019TIP3   OH232989   1.366   3.571   6.411
11019TIP3    H132990   1.274   3.544   6.407
11019TIP3    H232991   1.363   3.666   6.400
11020TIP3   OH232992   6.980   0.590   0.584
11020TIP3    H132993   7.025   0.584   0.667
11020TIP3    H232994   6.940   0.678   0.584
11021TIP3   OH232995   1.432   3.844   6.492
11021TIP3    H132996   1.528   3.848   6.489
11021TIP3    H232997   1.403   3.910   6.429
11022TIP3   OH232998   6.237   0.294   0.227
11022TIP3    H132999   6.286   0.259   0.153
11022TIP3    H233000   6.281   0.258   0.304
11023TIP3   OH233001   1.066   4.438   6.344
11023TIP3    H133002   1.022   4.523   6.343
11023TIP3    H233003   1.015   4.385   6.404
11024TIP3   OH233004   6.886   0.358   0.849
11024TIP3    H133005   6.845   0.331   0.767
11024TIP3    H233006   6.973   0.319   0.846
11025TIP3   OH233007   7.123   0.869   0.463
11025TIP3    H133008   7.028   0.853   0.469
11025TIP3    H233009   7.143   0.919   0.543
11026TIP3   OH233010   1.846   3.929   6.307
11026TIP3    H133011   1.792   3.882   6.244
11026TIP3    H233012   1.850   4.018   6.272
11027TIP3   OH233013   7.756   0.783   0.452
11027TIP3    H133014   7.661   0.774   0.441
11027TIP3    H233015   7.793   0.758   0.368
11028TIP3   OH233016   1.578   4.741   6.233
11028TIP3    H133017   1.553   4.666   6.287
11028TIP3    H233018   1.601   4.703   6.148
11029TIP3   OH233019   7.231   0.376   0.078
11029TIP3    H133020   7.138   0.359   0.092
11029TIP3    H233021   7.266   0.295   0.040
11030TIP3   OH233022   0.713   4.615   6.836
11030TIP3    H133023   0.709   4.686   6.772
11030TIP3    H233024   0.624   4.611   6.873
11031TIP3   OH233025   0.238   3.943   6.482
11031TIP3    H133026   0.245   4.021   6.536
11031TIP3    H233027   0.178   3.886   6.529
11032TIP3   OH233028   0.823   4.370   6.769
11032TIP3    H133029   0.790   4.458   6.789
11032TIP3    H233030   0.789   4.315   6.839
11033TIP3   OH233031   6.662   0.935   0.350
11033TIP3    H133032   6.704   1.002   0.296
11033TIP3    H233033   6.734   0.892   0.396
11034TIP3   OH233034   0.605   4.843   6.692
11034TIP3    H133035   0.549   4.859   6.767
11034TIP3    H233036   0.656   4.924   6.682
11035TIP3   OH233037   7.022   0.592   0.311
11035TIP3    H133038   7.011   0.584   0.405
11035TIP3    H233039   7.090   0.529   0.289
11036TIP3   OH233040   1.346   4.473   6.135
11036TIP3    H133041   1.394   4.462   6.217
11036TIP3    H233042   1.263   4.426   6.149
11037TIP3   OH233043   7.281   1.097   0.353
11037TIP3    H133044   7.205   1.038   0.361
11037TIP3    H233045   7.257   1.157   0.283
11038TIP3   OH233046   1.660   4.946   5.935
11038TIP3    H133047   1.681   5.006   5.863
11038TIP3    H233048   1.589   4.989   5.982
11039TIP3   OH233049   1.517   4.437   6.356
11039TIP3    H133050   1.498   4.361   6.411
11039TIP3    H233051   1.611   4.428   6.336
11040TIP3   OH233052   0.716   4.460   6.130
11040TIP3    H133053   0.736   4.372   6.100
11040TIP3    H233054   0.698   4.451   6.223
11041TIP3   OH233055   0.690   4.456   6.408
11041TIP3    H133056   0.776   4.436   6.443
11041TIP3    H233057   0.679   4.550   6.424
11042TIP3   OH233058   0.297   4.152   6.639
11042TIP3    H133059   0.269   4.195   6.720
11042TIP3    H233060   0.374   4.201   6.611
11043TIP3   OH233061   4.403   7.795   0.520
11043TIP3    H133062   4.448   7.873   0.550
11043TIP3    H233063   4.454   7.722   0.556
11044TIP3   OH233064   1.425   3.530   6.678
11044TIP3    H133065   1.402   3.549   6.587
11044TIP3    H233066   1.468   3.610   6.709
11045TIP3   OH233067   0.917   4.665   6.351
11045TIP3    H133068   0.834   4.688   6.391
11045TIP3    H233069   0.935   4.737   6.290
11046TIP3   OH233070   1.079   3.729   6.762
11046TIP3    H133071   1.141   3.798   6.737
11046TIP3    H233072   1.102   3.708   6.853
11047TIP3   OH233073   7.054   0.078   0.607
11047TIP3    H133074   7.039   0.142   0.677
11047TIP3    H233075   7.145   0.051   0.619
11048TIP3   OH233076   1.240   3.421   6.850
11048TIP3    H133077   1.218   3.497   6.904
11048TIP3    H233078   1.308   3.453   6.791
11049TIP3   OH233079   0.664   4.738   6.438
11049TIP3    H133080   0.647   4.808   6.375
11049TIP3    H233081   0.648   4.778   6.524
11050TIP3   OH233082   0.752   3.448   6.692
11050TIP3    H133083   0.733   3.541   6.701
11050TIP3    H233084   0.848   3.444   6.691
11051TIP3   OH233085   4.828   8.001   0.577
11051TIP3    H133086   4.781   7.923   0.607
11051TIP3    H233087   4.842   7.986   0.483
11052TIP3   OH233088   7.321   0.119  -0.011
11052TIP3    H133089   7.246   0.058  -0.007
11052TIP3    H233090   7.390   0.075   0.039
11053TIP3   OH233091   0.314   4.395   6.472
11053TIP3    H133092   0.318   4.487   6.501
11053TIP3    H233093   0.303   4.401   6.377
11054TIP3   OH233094   0.479   3.607   6.637
11054TIP3    H133095   0.479   3.702   6.649
11054TIP3    H233096   0.422   3.592   6.562
11055TIP3   OH233097   1.634   5.094   6.872
11055TIP3    H133098   1.591   5.145   6.803
11055TIP3    H233099   1.727   5.110   6.858
11056TIP3   OH233100   3.658   7.238   0.352
11056TIP3    H133101   3.594   7.265   0.287
11056TIP3    H233102   3.693   7.320   0.388
11057TIP3   OH233103   6.578   1.059   0.969
11057TIP3    H133104   6.665   1.024   0.949
11057TIP3    H233105   6.521   1.017   0.905
11058TIP3   OH233106   0.880   4.653   6.028
11058TIP3    H133107   0.830   4.585   6.072
11058TIP3    H233108   0.953   4.607   5.987
11059TIP3   OH233109   7.168   0.994   0.702
11059TIP3    H133110   7.165   0.915   0.756
11059TIP3    H233111   7.254   1.033   0.721
11060TIP3   OH233112   1.297   4.682   5.960
11060TIP3    H133113   1.333   4.617   6.021
11060TIP3    H233114   1.356   4.679   5.884
11061TIP3   OH233115   0.540   4.207   6.210
11061TIP3    H133116   0.543   4.148   6.285
11061TIP3    H233117   0.625   4.198   6.168
11062TIP3   OH233118   6.816   0.621   0.892
11062TIP3    H133119   6.773   0.641   0.810
11062TIP3    H233120   6.850   0.533   0.881
11063TIP3   OH233121   1.060   4.351   6.085
11063TIP3    H133122   1.057   4.374   6.177
11063TIP3    H233123   1.004   4.273   6.077
11064TIP3   OH233124   7.291   0.645   0.508
11064TIP3    H133125   7.367   0.675   0.459
11064TIP3    H233126   7.223   0.711   0.489
11065TIP3   OH233127   0.818   4.057   6.506
11065TIP3    H133128   0.771   4.010   6.575
11065TIP3    H233129   0.817   3.997   6.432
11066TIP3   OH233130   6.643   0.141   0.778
11066TIP3    H133131   6.561   0.188   0.787
11066TIP3    H233132   6.690   0.187   0.709
11067TIP3   OH233133   0.843   3.886   6.275
11067TIP3    H133134   0.832   3.888   6.180
11067TIP3    H233135   0.937   3.882   6.288
11068TIP3   OH233136   7.185   0.526   0.872
11068TIP3    H133137   7.264   0.502   0.822
11068TIP3    H233138   7.191   0.474   0.952
11069TIP3   OH233139   1.629   4.189   5.992
11069TIP3    H133140   1.621   4.146   5.907
11069TIP3    H233141   1.603   4.279   5.976
11070TIP3   OH233142   3.976   7.984   0.914
11070TIP3    H133143   3.958   7.912   0.854
11070TIP3    H233144   3.921   8.056   0.883
11071TIP3   OH233145   3.943   7.757   0.764
11071TIP3    H133146   3.998   7.778   0.688
11071TIP3    H233147   3.855   7.745   0.728
11072TIP3   OH233148   6.798   0.268   0.590
11072TIP3    H133149   6.833   0.211   0.522
11072TIP3    H233150   6.752   0.337   0.542
11073TIP3   OH233151   7.406   0.226   0.936
11073TIP3    H133152   7.470   0.191   0.998
11073TIP3    H233153   7.459   0.265   0.866
11074TIP3   OH233154   7.412   0.493   0.695
11074TIP3    H133155   7.359   0.551   0.640
11074TIP3    H233156   7.501   0.502   0.659
11075TIP3   OH233157   4.004   7.527   0.894
11075TIP3    H133158   3.988   7.612   0.854
11075TIP3    H233159   3.932   7.471   0.863
11076TIP3   OH233160   6.997   0.022   1.118
11076TIP3    H133161   6.982   0.117   1.123
11076TIP3    H233162   6.944  -0.006   1.043
11077TIP3   OH233163   4.366   7.981   0.857
11077TIP3    H133164   4.307   7.906   0.861
11077TIP3    H233165   4.451   7.947   0.884
11078TIP3   OH233166   4.719   7.887   1.167
11078TIP3    H133167   4.796   7.833   1.146
11078TIP3    H233168   4.649   7.824   1.182
11079TIP3   OH233169   4.185   7.336   0.956
11079TIP3    H133170   4.153   7.315   1.044
11079TIP3    H233171   4.130   7.408   0.927
11080TIP3   OH233172   0.658   4.948   6.256
11080TIP3    H133173   0.743   4.929   6.218
11080TIP3    H233174   0.611   4.997   6.188
11081TIP3   OH233175   1.898   5.164   6.855
11081TIP3    H133176   1.930   5.190   6.942
11081TIP3    H233177   1.964   5.199   6.795
11082TIP3   OH233178   7.593   1.173   0.200
11082TIP3    H133179   7.546   1.090   0.190
11082TIP3    H233180   7.666   1.153   0.259
11083TIP3   OH233181   7.634   0.870   0.777
11083TIP3    H133182   7.568   0.878   0.846
11083TIP3    H233183   7.680   0.954   0.779
11084TIP3   OH233184   1.792   4.397   6.323
11084TIP3    H133185   1.852   4.464   6.291
11084TIP3    H233186   1.838   4.356   6.396
11085TIP3   OH233187   1.922   4.252   6.522
11085TIP3    H133188   1.854   4.214   6.577
11085TIP3    H233189   1.986   4.287   6.583
11086TIP3   OH233190   1.972   4.651   6.955
11086TIP3    H133191   2.025   4.582   6.915
11086TIP3    H233192   1.975   4.723   6.893
11087TIP3   OH233193   7.450   0.934   0.204
11087TIP3    H133194   7.383   0.980   0.255
11087TIP3    H233195   7.402   0.893   0.132
11088TIP3   OH233196   1.836   4.169   6.171
11088TIP3    H133197   1.765   4.167   6.106
11088TIP3    H233198   1.818   4.248   6.223
11089TIP3   OH233199   1.698   3.813   6.109
11089TIP3    H133200   1.643   3.853   6.042
11089TIP3    H233201   1.688   3.719   6.096
11090TIP3   OH233202   1.718   4.115   6.658
11090TIP3    H133203   1.724   4.020   6.643
11090TIP3    H233204   1.700   4.124   6.751
11091TIP3   OH233205   7.663   0.526   0.580
11091TIP3    H133206   7.726   0.457   0.562
11091TIP3    H233207   7.685   0.596   0.519
11092TIP3   OH233208   7.829   0.311   0.574
11092TIP3    H133209   7.760   0.270   0.626
11092TIP3    H233210   7.907   0.257   0.590
11093TIP3   OH233211   1.657   3.540   6.082
11093TIP3    H133212   1.714   3.518   6.155
11093TIP3    H233213   1.571   3.509   6.108
11094TIP3   OH233214   1.724   3.839   6.547
11094TIP3    H133215   1.769   3.756   6.561
11094TIP3    H233216   1.765   3.876   6.469
11095TIP3   OH233217   7.540  -0.002   0.121
11095TIP3    H133218   7.622   0.016   0.074
11095TIP3    H233219   7.551   0.040   0.206
11096TIP3   OH233220   7.602   0.158   0.342
11096TIP3    H133221   7.525   0.197   0.383
11096TIP3    H233222   7.645   0.231   0.297
11097TIP3   OH233223   5.225   7.771   0.925
11097TIP3    H133224   5.309   7.733   0.899
11097TIP3    H233225   5.227   7.860   0.888
11098TIP3   OH233226   1.835   3.586   6.598
11098TIP3    H133227   1.879   3.570   6.682
11098TIP3    H233228   1.771   3.516   6.591
11099TIP3   OH233229   3.298   7.605   0.423
11099TIP3    H133230   3.350   7.526   0.436
11099TIP3    H233231   3.345   7.673   0.473
11100TIP3   OH233232   5.049   7.849   0.696
11100TIP3    H133233   5.031   7.940   0.675
11100TIP3    H233234   5.021   7.800   0.618
11101TIP3   OH233235   1.885   3.500   6.242
11101TIP3    H133236   1.932   3.440   6.183
11101TIP3    H233237   1.939   3.579   6.242
11102TIP3   OH233238   3.199   7.358   0.086
11102TIP3    H133239   3.119   7.305   0.086
11102TIP3    H233240   3.186   7.422   0.016
11103TIP3   OH233241   1.467   5.060   6.505
11103TIP3    H133242   1.519   5.044   6.427
11103TIP3    H233243   1.513   5.129   6.552
11104TIP3   OH233244   6.428   0.920   0.498
11104TIP3    H133245   6.379   0.987   0.449
11104TIP3    H233246   6.512   0.915   0.453
11105TIP3   OH233247   6.851   1.104   0.620
11105TIP3    H133248   6.884   1.107   0.710
11105TIP3    H233249   6.911   1.159   0.570
11106TIP3   OH233250   7.024   1.267   0.488
11106TIP3    H133251   7.079   1.215   0.430
11106TIP3    H233252   7.085   1.319   0.539
11107TIP3   OH233253   4.988   7.683   0.490
11107TIP3    H133254   4.918   7.691   0.425
11107TIP3    H233255   5.024   7.596   0.476
11108TIP3   OH233256   6.320   1.114   0.320
11108TIP3    H133257   6.256   1.185   0.321
11108TIP3    H233258   6.283   1.049   0.259
11109TIP3   OH233259   6.762   1.125   0.176
11109TIP3    H133260   6.712   1.137   0.096
11109TIP3    H233261   6.769   1.213   0.213
11110TIP3   OH233262   7.023   1.080   0.240
11110TIP3    H133263   6.931   1.090   0.216
11110TIP3    H233264   7.069   1.143   0.186
11111TIP3   OH233265   7.216   1.255   0.132
11111TIP3    H133266   7.211   1.341   0.091
11111TIP3    H233267   7.245   1.197   0.061
11112TIP3   OH233268   6.224   0.823   0.103
11112TIP3    H133269   6.218   0.740   0.151
11112TIP3    H233270   6.317   0.847   0.107
11113TIP3   OH233271   6.494   0.888   0.134
11113TIP3    H133272   6.511   0.795   0.117
11113TIP3    H233273   6.545   0.908   0.213
11114TIP3   OH233274   4.251   7.606   0.172
11114TIP3    H133275   4.206   7.531   0.211
11114TIP3    H233276   4.314   7.567   0.112
11115TIP3   OH233277   4.716   7.469   0.121
11115TIP3    H133278   4.757   7.515   0.048
11115TIP3    H233279   4.622   7.484   0.109
11116TIP3   OH233280   1.994   3.526   6.821
11116TIP3    H133281   2.063   3.469   6.788
11116TIP3    H233282   2.028   3.615   6.809
11117TIP3   OH233283   3.436   7.283   0.190
11117TIP3    H133284   3.349   7.302   0.155
11117TIP3    H233285   3.448   7.189   0.177
11118TIP3   OH233286   0.479   3.091   6.785
11118TIP3    H133287   0.485   3.162   6.722
11118TIP3    H233288   0.424   3.125   6.855
11119TIP3   OH233289   3.902   7.288   0.091
11119TIP3    H133290   3.963   7.325   0.027
11119TIP3    H233291   3.875   7.363   0.144
11120TIP3   OH233292   4.446   7.460   0.051
11120TIP3    H133293   4.448   7.427  -0.039
11120TIP3    H233294   4.437   7.382   0.106
11121TIP3   OH233295   1.647   3.378   6.604
11121TIP3    H133296   1.565   3.425   6.619
11121TIP3    H233297   1.631   3.291   6.641
11122TIP3   OH233298   0.560   3.271   6.582
11122TIP3    H133299   0.617   3.217   6.528
11122TIP3    H233300   0.619   3.335   6.622
11123TIP3   OH233301   1.024   3.476   6.677
11123TIP3    H133302   1.092   3.429   6.726
11123TIP3    H233303   1.040   3.568   6.697
11124TIP3   OH233304   0.911   4.883   6.170
11124TIP3    H133305   0.997   4.908   6.138
11124TIP3    H233306   0.886   4.809   6.114
11125TIP3   OH233307   1.613   5.009   6.274
11125TIP3    H133308   1.606   4.914   6.266
11125TIP3    H233309   1.570   5.044   6.196
11126TIP3   OH233310   4.772   7.622   1.044
11126TIP3    H133311   4.795   7.586   1.130
11126TIP3    H233312   4.852   7.665   1.014
11127TIP3   OH233313   7.503   1.139   0.513
11127TIP3    H133314   7.427   1.112   0.461
11127TIP3    H233315   7.493   1.234   0.523
11128TIP3   OH233316   3.105   4.534   6.207
11128TIP3    H133317   3.076   4.622   6.185
11128TIP3    H233318   3.034   4.476   6.177
11129TIP3   OH233319   3.102   4.530   6.626
11129TIP3    H133320   3.154   4.514   6.704
11129TIP3    H233321   3.060   4.446   6.607
11130TIP3   OH233322   8.070   0.395   0.034
11130TIP3    H133323   8.105   0.340   0.104
11130TIP3    H233324   8.146   0.417  -0.020
11131TIP3   OH233325   3.372   4.839   6.301
11131TIP3    H133326   3.359   4.773   6.369
11131TIP3    H233327   3.393   4.919   6.348
11132TIP3   OH233328   2.385   4.823   6.672
11132TIP3    H133329   2.372   4.729   6.673
11132TIP3    H233330   2.480   4.834   6.659
11133TIP3   OH233331   2.076   4.024   6.451
11133TIP3    H133332   2.038   4.109   6.472
11133TIP3    H233333   2.006   3.976   6.406
11134TIP3   OH233334   2.152   4.331   6.663
11134TIP3    H133335   2.202   4.254   6.688
11134TIP3    H233336   2.218   4.392   6.629
11135TIP3   OH233337   3.025   5.273   6.312
11135TIP3    H133338   3.051   5.207   6.248
11135TIP3    H233339   3.033   5.229   6.397
11136TIP3   OH233340   2.906   4.752   6.637
11136TIP3    H133341   2.950   4.674   6.603
11136TIP3    H233342   2.977   4.808   6.668
11137TIP3   OH233343   3.941   4.075   6.649
11137TIP3    H133344   3.959   4.159   6.692
11137TIP3    H233345   3.963   4.090   6.557
11138TIP3   OH233346   3.316   4.242   6.668
11138TIP3    H133347   3.353   4.157   6.695
11138TIP3    H233348   3.280   4.226   6.581
11139TIP3   OH233349   2.670   3.901   6.629
11139TIP3    H133350   2.652   3.975   6.570
11139TIP3    H233351   2.616   3.830   6.595
11140TIP3   OH233352   3.369   4.003   6.264
11140TIP3    H133353   3.434   3.995   6.334
11140TIP3    H233354   3.418   4.037   6.189
11141TIP3   OH233355   2.295   4.112   6.754
11141TIP3    H133356   2.379   4.096   6.798
11141TIP3    H233357   2.300   4.062   6.673
11142TIP3   OH233358   2.718   4.313   6.574
11142TIP3    H133359   2.813   4.298   6.579
11142TIP3    H233360   2.683   4.232   6.537
11143TIP3   OH233361   4.000   4.293   6.816
11143TIP3    H133362   3.912   4.330   6.809
11143TIP3    H233363   4.035   4.329   6.898
11144TIP3   OH233364   5.495   7.908   0.130
11144TIP3    H133365   5.441   7.943   0.058
11144TIP3    H233366   5.443   7.925   0.209
11145TIP3   OH233367   2.993   4.751   6.080
11145TIP3    H133368   2.956   4.727   5.995
11145TIP3    H233369   2.945   4.830   6.105
11146TIP3   OH233370   2.753   4.675   6.855
11146TIP3    H133371   2.699   4.747   6.887
11146TIP3    H233372   2.801   4.713   6.781
11147TIP3   OH233373   3.533   4.019   6.482
11147TIP3    H133374   3.490   4.000   6.565
11147TIP3    H233375   3.589   4.095   6.501
11148TIP3   OH233376   2.540   4.012   6.848
11148TIP3    H133377   2.595   4.086   6.871
11148TIP3    H233378   2.586   3.968   6.776
11149TIP3   OH233379   8.261   0.874   0.015
11149TIP3    H133380   8.247   0.962  -0.019
11149TIP3    H233381   8.182   0.855   0.067
11150TIP3   OH233382   1.969   4.580   6.205
11150TIP3    H133383   1.937   4.596   6.117
11150TIP3    H233384   1.993   4.667   6.238
11151TIP3   OH233385   3.410   5.085   6.443
11151TIP3    H133386   3.323   5.075   6.481
11151TIP3    H233387   3.408   5.169   6.398
11152TIP3   OH233388   3.739   3.964   6.814
11152TIP3    H133389   3.654   3.990   6.780
11152TIP3    H233390   3.801   3.993   6.747
11153TIP3   OH233391   2.997   3.596   6.805
11153TIP3    H133392   2.990   3.504   6.829
11153TIP3    H233393   2.920   3.638   6.843
11154TIP3   OH233394   3.113   5.116   6.098
11154TIP3    H133395   3.165   5.037   6.088
11154TIP3    H233396   3.170   5.187   6.069
11155TIP3   OH233397   3.268   4.898   6.051
11155TIP3    H133398   3.227   4.818   6.018
11155TIP3    H233399   3.310   4.873   6.133
11156TIP3   OH233400   3.644   4.977   6.787
11156TIP3    H133401   3.627   4.903   6.729
11156TIP3    H233402   3.627   5.054   6.733
11157TIP3   OH233403   2.931   4.378   6.054
11157TIP3    H133404   2.849   4.424   6.035
11157TIP3    H233405   2.977   4.377   5.970
11158TIP3   OH233406   2.906   4.166   5.765
11158TIP3    H133407   2.970   4.222   5.808
11158TIP3    H233408   2.957   4.104   5.713
11159TIP3   OH233409   3.828   4.633   6.648
11159TIP3    H133410   3.744   4.679   6.650
11159TIP3    H233411   3.862   4.649   6.560
11160TIP3   OH233412   3.289   4.468   6.016
11160TIP3    H133413   3.234   4.494   6.089
11160TIP3    H233414   3.372   4.442   6.056
11161TIP3   OH233415   0.686   0.491   0.017
11161TIP3    H133416   0.685   0.574   0.065
11161TIP3    H233417   0.604   0.489  -0.031
11162TIP3   OH233418   2.514   4.446   6.429
11162TIP3    H133419   2.479   4.388   6.362
11162TIP3    H233420   2.589   4.399   6.465
11163TIP3   OH233421   2.647   4.870   6.568
11163TIP3    H133422   2.625   4.856   6.476
11163TIP3    H233423   2.735   4.833   6.578
11164TIP3   OH233424   2.618   4.444   6.797
11164TIP3    H133425   2.656   4.409   6.716
11164TIP3    H233426   2.668   4.523   6.815
11165TIP3   OH233427   3.171   5.071   6.570
11165TIP3    H133428   3.158   5.153   6.617
11165TIP3    H233429   3.154   5.003   6.636
11166TIP3   OH233430   8.460   0.975   0.180
11166TIP3    H133431   8.401   1.034   0.226
11166TIP3    H233432   8.404   0.924   0.123
11167TIP3   OH233433   3.123   4.324   5.848
11167TIP3    H133434   3.182   4.384   5.895
11167TIP3    H233435   3.148   4.333   5.756
11168TIP3   OH233436   8.215   0.534   0.325
11168TIP3    H133437   8.214   0.629   0.340
11168TIP3    H233438   8.123   0.511   0.311
11169TIP3   OH233439   2.864   4.998   6.112
11169TIP3    H133440   2.948   5.044   6.115
11169TIP3    H233441   2.808   5.054   6.059
11170TIP3   OH233442   8.248   1.134   0.260
11170TIP3    H133443   8.226   1.143   0.167
11170TIP3    H233444   8.164   1.121   0.304
11171TIP3   OH233445   3.633   3.554   5.907
11171TIP3    H133446   3.556   3.576   5.959
11171TIP3    H233447   3.647   3.630   5.851
11172TIP3   OH233448   2.391   4.290   6.227
11172TIP3    H133449   2.317   4.339   6.190
11172TIP3    H233450   2.357   4.201   6.238
11173TIP3   OH233451   3.456   4.932   5.459
11173TIP3    H133452   3.453   5.026   5.438
11173TIP3    H233453   3.546   4.906   5.437
11174TIP3   OH233454   7.838   0.690   0.211
11174TIP3    H133455   7.771   0.670   0.146
11174TIP3    H233456   7.875   0.605   0.235
11175TIP3   OH233457   2.042   4.872   6.794
11175TIP3    H133458   2.135   4.868   6.774
11175TIP3    H233459   2.033   4.951   6.847
11176TIP3   OH233460   3.893   5.343   6.849
11176TIP3    H133461   3.894   5.248   6.860
11176TIP3    H233462   3.810   5.371   6.888
11177TIP3   OH233463   0.144   1.119   0.035
11177TIP3    H133464   0.143   1.209   0.067
11177TIP3    H233465   0.080   1.074   0.089
11178TIP3   OH233466   2.759   5.223   5.934
11178TIP3    H133467   2.716   5.202   5.851
11178TIP3    H233468   2.721   5.307   5.960
11179TIP3   OH233469   2.192   5.079   6.313
11179TIP3    H133470   2.238   5.071   6.397
11179TIP3    H233471   2.145   4.997   6.303
11180TIP3   OH233472   2.959   5.152   5.559
11180TIP3    H133473   3.005   5.077   5.523
11180TIP3    H233474   2.995   5.163   5.647
11181TIP3   OH233475   3.012   5.196   5.830
11181TIP3    H133476   2.927   5.200   5.872
11181TIP3    H233477   3.071   5.160   5.896
11182TIP3   OH233478   0.935   0.448   0.182
11182TIP3    H133479   0.851   0.459   0.137
11182TIP3    H233480   0.953   0.354   0.177
11183TIP3   OH233481   8.041   0.874   0.183
11183TIP3    H133482   8.091   0.862   0.264
11183TIP3    H233483   7.969   0.812   0.190
11184TIP3   OH233484   2.760   3.687   6.925
11184TIP3    H133485   2.675   3.659   6.891
11184TIP3    H233486   2.742   3.767   6.974
11185TIP3   OH233487   6.141   7.816   0.188
11185TIP3    H133488   6.212   7.790   0.247
11185TIP3    H233489   6.061   7.796   0.236
11186TIP3   OH233490   0.690   0.225   0.099
11186TIP3    H133491   0.650   0.221   0.186
11186TIP3    H233492   0.676   0.316   0.071
11187TIP3   OH233493   3.200   4.318   5.584
11187TIP3    H133494   3.145   4.329   5.506
11187TIP3    H233495   3.282   4.363   5.562
11188TIP3   OH233496   2.913   3.723   5.906
11188TIP3    H133497   2.874   3.730   5.993
11188TIP3    H233498   2.872   3.645   5.868
11189TIP3   OH233499   8.364   0.212  -0.002
11189TIP3    H133500   8.321   0.222   0.083
11189TIP3    H233501   8.343   0.292  -0.050
11190TIP3   OH233502   2.579   4.099   6.463
11190TIP3    H133503   2.489   4.076   6.486
11190TIP3    H233504   2.590   4.067   6.373
11191TIP3   OH233505   3.058   4.174   6.189
11191TIP3    H133506   3.010   4.246   6.148
11191TIP3    H233507   3.117   4.142   6.120
11192TIP3   OH233508   0.426   0.448   0.314
11192TIP3    H133509   0.395   0.380   0.373
11192TIP3    H233510   0.518   0.461   0.338
11193TIP3   OH233511   3.223   4.189   6.416
11193TIP3    H133512   3.157   4.214   6.352
11193TIP3    H233513   3.270   4.116   6.376
11194TIP3   OH233514   8.194   0.229   0.218
11194TIP3    H133515   8.252   0.279   0.275
11194TIP3    H233516   8.180   0.146   0.263
11195TIP3   OH233517   2.574   3.710   5.876
11195TIP3    H133518   2.565   3.718   5.971
11195TIP3    H233519   2.497   3.754   5.841
11196TIP3   OH233520   2.122   3.752   6.751
11196TIP3    H133521   2.193   3.792   6.801
11196TIP3    H233522   2.157   3.744   6.662
11197TIP3   OH233523   2.038   3.734   6.251
11197TIP3    H133524   2.082   3.768   6.173
11197TIP3    H233525   1.974   3.801   6.274
11198TIP3   OH233526   3.262   4.442   6.843
11198TIP3    H133527   3.288   4.376   6.779
11198TIP3    H233528   3.221   4.392   6.914
11199TIP3   OH233529   2.939   3.889   6.514
11199TIP3    H133530   2.861   3.891   6.571
11199TIP3    H233531   3.013   3.883   6.575
11200TIP3   OH233532   2.339   3.975   6.522
11200TIP3    H133533   2.250   3.979   6.486
11200TIP3    H233534   2.369   3.886   6.503
11201TIP3   OH233535   2.593   3.976   6.217
11201TIP3    H133536   2.687   3.987   6.206
11201TIP3    H233537   2.556   3.994   6.130
11202TIP3   OH233538   3.392   3.979   6.721
11202TIP3    H133539   3.373   3.996   6.813
11202TIP3    H233540   3.324   3.918   6.693
11203TIP3   OH233541   2.476   3.999   5.970
11203TIP3    H133542   2.412   3.950   5.918
11203TIP3    H233543   2.530   4.045   5.906
11204TIP3   OH233544   0.726   1.666   0.025
11204TIP3    H133545   0.694   1.728  -0.040
11204TIP3    H233546   0.660   1.669   0.095
11205TIP3   OH233547   8.191   0.795   0.419
11205TIP3    H133548   8.273   0.814   0.464
11205TIP3    H233549   8.124   0.800   0.487
11206TIP3   OH233550   2.991   4.257   6.622
11206TIP3    H133551   3.058   4.211   6.572
11206TIP3    H233552   2.992   4.214   6.708
11207TIP3   OH233553   2.483   3.729   6.504
11207TIP3    H133554   2.455   3.652   6.553
11207TIP3    H233555   2.509   3.695   6.418
11208TIP3   OH233556   2.966   4.159   6.889
11208TIP3    H133557   2.878   4.191   6.911
11208TIP3    H233558   3.024   4.212   6.943
11209TIP3   OH233559   2.692   4.517   6.001
11209TIP3    H133560   2.618   4.461   5.977
11209TIP3    H233561   2.668   4.555   6.085
11210TIP3   OH233562   3.592   4.771   6.609
11210TIP3    H133563   3.626   4.821   6.535
11210TIP3    H233564   3.511   4.732   6.576
11211TIP3   OH233565   3.164   3.830   5.906
11211TIP3    H133566   3.071   3.809   5.901
11211TIP3    H233567   3.167   3.925   5.914
11212TIP3   OH233568   0.268   0.849   0.081
11212TIP3    H133569   0.327   0.844   0.157
11212TIP3    H233570   0.234   0.938   0.084
11213TIP3   OH233571   3.224   4.096   5.975
11213TIP3    H133572   3.319   4.101   5.983
11213TIP3    H233573   3.200   4.171   5.921
11214TIP3   OH233574   2.386   4.538   6.655
11214TIP3    H133575   2.423   4.518   6.569
11214TIP3    H233576   2.452   4.507   6.718
11215TIP3   OH233577   2.850   4.680   5.848
11215TIP3    H133578   2.802   4.763   5.846
11215TIP3    H233579   2.793   4.621   5.898
11216TIP3   OH233580   7.941   0.470   0.351
11216TIP3    H133581   7.957   0.449   0.442
11216TIP3    H233582   7.869   0.413   0.325
11217TIP3   OH233583   0.190   0.592   0.359
11217TIP3    H133584   0.134   0.557   0.290
11217TIP3    H233585   0.277   0.560   0.337
11218TIP3   OH233586   3.248   5.129   6.894
11218TIP3    H133587   3.152   5.123   6.896
11218TIP3    H233588   3.271   5.171   6.977
11219TIP3   OH233589   3.642   4.187   5.796
11219TIP3    H133590   3.586   4.141   5.733
11219TIP3    H233591   3.647   4.276   5.762
11220TIP3   OH233592   3.891   5.057   6.877
11220TIP3    H133593   3.796   5.047   6.873
11220TIP3    H233594   3.923   5.026   6.792
11221TIP3   OH233595   3.380   5.002   5.724
11221TIP3    H133596   3.349   4.932   5.782
11221TIP3    H233597   3.395   4.958   5.640
11222TIP3   OH233598   3.360   4.638   6.508
11222TIP3    H133599   3.269   4.617   6.531
11222TIP3    H233600   3.394   4.557   6.470
11223TIP3   OH233601   2.513   4.873   6.318
11223TIP3    H133602   2.517   4.950   6.261
11223TIP3    H233603   2.420   4.854   6.326
11224TIP3   OH233604   2.071   4.158   6.024
11224TIP3    H133605   2.115   4.240   6.046
11224TIP3    H233606   1.991   4.159   6.077
11225TIP3   OH233607   2.603   4.624   6.232
11225TIP3    H133608   2.589   4.715   6.259
11225TIP3    H233609   2.575   4.572   6.307
11226TIP3   OH233610   2.792   5.196   6.772
11226TIP3    H133611   2.829   5.269   6.722
11226TIP3    H233612   2.866   5.164   6.825
11227TIP3   OH233613   2.426   5.099   6.166
11227TIP3    H133614   2.340   5.104   6.206
11227TIP3    H233615   2.461   5.188   6.170
11228TIP3   OH233616   3.142   4.853   6.748
11228TIP3    H133617   3.130   4.850   6.842
11228TIP3    H233618   3.226   4.809   6.734
11229TIP3   OH233619   3.143   4.738   5.612
11229TIP3    H133620   3.185   4.714   5.694
11229TIP3    H233621   3.058   4.694   5.615
11230TIP3   OH233622   3.401   5.354   6.782
11230TIP3    H133623   3.327   5.295   6.795
11230TIP3    H233624   3.372   5.415   6.715
11231TIP3   OH233625   3.458   5.206   5.421
11231TIP3    H133626   3.482   5.272   5.356
11231TIP3    H233627   3.384   5.245   5.468
11232TIP3   OH233628   5.335   7.997   0.337
11232TIP3    H133629   5.243   7.977   0.358
11232TIP3    H233630   5.385   7.947   0.401
11233TIP3   OH233631   3.307   4.670   5.825
11233TIP3    H133632   3.293   4.603   5.892
11233TIP3    H233633   3.402   4.672   5.812
11234TIP3   OH233634   7.880   1.082  -0.002
11234TIP3    H133635   7.935   1.020   0.046
11234TIP3    H233636   7.903   1.168   0.035
11235TIP3   OH233637   2.487   4.706   5.629
11235TIP3    H133638   2.500   4.615   5.599
11235TIP3    H233639   2.472   4.698   5.723
11236TIP3   OH233640   2.432   4.720   5.902
11236TIP3    H133641   2.507   4.694   5.955
11236TIP3    H233642   2.432   4.816   5.905
11237TIP3   OH233643   2.168   4.408   6.108
11237TIP3    H133644   2.103   4.456   6.159
11237TIP3    H233645   2.188   4.467   6.035
11238TIP3   OH233646   0.497   0.034   0.041
11238TIP3    H133647   0.575   0.080   0.072
11238TIP3    H233648   0.491  -0.043   0.098
11239TIP3   OH233649   3.222   3.784   6.174
11239TIP3    H133650   3.200   3.802   6.083
11239TIP3    H233651   3.264   3.864   6.205
11240TIP3   OH233652   2.703   4.907   5.843
11240TIP3    H133653   2.617   4.934   5.876
11240TIP3    H233654   2.727   4.975   5.780
11241TIP3   OH233655   2.872   3.982   6.259
11241TIP3    H133656   2.934   4.050   6.233
11241TIP3    H233657   2.895   3.963   6.351
11242TIP3   OH233658   0.334   0.270   0.103
11242TIP3    H133659   0.365   0.318   0.180
11242TIP3    H233660   0.386   0.190   0.102
11243TIP3   OH233661   3.035   3.680   6.350
11243TIP3    H133662   3.011   3.757   6.402
11243TIP3    H233663   3.104   3.711   6.292
11244TIP3   OH233664   2.451   4.994   5.913
11244TIP3    H133665   2.430   5.065   5.852
11244TIP3    H233666   2.441   5.033   5.999
11245TIP3   OH233667   2.547   3.703   6.157
11245TIP3    H133668   2.536   3.795   6.183
11245TIP3    H233669   2.641   3.688   6.162
11246TIP3   OH233670   0.955   0.176   0.090
11246TIP3    H133671   0.860   0.182   0.099
11246TIP3    H233672   0.969   0.122   0.012
11247TIP3   OH233673   3.450   4.379   6.418
11247TIP3    H133674   3.373   4.324   6.430
11247TIP3    H233675   3.517   4.338   6.472
11248TIP3   OH233676   2.186   4.590   5.894
11248TIP3    H133677   2.257   4.653   5.903
11248TIP3    H233678   2.219   4.527   5.829
11249TIP3   OH233679   2.099   3.880   6.028
11249TIP3    H133680   2.110   3.975   6.033
11249TIP3    H233681   2.045   3.865   5.951
11250TIP3   OH233682   3.429   5.351   6.358
11250TIP3    H133683   3.387   5.402   6.289
11250TIP3    H233684   3.523   5.363   6.344
11251TIP3   OH233685   2.495   3.613   6.882
11251TIP3    H133686   2.467   3.582   6.796
11251TIP3    H233687   2.491   3.536   6.938
11252TIP3   OH233688   2.021   4.853   6.286
11252TIP3    H133689   1.974   4.888   6.362
11252TIP3    H233690   1.979   4.895   6.211
11253TIP3   OH233691   7.892   1.387   0.417
11253TIP3    H133692   7.972   1.396   0.469
11253TIP3    H233693   7.889   1.294   0.395
11254TIP3   OH233694   8.345   1.307   0.453
11254TIP3    H133695   8.438   1.289   0.465
11254TIP3    H233696   8.319   1.249   0.381
11255TIP3   OH233697   2.649   4.905   5.528
11255TIP3    H133698   2.600   4.833   5.567
11255TIP3    H233699   2.719   4.861   5.478
11256TIP3   OH233700   0.452   1.228   0.200
11256TIP3    H133701   0.456   1.160   0.267
11256TIP3    H233702   0.533   1.278   0.210
11257TIP3   OH233703   3.081   4.939   5.435
11257TIP3    H133704   3.113   4.874   5.498
11257TIP3    H233705   3.141   4.933   5.361
11258TIP3   OH233706   7.986   0.779   0.608
11258TIP3    H133707   8.006   0.685   0.616
11258TIP3    H233708   7.901   0.781   0.566
11259TIP3   OH233709   2.308   4.398   5.745
11259TIP3    H133710   2.361   4.372   5.820
11259TIP3    H233711   2.372   4.410   5.674
11260TIP3   OH233712   0.107   0.865   0.387
11260TIP3    H133713   0.069   0.889   0.303
11260TIP3    H233714   0.150   0.781   0.371
11261TIP3   OH233715   2.890   4.625   5.582
11261TIP3    H133716   2.866   4.639   5.673
11261TIP3    H233717   2.877   4.531   5.568
11262TIP3   OH233718   3.417   4.908   6.932
11262TIP3    H133719   3.496   4.939   6.888
11262TIP3    H233720   3.353   4.977   6.918
11263TIP3   OH233721   8.104   0.519   0.600
11263TIP3    H133722   8.176   0.516   0.537
11263TIP3    H233723   8.145   0.548   0.682
11264TIP3   OH233724   2.488   4.335   5.953
11264TIP3    H133725   2.471   4.299   6.040
11264TIP3    H233726   2.537   4.266   5.907
11265TIP3   OH233727   8.432   0.385   0.249
11265TIP3    H133728   8.366   0.450   0.274
11265TIP3    H233729   8.486   0.430   0.184
11266TIP3   OH233730   2.627   4.149   5.798
11266TIP3    H133731   2.601   4.156   5.706
11266TIP3    H233732   2.723   4.152   5.796
11267TIP3   OH233733   0.466   0.780   0.364
11267TIP3    H133734   0.538   0.747   0.310
11267TIP3    H233735   0.468   0.725   0.442
11268TIP3   OH233736   3.425   4.444   5.474
11268TIP3    H133737   3.410   4.403   5.389
11268TIP3    H233738   3.401   4.536   5.462
11269TIP3   OH233739   0.074   0.186   0.367
11269TIP3    H133740   0.080   0.108   0.312
11269TIP3    H233741   0.029   0.250   0.313
11270TIP3   OH233742   5.751   7.993   0.174
11270TIP3    H133743   5.779   8.032   0.091
11270TIP3    H233744   5.661   7.966   0.158
11271TIP3   OH233745   0.092   0.527   0.080
11271TIP3    H133746   0.180   0.543   0.047
11271TIP3    H233747   0.035   0.579   0.023
11272TIP3   OH233748   0.686   0.471   0.429
11272TIP3    H133749   0.734   0.389   0.436
11272TIP3    H233750   0.753   0.538   0.418
11273TIP3   OH233751   0.711   0.732   0.162
11273TIP3    H133752   0.656   0.791   0.111
11273TIP3    H233753   0.800   0.749   0.132
11274TIP3   OH233754   8.456   0.301   0.599
11274TIP3    H133755   8.390   0.233   0.611
11274TIP3    H233756   8.489   0.286   0.510
11275TIP3   OH233757   5.873   7.757   0.256
11275TIP3    H133758   5.831   7.839   0.228
11275TIP3    H233759   5.805   7.691   0.244
11276TIP3   OH233760   0.332   0.240   0.458
11276TIP3    H133761   0.327   0.223   0.552
11276TIP3    H233762   0.245   0.217   0.425
11277TIP3   OH233763   0.574   0.176   0.336
11277TIP3    H133764   0.496   0.182   0.390
11277TIP3    H233765   0.645   0.156   0.397
11278TIP3   OH233766   0.809   0.147   0.485
11278TIP3    H133767   0.823   0.052   0.492
11278TIP3    H233768   0.805   0.177   0.576
11279TIP3   OH233769   8.292   0.088   0.641
11279TIP3    H133770   8.310   0.014   0.583
11279TIP3    H233771   8.332   0.063   0.725
11280TIP3   OH233772   5.949   7.750   0.514
11280TIP3    H133773   6.019   7.685   0.512
11280TIP3    H233774   5.916   7.752   0.424
11281TIP3   OH233775   6.046   7.982   0.621
11281TIP3    H133776   6.023   7.901   0.574
11281TIP3    H233777   5.966   8.034   0.618
11282TIP3   OH233778   2.447   5.204   5.730
11282TIP3    H133779   2.537   5.183   5.705
11282TIP3    H233780   2.410   5.248   5.654
11283TIP3   OH233781   1.913   4.576   5.921
11283TIP3    H133782   2.007   4.590   5.910
11283TIP3    H233783   1.896   4.492   5.878
11284TIP3   OH233784   1.818   5.166   6.369
11284TIP3    H133785   1.755   5.112   6.322
11284TIP3    H233786   1.863   5.106   6.428
11285TIP3   OH233787   1.959   5.000   6.540
11285TIP3    H133788   1.948   4.932   6.607
11285TIP3    H233789   2.011   5.068   6.583
11286TIP3   OH233790   3.699   5.403   6.346
11286TIP3    H133791   3.714   5.430   6.437
11286TIP3    H233792   3.752   5.464   6.294
11287TIP3   OH233793   3.715   5.441   6.621
11287TIP3    H133794   3.668   5.358   6.624
11287TIP3    H233795   3.781   5.434   6.691
11288TIP3   OH233796   0.933   1.124   0.269
11288TIP3    H133797   0.858   1.135   0.327
11288TIP3    H233798   0.974   1.210   0.266
11289TIP3   OH233799   3.588   4.651   5.809
11289TIP3    H133800   3.647   4.720   5.779
11289TIP3    H233801   3.632   4.612   5.884
11290TIP3   OH233802   3.716   4.507   6.010
11290TIP3    H133803   3.648   4.469   6.065
11290TIP3    H233804   3.780   4.543   6.071
11291TIP3   OH233805   3.769   4.911   6.444
11291TIP3    H133806   3.821   4.844   6.399
11291TIP3    H233807   3.768   4.984   6.383
11292TIP3   OH233808   3.578   5.198   6.637
11292TIP3    H133809   3.511   5.243   6.689
11292TIP3    H233810   3.529   5.157   6.566
11293TIP3   OH233811   3.632   4.426   5.655
11293TIP3    H133812   3.561   4.423   5.591
11293TIP3    H233813   3.613   4.503   5.708
11294TIP3   OH233814   3.490   4.077   5.598
11294TIP3    H133815   3.440   4.116   5.526
11294TIP3    H233816   3.479   3.982   5.586
11295TIP3   OH233817   3.516   4.369   6.148
11295TIP3    H133818   3.521   4.274   6.134
11295TIP3    H233819   3.497   4.379   6.241
11296TIP3   OH233820   2.142   4.436   6.915
11296TIP3    H133821   2.133   4.403   6.826
11296TIP3    H233822   2.236   4.435   6.932
11297TIP3   OH233823   0.969   0.783   0.071
11297TIP3    H133824   1.036   0.717   0.053
11297TIP3    H233825   0.985   0.852   0.006
11298TIP3   OH233826   1.147   0.571   0.060
11298TIP3    H133827   1.073   0.531   0.105
11298TIP3    H233828   1.221   0.515   0.082
11299TIP3   OH233829   3.448   3.806   5.574
11299TIP3    H133830   3.511   3.779   5.642
11299TIP3    H233831   3.365   3.767   5.602
11300TIP3   OH233832   3.514   4.093   6.035
11300TIP3    H133833   3.559   4.009   6.047
11300TIP3    H233834   3.556   4.132   5.959
11301TIP3   OH233835   3.666   4.254   6.556
11301TIP3    H133836   3.746   4.272   6.508
11301TIP3    H233837   3.679   4.295   6.641
11302TIP3   OH233838   3.740   4.406   6.782
11302TIP3    H133839   3.668   4.436   6.837
11302TIP3    H233840   3.772   4.486   6.739
11303TIP3   OH233841   8.020   0.113   0.614
11303TIP3    H133842   8.115   0.106   0.616
11303TIP3    H233843   7.992   0.095   0.704
11304TIP3   OH233844   7.033   8.017   0.381
11304TIP3    H133845   7.097   7.955   0.344
11304TIP3    H233846   6.999   8.064   0.305
11305TIP3   OH233847   3.628   3.842   6.084
11305TIP3    H133848   3.673   3.826   6.167
11305TIP3    H233849   3.565   3.770   6.077
11306TIP3   OH233850   2.330   3.833   6.920
11306TIP3    H133851   2.384   3.754   6.919
11306TIP3    H233852   2.391   3.904   6.900
11307TIP3   OH233853   7.784   0.092   0.031
11307TIP3    H133854   7.833   0.078  -0.050
11307TIP3    H233855   7.812   0.178   0.061
11308TIP3   OH233856   1.220   0.120   0.184
11308TIP3    H133857   1.143   0.160   0.223
11308TIP3    H233858   1.186   0.050   0.129
11309TIP3   OH233859   3.679   3.757   5.728
11309TIP3    H133860   3.724   3.697   5.668
11309TIP3    H233861   3.733   3.835   5.729
11310TIP3   OH233862   2.103   3.593   6.476
11310TIP3    H133863   2.016   3.584   6.515
11310TIP3    H233864   2.089   3.650   6.400
11311TIP3   OH233865   3.258   5.316   5.990
11311TIP3    H133866   3.315   5.304   5.914
11311TIP3    H233867   3.301   5.383   6.043
11312TIP3   OH233868   5.196   7.699   0.301
11312TIP3    H133869   5.160   7.712   0.389
11312TIP3    H233870   5.130   7.737   0.243
11313TIP3   OH233871   8.018   1.116   0.420
11313TIP3    H133872   7.927   1.086   0.416
11313TIP3    H233873   8.043   1.104   0.511
11314TIP3   OH233874   2.564   5.156   6.919
11314TIP3    H133875   2.514   5.232   6.887
11314TIP3    H233876   2.649   5.164   6.876
11315TIP3   OH233877   0.135   1.386   0.120
11315TIP3    H133878   0.173   1.379   0.208
11315TIP3    H233879   0.201   1.435   0.070
11316TIP3   OH233880   0.330   1.530  -0.011
11316TIP3    H133881   0.407   1.479  -0.038
11316TIP3    H233882   0.363   1.589   0.057
11317TIP3   OH233883   6.795   7.886   0.075
11317TIP3    H133884   6.708   7.881   0.036
11317TIP3    H233885   6.829   7.797   0.070
11318TIP3   OH233886   7.893   1.389   0.028
11318TIP3    H133887   7.802   1.412   0.005
11318TIP3    H233888   7.918   1.455   0.092
11319TIP3   OH233889   2.456   5.388   6.815
11319TIP3    H133890   2.372   5.393   6.861
11319TIP3    H233891   2.436   5.412   6.725
11320TIP3   OH233892   2.872   5.406   6.610
11320TIP3    H133893   2.803   5.422   6.546
11320TIP3    H233894   2.887   5.491   6.652
11321TIP3   OH233895   3.136   5.332   6.651
11321TIP3    H133896   3.045   5.357   6.636
11321TIP3    H233897   3.187   5.404   6.615
11322TIP3   OH233898   3.332   5.513   6.560
11322TIP3    H133899   3.333   5.601   6.522
11322TIP3    H233900   3.364   5.457   6.491
11323TIP3   OH233901   2.133   5.177   6.687
11323TIP3    H133902   2.160   5.154   6.776
11323TIP3    H233903   2.204   5.146   6.632
11324TIP3   OH233904   2.337   5.064   6.549
11324TIP3    H133905   2.350   4.980   6.592
11324TIP3    H233906   2.424   5.105   6.549
11325TIP3   OH233907   2.606   5.149   6.569
11325TIP3    H133908   2.625   5.057   6.554
11325TIP3    H233909   2.661   5.174   6.642
11326TIP3   OH233910   3.167   3.801   6.653
11326TIP3    H133911   3.129   3.729   6.703
11326TIP3    H233912   3.236   3.761   6.601
11327TIP3   OH233913   3.672   3.703   6.537
11327TIP3    H133914   3.711   3.753   6.466
11327TIP3    H233915   3.582   3.735   6.543
11328TIP3   OH233916   3.787   3.787   6.305
11328TIP3    H133917   3.857   3.728   6.277
11328TIP3    H233918   3.825   3.875   6.292
11329TIP3   OH233919   2.410   3.501   6.645
11329TIP3    H133920   2.320   3.470   6.653
11329TIP3    H233921   2.463   3.422   6.639
11330TIP3   OH233922   2.237   3.403   6.308
11330TIP3    H133923   2.260   3.452   6.230
11330TIP3    H233924   2.197   3.467   6.367
11331TIP3   OH233925   2.887   3.537   6.546
11331TIP3    H133926   2.934   3.585   6.477
11331TIP3    H233927   2.928   3.566   6.627
11332TIP3   OH233928   3.381   3.686   6.523
11332TIP3    H133929   3.396   3.653   6.435
11332TIP3    H233930   3.386   3.608   6.579
11333TIP3   OH233931   3.441   3.632   6.089
11333TIP3    H133932   3.362   3.680   6.112
11333TIP3    H233933   3.429   3.545   6.128
11334TIP3   OH233934   1.903   4.978   6.072
11334TIP3    H133935   1.820   4.943   6.037
11334TIP3    H233936   1.907   5.067   6.039
11335TIP3   OH233937   2.337   3.532   6.069
11335TIP3    H133938   2.383   3.475   6.008
11335TIP3    H233939   2.405   3.591   6.102
11336TIP3   OH233940   2.822   3.728   6.169
11336TIP3    H133941   2.884   3.680   6.223
11336TIP3    H233942   2.836   3.820   6.192
11337TIP3   OH233943   2.704   5.132   5.666
11337TIP3    H133944   2.788   5.159   5.627
11337TIP3    H233945   2.675   5.059   5.611
11338TIP3   OH233946   3.412   5.270   5.762
11338TIP3    H133947   3.406   5.175   5.754
11338TIP3    H233948   3.367   5.303   5.684
11339TIP3   OH233949   5.497   7.864   0.513
11339TIP3    H133950   5.430   7.807   0.552
11339TIP3    H233951   5.579   7.836   0.554
11340TIP3   OH233952   5.719   7.799   0.658
11340TIP3    H133953   5.798   7.803   0.604
11340TIP3    H233954   5.732   7.722   0.714
11341TIP3   OH233955   2.015   4.974   5.721
11341TIP3    H133956   2.020   4.984   5.816
11341TIP3    H233957   2.095   4.927   5.698
11342TIP3   OH233958   6.541   7.891   0.490
11342TIP3    H133959   6.560   7.865   0.580
11342TIP3    H233960   6.625   7.885   0.445
11343TIP3   OH233961   3.644   5.418   6.924
11343TIP3    H133962   3.561   5.383   6.891
11343TIP3    H233963   3.624   5.510   6.944
11344TIP3   OH233964   4.901   4.795   5.696
11344TIP3    H133965   4.870   4.881   5.669
11344TIP3    H233966   4.831   4.735   5.669
11345TIP3   OH233967   4.906   4.788   6.114
11345TIP3    H133968   4.956   4.765   6.193
11345TIP3    H233969   4.860   4.707   6.091
11346TIP3   OH233970   4.200   4.656   6.459
11346TIP3    H133971   4.234   4.601   6.530
11346TIP3    H233972   4.278   4.683   6.410
11347TIP3   OH233973   5.171   5.093   5.787
11347TIP3    H133974   5.154   5.027   5.854
11347TIP3    H233975   5.190   5.173   5.836
11348TIP3   OH233976   4.192   5.083   6.154
11348TIP3    H133977   4.174   4.989   6.161
11348TIP3    H233978   4.287   5.088   6.142
11349TIP3   OH233979   3.874   4.283   5.936
11349TIP3    H133980   3.834   4.367   5.959
11349TIP3    H233981   3.804   4.234   5.894
11350TIP3   OH233982   3.947   4.585   6.150
11350TIP3    H133983   3.997   4.508   6.178
11350TIP3    H233984   4.012   4.645   6.114
11351TIP3   OH233985   4.819   5.532   5.794
11351TIP3    H133986   4.849   5.466   5.731
11351TIP3    H233987   4.805   5.482   5.875
11352TIP3   OH233988   4.703   5.012   6.117
11352TIP3    H133989   4.745   4.932   6.083
11352TIP3    H233990   4.776   5.066   6.147
11353TIP3   OH233991   5.734   4.324   6.128
11353TIP3    H133992   5.751   4.410   6.166
11353TIP3    H233993   5.759   4.334   6.036
11354TIP3   OH233994   5.118   4.498   6.155
11354TIP3    H133995   5.153   4.412   6.181
11354TIP3    H233996   5.080   4.482   6.069
11355TIP3   OH233997   4.470   4.159   6.115
11355TIP3    H133998   4.449   4.232   6.056
11355TIP3    H233999   4.415   4.086   6.084
11356TIP3   OH234000   5.164   4.259   5.749
11356TIP3    H134001   5.229   4.251   5.819
11356TIP3    H234002   5.214   4.290   5.673
11357TIP3   OH234003   4.092   4.369   6.245
11357TIP3    H134004   4.176   4.352   6.289
11357TIP3    H234005   4.097   4.318   6.164
11358TIP3   OH234006   4.516   4.570   6.057
11358TIP3    H134007   4.611   4.554   6.062
11358TIP3    H234008   4.480   4.489   6.021
11359TIP3   OH234009   5.786   4.543   6.299
11359TIP3    H134010   5.702   4.586   6.281
11359TIP3    H234011   5.791   4.537   6.394
11360TIP3   OH234012   4.449   4.159   6.568
11360TIP3    H134013   4.398   4.193   6.495
11360TIP3    H234014   4.394   4.174   6.645
11361TIP3   OH234015   4.790   5.008   5.562
11361TIP3    H134016   4.752   4.984   5.477
11361TIP3    H234017   4.742   5.086   5.589
11362TIP3   OH234018   4.548   4.936   6.334
11362TIP3    H134019   4.491   5.005   6.369
11362TIP3    H234020   4.592   4.977   6.260
11363TIP3   OH234021   5.326   4.279   5.968
11363TIP3    H134022   5.288   4.254   6.052
11363TIP3    H234023   5.384   4.352   5.988
11364TIP3   OH234024   4.339   4.266   6.337
11364TIP3    H134025   4.395   4.341   6.361
11364TIP3    H234026   4.386   4.224   6.264
11365TIP3   OH234027   4.388   5.136   6.440
11365TIP3    H134028   4.371   5.225   6.409
11365TIP3    H234029   4.310   5.114   6.492
11366TIP3   OH234030   3.766   4.836   5.691
11366TIP3    H134031   3.729   4.855   5.604
11366TIP3    H234032   3.789   4.923   5.726
11367TIP3   OH234033   5.212   5.340   5.928
11367TIP3    H134034   5.126   5.332   5.970
11367TIP3    H234035   5.208   5.424   5.881
11368TIP3   OH234036   5.530   4.232   6.303
11368TIP3    H134037   5.444   4.247   6.264
11368TIP3    H234038   5.592   4.253   6.233
11369TIP3   OH234039   4.793   3.852   6.296
11369TIP3    H134040   4.784   3.759   6.320
11369TIP3    H234041   4.717   3.894   6.335
11370TIP3   OH234042   4.913   5.377   5.582
11370TIP3    H134043   4.964   5.296   5.573
11370TIP3    H234044   4.973   5.446   5.555
11371TIP3   OH234045   5.068   5.158   5.536
11371TIP3    H134046   5.031   5.078   5.497
11371TIP3    H234047   5.107   5.128   5.619
11372TIP3   OH234048   5.444   5.227   6.277
11372TIP3    H134049   5.424   5.154   6.219
11372TIP3    H234050   5.427   5.305   6.224
11373TIP3   OH234051   4.727   4.636   5.546
11373TIP3    H134052   4.646   4.681   5.526
11373TIP3    H234053   4.773   4.630   5.461
11374TIP3   OH234054   4.701   4.433   5.239
11374TIP3    H134055   4.767   4.484   5.287
11374TIP3    H234056   4.752   4.370   5.188
11375TIP3   OH234057   5.622   4.896   6.135
11375TIP3    H134058   5.537   4.939   6.133
11375TIP3    H234059   5.658   4.909   6.047
11376TIP3   OH234060   5.086   4.725   5.507
11376TIP3    H134061   5.030   4.752   5.581
11376TIP3    H234062   5.166   4.694   5.548
11377TIP3   OH234063   5.316   4.759   6.443
11377TIP3    H134064   5.308   4.841   6.493
11377TIP3    H234065   5.234   4.753   6.395
11378TIP3   OH234066   4.312   4.704   5.914
11378TIP3    H134067   4.275   4.646   5.849
11378TIP3    H234068   4.386   4.655   5.951
11379TIP3   OH234069   4.451   5.131   6.049
11379TIP3    H134070   4.425   5.114   5.958
11379TIP3    H234071   4.538   5.090   6.057
11380TIP3   OH234072   4.420   4.697   6.285
11380TIP3    H134073   4.457   4.662   6.204
11380TIP3    H234074   4.469   4.779   6.300
11381TIP3   OH234075   4.979   5.335   6.065
11381TIP3    H134076   4.958   5.414   6.116
11381TIP3    H234077   4.959   5.262   6.124
11382TIP3   OH234078   4.586   5.234   6.605
11382TIP3    H134079   4.527   5.294   6.652
11382TIP3    H234080   4.529   5.183   6.549
11383TIP3   OH234081   4.917   4.583   5.342
11383TIP3    H134082   4.976   4.640   5.392
11383TIP3    H234083   4.943   4.595   5.251
11384TIP3   OH234084   4.341   4.783   6.742
11384TIP3    H134085   4.346   4.875   6.765
11384TIP3    H234086   4.248   4.764   6.736
11385TIP3   OH234087   4.665   5.255   5.601
11385TIP3    H134088   4.747   5.304   5.599
11385TIP3    H234089   4.605   5.307   5.548
11386TIP3   OH234090   4.382   5.397   6.693
11386TIP3    H134091   4.352   5.406   6.603
11386TIP3    H234092   4.303   5.377   6.744
11387TIP3   OH234093   5.431   3.810   5.396
11387TIP3    H134094   5.353   3.830   5.447
11387TIP3    H234095   5.445   3.886   5.340
11388TIP3   OH234096   4.187   4.549   5.712
11388TIP3    H134097   4.111   4.596   5.677
11388TIP3    H234098   4.155   4.460   5.727
11389TIP3   OH234099   5.252   5.177   4.942
11389TIP3    H134100   5.244   5.269   4.916
11389TIP3    H234101   5.334   5.147   4.902
11390TIP3   OH234102   3.969   4.948   6.640
11390TIP3    H134103   3.899   4.933   6.576
11390TIP3    H234104   4.003   4.861   6.660
11391TIP3   OH234105   3.810   5.148   6.290
11391TIP3    H134106   3.901   5.170   6.309
11391TIP3    H234107   3.760   5.224   6.320
11392TIP3   OH234108   5.670   5.606   6.339
11392TIP3    H134109   5.676   5.511   6.346
11392TIP3    H234110   5.589   5.628   6.385
11393TIP3   OH234111   4.777   5.376   6.467
11393TIP3    H134112   4.768   5.467   6.493
11393TIP3    H234113   4.708   5.330   6.516
11394TIP3   OH234114   4.555   5.484   5.417
11394TIP3    H134115   4.505   5.461   5.339
11394TIP3    H234116   4.515   5.567   5.446
11395TIP3   OH234117   3.989   5.334   5.797
11395TIP3    H134118   4.032   5.326   5.883
11395TIP3    H234119   3.939   5.253   5.788
11396TIP3   OH234120   4.753   5.419   5.051
11396TIP3    H134121   4.798   5.341   5.017
11396TIP3    H234122   4.788   5.430   5.139
11397TIP3   OH234123   4.810   5.457   5.321
11397TIP3    H134124   4.721   5.462   5.357
11397TIP3    H234125   4.862   5.419   5.392
11398TIP3   OH234126   5.556   4.711   6.606
11398TIP3    H134127   5.478   4.719   6.551
11398TIP3    H234128   5.575   4.618   6.608
11399TIP3   OH234129   4.171   5.134   6.610
11399TIP3    H134130   4.219   5.123   6.692
11399TIP3    H234131   4.098   5.072   6.617
11400TIP3   OH234132   4.556   3.945   6.422
11400TIP3    H134133   4.473   3.912   6.389
11400TIP3    H234134   4.533   4.025   6.469
11401TIP3   OH234135   5.096   4.066   6.620
11401TIP3    H134136   5.165   4.039   6.680
11401TIP3    H234137   5.015   4.047   6.667
11402TIP3   OH234138   5.327   4.496   6.544
11402TIP3    H134139   5.281   4.490   6.628
11402TIP3    H234140   5.301   4.582   6.509
11403TIP3   OH234141   5.000   4.602   5.087
11403TIP3    H134142   4.952   4.589   5.005
11403TIP3    H234143   5.084   4.638   5.059
11404TIP3   OH234144   4.707   3.983   5.390
11404TIP3    H134145   4.669   3.990   5.478
11404TIP3    H234146   4.669   3.902   5.354
11405TIP3   OH234147   4.494   4.475   6.434
11405TIP3    H134148   4.446   4.482   6.516
11405TIP3    H234149   4.473   4.556   6.387
11406TIP3   OH234150   4.375   4.356   5.950
11406TIP3    H134151   4.286   4.333   5.975
11406TIP3    H234152   4.385   4.322   5.861
11407TIP3   OH234153   4.856   4.432   5.679
11407TIP3    H134154   4.807   4.503   5.638
11407TIP3    H234155   4.913   4.399   5.610
11408TIP3   OH234156   5.040   4.701   6.756
11408TIP3    H134157   5.010   4.633   6.816
11408TIP3    H234158   5.133   4.712   6.776
11409TIP3   OH234159   5.024   4.448   5.902
11409TIP3    H134160   4.955   4.470   5.840
11409TIP3    H234161   5.069   4.373   5.863
11410TIP3   OH234162   4.327   4.491   6.651
11410TIP3    H134163   4.334   4.556   6.721
11410TIP3    H234164   4.308   4.409   6.697
11411TIP3   OH234165   4.371   3.967   5.364
11411TIP3    H134166   4.360   3.973   5.459
11411TIP3    H234167   4.294   4.011   5.328
11412TIP3   OH234168   3.918   4.011   6.232
11412TIP3    H134169   3.989   4.047   6.284
11412TIP3    H234170   3.957   3.996   6.146
11413TIP3   OH234171   3.832   3.990   5.738
11413TIP3    H134172   3.877   4.026   5.661
11413TIP3    H234173   3.768   4.058   5.762
11414TIP3   OH234174   5.064   4.697   6.330
11414TIP3    H134175   5.089   4.630   6.266
11414TIP3    H234176   5.021   4.648   6.400
11415TIP3   OH234177   4.738   4.149   6.004
11415TIP3    H134178   4.660   4.148   6.059
11415TIP3    H234179   4.811   4.140   6.066
11416TIP3   OH234180   4.136   4.232   6.011
11416TIP3    H134181   4.047   4.237   5.975
11416TIP3    H234182   4.164   4.142   5.993
11417TIP3   OH234183   4.390   4.232   5.705
11417TIP3    H134184   4.484   4.242   5.693
11417TIP3    H234185   4.352   4.250   5.619
11418TIP3   OH234186   5.194   4.236   6.215
11418TIP3    H134187   5.172   4.254   6.307
11418TIP3    H234188   5.126   4.175   6.186
11419TIP3   OH234189   4.272   4.258   5.460
11419TIP3    H134190   4.208   4.209   5.408
11419TIP3    H234191   4.326   4.303   5.395
11420TIP3   OH234192   5.381   5.939   6.430
11420TIP3    H134193   5.375   5.956   6.336
11420TIP3    H234194   5.458   5.988   6.458
11421TIP3   OH234195   4.330   5.046   6.844
11421TIP3    H134196   4.409   5.068   6.893
11421TIP3    H234197   4.259   5.055   6.908
11422TIP3   OH234198   4.789   4.517   6.109
11422TIP3    H134199   4.852   4.464   6.060
11422TIP3    H234200   4.785   4.476   6.196
11423TIP3   OH234201   4.281   3.984   5.996
11423TIP3    H134202   4.253   3.908   6.047
11423TIP3    H234203   4.305   3.948   5.911
11424TIP3   OH234204   4.760   4.420   6.374
11424TIP3    H134205   4.672   4.449   6.398
11424TIP3    H234206   4.819   4.472   6.429
11425TIP3   OH234207   4.491   4.776   5.488
11425TIP3    H134208   4.418   4.719   5.466
11425TIP3    H234209   4.467   4.814   5.572
11426TIP3   OH234210   5.384   5.029   6.096
11426TIP3    H134211   5.416   5.078   6.021
11426TIP3    H234212   5.304   4.986   6.064
11427TIP3   OH234213   4.959   4.085   5.394
11427TIP3    H134214   4.866   4.064   5.388
11427TIP3    H234215   4.961   4.181   5.402
11428TIP3   OH234216   4.903   5.116   6.496
11428TIP3    H134217   4.932   5.102   6.587
11428TIP3    H234218   4.856   5.199   6.499
11429TIP3   OH234219   5.018   4.352   5.463
11429TIP3    H134220   5.113   4.355   5.468
11429TIP3    H234221   4.994   4.427   5.409
11430TIP3   OH234222   4.190   4.797   6.145
11430TIP3    H134223   4.226   4.775   6.058
11430TIP3    H234224   4.253   4.760   6.206
11431TIP3   OH234225   4.645   4.936   5.330
11431TIP3    H134226   4.598   5.020   5.329
11431TIP3    H234227   4.590   4.878   5.382
11432TIP3   OH234228   4.069   4.714   6.768
11432TIP3    H134229   4.071   4.691   6.861
11432TIP3    H234230   3.994   4.667   6.733
11433TIP3   OH234231   4.805   4.853   6.793
11433TIP3    H134232   4.735   4.794   6.766
11433TIP3    H234233   4.885   4.810   6.763
11434TIP3   OH234234   5.053   5.397   6.397
11434TIP3    H134235   4.959   5.383   6.403
11434TIP3    H234236   5.078   5.435   6.481
11435TIP3   OH234237   5.441   4.440   5.282
11435TIP3    H134238   5.384   4.395   5.221
11435TIP3    H234239   5.446   4.530   5.249
11436TIP3   OH234240   5.686   5.329   6.358
11436TIP3    H134241   5.594   5.303   6.357
11436TIP3    H234242   5.723   5.293   6.277
11437TIP3   OH234243   5.245   5.228   5.213
11437TIP3    H134244   5.177   5.184   5.265
11437TIP3    H234245   5.225   5.204   5.123
11438TIP3   OH234246   5.156   4.891   5.996
11438TIP3    H134247   5.066   4.868   6.019
11438TIP3    H234248   5.192   4.811   5.957
11439TIP3   OH234249   4.306   5.128   5.805
11439TIP3    H134250   4.303   5.204   5.747
11439TIP3    H234251   4.215   5.114   5.831
11440TIP3   OH234252   3.865   4.414   5.507
11440TIP3    H134253   3.909   4.496   5.529
11440TIP3    H234254   3.785   4.415   5.560
11441TIP3   OH234255   4.402   4.883   5.719
11441TIP3    H134256   4.381   4.972   5.746
11441TIP3    H234257   4.372   4.828   5.792
11442TIP3   OH234258   4.588   5.453   6.260
11442TIP3    H134259   4.624   5.526   6.210
11442TIP3    H234260   4.663   5.418   6.309
11443TIP3   OH234261   4.223   5.353   5.653
11443TIP3    H134262   4.136   5.357   5.693
11443TIP3    H234263   4.257   5.442   5.658
11444TIP3   OH234264   4.943   5.109   6.225
11444TIP3    H134265   4.934   5.106   6.320
11444TIP3    H234266   5.008   5.040   6.205
11445TIP3   OH234267   4.934   4.988   5.105
11445TIP3    H134268   4.978   4.966   5.188
11445TIP3    H234269   4.849   4.945   5.111
11446TIP3   OH234270   5.200   5.613   6.270
11446TIP3    H134271   5.128   5.552   6.286
11446TIP3    H234272   5.168   5.668   6.198
11447TIP3   OH234273   5.255   5.450   4.910
11447TIP3    H134274   5.269   5.480   4.821
11447TIP3    H234275   5.188   5.508   4.946
11448TIP3   OH234276   4.277   4.238   6.774
11448TIP3    H134277   4.181   4.246   6.780
11448TIP3    H234278   4.301   4.188   6.852
11449TIP3   OH234279   5.101   4.931   5.322
11449TIP3    H134280   5.084   4.861   5.386
11449TIP3    H234281   5.196   4.928   5.308
11450TIP3   OH234282   4.018   5.334   6.418
11450TIP3    H134283   4.070   5.272   6.469
11450TIP3    H234284   4.024   5.416   6.467
11451TIP3   OH234285   4.287   4.957   5.111
11451TIP3    H134286   4.295   4.866   5.083
11451TIP3    H234287   4.270   4.952   5.205
11452TIP3   OH234288   4.230   4.976   5.383
11452TIP3    H134289   4.298   4.948   5.444
11452TIP3    H234290   4.230   5.071   5.389
11453TIP3   OH234291   3.963   4.664   5.593
11453TIP3    H134292   3.897   4.710   5.645
11453TIP3    H234293   3.982   4.723   5.520
11454TIP3   OH234294   5.132   4.300   6.477
11454TIP3    H134295   5.211   4.340   6.514
11454TIP3    H234296   5.118   4.221   6.530
11455TIP3   OH234297   5.016   4.039   5.662
11455TIP3    H134298   4.995   4.056   5.570
11455TIP3    H234299   5.059   4.120   5.691
11456TIP3   OH234300   4.504   5.167   5.330
11456TIP3    H134301   4.417   5.189   5.365
11456TIP3    H234302   4.523   5.237   5.268
11457TIP3   OH234303   4.671   4.238   5.748
11457TIP3    H134304   4.733   4.306   5.722
11457TIP3    H234305   4.693   4.219   5.839
11458TIP3   OH234306   4.968   4.532   6.527
11458TIP3    H134307   4.990   4.572   6.612
11458TIP3    H234308   5.016   4.450   6.526
11459TIP3   OH234309   4.829   3.937   5.838
11459TIP3    H134310   4.806   4.015   5.889
11459TIP3    H234311   4.898   3.967   5.779
11460TIP3   OH234312   4.250   5.249   5.400
11460TIP3    H134313   4.228   5.320   5.340
11460TIP3    H234314   4.238   5.287   5.487
11461TIP3   OH234315   4.342   3.959   5.643
11461TIP3    H134316   4.330   4.049   5.671
11461TIP3    H234317   4.437   3.944   5.648
11462TIP3   OH234318   5.587   4.430   6.510
11462TIP3    H134319   5.494   4.446   6.528
11462TIP3    H234320   5.587   4.365   6.440
11463TIP3   OH234321   5.247   4.634   5.905
11463TIP3    H134322   5.169   4.579   5.915
11463TIP3    H234323   5.313   4.592   5.959
11464TIP3   OH234324   3.983   4.845   5.379
11464TIP3    H134325   4.054   4.909   5.387
11464TIP3    H234326   4.016   4.781   5.315
11465TIP3   OH234327   3.896   4.136   5.515
11465TIP3    H134328   3.905   4.232   5.518
11465TIP3    H234329   3.838   4.120   5.441
11466TIP3   OH234330   5.226   5.609   5.847
11466TIP3    H134331   5.183   5.660   5.779
11466TIP3    H234332   5.320   5.621   5.830
11467TIP3   OH234333   4.295   3.858   6.381
11467TIP3    H134334   4.265   3.826   6.296
11467TIP3    H234335   4.286   3.783   6.439
11468TIP3   OH234336   3.817   5.109   5.771
11468TIP3    H134337   3.769   5.144   5.847
11468TIP3    H234338   3.775   5.151   5.696
11469TIP3   OH234339   4.011   5.636   6.831
11469TIP3    H134340   4.093   5.634   6.880
11469TIP3    H234341   3.980   5.545   6.833
11470TIP3   OH234342   4.484   5.564   6.889
11470TIP3    H134343   4.576   5.539   6.895
11470TIP3    H234344   4.449   5.509   6.818
11471TIP3   OH234345   4.449   5.153   5.005
11471TIP3    H134346   4.399   5.084   5.048
11471TIP3    H234347   4.522   5.107   4.962
11472TIP3   OH234348   5.125   5.503   6.645
11472TIP3    H134349   5.130   5.430   6.707
11472TIP3    H234350   5.203   5.555   6.663
11473TIP3   OH234351   4.871   5.200   4.943
11473TIP3    H134352   4.909   5.129   4.996
11473TIP3    H234353   4.918   5.196   4.860
11474TIP3   OH234354   1.289   1.039   0.092
11474TIP3    H134355   1.307   0.945   0.102
11474TIP3    H234356   1.202   1.042   0.051
11475TIP3   OH234357   4.109   4.655   5.229
11475TIP3    H134358   4.162   4.630   5.305
11475TIP3    H234359   4.172   4.665   5.158
11476TIP3   OH234360   4.742   5.129   6.807
11476TIP3    H134361   4.692   5.149   6.728
11476TIP3    H234362   4.769   5.038   6.796
11477TIP3   OH234363   4.673   4.879   5.062
11477TIP3    H134364   4.652   4.891   5.154
11477TIP3    H234365   4.661   4.785   5.046
11478TIP3   OH234366   5.226   5.168   6.440
11478TIP3    H134367   5.298   5.196   6.384
11478TIP3    H234368   5.154   5.229   6.421
11479TIP3   OH234369   1.404   0.783   0.099
11479TIP3    H134370   1.481   0.758   0.048
11479TIP3    H234371   1.438   0.803   0.186
11480TIP3   OH234372   4.286   4.594   5.441
11480TIP3    H134373   4.264   4.561   5.528
11480TIP3    H234374   4.334   4.523   5.399
11481TIP3   OH234375   4.600   4.679   6.697
11481TIP3    H134376   4.512   4.717   6.705
11481TIP3    H234377   4.630   4.705   6.611
11482TIP3   OH234378   4.426   4.408   5.289
11482TIP3    H134379   4.396   4.410   5.198
11482TIP3    H234380   4.522   4.412   5.282
11483TIP3   OH234381   5.111   5.049   6.798
11483TIP3    H134382   5.164   5.000   6.734
11483TIP3    H234383   5.103   4.990   6.873
11484TIP3   OH234384   5.229   4.699   4.965
11484TIP3    H134385   5.210   4.650   4.885
11484TIP3    H234386   5.199   4.788   4.946
11485TIP3   OH234387   4.701   4.446   6.802
11485TIP3    H134388   4.702   4.374   6.738
11485TIP3    H234389   4.665   4.520   6.754
11486TIP3   OH234390   4.708   4.243   6.602
11486TIP3    H134391   4.734   4.279   6.517
11486TIP3    H234392   4.617   4.216   6.590
11487TIP3   OH234393   4.717   4.769   6.470
11487TIP3    H134394   4.806   4.795   6.447
11487TIP3    H234395   4.661   4.831   6.423
11488TIP3   OH234396   5.312   4.720   6.851
11488TIP3    H134397   5.334   4.629   6.871
11488TIP3    H234398   5.388   4.753   6.803
11489TIP3   OH234399   5.342   4.994   6.613
11489TIP3    H134400   5.291   5.056   6.560
11489TIP3    H234401   5.432   5.005   6.582
11490TIP3   OH234402   1.752   0.525   0.106
11490TIP3    H134403   1.682   0.464   0.128
11490TIP3    H234404   1.780   0.500   0.018
11491TIP3   OH234405   4.832   4.009   6.699
11491TIP3    H134406   4.789   4.090   6.668
11491TIP3    H234407   4.765   3.941   6.687
11492TIP3   OH234408   4.955   4.487   6.904
11492TIP3    H134409   4.944   4.474   6.998
11492TIP3    H234410   4.870   4.466   6.867
11493TIP3   OH234411   5.202   4.444   6.777
11493TIP3    H134412   5.122   4.440   6.830
11493TIP3    H234413   5.270   4.409   6.834
11494TIP3   OH234414   2.605   0.393  -0.018
11494TIP3    H134415   2.620   0.298  -0.010
11494TIP3    H234416   2.600   0.424   0.072
11495TIP3   OH234417   1.587   0.304   0.168
11495TIP3    H134418   1.592   0.215   0.133
11495TIP3    H234419   1.624   0.297   0.256
11496TIP3   OH234420   4.903   3.993   6.965
11496TIP3    H134421   4.971   3.926   6.960
11496TIP3    H234422   4.871   4.001   6.875
11497TIP3   OH234423   2.162   0.206   0.162
11497TIP3    H134424   2.132   0.131   0.110
11497TIP3    H234425   2.087   0.265   0.165
11498TIP3   OH234426   4.245   5.460   5.218
11498TIP3    H134427   4.333   5.436   5.189
11498TIP3    H234428   4.206   5.505   5.143
11499TIP3   OH234429   3.710   4.837   5.400
11499TIP3    H134430   3.805   4.848   5.395
11499TIP3    H234431   3.693   4.752   5.361
11500TIP3   OH234432   3.616   5.426   5.856
11500TIP3    H134433   3.551   5.372   5.811
11500TIP3    H234434   3.661   5.366   5.916
11501TIP3   OH234435   3.759   5.261   6.026
11501TIP3    H134436   3.749   5.192   6.091
11501TIP3    H234437   3.811   5.328   6.070
11502TIP3   OH234438   5.497   5.659   5.831
11502TIP3    H134439   5.516   5.689   5.920
11502TIP3    H234440   5.547   5.719   5.775
11503TIP3   OH234441   5.511   5.692   6.114
11503TIP3    H134442   5.465   5.608   6.109
11503TIP3    H234443   5.584   5.676   6.174
11504TIP3   OH234444   5.564   5.392   6.721
11504TIP3    H134445   5.472   5.415   6.737
11504TIP3    H234446   5.607   5.476   6.709
11505TIP3   OH234447   5.383   4.902   5.309
11505TIP3    H134448   5.449   4.969   5.293
11505TIP3    H234449   5.416   4.853   5.384
11506TIP3   OH234450   5.507   4.759   5.507
11506TIP3    H134451   5.440   4.716   5.561
11506TIP3    H234452   5.572   4.790   5.570
11507TIP3   OH234453   5.566   5.170   5.934
11507TIP3    H134454   5.618   5.101   5.891
11507TIP3    H234455   5.564   5.241   5.870
11508TIP3   OH234456   5.375   5.449   6.127
11508TIP3    H134457   5.305   5.494   6.175
11508TIP3    H234458   5.330   5.408   6.053
11509TIP3   OH234459   5.429   4.682   5.148
11509TIP3    H134460   5.359   4.677   5.083
11509TIP3    H234461   5.406   4.757   5.203
11510TIP3   OH234462   5.284   4.337   5.086
11510TIP3    H134463   5.231   4.368   5.013
11510TIP3    H234464   5.276   4.242   5.083
11511TIP3   OH234465   5.309   4.617   5.636
11511TIP3    H134466   5.312   4.523   5.621
11511TIP3    H234467   5.291   4.626   5.730
11512TIP3   OH234468   3.936   4.689   6.403
11512TIP3    H134469   3.926   4.656   6.314
11512TIP3    H234470   4.030   4.688   6.419
11513TIP3   OH234471   5.595   5.044   6.504
11513TIP3    H134472   5.662   4.977   6.488
11513TIP3    H234473   5.585   5.090   6.421
11514TIP3   OH234474   5.775   4.834   6.492
11514TIP3    H134475   5.699   4.789   6.530
11514TIP3    H234476   5.850   4.780   6.517
11515TIP3   OH234477   5.243   4.068   5.071
11515TIP3    H134478   5.309   4.033   5.130
11515TIP3    H234479   5.163   4.022   5.094
11516TIP3   OH234480   5.311   4.347   5.521
11516TIP3    H134481   5.354   4.263   5.534
11516TIP3    H234482   5.354   4.385   5.444
11517TIP3   OH234483   5.462   4.511   6.042
11517TIP3    H134484   5.543   4.528   5.995
11517TIP3    H234485   5.475   4.552   6.128
11518TIP3   OH234486   5.534   4.667   6.266
11518TIP3    H134487   5.460   4.696   6.318
11518TIP3    H234488   5.565   4.747   6.222
11519TIP3   OH234489   1.323   0.365   0.109
11519TIP3    H134490   1.417   0.362   0.127
11519TIP3    H234491   1.289   0.284   0.147
11520TIP3   OH234492   5.994   4.265   6.807
11520TIP3    H134493   6.058   4.206   6.767
11520TIP3    H234494   5.958   4.315   6.733
11521TIP3   OH234495   5.422   4.097   5.574
11521TIP3    H134496   5.466   4.081   5.657
11521TIP3    H234497   5.360   4.025   5.565
11522TIP3   OH234498   4.129   4.082   6.399
11522TIP3    H134499   4.183   4.003   6.404
11522TIP3    H234500   4.191   4.152   6.382
11523TIP3   OH234501   3.910   4.344   6.460
11523TIP3    H134502   3.962   4.337   6.381
11523TIP3    H234503   3.931   4.431   6.495
11524TIP3   OH234504   5.848   4.381   6.603
11524TIP3    H134505   5.760   4.416   6.621
11524TIP3    H234506   5.832   4.300   6.554
11525TIP3   OH234507   5.479   4.011   5.215
11525TIP3    H134508   5.522   3.950   5.155
11525TIP3    H234509   5.535   4.088   5.215
11526TIP3   OH234510   3.899   3.850   5.962
11526TIP3    H134511   3.813   3.840   6.002
11526TIP3    H234512   3.884   3.906   5.886
11527TIP3   OH234513   5.067   5.572   5.477
11527TIP3    H134514   5.118   5.554   5.398
11527TIP3    H234515   5.110   5.647   5.517
11528TIP3   OH234516   4.121   3.910   6.781
11528TIP3    H134517   4.073   3.908   6.864
11528TIP3    H234518   4.065   3.960   6.722
11529TIP3   OH234519   4.169   5.355   6.865
11529TIP3    H134520   4.075   5.345   6.848
11529TIP3    H234521   4.177   5.347   6.960
11530TIP3   OH234522   4.360   5.411   6.409
11530TIP3    H134523   4.306   5.484   6.378
11530TIP3    H234524   4.444   5.423   6.365
11531TIP3   OH234525   4.764   5.643   6.542
11531TIP3    H134526   4.802   5.636   6.629
11531TIP3    H234527   4.825   5.699   6.493
11532TIP3   OH234528   4.950   5.803   6.415
11532TIP3    H134529   5.010   5.752   6.361
11532TIP3    H234530   5.007   5.857   6.470
11533TIP3   OH234531   5.762   4.125   6.508
11533TIP3    H134532   5.672   4.111   6.478
11533TIP3    H234533   5.804   4.039   6.502
11534TIP3   OH234534   4.023   5.659   6.451
11534TIP3    H134535   3.933   5.676   6.425
11534TIP3    H234536   4.040   5.723   6.520
11535TIP3   OH234537   4.253   5.643   6.303
11535TIP3    H134538   4.171   5.649   6.351
11535TIP3    H234539   4.230   5.667   6.213
11536TIP3   OH234540   4.670   5.661   6.094
11536TIP3    H134541   4.597   5.670   6.032
11536TIP3    H234542   4.678   5.747   6.133
11537TIP3   OH234543   4.934   5.601   6.149
11537TIP3    H134544   4.842   5.616   6.128
11537TIP3    H234545   4.982   5.664   6.096
11538TIP3   OH234546   5.139   5.776   6.048
11538TIP3    H134547   5.132   5.862   6.006
11538TIP3    H234548   5.167   5.717   5.978
11539TIP3   OH234549   3.935   5.436   6.171
11539TIP3    H134550   3.957   5.409   6.260
11539TIP3    H234551   4.006   5.402   6.117
11540TIP3   OH234552   4.136   5.319   6.031
11540TIP3    H134553   4.147   5.236   6.077
11540TIP3    H234554   4.223   5.360   6.034
11541TIP3   OH234555   4.405   5.408   6.053
11541TIP3    H134556   4.423   5.315   6.038
11541TIP3    H234557   4.455   5.430   6.131
11542TIP3   OH234558   4.969   4.058   6.143
11542TIP3    H134559   4.929   3.985   6.190
11542TIP3    H234560   5.037   4.017   6.088
11543TIP3   OH234561   5.468   3.969   6.035
11543TIP3    H134562   5.504   4.016   5.960
11543TIP3    H234563   5.374   3.985   6.031
11544TIP3   OH234564   5.580   4.045   5.797
11544TIP3    H134565   5.648   3.986   5.767
11544TIP3    H234566   5.616   4.133   5.783
11545TIP3   OH234567   4.207   3.756   6.139
11545TIP3    H134568   4.117   3.724   6.148
11545TIP3    H234569   4.260   3.676   6.131
11546TIP3   OH234570   4.028   3.656   5.794
11546TIP3    H134571   4.052   3.707   5.716
11546TIP3    H234572   3.990   3.721   5.853
11547TIP3   OH234573   4.681   3.794   6.035
11547TIP3    H134574   4.729   3.841   5.966
11547TIP3    H234575   4.723   3.823   6.116
11548TIP3   OH234576   5.183   3.941   6.009
11548TIP3    H134577   5.192   3.907   5.920
11548TIP3    H234578   5.186   3.864   6.065
11549TIP3   OH234579   5.236   3.887   5.577
11549TIP3    H134580   5.156   3.934   5.599
11549TIP3    H234581   5.226   3.800   5.615
11550TIP3   OH234582   3.703   5.232   5.554
11550TIP3    H134583   3.618   5.198   5.524
11550TIP3    H234584   3.705   5.322   5.523
11551TIP3   OH234585   4.133   3.786   5.555
11551TIP3    H134586   4.179   3.728   5.494
11551TIP3    H234587   4.201   3.845   5.588
11552TIP3   OH234588   4.618   3.986   5.654
11552TIP3    H134589   4.677   3.935   5.708
11552TIP3    H234590   4.634   4.077   5.680
11553TIP3   OH234591   4.498   5.381   5.147
11553TIP3    H134592   4.580   5.412   5.110
11553TIP3    H234593   4.472   5.308   5.090
11554TIP3   OH234594   5.215   5.512   5.247
11554TIP3    H134595   5.224   5.418   5.233
11554TIP3    H234596   5.171   5.544   5.169
11555TIP3   OH234597   1.597   0.031   0.083
11555TIP3    H134598   1.562  -0.035   0.142
11555TIP3    H234599   1.690   0.038   0.107
11556TIP3   OH234600   1.846   0.036   0.205
11556TIP3    H134601   1.925   0.013   0.156
11556TIP3    H234602   1.839  -0.033   0.272
11557TIP3   OH234603   3.805   5.227   5.205
11557TIP3    H134604   3.805   5.235   5.300
11557TIP3    H234605   3.887   5.181   5.185
11558TIP3   OH234606   2.670   0.122  -0.006
11558TIP3    H134607   2.685   0.093   0.084
11558TIP3    H234608   2.755   0.116  -0.048
11559TIP3   OH234609   5.414   5.667   6.436
11559TIP3    H134610   5.342   5.636   6.380
11559TIP3    H234611   5.404   5.762   6.436
11560TIP3   OH234612   6.698   5.055   5.178
11560TIP3    H134613   6.669   5.142   5.150
11560TIP3    H234614   6.628   4.997   5.148
11561TIP3   OH234615   6.689   5.042   5.604
11561TIP3    H134616   6.744   5.019   5.679
11561TIP3    H234617   6.649   4.958   5.578
11562TIP3   OH234618   5.998   4.913   5.945
11562TIP3    H134619   6.030   4.858   6.016
11562TIP3    H234620   6.076   4.936   5.895
11563TIP3   OH234621   6.945   5.357   5.276
11563TIP3    H134622   6.943   5.290   5.344
11563TIP3    H234623   6.951   5.440   5.324
11564TIP3   OH234624   5.997   5.339   5.639
11564TIP3    H134625   5.977   5.246   5.647
11564TIP3    H234626   6.092   5.342   5.633
11565TIP3   OH234627   5.670   4.540   5.427
11565TIP3    H134628   5.624   4.621   5.451
11565TIP3    H234629   5.603   4.487   5.385
11566TIP3   OH234630   5.739   4.833   5.644
11566TIP3    H134631   5.787   4.755   5.672
11566TIP3    H234632   5.805   4.888   5.602
11567TIP3   OH234633   6.642   5.798   5.323
11567TIP3    H134634   6.659   5.725   5.264
11567TIP3    H234635   6.689   5.776   5.404
11568TIP3   OH234636   6.512   5.275   5.612
11568TIP3    H134637   6.549   5.192   5.583
11568TIP3    H234638   6.588   5.326   5.641
11569TIP3   OH234639   7.516   4.573   5.612
11569TIP3    H134640   7.533   4.653   5.663
11569TIP3    H234641   7.551   4.593   5.525
11570TIP3   OH234642   6.912   4.758   5.644
11570TIP3    H134643   6.951   4.675   5.670
11570TIP3    H234644   6.875   4.742   5.557
11571TIP3   OH234645   6.261   4.424   5.595
11571TIP3    H134646   6.237   4.495   5.535
11571TIP3    H234647   6.210   4.349   5.565
11572TIP3   OH234648   6.960   4.517   5.235
11572TIP3    H134649   7.025   4.510   5.305
11572TIP3    H234650   7.010   4.548   5.159
11573TIP3   OH234651   5.888   4.620   5.733
11573TIP3    H134652   5.972   4.602   5.776
11573TIP3    H234653   5.891   4.568   5.652
11574TIP3   OH234654   6.320   4.824   5.556
11574TIP3    H134655   6.414   4.806   5.560
11574TIP3    H234656   6.282   4.745   5.517
11575TIP3   OH234657   7.556   4.780   5.792
11575TIP3    H134658   7.486   4.844   5.782
11575TIP3    H234659   7.627   4.828   5.835
11576TIP3   OH234660   6.244   4.416   6.056
11576TIP3    H134661   6.193   4.448   5.981
11576TIP3    H234662   6.187   4.432   6.131
11577TIP3   OH234663   6.599   5.274   5.036
11577TIP3    H134664   6.556   5.242   4.957
11577TIP3    H234665   6.546   5.348   5.065
11578TIP3   OH234666   6.349   5.194   5.821
11578TIP3    H134667   6.293   5.265   5.856
11578TIP3    H234668   6.398   5.236   5.751
11579TIP3   OH234669   7.123   4.541   5.452
11579TIP3    H134670   7.088   4.514   5.537
11579TIP3    H234671   7.184   4.612   5.472
11580TIP3   OH234672   6.136   4.522   5.823
11580TIP3    H134673   6.192   4.595   5.848
11580TIP3    H234674   6.181   4.481   5.749
11581TIP3   OH234675   6.191   5.397   5.926
11581TIP3    H134676   6.172   5.486   5.896
11581TIP3    H234677   6.114   5.373   5.978
11582TIP3   OH234678   5.519   5.131   5.160
11582TIP3    H134679   5.498   5.079   5.083
11582TIP3    H234680   5.434   5.158   5.195
11583TIP3   OH234681   6.952   5.604   5.410
11583TIP3    H134682   6.889   5.624   5.480
11583TIP3    H234683   6.968   5.688   5.368
11584TIP3   OH234684   7.319   4.460   5.784
11584TIP3    H134685   7.234   4.492   5.753
11584TIP3    H234686   7.381   4.491   5.718
11585TIP3   OH234687   6.589   4.109   5.780
11585TIP3    H134688   6.582   4.017   5.805
11585TIP3    H234689   6.513   4.151   5.819
11586TIP3   OH234690   6.706   5.638   5.084
11586TIP3    H134691   6.757   5.558   5.070
11586TIP3    H234692   6.764   5.708   5.054
11587TIP3   OH234693   6.846   5.409   5.022
11587TIP3    H134694   6.773   5.347   5.019
11587TIP3    H234695   6.893   5.385   5.102
11588TIP3   OH234696   7.209   5.511   5.753
11588TIP3    H134697   7.201   5.436   5.693
11588TIP3    H234698   7.183   5.586   5.700
11589TIP3   OH234699   6.524   4.896   5.028
11589TIP3    H134700   6.441   4.938   5.008
11589TIP3    H234701   6.570   4.892   4.944
11590TIP3   OH234702   6.499   4.691   4.725
11590TIP3    H134703   6.565   4.740   4.774
11590TIP3    H234704   6.549   4.626   4.675
11591TIP3   OH234705   7.415   5.153   5.626
11591TIP3    H134706   7.332   5.201   5.624
11591TIP3    H234707   7.451   5.164   5.538
11592TIP3   OH234708   6.885   4.985   4.989
11592TIP3    H134709   6.830   5.012   5.063
11592TIP3    H234710   6.966   4.954   5.030
11593TIP3   OH234711   7.111   5.008   5.935
11593TIP3    H134712   7.109   5.089   5.987
11593TIP3    H234713   7.028   5.007   5.888
11594TIP3   OH234714   6.123   4.953   5.414
11594TIP3    H134715   6.090   4.875   5.370
11594TIP3    H234716   6.202   4.924   5.459
11595TIP3   OH234717   6.262   5.385   5.534
11595TIP3    H134718   6.245   5.358   5.444
11595TIP3    H234719   6.349   5.351   5.554
11596TIP3   OH234720   6.218   4.956   5.777
11596TIP3    H134721   6.258   4.918   5.699
11596TIP3    H234722   6.267   5.037   5.792
11597TIP3   OH234723   6.403   5.510   6.070
11597TIP3    H134724   6.344   5.564   6.122
11597TIP3    H234725   6.345   5.454   6.019
11598TIP3   OH234726   6.716   4.843   4.823
11598TIP3    H134727   6.775   4.900   4.871
11598TIP3    H234728   6.742   4.852   4.731
11599TIP3   OH234729   6.135   5.039   6.234
11599TIP3    H134730   6.138   5.133   6.253
11599TIP3    H234731   6.041   5.020   6.227
11600TIP3   OH234732   6.461   5.510   5.087
11600TIP3    H134733   6.539   5.564   5.096
11600TIP3    H234734   6.401   5.562   5.034
11601TIP3   OH234735   6.178   5.649   6.173
11601TIP3    H134736   6.153   5.659   6.081
11601TIP3    H234737   6.096   5.631   6.219
11602TIP3   OH234738   7.226   4.070   4.878
11602TIP3    H134739   7.148   4.088   4.931
11602TIP3    H234740   7.236   4.147   4.822
11603TIP3   OH234741   7.070   5.447   4.404
11603TIP3    H134742   7.048   5.539   4.421
11603TIP3    H234743   7.118   5.449   4.321
11604TIP3   OH234744   5.767   5.206   6.129
11604TIP3    H134745   5.698   5.190   6.065
11604TIP3    H234746   5.800   5.119   6.152
11605TIP3   OH234747   5.606   5.405   5.775
11605TIP3    H134748   5.696   5.428   5.799
11605TIP3    H234749   5.554   5.481   5.802
11606TIP3   OH234750   7.471   5.828   5.820
11606TIP3    H134751   7.474   5.732   5.824
11606TIP3    H234752   7.417   5.854   5.894
11607TIP3   OH234753   6.606   5.680   5.954
11607TIP3    H134754   6.573   5.754   6.006
11607TIP3    H234755   6.545   5.609   5.972
11608TIP3   OH234756   6.351   5.742   4.905
11608TIP3    H134757   6.302   5.720   4.826
11608TIP3    H234758   6.313   5.825   4.934
11609TIP3   OH234759   5.787   5.622   5.287
11609TIP3    H134760   5.837   5.609   5.368
11609TIP3    H234761   5.741   5.539   5.274
11610TIP3   OH234762   6.556   5.670   4.537
11610TIP3    H134763   6.605   5.596   4.502
11610TIP3    H234764   6.589   5.681   4.626
11611TIP3   OH234765   6.605   5.710   4.809
11611TIP3    H134766   6.517   5.716   4.845
11611TIP3    H234767   6.659   5.675   4.881
11612TIP3   OH234768   7.356   4.974   6.117
11612TIP3    H134769   7.287   4.989   6.052
11612TIP3    H234770   7.378   4.882   6.107
11613TIP3   OH234771   5.970   5.390   6.093
11613TIP3    H134772   6.019   5.378   6.175
11613TIP3    H234773   5.897   5.328   6.100
11614TIP3   OH234774   6.352   4.202   5.908
11614TIP3    H134775   6.269   4.167   5.876
11614TIP3    H234776   6.328   4.281   5.956
11615TIP3   OH234777   6.890   4.324   6.105
11615TIP3    H134778   6.960   4.297   6.165
11615TIP3    H234779   6.809   4.304   6.152
11616TIP3   OH234780   7.121   4.738   6.015
11616TIP3    H134781   7.083   4.739   6.103
11616TIP3    H234782   7.111   4.828   5.983
11617TIP3   OH234783   6.794   4.849   4.562
11617TIP3    H134784   6.749   4.838   4.479
11617TIP3    H234785   6.878   4.888   4.539
11618TIP3   OH234786   6.503   4.243   4.875
11618TIP3    H134787   6.466   4.251   4.963
11618TIP3    H234788   6.466   4.162   4.840
11619TIP3   OH234789   6.290   4.730   5.922
11619TIP3    H134790   6.242   4.736   6.005
11619TIP3    H234791   6.271   4.812   5.877
11620TIP3   OH234792   6.160   4.626   5.431
11620TIP3    H134793   6.074   4.593   5.458
11620TIP3    H234794   6.174   4.587   5.344
11621TIP3   OH234795   6.653   4.692   5.165
11621TIP3    H134796   6.605   4.763   5.123
11621TIP3    H234797   6.710   4.658   5.097
11622TIP3   OH234798   6.832   4.961   6.240
11622TIP3    H134799   6.808   4.891   6.301
11622TIP3    H234800   6.925   4.976   6.257
11623TIP3   OH234801   6.818   4.703   5.391
11623TIP3    H134802   6.752   4.725   5.326
11623TIP3    H234803   6.865   4.629   5.353
11624TIP3   OH234804   6.121   4.749   6.138
11624TIP3    H134805   6.133   4.811   6.209
11624TIP3    H234806   6.101   4.666   6.181
11625TIP3   OH234807   6.172   4.231   4.849
11625TIP3    H134808   6.159   4.228   4.944
11625TIP3    H234809   6.092   4.271   4.815
11626TIP3   OH234810   5.708   4.270   5.719
11626TIP3    H134811   5.787   4.300   5.765
11626TIP3    H234812   5.740   4.241   5.633
11627TIP3   OH234813   5.633   4.244   5.227
11627TIP3    H134814   5.677   4.276   5.148
11627TIP3    H234815   5.568   4.312   5.247
11628TIP3   OH234816   6.854   4.959   5.817
11628TIP3    H134817   6.882   4.893   5.753
11628TIP3    H234818   6.815   4.908   5.888
11629TIP3   OH234819   6.534   4.410   5.490
11629TIP3    H134820   6.455   4.409   5.545
11629TIP3    H234821   6.606   4.396   5.551
11630TIP3   OH234822   5.932   4.485   5.498
11630TIP3    H134823   5.843   4.491   5.462
11630TIP3    H234824   5.959   4.395   5.481
11631TIP3   OH234825   6.188   4.494   5.192
11631TIP3    H134826   6.282   4.499   5.179
11631TIP3    H234827   6.151   4.511   5.105
11632TIP3   OH234828   6.989   4.495   5.699
11632TIP3    H134829   6.963   4.512   5.790
11632TIP3    H234830   6.925   4.431   5.668
11633TIP3   OH234831   6.068   4.530   4.945
11633TIP3    H134832   6.005   4.474   4.900
11633TIP3    H234833   6.125   4.562   4.875
11634TIP3   OH234834   7.154   6.209   5.919
11634TIP3    H134835   7.174   6.196   5.826
11634TIP3    H234836   7.237   6.238   5.957
11635TIP3   OH234837   6.119   5.306   6.329
11635TIP3    H134838   6.200   5.327   6.376
11635TIP3    H234839   6.050   5.312   6.395
11636TIP3   OH234840   6.589   4.768   5.596
11636TIP3    H134841   6.654   4.718   5.546
11636TIP3    H234842   6.588   4.726   5.682
11637TIP3   OH234843   6.081   4.238   5.484
11637TIP3    H134844   6.050   4.164   5.536
11637TIP3    H234845   6.107   4.199   5.400
11638TIP3   OH234846   6.556   4.674   5.861
11638TIP3    H134847   6.468   4.703   5.886
11638TIP3    H234848   6.615   4.725   5.916
11639TIP3   OH234849   6.278   5.028   4.981
11639TIP3    H134850   6.208   4.967   4.959
11639TIP3    H234851   6.252   5.066   5.064
11640TIP3   OH234852   7.178   5.295   5.582
11640TIP3    H134853   7.215   5.337   5.505
11640TIP3    H234854   7.100   5.249   5.549
11641TIP3   OH234855   6.756   4.344   4.880
11641TIP3    H134856   6.663   4.322   4.874
11641TIP3    H234857   6.757   4.440   4.890
11642TIP3   OH234858   6.723   5.375   6.002
11642TIP3    H134859   6.767   5.349   6.083
11642TIP3    H234860   6.696   5.466   6.017
11643TIP3   OH234861   6.814   4.611   4.949
11643TIP3    H134862   6.910   4.612   4.958
11643TIP3    H234863   6.794   4.688   4.896
11644TIP3   OH234864   5.987   5.056   5.633
11644TIP3    H134865   6.027   5.031   5.549
11644TIP3    H234866   6.045   5.019   5.699
11645TIP3   OH234867   6.435   5.190   4.822
11645TIP3    H134868   6.390   5.275   4.819
11645TIP3    H234869   6.377   5.134   4.873
11646TIP3   OH234870   5.862   4.971   6.259
11646TIP3    H134871   5.863   4.944   6.350
11646TIP3    H234872   5.788   4.924   6.221
11647TIP3   OH234873   6.600   5.112   6.277
11647TIP3    H134874   6.531   5.052   6.250
11647TIP3    H234875   6.681   5.070   6.248
11648TIP3   OH234876   7.234   4.698   4.767
11648TIP3    H134877   7.176   4.652   4.705
11648TIP3    H234878   7.241   4.786   4.731
11649TIP3   OH234879   7.464   5.548   5.842
11649TIP3    H134880   7.370   5.541   5.829
11649TIP3    H234881   7.502   5.522   5.758
11650TIP3   OH234882   6.994   5.500   4.707
11650TIP3    H134883   6.954   5.455   4.780
11650TIP3    H234884   6.978   5.444   4.631
11651TIP3   OH234885   6.953   5.147   5.483
11651TIP3    H134886   6.861   5.125   5.500
11651TIP3    H234887   6.990   5.067   5.446
11652TIP3   OH234888   6.080   5.385   5.292
11652TIP3    H134889   6.077   5.454   5.226
11652TIP3    H234890   6.023   5.417   5.362
11653TIP3   OH234891   5.642   4.654   4.978
11653TIP3    H134892   5.677   4.743   4.976
11653TIP3    H234893   5.571   4.657   5.041
11654TIP3   OH234894   6.177   5.138   5.209
11654TIP3    H134895   6.147   5.225   5.234
11654TIP3    H234896   6.159   5.083   5.284
11655TIP3   OH234897   6.384   5.709   5.736
11655TIP3    H134898   6.407   5.793   5.697
11655TIP3    H234899   6.461   5.653   5.723
11656TIP3   OH234900   6.016   5.612   5.136
11656TIP3    H134901   5.930   5.629   5.174
11656TIP3    H234902   6.059   5.697   5.136
11657TIP3   OH234903   6.758   5.339   5.731
11657TIP3    H134904   6.742   5.335   5.825
11657TIP3    H234905   6.810   5.261   5.712
11658TIP3   OH234906   6.740   5.248   4.580
11658TIP3    H134907   6.787   5.219   4.658
11658TIP3    H234908   6.655   5.204   4.586
11659TIP3   OH234909   7.042   5.720   4.399
11659TIP3    H134910   7.061   5.778   4.325
11659TIP3    H234911   6.972   5.765   4.447
11660TIP3   OH234912   6.064   4.499   6.258
11660TIP3    H134913   5.969   4.511   6.263
11660TIP3    H234914   6.084   4.438   6.329
11661TIP3   OH234915   6.911   5.167   4.779
11661TIP3    H134916   6.891   5.114   4.856
11661TIP3    H234917   7.007   5.172   4.778
11662TIP3   OH234918   5.815   5.597   5.901
11662TIP3    H134919   5.869   5.539   5.955
11662TIP3    H234920   5.829   5.684   5.939
11663TIP3   OH234921   6.094   5.212   4.595
11663TIP3    H134922   6.095   5.120   4.570
11663TIP3    H234923   6.086   5.211   4.690
11664TIP3   OH234924   6.062   5.228   4.865
11664TIP3    H134925   6.125   5.205   4.932
11664TIP3    H234926   6.047   5.322   4.876
11665TIP3   OH234927   6.916   4.558   5.960
11665TIP3    H134928   6.999   4.598   5.987
11665TIP3    H234929   6.909   4.479   6.014
11666TIP3   OH234930   6.813   4.296   5.148
11666TIP3    H134931   6.793   4.313   5.056
11666TIP3    H234932   6.856   4.376   5.178
11667TIP3   OH234933   6.303   5.428   4.817
11667TIP3    H134934   6.215   5.448   4.849
11667TIP3    H234935   6.323   5.497   4.754
11668TIP3   OH234936   6.468   4.498   5.235
11668TIP3    H134937   6.531   4.565   5.209
11668TIP3    H234938   6.490   4.478   5.326
11669TIP3   OH234939   6.760   4.791   6.013
11669TIP3    H134940   6.787   4.830   6.096
11669TIP3    H234941   6.810   4.709   6.008
11670TIP3   OH234942   6.626   4.195   5.325
11670TIP3    H134943   6.604   4.273   5.376
11670TIP3    H234944   6.695   4.224   5.266
11671TIP3   OH234945   6.046   5.502   4.886
11671TIP3    H134946   6.024   5.570   4.823
11671TIP3    H234947   6.032   5.543   4.972
11672TIP3   OH234948   6.140   4.218   5.127
11672TIP3    H134949   6.128   4.307   5.159
11672TIP3    H234950   6.234   4.203   5.133
11673TIP3   OH234951   7.396   4.717   6.022
11673TIP3    H134952   7.302   4.699   6.012
11673TIP3    H234953   7.431   4.706   5.933
11674TIP3   OH234954   7.043   4.892   5.391
11674TIP3    H134955   6.968   4.833   5.402
11674TIP3    H234956   7.112   4.852   5.444
11675TIP3   OH234957   5.762   5.164   4.870
11675TIP3    H134958   5.789   5.234   4.811
11675TIP3    H234959   5.811   5.087   4.841
11676TIP3   OH234960   5.689   4.379   4.997
11676TIP3    H134961   5.685   4.474   4.990
11676TIP3    H234962   5.624   4.347   4.934
11677TIP3   OH234963   7.020   5.865   5.340
11677TIP3    H134964   6.977   5.924   5.278
11677TIP3    H234965   7.114   5.881   5.326
11678TIP3   OH234966   6.091   4.113   5.870
11678TIP3    H134967   6.062   4.080   5.785
11678TIP3    H234968   6.081   4.038   5.929
11679TIP3   OH234969   5.640   5.385   5.248
11679TIP3    H134970   5.615   5.399   5.339
11679TIP3    H234971   5.577   5.436   5.197
11680TIP3   OH234972   5.803   5.904   6.329
11680TIP3    H134973   5.887   5.907   6.375
11680TIP3    H234974   5.785   5.810   6.321
11681TIP3   OH234975   6.272   5.812   6.374
11681TIP3    H134976   6.363   5.784   6.385
11681TIP3    H234977   6.239   5.761   6.300
11682TIP3   OH234978   6.246   5.415   4.491
11682TIP3    H134979   6.197   5.345   4.533
11682TIP3    H234980   6.319   5.370   4.447
11683TIP3   OH234981   6.681   5.459   4.415
11683TIP3    H134982   6.714   5.389   4.473
11683TIP3    H234983   6.733   5.450   4.335
11684TIP3   OH234984   5.912   5.304   6.518
11684TIP3    H134985   5.934   5.211   6.526
11684TIP3    H234986   5.828   5.305   6.472
11685TIP3   OH234987   5.895   4.936   4.745
11685TIP3    H134988   5.950   4.902   4.815
11685TIP3    H234989   5.953   4.943   4.669
11686TIP3   OH234990   6.526   5.387   6.291
11686TIP3    H134991   6.494   5.410   6.204
11686TIP3    H234992   6.562   5.299   6.281
11687TIP3   OH234993   6.484   5.137   4.556
11687TIP3    H134994   6.457   5.150   4.647
11687TIP3    H234995   6.467   5.045   4.538
11688TIP3   OH234996   7.016   5.399   5.914
11688TIP3    H134997   7.084   5.444   5.865
11688TIP3    H234998   6.936   5.413   5.864
11689TIP3   OH234999   6.032   5.054   6.522
11689TIP3    H135000   6.105   5.026   6.468
11689TIP3    H235001   6.070   5.067   6.609
11690TIP3   OH235002   6.085   4.828   4.927
11690TIP3    H135003   6.050   4.758   4.983
11690TIP3    H235004   6.140   4.782   4.863
11691TIP3   OH235005   6.392   4.933   6.188
11691TIP3    H135006   6.306   4.973   6.196
11691TIP3    H235007   6.423   4.959   6.101
11692TIP3   OH235008   6.224   4.662   4.758
11692TIP3    H135009   6.197   4.665   4.666
11692TIP3    H235010   6.320   4.665   4.755
11693TIP3   OH235011   6.893   5.324   6.262
11693TIP3    H135012   6.969   5.288   6.215
11693TIP3    H235013   6.885   5.269   6.340
11694TIP3   OH235014   7.021   4.961   4.445
11694TIP3    H135015   7.007   4.918   4.360
11694TIP3    H235016   6.995   5.052   4.431
11695TIP3   OH235017   6.499   4.701   6.290
11695TIP3    H135018   6.500   4.629   6.227
11695TIP3    H235019   6.463   4.775   6.242
11696TIP3   OH235020   6.504   4.500   6.091
11696TIP3    H135021   6.531   4.533   6.005
11696TIP3    H235022   6.413   4.473   6.077
11697TIP3   OH235023   6.509   5.020   5.960
11697TIP3    H135024   6.600   5.034   5.934
11697TIP3    H235025   6.460   5.087   5.913
11698TIP3   OH235026   7.108   4.985   6.336
11698TIP3    H135027   7.121   4.890   6.335
11698TIP3    H235028   7.190   5.021   6.302
11699TIP3   OH235029   7.148   5.245   6.091
11699TIP3    H135030   7.094   5.302   6.035
11699TIP3    H235031   7.237   5.257   6.060
11700TIP3   OH235032   6.380   4.787   6.530
11700TIP3    H135033   6.313   4.722   6.550
11700TIP3    H235034   6.409   4.763   6.442
11701TIP3   OH235035   6.627   4.267   6.189
11701TIP3    H135036   6.586   4.347   6.157
11701TIP3    H235037   6.562   4.199   6.175
11702TIP3   OH235038   6.756   4.743   6.389
11702TIP3    H135039   6.747   4.731   6.484
11702TIP3    H235040   6.670   4.721   6.354
11703TIP3   OH235041   7.006   4.716   6.260
11703TIP3    H135042   6.926   4.705   6.312
11703TIP3    H235043   7.074   4.673   6.313
11704TIP3   OH235044   7.226   4.639   6.405
11704TIP3    H135045   7.244   4.545   6.413
11704TIP3    H235046   7.225   4.671   6.495
11705TIP3   OH235047   6.219   4.565   6.594
11705TIP3    H135048   6.222   4.478   6.555
11705TIP3    H235049   6.256   4.554   6.681
11706TIP3   OH235050   6.696   4.246   6.454
11706TIP3    H135051   6.765   4.180   6.447
11706TIP3    H235052   6.665   4.257   6.364
11707TIP3   OH235053   6.788   4.462   6.598
11707TIP3    H135054   6.759   4.390   6.543
11707TIP3    H235055   6.715   4.524   6.597
11708TIP3   OH235056   6.044   5.713   4.705
11708TIP3    H135057   6.132   5.695   4.674
11708TIP3    H235058   6.001   5.759   4.633
11709TIP3   OH235059   5.510   5.053   4.904
11709TIP3    H135060   5.590   5.088   4.866
11709TIP3    H235061   5.489   4.976   4.851
11710TIP3   OH235062   5.413   5.675   5.344
11710TIP3    H135063   5.349   5.623   5.296
11710TIP3    H235064   5.460   5.612   5.398
11711TIP3   OH235065   5.573   5.499   5.500
11711TIP3    H135066   5.556   5.438   5.571
11711TIP3    H235067   5.619   5.572   5.542
11712TIP3   OH235068   7.294   5.916   5.320
11712TIP3    H135069   7.318   5.943   5.409
11712TIP3    H235070   7.347   5.970   5.263
11713TIP3   OH235071   7.319   5.931   5.604
11713TIP3    H135072   7.252   5.862   5.599
11713TIP3    H235073   7.385   5.895   5.664
11714TIP3   OH235074   7.364   5.653   6.169
11714TIP3    H135075   7.285   5.659   6.224
11714TIP3    H235076   7.403   5.740   6.173
11715TIP3   OH235077   7.194   5.163   4.785
11715TIP3    H135078   7.259   5.231   4.768
11715TIP3    H235079   7.227   5.117   4.862
11716TIP3   OH235080   7.310   5.020   4.989
11716TIP3    H135081   7.244   4.979   5.046
11716TIP3    H235082   7.376   5.054   5.049
11717TIP3   OH235083   7.354   5.422   5.409
11717TIP3    H135084   7.408   5.351   5.373
11717TIP3    H235085   7.362   5.493   5.346
11718TIP3   OH235086   7.124   5.728   5.602
11718TIP3    H135087   7.036   5.759   5.623
11718TIP3    H235088   7.114   5.684   5.517
11719TIP3   OH235089   7.225   4.938   4.627
11719TIP3    H135090   7.152   4.936   4.566
11719TIP3    H235091   7.208   5.014   4.683
11720TIP3   OH235092   7.077   4.593   4.569
11720TIP3    H135093   7.040   4.625   4.487
11720TIP3    H235094   7.069   4.498   4.563
11721TIP3   OH235095   7.108   4.878   5.121
11721TIP3    H135096   7.113   4.784   5.107
11721TIP3    H235097   7.090   4.888   5.215
11722TIP3   OH235098   5.733   4.951   5.891
11722TIP3    H135099   5.722   4.913   5.804
11722TIP3    H235100   5.828   4.948   5.907
11723TIP3   OH235101   7.399   5.298   5.988
11723TIP3    H135102   7.460   5.226   5.971
11723TIP3    H235103   7.424   5.366   5.925
11724TIP3   OH235104   7.571   5.089   5.970
11724TIP3    H135105   7.522   5.034   6.032
11724TIP3    H235106   7.662   5.060   5.980
11725TIP3   OH235107   7.036   4.323   4.539
11725TIP3    H135108   7.106   4.295   4.599
11725TIP3    H235109   6.958   4.278   4.571
11726TIP3   OH235110   7.104   4.603   5.005
11726TIP3    H135111   7.148   4.520   5.020
11726TIP3    H235112   7.149   4.641   4.929
11727TIP3   OH235113   7.258   4.774   5.529
11727TIP3    H135114   7.339   4.793   5.482
11727TIP3    H235115   7.272   4.812   5.616
11728TIP3   OH235116   7.324   4.929   5.759
11728TIP3    H135117   7.250   4.959   5.812
11728TIP3    H235118   7.357   5.008   5.716
11729TIP3   OH235119   5.957   4.641   6.572
11729TIP3    H135120   6.051   4.627   6.574
11729TIP3    H235121   5.920   4.556   6.597
11730TIP3   OH235122   7.798   4.512   6.305
11730TIP3    H135123   7.858   4.453   6.260
11730TIP3    H235124   7.754   4.560   6.235
11731TIP3   OH235125   7.217   4.354   5.060
11731TIP3    H135126   7.262   4.339   5.143
11731TIP3    H235127   7.155   4.281   5.052
11732TIP3   OH235128   5.925   4.335   5.884
11732TIP3    H135129   5.978   4.256   5.890
11732TIP3    H235130   5.989   4.405   5.867
11733TIP3   OH235131   5.708   4.600   5.951
11733TIP3    H135132   5.758   4.585   5.870
11733TIP3    H235133   5.739   4.684   5.984
11734TIP3   OH235134   7.633   4.613   6.119
11734TIP3    H135135   7.559   4.672   6.107
11734TIP3    H235136   7.620   4.544   6.053
11735TIP3   OH235137   7.266   4.273   4.694
11735TIP3    H135138   7.309   4.210   4.636
11735TIP3    H235139   7.327   4.347   4.699
11736TIP3   OH235140   5.696   4.124   5.463
11736TIP3    H135141   5.609   4.103   5.495
11736TIP3    H235142   5.682   4.172   5.382
11737TIP3   OH235143   6.859   5.829   4.970
11737TIP3    H135144   6.911   5.815   4.891
11737TIP3    H235145   6.906   5.897   5.018
11738TIP3   OH235146   5.920   4.185   6.280
11738TIP3    H135147   5.865   4.167   6.356
11738TIP3    H235148   5.861   4.224   6.215
11739TIP3   OH235149   5.950   5.621   6.336
11739TIP3    H135150   5.856   5.605   6.329
11739TIP3    H235151   5.970   5.609   6.429
11740TIP3   OH235152   6.160   5.671   5.893
11740TIP3    H135153   6.108   5.745   5.860
11740TIP3    H235154   6.245   5.681   5.850
11741TIP3   OH235155   6.577   5.932   6.056
11741TIP3    H135156   6.620   5.906   6.137
11741TIP3    H235157   6.631   6.003   6.021
11742TIP3   OH235158   6.812   5.961   5.873
11742TIP3    H135159   6.846   5.981   5.785
11742TIP3    H235160   6.845   6.033   5.927
11743TIP3   OH235161   7.550   4.385   5.984
11743TIP3    H135162   7.466   4.381   5.939
11743TIP3    H235163   7.585   4.296   5.977
11744TIP3   OH235164   5.817   5.900   5.941
11744TIP3    H135165   5.727   5.918   5.916
11744TIP3    H235166   5.838   5.968   6.005
11745TIP3   OH235167   6.046   5.898   5.785
11745TIP3    H135168   5.964   5.902   5.833
11745TIP3    H235169   6.024   5.928   5.697
11746TIP3   OH235170   6.455   5.925   5.584
11746TIP3    H135171   6.381   5.943   5.526
11746TIP3    H235172   6.528   5.907   5.526
11747TIP3   OH235173   6.962   6.078   5.569
11747TIP3    H135174   6.938   6.149   5.509
11747TIP3    H235175   6.945   5.998   5.520
11748TIP3   OH235176   5.732   5.686   5.649
11748TIP3    H135177   5.753   5.661   5.739
11748TIP3    H235178   5.806   5.654   5.597
11749TIP3   OH235179   5.937   5.568   5.510
11749TIP3    H135180   5.947   5.489   5.562
11749TIP3    H235181   6.021   5.613   5.518
11750TIP3   OH235182   6.196   5.661   5.535
11750TIP3    H135183   6.224   5.570   5.520
11750TIP3    H235184   6.245   5.688   5.612
11751TIP3   OH235185   6.760   4.311   5.626
11751TIP3    H135186   6.720   4.238   5.675
11751TIP3    H235187   6.829   4.270   5.574
11752TIP3   OH235188   7.266   4.220   5.518
11752TIP3    H135189   7.302   4.270   5.445
11752TIP3    H235190   7.172   4.241   5.517
11753TIP3   OH235191   7.376   4.303   5.281
11753TIP3    H135192   7.445   4.243   5.253
11753TIP3    H235193   7.412   4.390   5.267
11754TIP3   OH235194   6.001   4.013   5.628
11754TIP3    H135195   5.912   3.981   5.635
11754TIP3    H235196   6.055   3.935   5.619
11755TIP3   OH235197   5.825   3.925   5.289
11755TIP3    H135198   5.848   3.971   5.208
11755TIP3    H235199   5.788   3.993   5.346
11756TIP3   OH235200   6.475   4.054   5.520
11756TIP3    H135201   6.525   4.099   5.451
11756TIP3    H235202   6.519   4.080   5.601
11757TIP3   OH235203   6.978   4.198   5.498
11757TIP3    H135204   6.991   4.163   5.409
11757TIP3    H235205   6.982   4.121   5.554
11758TIP3   OH235206   7.033   4.143   5.063
11758TIP3    H135207   6.952   4.188   5.087
11758TIP3    H235208   7.023   4.056   5.101
11759TIP3   OH235209   5.497   5.475   5.044
11759TIP3    H135210   5.412   5.452   5.006
11759TIP3    H235211   5.511   5.566   5.016
11760TIP3   OH235212   5.930   4.046   5.045
11760TIP3    H135213   5.975   3.983   4.989
11760TIP3    H235214   6.000   4.103   5.078
11761TIP3   OH235215   6.415   4.246   5.138
11761TIP3    H135216   6.472   4.190   5.191
11761TIP3    H235217   6.434   4.335   5.168
11762TIP3   OH235218   6.299   5.641   4.634
11762TIP3    H135219   6.382   5.671   4.596
11762TIP3    H235220   6.271   5.570   4.577
11763TIP3   OH235221   7.004   5.777   4.738
11763TIP3    H135222   7.005   5.682   4.726
11763TIP3    H235223   6.957   5.810   4.661
11764TIP3   OH235224   6.228   4.293   6.513
11764TIP3    H135225   6.192   4.226   6.571
11764TIP3    H235226   6.320   4.300   6.538
11765TIP3   OH235227   6.477   4.299   6.634
11765TIP3    H135228   6.554   4.276   6.582
11765TIP3    H235229   6.469   4.229   6.698
11766TIP3   OH235230   5.639   5.519   4.691
11766TIP3    H135231   5.557   5.480   4.660
11766TIP3    H235232   5.705   5.451   4.679
11767TIP3   OH235233   7.301   4.375   6.418
11767TIP3    H135234   7.320   4.348   6.508
11767TIP3    H235235   7.386   4.371   6.374
11768TIP3   OH235236   8.492   5.318   4.661
11768TIP3    H135237   8.453   5.402   4.637
11768TIP3    H235238   8.425   5.253   4.637
11769TIP3   OH235239   8.431   5.309   5.070
11769TIP3    H135240   8.473   5.297   5.155
11769TIP3    H235241   8.395   5.223   5.048
11770TIP3   OH235242   7.784   5.162   5.444
11770TIP3    H135243   7.822   5.120   5.522
11770TIP3    H235244   7.860   5.189   5.393
11771TIP3   OH235245   0.239   5.588   4.769
11771TIP3    H135246   0.213   5.545   4.851
11771TIP3    H235247   0.268   5.675   4.797
11772TIP3   OH235248   7.769   5.590   5.132
11772TIP3    H135249   7.756   5.496   5.137
11772TIP3    H235250   7.863   5.601   5.119
11773TIP3   OH235251   7.466   4.797   4.905
11773TIP3    H135252   7.424   4.879   4.932
11773TIP3    H235253   7.394   4.745   4.868
11774TIP3   OH235254   7.543   5.104   5.125
11774TIP3    H135255   7.590   5.025   5.150
11774TIP3    H235256   7.612   5.167   5.101
11775TIP3   OH235257   8.402   6.035   4.796
11775TIP3    H135258   8.430   5.977   4.726
11775TIP3    H235259   8.416   5.984   4.876
11776TIP3   OH235260   8.266   5.532   5.085
11776TIP3    H135261   8.309   5.451   5.060
11776TIP3    H235262   8.337   5.589   5.115
11777TIP3   OH235263   0.158   5.034   5.112
11777TIP3    H135264   0.160   4.953   5.163
11777TIP3    H235265   0.097   5.016   5.041
11778TIP3   OH235266   8.035   4.678   5.105
11778TIP3    H135267   8.017   4.748   5.042
11778TIP3    H235268   7.989   4.602   5.069
11779TIP3   OH235269   0.209   4.774   4.722
11779TIP3    H135270   0.247   4.719   4.791
11779TIP3    H235271   0.223   4.864   4.752
11780TIP3   OH235272   7.679   4.882   5.213
11780TIP3    H135273   7.759   4.862   5.261
11780TIP3    H235274   7.685   4.828   5.133
11781TIP3   OH235275   8.087   5.086   5.037
11781TIP3    H135276   8.181   5.071   5.047
11781TIP3    H235277   8.053   5.004   5.000
11782TIP3   OH235278   8.022   4.668   5.561
11782TIP3    H135279   7.964   4.710   5.497
11782TIP3    H235280   7.969   4.661   5.640
11783TIP3   OH235281   8.372   5.527   4.524
11783TIP3    H135282   8.338   5.496   4.440
11783TIP3    H235283   8.318   5.603   4.545
11784TIP3   OH235284   8.133   5.446   5.312
11784TIP3    H135285   8.078   5.515   5.348
11784TIP3    H235286   8.176   5.487   5.236
11785TIP3   OH235287   7.912   4.777   5.328
11785TIP3    H135288   7.966   4.852   5.353
11785TIP3    H235289   7.959   4.736   5.256
11786TIP3   OH235290   7.970   5.647   5.409
11786TIP3    H135291   7.957   5.736   5.377
11786TIP3    H235292   7.892   5.629   5.462
11787TIP3   OH235293   7.355   5.381   4.641
11787TIP3    H135294   7.263   5.406   4.639
11787TIP3    H235295   7.400   5.454   4.683
11788TIP3   OH235296   0.246   5.847   4.869
11788TIP3    H135297   0.155   5.862   4.894
11788TIP3    H235298   0.273   5.928   4.827
11789TIP3   OH235299   8.315   4.345   5.235
11789TIP3    H135300   8.315   4.261   5.281
11789TIP3    H235301   8.256   4.400   5.287
11790TIP3   OH235302   0.002   5.898   4.582
11790TIP3    H135303   0.055   5.819   4.575
11790TIP3    H235304   0.055   5.966   4.541
11791TIP3   OH235305   0.119   5.644   4.532
11791TIP3    H135306   0.037   5.595   4.535
11791TIP3    H235307   0.165   5.618   4.613
11792TIP3   OH235308   0.600   5.774   5.149
11792TIP3    H135309   0.652   5.698   5.175
11792TIP3    H235310   0.576   5.817   5.231
11793TIP3   OH235311   8.311   5.170   4.503
11793TIP3    H135312   8.226   5.212   4.495
11793TIP3    H235313   8.349   5.176   4.415
11794TIP3   OH235314   8.262   4.922   4.231
11794TIP3    H135315   8.335   4.966   4.274
11794TIP3    H235316   8.303   4.851   4.181
11795TIP3   OH235317   0.143   5.228   4.447
11795TIP3    H135318   0.094   5.279   4.512
11795TIP3    H235319   0.204   5.176   4.499
11796TIP3   OH235320   0.327   5.304   5.466
11796TIP3    H135321   0.409   5.345   5.495
11796TIP3    H235322   0.258   5.364   5.494
11797TIP3   OH235323   7.898   5.219   4.887
11797TIP3    H135324   7.865   5.156   4.824
11797TIP3    H235325   7.970   5.175   4.931
11798TIP3   OH235326   8.022   5.646   5.024
11798TIP3    H135327   8.004   5.632   4.932
11798TIP3    H235328   8.109   5.607   5.038
11799TIP3   OH235329   7.999   5.211   5.268
11799TIP3    H135330   8.036   5.174   5.188
11799TIP3    H235331   8.052   5.290   5.284
11800TIP3   OH235332   0.006   5.866   5.009
11800TIP3    H135333   0.017   5.938   5.070
11800TIP3    H235334  -0.000   5.788   5.064
11801TIP3   OH235335   8.169   5.749   5.571
11801TIP3    H135336   8.109   5.810   5.616
11801TIP3    H235337   8.112   5.697   5.515
11802TIP3   OH235338  -0.003   5.048   4.304
11802TIP3    H135339   0.045   5.107   4.363
11802TIP3    H235340   0.042   5.055   4.220
11803TIP3   OH235341   7.942   5.317   5.689
11803TIP3    H135342   7.943   5.406   5.725
11803TIP3    H235343   7.850   5.291   5.695
11804TIP3   OH235344   8.253   5.773   4.565
11804TIP3    H135345   8.332   5.824   4.581
11804TIP3    H235346   8.196   5.831   4.515
11805TIP3   OH235347   7.965   5.918   5.659
11805TIP3    H135348   7.943   5.921   5.566
11805TIP3    H235349   7.884   5.893   5.702
11806TIP3   OH235350   7.784   5.046   4.694
11806TIP3    H135351   7.696   5.073   4.667
11806TIP3    H235352   7.776   4.952   4.711
11807TIP3   OH235353   0.456   5.686   3.838
11807TIP3    H135354   0.366   5.718   3.844
11807TIP3    H235355   0.463   5.651   3.749
11808TIP3   OH235356   7.559   5.464   5.603
11808TIP3    H135357   7.493   5.439   5.538
11808TIP3    H235358   7.599   5.381   5.629
11809TIP3   OH235359   7.418   5.648   5.253
11809TIP3    H135360   7.514   5.655   5.251
11809TIP3    H235361   7.390   5.730   5.295
11810TIP3   OH235362   8.350   5.920   5.456
11810TIP3    H135363   8.379   5.955   5.540
11810TIP3    H235364   8.297   5.844   5.478
11811TIP3   OH235365   8.147   5.989   4.403
11811TIP3    H135366   8.106   5.970   4.318
11811TIP3    H235367   8.114   6.075   4.427
11812TIP3   OH235368   7.583   5.854   4.775
11812TIP3    H135369   7.630   5.846   4.858
11812TIP3    H235370   7.536   5.772   4.765
11813TIP3   OH235371   8.324   5.946   4.028
11813TIP3    H135372   8.356   5.864   3.989
11813TIP3    H235373   8.369   5.952   4.112
11814TIP3   OH235374   8.403   5.968   4.292
11814TIP3    H135375   8.326   5.965   4.348
11814TIP3    H235376   8.472   5.925   4.343
11815TIP3   OH235377   7.752   5.658   5.582
11815TIP3    H135378   7.807   5.640   5.658
11815TIP3    H235379   7.684   5.591   5.585
11816TIP3   OH235380   8.121   4.467   5.395
11816TIP3    H135381   8.034   4.438   5.365
11816TIP3    H235382   8.104   4.546   5.446
11817TIP3   OH235383   0.068   4.638   5.681
11817TIP3    H135384   0.116   4.627   5.763
11817TIP3    H235385  -0.021   4.610   5.701
11818TIP3   OH235386   0.475   5.050   5.381
11818TIP3    H135387   0.479   4.964   5.422
11818TIP3    H235388   0.499   5.112   5.450
11819TIP3   OH235389   0.144   5.112   4.088
11819TIP3    H135390   0.089   5.174   4.040
11819TIP3    H235391   0.216   5.164   4.122
11820TIP3   OH235392   8.251   4.504   4.358
11820TIP3    H135393   8.227   4.510   4.451
11820TIP3    H235394   8.216   4.419   4.331
11821TIP3   OH235395   8.061   4.985   5.420
11821TIP3    H135396   8.025   4.997   5.507
11821TIP3    H235397   8.046   5.069   5.376
11822TIP3   OH235398   7.955   4.870   4.926
11822TIP3    H135399   7.867   4.840   4.949
11822TIP3    H235400   7.969   4.836   4.837
11823TIP3   OH235401   8.411   4.958   4.650
11823TIP3    H135402   8.373   5.031   4.601
11823TIP3    H235403   8.472   4.916   4.589
11824TIP3   OH235404   0.096   5.205   5.727
11824TIP3    H135405   0.090   5.129   5.784
11824TIP3    H235406   0.184   5.239   5.741
11825TIP3   OH235407   0.029   4.937   4.895
11825TIP3    H135408  -0.011   4.965   4.813
11825TIP3    H235409   0.053   4.846   4.881
11826TIP3   OH235410   7.920   5.025   5.657
11826TIP3    H135411   7.971   5.099   5.689
11826TIP3    H235412   7.888   4.982   5.736
11827TIP3   OH235413   7.921   4.483   4.328
11827TIP3    H135414   7.924   4.485   4.424
11827TIP3    H235415   7.850   4.542   4.304
11828TIP3   OH235416   7.503   4.527   5.200
11828TIP3    H135417   7.574   4.561   5.254
11828TIP3    H235418   7.545   4.499   5.118
11829TIP3   OH235419   7.428   4.502   4.712
11829TIP3    H135420   7.474   4.536   4.636
11829TIP3    H235421   7.364   4.570   4.734
11830TIP3   OH235422   0.064   5.227   5.295
11830TIP3    H135423   0.100   5.169   5.229
11830TIP3    H235424   0.110   5.204   5.376
11831TIP3   OH235425   8.283   4.743   4.993
11831TIP3    H135426   8.211   4.716   5.051
11831TIP3    H235427   8.357   4.690   5.020
11832TIP3   OH235428   7.724   4.736   4.984
11832TIP3    H135429   7.636   4.741   4.947
11832TIP3    H235430   7.753   4.647   4.966
11833TIP3   OH235431   7.958   4.750   4.678
11833TIP3    H135432   8.054   4.754   4.670
11833TIP3    H235433   7.926   4.763   4.589
11834TIP3   OH235434   0.156   4.772   5.187
11834TIP3    H135435   0.122   4.771   5.276
11834TIP3    H235436   0.251   4.762   5.197
11835TIP3   OH235437   7.842   4.775   4.431
11835TIP3    H135438   7.774   4.732   4.378
11835TIP3    H235439   7.895   4.823   4.367
11836TIP3   OH235440   7.910   5.576   5.803
11836TIP3    H135441   7.990   5.602   5.850
11836TIP3    H235442   7.843   5.570   5.872
11837TIP3   OH235443   8.349   5.035   5.090
11837TIP3    H135444   8.388   4.972   5.029
11837TIP3    H235445   8.348   4.990   5.174
11838TIP3   OH235446   7.874   4.491   4.972
11838TIP3    H135447   7.842   4.416   5.021
11838TIP3    H235448   7.923   4.453   4.899
11839TIP3   OH235449   8.317   4.922   5.344
11839TIP3    H135450   8.226   4.942   5.366
11839TIP3    H235451   8.369   4.967   5.411
11840TIP3   OH235452   8.067   5.299   4.456
11840TIP3    H135453   7.993   5.241   4.436
11840TIP3    H235454   8.048   5.333   4.543
11841TIP3   OH235455   0.395   5.534   5.165
11841TIP3    H135456   0.461   5.475   5.127
11841TIP3    H235457   0.318   5.522   5.109
11842TIP3   OH235458   8.487   4.627   4.326
11842TIP3    H135459   8.400   4.598   4.351
11842TIP3    H235460   8.507   4.701   4.384
11843TIP3   OH235461   8.470   5.621   5.475
11843TIP3    H135462   8.514   5.571   5.544
11843TIP3    H235463   8.513   5.706   5.476
11844TIP3   OH235464   0.073   4.845   4.459
11844TIP3    H135465   0.166   4.860   4.476
11844TIP3    H235466   0.049   4.912   4.394
11845TIP3   OH235467   7.771   5.302   5.119
11845TIP3    H135468   7.810   5.284   5.033
11845TIP3    H235469   7.837   5.272   5.181
11846TIP3   OH235470   8.216   5.461   4.292
11846TIP3    H135471   8.168   5.544   4.298
11846TIP3    H235472   8.165   5.401   4.346
11847TIP3   OH235473   7.666   5.249   5.741
11847TIP3    H135474   7.692   5.227   5.831
11847TIP3    H235475   7.595   5.187   5.721
11848TIP3   OH235476   8.373   5.343   5.798
11848TIP3    H135477   8.302   5.289   5.763
11848TIP3    H235478   8.452   5.309   5.755
11849TIP3   OH235479   0.126   5.851   5.409
11849TIP3    H135480   0.046   5.883   5.367
11849TIP3    H235481   0.175   5.930   5.432
11850TIP3   OH235482   0.319   5.714   4.128
11850TIP3    H135483   0.304   5.654   4.201
11850TIP3    H235484   0.312   5.658   4.050
11851TIP3   OH235485   0.166   5.469   5.019
11851TIP3    H135486   0.074   5.441   5.020
11851TIP3    H235487   0.213   5.393   4.985
11852TIP3   OH235488   7.899   5.644   4.773
11852TIP3    H135489   7.902   5.718   4.714
11852TIP3    H235490   7.806   5.635   4.796
11853TIP3   OH235491   7.449   4.940   4.467
11853TIP3    H135492   7.500   5.012   4.502
11853TIP3    H235493   7.372   4.934   4.524
11854TIP3   OH235494   7.990   5.395   4.694
11854TIP3    H135495   7.973   5.486   4.721
11854TIP3    H235496   7.963   5.342   4.769
11855TIP3   OH235497   8.180   5.973   5.239
11855TIP3    H135498   8.217   6.038   5.180
11855TIP3    H235499   8.250   5.954   5.301
11856TIP3   OH235500   7.812   5.866   4.621
11856TIP3    H135501   7.727   5.874   4.664
11856TIP3    H235502   7.848   5.955   4.623
11857TIP3   OH235503  -0.004   5.640   5.191
11857TIP3    H135504  -0.013   5.622   5.284
11857TIP3    H235505   0.075   5.592   5.165
11858TIP3   OH235506   8.457   5.592   4.131
11858TIP3    H135507   8.543   5.568   4.166
11858TIP3    H235508   8.396   5.532   4.175
11859TIP3   OH235509   0.193   5.507   4.256
11859TIP3    H135510   0.128   5.451   4.298
11859TIP3    H235511   0.225   5.456   4.182
11860TIP3   OH235512   7.607   5.856   5.395
11860TIP3    H135513   7.658   5.794   5.447
11860TIP3    H235514   7.627   5.941   5.433
11861TIP3   OH235515   7.861   5.476   4.091
11861TIP3    H135516   7.875   5.386   4.061
11861TIP3    H235517   7.852   5.469   4.186
11862TIP3   OH235518   7.831   5.473   4.364
11862TIP3    H135519   7.912   5.456   4.411
11862TIP3    H235520   7.818   5.568   4.373
11863TIP3   OH235521   7.567   5.179   4.565
11863TIP3    H135522   7.506   5.241   4.605
11863TIP3    H235523   7.641   5.232   4.537
11864TIP3   OH235524   0.111   4.786   5.453
11864TIP3    H135525   0.151   4.872   5.467
11864TIP3    H235526   0.080   4.759   5.539
11865TIP3   OH235527   0.021   4.587   4.623
11865TIP3    H135528   0.070   4.541   4.555
11865TIP3    H235529   0.075   4.663   4.645
11866TIP3   OH235530   8.075   5.686   4.311
11866TIP3    H135531   7.986   5.708   4.340
11866TIP3    H235532   8.099   5.758   4.253
11867TIP3   OH235533   8.232   4.764   4.724
11867TIP3    H135534   8.294   4.829   4.692
11867TIP3    H235535   8.249   4.758   4.818
11868TIP3   OH235536   8.456   5.034   5.549
11868TIP3    H135537   8.466   5.107   5.610
11868TIP3    H235538   8.542   5.026   5.508
11869TIP3   OH235539   8.392   4.463   4.830
11869TIP3    H135540   8.428   4.514   4.903
11869TIP3    H235541   8.436   4.499   4.752
11870TIP3   OH235542   7.816   5.751   4.373
11870TIP3    H135543   7.797   5.821   4.310
11870TIP3    H235544   7.812   5.793   4.458
11871TIP3   OH235545   7.922   4.476   4.608
11871TIP3    H135546   7.910   4.564   4.645
11871TIP3    H235547   8.016   4.460   4.614
11872TIP3   OH235548   0.256   5.230   4.937
11872TIP3    H135549   0.183   5.174   4.909
11872TIP3    H235550   0.278   5.198   5.024
11873TIP3   OH235551   7.478   4.652   4.487
11873TIP3    H135552   7.475   4.748   4.480
11873TIP3    H235553   7.411   4.621   4.426
11874TIP3   OH235554   0.319   6.123   4.830
11874TIP3    H135555   0.281   6.173   4.757
11874TIP3    H235556   0.411   6.149   4.832
11875TIP3   OH235557   7.865   4.374   5.357
11875TIP3    H135558   7.843   4.338   5.271
11875TIP3    H235559   7.858   4.299   5.416
11876TIP3   OH235560   7.413   5.631   4.753
11876TIP3    H135561   7.374   5.667   4.832
11876TIP3    H235562   7.366   5.674   4.681
11877TIP3   OH235563   7.579   6.144   5.800
11877TIP3    H135564   7.655   6.143   5.858
11877TIP3    H235565   7.571   6.053   5.770
11878TIP3   OH235566   8.024   6.114   5.842
11878TIP3    H135567   8.120   6.123   5.842
11878TIP3    H235568   8.007   6.044   5.778
11879TIP3   OH235569   8.024   5.677   3.991
11879TIP3    H135570   7.974   5.607   4.033
11879TIP3    H235571   8.092   5.631   3.942
11880TIP3   OH235572   8.395   5.714   3.902
11880TIP3    H135573   8.425   5.660   3.975
11880TIP3    H235574   8.444   5.681   3.826
11881TIP3   OH235575   7.700   5.562   5.990
11881TIP3    H135576   7.732   5.472   6.003
11881TIP3    H235577   7.614   5.551   5.950
11882TIP3   OH235578   7.664   5.192   4.235
11882TIP3    H135579   7.726   5.176   4.306
11882TIP3    H235580   7.718   5.198   4.157
11883TIP3   OH235581   8.313   5.614   5.766
11883TIP3    H135582   8.289   5.628   5.675
11883TIP3    H235583   8.344   5.523   5.768
11884TIP3   OH235584   8.189   5.374   4.031
11884TIP3    H135585   8.201   5.399   4.122
11884TIP3    H235586   8.188   5.278   4.032
11885TIP3   OH235587   0.257   5.607   5.383
11885TIP3    H135588   0.296   5.585   5.298
11885TIP3    H235589   0.201   5.682   5.365
11886TIP3   OH235590   7.817   5.315   6.011
11886TIP3    H135591   7.841   5.227   5.982
11886TIP3    H235592   7.849   5.321   6.101
11887TIP3   OH235593   7.856   5.115   4.423
11887TIP3    H135594   7.852   5.076   4.510
11887TIP3    H235595   7.901   5.050   4.369
11888TIP3   OH235596   8.183   5.182   5.675
11888TIP3    H135597   8.105   5.237   5.677
11888TIP3    H235598   8.226   5.202   5.592
11889TIP3   OH235599   7.985   4.932   4.257
11889TIP3    H135600   7.960   4.935   4.165
11889TIP3    H235601   8.081   4.926   4.256
11890TIP3   OH235602   0.129   5.521   5.682
11890TIP3    H135603   0.222   5.536   5.665
11890TIP3    H235604   0.127   5.487   5.772
11891TIP3   OH235605   8.294   4.948   5.813
11891TIP3    H135606   8.295   4.881   5.744
11891TIP3    H235607   8.247   5.021   5.773
11892TIP3   OH235608   8.280   4.757   5.597
11892TIP3    H135609   8.316   4.794   5.517
11892TIP3    H235610   8.188   4.740   5.576
11893TIP3   OH235611   8.309   5.284   5.454
11893TIP3    H135612   8.389   5.275   5.403
11893TIP3    H235613   8.257   5.351   5.408
11894TIP3   OH235614   0.345   5.272   5.812
11894TIP3    H135615   0.398   5.202   5.773
11894TIP3    H235616   0.406   5.345   5.822
11895TIP3   OH235617   0.395   5.552   5.606
11895TIP3    H135618   0.350   5.571   5.523
11895TIP3    H235619   0.488   5.551   5.583
11896TIP3   OH235620   8.329   4.512   5.725
11896TIP3    H135621   8.291   4.589   5.682
11896TIP3    H235622   8.283   4.438   5.687
11897TIP3   OH235623   0.050   4.996   5.899
11897TIP3    H135624   0.044   4.997   5.995
11897TIP3    H235625  -0.039   4.976   5.869
11898TIP3   OH235626   0.254   4.931   5.722
11898TIP3    H135627   0.180   4.943   5.781
11898TIP3    H235628   0.325   4.902   5.779
11899TIP3   OH235629   0.377   4.894   5.993
11899TIP3    H135630   0.426   4.812   5.999
11899TIP3    H235631   0.445   4.962   5.999
11900TIP3   OH235632   8.474   4.496   5.955
11900TIP3    H135633   8.530   4.418   5.953
11900TIP3    H235634   8.420   4.488   5.877
11901TIP3   OH235635   0.030   4.731   6.077
11901TIP3    H135636   0.010   4.647   6.034
11901TIP3    H235637   0.105   4.765   6.029
11902TIP3   OH235638   7.816   5.960   4.190
11902TIP3    H135639   7.909   5.945   4.173
11902TIP3    H235640   7.785   6.009   4.113
11903TIP3   OH235641   7.356   5.291   4.373
11903TIP3    H135642   7.371   5.338   4.455
11903TIP3    H235643   7.265   5.262   4.379
11904TIP3   OH235644   7.207   5.937   4.831
11904TIP3    H135645   7.143   5.883   4.785
11904TIP3    H235646   7.252   5.877   4.890
11905TIP3   OH235647   7.352   5.769   4.997
11905TIP3    H135648   7.340   5.702   5.065
11905TIP3    H235649   7.404   5.837   5.039
11906TIP3   OH235650   0.395   6.055   5.096
11906TIP3    H135651   0.353   5.974   5.125
11906TIP3    H235652   0.361   6.070   5.008
11907TIP3   OH235653   0.504   5.052   4.661
11907TIP3    H135654   0.599   5.055   4.667
11907TIP3    H235655   0.479   5.140   4.630
11908TIP3   OH235656   7.525   5.208   5.379
11908TIP3    H135657   7.518   5.172   5.291
11908TIP3    H235658   7.618   5.201   5.400
11909TIP3   OH235659   7.704   4.596   5.380
11909TIP3    H135660   7.756   4.516   5.382
11909TIP3    H235661   7.768   4.665   5.364
11910TIP3   OH235662   7.499   4.865   5.430
11910TIP3    H135663   7.548   4.852   5.349
11910TIP3    H235664   7.542   4.939   5.472
11911TIP3   OH235665   7.491   4.369   4.942
11911TIP3    H135666   7.404   4.356   4.979
11911TIP3    H235667   7.477   4.422   4.864
11912TIP3   OH235668   0.129   6.112   4.459
11912TIP3    H135669   0.169   6.093   4.374
11912TIP3    H235670   0.202   6.139   4.514
11913TIP3   OH235671   7.700   4.415   5.744
11913TIP3    H135672   7.660   4.422   5.830
11913TIP3    H235673   7.641   4.461   5.685
11914TIP3   OH235674   7.744   5.884   5.823
11914TIP3    H135675   7.656   5.848   5.809
11914TIP3    H235676   7.756   5.880   5.917
11915TIP3   OH235677   7.949   5.923   5.378
11915TIP3    H135678   7.900   5.998   5.344
11915TIP3    H235679   8.035   5.931   5.338
11916TIP3   OH235680   7.607   6.165   5.420
11916TIP3    H135681   7.516   6.184   5.398
11916TIP3    H235682   7.630   6.232   5.485
11917TIP3   OH235683   7.842   6.154   5.275
11917TIP3    H135684   7.757   6.160   5.319
11917TIP3    H235685   7.824   6.179   5.184
11918TIP3   OH235686   8.256   6.169   5.060
11918TIP3    H135687   8.197   6.169   4.984
11918TIP3    H235688   8.263   6.261   5.085
11919TIP3   OH235689   0.009   6.102   5.150
11919TIP3    H135690  -0.074   6.125   5.109
11919TIP3    H235691   0.072   6.163   5.112
11920TIP3   OH235692   0.176   6.277   5.016
11920TIP3    H135693   0.241   6.345   5.032
11920TIP3    H235694   0.215   6.222   4.948
11921TIP3   OH235695   7.525   5.946   5.144
11921TIP3    H135696   7.548   5.922   5.233
11921TIP3    H235697   7.597   5.914   5.090
11922TIP3   OH235698   7.729   5.832   5.007
11922TIP3    H135699   7.739   5.748   5.052
11922TIP3    H235700   7.816   5.872   5.011
11923TIP3   OH235701   7.995   5.923   5.032
11923TIP3    H135702   8.013   5.830   5.018
11923TIP3    H235703   8.050   5.947   5.106
11924TIP3   OH235704   0.003   4.591   5.049
11924TIP3    H135705   0.013   4.524   5.117
11924TIP3    H235706   0.060   4.662   5.078
11925TIP3   OH235707   7.795   4.266   5.113
11925TIP3    H135708   7.706   4.232   5.121
11925TIP3    H235709   7.850   4.188   5.101
11926TIP3   OH235710   7.604   4.170   4.767
11926TIP3    H135711   7.636   4.219   4.691
11926TIP3    H235712   7.575   4.238   4.828
11927TIP3   OH235713   8.207   4.326   4.981
11927TIP3    H135714   8.259   4.381   4.923
11927TIP3    H235715   8.244   4.340   5.068
11928TIP3   OH235716   0.466   4.426   4.949
11928TIP3    H135717   0.428   4.371   4.881
11928TIP3    H235718   0.418   4.404   5.028
11929TIP3   OH235719   7.284   5.746   4.539
11929TIP3    H135720   7.200   5.717   4.505
11929TIP3    H235721   7.296   5.834   4.505
11930TIP3   OH235722   7.718   4.300   4.537
11930TIP3    H135723   7.764   4.238   4.480
11930TIP3    H235724   7.787   4.359   4.568
11931TIP3   OH235725   8.193   4.510   4.627
11931TIP3    H135726   8.247   4.451   4.680
11931TIP3    H235727   8.217   4.598   4.657
11932TIP3   OH235728   8.078   5.902   4.135
11932TIP3    H135729   8.159   5.937   4.097
11932TIP3    H235730   8.053   5.831   4.077
11933TIP3   OH235731   0.297   6.072   4.221
11933TIP3    H135732   0.316   5.978   4.228
11933TIP3    H235733   0.241   6.080   4.144
11934TIP3   OH235734   8.021   4.488   5.988
11934TIP3    H135735   7.993   4.434   6.062
11934TIP3    H235736   8.093   4.540   6.022
11935TIP3   OH235737   8.247   4.571   6.138
11935TIP3    H135738   8.322   4.546   6.084
11935TIP3    H235739   8.238   4.500   6.202
11936TIP3   OH235740   7.379   5.717   4.183
11936TIP3    H135741   7.390   5.756   4.269
11936TIP3    H235742   7.466   5.682   4.161
11937TIP3   OH235743   0.925   6.073   6.350
11937TIP3    H135744   0.893   6.162   6.337
11937TIP3    H235745   0.854   6.017   6.319
11938TIP3   OH235746   0.964   6.071   6.739
11938TIP3    H135747   1.010   6.053   6.820
11938TIP3    H235748   0.916   5.990   6.719
11939TIP3   OH235749   1.214   6.390   6.445
11939TIP3    H135750   1.207   6.323   6.514
11939TIP3    H235751   1.234   6.470   6.492
11940TIP3   OH235752   0.873   6.869   6.431
11940TIP3    H135753   0.889   6.796   6.372
11940TIP3    H235754   0.880   6.832   6.519
11941TIP3   OH235755   0.772   6.252   6.827
11941TIP3    H135756   0.821   6.192   6.772
11941TIP3    H235757   0.808   6.338   6.807
11942TIP3   OH235758   1.782   5.629   6.794
11942TIP3    H135759   1.803   5.713   6.834
11942TIP3    H235760   1.811   5.637   6.703
11943TIP3   OH235761   1.179   5.799   6.817
11943TIP3    H135762   1.220   5.715   6.839
11943TIP3    H235763   1.135   5.783   6.733
11944TIP3   OH235764   1.212   5.558   6.411
11944TIP3    H135765   1.279   5.551   6.479
11944TIP3    H235766   1.258   5.592   6.334
11945TIP3   OH235767   7.517   1.835   0.028
11945TIP3    H135768   7.432   1.877   0.016
11945TIP3    H235769   7.554   1.878   0.105
11946TIP3   OH235770   0.821   6.300   6.234
11946TIP3    H135771   0.796   6.288   6.142
11946TIP3    H235772   0.900   6.355   6.230
11947TIP3   OH235773   1.383   5.579   6.621
11947TIP3    H135774   1.346   5.554   6.706
11947TIP3    H235775   1.440   5.653   6.640
11948TIP3   OH235776   1.245   6.638   6.585
11948TIP3    H135777   1.151   6.634   6.602
11948TIP3    H235778   1.258   6.721   6.541
11949TIP3   OH235779   1.581   5.518   6.961
11949TIP3    H135780   1.495   5.545   6.929
11949TIP3    H235781   1.642   5.545   6.892
11950TIP3   OH235782   6.536   1.137   0.001
11950TIP3    H135783   6.529   1.045   0.026
11950TIP3    H235784   6.474   1.183   0.057
11951TIP3   OH235785   0.947   6.665   6.262
11951TIP3    H135786   0.982   6.576   6.254
11951TIP3    H235787   1.014   6.720   6.221
11952TIP3   OH235788   1.068   6.419   6.212
11952TIP3    H135789   1.113   6.373   6.141
11952TIP3    H235790   1.124   6.405   6.289
11953TIP3   OH235791   1.532   6.534   6.889
11953TIP3    H135792   1.509   6.463   6.830
11953TIP3    H235793   1.500   6.613   6.846
11954TIP3   OH235794   0.753   5.911   6.191
11954TIP3    H135795   0.672   5.871   6.159
11954TIP3    H235796   0.809   5.917   6.113
11955TIP3   OH235797   0.790   5.718   5.906
11955TIP3    H135798   0.855   5.773   5.949
11955TIP3    H235799   0.841   5.657   5.853
11956TIP3   OH235800   1.675   6.190   6.801
11956TIP3    H135801   1.588   6.228   6.795
11956TIP3    H235802   1.715   6.204   6.715
11957TIP3   OH235803   1.134   6.041   6.175
11957TIP3    H135804   1.074   6.055   6.248
11957TIP3    H235805   1.214   6.009   6.215
11958TIP3   OH235806   7.022   2.003   0.103
11958TIP3    H135807   7.040   2.076   0.163
11958TIP3    H235808   6.933   2.017   0.073
11959TIP3   OH235809   0.981   6.658   6.650
11959TIP3    H135810   0.955   6.735   6.702
11959TIP3    H235811   0.946   6.584   6.699
11960TIP3   OH235812   0.975   5.892   6.011
11960TIP3    H135813   1.029   5.951   6.063
11960TIP3    H235814   1.001   5.907   5.921
11961TIP3   OH235815   1.475   5.112   6.056
11961TIP3    H135816   1.398   5.133   6.109
11961TIP3    H235817   1.488   5.188   6.000
11962TIP3   OH235818   1.301   6.491   5.603
11962TIP3    H135819   1.299   6.583   5.579
11962TIP3    H235820   1.390   6.463   5.584
11963TIP3   OH235821   7.395   2.923   0.016
11963TIP3    H135822   7.394   2.831   0.043
11963TIP3    H235823   7.311   2.957   0.047
11964TIP3   OH235824   0.803   6.717   5.714
11964TIP3    H135825   0.855   6.642   5.684
11964TIP3    H235826   0.825   6.725   5.807
11965TIP3   OH235827   0.870   6.771   5.991
11965TIP3    H135828   0.818   6.727   6.059
11965TIP3    H235829   0.955   6.785   6.032
11966TIP3   OH235830   7.301   1.998   0.332
11966TIP3    H135831   7.225   2.036   0.287
11966TIP3    H235832   7.304   1.907   0.301
11967TIP3   OH235833   6.811   1.347   0.330
11967TIP3    H135834   6.880   1.329   0.394
11967TIP3    H235835   6.729   1.331   0.378
11968TIP3   OH235836   7.040   1.753   0.218
11968TIP3    H135837   7.008   1.763   0.307
11968TIP3    H235838   7.029   1.840   0.179
11969TIP3   OH235839   1.050   5.913   5.755
11969TIP3    H135840   1.003   5.892   5.674
11969TIP3    H235841   1.135   5.947   5.726
11970TIP3   OH235842   0.754   5.309   6.025
11970TIP3    H135843   0.723   5.320   6.115
11970TIP3    H235844   0.745   5.215   6.009
11971TIP3   OH235845   0.916   5.743   6.340
11971TIP3    H135846   0.858   5.805   6.296
11971TIP3    H235847   0.971   5.708   6.269
11972TIP3   OH235848   6.745   1.900   0.429
11972TIP3    H135849   6.721   1.833   0.494
11972TIP3    H235850   6.837   1.918   0.447
11973TIP3   OH235851   1.073   5.745   6.566
11973TIP3    H135852   1.012   5.773   6.498
11973TIP3    H235853   1.119   5.670   6.529
11974TIP3   OH235854   6.750   1.986   0.036
11974TIP3    H135855   6.791   1.928  -0.027
11974TIP3    H235856   6.715   1.928   0.104
11975TIP3   OH235857   0.805   5.467   6.673
11975TIP3    H135858   0.739   5.494   6.738
11975TIP3    H235859   0.881   5.441   6.725
11976TIP3   OH235860   1.251   5.531   6.860
11976TIP3    H135861   1.231   5.545   6.952
11976TIP3    H235862   1.186   5.468   6.829
11977TIP3   OH235863   7.076   3.288   0.083
11977TIP3    H135864   7.077   3.278  -0.012
11977TIP3    H235865   7.163   3.323   0.105
11978TIP3   OH235866   0.874   5.803   6.764
11978TIP3    H135867   0.925   5.767   6.692
11978TIP3    H235868   0.876   5.735   6.831
11979TIP3   OH235869   6.444   1.687   0.091
11979TIP3    H135870   6.400   1.765   0.055
11979TIP3    H235871   6.524   1.721   0.131
11980TIP3   OH235872   1.439   6.316   6.746
11980TIP3    H135873   1.470   6.363   6.668
11980TIP3    H235874   1.354   6.279   6.720
11981TIP3   OH235875   1.010   5.397   6.057
11981TIP3    H135876   0.916   5.386   6.044
11981TIP3    H235877   1.022   5.491   6.069
11982TIP3   OH235878   6.568   2.383   0.171
11982TIP3    H135879   6.632   2.432   0.223
11982TIP3    H235880   6.483   2.418   0.198
11983TIP3   OH235881   1.075   5.658   6.124
11983TIP3    H135882   1.170   5.660   6.133
11983TIP3    H235883   1.055   5.736   6.073
11984TIP3   OH235884   0.667   6.230   6.002
11984TIP3    H135885   0.607   6.303   6.013
11984TIP3    H235886   0.633   6.162   6.062
11985TIP3   OH235887   6.642   2.160   0.599
11985TIP3    H135888   6.590   2.126   0.526
11985TIP3    H235889   6.733   2.154   0.569
11986TIP3   OH235890   6.785   2.560   0.221
11986TIP3    H135891   6.744   2.624   0.162
11986TIP3    H235892   6.849   2.611   0.270
11987TIP3   OH235893   1.484   5.745   5.947
11987TIP3    H135894   1.426   5.700   5.885
11987TIP3    H235895   1.490   5.834   5.913
11988TIP3   OH235896   7.414   2.640   0.071
11988TIP3    H135897   7.324   2.609   0.056
11988TIP3    H235898   7.462   2.612  -0.006
11989TIP3   OH235899   1.216   6.545   5.863
11989TIP3    H135900   1.179   6.466   5.902
11989TIP3    H235901   1.240   6.519   5.774
11990TIP3   OH235902   1.208   6.190   6.647
11990TIP3    H135903   1.117   6.168   6.667
11990TIP3    H235904   1.244   6.108   6.612
11991TIP3   OH235905   0.973   6.451   6.851
11991TIP3    H135906   0.943   6.413   6.934
11991TIP3    H235907   1.067   6.435   6.850
11992TIP3   OH235908   0.993   6.293   5.764
11992TIP3    H135909   1.031   6.270   5.849
11992TIP3    H235910   0.909   6.248   5.762
11993TIP3   OH235911   1.229   6.920   6.878
11993TIP3    H135912   1.143   6.881   6.896
11993TIP3    H235913   1.210   6.989   6.814
11994TIP3   OH235914   1.306   6.761   5.564
11994TIP3    H135915   1.330   6.822   5.495
11994TIP3    H235916   1.235   6.804   5.610
11995TIP3   OH235917   1.158   6.252   5.996
11995TIP3    H135918   1.141   6.177   6.054
11995TIP3    H235919   1.250   6.244   5.973
11996TIP3   OH235920   6.843   1.567   0.175
11996TIP3    H135921   6.918   1.615   0.211
11996TIP3    H235922   6.832   1.492   0.235
11997TIP3   OH235923   1.063   5.339   6.324
11997TIP3    H135924   1.040   5.358   6.233
11997TIP3    H235925   1.105   5.418   6.356
11998TIP3   OH235926   0.756   5.529   6.410
11998TIP3    H135927   0.805   5.608   6.385
11998TIP3    H235928   0.768   5.523   6.505
11999TIP3   OH235929   6.675   1.780   0.198
11999TIP3    H135930   6.701   1.814   0.284
11999TIP3    H235931   6.731   1.704   0.185
12000TIP3   OH235932   0.876   5.241   6.505
12000TIP3    H135933   0.848   5.322   6.548
12000TIP3    H235934   0.940   5.270   6.440
12001TIP3   OH235935   7.309   1.736   0.238
12001TIP3    H135936   7.213   1.726   0.240
12001TIP3    H235937   7.334   1.699   0.153
12002TIP3   OH235938   1.297   5.934   6.566
12002TIP3    H135939   1.221   5.877   6.577
12002TIP3    H235940   1.365   5.893   6.619
12003TIP3   OH235941   1.285   6.900   6.510
12003TIP3    H135942   1.240   6.939   6.436
12003TIP3    H235943   1.378   6.912   6.490
12004TIP3   OH235944   6.707   2.831   0.362
12004TIP3    H135945   6.762   2.800   0.434
12004TIP3    H235946   6.743   2.916   0.339
12005TIP3   OH235947   0.938   6.507   5.598
12005TIP3    H135948   0.973   6.439   5.656
12005TIP3    H235949   0.989   6.499   5.517
12006TIP3   OH235950   0.741   6.177   5.739
12006TIP3    H135951   0.709   6.192   5.827
12006TIP3    H235952   0.721   6.085   5.720
12007TIP3   OH235953   6.906   2.464  -0.011
12007TIP3    H135954   7.000   2.447  -0.014
12007TIP3    H235955   6.891   2.502   0.076
12008TIP3   OH235956   0.557   5.774   6.044
12008TIP3    H135957   0.488   5.771   5.977
12008TIP3    H235958   0.633   5.732   6.003
12009TIP3   OH235959   6.726   2.439   0.475
12009TIP3    H135960   6.761   2.391   0.401
12009TIP3    H235961   6.762   2.396   0.552
12010TIP3   OH235962   1.276   6.005   5.625
12010TIP3    H135963   1.261   5.961   5.542
12010TIP3    H235964   1.252   6.096   5.609
12011TIP3   OH235965   6.386   1.489   0.280
12011TIP3    H135966   6.411   1.542   0.205
12011TIP3    H235967   6.335   1.547   0.335
12012TIP3   OH235968   6.485   2.077   0.106
12012TIP3    H135969   6.571   2.062   0.067
12012TIP3    H235970   6.441   2.138   0.045
12013TIP3   OH235971   7.045   1.947   0.433
12013TIP3    H135972   7.028   1.901   0.516
12013TIP3    H235973   7.139   1.962   0.433
12014TIP3   OH235974   7.112   2.202   0.262
12014TIP3    H135975   7.040   2.265   0.255
12014TIP3    H235976   7.189   2.249   0.230
12015TIP3   OH235977   6.539   1.280   0.376
12015TIP3    H135978   6.496   1.358   0.340
12015TIP3    H235979   6.479   1.208   0.356
12016TIP3   OH235980   6.676   1.718   0.618
12016TIP3    H135981   6.696   1.789   0.680
12016TIP3    H235982   6.611   1.665   0.663
12017TIP3   OH235983   6.930   1.647   0.455
12017TIP3    H135984   6.857   1.652   0.517
12017TIP3    H235985   7.009   1.655   0.509
12018TIP3   OH235986   7.181   1.661   0.600
12018TIP3    H135987   7.187   1.566   0.608
12018TIP3    H235988   7.173   1.692   0.690
12019TIP3   OH235989   6.620   1.253   0.633
12019TIP3    H135990   6.688   1.186   0.631
12019TIP3    H235991   6.586   1.255   0.544
12020TIP3   OH235992   6.724   1.454   0.777
12020TIP3    H135993   6.688   1.385   0.721
12020TIP3    H235994   6.649   1.509   0.799
12021TIP3   OH235995   1.546   6.959   6.463
12021TIP3    H135996   1.571   6.988   6.551
12021TIP3    H235997   1.605   7.006   6.404
12022TIP3   OH235998   1.579   6.988   6.731
12022TIP3    H135999   1.530   6.906   6.738
12022TIP3    H236000   1.656   6.976   6.787
12023TIP3   OH236001   7.318   2.620   0.343
12023TIP3    H136002   7.245   2.682   0.337
12023TIP3    H236003   7.375   2.643   0.270
12024TIP3   OH236004   1.430   6.212   5.961
12024TIP3    H136005   1.490   6.279   5.929
12024TIP3    H236006   1.477   6.171   6.034
12025TIP3   OH236007   1.559   6.067   6.160
12025TIP3    H136008   1.492   6.027   6.216
12025TIP3    H236009   1.624   6.101   6.222
12026TIP3   OH236010   1.617   6.469   6.593
12026TIP3    H136011   1.670   6.399   6.555
12026TIP3    H236012   1.621   6.540   6.530
12027TIP3   OH236013   1.423   6.757   6.768
12027TIP3    H136014   1.356   6.812   6.808
12027TIP3    H236015   1.377   6.711   6.698
12028TIP3   OH236016   1.476   5.984   5.810
12028TIP3    H136017   1.408   5.982   5.743
12028TIP3    H236018   1.457   6.062   5.862
12029TIP3   OH236019   1.327   5.639   5.753
12029TIP3    H136020   1.287   5.673   5.673
12029TIP3    H236021   1.319   5.544   5.744
12030TIP3   OH236022   1.358   5.926   6.297
12030TIP3    H136023   1.365   5.832   6.280
12030TIP3    H236024   1.343   5.933   6.391
12031TIP3   OH236025   7.331   2.334   0.152
12031TIP3    H136026   7.398   2.266   0.151
12031TIP3    H236027   7.328   2.367   0.062
12032TIP3   OH236028   7.502   2.124   0.201
12032TIP3    H136029   7.432   2.085   0.253
12032TIP3    H236030   7.580   2.072   0.221
12033TIP3   OH236031   1.292   5.369   5.726
12033TIP3    H136032   1.361   5.339   5.785
12033TIP3    H236033   1.213   5.323   5.755
12034TIP3   OH236034   1.357   5.650   6.184
12034TIP3    H136035   1.402   5.566   6.198
12034TIP3    H236036   1.401   5.688   6.108
12035TIP3   OH236037   1.513   5.811   6.700
12035TIP3    H136038   1.592   5.831   6.650
12035TIP3    H236039   1.530   5.845   6.788
12036TIP3   OH236040   1.600   5.954   6.928
12036TIP3    H136041   1.513   5.973   6.964
12036TIP3    H236042   1.626   6.036   6.885
12037TIP3   OH236043   7.703   1.552   0.523
12037TIP3    H136044   7.770   1.494   0.487
12037TIP3    H236045   7.670   1.601   0.448
12038TIP3   OH236046   1.468   5.399   6.238
12038TIP3    H136047   1.513   5.383   6.320
12038TIP3    H236048   1.406   5.327   6.229
12039TIP3   OH236049   7.559   1.666   0.323
12039TIP3    H136050   7.472   1.708   0.322
12039TIP3    H236051   7.547   1.584   0.276
12040TIP3   OH236052   1.521   5.314   5.875
12040TIP3    H136053   1.568   5.252   5.818
12040TIP3    H236054   1.577   5.392   5.877
12041TIP3   OH236055   1.107   6.839   6.128
12041TIP3    H136056   1.170   6.835   6.056
12041TIP3    H236057   1.140   6.908   6.186
12042TIP3   OH236058   6.655   3.060   0.046
12042TIP3    H136059   6.731   3.041   0.101
12042TIP3    H236060   6.619   3.141   0.083
12043TIP3   OH236061   7.471   1.421   0.225
12043TIP3    H136062   7.385   1.415   0.184
12043TIP3    H236063   7.507   1.332   0.218
12044TIP3   OH236064   0.949   6.920   6.752
12044TIP3    H136065   0.942   6.971   6.833
12044TIP3    H236066   0.987   6.981   6.689
12045TIP3   OH236067   1.202   7.105   6.677
12045TIP3    H136068   1.182   7.184   6.626
12045TIP3    H236069   1.224   7.039   6.611
12046TIP3   OH236070   1.018   5.354   6.804
12046TIP3    H136071   0.978   5.279   6.847
12046TIP3    H236072   1.086   5.316   6.748
12047TIP3   OH236073   1.513   5.269   6.699
12047TIP3    H136074   1.551   5.316   6.625
12047TIP3    H236075   1.420   5.288   6.694
12048TIP3   OH236076   1.626   5.343   6.460
12048TIP3    H136077   1.694   5.284   6.430
12048TIP3    H236078   1.663   5.431   6.447
12049TIP3   OH236079   0.743   5.081   6.693
12049TIP3    H136080   0.780   5.132   6.621
12049TIP3    H236081   0.794   5.106   6.770
12050TIP3   OH236082   1.229   5.239   6.673
12050TIP3    H136083   1.241   5.206   6.584
12050TIP3    H236084   1.233   5.161   6.728
12051TIP3   OH236085   1.283   5.188   6.240
12051TIP3    H136086   1.203   5.235   6.264
12051TIP3    H236087   1.272   5.101   6.279
12052TIP3   OH236088   0.678   5.304   6.282
12052TIP3    H136089   0.699   5.241   6.351
12052TIP3    H236090   0.694   5.389   6.322
12053TIP3   OH236091   1.261   6.814   5.903
12053TIP3    H136092   1.251   6.719   5.892
12053TIP3    H236093   1.219   6.852   5.826
12054TIP3   OH236094   7.216   1.394   0.633
12054TIP3    H136095   7.226   1.353   0.719
12054TIP3    H236096   7.305   1.393   0.596
12055TIP3   OH236097   7.119   3.009   0.065
12055TIP3    H136098   7.039   2.975   0.025
12055TIP3    H236099   7.099   3.100   0.087
12056TIP3   OH236100   2.742   6.353   5.842
12056TIP3    H136101   2.713   6.441   5.816
12056TIP3    H236102   2.671   6.295   5.815
12057TIP3   OH236103   2.737   6.343   6.265
12057TIP3    H136104   2.790   6.327   6.343
12057TIP3    H236105   2.696   6.259   6.246
12058TIP3   OH236106   2.042   6.213   6.616
12058TIP3    H136107   2.079   6.157   6.684
12058TIP3    H236108   2.117   6.235   6.560
12059TIP3   OH236109   3.007   6.654   5.939
12059TIP3    H136110   2.996   6.587   6.007
12059TIP3    H236111   3.029   6.734   5.986
12060TIP3   OH236112   2.027   6.637   6.309
12060TIP3    H136113   2.011   6.543   6.310
12060TIP3    H236114   2.121   6.646   6.296
12061TIP3   OH236115   1.715   5.840   6.087
12061TIP3    H136116   1.675   5.925   6.109
12061TIP3    H236117   1.645   5.791   6.045
12062TIP3   OH236118   1.789   6.144   6.303
12062TIP3    H136119   1.839   6.067   6.327
12062TIP3    H236120   1.854   6.205   6.268
12063TIP3   OH236121   2.661   7.087   5.948
12063TIP3    H136122   2.689   7.021   5.885
12063TIP3    H236123   2.667   7.042   6.033
12064TIP3   OH236124   2.545   6.565   6.274
12064TIP3    H136125   2.589   6.486   6.243
12064TIP3    H236126   2.616   6.622   6.304
12065TIP3   OH236127   3.572   5.891   6.284
12065TIP3    H136128   3.593   5.972   6.330
12065TIP3    H236129   3.590   5.910   6.192
12066TIP3   OH236130   2.954   6.056   6.306
12066TIP3    H136131   2.991   5.972   6.334
12066TIP3    H236132   2.918   6.040   6.219
12067TIP3   OH236133   2.308   5.715   6.267
12067TIP3    H136134   2.289   5.788   6.208
12067TIP3    H236135   2.255   5.643   6.234
12068TIP3   OH236136   3.005   5.816   5.899
12068TIP3    H136137   3.069   5.809   5.970
12068TIP3    H236138   3.056   5.850   5.825
12069TIP3   OH236139   1.933   5.925   6.392
12069TIP3    H136140   2.016   5.907   6.436
12069TIP3    H236141   1.938   5.875   6.311
12070TIP3   OH236142   2.354   6.127   6.211
12070TIP3    H136143   2.449   6.112   6.217
12070TIP3    H236144   2.319   6.046   6.175
12071TIP3   OH236145   3.635   6.106   6.453
12071TIP3    H136146   3.547   6.142   6.446
12071TIP3    H236147   3.665   6.132   6.540
12072TIP3   OH236148   2.293   5.716   6.715
12072TIP3    H136149   2.241   5.751   6.642
12072TIP3    H236150   2.238   5.732   6.793
12073TIP3   OH236151   2.642   6.572   5.702
12073TIP3    H136152   2.602   6.544   5.620
12073TIP3    H236153   2.588   6.646   5.731
12074TIP3   OH236154   2.392   6.488   6.491
12074TIP3    H136155   2.338   6.560   6.523
12074TIP3    H236156   2.440   6.525   6.418
12075TIP3   OH236157   3.166   5.837   6.119
12075TIP3    H136158   3.127   5.814   6.203
12075TIP3    H236159   3.224   5.912   6.138
12076TIP3   OH236160   2.177   5.822   6.487
12076TIP3    H136161   2.232   5.897   6.510
12076TIP3    H236162   2.223   5.780   6.415
12077TIP3   OH236163   2.234   6.695   6.588
12077TIP3    H136164   2.221   6.783   6.553
12077TIP3    H236165   2.156   6.679   6.641
12078TIP3   OH236166   1.606   6.395   5.842
12078TIP3    H136167   1.572   6.412   5.754
12078TIP3    H236168   1.630   6.481   5.876
12079TIP3   OH236169   3.046   6.900   6.080
12079TIP3    H136170   2.959   6.891   6.119
12079TIP3    H236171   3.044   6.985   6.036
12080TIP3   OH236172   3.375   5.777   6.455
12080TIP3    H136173   3.289   5.802   6.422
12080TIP3    H236174   3.436   5.806   6.388
12081TIP3   OH236175   2.633   5.411   6.443
12081TIP3    H136176   2.628   5.319   6.469
12081TIP3    H236177   2.557   5.452   6.483
12082TIP3   OH236178   2.752   6.931   5.736
12082TIP3    H136179   2.804   6.852   5.725
12082TIP3    H236180   2.809   7.002   5.706
12083TIP3   OH236181   2.893   6.703   5.691
12083TIP3    H136182   2.822   6.640   5.688
12083TIP3    H236183   2.943   6.679   5.770
12084TIP3   OH236184   3.283   6.788   6.426
12084TIP3    H136185   3.265   6.713   6.368
12084TIP3    H236186   3.267   6.865   6.372
12085TIP3   OH236187   2.569   6.194   5.692
12085TIP3    H136188   2.487   6.239   5.672
12085TIP3    H236189   2.616   6.191   5.609
12086TIP3   OH236190   2.537   5.997   5.387
12086TIP3    H136191   2.603   6.045   5.436
12086TIP3    H236192   2.587   5.930   5.340
12087TIP3   OH236193   3.466   6.449   6.284
12087TIP3    H136194   3.381   6.494   6.286
12087TIP3    H236195   3.499   6.464   6.196
12088TIP3   OH236196   2.927   6.281   5.654
12088TIP3    H136197   2.873   6.310   5.728
12088TIP3    H236198   3.010   6.255   5.694
12089TIP3   OH236199   3.157   6.311   6.597
12089TIP3    H136200   3.155   6.394   6.645
12089TIP3    H236201   3.075   6.309   6.548
12090TIP3   OH236202   2.154   6.262   6.063
12090TIP3    H136203   2.118   6.203   5.997
12090TIP3    H236204   2.227   6.214   6.101
12091TIP3   OH236205   2.287   6.683   6.204
12091TIP3    H136206   2.266   6.669   6.112
12091TIP3    H236207   2.375   6.645   6.214
12092TIP3   OH236208   2.255   6.257   6.435
12092TIP3    H136209   2.293   6.221   6.355
12092TIP3    H236210   2.305   6.336   6.453
12093TIP3   OH236211   2.807   6.889   6.209
12093TIP3    H136212   2.795   6.971   6.258
12093TIP3    H236213   2.792   6.820   6.273
12094TIP3   OH236214   2.432   6.796   6.756
12094TIP3    H136215   2.370   6.855   6.800
12094TIP3    H236216   2.378   6.744   6.697
12095TIP3   OH236217   2.758   6.143   5.487
12095TIP3    H136218   2.818   6.200   5.535
12095TIP3    H236219   2.786   6.150   5.395
12096TIP3   OH236220   2.192   6.352   6.893
12096TIP3    H136221   2.193   6.446   6.908
12096TIP3    H236222   2.100   6.330   6.881
12097TIP3   OH236223   2.503   6.811   5.745
12097TIP3    H136224   2.586   6.860   5.751
12097TIP3    H236225   2.444   6.868   5.697
12098TIP3   OH236226   2.220   6.955   6.834
12098TIP3    H136227   2.193   6.961   6.742
12098TIP3    H236228   2.139   6.937   6.882
12099TIP3   OH236229   3.271   5.370   5.544
12099TIP3    H136230   3.193   5.389   5.596
12099TIP3    H236231   3.282   5.447   5.488
12100TIP3   OH236232   2.029   6.106   5.860
12100TIP3    H136233   1.953   6.153   5.827
12100TIP3    H236234   1.999   6.016   5.873
12101TIP3   OH236235   3.090   6.743   5.096
12101TIP3    H136236   3.087   6.837   5.078
12101TIP3    H236237   3.180   6.717   5.075
12102TIP3   OH236238   1.827   6.514   6.785
12102TIP3    H136239   1.755   6.496   6.726
12102TIP3    H236240   1.860   6.427   6.810
12103TIP3   OH236241   1.673   6.691   6.430
12103TIP3    H136242   1.768   6.698   6.422
12103TIP3    H236243   1.645   6.775   6.465
12104TIP3   OH236244   3.508   7.177   6.501
12104TIP3    H136245   3.507   7.082   6.518
12104TIP3    H236246   3.428   7.209   6.542
12105TIP3   OH236247   2.618   6.941   6.614
12105TIP3    H136248   2.614   7.032   6.646
12105TIP3    H236249   2.553   6.895   6.667
12106TIP3   OH236250   2.395   7.038   5.570
12106TIP3    H136251   2.348   7.020   5.488
12106TIP3    H236252   2.360   7.123   5.599
12107TIP3   OH236253   1.829   6.894   5.948
12107TIP3    H136254   1.876   6.884   6.031
12107TIP3    H236255   1.781   6.811   5.938
12108TIP3   OH236256   2.596   6.968   5.197
12108TIP3    H136257   2.647   6.894   5.162
12108TIP3    H236258   2.630   6.980   5.285
12109TIP3   OH236259   2.648   7.011   5.467
12109TIP3    H136260   2.562   7.015   5.509
12109TIP3    H236261   2.706   6.977   5.535
12110TIP3   OH236262   3.405   6.268   6.761
12110TIP3    H136263   3.322   6.277   6.714
12110TIP3    H236264   3.425   6.175   6.756
12111TIP3   OH236265   2.018   6.706   6.759
12111TIP3    H136266   2.071   6.689   6.837
12111TIP3    H236267   1.951   6.639   6.761
12112TIP3   OH236268   2.395   5.500   6.570
12112TIP3    H136269   2.311   5.468   6.538
12112TIP3    H236270   2.374   5.581   6.616
12113TIP3   OH236271   2.946   5.620   6.772
12113TIP3    H136272   3.020   5.595   6.828
12113TIP3    H236273   2.869   5.602   6.825
12114TIP3   OH236274   3.162   6.045   6.682
12114TIP3    H136275   3.122   6.040   6.769
12114TIP3    H236276   3.147   6.135   6.654
12115TIP3   OH236277   2.838   6.136   5.225
12115TIP3    H136278   2.794   6.133   5.140
12115TIP3    H236279   2.920   6.182   5.209
12116TIP3   OH236280   2.546   5.547   5.539
12116TIP3    H136281   2.510   5.553   5.627
12116TIP3    H236282   2.511   5.465   5.504
12117TIP3   OH236283   2.334   6.031   6.576
12117TIP3    H136284   2.293   6.042   6.662
12117TIP3    H236285   2.312   6.112   6.529
12118TIP3   OH236286   2.215   5.913   6.101
12118TIP3    H136287   2.125   5.888   6.125
12118TIP3    H236288   2.226   5.880   6.012
12119TIP3   OH236289   2.696   5.989   5.828
12119TIP3    H136290   2.648   6.062   5.787
12119TIP3    H236291   2.754   5.957   5.759
12120TIP3   OH236292   2.887   6.257   6.904
12120TIP3    H136293   2.859   6.188   6.964
12120TIP3    H236294   2.980   6.269   6.924
12121TIP3   OH236295   2.861   6.003   6.054
12121TIP3    H136296   2.794   6.026   5.989
12121TIP3    H236297   2.908   5.930   6.015
12122TIP3   OH236298   2.166   6.042   6.801
12122TIP3    H136299   2.227   6.091   6.856
12122TIP3    H236300   2.151   5.960   6.848
12123TIP3   OH236301   2.212   5.529   5.515
12123TIP3    H136302   2.202   5.531   5.611
12123TIP3    H236303   2.133   5.573   5.482
12124TIP3   OH236304   1.755   5.567   6.386
12124TIP3    H136305   1.829   5.603   6.435
12124TIP3    H236306   1.791   5.547   6.299
12125TIP3   OH236307   1.673   5.548   5.888
12125TIP3    H136308   1.718   5.582   5.810
12125TIP3    H236309   1.610   5.616   5.910
12126TIP3   OH236310   2.899   6.256   6.481
12126TIP3    H136311   2.925   6.190   6.417
12126TIP3    H236312   2.860   6.205   6.553
12127TIP3   OH236313   2.577   5.707   6.153
12127TIP3    H136314   2.501   5.706   6.210
12127TIP3    H236315   2.652   5.696   6.212
12128TIP3   OH236316   1.976   5.786   6.160
12128TIP3    H136317   1.888   5.791   6.124
12128TIP3    H236318   2.005   5.697   6.143
12129TIP3   OH236319   2.230   5.790   5.856
12129TIP3    H136320   2.324   5.800   5.845
12129TIP3    H236321   2.193   5.808   5.770
12130TIP3   OH236322   3.030   5.794   6.362
12130TIP3    H136323   3.011   5.810   6.454
12130TIP3    H236324   2.964   5.732   6.333
12131TIP3   OH236325   2.110   5.817   5.611
12131TIP3    H136326   2.047   5.768   5.559
12131TIP3    H236327   2.165   5.861   5.546
12132TIP3   OH236328   7.841   2.608   0.043
12132TIP3    H136329   7.923   2.629   0.089
12132TIP3    H236330   7.775   2.603   0.113
12133TIP3   OH236331   2.627   6.071   6.260
12133TIP3    H136332   2.693   6.024   6.210
12133TIP3    H236333   2.628   6.029   6.346
12134TIP3   OH236334   2.122   5.539   6.146
12134TIP3    H136335   2.093   5.464   6.197
12134TIP3    H236336   2.150   5.503   6.062
12135TIP3   OH236337   2.603   5.973   6.526
12135TIP3    H136338   2.515   6.004   6.550
12135TIP3    H236339   2.662   6.024   6.582
12136TIP3   OH236340   2.332   6.333   5.636
12136TIP3    H136341   2.258   6.277   5.614
12136TIP3    H236342   2.309   6.372   5.720
12137TIP3   OH236343   3.228   6.585   6.246
12137TIP3    H136344   3.262   6.636   6.172
12137TIP3    H236345   3.148   6.545   6.213
12138TIP3   OH236346   2.800   5.648   5.538
12138TIP3    H136347   2.706   5.626   5.535
12138TIP3    H236348   2.802   5.742   5.551
12139TIP3   OH236349   2.739   6.669   6.657
12139TIP3    H136350   2.799   6.661   6.732
12139TIP3    H236351   2.707   6.760   6.662
12140TIP3   OH236352   2.859   5.911   5.612
12140TIP3    H136353   2.954   5.915   5.622
12140TIP3    H236354   2.838   5.989   5.560
12141TIP3   OH236355   2.025   6.351   6.291
12141TIP3    H136356   2.062   6.332   6.205
12141TIP3    H236357   2.092   6.320   6.353
12142TIP3   OH236358   2.486   6.494   5.479
12142TIP3    H136359   2.439   6.577   5.477
12142TIP3    H236360   2.431   6.436   5.531
12143TIP3   OH236361   1.918   6.287   6.918
12143TIP3    H136362   1.936   6.258   7.007
12143TIP3    H236363   1.854   6.224   6.885
12144TIP3   OH236364   2.659   6.414   6.935
12144TIP3    H136365   2.604   6.381   6.864
12144TIP3    H236366   2.745   6.375   6.918
12145TIP3   OH236367   2.889   6.947   6.537
12145TIP3    H136368   2.793   6.942   6.545
12145TIP3    H236369   2.917   6.993   6.616
12146TIP3   OH236370   3.280   5.999   5.432
12146TIP3    H136371   3.224   5.953   5.369
12146TIP3    H236372   3.284   6.088   5.399
12147TIP3   OH236373   3.526   6.883   6.517
12147TIP3    H136374   3.432   6.866   6.514
12147TIP3    H236375   3.558   6.851   6.432
12148TIP3   OH236376   3.016   6.816   5.364
12148TIP3    H136377   2.986   6.749   5.425
12148TIP3    H236378   3.031   6.769   5.282
12149TIP3   OH236379   2.996   6.452   6.144
12149TIP3    H136380   2.906   6.431   6.168
12149TIP3    H236381   3.031   6.371   6.107
12150TIP3   OH236382   2.149   6.686   5.954
12150TIP3    H136383   2.150   6.763   5.897
12150TIP3    H236384   2.057   6.670   5.972
12151TIP3   OH236385   1.712   5.973   5.666
12151TIP3    H136386   1.755   6.056   5.685
12151TIP3    H236387   1.632   5.974   5.718
12152TIP3   OH236388   2.242   6.440   5.867
12152TIP3    H136389   2.224   6.530   5.895
12152TIP3    H236390   2.214   6.386   5.941
12153TIP3   OH236391   2.432   7.010   6.409
12153TIP3    H136392   2.467   7.084   6.359
12153TIP3    H236393   2.506   6.978   6.461
12154TIP3   OH236394   2.064   6.911   5.803
12154TIP3    H136395   1.977   6.918   5.841
12154TIP3    H236396   2.100   7.000   5.807
12155TIP3   OH236397   2.781   6.668   6.383
12155TIP3    H136398   2.767   6.665   6.478
12155TIP3    H236399   2.865   6.624   6.370
12156TIP3   OH236400   2.774   6.551   5.252
12156TIP3    H136401   2.826   6.524   5.328
12156TIP3    H236402   2.690   6.509   5.265
12157TIP3   OH236403   3.043   7.167   6.409
12157TIP3    H136404   2.969   7.108   6.426
12157TIP3    H236405   3.011   7.227   6.341
12158TIP3   OH236406   3.092   7.017   5.060
12158TIP3    H136407   3.113   7.080   4.991
12158TIP3    H236408   3.020   7.057   5.108
12159TIP3   OH236409   7.792   1.783  -0.014
12159TIP3    H136410   7.697   1.787  -0.009
12159TIP3    H236411   7.817   1.726   0.059
12160TIP3   OH236412   2.949   6.466   5.446
12160TIP3    H136413   2.934   6.412   5.523
12160TIP3    H236414   3.045   6.474   5.440
12161TIP3   OH236415   1.856   6.911   6.567
12161TIP3    H136416   1.913   6.853   6.618
12161TIP3    H236417   1.873   6.998   6.602
12162TIP3   OH236418   2.131   6.516   5.262
12162TIP3    H136419   2.141   6.424   5.236
12162TIP3    H236420   2.113   6.513   5.356
12163TIP3   OH236421   2.072   6.534   5.533
12163TIP3    H136422   2.141   6.508   5.594
12163TIP3    H236423   2.070   6.630   5.539
12164TIP3   OH236424   1.806   6.224   5.746
12164TIP3    H136425   1.740   6.271   5.797
12164TIP3    H236426   1.825   6.283   5.673
12165TIP3   OH236427   2.969   5.852   6.624
12165TIP3    H136428   3.047   5.898   6.655
12165TIP3    H236429   2.963   5.775   6.680
12166TIP3   OH236430   2.857   5.598   5.808
12166TIP3    H136431   2.837   5.616   5.716
12166TIP3    H236432   2.900   5.678   5.839
12167TIP3   OH236433   2.341   6.723   5.475
12167TIP3    H136434   2.256   6.747   5.511
12167TIP3    H236435   2.364   6.796   5.419
12168TIP3   OH236436   2.509   5.798   5.899
12168TIP3    H136437   2.572   5.866   5.873
12168TIP3    H236438   2.532   5.778   5.990
12169TIP3   OH236439   2.807   6.089   6.681
12169TIP3    H136440   2.835   6.132   6.761
12169TIP3    H236441   2.858   6.008   6.679
12170TIP3   OH236442   2.671   5.495   5.987
12170TIP3    H136443   2.650   5.573   6.039
12170TIP3    H236444   2.740   5.525   5.927
12171TIP3   OH236445   2.089   6.807   5.549
12171TIP3    H136446   2.068   6.877   5.488
12171TIP3    H236447   2.078   6.846   5.636
12172TIP3   OH236448   2.185   5.517   5.794
12172TIP3    H136449   2.175   5.607   5.824
12172TIP3    H236450   2.279   5.501   5.799
12173TIP3   OH236451   3.429   5.997   6.671
12173TIP3    H136452   3.334   6.002   6.677
12173TIP3    H236453   3.445   5.932   6.602
12174TIP3   OH236454   3.086   6.194   6.055
12174TIP3    H136455   3.009   6.138   6.067
12174TIP3    H236456   3.154   6.153   6.108
12175TIP3   OH236457   1.825   6.403   5.531
12175TIP3    H136458   1.895   6.468   5.538
12175TIP3    H236459   1.858   6.340   5.466
12176TIP3   OH236460   1.737   5.695   5.666
12176TIP3    H136461   1.748   5.790   5.672
12176TIP3    H236462   1.683   5.682   5.587
12177TIP3   OH236463   3.066   7.167   5.997
12177TIP3    H136464   3.024   7.217   5.926
12177TIP3    H236465   3.160   7.180   5.983
12178TIP3   OH236466   2.131   5.416   6.533
12178TIP3    H136467   2.103   5.384   6.447
12178TIP3    H236468   2.122   5.340   6.591
12179TIP3   OH236469   1.660   6.664   5.926
12179TIP3    H136470   1.617   6.702   6.003
12179TIP3    H236471   1.617   6.706   5.852
12180TIP3   OH236472   7.539   3.195   0.027
12180TIP3    H136473   7.624   3.180   0.070
12180TIP3    H236474   7.503   3.108   0.015
12181TIP3   OH236475   8.006   3.109   0.078
12181TIP3    H136476   8.096   3.077   0.092
12181TIP3    H236477   7.972   3.055   0.007
12182TIP3   OH236478   2.287   6.717   5.154
12182TIP3    H136479   2.239   6.647   5.198
12182TIP3    H236480   2.361   6.674   5.113
12183TIP3   OH236481   2.948   7.072   6.771
12183TIP3    H136482   2.968   7.011   6.843
12183TIP3    H236483   2.998   7.150   6.792
12184TIP3   OH236484   2.727   6.757   5.078
12184TIP3    H136485   2.758   6.693   5.141
12184TIP3    H236486   2.788   6.750   5.005
12185TIP3   OH236487   7.637   2.572   0.228
12185TIP3    H136488   7.656   2.478   0.229
12185TIP3    H236489   7.557   2.580   0.177
12186TIP3   OH236490   1.951   6.213   5.382
12186TIP3    H136491   2.003   6.189   5.458
12186TIP3    H236492   2.016   6.225   5.312
12187TIP3   OH236493   2.578   6.687   6.965
12187TIP3    H136494   2.541   6.712   6.880
12187TIP3    H236495   2.622   6.604   6.948
12188TIP3   OH236496   2.512   6.436   5.211
12188TIP3    H136497   2.491   6.448   5.304
12188TIP3    H236498   2.497   6.342   5.196
12189TIP3   OH236499   3.054   6.722   6.570
12189TIP3    H136500   3.133   6.752   6.526
12189TIP3    H236501   2.991   6.793   6.558
12190TIP3   OH236502   7.754   2.320   0.227
12190TIP3    H136503   7.830   2.306   0.170
12190TIP3    H236504   7.792   2.345   0.312
12191TIP3   OH236505   2.127   6.152   5.592
12191TIP3    H136506   2.106   6.121   5.680
12191TIP3    H236507   2.174   6.080   5.551
12192TIP3   OH236508   2.408   6.197   6.827
12192TIP3    H136509   2.342   6.262   6.851
12192TIP3    H236510   2.462   6.241   6.762
12193TIP3   OH236511   2.264   5.965   5.438
12193TIP3    H136512   2.235   5.969   5.347
12193TIP3    H236513   2.359   5.972   5.432
12194TIP3   OH236514   0.105   2.601  -0.005
12194TIP3    H136515   0.179   2.570  -0.056
12194TIP3    H236516   0.105   2.546   0.073
12195TIP3   OH236517   3.061   6.260   5.116
12195TIP3    H136518   3.047   6.218   5.031
12195TIP3    H236519   3.035   6.351   5.102
12196TIP3   OH236520   2.540   5.997   6.960
12196TIP3    H136521   2.550   5.924   6.900
12196TIP3    H236522   2.501   6.067   6.907
12197TIP3   OH236523   2.552   5.800   6.756
12197TIP3    H136524   2.582   5.835   6.672
12197TIP3    H236525   2.462   5.773   6.740
12198TIP3   OH236526   2.562   6.345   6.658
12198TIP3    H136527   2.650   6.358   6.623
12198TIP3    H236528   2.506   6.398   6.602
12199TIP3   OH236529   0.321   2.271   0.067
12199TIP3    H136530   0.359   2.184   0.078
12199TIP3    H236531   0.395   2.328   0.048
12200TIP3   OH236532   3.182   6.553   6.742
12200TIP3    H136533   3.127   6.612   6.690
12200TIP3    H236534   3.271   6.570   6.712
12201TIP3   OH236535   8.087   2.085   0.255
12201TIP3    H136536   8.020   2.020   0.275
12201TIP3    H236537   8.120   2.059   0.169
12202TIP3   OH236538   2.675   5.566   6.852
12202TIP3    H136539   2.636   5.647   6.819
12202TIP3    H236540   2.609   5.499   6.837
12203TIP3   OH236541   8.468   2.038   0.114
12203TIP3    H136542   8.469   2.026   0.209
12203TIP3    H236543   8.379   2.015   0.088
12204TIP3   OH236544   0.208   1.988  -0.022
12204TIP3    H136545   0.130   1.988   0.033
12204TIP3    H236546   0.280   1.969   0.038
12205TIP3   OH236547   0.443   1.998   0.135
12205TIP3    H136548   0.452   1.903   0.143
12205TIP3    H236549   0.438   2.030   0.225
12206TIP3   OH236550   7.931   1.857   0.321
12206TIP3    H136551   7.937   1.771   0.278
12206TIP3    H236552   7.977   1.846   0.404
12207TIP3   OH236553   8.410   1.545   0.176
12207TIP3    H136554   8.482   1.482   0.173
12207TIP3    H236555   8.382   1.553   0.085
12208TIP3   OH236556   8.498   1.760   0.325
12208TIP3    H136557   8.473   1.690   0.266
12208TIP3    H236558   8.425   1.822   0.322
12209TIP3   OH236559   2.081   7.014   5.365
12209TIP3    H136560   2.171   6.996   5.335
12209TIP3    H236561   2.041   7.063   5.293
12210TIP3   OH236562   1.553   6.392   5.554
12210TIP3    H136563   1.648   6.405   5.547
12210TIP3    H236564   1.538   6.306   5.514
12211TIP3   OH236565   1.458   6.978   6.002
12211TIP3    H136566   1.397   6.923   5.953
12211TIP3    H236567   1.503   6.917   6.061
12212TIP3   OH236568   1.601   6.811   6.171
12212TIP3    H136569   1.590   6.746   6.241
12212TIP3    H236570   1.654   6.880   6.211
12213TIP3   OH236571   3.337   7.220   5.988
12213TIP3    H136572   3.353   7.241   6.080
12213TIP3    H236573   3.381   7.290   5.939
12214TIP3   OH236574   3.364   7.246   6.263
12214TIP3    H136575   3.316   7.163   6.263
12214TIP3    H236576   3.423   7.238   6.338
12215TIP3   OH236577   3.386   6.953   6.852
12215TIP3    H136578   3.311   6.962   6.911
12215TIP3    H236579   3.426   7.040   6.849
12216TIP3   OH236580   3.229   6.465   5.446
12216TIP3    H136581   3.288   6.535   5.418
12216TIP3    H236582   3.272   6.427   5.522
12217TIP3   OH236583   3.353   6.321   5.648
12217TIP3    H136584   3.286   6.282   5.704
12217TIP3    H236585   3.418   6.356   5.710
12218TIP3   OH236586   3.406   6.727   6.083
12218TIP3    H136587   3.458   6.659   6.039
12218TIP3    H236588   3.405   6.800   6.021
12219TIP3   OH236589   3.220   7.007   6.272
12219TIP3    H136590   3.155   7.055   6.323
12219TIP3    H236591   3.170   6.967   6.201
12220TIP3   OH236592   3.269   6.239   5.295
12220TIP3    H136593   3.197   6.238   5.231
12220TIP3    H236594   3.252   6.316   5.348
12221TIP3   OH236595   3.129   5.890   5.232
12221TIP3    H136596   3.082   5.927   5.157
12221TIP3    H236597   3.117   5.795   5.223
12222TIP3   OH236598   3.153   6.182   5.785
12222TIP3    H136599   3.158   6.087   5.773
12222TIP3    H236600   3.135   6.192   5.879
12223TIP3   OH236601   1.780   6.248   6.556
12223TIP3    H136602   1.770   6.215   6.467
12223TIP3    H236603   1.875   6.246   6.572
12224TIP3   OH236604   3.440   6.604   6.650
12224TIP3    H136605   3.508   6.538   6.635
12224TIP3    H236606   3.452   6.667   6.579
12225TIP3   OH236607   3.618   6.391   6.640
12225TIP3    H136608   3.542   6.351   6.683
12225TIP3    H236609   3.691   6.333   6.661
12226TIP3   OH236610   3.083   5.620   5.206
12226TIP3    H136611   3.148   5.592   5.269
12226TIP3    H236612   3.002   5.578   5.234
12227TIP3   OH236613   3.150   5.905   5.670
12227TIP3    H136614   3.194   5.821   5.683
12227TIP3    H236615   3.194   5.944   5.595
12228TIP3   OH236616   3.302   6.071   6.191
12228TIP3    H136617   3.383   6.087   6.143
12228TIP3    H236618   3.316   6.110   6.277
12229TIP3   OH236619   3.377   6.221   6.417
12229TIP3    H136620   3.305   6.250   6.474
12229TIP3    H236621   3.408   6.301   6.376
12230TIP3   OH236622   7.668   1.915   0.262
12230TIP3    H136623   7.763   1.913   0.279
12230TIP3    H236624   7.635   1.832   0.297
12231TIP3   OH236625   3.876   5.835   6.963
12231TIP3    H136626   3.922   5.766   6.915
12231TIP3    H236627   3.810   5.867   6.901
12232TIP3   OH236628   3.263   5.655   5.722
12232TIP3    H136629   3.308   5.640   5.805
12232TIP3    H236630   3.201   5.583   5.715
12233TIP3   OH236631   1.966   5.639   6.556
12233TIP3    H136632   2.020   5.560   6.558
12233TIP3    H236633   2.028   5.710   6.537
12234TIP3   OH236634   1.754   5.907   6.607
12234TIP3    H136635   1.804   5.894   6.527
12234TIP3    H236636   1.784   5.992   6.641
12235TIP3   OH236637   3.695   5.931   6.776
12235TIP3    H136638   3.616   5.969   6.813
12235TIP3    H236639   3.664   5.858   6.723
12236TIP3   OH236640   3.313   5.572   5.360
12236TIP3    H136641   3.358   5.511   5.302
12236TIP3    H236642   3.370   5.649   5.363
12237TIP3   OH236643   1.740   5.419   6.119
12237TIP3    H136644   1.652   5.404   6.155
12237TIP3    H236645   1.725   5.471   6.040
12238TIP3   OH236646   2.895   7.129   5.626
12238TIP3    H136647   2.953   7.120   5.550
12238TIP3    H236648   2.936   7.197   5.679
12239TIP3   OH236649   7.634   1.475  -0.000
12239TIP3    H136650   7.579   1.461   0.076
12239TIP3    H236651   7.577   1.517  -0.065
12240TIP3   OH236652   7.669   2.918   0.066
12240TIP3    H136653   7.576   2.909   0.043
12240TIP3    H236654   7.673   2.894   0.159
12241TIP3   OH236655   2.202   6.969   6.554
12241TIP3    H136656   2.152   7.044   6.521
12241TIP3    H236657   2.288   6.978   6.512
12242TIP3   OH236658   2.609   7.207   6.699
12242TIP3    H136659   2.650   7.199   6.785
12242TIP3    H236660   2.673   7.255   6.646
12243TIP3   OH236661   2.797   7.345   6.553
12243TIP3    H136662   2.858   7.293   6.501
12243TIP3    H236663   2.850   7.379   6.625
12244TIP3   OH236664   3.601   5.706   6.634
12244TIP3    H136665   3.513   5.699   6.599
12244TIP3    H236666   3.629   5.615   6.647
12245TIP3   OH236667   1.865   7.202   6.599
12245TIP3    H136668   1.777   7.223   6.567
12245TIP3    H236669   1.886   7.275   6.658
12246TIP3   OH236670   2.096   7.199   6.449
12246TIP3    H136671   2.012   7.204   6.495
12246TIP3    H236672   2.075   7.226   6.359
12247TIP3   OH236673   2.510   7.220   6.246
12247TIP3    H136674   2.440   7.234   6.182
12247TIP3    H236675   2.523   7.306   6.287
12248TIP3   OH236676   2.775   7.153   6.291
12248TIP3    H136677   2.683   7.174   6.274
12248TIP3    H236678   2.824   7.223   6.248
12249TIP3   OH236679   2.971   7.334   6.197
12249TIP3    H136680   2.974   7.423   6.161
12249TIP3    H236681   3.003   7.279   6.126
12250TIP3   OH236682   1.779   6.995   6.313
12250TIP3    H136683   1.804   6.973   6.403
12250TIP3    H236684   1.850   6.961   6.259
12251TIP3   OH236685   1.979   6.874   6.179
12251TIP3    H136686   1.991   6.791   6.225
12251TIP3    H236687   2.066   6.915   6.182
12252TIP3   OH236688   2.245   6.962   6.205
12252TIP3    H136689   2.265   6.870   6.191
12252TIP3    H236690   2.300   6.987   6.279
12253TIP3   OH236691   2.805   5.613   6.288
12253TIP3    H136692   2.767   5.540   6.338
12253TIP3    H236693   2.875   5.572   6.237
12254TIP3   OH236694   3.311   5.521   6.178
12254TIP3    H136695   3.347   5.572   6.105
12254TIP3    H236696   3.219   5.546   6.181
12255TIP3   OH236697   3.422   5.605   5.943
12255TIP3    H136698   3.492   5.545   5.915
12255TIP3    H236699   3.460   5.692   5.929
12256TIP3   OH236700   2.045   5.314   6.291
12256TIP3    H136701   1.956   5.280   6.298
12256TIP3    H236702   2.100   5.235   6.283
12257TIP3   OH236703   1.864   5.221   5.947
12257TIP3    H136704   1.891   5.269   5.869
12257TIP3    H236705   1.830   5.289   6.006
12258TIP3   OH236706   2.521   5.356   6.183
12258TIP3    H136707   2.570   5.400   6.114
12258TIP3    H236708   2.564   5.382   6.265
12259TIP3   OH236709   3.022   5.498   6.160
12259TIP3    H136710   3.037   5.463   6.072
12259TIP3    H236711   3.026   5.422   6.218
12260TIP3   OH236712   3.077   5.445   5.727
12260TIP3    H136713   2.997   5.491   5.750
12260TIP3    H236714   3.067   5.357   5.765
12261TIP3   OH236715   1.540   6.788   5.715
12261TIP3    H136716   1.460   6.754   5.676
12261TIP3    H236717   1.545   6.878   5.685
12262TIP3   OH236718   1.973   5.349   5.709
12262TIP3    H136719   2.017   5.288   5.650
12262TIP3    H236720   2.043   5.405   5.743
12263TIP3   OH236721   2.460   5.546   5.802
12263TIP3    H136722   2.520   5.493   5.855
12263TIP3    H236723   2.476   5.636   5.831
12264TIP3   OH236724   2.340   6.944   5.298
12264TIP3    H136725   2.424   6.972   5.261
12264TIP3    H236726   2.312   6.871   5.242
12265TIP3   OH236727   3.050   7.085   5.398
12265TIP3    H136728   3.042   6.990   5.391
12265TIP3    H236729   3.004   7.118   5.320
12266TIP3   OH236730   7.942   1.588   0.231
12266TIP3    H136731   7.908   1.522   0.292
12266TIP3    H236732   8.035   1.595   0.253
12267TIP3   OH236733   8.193   1.589   0.348
12267TIP3    H136734   8.270   1.576   0.293
12267TIP3    H236735   8.198   1.518   0.413
12268TIP3   OH236736   1.645   6.790   5.347
12268TIP3    H136737   1.651   6.814   5.440
12268TIP3    H236738   1.727   6.745   5.329
12269TIP3   OH236739   3.252   7.264   6.575
12269TIP3    H136740   3.180   7.227   6.525
12269TIP3    H236741   3.210   7.316   6.644
12270TIP3   OH236742   4.541   6.610   5.333
12270TIP3    H136743   4.506   6.696   5.309
12270TIP3    H236744   4.472   6.549   5.307
12271TIP3   OH236745   4.543   6.601   5.751
12271TIP3    H136746   4.591   6.578   5.830
12271TIP3    H236747   4.496   6.521   5.727
12272TIP3   OH236748   3.836   6.472   6.098
12272TIP3    H136749   3.869   6.415   6.167
12272TIP3    H236750   3.914   6.503   6.053
12273TIP3   OH236751   4.799   6.890   5.430
12273TIP3    H136752   4.781   6.815   5.486
12273TIP3    H236753   4.826   6.959   5.491
12274TIP3   OH236754   3.829   6.896   5.790
12274TIP3    H136755   3.812   6.802   5.798
12274TIP3    H236756   3.924   6.901   5.779
12275TIP3   OH236757   3.513   6.099   5.571
12275TIP3    H136758   3.472   6.182   5.595
12275TIP3    H236759   3.442   6.048   5.532
12276TIP3   OH236760   3.584   6.399   5.787
12276TIP3    H136761   3.634   6.323   5.815
12276TIP3    H236762   3.650   6.459   5.752
12277TIP3   OH236763   4.464   7.359   5.431
12277TIP3    H136764   4.491   7.299   5.362
12277TIP3    H236765   4.440   7.303   5.505
12278TIP3   OH236766   4.339   6.827   5.753
12278TIP3    H136767   4.380   6.748   5.718
12278TIP3    H236768   4.413   6.880   5.784
12279TIP3   OH236769   5.380   6.140   5.774
12279TIP3    H136770   5.398   6.226   5.813
12279TIP3    H236771   5.405   6.151   5.682
12280TIP3   OH236772   4.757   6.312   5.792
12280TIP3    H136773   4.791   6.227   5.818
12280TIP3    H236774   4.718   6.298   5.706
12281TIP3   OH236775   4.108   5.973   5.751
12281TIP3    H136776   4.085   6.046   5.693
12281TIP3    H236777   4.053   5.900   5.722
12282TIP3   OH236778   4.803   6.073   5.385
12282TIP3    H136779   4.867   6.064   5.455
12282TIP3    H236780   4.852   6.106   5.310
12283TIP3   OH236781   3.731   6.184   5.881
12283TIP3    H136782   3.813   6.166   5.926
12283TIP3    H236783   3.734   6.132   5.801
12284TIP3   OH236784   4.154   6.385   5.692
12284TIP3    H136785   4.248   6.368   5.698
12284TIP3    H236786   4.117   6.304   5.657
12285TIP3   OH236787   5.430   6.370   5.925
12285TIP3    H136788   5.340   6.402   5.929
12285TIP3    H236789   5.472   6.403   6.005
12286TIP3   OH236790   4.085   5.974   6.206
12286TIP3    H136791   4.034   6.007   6.133
12286TIP3    H236792   4.030   5.987   6.283
12287TIP3   OH236793   4.411   6.819   5.211
12287TIP3    H136794   4.382   6.800   5.121
12287TIP3    H236795   4.372   6.904   5.231
12288TIP3   OH236796   4.186   6.751   5.971
12288TIP3    H136797   4.129   6.820   6.006
12288TIP3    H236798   4.229   6.792   5.896
12289TIP3   OH236799   4.965   6.091   5.604
12289TIP3    H136800   4.926   6.068   5.689
12289TIP3    H236801   5.022   6.165   5.624
12290TIP3   OH236802   3.978   6.080   5.974
12290TIP3    H136803   4.033   6.155   5.998
12290TIP3    H236804   4.024   6.038   5.902
12291TIP3   OH236805   4.025   6.950   6.077
12291TIP3    H136806   4.008   7.039   6.047
12291TIP3    H236807   3.947   6.927   6.129
12292TIP3   OH236808   3.404   6.653   5.329
12292TIP3    H136809   3.366   6.671   5.243
12292TIP3    H236810   3.427   6.739   5.364
12293TIP3   OH236811   4.851   7.145   5.561
12293TIP3    H136812   4.767   7.142   5.608
12293TIP3    H236813   4.827   7.164   5.471
12294TIP3   OH236814   5.172   6.042   5.943
12294TIP3    H136815   5.086   6.059   5.905
12294TIP3    H236816   5.235   6.065   5.874
12295TIP3   OH236817   4.430   5.667   5.933
12295TIP3    H136818   4.421   5.575   5.957
12295TIP3    H236819   4.354   5.710   5.972
12296TIP3   OH236820   4.557   7.203   5.219
12296TIP3    H136821   4.606   7.122   5.209
12296TIP3    H236822   4.618   7.272   5.193
12297TIP3   OH236823   4.703   6.977   5.184
12297TIP3    H136824   4.703   6.908   5.118
12297TIP3    H236825   4.734   6.935   5.263
12298TIP3   OH236826   5.072   7.048   5.908
12298TIP3    H136827   5.056   6.973   5.851
12298TIP3    H236828   5.061   7.124   5.851
12299TIP3   OH236829   4.368   6.449   5.182
12299TIP3    H136830   4.286   6.496   5.164
12299TIP3    H236831   4.413   6.447   5.097
12300TIP3   OH236832   4.335   6.251   4.871
12300TIP3    H136833   4.400   6.301   4.921
12300TIP3    H236834   4.386   6.185   4.824
12301TIP3   OH236835   5.261   6.702   5.764
12301TIP3    H136836   5.177   6.748   5.761
12301TIP3    H236837   5.295   6.707   5.675
12302TIP3   OH236838   4.720   6.545   5.137
12302TIP3    H136839   4.666   6.570   5.212
12302TIP3    H236840   4.802   6.515   5.176
12303TIP3   OH236841   4.948   6.573   6.073
12303TIP3    H136842   4.939   6.653   6.124
12303TIP3    H236843   4.866   6.564   6.026
12304TIP3   OH236844   3.950   6.519   5.551
12304TIP3    H136845   3.912   6.460   5.485
12304TIP3    H236846   4.024   6.470   5.588
12305TIP3   OH236847   4.088   6.947   5.685
12305TIP3    H136848   4.062   6.929   5.595
12305TIP3    H236849   4.174   6.905   5.693
12306TIP3   OH236850   4.059   6.511   5.922
12306TIP3    H136851   4.096   6.476   5.841
12306TIP3    H236852   4.107   6.593   5.936
12307TIP3   OH236853   4.622   7.147   5.701
12307TIP3    H136854   4.598   7.227   5.748
12307TIP3    H236855   4.599   7.076   5.761
12308TIP3   OH236856   4.222   7.048   6.244
12308TIP3    H136857   4.163   7.106   6.291
12308TIP3    H236858   4.165   6.997   6.186
12309TIP3   OH236859   4.555   6.398   4.973
12309TIP3    H136860   4.614   6.457   5.020
12309TIP3    H236861   4.581   6.406   4.881
12310TIP3   OH236862   3.977   6.598   6.378
12310TIP3    H136863   3.982   6.690   6.401
12310TIP3    H236864   3.883   6.578   6.374
12311TIP3   OH236865   4.308   7.079   5.235
12311TIP3    H136866   4.391   7.125   5.234
12311TIP3    H236867   4.250   7.132   5.181
12312TIP3   OH236868   4.015   7.207   6.334
12312TIP3    H136869   3.986   7.217   6.243
12312TIP3    H236870   3.934   7.189   6.383
12313TIP3   OH236871   5.076   5.627   5.034
12313TIP3    H136872   4.998   5.647   5.084
12313TIP3    H236873   5.087   5.701   4.975
12314TIP3   OH236874   3.824   6.363   5.348
12314TIP3    H136875   3.748   6.410   5.315
12314TIP3    H236876   3.792   6.275   5.366
12315TIP3   OH236877   4.889   6.997   4.582
12315TIP3    H136878   4.892   7.092   4.569
12315TIP3    H236879   4.977   6.967   4.563
12316TIP3   OH236880   3.604   6.764   6.282
12316TIP3    H136881   3.534   6.748   6.218
12316TIP3    H236882   3.638   6.677   6.303
12317TIP3   OH236883   3.447   6.965   5.928
12317TIP3    H136884   3.537   6.987   5.949
12317TIP3    H236885   3.396   7.041   5.957
12318TIP3   OH236886   5.335   7.406   6.002
12318TIP3    H136887   5.329   7.311   6.010
12318TIP3    H236888   5.247   7.437   6.024
12319TIP3   OH236889   4.412   7.189   6.102
12319TIP3    H136890   4.405   7.280   6.127
12319TIP3    H236891   4.343   7.144   6.152
12320TIP3   OH236892   4.193   7.289   5.054
12320TIP3    H136893   4.150   7.265   4.971
12320TIP3    H236894   4.156   7.374   5.077
12321TIP3   OH236895   3.627   7.146   5.435
12321TIP3    H136896   3.670   7.139   5.521
12321TIP3    H236897   3.576   7.065   5.427
12322TIP3   OH236898   4.394   7.223   4.684
12322TIP3    H136899   4.443   7.151   4.646
12322TIP3    H236900   4.432   7.236   4.771
12323TIP3   OH236901   4.449   7.267   4.955
12323TIP3    H136902   4.361   7.272   4.994
12323TIP3    H236903   4.502   7.225   5.023
12324TIP3   OH236904   5.194   6.542   6.213
12324TIP3    H136905   5.112   6.549   6.164
12324TIP3    H236906   5.224   6.452   6.196
12325TIP3   OH236907   3.806   6.947   6.245
12325TIP3    H136908   3.854   6.940   6.328
12325TIP3    H236909   3.733   6.886   6.254
12326TIP3   OH236910   4.194   5.761   6.059
12326TIP3    H136911   4.111   5.726   6.026
12326TIP3    H236912   4.170   5.839   6.108
12327TIP3   OH236913   4.730   5.881   6.256
12327TIP3    H136914   4.797   5.855   6.318
12327TIP3    H236915   4.647   5.863   6.301
12328TIP3   OH236916   4.964   6.310   6.181
12328TIP3    H136917   4.918   6.304   6.265
12328TIP3    H236918   4.939   6.395   6.146
12329TIP3   OH236919   4.633   6.401   4.713
12329TIP3    H136920   4.589   6.394   4.628
12329TIP3    H236921   4.717   6.442   4.693
12330TIP3   OH236922   4.342   5.802   5.025
12330TIP3    H136923   4.305   5.808   5.113
12330TIP3    H236924   4.306   5.720   4.990
12331TIP3   OH236925   4.131   6.290   6.072
12331TIP3    H136926   4.082   6.296   6.154
12331TIP3    H236927   4.109   6.370   6.024
12332TIP3   OH236928   4.012   6.170   5.587
12332TIP3    H136929   3.923   6.146   5.612
12332TIP3    H236930   4.022   6.136   5.498
12333TIP3   OH236931   4.495   6.246   5.316
12333TIP3    H136932   4.446   6.317   5.275
12333TIP3    H236933   4.552   6.213   5.247
12334TIP3   OH236934   4.676   6.512   6.389
12334TIP3    H136935   4.646   6.446   6.451
12334TIP3    H236936   4.769   6.524   6.409
12335TIP3   OH236937   4.663   6.261   5.539
12335TIP3    H136938   4.594   6.284   5.476
12335TIP3    H236939   4.708   6.187   5.499
12336TIP3   OH236940   3.961   6.304   6.288
12336TIP3    H136941   3.965   6.368   6.359
12336TIP3    H236942   3.943   6.221   6.332
12337TIP3   OH236943   4.008   5.784   5.001
12337TIP3    H136944   3.998   5.785   5.096
12337TIP3    H236945   3.930   5.828   4.968
12338TIP3   OH236946   3.553   5.827   5.864
12338TIP3    H136947   3.627   5.860   5.915
12338TIP3    H236948   3.591   5.802   5.780
12339TIP3   OH236949   3.471   5.803   5.374
12339TIP3    H136950   3.516   5.838   5.297
12339TIP3    H236951   3.408   5.871   5.397
12340TIP3   OH236952   4.698   6.511   5.966
12340TIP3    H136953   4.724   6.444   5.902
12340TIP3    H236954   4.656   6.461   6.036
12341TIP3   OH236955   4.376   5.965   5.642
12341TIP3    H136956   4.296   5.964   5.696
12341TIP3    H236957   4.447   5.955   5.705
12342TIP3   OH236958   3.773   6.046   5.648
12342TIP3    H136959   3.685   6.051   5.612
12342TIP3    H236960   3.800   5.955   5.633
12343TIP3   OH236961   4.027   6.047   5.342
12343TIP3    H136962   4.122   6.057   5.329
12343TIP3    H236963   3.989   6.064   5.256
12344TIP3   OH236964   4.831   6.051   5.852
12344TIP3    H136965   4.809   6.069   5.943
12344TIP3    H236966   4.763   5.989   5.823
12345TIP3   OH236967   3.907   6.073   5.097
12345TIP3    H136968   3.843   6.023   5.046
12345TIP3    H236969   3.961   6.117   5.032
12346TIP3   OH236970   5.023   7.754   6.066
12346TIP3    H136971   5.017   7.782   5.975
12346TIP3    H236972   5.102   7.796   6.099
12347TIP3   OH236973   3.967   6.861   6.480
12347TIP3    H136974   4.046   6.882   6.529
12347TIP3    H236975   3.896   6.869   6.543
12348TIP3   OH236976   4.427   6.331   5.746
12348TIP3    H136977   4.489   6.276   5.698
12348TIP3    H236978   4.421   6.291   5.833
12349TIP3   OH236979   3.920   5.797   5.636
12349TIP3    H136980   3.890   5.722   5.687
12349TIP3    H236981   3.943   5.760   5.551
12350TIP3   OH236982   4.396   6.235   6.010
12350TIP3    H136983   4.308   6.264   6.035
12350TIP3    H236984   4.455   6.286   6.066
12351TIP3   OH236985   4.131   6.588   5.126
12351TIP3    H136986   4.057   6.532   5.104
12351TIP3    H236987   4.107   6.628   5.209
12352TIP3   OH236988   5.021   6.838   5.733
12352TIP3    H136989   5.054   6.886   5.658
12352TIP3    H236990   4.942   6.795   5.701
12353TIP3   OH236991   4.595   5.902   5.029
12353TIP3    H136992   4.502   5.881   5.024
12353TIP3    H236993   4.598   5.997   5.039
12354TIP3   OH236994   4.544   6.936   6.134
12354TIP3    H136995   4.566   6.921   6.226
12354TIP3    H236996   4.495   7.018   6.134
12355TIP3   OH236997   4.655   6.168   5.099
12355TIP3    H136998   4.751   6.171   5.105
12355TIP3    H236999   4.632   6.244   5.045
12356TIP3   OH237000   3.828   6.610   5.782
12356TIP3    H137001   3.864   6.589   5.696
12356TIP3    H237002   3.890   6.572   5.844
12357TIP3   OH237003   4.283   6.749   4.966
12357TIP3    H137004   4.236   6.832   4.965
12357TIP3    H237005   4.229   6.691   5.020
12358TIP3   OH237006   3.706   6.527   6.408
12358TIP3    H137007   3.706   6.502   6.500
12358TIP3    H237008   3.631   6.481   6.370
12359TIP3   OH237009   4.441   6.665   6.427
12359TIP3    H137010   4.370   6.606   6.401
12359TIP3    H237011   4.521   6.621   6.398
12360TIP3   OH237012   4.685   7.209   6.019
12360TIP3    H137013   4.591   7.195   6.026
12360TIP3    H237014   4.710   7.247   6.103
12361TIP3   OH237015   5.076   6.256   4.918
12361TIP3    H137016   5.018   6.211   4.857
12361TIP3    H237017   5.083   6.345   4.882
12362TIP3   OH237018   5.315   7.118   6.018
12362TIP3    H137019   5.222   7.102   6.000
12362TIP3    H237020   5.360   7.089   5.939
12363TIP3   OH237021   4.799   7.050   4.842
12363TIP3    H137022   4.776   6.967   4.884
12363TIP3    H237023   4.828   7.025   4.755
12364TIP3   OH237024   4.793   6.696   5.636
12364TIP3    H137025   4.703   6.673   5.661
12364TIP3    H237026   4.828   6.615   5.598
12365TIP3   OH237027   3.943   6.943   5.441
12365TIP3    H137028   3.939   7.019   5.383
12365TIP3    H237029   3.852   6.930   5.469
12366TIP3   OH237030   3.505   6.229   5.153
12366TIP3    H137031   3.548   6.312   5.174
12366TIP3    H237032   3.425   6.229   5.205
12367TIP3   OH237033   4.037   6.698   5.355
12367TIP3    H137034   4.016   6.787   5.382
12367TIP3    H237035   4.008   6.643   5.428
12368TIP3   OH237036   4.224   7.267   5.898
12368TIP3    H137037   4.260   7.339   5.848
12368TIP3    H237038   4.298   7.232   5.947
12369TIP3   OH237039   3.859   7.169   5.289
12369TIP3    H137040   3.772   7.170   5.330
12369TIP3    H237041   3.888   7.260   5.292
12370TIP3   OH237042   4.579   6.922   5.862
12370TIP3    H137043   4.571   6.922   5.957
12370TIP3    H237044   4.641   6.851   5.843
12371TIP3   OH237045   4.573   6.807   4.745
12371TIP3    H137046   4.614   6.793   4.830
12371TIP3    H237047   4.488   6.766   4.752
12372TIP3   OH237048   4.838   7.422   5.903
12372TIP3    H137049   4.769   7.358   5.924
12372TIP3    H237050   4.799   7.477   5.835
12373TIP3   OH237051   4.920   7.266   4.568
12373TIP3    H137052   5.005   7.301   4.597
12373TIP3    H237053   4.858   7.337   4.584
12374TIP3   OH237054   3.911   6.052   6.411
12374TIP3    H137055   3.816   6.061   6.417
12374TIP3    H237056   3.935   5.998   6.487
12375TIP3   OH237057   4.741   6.769   4.971
12375TIP3    H137058   4.720   6.694   5.027
12375TIP3    H237059   4.834   6.758   4.950
12376TIP3   OH237060   3.655   7.144   6.054
12376TIP3    H137061   3.708   7.083   6.104
12376TIP3    H237062   3.655   7.224   6.107
12377TIP3   OH237063   3.925   6.772   4.748
12377TIP3    H137064   3.935   6.681   4.722
12377TIP3    H237065   3.908   6.769   4.843
12378TIP3   OH237066   3.867   6.790   5.020
12378TIP3    H137067   3.934   6.762   5.083
12378TIP3    H237068   3.867   6.886   5.027
12379TIP3   OH237069   3.601   6.480   5.232
12379TIP3    H137070   3.535   6.527   5.284
12379TIP3    H237071   3.619   6.539   5.158
12380TIP3   OH237072   4.769   6.115   6.114
12380TIP3    H137073   4.848   6.154   6.152
12380TIP3    H237074   4.755   6.036   6.166
12381TIP3   OH237075   4.653   5.854   5.297
12381TIP3    H137076   4.632   5.871   5.205
12381TIP3    H237077   4.696   5.934   5.326
12382TIP3   OH237078   4.140   6.978   4.965
12382TIP3    H137079   4.055   7.002   5.001
12382TIP3    H237080   4.161   7.049   4.904
12383TIP3   OH237081   4.309   6.053   5.386
12383TIP3    H137082   4.371   6.121   5.360
12383TIP3    H237083   4.330   6.035   5.477
12384TIP3   OH237084   4.604   6.347   6.163
12384TIP3    H137085   4.626   6.387   6.247
12384TIP3    H237086   4.653   6.265   6.163
12385TIP3   OH237087   4.467   5.754   5.476
12385TIP3    H137088   4.444   5.832   5.527
12385TIP3    H237089   4.535   5.784   5.416
12386TIP3   OH237090   3.888   7.063   5.038
12386TIP3    H137091   3.867   7.134   4.977
12386TIP3    H237092   3.876   7.101   5.124
12387TIP3   OH237093   3.981   5.774   5.279
12387TIP3    H137094   3.970   5.864   5.309
12387TIP3    H237095   4.075   5.758   5.285
12388TIP3   OH237096   5.229   6.264   6.152
12388TIP3    H137097   5.136   6.271   6.174
12388TIP3    H237098   5.231   6.206   6.075
12389TIP3   OH237099   4.885   6.446   5.540
12389TIP3    H137100   4.808   6.389   5.548
12389TIP3    H237101   4.952   6.403   5.593
12390TIP3   OH237102   3.620   6.660   5.016
12390TIP3    H137103   3.690   6.724   5.025
12390TIP3    H237104   3.653   6.597   4.953
12391TIP3   OH237105   3.533   5.951   5.150
12391TIP3    H137106   3.544   6.046   5.158
12391TIP3    H237107   3.465   5.940   5.084
12392TIP3   OH237108   3.934   5.672   6.017
12392TIP3    H137109   3.903   5.639   5.933
12392TIP3    H237110   3.924   5.598   6.078
12393TIP3   OH237111   3.453   6.924   5.410
12393TIP3    H137112   3.406   6.959   5.486
12393TIP3    H237113   3.411   6.966   5.335
12394TIP3   OH237114   3.644   7.448   6.464
12394TIP3    H137115   3.726   7.445   6.514
12394TIP3    H237116   3.607   7.361   6.473
12395TIP3   OH237117   4.113   7.380   6.527
12395TIP3    H137118   4.207   7.364   6.534
12395TIP3    H237119   4.084   7.322   6.457
12396TIP3   OH237120   4.082   6.973   4.642
12396TIP3    H137121   4.034   6.902   4.685
12396TIP3    H237122   4.156   6.931   4.600
12397TIP3   OH237123   4.746   7.315   6.263
12397TIP3    H137124   4.757   7.243   6.326
12397TIP3    H237125   4.821   7.372   6.277
12398TIP3   OH237126   4.521   7.012   4.565
12398TIP3    H137127   4.558   6.950   4.627
12398TIP3    H237128   4.582   7.011   4.491
12399TIP3   OH237129   3.760   6.859   6.666
12399TIP3    H137130   3.776   6.765   6.676
12399TIP3    H237131   3.672   6.865   6.628
12400TIP3   OH237132   3.748   6.470   4.868
12400TIP3    H137133   3.799   6.446   4.945
12400TIP3    H237134   3.813   6.482   4.799
12401TIP3   OH237135   4.381   6.939   6.441
12401TIP3    H137136   4.329   6.960   6.363
12401TIP3    H237137   4.406   6.848   6.430
12402TIP3   OH237138   4.311   6.692   4.699
12402TIP3    H137139   4.290   6.703   4.792
12402TIP3    H237140   4.296   6.599   4.682
12403TIP3   OH237141   4.860   6.982   6.074
12403TIP3    H137142   4.929   7.015   6.017
12403TIP3    H237143   4.785   7.039   6.055
12404TIP3   OH237144   3.875   6.604   6.675
12404TIP3    H137145   3.953   6.578   6.626
12404TIP3    H237146   3.908   6.625   6.763
12405TIP3   OH237147   3.923   6.409   5.080
12405TIP3    H137148   3.901   6.377   5.167
12405TIP3    H237149   3.970   6.336   5.039
12406TIP3   OH237150   4.235   6.493   6.335
12406TIP3    H137151   4.147   6.530   6.343
12406TIP3    H237152   4.265   6.519   6.248
12407TIP3   OH237153   4.061   6.222   4.924
12407TIP3    H137154   4.031   6.226   4.833
12407TIP3    H237155   4.156   6.228   4.918
12408TIP3   OH237156   4.753   6.856   6.437
12408TIP3    H137157   4.797   6.803   6.370
12408TIP3    H237158   4.740   6.797   6.511
12409TIP3   OH237159   4.860   6.515   4.603
12409TIP3    H137160   4.847   6.472   4.518
12409TIP3    H237161   4.834   6.606   4.587
12410TIP3   OH237162   4.341   6.261   6.438
12410TIP3    H137163   4.340   6.189   6.375
12410TIP3    H237164   4.303   6.335   6.391
12411TIP3   OH237165   4.345   6.058   6.238
12411TIP3    H137166   4.370   6.094   6.153
12411TIP3    H237167   4.254   6.031   6.228
12412TIP3   OH237168   4.353   6.582   6.107
12412TIP3    H137169   4.442   6.606   6.082
12412TIP3    H237170   4.297   6.645   6.061
12413TIP3   OH237171   4.948   6.531   6.483
12413TIP3    H137172   4.968   6.439   6.501
12413TIP3    H237173   5.029   6.566   6.446
12414TIP3   OH237174   4.987   6.806   6.232
12414TIP3    H137175   4.931   6.869   6.186
12414TIP3    H237176   5.073   6.817   6.193
12415TIP3   OH237177   4.224   6.343   6.682
12415TIP3    H137178   4.153   6.281   6.703
12415TIP3    H237179   4.251   6.319   6.594
12416TIP3   OH237180   4.467   5.825   6.336
12416TIP3    H137181   4.425   5.905   6.305
12416TIP3    H237182   4.401   5.756   6.325
12417TIP3   OH237183   4.594   6.301   6.542
12417TIP3    H137184   4.582   6.288   6.637
12417TIP3    H237185   4.508   6.280   6.505
12418TIP3   OH237186   4.839   6.257   6.414
12418TIP3    H137187   4.760   6.254   6.467
12418TIP3    H237188   4.907   6.221   6.471
12419TIP3   OH237189   5.085   6.217   6.549
12419TIP3    H137190   5.099   6.122   6.558
12419TIP3    H237191   5.076   6.248   6.639
12420TIP3   OH237192   4.055   6.126   6.745
12420TIP3    H137193   4.056   6.037   6.710
12420TIP3    H237194   4.091   6.118   6.833
12421TIP3   OH237195   4.539   5.805   6.602
12421TIP3    H137196   4.606   5.737   6.594
12421TIP3    H237197   4.505   5.816   6.513
12422TIP3   OH237198   4.629   6.020   6.748
12422TIP3    H137199   4.599   5.948   6.693
12422TIP3    H237200   4.556   6.082   6.749
12423TIP3   OH237201   3.882   7.272   4.854
12423TIP3    H137202   3.971   7.252   4.826
12423TIP3    H237203   3.843   7.317   4.780
12424TIP3   OH237204   3.346   6.651   5.037
12424TIP3    H137205   3.441   6.664   5.033
12424TIP3    H237206   3.332   6.565   4.999
12425TIP3   OH237207   3.253   7.240   5.495
12425TIP3    H137208   3.188   7.186   5.449
12425TIP3    H237209   3.297   7.179   5.555
12426TIP3   OH237210   3.398   7.075   5.664
12426TIP3    H137211   3.388   7.007   5.730
12426TIP3    H237212   3.448   7.143   5.707
12427TIP3   OH237213   5.077   7.599   5.423
12427TIP3    H137214   5.096   7.577   5.514
12427TIP3    H237215   5.152   7.564   5.374
12428TIP3   OH237216   5.119   7.518   5.687
12428TIP3    H137217   5.087   7.430   5.708
12428TIP3    H237218   5.210   7.518   5.718
12429TIP3   OH237219   5.212   7.150   6.348
12429TIP3    H137220   5.134   7.187   6.389
12429TIP3    H237221   5.267   7.226   6.329
12430TIP3   OH237222   5.011   6.718   4.938
12430TIP3    H137223   5.071   6.782   4.901
12430TIP3    H237224   5.059   6.679   5.011
12431TIP3   OH237225   5.142   6.578   5.137
12431TIP3    H137226   5.072   6.536   5.188
12431TIP3    H237227   5.203   6.610   5.204
12432TIP3   OH237228   5.207   6.974   5.575
12432TIP3    H137229   5.262   6.909   5.531
12432TIP3    H237230   5.212   7.052   5.518
12433TIP3   OH237231   5.012   7.269   5.750
12433TIP3    H137232   4.946   7.309   5.806
12433TIP3    H237233   4.962   7.224   5.682
12434TIP3   OH237234   5.067   6.497   4.782
12434TIP3    H137235   4.998   6.493   4.716
12434TIP3    H237236   5.045   6.573   4.835
12435TIP3   OH237237   4.916   6.150   4.725
12435TIP3    H137238   4.875   6.185   4.646
12435TIP3    H237239   4.906   6.055   4.717
12436TIP3   OH237240   4.943   6.437   5.268
12436TIP3    H137241   4.949   6.342   5.252
12436TIP3    H237242   4.927   6.444   5.362
12437TIP3   OH237243   3.572   6.506   6.039
12437TIP3    H137244   3.562   6.472   5.950
12437TIP3    H237245   3.666   6.504   6.055
12438TIP3   OH237246   5.310   6.878   6.206
12438TIP3    H137247   5.343   6.829   6.131
12438TIP3    H237248   5.306   6.969   6.176
12439TIP3   OH237249   4.879   5.881   4.701
12439TIP3    H137250   4.946   5.848   4.760
12439TIP3    H237251   4.799   5.835   4.727
12440TIP3   OH237252   4.948   6.165   5.157
12440TIP3    H137253   4.992   6.081   5.171
12440TIP3    H237254   4.990   6.202   5.079
12441TIP3   OH237255   5.100   6.324   5.677
12441TIP3    H137256   5.180   6.344   5.630
12441TIP3    H237257   5.113   6.363   5.764
12442TIP3   OH237258   5.169   6.478   5.903
12442TIP3    H137259   5.091   6.509   5.950
12442TIP3    H237260   5.198   6.555   5.853
12443TIP3   OH237261   3.788   6.180   6.694
12443TIP3    H137262   3.883   6.177   6.709
12443TIP3    H237263   3.756   6.099   6.734
12444TIP3   OH237264   5.623   6.079   6.442
12444TIP3    H137265   5.690   6.019   6.408
12444TIP3    H237266   5.592   6.127   6.366
12445TIP3   OH237267   5.059   5.915   5.214
12445TIP3    H137268   5.104   5.897   5.297
12445TIP3    H237269   4.997   5.843   5.204
12446TIP3   OH237270   3.767   5.895   6.027
12446TIP3    H137271   3.821   5.816   6.037
12446TIP3    H237272   3.831   5.965   6.014
12447TIP3   OH237273   3.548   6.156   6.097
12447TIP3    H137274   3.600   6.149   6.017
12447TIP3    H237275   3.573   6.240   6.135
12448TIP3   OH237276   5.478   6.189   6.238
12448TIP3    H137277   5.392   6.231   6.234
12448TIP3    H237278   5.466   6.105   6.193
12449TIP3   OH237279   5.115   5.825   4.847
12449TIP3    H137280   5.158   5.763   4.788
12449TIP3    H237281   5.173   5.902   4.846
12450TIP3   OH237282   3.536   5.671   5.604
12450TIP3    H137283   3.449   5.657   5.641
12450TIP3    H237284   3.520   5.724   5.526
12451TIP3   OH237285   4.723   7.400   5.128
12451TIP3    H137286   4.741   7.366   5.041
12451TIP3    H237287   4.797   7.458   5.147
12452TIP3   OH237288   3.762   5.728   6.407
12452TIP3    H137289   3.715   5.723   6.491
12452TIP3    H237290   3.703   5.777   6.349
12453TIP3   OH237291   3.792   7.166   6.500
12453TIP3    H137292   3.698   7.161   6.487
12453TIP3    H237293   3.804   7.159   6.594
12454TIP3   OH237294   3.996   7.226   6.049
12454TIP3    H137295   3.941   7.297   6.017
12454TIP3    H237296   4.080   7.237   6.004
12455TIP3   OH237297   4.400   7.456   6.173
12455TIP3    H137298   4.437   7.448   6.261
12455TIP3    H237299   4.463   7.511   6.126
12456TIP3   OH237300   4.593   7.611   6.051
12456TIP3    H137301   4.658   7.554   6.009
12456TIP3    H237302   4.645   7.671   6.104
12457TIP3   OH237303   5.394   5.942   6.141
12457TIP3    H137304   5.307   5.938   6.101
12457TIP3    H237305   5.428   5.853   6.135
12458TIP3   OH237306   3.659   7.479   6.082
12458TIP3    H137307   3.567   7.492   6.058
12458TIP3    H237308   3.674   7.541   6.153
12459TIP3   OH237309   3.890   7.457   5.938
12459TIP3    H137310   3.808   7.464   5.987
12459TIP3    H237311   3.866   7.480   5.848
12460TIP3   OH237312   4.303   7.473   5.730
12460TIP3    H137313   4.229   7.486   5.670
12460TIP3    H237314   4.313   7.558   5.774
12461TIP3   OH237315   4.568   7.411   5.780
12461TIP3    H137316   4.475   7.427   5.762
12461TIP3    H237317   4.614   7.482   5.735
12462TIP3   OH237318   4.767   7.583   5.672
12462TIP3    H137319   4.760   7.669   5.631
12462TIP3    H237320   4.802   7.526   5.604
12463TIP3   OH237321   3.574   7.252   5.805
12463TIP3    H137322   3.592   7.224   5.895
12463TIP3    H237323   3.646   7.215   5.754
12464TIP3   OH237324   3.775   7.133   5.668
12464TIP3    H137325   3.785   7.049   5.714
12464TIP3    H237326   3.862   7.173   5.671
12465TIP3   OH237327   4.043   7.222   5.689
12465TIP3    H137328   4.061   7.130   5.674
12465TIP3    H237329   4.092   7.244   5.768
12466TIP3   OH237330   4.606   5.873   5.782
12466TIP3    H137331   4.565   5.800   5.829
12466TIP3    H237332   4.673   5.831   5.727
12467TIP3   OH237333   5.106   5.786   5.676
12467TIP3    H137334   5.142   5.832   5.600
12467TIP3    H237335   5.012   5.800   5.670
12468TIP3   OH237336   5.220   5.854   5.434
12468TIP3    H137337   5.289   5.796   5.403
12468TIP3    H237338   5.256   5.942   5.424
12469TIP3   OH237339   3.843   5.570   5.777
12469TIP3    H137340   3.754   5.537   5.786
12469TIP3    H237341   3.897   5.491   5.769
12470TIP3   OH237342   3.657   5.475   5.431
12470TIP3    H137343   3.683   5.526   5.354
12470TIP3    H237344   3.623   5.541   5.492
12471TIP3   OH237345   4.318   5.610   5.671
12471TIP3    H137346   4.366   5.657   5.603
12471TIP3    H237347   4.358   5.639   5.753
12472TIP3   OH237348   4.822   5.760   5.647
12472TIP3    H137349   4.825   5.726   5.557
12472TIP3    H237350   4.824   5.681   5.701
12473TIP3   OH237351   4.877   5.703   5.215
12473TIP3    H137352   4.795   5.748   5.235
12473TIP3    H237353   4.866   5.616   5.253
12474TIP3   OH237354   3.338   7.045   5.192
12474TIP3    H137355   3.253   7.012   5.162
12474TIP3    H237356   3.341   7.136   5.160
12475TIP3   OH237357   3.768   5.607   5.193
12475TIP3    H137358   3.813   5.545   5.137
12475TIP3    H237359   3.838   5.663   5.229
12476TIP3   OH237360   4.256   5.802   5.289
12476TIP3    H137361   4.314   5.748   5.343
12476TIP3    H237362   4.273   5.892   5.317
12477TIP3   OH237363   4.139   7.198   4.786
12477TIP3    H137364   4.222   7.225   4.748
12477TIP3    H237365   4.109   7.127   4.729
12478TIP3   OH237366   4.816   7.321   4.884
12478TIP3    H137367   4.817   7.227   4.871
12478TIP3    H237368   4.791   7.357   4.799
12479TIP3   OH237369   4.063   5.853   6.660
12479TIP3    H137370   4.025   5.786   6.716
12479TIP3    H237371   4.154   5.860   6.689
12480TIP3   OH237372   4.312   5.859   6.785
12480TIP3    H137373   4.390   5.832   6.736
12480TIP3    H237374   4.299   5.789   6.849
12481TIP3   OH237375   3.442   7.042   4.842
12481TIP3    H137376   3.442   7.052   4.938
12481TIP3    H237377   3.524   6.996   4.823
12482TIP3   OH237378   5.141   5.943   6.570
12482TIP3    H137379   5.158   5.912   6.659
12482TIP3    H237380   5.226   5.940   6.527
12483TIP3   OH237381   5.072   7.482   6.053
12483TIP3    H137382   4.994   7.450   6.007
12483TIP3    H237383   5.056   7.576   6.065
12484TIP3   OH237384   6.336   6.870   4.819
12484TIP3    H137385   6.307   6.956   4.790
12484TIP3    H237386   6.267   6.810   4.791
12485TIP3   OH237387   6.329   6.850   5.223
12485TIP3    H137388   6.381   6.831   5.301
12485TIP3    H237389   6.282   6.768   5.205
12486TIP3   OH237390   6.608   7.158   4.911
12486TIP3    H137391   6.590   7.092   4.978
12486TIP3    H237392   6.627   7.238   4.960
12487TIP3   OH237393   5.303   6.357   5.062
12487TIP3    H137394   5.257   6.438   5.083
12487TIP3    H237395   5.238   6.303   5.017
12488TIP3   OH237396   5.378   6.647   5.272
12488TIP3    H137397   5.425   6.570   5.303
12488TIP3    H237398   5.422   6.672   5.191
12489TIP3   OH237399   6.250   7.604   4.918
12489TIP3    H137400   6.279   7.538   4.855
12489TIP3    H237401   6.255   7.559   5.003
12490TIP3   OH237402   6.158   7.071   5.239
12490TIP3    H137403   6.198   6.988   5.211
12490TIP3    H237404   6.232   7.128   5.258
12491TIP3   OH237405   7.164   6.399   5.256
12491TIP3    H137406   7.186   6.482   5.299
12491TIP3    H237407   7.193   6.410   5.166
12492TIP3   OH237408   6.552   6.565   5.278
12492TIP3    H137409   6.588   6.479   5.302
12492TIP3    H237410   6.513   6.551   5.192
12493TIP3   OH237411   5.902   6.239   5.249
12493TIP3    H137412   5.881   6.312   5.191
12493TIP3    H237413   5.848   6.167   5.218
12494TIP3   OH237414   6.597   6.332   4.869
12494TIP3    H137415   6.664   6.324   4.937
12494TIP3    H237416   6.644   6.365   4.792
12495TIP3   OH237417   5.524   6.437   5.370
12495TIP3    H137418   5.608   6.424   5.413
12495TIP3    H237419   5.530   6.386   5.289
12496TIP3   OH237420   5.931   6.660   5.174
12496TIP3    H137421   6.024   6.642   5.191
12496TIP3    H237422   5.895   6.575   5.147
12497TIP3   OH237423   7.232   6.614   5.424
12497TIP3    H137424   7.144   6.652   5.418
12497TIP3    H237425   7.270   6.653   5.503
12498TIP3   OH237426   5.884   6.231   5.698
12498TIP3    H137427   5.835   6.282   5.634
12498TIP3    H237428   5.833   6.236   5.778
12499TIP3   OH237429   6.238   7.087   4.677
12499TIP3    H137430   6.196   7.058   4.596
12499TIP3    H237431   6.184   7.159   4.709
12500TIP3   OH237432   6.033   7.073   5.484
12500TIP3    H137433   6.096   7.057   5.555
12500TIP3    H237434   6.087   7.078   5.405
12501TIP3   OH237435   6.766   6.348   5.082
12501TIP3    H137436   6.735   6.316   5.167
12501TIP3    H237437   6.822   6.423   5.104
12502TIP3   OH237438   5.769   6.358   5.476
12502TIP3    H137439   5.812   6.439   5.502
12502TIP3    H237440   5.825   6.322   5.407
12503TIP3   OH237441   5.749   7.171   5.504
12503TIP3    H137442   5.756   7.265   5.486
12503TIP3    H237443   5.692   7.166   5.581
12504TIP3   OH237444   5.187   6.886   4.811
12504TIP3    H137445   5.155   6.901   4.721
12504TIP3    H237446   5.206   6.974   4.844
12505TIP3   OH237447   6.644   7.403   5.053
12505TIP3    H137448   6.557   7.392   5.090
12505TIP3    H237449   6.638   7.485   5.003
12506TIP3   OH237450   6.940   6.329   5.424
12506TIP3    H137451   6.856   6.329   5.379
12506TIP3    H237452   7.004   6.343   5.355
12507TIP3   OH237453   6.220   5.930   5.413
12507TIP3    H137454   6.209   5.837   5.435
12507TIP3    H237455   6.144   5.972   5.453
12508TIP3   OH237456   6.343   7.446   4.709
12508TIP3    H137457   6.396   7.367   4.700
12508TIP3    H237458   6.401   7.518   4.684
12509TIP3   OH237459   6.490   7.222   4.668
12509TIP3    H137460   6.423   7.155   4.655
12509TIP3    H237461   6.540   7.193   4.744
12510TIP3   OH237462   6.854   7.300   5.396
12510TIP3    H137463   6.842   7.227   5.336
12510TIP3    H237464   6.838   7.378   5.342
12511TIP3   OH237465   6.164   6.710   4.669
12511TIP3    H137466   6.081   6.753   4.650
12511TIP3    H237467   6.208   6.704   4.584
12512TIP3   OH237468   6.131   6.507   4.364
12512TIP3    H137469   6.198   6.557   4.411
12512TIP3    H237470   6.181   6.442   4.314
12513TIP3   OH237471   7.054   6.953   5.251
12513TIP3    H137472   6.970   6.999   5.254
12513TIP3    H237473   7.086   6.967   5.162
12514TIP3   OH237474   6.518   6.797   4.628
12514TIP3    H137475   6.465   6.825   4.703
12514TIP3    H237476   6.602   6.770   4.667
12515TIP3   OH237477   6.744   6.801   5.530
12515TIP3    H137478   6.749   6.885   5.576
12515TIP3    H237479   6.659   6.802   5.487
12516TIP3   OH237480   5.746   6.790   5.011
12516TIP3    H137481   5.706   6.723   4.957
12516TIP3    H237482   5.810   6.744   5.065
12517TIP3   OH237483   5.878   7.110   5.223
12517TIP3    H137484   5.832   7.130   5.142
12517TIP3    H237485   5.970   7.104   5.197
12518TIP3   OH237486   5.849   6.846   5.381
12518TIP3    H137487   5.864   6.799   5.299
12518TIP3    H237488   5.862   6.781   5.449
12519TIP3   OH237489   6.406   7.392   5.179
12519TIP3    H137490   6.384   7.474   5.224
12519TIP3    H237491   6.394   7.324   5.245
12520TIP3   OH237492   6.010   7.299   5.717
12520TIP3    H137493   5.948   7.356   5.762
12520TIP3    H237494   5.957   7.249   5.656
12521TIP3   OH237495   6.351   6.655   4.462
12521TIP3    H137496   6.410   6.712   4.511
12521TIP3    H237497   6.378   6.664   4.371
12522TIP3   OH237498   5.761   6.901   5.882
12522TIP3    H137499   5.754   6.990   5.915
12522TIP3    H237500   5.671   6.870   5.877
12523TIP3   OH237501   6.096   7.321   4.734
12523TIP3    H137502   6.176   7.374   4.730
12523TIP3    H237503   6.035   7.365   4.675
12524TIP3   OH237504   5.809   7.462   5.810
12524TIP3    H137505   5.779   7.471   5.719
12524TIP3    H237506   5.730   7.440   5.859
12525TIP3   OH237507   6.861   5.883   4.523
12525TIP3    H137508   6.784   5.905   4.576
12525TIP3    H237509   6.874   5.959   4.466
12526TIP3   OH237510   5.616   6.613   4.832
12526TIP3    H137511   5.541   6.661   4.796
12526TIP3    H237512   5.586   6.523   4.838
12527TIP3   OH237513   6.676   7.254   4.068
12527TIP3    H137514   6.676   7.348   4.050
12527TIP3    H237515   6.763   7.225   4.043
12528TIP3   OH237516   5.402   7.013   5.778
12528TIP3    H137517   5.331   6.998   5.715
12528TIP3    H237518   5.430   6.925   5.804
12529TIP3   OH237519   5.276   7.206   5.430
12529TIP3    H137520   5.349   7.207   5.368
12529TIP3    H237521   5.296   7.278   5.491
12530TIP3   OH237522   6.200   7.454   5.589
12530TIP3    H137523   6.197   7.545   5.619
12530TIP3    H237524   6.133   7.409   5.640
12531TIP3   OH237525   5.989   7.560   4.539
12531TIP3    H137526   5.937   7.536   4.463
12531TIP3    H237527   5.950   7.642   4.570
12532TIP3   OH237528   5.408   7.407   4.895
12532TIP3    H137529   5.356   7.368   4.965
12532TIP3    H237530   5.359   7.388   4.815
12533TIP3   OH237531   6.193   7.482   4.172
12533TIP3    H137532   6.241   7.408   4.134
12533TIP3    H237533   6.224   7.486   4.262
12534TIP3   OH237534   6.240   7.512   4.446
12534TIP3    H137535   6.152   7.523   4.481
12534TIP3    H237536   6.290   7.473   4.518
12535TIP3   OH237537   7.020   6.770   5.715
12535TIP3    H137538   6.935   6.804   5.687
12535TIP3    H237539   7.020   6.679   5.684
12536TIP3   OH237540   5.597   7.201   5.733
12536TIP3    H137541   5.650   7.190   5.811
12536TIP3    H237542   5.524   7.141   5.745
12537TIP3   OH237543   5.985   6.020   5.545
12537TIP3    H137544   5.900   5.988   5.514
12537TIP3    H237545   5.964   6.101   5.591
12538TIP3   OH237546   6.527   6.156   5.780
12538TIP3    H137547   6.559   6.074   5.744
12538TIP3    H237548   6.433   6.141   5.795
12539TIP3   OH237549   6.738   6.586   5.702
12539TIP3    H137550   6.675   6.624   5.763
12539TIP3    H237551   6.742   6.649   5.630
12540TIP3   OH237552   6.435   6.662   4.204
12540TIP3    H137553   6.386   6.655   4.122
12540TIP3    H237554   6.518   6.703   4.179
12541TIP3   OH237555   6.144   6.052   4.513
12541TIP3    H137556   6.104   6.062   4.600
12541TIP3    H237557   6.103   5.974   4.476
12542TIP3   OH237558   5.806   6.429   5.077
12542TIP3    H137559   5.716   6.404   5.099
12542TIP3    H237560   5.818   6.397   4.988
12543TIP3   OH237561   6.290   6.504   4.803
12543TIP3    H137562   6.242   6.576   4.762
12543TIP3    H237563   6.347   6.471   4.733
12544TIP3   OH237564   6.533   6.723   5.843
12544TIP3    H137565   6.489   6.679   5.916
12544TIP3    H237566   6.511   6.815   5.853
12545TIP3   OH237567   6.460   6.520   5.024
12545TIP3    H137568   6.391   6.544   4.962
12545TIP3    H237569   6.504   6.446   4.983
12546TIP3   OH237570   5.810   6.043   4.491
12546TIP3    H137571   5.796   6.042   4.586
12546TIP3    H237572   5.730   6.083   4.456
12547TIP3   OH237573   5.348   6.081   5.367
12547TIP3    H137574   5.425   6.119   5.409
12547TIP3    H237575   5.376   6.063   5.278
12548TIP3   OH237576   5.269   6.060   4.863
12548TIP3    H137577   5.316   6.093   4.787
12548TIP3    H237578   5.203   6.127   4.882
12549TIP3   OH237579   6.477   6.765   5.442
12549TIP3    H137580   6.509   6.700   5.379
12549TIP3    H237581   6.441   6.713   5.513
12550TIP3   OH237582   6.170   6.224   5.133
12550TIP3    H137583   6.090   6.226   5.186
12550TIP3    H237584   6.241   6.217   5.196
12551TIP3   OH237585   5.566   6.305   5.135
12551TIP3    H137586   5.477   6.308   5.098
12551TIP3    H237587   5.597   6.216   5.117
12552TIP3   OH237588   5.824   6.308   4.830
12552TIP3    H137589   5.919   6.317   4.816
12552TIP3    H237590   5.785   6.325   4.744
12553TIP3   OH237591   6.628   6.307   5.347
12553TIP3    H137592   6.605   6.325   5.438
12553TIP3    H237593   6.560   6.247   5.316
12554TIP3   OH237594   5.702   6.334   4.586
12554TIP3    H137595   5.639   6.280   4.537
12554TIP3    H237596   5.756   6.376   4.519
12555TIP3   OH237597   5.746   7.166   5.978
12555TIP3    H137598   5.825   7.164   6.033
12555TIP3    H237599   5.705   7.250   5.998
12556TIP3   OH237600   6.208   6.591   5.231
12556TIP3    H137601   6.264   6.532   5.180
12556TIP3    H237602   6.199   6.548   5.316
12557TIP3   OH237603   5.717   6.064   5.118
12557TIP3    H137604   5.683   5.990   5.168
12557TIP3    H237605   5.739   6.027   5.033
12558TIP3   OH237606   6.186   6.484   5.488
12558TIP3    H137607   6.101   6.523   5.510
12558TIP3    H237608   6.249   6.531   5.543
12559TIP3   OH237609   5.927   6.847   4.615
12559TIP3    H137610   5.853   6.790   4.593
12559TIP3    H237611   5.899   6.892   4.694
12560TIP3   OH237612   6.812   7.088   5.223
12560TIP3    H137613   6.848   7.135   5.148
12560TIP3    H237614   6.732   7.046   5.190
12561TIP3   OH237615   6.394   6.158   4.517
12561TIP3    H137616   6.302   6.135   4.511
12561TIP3    H237617   6.395   6.253   4.525
12562TIP3   OH237618   6.312   7.188   5.614
12562TIP3    H137619   6.371   7.179   5.689
12562TIP3    H237620   6.282   7.279   5.618
12563TIP3   OH237621   6.451   6.425   4.585
12563TIP3    H137622   6.546   6.429   4.591
12563TIP3    H237623   6.426   6.500   4.532
12564TIP3   OH237624   6.078   7.010   4.458
12564TIP3    H137625   6.031   7.094   4.456
12564TIP3    H237626   6.022   6.952   4.508
12565TIP3   OH237627   5.494   6.771   5.895
12565TIP3    H137628   5.544   6.696   5.927
12565TIP3    H237629   5.415   6.732   5.857
12566TIP3   OH237630   6.216   6.906   5.898
12566TIP3    H137631   6.138   6.851   5.904
12566TIP3    H237632   6.237   6.907   5.805
12567TIP3   OH237633   6.468   7.452   5.505
12567TIP3    H137634   6.373   7.453   5.513
12567TIP3    H237635   6.499   7.495   5.585
12568TIP3   OH237636   6.872   6.512   4.405
12568TIP3    H137637   6.816   6.465   4.343
12568TIP3    H237638   6.877   6.601   4.371
12569TIP3   OH237639   7.107   7.330   5.494
12569TIP3    H137640   7.015   7.332   5.470
12569TIP3    H237641   7.153   7.318   5.411
12570TIP3   OH237642   6.615   7.305   4.337
12570TIP3    H137643   6.580   7.234   4.392
12570TIP3    H237644   6.623   7.266   4.250
12571TIP3   OH237645   6.585   6.958   5.118
12571TIP3    H137646   6.493   6.937   5.135
12571TIP3    H237647   6.621   6.878   5.080
12572TIP3   OH237648   5.716   7.208   4.968
12572TIP3    H137649   5.720   7.281   4.906
12572TIP3    H237650   5.643   7.155   4.938
12573TIP3   OH237651   5.303   6.485   4.636
12573TIP3    H137652   5.345   6.570   4.654
12573TIP3    H237653   5.222   6.487   4.687
12574TIP3   OH237654   5.832   6.979   4.833
12574TIP3    H137655   5.827   7.063   4.877
12574TIP3    H237656   5.803   6.915   4.898
12575TIP3   OH237657   6.017   7.508   5.374
12575TIP3    H137658   6.047   7.586   5.328
12575TIP3    H237659   6.092   7.483   5.429
12576TIP3   OH237660   5.664   7.419   4.793
12576TIP3    H137661   5.574   7.427   4.823
12576TIP3    H237662   5.696   7.510   4.789
12577TIP3   OH237663   6.389   7.174   5.350
12577TIP3    H137664   6.367   7.174   5.443
12577TIP3    H237665   6.472   7.125   5.346
12578TIP3   OH237666   6.368   7.065   4.222
12578TIP3    H137667   6.414   7.039   4.302
12578TIP3    H237668   6.284   7.020   4.226
12579TIP3   OH237669   6.600   7.690   5.396
12579TIP3    H137670   6.531   7.624   5.394
12579TIP3    H237671   6.585   7.743   5.318
12580TIP3   OH237672   6.689   7.526   4.042
12580TIP3    H137673   6.722   7.587   3.976
12580TIP3    H237674   6.610   7.568   4.076
12581TIP3   OH237675   5.728   6.253   5.923
12581TIP3    H137676   5.638   6.281   5.935
12581TIP3    H237677   5.748   6.201   6.001
12582TIP3   OH237678   6.534   6.993   4.428
12582TIP3    H137679   6.516   6.933   4.501
12582TIP3    H237680   6.629   6.991   4.419
12583TIP3   OH237681   5.418   7.420   5.566
12583TIP3    H137682   5.481   7.368   5.616
12583TIP3    H237683   5.442   7.510   5.584
12584TIP3   OH237684   5.726   7.029   4.234
12584TIP3    H137685   5.734   6.937   4.207
12584TIP3    H237686   5.704   7.025   4.327
12585TIP3   OH237687   5.662   7.050   4.503
12585TIP3    H137688   5.726   7.021   4.569
12585TIP3    H237689   5.661   7.145   4.511
12586TIP3   OH237690   5.398   6.736   4.714
12586TIP3    H137691   5.329   6.779   4.764
12586TIP3    H237692   5.416   6.796   4.642
12587TIP3   OH237693   6.565   6.375   5.614
12587TIP3    H137694   6.640   6.421   5.652
12587TIP3    H237695   6.551   6.300   5.672
12588TIP3   OH237696   6.449   6.112   4.784
12588TIP3    H137697   6.428   6.128   4.692
12588TIP3    H237698   6.492   6.193   4.814
12589TIP3   OH237699   5.941   7.245   4.460
12589TIP3    H137700   5.853   7.264   4.492
12589TIP3    H237701   5.957   7.312   4.393
12590TIP3   OH237702   6.107   6.309   4.873
12590TIP3    H137703   6.168   6.378   4.848
12590TIP3    H237704   6.126   6.293   4.965
12591TIP3   OH237705   6.392   6.594   5.636
12591TIP3    H137706   6.427   6.635   5.715
12591TIP3    H237707   6.441   6.512   5.628
12592TIP3   OH237708   6.263   6.014   4.964
12592TIP3    H137709   6.240   6.092   5.013
12592TIP3    H237710   6.331   6.044   4.903
12593TIP3   OH237711   5.686   7.322   4.530
12593TIP3    H137712   5.661   7.391   4.470
12593TIP3    H237713   5.671   7.359   4.617
12594TIP3   OH237714   5.777   6.034   4.772
12594TIP3    H137715   5.768   6.126   4.798
12594TIP3    H237716   5.872   6.018   4.774
12595TIP3   OH237717   6.995   6.494   5.650
12595TIP3    H137718   6.902   6.513   5.665
12595TIP3    H237719   6.995   6.439   5.572
12596TIP3   OH237720   6.681   6.705   5.028
12596TIP3    H137721   6.605   6.648   5.036
12596TIP3    H237722   6.748   6.663   5.082
12597TIP3   OH237723   5.412   6.918   4.501
12597TIP3    H137724   5.477   6.988   4.507
12597TIP3    H237725   5.449   6.856   4.438
12598TIP3   OH237726   5.334   6.209   4.643
12598TIP3    H137727   5.339   6.305   4.645
12598TIP3    H237728   5.290   6.189   4.560
12599TIP3   OH237729   6.644   7.663   4.961
12599TIP3    H137730   6.596   7.722   4.902
12599TIP3    H237731   6.735   7.690   4.953
12600TIP3   OH237732   5.724   5.931   5.507
12600TIP3    H137733   5.691   5.905   5.421
12600TIP3    H237734   5.715   5.852   5.560
12601TIP3   OH237735   5.234   7.144   4.887
12601TIP3    H137736   5.209   7.203   4.959
12601TIP3    H237737   5.224   7.197   4.808
12602TIP3   OH237738   5.435   7.688   5.954
12602TIP3    H137739   5.515   7.688   6.006
12602TIP3    H237740   5.400   7.600   5.963
12603TIP3   OH237741   5.907   7.628   6.015
12603TIP3    H137742   6.003   7.634   6.011
12603TIP3    H237743   5.883   7.574   5.940
12604TIP3   OH237744   5.881   7.229   4.128
12604TIP3    H137745   5.831   7.159   4.170
12604TIP3    H237746   5.954   7.185   4.085
12605TIP3   OH237747   6.547   7.552   5.748
12605TIP3    H137748   6.539   7.491   5.820
12605TIP3    H237749   6.633   7.592   5.759
12606TIP3   OH237750   6.318   7.272   4.050
12606TIP3    H137751   6.351   7.206   4.111
12606TIP3    H237752   6.376   7.265   3.974
12607TIP3   OH237753   5.545   6.729   4.356
12607TIP3    H137754   5.597   6.705   4.433
12607TIP3    H237755   5.609   6.740   4.286
12608TIP3   OH237756   6.157   7.185   5.923
12608TIP3    H137757   6.116   7.208   5.840
12608TIP3    H237758   6.187   7.095   5.911
12609TIP3   OH237759   6.117   6.948   4.192
12609TIP3    H137760   6.092   6.960   4.283
12609TIP3    H237761   6.100   6.855   4.175
12610TIP3   OH237762   6.637   7.231   5.549
12610TIP3    H137763   6.715   7.259   5.501
12610TIP3    H237764   6.572   7.298   5.531
12611TIP3   OH237765   5.723   6.666   4.566
12611TIP3    H137766   5.698   6.630   4.652
12611TIP3    H237767   5.767   6.594   4.522
12612TIP3   OH237768   5.990   6.749   5.841
12612TIP3    H137769   5.914   6.803   5.863
12612TIP3    H237770   5.967   6.706   5.759
12613TIP3   OH237771   5.855   6.478   4.407
12613TIP3    H137772   5.825   6.480   4.317
12613TIP3    H237773   5.950   6.483   4.402
12614TIP3   OH237774   6.537   7.132   5.940
12614TIP3    H137775   6.632   7.127   5.929
12614TIP3    H237776   6.517   7.068   6.008
12615TIP3   OH237777   6.660   6.770   4.081
12615TIP3    H137778   6.643   6.728   3.997
12615TIP3    H237779   6.632   6.861   4.068
12616TIP3   OH237780   6.159   6.536   5.913
12616TIP3    H137781   6.152   6.461   5.854
12616TIP3    H237782   6.105   6.604   5.872
12617TIP3   OH237783   6.141   6.324   5.724
12617TIP3    H137784   6.160   6.361   5.638
12617TIP3    H237785   6.049   6.298   5.719
12618TIP3   OH237786   6.211   6.877   5.624
12618TIP3    H137787   6.273   6.863   5.552
12618TIP3    H237788   6.140   6.816   5.606
12619TIP3   OH237789   6.782   7.031   5.672
12619TIP3    H137790   6.723   7.098   5.635
12619TIP3    H237791   6.869   7.065   5.655
12620TIP3   OH237792   6.021   6.591   6.160
12620TIP3    H137793   5.953   6.524   6.170
12620TIP3    H237794   6.048   6.584   6.069
12621TIP3   OH237795   6.256   6.089   5.821
12621TIP3    H137796   6.215   6.169   5.788
12621TIP3    H237797   6.192   6.020   5.805
12622TIP3   OH237798   6.412   6.567   6.029
12622TIP3    H137799   6.390   6.546   6.120
12622TIP3    H237800   6.331   6.552   5.981
12623TIP3   OH237801   6.701   6.470   5.992
12623TIP3    H137802   6.628   6.527   6.015
12623TIP3    H237803   6.660   6.385   5.975
12624TIP3   OH237804   5.839   6.391   6.238
12624TIP3    H137805   5.839   6.308   6.190
12624TIP3    H237806   5.882   6.371   6.321
12625TIP3   OH237807   6.325   6.063   6.086
12625TIP3    H137808   6.402   6.006   6.084
12625TIP3    H237809   6.298   6.072   5.995
12626TIP3   OH237810   6.435   6.278   6.220
12626TIP3    H137811   6.391   6.210   6.168
12626TIP3    H237812   6.372   6.349   6.224
12627TIP3   OH237813   5.682   7.530   4.344
12627TIP3    H137814   5.769   7.508   4.311
12627TIP3    H237815   5.639   7.574   4.270
12628TIP3   OH237816   5.140   6.894   4.532
12628TIP3    H137817   5.233   6.914   4.520
12628TIP3    H237818   5.128   6.811   4.485
12629TIP3   OH237819   4.991   7.483   5.027
12629TIP3    H137820   4.940   7.435   4.961
12629TIP3    H237821   5.076   7.439   5.029
12630TIP3   OH237822   5.218   7.330   5.115
12630TIP3    H137823   5.173   7.267   5.171
12630TIP3    H237824   5.256   7.393   5.176
12631TIP3   OH237825   6.902   7.753   4.971
12631TIP3    H137826   6.919   7.753   5.065
12631TIP3    H237827   6.926   7.841   4.942
12632TIP3   OH237828   6.928   7.762   5.247
12632TIP3    H137829   6.886   7.676   5.252
12632TIP3    H237830   6.986   7.766   5.323
12633TIP3   OH237831   6.809   6.971   4.422
12633TIP3    H137832   6.869   7.038   4.388
12633TIP3    H237833   6.856   6.933   4.496
12634TIP3   OH237834   6.943   6.834   4.621
12634TIP3    H137835   6.877   6.794   4.677
12634TIP3    H237836   7.010   6.866   4.681
12635TIP3   OH237837   6.989   7.218   5.056
12635TIP3    H137838   7.045   7.150   5.018
12635TIP3    H237839   6.995   7.291   4.994
12636TIP3   OH237840   6.787   7.527   5.258
12636TIP3    H137841   6.719   7.571   5.309
12636TIP3    H237842   6.741   7.487   5.185
12637TIP3   OH237843   6.863   6.750   4.266
12637TIP3    H137844   6.794   6.748   4.199
12637TIP3    H237845   6.840   6.825   4.321
12638TIP3   OH237846   6.721   6.403   4.206
12638TIP3    H137847   6.675   6.443   4.132
12638TIP3    H237848   6.708   6.309   4.194
12639TIP3   OH237849   6.745   6.694   4.758
12639TIP3    H137850   6.749   6.600   4.743
12639TIP3    H237851   6.727   6.703   4.851
12640TIP3   OH237852   5.384   6.765   5.519
12640TIP3    H137853   5.365   6.725   5.434
12640TIP3    H237854   5.480   6.766   5.523
12641TIP3   OH237855   7.039   7.116   5.653
12641TIP3    H137856   7.116   7.058   5.647
12641TIP3    H237857   7.066   7.195   5.607
12642TIP3   OH237858   7.235   6.916   5.633
12642TIP3    H137859   7.158   6.870   5.665
12642TIP3    H237860   7.307   6.853   5.644
12643TIP3   OH237861   6.678   6.133   4.181
12643TIP3    H137862   6.741   6.105   4.247
12643TIP3    H237863   6.595   6.094   4.209
12644TIP3   OH237864   6.744   6.420   4.643
12644TIP3    H137865   6.789   6.336   4.657
12644TIP3    H237866   6.786   6.458   4.566
12645TIP3   OH237867   6.897   6.580   5.165
12645TIP3    H137868   6.977   6.600   5.116
12645TIP3    H237869   6.913   6.616   5.252
12646TIP3   OH237870   6.978   6.729   5.393
12646TIP3    H137871   6.896   6.755   5.435
12646TIP3    H237872   7.005   6.806   5.344
12647TIP3   OH237873   5.574   6.437   6.152
12647TIP3    H137874   5.667   6.442   6.175
12647TIP3    H237875   5.542   6.360   6.201
12648TIP3   OH237876   7.420   6.327   5.926
12648TIP3    H137877   7.477   6.263   5.884
12648TIP3    H237878   7.377   6.373   5.854
12649TIP3   OH237879   6.857   6.169   4.698
12649TIP3    H137880   6.901   6.154   4.782
12649TIP3    H237881   6.793   6.098   4.692
12650TIP3   OH237882   5.566   6.159   5.531
12650TIP3    H137883   5.619   6.079   5.533
12650TIP3    H237884   5.628   6.229   5.515
12651TIP3   OH237885   5.346   6.412   5.588
12651TIP3    H137886   5.390   6.407   5.503
12651TIP3    H237887   5.413   6.443   5.649
12652TIP3   OH237888   7.260   6.437   5.725
12652TIP3    H137889   7.171   6.471   5.712
12652TIP3    H237890   7.258   6.350   5.684
12653TIP3   OH237891   6.908   6.082   4.338
12653TIP3    H137892   6.953   6.022   4.278
12653TIP3    H237893   6.963   6.160   4.339
12654TIP3   OH237894   5.331   5.945   5.103
12654TIP3    H137895   5.242   5.926   5.134
12654TIP3    H237896   5.318   5.990   5.020
12655TIP3   OH237897   6.491   7.644   4.604
12655TIP3    H137898   6.524   7.608   4.522
12655TIP3    H237899   6.535   7.729   4.612
12656TIP3   OH237900   5.553   5.968   5.906
12656TIP3    H137901   5.502   5.967   5.987
12656TIP3    H237902   5.502   6.022   5.846
12657TIP3   OH237903   5.612   7.407   6.009
12657TIP3    H137904   5.517   7.405   6.003
12657TIP3    H237905   5.630   7.487   6.059
12658TIP3   OH237906   5.787   7.455   5.520
12658TIP3    H137907   5.738   7.532   5.491
12658TIP3    H237908   5.872   7.464   5.479
12659TIP3   OH237909   6.203   7.722   5.665
12659TIP3    H137910   6.240   7.714   5.753
12659TIP3    H237911   6.270   7.768   5.615
12660TIP3   OH237912   6.399   7.858   5.525
12660TIP3    H137913   6.467   7.800   5.489
12660TIP3    H237914   6.446   7.936   5.554
12661TIP3   OH237915   7.208   6.178   5.641
12661TIP3    H137916   7.118   6.153   5.620
12661TIP3    H237917   7.258   6.097   5.632
12662TIP3   OH237918   5.452   7.697   5.582
12662TIP3    H137919   5.365   7.729   5.559
12662TIP3    H237920   5.484   7.761   5.646
12663TIP3   OH237921   5.682   7.694   5.424
12663TIP3    H137922   5.600   7.702   5.471
12663TIP3    H237923   5.663   7.727   5.336
12664TIP3   OH237924   6.090   7.727   5.219
12664TIP3    H137925   6.020   7.746   5.156
12664TIP3    H237926   6.106   7.811   5.262
12665TIP3   OH237927   6.351   7.650   5.257
12665TIP3    H137928   6.260   7.676   5.241
12665TIP3    H237929   6.403   7.720   5.217
12666TIP3   OH237930   6.549   7.827   5.165
12666TIP3    H137931   6.551   7.917   5.132
12666TIP3    H237932   6.579   7.773   5.091
12667TIP3   OH237933   5.347   7.497   5.302
12667TIP3    H137934   5.366   7.482   5.395
12667TIP3    H237935   5.427   7.470   5.257
12668TIP3   OH237936   5.573   7.399   5.184
12668TIP3    H137937   5.580   7.338   5.111
12668TIP3    H237938   5.656   7.447   5.185
12669TIP3   OH237939   5.836   7.496   5.158
12669TIP3    H137940   5.873   7.427   5.102
12669TIP3    H237941   5.891   7.494   5.236
12670TIP3   OH237942   6.405   6.130   5.271
12670TIP3    H137943   6.357   6.059   5.313
12670TIP3    H237944   6.471   6.086   5.217
12671TIP3   OH237945   6.902   6.042   5.164
12671TIP3    H137946   6.937   6.087   5.087
12671TIP3    H237947   6.807   6.053   5.156
12672TIP3   OH237948   7.013   6.113   4.922
12672TIP3    H137949   7.083   6.054   4.893
12672TIP3    H237950   7.049   6.201   4.909
12673TIP3   OH237951   5.628   5.845   5.263
12673TIP3    H137952   5.540   5.809   5.265
12673TIP3    H237953   5.685   5.769   5.254
12674TIP3   OH237954   5.483   5.740   4.959
12674TIP3    H137955   5.498   5.773   4.871
12674TIP3    H237956   5.436   5.811   5.004
12675TIP3   OH237957   6.120   5.864   5.152
12675TIP3    H137958   6.163   5.915   5.083
12675TIP3    H237959   6.154   5.899   5.234
12676TIP3   OH237960   6.618   6.004   5.142
12676TIP3    H137961   6.624   5.962   5.057
12676TIP3    H237962   6.628   5.932   5.205
12677TIP3   OH237963   6.669   5.959   4.705
12677TIP3    H137964   6.589   6.007   4.727
12677TIP3    H237965   6.657   5.873   4.744
12678TIP3   OH237966   5.561   5.872   4.688
12678TIP3    H137967   5.605   5.809   4.631
12678TIP3    H237968   5.631   5.926   4.722
12679TIP3   OH237969   6.053   6.059   4.775
12679TIP3    H137970   6.111   6.006   4.829
12679TIP3    H237971   6.070   6.150   4.803
12680TIP3   OH237972   5.936   7.454   4.270
12680TIP3    H137973   6.019   7.483   4.232
12680TIP3    H237974   5.907   7.383   4.214
12681TIP3   OH237975   6.607   7.574   4.367
12681TIP3    H137976   6.608   7.478   4.357
12681TIP3    H237977   6.567   7.606   4.286
12682TIP3   OH237978   5.848   6.110   6.147
12682TIP3    H137979   5.817   6.042   6.207
12682TIP3    H237980   5.941   6.119   6.167
12683TIP3   OH237981   6.103   6.113   6.256
12683TIP3    H137982   6.182   6.094   6.205
12683TIP3    H237983   6.100   6.043   6.321
12684TIP3   OH237984   5.236   7.318   4.355
12684TIP3    H137985   5.229   7.334   4.449
12684TIP3    H237986   5.317   7.269   4.345
12685TIP3   OH237987   6.907   6.196   6.028
12685TIP3    H137988   6.919   6.167   6.118
12685TIP3    H237989   6.995   6.193   5.989
12686TIP3   OH237990   8.111   7.108   4.325
12686TIP3    H137991   8.080   7.191   4.287
12686TIP3    H237992   8.048   7.043   4.294
12687TIP3   OH237993   8.069   7.094   4.720
12687TIP3    H137994   8.161   7.073   4.741
12687TIP3    H237995   8.033   7.012   4.687
12688TIP3   OH237996   7.425   6.969   5.077
12688TIP3    H137997   7.460   6.917   5.148
12688TIP3    H237998   7.501   6.988   5.021
12689TIP3   OH237999   7.329   7.337   4.798
12689TIP3    H138000   7.330   7.241   4.792
12689TIP3    H238001   7.421   7.362   4.788
12690TIP3   OH238002   7.102   6.611   4.546
12690TIP3    H138003   7.062   6.694   4.568
12690TIP3    H238004   7.032   6.560   4.504
12691TIP3   OH238005   7.175   6.903   4.760
12691TIP3    H138006   7.220   6.823   4.787
12691TIP3    H238007   7.245   6.963   4.735
12692TIP3   OH238008   7.948   7.338   4.769
12692TIP3    H138009   7.960   7.254   4.725
12692TIP3    H238010   8.034   7.358   4.807
12693TIP3   OH238011   8.336   6.851   4.753
12693TIP3    H138012   8.361   6.767   4.790
12693TIP3    H238013   8.292   6.829   4.670
12694TIP3   OH238014   7.694   6.487   4.728
12694TIP3    H138015   7.674   6.558   4.668
12694TIP3    H238016   7.642   6.413   4.696
12695TIP3   OH238017   8.381   6.586   4.363
12695TIP3    H138018   8.447   6.570   4.431
12695TIP3    H238019   8.431   6.621   4.290
12696TIP3   OH238020   7.320   6.689   4.856
12696TIP3    H138021   7.404   6.673   4.899
12696TIP3    H238022   7.325   6.640   4.775
12697TIP3   OH238023   7.743   6.883   4.672
12697TIP3    H138024   7.837   6.863   4.675
12697TIP3    H238025   7.703   6.804   4.635
12698TIP3   OH238026   7.677   6.479   5.178
12698TIP3    H138027   7.625   6.514   5.106
12698TIP3    H238028   7.623   6.494   5.256
12699TIP3   OH238029   8.016   7.310   4.168
12699TIP3    H138030   7.982   7.291   4.081
12699TIP3    H238031   7.970   7.390   4.195
12700TIP3   OH238032   7.763   7.240   4.956
12700TIP3    H138033   7.701   7.312   4.962
12700TIP3    H238034   7.833   7.273   4.900
12701TIP3   OH238035   0.049   6.579   4.579
12701TIP3    H138036  -0.009   6.568   4.655
12701TIP3    H238037   0.120   6.635   4.610
12702TIP3   OH238038   7.565   6.590   4.950
12702TIP3    H138039   7.623   6.662   4.976
12702TIP3    H238040   7.611   6.548   4.877
12703TIP3   OH238041   6.977   7.149   4.288
12703TIP3    H138042   6.942   7.150   4.199
12703TIP3    H238043   6.990   7.241   4.310
12704TIP3   OH238044   8.017   6.173   4.894
12704TIP3    H138045   8.011   6.082   4.925
12704TIP3    H238046   7.943   6.217   4.936
12705TIP3   OH238047   8.281   7.452   4.186
12705TIP3    H138048   8.237   7.431   4.104
12705TIP3    H238049   8.280   7.370   4.235
12706TIP3   OH238050   7.957   6.953   4.150
12706TIP3    H138051   7.872   6.994   4.135
12706TIP3    H238052   8.001   6.956   4.065
12707TIP3   OH238053   7.932   6.758   3.844
12707TIP3    H138054   7.998   6.810   3.890
12707TIP3    H238055   7.981   6.689   3.801
12708TIP3   OH238056   8.294   7.035   4.134
12708TIP3    H138057   8.241   7.060   4.209
12708TIP3    H238058   8.375   7.001   4.172
12709TIP3   OH238059   7.543   7.013   4.524
12709TIP3    H138060   7.505   6.955   4.458
12709TIP3    H238061   7.615   6.962   4.562
12710TIP3   OH238062   7.605   7.379   4.727
12710TIP3    H138063   7.572   7.385   4.637
12710TIP3    H238064   7.698   7.362   4.717
12711TIP3   OH238065   7.637   7.005   4.896
12711TIP3    H138066   7.677   6.971   4.816
12711TIP3    H238067   7.686   7.085   4.915
12712TIP3   OH238068   8.143   6.918   3.937
12712TIP3    H138069   8.197   6.966   3.999
12712TIP3    H238070   8.167   6.952   3.851
12713TIP3   OH238071   7.554   7.109   5.348
12713TIP3    H138072   7.541   7.202   5.366
12713TIP3    H238073   7.466   7.072   5.350
12714TIP3   OH238074   7.903   7.568   4.212
12714TIP3    H138075   7.949   7.632   4.265
12714TIP3    H238076   7.941   7.576   4.124
12715TIP3   OH238077   0.138   6.109   4.003
12715TIP3    H138078   0.063   6.155   4.041
12715TIP3    H238079   0.188   6.178   3.958
12716TIP3   OH238080   7.414   6.867   4.322
12716TIP3    H138081   7.339   6.917   4.289
12716TIP3    H238082   7.380   6.778   4.335
12717TIP3   OH238083   7.202   7.261   5.242
12717TIP3    H138084   7.128   7.242   5.184
12717TIP3    H238085   7.233   7.175   5.271
12718TIP3   OH238086   7.077   7.464   4.925
12718TIP3    H138087   7.126   7.504   4.997
12718TIP3    H238088   6.996   7.515   4.919
12719TIP3   OH238089   7.714   7.770   4.084
12719TIP3    H138090   7.746   7.716   4.012
12719TIP3    H238091   7.783   7.835   4.098
12720TIP3   OH238092   7.123   7.665   4.397
12720TIP3    H138093   7.117   7.606   4.472
12720TIP3    H238094   7.087   7.614   4.324
12721TIP3   OH238095   7.374   7.469   5.199
12721TIP3    H138096   7.428   7.464   5.278
12721TIP3    H238097   7.315   7.394   5.205
12722TIP3   OH238098   7.785   6.268   5.030
12722TIP3    H138099   7.701   6.236   4.998
12722TIP3    H238100   7.763   6.348   5.078
12723TIP3   OH238101   8.302   6.395   5.216
12723TIP3    H138102   8.369   6.350   5.266
12723TIP3    H238103   8.220   6.374   5.260
12724TIP3   OH238104   8.218   6.984   3.676
12724TIP3    H138105   8.174   6.946   3.600
12724TIP3    H238106   8.311   6.967   3.662
12725TIP3   OH238107   7.926   6.319   3.999
12725TIP3    H138108   7.893   6.322   4.089
12725TIP3    H238109   7.896   6.235   3.965
12726TIP3   OH238110   7.730   6.792   5.045
12726TIP3    H138111   7.688   6.799   5.130
12726TIP3    H238112   7.702   6.870   4.997
12727TIP3   OH238113   7.597   6.681   4.559
12727TIP3    H138114   7.509   6.654   4.584
12727TIP3    H238115   7.609   6.646   4.470
12728TIP3   OH238116   8.079   6.750   4.283
12728TIP3    H138117   8.032   6.821   4.240
12728TIP3    H238118   8.140   6.718   4.216
12729TIP3   OH238119   8.230   6.769   4.512
12729TIP3    H138120   8.169   6.786   4.441
12729TIP3    H238121   8.284   6.696   4.480
12730TIP3   OH238122   7.554   6.801   5.263
12730TIP3    H138123   7.607   6.849   5.326
12730TIP3    H238124   7.535   6.717   5.306
12731TIP3   OH238125   7.598   6.294   3.973
12731TIP3    H138126   7.589   6.297   4.068
12731TIP3    H238127   7.520   6.339   3.940
12732TIP3   OH238128   7.144   6.335   4.844
12732TIP3    H138129   7.217   6.371   4.895
12732TIP3    H238130   7.182   6.315   4.759
12733TIP3   OH238131   7.062   6.315   4.348
12733TIP3    H138132   7.106   6.349   4.270
12733TIP3    H238133   6.999   6.383   4.371
12734TIP3   OH238134   7.962   6.475   4.612
12734TIP3    H138135   7.886   6.475   4.671
12734TIP3    H238136   8.037   6.458   4.669
12735TIP3   OH238137   7.362   6.555   4.622
12735TIP3    H138138   7.273   6.560   4.585
12735TIP3    H238139   7.390   6.465   4.603
12736TIP3   OH238140   7.615   6.557   4.315
12736TIP3    H138141   7.709   6.567   4.306
12736TIP3    H238142   7.580   6.576   4.228
12737TIP3   OH238143   8.372   6.574   4.792
12737TIP3    H138144   8.367   6.583   4.887
12737TIP3    H238145   8.308   6.506   4.771
12738TIP3   OH238146   7.500   6.587   4.069
12738TIP3    H138147   7.436   6.538   4.017
12738TIP3    H238148   7.556   6.629   4.003
12739TIP3   OH238149   8.009   6.812   4.700
12739TIP3    H138150   8.080   6.778   4.646
12739TIP3    H238151   8.014   6.763   4.782
12740TIP3   OH238152   7.511   6.310   4.606
12740TIP3    H138153   7.481   6.234   4.657
12740TIP3    H238154   7.542   6.272   4.524
12741TIP3   OH238155   7.983   6.708   4.971
12741TIP3    H138156   7.897   6.742   4.996
12741TIP3    H238157   8.045   6.763   5.019
12742TIP3   OH238158   7.717   7.082   4.108
12742TIP3    H138159   7.639   7.030   4.087
12742TIP3    H238160   7.698   7.122   4.193
12743TIP3   OH238161   8.180   6.420   4.002
12743TIP3    H138162   8.086   6.401   3.999
12743TIP3    H238163   8.184   6.515   4.014
12744TIP3   OH238164   8.242   6.682   4.068
12744TIP3    H138165   8.336   6.680   4.083
12744TIP3    H238166   8.228   6.760   4.013
12745TIP3   OH238167   7.398   7.072   4.751
12745TIP3    H138168   7.440   7.065   4.665
12745TIP3    H238169   7.467   7.047   4.813
12746TIP3   OH238170   7.862   7.234   3.939
12746TIP3    H138171   7.796   7.303   3.929
12746TIP3    H238172   7.820   7.170   3.998
12747TIP3   OH238173   7.287   7.031   5.383
12747TIP3    H138174   7.281   7.001   5.474
12747TIP3    H238175   7.213   6.988   5.340
12748TIP3   OH238176   7.494   7.405   4.475
12748TIP3    H138177   7.557   7.462   4.431
12748TIP3    H238178   7.426   7.390   4.411
12749TIP3   OH238179   7.102   6.737   4.129
12749TIP3    H138180   7.144   6.820   4.150
12749TIP3    H238181   7.020   6.738   4.178
12750TIP3   OH238182   7.654   7.192   4.347
12750TIP3    H138183   7.627   7.277   4.380
12750TIP3    H238184   7.619   7.129   4.411
12751TIP3   OH238185   7.393   7.748   4.129
12751TIP3    H138186   7.398   7.724   4.221
12751TIP3    H238187   7.476   7.791   4.110
12752TIP3   OH238188   8.118   7.261   3.627
12752TIP3    H138189   8.178   7.190   3.648
12752TIP3    H238190   8.031   7.226   3.648
12753TIP3   OH238191   7.506   6.549   5.384
12753TIP3    H138192   7.411   6.556   5.392
12753TIP3    H238193   7.533   6.502   5.462
12754TIP3   OH238194   8.324   7.199   3.920
12754TIP3    H138195   8.316   7.144   3.998
12754TIP3    H238196   8.418   7.218   3.914
12755TIP3   OH238197   7.215   7.655   5.082
12755TIP3    H138198   7.282   7.596   5.116
12755TIP3    H238199   7.223   7.735   5.135
12756TIP3   OH238200   7.510   7.284   3.706
12756TIP3    H138201   7.514   7.191   3.684
12756TIP3    H238202   7.562   7.292   3.787
12757TIP3   OH238203   7.418   7.302   4.053
12757TIP3    H138204   7.510   7.280   4.061
12757TIP3    H238205   7.417   7.384   4.003
12758TIP3   OH238206   7.192   6.989   4.209
12758TIP3    H138207   7.123   7.033   4.258
12758TIP3    H238208   7.206   7.044   4.132
12759TIP3   OH238209   8.341   6.617   5.060
12759TIP3    H138210   8.393   6.672   5.119
12759TIP3    H238211   8.323   6.538   5.110
12760TIP3   OH238212   8.236   6.369   4.269
12760TIP3    H138213   8.220   6.387   4.176
12760TIP3    H238214   8.281   6.447   4.301
12761TIP3   OH238215   7.658   7.412   3.908
12761TIP3    H138216   7.576   7.460   3.918
12761TIP3    H238217   7.724   7.480   3.898
12762TIP3   OH238218   7.892   6.565   4.359
12762TIP3    H138219   7.956   6.630   4.331
12762TIP3    H238220   7.916   6.545   4.450
12763TIP3   OH238221   8.058   6.261   4.448
12763TIP3    H138222   8.038   6.338   4.501
12763TIP3    H238223   8.127   6.290   4.388
12764TIP3   OH238224   7.427   7.552   3.946
12764TIP3    H138225   7.415   7.604   3.866
12764TIP3    H238226   7.402   7.610   4.017
12765TIP3   OH238227   7.573   6.284   4.252
12765TIP3    H138228   7.562   6.375   4.282
12765TIP3    H238229   7.667   6.268   4.258
12766TIP3   OH238230   8.487   6.927   4.522
12766TIP3    H138231   8.400   6.894   4.501
12766TIP3    H238232   8.488   6.935   4.617
12767TIP3   OH238233   7.194   7.162   3.988
12767TIP3    H138234   7.264   7.221   4.013
12767TIP3    H238235   7.233   7.104   3.922
12768TIP3   OH238236   7.123   6.459   4.123
12768TIP3    H138237   7.135   6.554   4.130
12768TIP3    H238238   7.059   6.448   4.052
12769TIP3   OH238239   7.521   6.186   4.994
12769TIP3    H138240   7.492   6.154   4.908
12769TIP3    H238241   7.513   6.109   5.051
12770TIP3   OH238242   7.675   7.481   3.593
12770TIP3    H138243   7.616   7.417   3.632
12770TIP3    H238244   7.750   7.430   3.563
12771TIP3   OH238245   7.336   6.982   3.841
12771TIP3    H138246   7.386   6.955   3.918
12771TIP3    H238247   7.401   6.993   3.772
12772TIP3   OH238248   7.854   7.186   3.668
12772TIP3    H138249   7.855   7.194   3.763
12772TIP3    H238250   7.847   7.091   3.652
12773TIP3   OH238251   7.507   6.912   4.051
12773TIP3    H138252   7.486   6.875   4.136
12773TIP3    H238253   7.558   6.843   4.007
12774TIP3   OH238254   7.789   6.977   5.300
12774TIP3    H138255   7.711   7.028   5.322
12774TIP3    H238256   7.841   7.034   5.244
12775TIP3   OH238257   7.656   6.734   3.896
12775TIP3    H138258   7.627   6.737   3.805
12775TIP3    H238259   7.752   6.738   3.890
12776TIP3   OH238260   7.853   6.738   5.436
12776TIP3    H138261   7.898   6.682   5.372
12776TIP3    H238262   7.845   6.822   5.392
12777TIP3   OH238263   7.936   6.559   5.217
12777TIP3    H138264   7.965   6.585   5.130
12777TIP3    H238265   7.844   6.535   5.207
12778TIP3   OH238266   8.056   6.330   5.321
12778TIP3    H138267   8.013   6.411   5.292
12778TIP3    H238268   7.991   6.262   5.307
12779TIP3   OH238269   7.640   6.628   5.710
12779TIP3    H138270   7.652   6.537   5.686
12779TIP3    H238271   7.722   6.671   5.686
12780TIP3   OH238272   8.142   6.324   5.581
12780TIP3    H138273   8.217   6.265   5.578
12780TIP3    H238274   8.111   6.329   5.491
12781TIP3   OH238275   7.428   7.778   3.794
12781TIP3    H138276   7.491   7.838   3.833
12781TIP3    H238277   7.414   7.811   3.705
12782TIP3   OH238278   6.925   7.151   4.012
12782TIP3    H138279   7.019   7.164   4.003
12782TIP3    H238280   6.907   7.068   3.969
12783TIP3   OH238281   6.828   7.688   4.471
12783TIP3    H138282   6.746   7.648   4.441
12783TIP3    H238283   6.892   7.662   4.405
12784TIP3   OH238284   7.032   7.545   4.646
12784TIP3    H138285   6.942   7.550   4.614
12784TIP3    H238286   7.048   7.629   4.689
12785TIP3   OH238287   8.492   6.666   3.666
12785TIP3    H138288   8.450   6.666   3.580
12785TIP3    H238289   8.484   6.576   3.698
12786TIP3   OH238290   0.015   6.933   4.248
12786TIP3    H138291   0.066   6.855   4.226
12786TIP3    H238292   0.029   6.944   4.342
12787TIP3   OH238293   7.166   7.016   5.008
12787TIP3    H138294   7.157   6.977   4.921
12787TIP3    H238295   7.259   7.009   5.029
12788TIP3   OH238296   8.465   6.400   3.716
12788TIP3    H138297   8.524   6.328   3.698
12788TIP3    H238298   8.378   6.359   3.723
12789TIP3   OH238299   0.020   6.660   4.124
12789TIP3    H138300   0.061   6.577   4.148
12789TIP3    H238301   0.071   6.690   4.048
12790TIP3   OH238302   7.376   6.681   5.660
12790TIP3    H138303   7.471   6.678   5.677
12790TIP3    H238304   7.344   6.597   5.694
12791TIP3   OH238305   0.130   6.427   4.207
12791TIP3    H138306   0.183   6.408   4.284
12791TIP3    H238307   0.074   6.350   4.196
12792TIP3   OH238308   7.354   6.407   5.015
12792TIP3    H138309   7.409   6.329   5.019
12792TIP3    H238310   7.416   6.478   4.997
12793TIP3   OH238311   7.141   6.672   5.072
12793TIP3    H138312   7.190   6.661   4.991
12793TIP3    H238313   7.182   6.747   5.115
12794TIP3   OH238314   7.128   6.181   4.577
12794TIP3    H138315   7.041   6.169   4.615
12794TIP3    H238316   7.113   6.235   4.499
12795TIP3   OH238317   7.343   6.238   5.396
12795TIP3    H138318   7.291   6.226   5.476
12795TIP3    H238319   7.285   6.285   5.337
12796TIP3   OH238320   7.161   7.712   4.817
12796TIP3    H138321   7.165   7.721   4.912
12796TIP3    H238322   7.195   7.795   4.784
12797TIP3   OH238323   7.327   7.562   4.641
12797TIP3    H138324   7.380   7.508   4.583
12797TIP3    H238325   7.372   7.647   4.643
12798TIP3   OH238326   7.551   7.720   4.616
12798TIP3    H138327   7.609   7.651   4.585
12798TIP3    H238328   7.599   7.763   4.686
12799TIP3   OH238329   8.188   6.365   4.734
12799TIP3    H138330   8.150   6.292   4.784
12799TIP3    H238331   8.261   6.326   4.687
12800TIP3   OH238332   0.200   6.314   4.663
12800TIP3    H138333   0.216   6.358   4.579
12800TIP3    H238334   0.105   6.317   4.673
12801TIP3   OH238335   0.308   6.395   4.417
12801TIP3    H138336   0.367   6.326   4.448
12801TIP3    H238337   0.365   6.456   4.371
12802TIP3   OH238338   7.433   6.086   4.751
12802TIP3    H138339   7.344   6.052   4.759
12802TIP3    H238340   7.488   6.008   4.744
12803TIP3   OH238341   7.260   5.987   4.407
12803TIP3    H138342   7.285   6.036   4.329
12803TIP3    H238343   7.222   6.053   4.466
12804TIP3   OH238344   7.903   6.123   4.638
12804TIP3    H138345   7.955   6.167   4.570
12804TIP3    H238346   7.946   6.147   4.720
12805TIP3   OH238347   8.417   6.248   4.623
12805TIP3    H138348   8.463   6.211   4.548
12805TIP3    H238349   8.413   6.176   4.686
12806TIP3   OH238350   8.455   6.216   4.187
12806TIP3    H138351   8.375   6.261   4.213
12806TIP3    H238352   8.447   6.129   4.225
12807TIP3   OH238353   6.922   7.571   4.222
12807TIP3    H138354   6.851   7.509   4.206
12807TIP3    H238355   6.913   7.637   4.153
12808TIP3   OH238356   7.365   6.113   4.166
12808TIP3    H138357   7.411   6.052   4.108
12808TIP3    H238358   7.434   6.170   4.200
12809TIP3   OH238359   7.848   6.312   4.265
12809TIP3    H138360   7.909   6.261   4.318
12809TIP3    H238361   7.862   6.403   4.292
12810TIP3   OH238362   7.753   7.734   3.657
12810TIP3    H138363   7.780   7.766   3.571
12810TIP3    H238364   7.713   7.649   3.639
12811TIP3   OH238365   7.648   6.355   5.628
12811TIP3    H138366   7.612   6.287   5.685
12811TIP3    H238367   7.741   6.356   5.649
12812TIP3   OH238368   7.904   6.341   5.719
12812TIP3    H138369   7.982   6.362   5.668
12812TIP3    H238370   7.931   6.266   5.773
12813TIP3   OH238371   7.039   7.547   3.808
12813TIP3    H138372   7.041   7.554   3.903
12813TIP3    H238373   7.120   7.499   3.786
12814TIP3   OH238374   1.419   7.433   6.407
12814TIP3    H138375   1.448   7.512   6.452
12814TIP3    H238376   1.459   7.440   6.320
12815TIP3   OH238377   0.838   7.343   6.051
12815TIP3    H138378   0.889   7.373   6.126
12815TIP3    H238379   0.878   7.387   5.975
12816TIP3   OH238380   1.492   7.632   6.593
12816TIP3    H138381   1.473   7.722   6.567
12816TIP3    H238382   1.420   7.608   6.652
12817TIP3   OH238383   1.010   7.415   6.259
12817TIP3    H138384   1.053   7.330   6.250
12817TIP3    H238385   1.082   7.477   6.269
12818TIP3   OH238386   1.197   7.358   6.556
12818TIP3    H138387   1.120   7.379   6.502
12818TIP3    H238388   1.272   7.375   6.499
12819TIP3   OH238389   1.127   6.926   5.690
12819TIP3    H138390   1.045   6.945   5.736
12819TIP3    H238391   1.143   7.003   5.637
12820TIP3   OH238392   1.126   7.545   5.594
12820TIP3    H138393   1.067   7.499   5.533
12820TIP3    H238394   1.128   7.635   5.562
12821TIP3   OH238395   1.291   7.537   6.754
12821TIP3    H138396   1.229   7.544   6.826
12821TIP3    H238397   1.255   7.467   6.699
12822TIP3   OH238398   0.917   7.688   6.218
12822TIP3    H138399   0.884   7.599   6.228
12822TIP3    H238400   1.005   7.685   6.254
12823TIP3   OH238401   0.940   7.801   5.251
12823TIP3    H138402   0.889   7.744   5.194
12823TIP3    H238403   0.998   7.850   5.192
12824TIP3   OH238404   1.025   8.006   5.632
12824TIP3    H138405   1.099   8.051   5.592
12824TIP3    H238406   1.061   7.959   5.706
12825TIP3   OH238407   1.188   7.867   5.808
12825TIP3    H138408   1.129   7.822   5.868
12825TIP3    H238409   1.251   7.911   5.865
12826TIP3   OH238410   1.113   7.788   5.465
12826TIP3    H138411   1.041   7.786   5.402
12826TIP3    H238412   1.091   7.859   5.525
12827TIP3   OH238413   0.974   7.438   5.392
12827TIP3    H138414   0.922   7.477   5.321
12827TIP3    H238415   0.967   7.344   5.378
12828TIP3   OH238416   1.021   7.720   5.961
12828TIP3    H138417   1.011   7.630   5.930
12828TIP3    H238418   0.972   7.722   6.044
12829TIP3   OH238419   0.951   7.163   5.362
12829TIP3    H138420   1.020   7.149   5.427
12829TIP3    H238421   0.872   7.126   5.402
12830TIP3   OH238422   1.012   7.460   5.850
12830TIP3    H138423   1.053   7.374   5.856
12830TIP3    H238424   1.041   7.494   5.765
12831TIP3   OH238425   1.168   7.635   6.335
12831TIP3    H138426   1.244   7.669   6.287
12831TIP3    H238427   1.168   7.682   6.418
12832TIP3   OH238428   7.380   3.375   0.157
12832TIP3    H138429   7.444   3.320   0.111
12832TIP3    H238430   7.345   3.433   0.089
12833TIP3   OH238431   1.114   7.202   5.870
12833TIP3    H138432   1.155   7.182   5.954
12833TIP3    H238433   1.044   7.138   5.861
12834TIP3   OH238434   1.583   7.464   6.867
12834TIP3    H138435   1.544   7.546   6.838
12834TIP3    H238436   1.548   7.398   6.807
12835TIP3   OH238437   1.180   7.130   5.514
12835TIP3    H138438   1.223   7.070   5.453
12835TIP3    H238439   1.235   7.208   5.514
12836TIP3   OH238440   1.444   7.225   6.758
12836TIP3    H138441   1.357   7.198   6.730
12836TIP3    H238442   1.496   7.145   6.758
12837TIP3   OH238443   1.175   7.047   6.316
12837TIP3    H138444   1.215   7.095   6.244
12837TIP3    H238445   1.083   7.073   6.315
12838TIP3   OH238446   1.272   7.160   6.093
12838TIP3    H138447   1.339   7.100   6.060
12838TIP3    H238448   1.308   7.247   6.077
12839TIP3   OH238449   0.915   7.112   6.300
12839TIP3    H138450   0.847   7.134   6.237
12839TIP3    H238451   0.884   7.032   6.343
12840TIP3   OH238452   0.915   7.005   5.848
12840TIP3    H138453   0.830   7.034   5.817
12840TIP3    H238454   0.895   6.926   5.900
12841TIP3   OH238455   5.215   0.036   5.569
12841TIP3    H138456   5.220   0.129   5.549
12841TIP3    H238457   5.159  -0.000   5.500
12842TIP3   OH238458   5.204   0.138   5.899
12842TIP3    H138459   5.250   0.117   5.981
12842TIP3    H238460   5.166   0.055   5.871
12843TIP3   OH238461   1.687   8.018   6.251
12843TIP3    H138462   1.722   7.967   6.324
12843TIP3    H238463   1.764   8.044   6.201
12844TIP3   OH238464   5.491   0.422   5.606
12844TIP3    H138465   5.462   0.366   5.679
12844TIP3    H238466   5.517   0.503   5.648
12845TIP3   OH238467   4.601   0.401   6.052
12845TIP3    H138468   4.519   0.353   6.059
12845TIP3    H238469   4.636   0.376   5.967
12846TIP3   OH238470   1.354   7.653   5.729
12846TIP3    H138471   1.311   7.735   5.753
12846TIP3    H238472   1.284   7.597   5.695
12847TIP3   OH238473   1.416   7.955   5.946
12847TIP3    H138474   1.470   7.879   5.968
12847TIP3    H238475   1.472   8.009   5.890
12848TIP3   OH238476   5.023   0.354   5.969
12848TIP3    H138477   5.055   0.281   5.917
12848TIP3    H238478   5.103   0.395   6.004
12849TIP3   OH238479   3.206   7.701   5.921
12849TIP3    H138480   3.228   7.783   5.966
12849TIP3    H238481   3.226   7.719   5.829
12850TIP3   OH238482   2.599   7.874   5.953
12850TIP3    H138483   2.633   7.788   5.978
12850TIP3    H238484   2.563   7.861   5.865
12851TIP3   OH238485   1.942   7.528   5.902
12851TIP3    H138486   1.926   7.599   5.840
12851TIP3    H238487   1.890   7.455   5.870
12852TIP3   OH238488   2.637   7.633   5.535
12852TIP3    H138489   2.695   7.628   5.611
12852TIP3    H238490   2.693   7.667   5.465
12853TIP3   OH238491   1.567   7.739   6.033
12853TIP3    H138492   1.651   7.722   6.076
12853TIP3    H238493   1.573   7.692   5.950
12854TIP3   OH238494   2.005   7.922   5.852
12854TIP3    H138495   2.100   7.911   5.856
12854TIP3    H238496   1.973   7.841   5.814
12855TIP3   OH238497   3.271   7.919   6.088
12855TIP3    H138498   3.179   7.947   6.087
12855TIP3    H238499   3.298   7.933   6.179
12856TIP3   OH238500   1.929   7.527   6.352
12856TIP3    H138501   1.875   7.563   6.281
12856TIP3    H238502   1.878   7.544   6.431
12857TIP3   OH238503   5.202   0.249   5.382
12857TIP3    H138504   5.136   0.252   5.313
12857TIP3    H238505   5.206   0.339   5.415
12858TIP3   OH238506   4.859   0.275   6.170
12858TIP3    H138507   4.804   0.345   6.205
12858TIP3    H238508   4.910   0.318   6.101
12859TIP3   OH238509   2.802   7.647   5.755
12859TIP3    H138510   2.760   7.625   5.838
12859TIP3    H238511   2.859   7.721   5.775
12860TIP3   OH238512   1.814   7.635   6.124
12860TIP3    H138513   1.871   7.708   6.148
12860TIP3    H238514   1.858   7.593   6.050
12861TIP3   OH238515   4.089   0.075   5.509
12861TIP3    H138516   4.040   0.087   5.428
12861TIP3    H238517   4.136   0.157   5.521
12862TIP3   OH238518   3.002   7.596   6.090
12862TIP3    H138519   2.917   7.620   6.052
12862TIP3    H238520   3.066   7.622   6.024
12863TIP3   OH238521   2.272   7.225   6.081
12863TIP3    H138522   2.265   7.132   6.106
12863TIP3    H238523   2.195   7.266   6.120
12864TIP3   OH238524   5.497   0.356   5.335
12864TIP3    H138525   5.431   0.402   5.283
12864TIP3    H238526   5.480   0.385   5.425
12865TIP3   OH238527   5.823   0.631   5.979
12865TIP3    H138528   5.814   0.549   5.930
12865TIP3    H238529   5.867   0.690   5.918
12866TIP3   OH238530   2.235   7.965   5.349
12866TIP3    H138531   2.157   8.019   5.338
12866TIP3    H238532   2.276   7.962   5.263
12867TIP3   OH238533   2.166   7.774   5.031
12867TIP3    H138534   2.225   7.833   5.078
12867TIP3    H238535   2.224   7.713   4.986
12868TIP3   OH238536   5.946   0.225   5.923
12868TIP3    H138537   5.861   0.269   5.929
12868TIP3    H238538   5.970   0.231   5.831
12869TIP3   OH238539   5.389   0.049   5.297
12869TIP3    H138540   5.340   0.113   5.350
12869TIP3    H238541   5.471   0.036   5.345
12870TIP3   OH238542   5.624   0.101   6.232
12870TIP3    H138543   5.624   0.178   6.289
12870TIP3    H238544   5.540   0.104   6.186
12871TIP3   OH238545   1.803   8.036   5.694
12871TIP3    H138546   1.757   7.976   5.635
12871TIP3    H238547   1.870   7.981   5.736
12872TIP3   OH238548   4.737   0.382   5.818
12872TIP3    H138549   4.743   0.453   5.754
12872TIP3    H238550   4.814   0.328   5.800
12873TIP3   OH238551   4.742   0.043   6.076
12873TIP3    H138552   4.787   0.014   5.997
12873TIP3    H238553   4.787   0.124   6.100
12874TIP3   OH238554   2.392   7.927   5.126
12874TIP3    H138555   2.452   7.984   5.174
12874TIP3    H238556   2.424   7.928   5.036
12875TIP3   OH238557   2.907   7.183   5.181
12875TIP3    H138558   2.829   7.202   5.234
12875TIP3    H238559   2.917   7.260   5.125
12876TIP3   OH238560   1.661   7.874   5.519
12876TIP3    H138561   1.590   7.921   5.475
12876TIP3    H238562   1.625   7.788   5.540
12877TIP3   OH238563   5.877   0.057   6.397
12877TIP3    H138564   5.787   0.068   6.364
12877TIP3    H238565   5.894  -0.037   6.389
12878TIP3   OH238566   2.033   7.314   6.206
12878TIP3    H138567   1.950   7.283   6.171
12878TIP3    H238568   2.011   7.394   6.253
12879TIP3   OH238569   2.580   7.436   6.407
12879TIP3    H138570   2.654   7.409   6.462
12879TIP3    H238571   2.503   7.416   6.459
12880TIP3   OH238572   2.801   7.852   6.320
12880TIP3    H138573   2.769   7.850   6.410
12880TIP3    H238574   2.784   7.942   6.291
12881TIP3   OH238575   2.473   7.907   4.868
12881TIP3    H138576   2.440   7.875   4.784
12881TIP3    H238577   2.492   7.999   4.853
12882TIP3   OH238578   2.185   7.355   5.184
12882TIP3    H138579   2.150   7.359   5.273
12882TIP3    H238580   2.140   7.281   5.144
12883TIP3   OH238581   1.979   7.835   6.219
12883TIP3    H138582   1.933   7.844   6.303
12883TIP3    H238583   1.958   7.915   6.171
12884TIP3   OH238584   1.859   7.721   5.725
12884TIP3    H138585   1.769   7.698   5.750
12884TIP3    H238586   1.865   7.697   5.632
12885TIP3   OH238587   2.348   7.745   5.461
12885TIP3    H138588   2.306   7.823   5.425
12885TIP3    H238589   2.415   7.723   5.397
12886TIP3   OH238590   5.362   0.047   6.530
12886TIP3    H138591   5.336  -0.021   6.593
12886TIP3    H238592   5.452   0.069   6.554
12887TIP3   OH238593   2.501   7.840   5.701
12887TIP3    H138594   2.453   7.908   5.652
12887TIP3    H238595   2.507   7.767   5.639
12888TIP3   OH238596   1.819   7.857   6.443
12888TIP3    H138597   1.884   7.909   6.490
12888TIP3    H238598   1.804   7.780   6.498
12889TIP3   OH238599   1.830   7.355   5.143
12889TIP3    H138600   1.819   7.352   5.238
12889TIP3    H238601   1.770   7.423   5.114
12890TIP3   OH238602   1.394   7.387   6.025
12890TIP3    H138603   1.471   7.426   6.068
12890TIP3    H238604   1.423   7.373   5.934
12891TIP3   OH238605   1.328   7.365   5.523
12891TIP3    H138606   1.373   7.396   5.445
12891TIP3    H238607   1.263   7.433   5.542
12892TIP3   OH238608   5.363   0.061   6.119
12892TIP3    H138609   5.395  -0.005   6.057
12892TIP3    H238610   5.326   0.009   6.191
12893TIP3   OH238611   2.213   7.516   5.798
12893TIP3    H138612   2.136   7.516   5.855
12893TIP3    H238613   2.287   7.509   5.857
12894TIP3   OH238614   1.617   7.606   5.794
12894TIP3    H138615   1.527   7.611   5.763
12894TIP3    H238616   1.643   7.515   5.780
12895TIP3   OH238617   1.875   7.622   5.461
12895TIP3    H138618   1.970   7.621   5.476
12895TIP3    H238619   1.866   7.653   5.371
12896TIP3   OH238620   2.667   7.608   5.999
12896TIP3    H138621   2.647   7.624   6.092
12896TIP3    H238622   2.599   7.547   5.970
12897TIP3   OH238623   2.275   7.880   5.894
12897TIP3    H138624   2.342   7.836   5.841
12897TIP3    H238625   2.277   7.835   5.978
12898TIP3   OH238626   1.757   7.355   5.778
12898TIP3    H138627   1.728   7.279   5.829
12898TIP3    H238628   1.776   7.320   5.691
12899TIP3   OH238629   2.244   7.781   6.157
12899TIP3    H138630   2.157   7.811   6.183
12899TIP3    H238631   2.303   7.832   6.213
12900TIP3   OH238632   4.849   0.107   5.327
12900TIP3    H138633   4.770   0.054   5.310
12900TIP3    H238634   4.835   0.142   5.415
12901TIP3   OH238635   5.704   0.348   5.896
12901TIP3    H138636   5.725   0.399   5.818
12901TIP3    H238637   5.617   0.311   5.879
12902TIP3   OH238638   2.440   7.450   5.173
12902TIP3    H138639   2.346   7.433   5.175
12902TIP3    H238640   2.448   7.545   5.187
12903TIP3   OH238641   5.235   0.393   6.311
12903TIP3    H138642   5.259   0.384   6.403
12903TIP3    H238643   5.159   0.451   6.312
12904TIP3   OH238644   2.515   7.706   5.243
12904TIP3    H138645   2.609   7.720   5.257
12904TIP3    H238646   2.485   7.785   5.199
12905TIP3   OH238647   4.508   0.078   5.927
12905TIP3    H138648   4.541   0.070   5.838
12905TIP3    H238649   4.582   0.053   5.983
12906TIP3   OH238650   4.854   0.298   5.129
12906TIP3    H138651   4.907   0.361   5.178
12906TIP3    H238652   4.861   0.217   5.179
12907TIP3   OH238653   5.119   0.194   6.555
12907TIP3    H138654   5.096   0.176   6.464
12907TIP3    H238655   5.207   0.157   6.565
12908TIP3   OH238656   2.930   7.802   5.083
12908TIP3    H138657   2.871   7.760   5.020
12908TIP3    H238658   2.941   7.891   5.050
12909TIP3   OH238659   6.032   0.554   6.141
12909TIP3    H138660   5.953   0.603   6.117
12909TIP3    H238661   6.071   0.528   6.057
12910TIP3   OH238662   5.463   0.231   5.813
12910TIP3    H138663   5.371   0.210   5.830
12910TIP3    H238664   5.499   0.152   5.773
12911TIP3   OH238665   1.299   7.798   5.257
12911TIP3    H138666   1.375   7.849   5.286
12911TIP3    H238667   1.246   7.786   5.336
12912TIP3   OH238668   4.780   0.215   5.571
12912TIP3    H138669   4.710   0.251   5.516
12912TIP3    H238670   4.736   0.150   5.626
12913TIP3   OH238671   5.283   0.406   6.037
12913TIP3    H138672   5.268   0.410   6.132
12913TIP3    H238673   5.368   0.362   6.029
12914TIP3   OH238674   5.170   0.262   4.996
12914TIP3    H138675   5.258   0.227   5.003
12914TIP3    H238676   5.129   0.210   4.927
12915TIP3   OH238677   1.771   7.598   6.568
12915TIP3    H138678   1.676   7.602   6.578
12915TIP3    H238679   1.801   7.548   6.644
12916TIP3   OH238680   5.429   0.196   5.070
12916TIP3    H138681   5.412   0.151   5.152
12916TIP3    H238682   5.523   0.214   5.071
12917TIP3   OH238683   4.585   0.246   5.086
12917TIP3    H138684   4.551   0.256   4.997
12917TIP3    H238685   4.676   0.276   5.081
12918TIP3   OH238686   4.301  -0.020   5.370
12918TIP3    H138687   4.232   0.002   5.433
12918TIP3    H238688   4.296   0.050   5.304
12919TIP3   OH238689   2.605   7.668   6.261
12919TIP3    H138690   2.685   7.711   6.290
12919TIP3    H238691   2.599   7.590   6.316
12920TIP3   OH238692   2.495   7.411   5.446
12920TIP3    H138693   2.476   7.428   5.353
12920TIP3    H238694   2.535   7.493   5.477
12921TIP3   OH238695   2.136   7.603   5.548
12921TIP3    H138696   2.210   7.655   5.515
12921TIP3    H238697   2.159   7.584   5.639
12922TIP3   OH238698   2.444   7.900   6.313
12922TIP3    H138699   2.470   7.945   6.393
12922TIP3    H238700   2.496   7.820   6.311
12923TIP3   OH238701   2.311   7.310   5.627
12923TIP3    H138702   2.289   7.387   5.679
12923TIP3    H238703   2.379   7.341   5.567
12924TIP3   OH238704   1.821   7.346   5.424
12924TIP3    H138705   1.814   7.439   5.444
12924TIP3    H238706   1.915   7.327   5.431
12925TIP3   OH238707   3.067   7.803   6.298
12925TIP3    H138708   2.972   7.810   6.308
12925TIP3    H238709   3.080   7.733   6.233
12926TIP3   OH238710   2.728   8.007   5.703
12926TIP3    H138711   2.653   7.948   5.708
12926TIP3    H238712   2.797   7.963   5.754
12927TIP3   OH238713   4.240   0.163   5.152
12927TIP3    H138714   4.205   0.204   5.073
12927TIP3    H238715   4.309   0.106   5.120
12928TIP3   OH238716   1.420   7.476   5.286
12928TIP3    H138717   1.499   7.516   5.250
12928TIP3    H238718   1.349   7.516   5.236
12929TIP3   OH238719   1.769   7.233   6.165
12929TIP3    H138720   1.741   7.202   6.079
12929TIP3    H238721   1.763   7.157   6.222
12930TIP3   OH238722   1.581   7.985   5.079
12930TIP3    H138723   1.633   7.958   5.155
12930TIP3    H238724   1.641   7.976   5.005
12931TIP3   OH238725   4.920   0.199   4.876
12931TIP3    H138726   4.908   0.259   4.950
12931TIP3    H238727   4.885   0.115   4.907
12932TIP3   OH238728   5.492   0.470   6.245
12932TIP3    H138729   5.484   0.553   6.293
12932TIP3    H238730   5.411   0.423   6.263
12933TIP3   OH238731   1.784   7.970   5.290
12933TIP3    H138732   1.749   7.928   5.368
12933TIP3    H238733   1.822   7.898   5.239
12934TIP3   OH238734   4.888  -0.004   6.484
12934TIP3    H138735   4.900   0.058   6.556
12934TIP3    H238736   4.937   0.034   6.411
12935TIP3   OH238737   1.898   7.777   5.137
12935TIP3    H138738   1.827   7.716   5.112
12935TIP3    H238739   1.975   7.741   5.093
12936TIP3   OH238740   5.420   0.390   6.549
12936TIP3    H138741   5.497   0.345   6.514
12936TIP3    H238742   5.410   0.355   6.638
12937TIP3   OH238743   5.601   0.043   4.746
12937TIP3    H138744   5.537   0.008   4.685
12937TIP3    H238745   5.669   0.082   4.690
12938TIP3   OH238746   2.197   7.791   6.572
12938TIP3    H138747   2.201   7.720   6.508
12938TIP3    H238748   2.155   7.863   6.525
12939TIP3   OH238749   2.194   7.597   6.373
12939TIP3    H138750   2.219   7.637   6.289
12939TIP3    H238751   2.101   7.577   6.362
12940TIP3   OH238752   5.047   0.123   6.295
12940TIP3    H138753   5.129   0.141   6.249
12940TIP3    H238754   4.983   0.179   6.252
12941TIP3   OH238755   5.625   0.077   6.627
12941TIP3    H138756   5.648  -0.016   6.626
12941TIP3    H238757   5.706   0.122   6.651
12942TIP3   OH238758   5.663   0.325   6.398
12942TIP3    H138759   5.611   0.384   6.344
12942TIP3    H238760   5.754   0.341   6.372
12943TIP3   OH238761   2.061   7.885   6.796
12943TIP3    H138762   1.985   7.830   6.815
12943TIP3    H238763   2.095   7.850   6.714
12944TIP3   OH238764   2.314   7.375   6.487
12944TIP3    H138765   2.276   7.454   6.448
12944TIP3    H238766   2.248   7.307   6.473
12945TIP3   OH238767   2.447   7.846   6.681
12945TIP3    H138768   2.430   7.849   6.775
12945TIP3    H238769   2.363   7.823   6.642
12946TIP3   OH238770   2.710   7.814   6.571
12946TIP3    H138771   2.629   7.805   6.621
12946TIP3    H238772   2.775   7.763   6.620
12947TIP3   OH238773   2.937   7.719   6.707
12947TIP3    H138774   2.957   7.627   6.726
12947TIP3    H238775   2.928   7.760   6.793
12948TIP3   OH238776   1.881   7.688   6.869
12948TIP3    H138777   1.872   7.598   6.838
12948TIP3    H238778   1.932   7.681   6.950
12949TIP3   OH238779   2.386   7.370   6.749
12949TIP3    H138780   2.458   7.306   6.748
12949TIP3    H238781   2.357   7.374   6.658
12950TIP3   OH238782   2.461   7.588   6.904
12950TIP3    H138783   2.438   7.519   6.841
12950TIP3    H238784   2.390   7.652   6.895
12951TIP3   OH238785   3.995   0.108   5.257
12951TIP3    H138786   4.077   0.146   5.226
12951TIP3    H238787   3.973   0.041   5.193
12952TIP3   OH238788   5.691   0.239   5.101
12952TIP3    H138789   5.748   0.312   5.076
12952TIP3    H238790   5.734   0.199   5.176
12953TIP3   OH238791   5.827   0.104   5.294
12953TIP3    H138792   5.760   0.071   5.353
12953TIP3    H238793   5.890   0.149   5.351
12954TIP3   OH238794   5.865   0.491   5.723
12954TIP3    H138795   5.902   0.417   5.674
12954TIP3    H238796   5.839   0.554   5.656
12955TIP3   OH238797   5.777   0.026   4.950
12955TIP3    H138798   5.707   0.024   4.885
12955TIP3    H238799   5.757   0.103   5.004
12956TIP3   OH238800   2.774   7.702   4.882
12956TIP3    H138801   2.720   7.753   4.821
12956TIP3    H238802   2.758   7.611   4.858
12957TIP3   OH238803   2.791   7.991   5.434
12957TIP3    H138804   2.798   7.897   5.421
12957TIP3    H238805   2.775   8.001   5.528
12958TIP3   OH238806   4.257   0.053   6.197
12958TIP3    H138807   4.245   0.015   6.110
12958TIP3    H238808   4.349   0.036   6.218
12959TIP3   OH238809   5.916   0.378   6.314
12959TIP3    H138810   5.978   0.305   6.303
12959TIP3    H238811   5.943   0.442   6.248
12960TIP3   OH238812   6.099   0.176   6.299
12960TIP3    H138813   6.022   0.132   6.335
12960TIP3    H238814   6.172   0.116   6.315
12961TIP3   OH238815   2.725   7.431   4.837
12961TIP3    H138816   2.788   7.408   4.906
12961TIP3    H238817   2.642   7.394   4.868
12962TIP3   OH238818   2.795   7.719   5.316
12962TIP3    H138819   2.837   7.633   5.328
12962TIP3    H238820   2.842   7.758   5.242
12963TIP3   OH238821   2.938   7.878   5.831
12963TIP3    H138822   3.020   7.895   5.785
12963TIP3    H238823   2.952   7.914   5.919
12964TIP3   OH238824   5.842   0.008   6.060
12964TIP3    H138825   5.771   0.038   6.116
12964TIP3    H238826   5.875   0.088   6.018
12965TIP3   OH238827   3.512   7.645   6.600
12965TIP3    H138828   3.559   7.578   6.550
12965TIP3    H238829   3.446   7.678   6.539
12966TIP3   OH238830   2.904   7.466   5.358
12966TIP3    H138831   2.946   7.451   5.443
12966TIP3    H238832   2.839   7.395   5.352
12967TIP3   OH238833   1.607   7.454   6.196
12967TIP3    H138834   1.662   7.376   6.193
12967TIP3    H238835   1.666   7.527   6.175
12968TIP3   OH238836   1.389   7.776   6.253
12968TIP3    H138837   1.444   7.752   6.179
12968TIP3    H238838   1.386   7.872   6.250
12969TIP3   OH238839   3.329   7.739   6.419
12969TIP3    H138840   3.247   7.774   6.454
12969TIP3    H238841   3.302   7.663   6.368
12970TIP3   OH238842   2.950   7.384   4.998
12970TIP3    H138843   2.997   7.322   4.942
12970TIP3    H238844   3.008   7.460   5.003
12971TIP3   OH238845   1.379   7.237   5.760
12971TIP3    H138846   1.290   7.220   5.790
12971TIP3    H238847   1.368   7.288   5.680
12972TIP3   OH238848   1.609   7.277   6.539
12972TIP3    H138849   1.550   7.264   6.613
12972TIP3    H238850   1.557   7.325   6.475
12973TIP3   OH238851   3.252   7.506   6.280
12973TIP3    H138852   3.157   7.493   6.286
12973TIP3    H238853   3.289   7.418   6.290
12974TIP3   OH238854   2.443   7.428   5.931
12974TIP3    H138855   2.405   7.355   5.979
12974TIP3    H238856   2.512   7.388   5.878
12975TIP3   OH238857   2.947   7.333   5.814
12975TIP3    H138858   2.984   7.385   5.742
12975TIP3    H238859   2.856   7.362   5.819
12976TIP3   OH238860   3.061   7.420   5.581
12976TIP3    H138861   3.131   7.360   5.553
12976TIP3    H238862   3.096   7.507   5.566
12977TIP3   OH238863   1.683   7.129   5.925
12977TIP3    H138864   1.593   7.097   5.930
12977TIP3    H238865   1.737   7.050   5.917
12978TIP3   OH238866   1.501   7.031   5.596
12978TIP3    H138867   1.537   7.076   5.519
12978TIP3    H238868   1.466   7.101   5.650
12979TIP3   OH238869   2.162   7.167   5.821
12979TIP3    H138870   2.209   7.214   5.753
12979TIP3    H238871   2.203   7.195   5.903
12980TIP3   OH238872   2.657   7.314   5.799
12980TIP3    H138873   2.671   7.281   5.710
12980TIP3    H238874   2.662   7.237   5.855
12981TIP3   OH238875   2.715   7.259   5.364
12981TIP3    H138876   2.635   7.306   5.387
12981TIP3    H238877   2.703   7.172   5.403
12982TIP3   OH238878   1.625   7.150   5.379
12982TIP3    H138879   1.653   7.107   5.298
12982TIP3    H238880   1.690   7.219   5.393
12983TIP3   OH238881   2.096   7.355   5.445
12983TIP3    H138882   2.156   7.302   5.498
12983TIP3    H238883   2.109   7.444   5.476
12984TIP3   OH238884   1.907   7.416   6.785
12984TIP3    H138885   1.875   7.349   6.846
12984TIP3    H238886   1.999   7.427   6.808
12985TIP3   OH238887   2.160   7.404   6.907
12985TIP3    H138888   2.239   7.397   6.852
12985TIP3    H238889   2.162   7.326   6.962
12986TIP3   OH238890   6.983   0.292   5.081
12986TIP3    H138891   7.000   0.383   5.054
12986TIP3    H238892   6.933   0.254   5.009
12987TIP3   OH238893   7.016   0.394   5.350
12987TIP3    H138894   7.041   0.339   5.424
12987TIP3    H238895   6.999   0.332   5.279
12988TIP3   OH238896   6.318   0.276   5.719
12988TIP3    H138897   6.349   0.211   5.783
12988TIP3    H238898   6.357   0.359   5.749
12989TIP3   OH238899   7.273   0.674   5.088
12989TIP3    H138900   7.261   0.614   5.162
12989TIP3    H238901   7.305   0.755   5.128
12990TIP3   OH238902   6.380   0.555   5.499
12990TIP3    H138903   6.354   0.634   5.546
12990TIP3    H238904   6.449   0.583   5.440
12991TIP3   OH238905   3.172   7.916   5.211
12991TIP3    H138906   3.125   7.996   5.234
12991TIP3    H238907   3.104   7.856   5.179
12992TIP3   OH238908   6.061   0.183   5.419
12992TIP3    H138909   6.100   0.100   5.446
12992TIP3    H238910   6.135   0.234   5.384
12993TIP3   OH238911   6.848   0.580   5.466
12993TIP3    H138912   6.874   0.512   5.404
12993TIP3    H238913   6.929   0.611   5.505
12994TIP3   OH238914   5.008   7.941   5.370
12994TIP3    H138915   5.016   8.010   5.435
12994TIP3    H238916   5.059   7.972   5.295
12995TIP3   OH238917   7.206   0.097   5.438
12995TIP3    H138918   7.256   0.019   5.464
12995TIP3    H238919   7.188   0.083   5.345
12996TIP3   OH238920   3.696   7.784   5.390
12996TIP3    H138921   3.643   7.848   5.341
12996TIP3    H238922   3.661   7.699   5.364
12997TIP3   OH238923   4.432   7.891   5.018
12997TIP3    H138924   4.496   7.890   5.089
12997TIP3    H238925   4.482   7.921   4.941
12998TIP3   OH238926   3.364   7.983   5.522
12998TIP3    H138927   3.444   7.965   5.571
12998TIP3    H238928   3.375   7.937   5.439
12999TIP3   OH238929   7.845   0.113   5.575
12999TIP3    H138930   7.779   0.180   5.556
12999TIP3    H238931   7.919   0.161   5.611
13000TIP3   OH238932   3.725   7.784   5.849
13000TIP3    H138933   3.670   7.817   5.778
13000TIP3    H238934   3.672   7.797   5.928
13001TIP3   OH238935   7.001   0.507   4.897
13001TIP3    H138936   6.937   0.509   4.825
13001TIP3    H238937   7.007   0.598   4.926
13002TIP3   OH238938   6.667   0.496   5.644
13002TIP3    H138939   6.615   0.570   5.676
13002TIP3    H238940   6.722   0.533   5.575
13003TIP3   OH238941   4.606   7.910   5.226
13003TIP3    H138942   4.571   7.888   5.313
13003TIP3    H238943   4.669   7.980   5.243
13004TIP3   OH238944   3.603   7.889   5.626
13004TIP3    H138945   3.663   7.960   5.647
13004TIP3    H238946   3.642   7.846   5.550
13005TIP3   OH238947   6.563   0.733   5.713
13005TIP3    H138948   6.491   0.759   5.656
13005TIP3    H238949   6.529   0.746   5.802
13006TIP3   OH238950   5.913   0.348   4.982
13006TIP3    H138951   5.854   0.347   4.907
13006TIP3    H238952   5.941   0.439   4.989
13007TIP3   OH238953   4.785   7.815   5.510
13007TIP3    H138954   4.691   7.828   5.501
13007TIP3    H238955   4.823   7.902   5.501
13008TIP3   OH238956   4.060   7.480   5.568
13008TIP3    H138957   4.055   7.388   5.594
13008TIP3    H238958   3.984   7.521   5.610
13009TIP3   OH238959   7.311   0.739   4.813
13009TIP3    H138960   7.273   0.711   4.730
13009TIP3    H238961   7.273   0.679   4.878
13010TIP3   OH238962   7.630   0.885   5.457
13010TIP3    H138963   7.630   0.802   5.409
13010TIP3    H238964   7.677   0.946   5.399
13011TIP3   OH238965   6.857   0.213   4.846
13011TIP3    H138966   6.774   0.259   4.833
13011TIP3    H238967   6.897   0.210   4.759
13012TIP3   OH238968   6.804   0.006   4.534
13012TIP3    H138969   6.861   0.072   4.572
13012TIP3    H238970   6.862  -0.047   4.479
13013TIP3   OH238971   7.741   0.490   5.420
13013TIP3    H138972   7.658   0.538   5.419
13013TIP3    H238973   7.773   0.495   5.330
13014TIP3   OH238974   7.175   0.309   4.795
13014TIP3    H138975   7.129   0.372   4.851
13014TIP3    H238976   7.254   0.287   4.844
13015TIP3   OH238977   7.402   0.342   5.692
13015TIP3    H138978   7.412   0.415   5.753
13015TIP3    H238979   7.313   0.352   5.657
13016TIP3   OH238980   6.557   0.659   5.330
13016TIP3    H138981   6.500   0.674   5.255
13016TIP3    H238982   6.641   0.635   5.291
13017TIP3   OH238983   6.604   0.269   5.510
13017TIP3    H138984   6.560   0.301   5.432
13017TIP3    H238985   6.623   0.348   5.561
13018TIP3   OH238986   6.780   0.785   5.871
13018TIP3    H138987   6.708   0.818   5.925
13018TIP3    H238988   6.737   0.757   5.790
13019TIP3   OH238989   7.012   0.173   4.621
13019TIP3    H138990   7.075   0.229   4.666
13019TIP3    H238991   7.032   0.185   4.528
13020TIP3   OH238992   6.443   0.386   5.994
13020TIP3    H138993   6.453   0.467   6.044
13020TIP3    H238994   6.354   0.356   6.016
13021TIP3   OH238995   4.714   7.449   4.661
13021TIP3    H138996   4.634   7.466   4.709
13021TIP3    H238997   4.726   7.526   4.605
13022TIP3   OH238998   6.323   0.122   5.010
13022TIP3    H138999   6.260   0.178   4.965
13022TIP3    H239000   6.271   0.047   5.040
13023TIP3   OH239001   6.099   0.478   5.889
13023TIP3    H139002   6.026   0.462   5.829
13023TIP3    H239003   6.122   0.391   5.923
13024TIP3   OH239004   7.692   0.327   5.881
13024TIP3    H139005   7.608   0.313   5.836
13024TIP3    H239006   7.724   0.239   5.900
13025TIP3   OH239007   6.286   0.663   5.839
13025TIP3    H139008   6.264   0.722   5.911
13025TIP3    H239009   6.224   0.590   5.848
13026TIP3   OH239010   3.829   7.577   5.693
13026TIP3    H139011   3.745   7.542   5.664
13026TIP3    H239012   3.805   7.652   5.748
13027TIP3   OH239013   4.371   7.687   5.893
13027TIP3    H139014   4.440   7.665   5.956
13027TIP3    H239015   4.290   7.674   5.942
13028TIP3   OH239016   7.439   0.090   5.795
13028TIP3    H139017   7.394   0.087   5.879
13028TIP3    H239018   7.415   0.175   5.757
13029TIP3   OH239019   7.043   0.181   4.351
13029TIP3    H139020   7.049   0.129   4.271
13029TIP3    H239021   7.087   0.263   4.330
13030TIP3   OH239022   3.974   7.616   4.664
13030TIP3    H139023   3.939   7.621   4.753
13030TIP3    H239024   3.939   7.534   4.628
13031TIP3   OH239025   6.608   0.075   5.700
13031TIP3    H139026   6.556   0.099   5.776
13031TIP3    H239027   6.599   0.149   5.640
13032TIP3   OH239028   6.546   0.005   5.214
13032TIP3    H139029   6.470   0.061   5.225
13032TIP3    H239030   6.524  -0.051   5.139
13033TIP3   OH239031   6.982  -0.007   4.942
13033TIP3    H139032   6.938   0.070   4.906
13033TIP3    H239033   7.048  -0.031   4.877
13034TIP3   OH239034   7.168   0.298   6.021
13034TIP3    H139035   7.139   0.233   6.085
13034TIP3    H239036   7.257   0.320   6.048
13035TIP3   OH239037   7.136   0.081   5.178
13035TIP3    H139038   7.082   0.145   5.130
13035TIP3    H239039   7.148   0.010   5.115
13036TIP3   OH239040   6.427   0.100   5.907
13036TIP3    H139041   6.438   0.166   5.976
13036TIP3    H239042   6.411   0.019   5.954
13037TIP3   OH239043   3.640   7.597   4.637
13037TIP3    H139044   3.629   7.601   4.732
13037TIP3    H239045   3.563   7.643   4.603
13038TIP3   OH239046   3.187   7.644   5.499
13038TIP3    H139047   3.260   7.674   5.553
13038TIP3    H239048   3.227   7.616   5.417
13039TIP3   OH239049   3.114   7.609   5.014
13039TIP3    H139050   3.156   7.643   4.935
13039TIP3    H239051   3.052   7.677   5.040
13040TIP3   OH239052   7.137   0.300   5.601
13040TIP3    H139053   7.171   0.232   5.543
13040TIP3    H239054   7.107   0.253   5.678
13041TIP3   OH239055   3.955   7.820   5.303
13041TIP3    H139056   3.881   7.773   5.340
13041TIP3    H239057   4.032   7.770   5.330
13042TIP3   OH239058   3.432   7.858   5.285
13042TIP3    H139059   3.345   7.873   5.248
13042TIP3    H239060   3.453   7.768   5.259
13043TIP3   OH239061   3.662   7.858   4.994
13043TIP3    H139062   3.754   7.864   4.970
13043TIP3    H239063   3.615   7.875   4.912
13044TIP3   OH239064   4.503   7.852   5.477
13044TIP3    H139065   4.464   7.863   5.564
13044TIP3    H239066   4.465   7.770   5.444
13045TIP3   OH239067   3.533   7.869   4.752
13045TIP3    H139068   3.464   7.826   4.700
13045TIP3    H239069   3.592   7.906   4.687
13046TIP3   OH239070   6.451   0.614   6.165
13046TIP3    H139071   6.523   0.618   6.227
13046TIP3    H239072   6.372   0.616   6.219
13047TIP3   OH239073   6.874   0.077   5.369
13047TIP3    H139074   6.965   0.084   5.341
13047TIP3    H239075   6.880   0.074   5.465
13048TIP3   OH239076   3.547   7.595   5.256
13048TIP3    H139077   3.517   7.521   5.310
13048TIP3    H239078   3.567   7.556   5.171
13049TIP3   OH239079   6.876   0.043   5.643
13049TIP3    H139080   6.789   0.069   5.675
13049TIP3    H239081   6.937   0.087   5.704
13050TIP3   OH239082   6.623   0.350   4.822
13050TIP3    H139083   6.547   0.296   4.800
13050TIP3    H239084   6.601   0.389   4.906
13051TIP3   OH239085   7.500   0.611   5.387
13051TIP3    H139086   7.532   0.651   5.306
13051TIP3    H239087   7.417   0.571   5.363
13052TIP3   OH239088   4.233   7.705   4.660
13052TIP3    H139089   4.138   7.692   4.657
13052TIP3    H239090   4.243   7.800   4.667
13053TIP3   OH239091   7.026   0.648   5.807
13053TIP3    H139092   7.080   0.633   5.885
13053TIP3    H239093   6.943   0.682   5.842
13054TIP3   OH239094   4.313   7.962   4.725
13054TIP3    H139095   4.408   7.969   4.725
13054TIP3    H239096   4.283   8.036   4.672
13055TIP3   OH239097   6.317   0.297   5.433
13055TIP3    H139098   6.339   0.390   5.439
13055TIP3    H239099   6.329   0.265   5.522
13056TIP3   OH239100   6.669   0.538   4.626
13056TIP3    H139101   6.718   0.611   4.663
13056TIP3    H239102   6.656   0.478   4.699
13057TIP3   OH239103   6.194   0.274   6.056
13057TIP3    H139104   6.193   0.260   6.150
13057TIP3    H239105   6.117   0.227   6.024
13058TIP3   OH239106   6.922   0.418   6.072
13058TIP3    H139107   6.859   0.361   6.029
13058TIP3    H239108   7.007   0.393   6.035
13059TIP3   OH239109   7.822   0.836   5.653
13059TIP3    H139110   7.735   0.864   5.623
13059TIP3    H239111   7.871   0.819   5.572
13060TIP3   OH239112   7.272   0.491   5.298
13060TIP3    H139113   7.181   0.471   5.320
13060TIP3    H239114   7.305   0.409   5.261
13061TIP3   OH239115   5.997   0.005   4.786
13061TIP3    H139116   6.051   0.082   4.803
13061TIP3    H239117   5.923   0.015   4.846
13062TIP3   OH239118   6.553   0.450   5.079
13062TIP3    H139119   6.498   0.526   5.062
13062TIP3    H239120   6.492   0.378   5.095
13063TIP3   OH239121   7.091   0.664   5.542
13063TIP3    H139122   7.072   0.669   5.636
13063TIP3    H239123   7.181   0.633   5.538
13064TIP3   OH239124   6.972   0.524   4.455
13064TIP3    H139125   7.055   0.480   4.471
13064TIP3    H239126   6.923   0.463   4.399
13065TIP3   OH239127   3.548   7.870   6.047
13065TIP3    H139128   3.453   7.881   6.054
13065TIP3    H239129   3.573   7.824   6.127
13066TIP3   OH239130   7.210   0.443   4.562
13066TIP3    H139131   7.205   0.393   4.644
13066TIP3    H239132   7.304   0.458   4.550
13067TIP3   OH239133   6.388   0.482   4.585
13067TIP3    H139134   6.337   0.471   4.505
13067TIP3    H239135   6.471   0.521   4.555
13068TIP3   OH239136   6.124   0.238   4.860
13068TIP3    H139137   6.057   0.265   4.923
13068TIP3    H239138   6.119   0.303   4.790
13069TIP3   OH239139   4.417   7.904   5.730
13069TIP3    H139140   4.487   7.956   5.768
13069TIP3    H239141   4.401   7.835   5.794
13070TIP3   OH239142   4.290   7.669   4.929
13070TIP3    H139143   4.271   7.683   4.836
13070TIP3    H239144   4.332   7.751   4.957
13071TIP3   OH239145   3.941   7.859   5.027
13071TIP3    H139146   4.015   7.909   4.991
13071TIP3    H239147   3.972   7.830   5.113
13072TIP3   OH239148   7.082   0.133   5.811
13072TIP3    H139149   7.108   0.186   5.887
13072TIP3    H239150   7.132   0.052   5.819
13073TIP3   OH239151   4.114   7.557   5.107
13073TIP3    H139152   4.141   7.599   5.189
13073TIP3    H239153   4.173   7.592   5.041
13074TIP3   OH239154   3.615   7.586   4.918
13074TIP3    H139155   3.603   7.675   4.950
13074TIP3    H239156   3.710   7.571   4.923
13075TIP3   OH239157   7.707   0.033   5.803
13075TIP3    H139158   7.612   0.048   5.794
13075TIP3    H239159   7.743   0.062   5.719
13076TIP3   OH239160   7.362   0.247   5.196
13076TIP3    H139161   7.291   0.183   5.198
13076TIP3    H239162   7.434   0.203   5.241
13077TIP3   OH239163   6.040   0.422   4.660
13077TIP3    H139164   6.082   0.508   4.661
13077TIP3    H239165   6.097   0.368   4.606
13078TIP3   OH239166   3.178   7.745   4.788
13078TIP3    H139167   3.192   7.839   4.799
13078TIP3    H239168   3.116   7.738   4.716
13079TIP3   OH239169   3.571   7.486   5.653
13079TIP3    H139170   3.540   7.452   5.569
13079TIP3    H239171   3.562   7.412   5.713
13080TIP3   OH239172   6.226   0.570   6.328
13080TIP3    H139173   6.270   0.486   6.323
13080TIP3    H239174   6.158   0.566   6.260
13081TIP3   OH239175   6.216   0.231   4.564
13081TIP3    H139176   6.266   0.216   4.644
13081TIP3    H239177   6.280   0.226   4.493
13082TIP3   OH239178   6.792   0.655   6.113
13082TIP3    H139179   6.805   0.698   6.028
13082TIP3    H239180   6.842   0.574   6.107
13083TIP3   OH239181   6.718   0.455   4.363
13083TIP3    H139182   6.711   0.512   4.440
13083TIP3    H239183   6.686   0.370   4.393
13084TIP3   OH239184   7.328   0.729   5.716
13084TIP3    H139185   7.381   0.808   5.716
13084TIP3    H239186   7.253   0.751   5.772
13085TIP3   OH239187   6.392   0.353   6.324
13085TIP3    H139188   6.471   0.307   6.294
13085TIP3    H239189   6.417   0.391   6.408
13086TIP3   OH239190   6.424   0.175   4.747
13086TIP3    H139191   6.394   0.135   4.828
13086TIP3    H239192   6.460   0.103   4.696
13087TIP3   OH239193   6.698   0.270   5.960
13087TIP3    H139194   6.616   0.319   5.963
13087TIP3    H239195   6.743   0.302   5.882
13088TIP3   OH239196   3.698   7.993   4.576
13088TIP3    H139197   3.672   7.984   4.484
13088TIP3    H239198   3.792   8.007   4.573
13089TIP3   OH239199   7.183   0.614   6.034
13089TIP3    H139200   7.278   0.603   6.035
13089TIP3    H239201   7.156   0.594   6.124
13090TIP3   OH239202   7.401   0.284   4.248
13090TIP3    H139203   7.372   0.247   4.165
13090TIP3    H239204   7.496   0.296   4.238
13091TIP3   OH239205   6.813   0.054   6.080
13091TIP3    H139206   6.817  -0.019   6.018
13091TIP3    H239207   6.772   0.125   6.030
13092TIP3   OH239208   3.984   7.871   5.876
13092TIP3    H139209   4.008   7.909   5.791
13092TIP3    H239210   3.893   7.846   5.866
13093TIP3   OH239211   6.867   0.363   5.769
13093TIP3    H139212   6.952   0.397   5.739
13093TIP3    H239213   6.803   0.414   5.720
13094TIP3   OH239214   7.425   0.324   6.148
13094TIP3    H139215   7.473   0.242   6.155
13094TIP3    H239216   7.492   0.391   6.142
13095TIP3   OH239217   7.468   0.546   5.859
13095TIP3    H139218   7.418   0.611   5.809
13095TIP3    H239219   7.560   0.566   5.838
13096TIP3   OH239220   6.678   0.148   6.309
13096TIP3    H139221   6.618   0.077   6.334
13096TIP3    H239222   6.716   0.118   6.226
13097TIP3   OH239223   4.105   7.636   5.971
13097TIP3    H139224   4.063   7.717   5.941
13097TIP3    H239225   4.037   7.569   5.960
13098TIP3   OH239226   7.071   0.096   6.176
13098TIP3    H139227   7.066   0.087   6.271
13098TIP3    H239228   6.983   0.076   6.145
13099TIP3   OH239229   7.303   0.030   6.023
13099TIP3    H139230   7.228   0.039   6.083
13099TIP3    H239231   7.378   0.015   6.081
13100TIP3   OH239232   4.700   8.022   6.178
13100TIP3    H139233   4.719   7.929   6.189
13100TIP3    H239234   4.697   8.057   6.267
13101TIP3   OH239235   3.699   7.934   6.379
13101TIP3    H139236   3.700   7.845   6.346
13101TIP3    H239237   3.733   7.927   6.468
13102TIP3   OH239238   4.175   7.617   6.236
13102TIP3    H139239   4.244   7.551   6.228
13102TIP3    H239240   4.141   7.627   6.147
13103TIP3   OH239241   4.261   7.843   6.368
13103TIP3    H139242   4.230   7.768   6.318
13103TIP3    H239243   4.186   7.902   6.373
13104TIP3   OH239244   5.785   0.348   4.738
13104TIP3    H139245   5.863   0.397   4.712
13104TIP3    H239246   5.782   0.274   4.678
13105TIP3   OH239247   7.688   1.080   5.914
13105TIP3    H139248   7.620   1.116   5.971
13105TIP3    H239249   7.770   1.117   5.947
13106TIP3   OH239250   7.469   0.504   4.583
13106TIP3    H139251   7.548   0.521   4.531
13106TIP3    H239252   7.502   0.485   4.671
13107TIP3   OH239253   7.559   0.441   4.833
13107TIP3    H139254   7.519   0.357   4.857
13107TIP3    H239255   7.652   0.430   4.852
13108TIP3   OH239256   7.689   0.735   5.227
13108TIP3    H139257   7.732   0.662   5.182
13108TIP3    H239258   7.655   0.791   5.157
13109TIP3   OH239259   4.447   7.960   4.395
13109TIP3    H139260   4.502   8.032   4.363
13109TIP3    H239261   4.483   7.882   4.353
13110TIP3   OH239262   7.405   0.222   4.921
13110TIP3    H139263   7.422   0.129   4.905
13110TIP3    H239264   7.403   0.230   5.016
13111TIP3   OH239265   6.046   0.277   5.671
13111TIP3    H139266   6.031   0.237   5.586
13111TIP3    H239267   6.140   0.272   5.684
13112TIP3   OH239268   7.726   0.609   5.797
13112TIP3    H139269   7.773   0.526   5.783
13112TIP3    H239270   7.768   0.670   5.737
13113TIP3   OH239271   4.530   7.693   4.322
13113TIP3    H139272   4.593   7.680   4.392
13113TIP3    H239273   4.449   7.654   4.356
13114TIP3   OH239274   4.595   7.969   4.801
13114TIP3    H139275   4.636   7.883   4.815
13114TIP3    H239276   4.648   8.009   4.732
13115TIP3   OH239277   7.578   0.117   5.315
13115TIP3    H139278   7.660   0.136   5.269
13115TIP3    H239279   7.587   0.163   5.399
13116TIP3   OH239280   7.624   0.273   5.538
13116TIP3    H139281   7.546   0.302   5.586
13116TIP3    H239282   7.662   0.353   5.503
13117TIP3   OH239283   3.433   7.979   6.333
13117TIP3    H139284   3.527   7.978   6.350
13117TIP3    H239285   3.400   7.900   6.375
13118TIP3   OH239286   5.280   7.871   6.085
13118TIP3    H139287   5.339   7.810   6.039
13118TIP3    H239288   5.241   7.924   6.015
13119TIP3   OH239289   4.697   7.719   4.856
13119TIP3    H139290   4.742   7.699   4.939
13119TIP3    H239291   4.637   7.645   4.844
13120TIP3   OH239292   3.396   7.702   5.673
13120TIP3    H139293   3.450   7.623   5.679
13120TIP3    H239294   3.459   7.774   5.666
13121TIP3   OH239295   3.183   7.961   5.738
13121TIP3    H139296   3.232   7.955   5.655
13121TIP3    H239297   3.228   8.030   5.787
13122TIP3   OH239298   5.139   7.997   5.898
13122TIP3    H139299   5.093   8.081   5.909
13122TIP3    H239300   5.081   7.946   5.841
13123TIP3   OH239301   4.754   7.662   4.488
13123TIP3    H139302   4.792   7.594   4.433
13123TIP3    H239303   4.820   7.732   4.489
13124TIP3   OH239304   3.174   7.479   5.245
13124TIP3    H139305   3.087   7.467   5.282
13124TIP3    H239306   3.160   7.532   5.167
13125TIP3   OH239307   3.392   7.533   6.041
13125TIP3    H139308   3.348   7.528   6.126
13125TIP3    H239309   3.333   7.584   5.986
13126TIP3   OH239310   5.020   7.769   5.774
13126TIP3    H139311   4.927   7.777   5.754
13126TIP3    H239312   5.043   7.679   5.749
13127TIP3   OH239313   4.165   7.651   5.366
13127TIP3    H139314   4.143   7.598   5.443
13127TIP3    H239315   4.260   7.647   5.360
13128TIP3   OH239316   4.932   7.700   5.182
13128TIP3    H139317   4.955   7.625   5.127
13128TIP3    H239318   4.928   7.774   5.122
13129TIP3   OH239319   3.479   7.379   5.414
13129TIP3    H139320   3.390   7.347   5.425
13129TIP3    H239321   3.533   7.300   5.407
13130TIP3   OH239322   3.298   7.289   5.069
13130TIP3    H139323   3.320   7.340   4.992
13130TIP3    H239324   3.261   7.353   5.130
13131TIP3   OH239325   3.944   7.430   5.303
13131TIP3    H139326   3.996   7.471   5.234
13131TIP3    H239327   3.990   7.452   5.384
13132TIP3   OH239328   4.437   7.615   5.339
13132TIP3    H139329   4.482   7.612   5.255
13132TIP3    H239330   4.448   7.527   5.375
13133TIP3   OH239331   4.513   7.513   4.847
13133TIP3    H139332   4.431   7.559   4.868
13133TIP3    H239333   4.502   7.425   4.884
13134TIP3   OH239334   3.404   7.420   4.830
13134TIP3    H139335   3.450   7.359   4.773
13134TIP3    H239336   3.473   7.477   4.865
13135TIP3   OH239337   3.891   7.609   4.929
13135TIP3    H139338   3.952   7.557   4.981
13135TIP3    H239339   3.907   7.699   4.957
13136TIP3   OH239340   3.702   7.665   6.295
13136TIP3    H139341   3.663   7.596   6.350
13136TIP3    H239342   3.793   7.669   6.324
13137TIP3   OH239343   3.950   7.670   6.420
13137TIP3    H139344   4.029   7.643   6.373
13137TIP3    H239345   3.936   7.600   6.484
13138TIP3   OH239346   4.778   7.757   6.199
13138TIP3    H139347   4.794   7.726   6.288
13138TIP3    H239348   4.864   7.754   6.157
13139TIP3   OH239349   0.279   0.642   4.479
13139TIP3    H139350   0.233   0.726   4.482
13139TIP3    H239351   0.215   0.582   4.442
13140TIP3   OH239352   0.250   0.625   4.868
13140TIP3    H139353   0.295   0.607   4.951
13140TIP3    H239354   0.212   0.541   4.843
13141TIP3   OH239355   8.105   0.524   5.214
13141TIP3    H139356   8.138   0.469   5.285
13141TIP3    H239357   8.184   0.562   5.175
13142TIP3   OH239358   0.435   0.989   4.675
13142TIP3    H139359   0.458   0.902   4.705
13142TIP3    H239360   0.510   1.044   4.699
13143TIP3   OH239361   8.194   0.848   4.995
13143TIP3    H139362   8.173   0.763   4.957
13143TIP3    H239363   8.252   0.890   4.931
13144TIP3   OH239364   7.825   0.444   4.902
13144TIP3    H139365   7.894   0.378   4.896
13144TIP3    H239366   7.851   0.512   4.839
13145TIP3   OH239367   0.132   0.880   4.881
13145TIP3    H139368   0.160   0.794   4.852
13145TIP3    H239369   0.212   0.923   4.910
13146TIP3   OH239370   1.107   0.217   4.895
13146TIP3    H139371   1.127   0.311   4.898
13146TIP3    H239372   1.073   0.203   4.806
13147TIP3   OH239373   0.514   0.371   4.926
13147TIP3    H139374   0.553   0.287   4.951
13147TIP3    H239375   0.474   0.354   4.840
13148TIP3   OH239376   8.375   0.027   4.873
13148TIP3    H139377   8.349   0.101   4.819
13148TIP3    H239378   8.324  -0.047   4.839
13149TIP3   OH239379   0.574   0.129   4.521
13149TIP3    H139380   0.645   0.129   4.586
13149TIP3    H239381   0.618   0.149   4.438
13150TIP3   OH239382   7.990   0.225   5.000
13150TIP3    H139383   8.075   0.210   5.040
13150TIP3    H239384   7.993   0.175   4.918
13151TIP3   OH239385   8.426   0.427   4.804
13151TIP3    H139386   8.518   0.399   4.813
13151TIP3    H239387   8.381   0.349   4.773
13152TIP3   OH239388   8.344   0.023   5.334
13152TIP3    H139389   8.288   0.065   5.269
13152TIP3    H239390   8.294   0.028   5.416
13153TIP3   OH239391   0.110   0.844   4.378
13153TIP3    H139392   0.028   0.803   4.349
13153TIP3    H239393   0.123   0.918   4.319
13154TIP3   OH239394   8.493   0.773   5.094
13154TIP3    H139395   8.436   0.838   5.135
13154TIP3    H239396   8.534   0.819   5.021
13155TIP3   OH239397   0.750   0.178   4.734
13155TIP3    H139398   0.706   0.129   4.804
13155TIP3    H239399   0.770   0.263   4.773
13156TIP3   OH239400   8.237   0.130   5.096
13156TIP3    H139401   8.293   0.202   5.125
13156TIP3    H239402   8.286   0.089   5.024
13157TIP3   OH239403   8.336   0.964   5.221
13157TIP3    H139404   8.304   0.992   5.136
13157TIP3    H239405   8.257   0.941   5.270
13158TIP3   OH239406   7.699   0.575   4.452
13158TIP3    H139407   7.664   0.594   4.365
13158TIP3    H239408   7.735   0.658   4.482
13159TIP3   OH239409   0.917   0.072   5.068
13159TIP3    H139410   0.831   0.085   5.028
13159TIP3    H239411   0.977   0.120   5.011
13160TIP3   OH239412   5.858   7.760   5.055
13160TIP3    H139413   5.848   7.667   5.076
13160TIP3    H239414   5.782   7.801   5.097
13161TIP3   OH239415   0.548   0.949   4.106
13161TIP3    H139416   0.475   0.913   4.156
13161TIP3    H239417   0.598   1.000   4.169
13162TIP3   OH239418   0.125   0.494   4.305
13162TIP3    H139419   0.042   0.540   4.290
13162TIP3    H239420   0.159   0.479   4.217
13163TIP3   OH239421   0.089   0.289   3.989
13163TIP3    H139422   0.155   0.343   4.034
13163TIP3    H239423   0.140   0.223   3.942
13164TIP3   OH239424   0.448   0.523   4.291
13164TIP3    H139425   0.405   0.567   4.365
13164TIP3    H239426   0.531   0.492   4.327
13165TIP3   OH239427   8.225   0.555   4.655
13165TIP3    H139428   8.175   0.488   4.607
13165TIP3    H239429   8.299   0.507   4.692
13166TIP3   OH239430   8.374   0.961   4.821
13166TIP3    H139431   8.370   0.961   4.726
13166TIP3    H239432   8.465   0.943   4.842
13167TIP3   OH239433   8.349   0.544   5.040
13167TIP3    H139434   8.382   0.513   4.956
13167TIP3    H239435   8.397   0.625   5.056
13168TIP3   OH239436   8.447   0.840   5.446
13168TIP3    H139437   8.487   0.909   5.499
13168TIP3    H239438   8.428   0.882   5.362
13169TIP3   OH239439   0.295   0.440   4.086
13169TIP3    H139440   0.355   0.485   4.146
13169TIP3    H239441   0.332   0.455   3.999
13170TIP3   OH239442   8.253   0.642   5.488
13170TIP3    H139443   8.301   0.725   5.490
13170TIP3    H239444   8.163   0.665   5.511
13171TIP3   OH239445   6.484   7.682   4.144
13171TIP3    H139446   6.404   7.698   4.195
13171TIP3    H239447   6.493   7.759   4.089
13172TIP3   OH239448   8.073   0.376   4.509
13172TIP3    H139449   8.022   0.428   4.448
13172TIP3    H239450   8.020   0.298   4.525
13173TIP3   OH239451   7.914   0.759   5.401
13173TIP3    H139452   7.845   0.745   5.335
13173TIP3    H239453   7.928   0.673   5.439
13174TIP3   OH239454   8.103   0.945   5.355
13174TIP3    H139455   8.062   1.006   5.416
13174TIP3    H239456   8.046   0.868   5.357
13175TIP3   OH239457   5.618   7.827   5.189
13175TIP3    H139458   5.537   7.793   5.150
13175TIP3    H239459   5.591   7.905   5.236
13176TIP3   OH239460   6.163   7.939   5.380
13176TIP3    H139461   6.231   7.909   5.440
13176TIP3    H239462   6.081   7.926   5.428
13177TIP3   OH239463   0.396   0.445   3.834
13177TIP3    H139464   0.360   0.434   3.746
13177TIP3    H239465   0.468   0.507   3.823
13178TIP3   OH239466   5.780   7.866   4.148
13178TIP3    H139467   5.741   7.876   4.235
13178TIP3    H239468   5.739   7.787   4.112
13179TIP3   OH239469   8.397   0.328   5.201
13179TIP3    H139470   8.358   0.344   5.287
13179TIP3    H239471   8.379   0.407   5.151
13180TIP3   OH239472   8.272   0.222   4.713
13180TIP3    H139473   8.181   0.202   4.735
13180TIP3    H239474   8.282   0.191   4.623
13181TIP3   OH239475   0.265   0.301   4.443
13181TIP3    H139476   0.212   0.369   4.401
13181TIP3    H239477   0.322   0.268   4.374
13182TIP3   OH239478   0.422   0.312   4.671
13182TIP3    H139479   0.355   0.335   4.607
13182TIP3    H239480   0.470   0.239   4.631
13183TIP3   OH239481   8.220   0.375   5.420
13183TIP3    H139482   8.245   0.459   5.456
13183TIP3    H239483   8.177   0.329   5.493
13184TIP3   OH239484   5.447   7.860   4.131
13184TIP3    H139485   5.433   7.860   4.225
13184TIP3    H239486   5.368   7.902   4.095
13185TIP3   OH239487   4.958   7.904   5.010
13185TIP3    H139488   5.038   7.952   5.029
13185TIP3    H239489   4.966   7.879   4.918
13186TIP3   OH239490   4.953   7.858   4.490
13186TIP3    H139491   5.027   7.839   4.432
13186TIP3    H239492   4.963   7.951   4.510
13187TIP3   OH239493   0.394   0.551   5.094
13187TIP3    H139494   0.446   0.498   5.034
13187TIP3    H239495   0.393   0.500   5.176
13188TIP3   OH239496   0.140   0.022   4.767
13188TIP3    H139497   0.059   0.022   4.817
13188TIP3    H239498   0.209   0.014   4.832
13189TIP3   OH239499   8.036   0.087   4.771
13189TIP3    H139500   7.974   0.102   4.700
13189TIP3    H239501   8.076   0.003   4.751
13190TIP3   OH239502   8.298   0.102   4.469
13190TIP3    H139503   8.390   0.117   4.445
13190TIP3    H239504   8.249   0.124   4.389
13191TIP3   OH239505   0.606   0.106   4.961
13191TIP3    H139506   0.600   0.115   5.056
13191TIP3    H239507   0.532   0.049   4.938
13192TIP3   OH239508   8.166   0.127   4.230
13192TIP3    H139509   8.098   0.078   4.184
13192TIP3    H239510   8.221   0.163   4.161
13193TIP3   OH239511   8.191   0.949   5.677
13193TIP3    H139512   8.258   1.004   5.719
13193TIP3    H239513   8.109   0.977   5.717
13194TIP3   OH239514   0.185   0.352   4.867
13194TIP3    H139515   0.253   0.301   4.822
13194TIP3    H239516   0.185   0.318   4.956
13195TIP3   OH239517   5.366   7.867   4.741
13195TIP3    H139518   5.330   7.794   4.790
13195TIP3    H239519   5.377   7.833   4.652
13196TIP3   OH239520   0.165   0.279   5.139
13196TIP3    H139521   0.076   0.305   5.163
13196TIP3    H239522   0.221   0.324   5.202
13197TIP3   OH239523   8.396   0.647   4.272
13197TIP3    H139524   8.330   0.583   4.245
13197TIP3    H239525   8.359   0.688   4.350
13198TIP3   OH239526   6.031   7.966   4.152
13198TIP3    H139527   5.939   7.943   4.148
13198TIP3    H239528   6.031   8.062   4.163
13199TIP3   OH239529   0.418   0.215   4.225
13199TIP3    H139530   0.513   0.218   4.232
13199TIP3    H239531   0.395   0.290   4.170
13200TIP3   OH239532   8.108   0.606   4.904
13200TIP3    H139533   8.125   0.591   4.811
13200TIP3    H239534   8.171   0.550   4.949
13201TIP3   OH239535   8.487   0.821   4.073
13201TIP3    H139536   8.403   0.842   4.032
13201TIP3    H239537   8.465   0.755   4.139
13202TIP3   OH239538   7.961   0.552   5.576
13202TIP3    H139539   8.007   0.480   5.620
13202TIP3    H239540   7.887   0.509   5.533
13203TIP3   OH239541   0.819   0.303   4.056
13203TIP3    H139542   0.767   0.266   3.985
13203TIP3    H239543   0.883   0.360   4.013
13204TIP3   OH239544   0.487   0.743   4.783
13204TIP3    H139545   0.404   0.696   4.793
13204TIP3    H239546   0.545   0.680   4.740
13205TIP3   OH239547   7.734   0.299   4.278
13205TIP3    H139548   7.804   0.364   4.276
13205TIP3    H239549   7.745   0.254   4.362
13206TIP3   OH239550   8.294   0.767   4.495
13206TIP3    H139551   8.218   0.825   4.504
13206TIP3    H239552   8.275   0.695   4.555
13207TIP3   OH239553   0.389   0.907   4.991
13207TIP3    H139554   0.404   0.843   5.061
13207TIP3    H239555   0.438   0.873   4.916
13208TIP3   OH239556   0.339   0.842   3.817
13208TIP3    H139557   0.372   0.776   3.877
13208TIP3    H239558   0.246   0.820   3.806
13209TIP3   OH239559   8.201   0.036   5.570
13209TIP3    H139560   8.164   0.116   5.607
13209TIP3    H239561   8.245  -0.006   5.644
13210TIP3   OH239562   0.484   0.692   4.006
13210TIP3    H139563   0.431   0.717   4.082
13210TIP3    H239564   0.544   0.766   3.994
13211TIP3   OH239565   8.235   0.773   3.969
13211TIP3    H139566   8.241   0.701   3.906
13211TIP3    H239567   8.165   0.747   4.028
13212TIP3   OH239568   7.925   0.507   4.322
13212TIP3    H139569   7.848   0.520   4.378
13212TIP3    H239570   7.935   0.591   4.276
13213TIP3   OH239571   0.571   0.142   5.226
13213TIP3    H139572   0.538   0.215   5.279
13213TIP3    H239573   0.546   0.064   5.277
13214TIP3   OH239574   6.088   7.926   4.423
13214TIP3    H139575   6.067   7.943   4.331
13214TIP3    H239576   6.129   8.006   4.454
13215TIP3   OH239577   0.083   0.105   4.507
13215TIP3    H139578   0.145   0.175   4.485
13215TIP3    H239579   0.098   0.089   4.601
13216TIP3   OH239580   0.332   0.413   5.330
13216TIP3    H139581   0.270   0.484   5.343
13216TIP3    H239582   0.357   0.387   5.419
13217TIP3   OH239583   5.901   7.826   4.602
13217TIP3    H139584   5.875   7.904   4.651
13217TIP3    H239585   5.968   7.857   4.541
13218TIP3   OH239586   5.417   7.847   4.415
13218TIP3    H139587   5.408   7.939   4.440
13218TIP3    H239588   5.511   7.830   4.415
13219TIP3   OH239589   0.620   0.515   4.673
13219TIP3    H139590   0.545   0.455   4.678
13219TIP3    H239591   0.681   0.483   4.740
13220TIP3   OH239592   7.939   0.755   4.178
13220TIP3    H139593   7.919   0.835   4.129
13220TIP3    H239594   7.951   0.688   4.111
13221TIP3   OH239595   7.830   0.007   4.242
13221TIP3    H139596   7.864   0.065   4.310
13221TIP3    H239597   7.753  -0.034   4.281
13222TIP3   OH239598   5.359   7.734   5.131
13222TIP3    H139599   5.328   7.709   5.044
13222TIP3    H239600   5.347   7.656   5.185
13223TIP3   OH239601   8.021   0.767   5.834
13223TIP3    H139602   8.099   0.738   5.787
13223TIP3    H239603   7.958   0.790   5.765
13224TIP3   OH239604   8.029   0.545   4.024
13224TIP3    H139605   8.076   0.506   4.098
13224TIP3    H239606   8.089   0.536   3.950
13225TIP3   OH239607   0.086   0.740   3.822
13225TIP3    H139608   0.046   0.762   3.906
13225TIP3    H239609   0.057   0.651   3.804
13226TIP3   OH239610   8.209   0.450   4.217
13226TIP3    H139611   8.160   0.406   4.288
13226TIP3    H239612   8.248   0.378   4.167
13227TIP3   OH239613   8.495   0.515   5.423
13227TIP3    H139614   8.423   0.572   5.451
13227TIP3    H239615   8.550   0.571   5.368
13228TIP3   OH239616   8.323   0.262   4.052
13228TIP3    H139617   8.291   0.258   3.962
13228TIP3    H239618   8.419   0.265   4.043
13229TIP3   OH239619   0.601   0.581   3.695
13229TIP3    H139620   0.588   0.531   3.615
13229TIP3    H239621   0.585   0.672   3.670
13230TIP3   OH239622   0.095   0.301   5.553
13230TIP3    H139623   0.095   0.225   5.494
13230TIP3    H239624   0.054   0.371   5.502
13231TIP3   OH239625   0.107   0.097   5.357
13231TIP3    H139626   0.132   0.137   5.274
13231TIP3    H239627   0.014   0.077   5.348
13232TIP3   OH239628   0.169   0.628   5.243
13232TIP3    H139629   0.241   0.619   5.181
13232TIP3    H239630   0.105   0.682   5.197
13233TIP3   OH239631   8.497   0.397   5.797
13233TIP3    H139632   8.444   0.320   5.820
13233TIP3    H239633   8.519   0.383   5.705
13234TIP3   OH239634   5.897   7.883   5.458
13234TIP3    H139635   5.856   7.963   5.425
13234TIP3    H239636   5.831   7.815   5.445
13235TIP3   OH239637   0.360   0.351   5.601
13235TIP3    H139638   0.379   0.341   5.694
13235TIP3    H239639   0.267   0.331   5.594
13236TIP3   OH239640   8.355   0.175   5.879
13236TIP3    H139641   8.312   0.107   5.827
13236TIP3    H239642   8.283   0.232   5.907
13237TIP3   OH239643   5.968   7.872   5.723
13237TIP3    H139644   6.045   7.816   5.715
13237TIP3    H239645   5.936   7.881   5.634
13238TIP3   OH239646   0.385   0.060   5.896
13238TIP3    H139647   0.356  -0.005   5.832
13238TIP3    H239648   0.334   0.138   5.877
13239TIP3   OH239649   7.655   0.622   4.184
13239TIP3    H139650   7.679   0.680   4.112
13239TIP3    H239651   7.631   0.539   4.142
13240TIP3   OH239652   0.813   0.875   4.188
13240TIP3    H139653   0.860   0.943   4.141
13240TIP3    H239654   0.754   0.838   4.122
13241TIP3   OH239655   0.776   0.701   4.406
13241TIP3    H139656   0.732   0.624   4.369
13241TIP3    H239657   0.778   0.764   4.334
13242TIP3   OH239658   0.801   0.544   3.875
13242TIP3    H139659   0.732   0.524   3.811
13242TIP3    H239660   0.781   0.633   3.904
13243TIP3   OH239661   0.676   0.199   3.843
13243TIP3    H139662   0.635   0.234   3.764
13243TIP3    H239663   0.674   0.104   3.831
13244TIP3   OH239664   0.672   0.438   4.408
13244TIP3    H139665   0.708   0.350   4.394
13244TIP3    H239666   0.675   0.451   4.502
13245TIP3   OH239667   7.840   0.511   5.165
13245TIP3    H139668   7.825   0.484   5.075
13245TIP3    H239669   7.935   0.516   5.174
13246TIP3   OH239670   6.306   7.939   3.802
13246TIP3    H139671   6.369   7.913   3.870
13246TIP3    H239672   6.223   7.902   3.832
13247TIP3   OH239673   0.706   0.184   4.280
13247TIP3    H139674   0.747   0.097   4.282
13247TIP3    H239675   0.740   0.224   4.200
13248TIP3   OH239676   0.833   0.425   4.830
13248TIP3    H139677   0.889   0.482   4.778
13248TIP3    H239678   0.846   0.454   4.920
13249TIP3   OH239679   6.486   7.950   4.314
13249TIP3    H139680   6.534   7.945   4.397
13249TIP3    H239681   6.422   7.879   4.319
13250TIP3   OH239682   5.201   7.962   5.169
13250TIP3    H139683   5.255   7.883   5.160
13250TIP3    H239684   5.259   8.034   5.145
13251TIP3   OH239685   7.817   0.213   5.219
13251TIP3    H139686   7.864   0.202   5.137
13251TIP3    H239687   7.834   0.304   5.244
13252TIP3   OH239688   6.523   7.887   3.964
13252TIP3    H139689   6.571   7.827   3.908
13252TIP3    H239690   6.575   7.968   3.963
13253TIP3   OH239691   4.957   7.789   4.761
13253TIP3    H139692   4.869   7.751   4.768
13253TIP3    H239693   4.967   7.810   4.668
13254TIP3   OH239694   5.210   7.823   5.567
13254TIP3    H139695   5.151   7.832   5.642
13254TIP3    H239696   5.244   7.911   5.553
13255TIP3   OH239697   6.823   8.026   5.234
13255TIP3    H139698   6.732   8.033   5.205
13255TIP3    H239699   6.838   7.933   5.247
13256TIP3   OH239700   6.039   7.950   4.907
13256TIP3    H139701   5.995   7.881   4.956
13256TIP3    H239702   6.103   7.904   4.853
13257TIP3   OH239703   6.521   7.870   4.829
13257TIP3    H139704   6.563   7.888   4.744
13257TIP3    H239705   6.427   7.868   4.809
13258TIP3   OH239706   6.645   7.871   4.580
13258TIP3    H139707   6.716   7.813   4.557
13258TIP3    H239708   6.669   7.956   4.542
13259TIP3   OH239709   5.262   7.652   4.883
13259TIP3    H139710   5.176   7.639   4.842
13259TIP3    H239711   5.310   7.572   4.864
13260TIP3   OH239712   5.754   7.680   4.793
13260TIP3    H139713   5.798   7.726   4.722
13260TIP3    H239714   5.782   7.724   4.873
13261TIP3   OH239715   6.247   7.829   4.766
13261TIP3    H139716   6.244   7.794   4.677
13261TIP3    H239717   6.249   7.751   4.822
13262TIP3   OH239718   6.295   7.757   4.337
13262TIP3    H139719   6.216   7.805   4.359
13262TIP3    H239720   6.282   7.670   4.376
13263TIP3   OH239721   5.202   7.717   4.287
13263TIP3    H139722   5.241   7.637   4.252
13263TIP3    H239723   5.270   7.755   4.343
13264TIP3   OH239724   5.693   7.871   4.410
13264TIP3    H139725   5.749   7.817   4.466
13264TIP3    H239726   5.708   7.961   4.439
13265TIP3   OH239727   5.491   7.903   5.774
13265TIP3    H139728   5.453   7.841   5.836
13265TIP3    H239729   5.578   7.922   5.810
13266TIP3   OH239730   5.734   7.910   5.907
13266TIP3    H139731   5.814   7.913   5.854
13266TIP3    H239732   5.751   7.842   5.972
13267TIP3   OH239733   0.975   0.386   4.281
13267TIP3    H139734   0.988   0.477   4.255
13267TIP3    H239735   0.911   0.352   4.218
13268TIP3   OH239736   1.152   0.777   4.410
13268TIP3    H139737   1.154   0.682   4.421
13268TIP3    H239738   1.227   0.796   4.353
13269TIP3   OH239739   1.617   0.242   4.368
13269TIP3    H139740   1.664   0.248   4.285
13269TIP3    H239741   1.542   0.185   4.350
13270TIP3   OH239742   1.207   0.517   4.465
13270TIP3    H139743   1.279   0.546   4.521
13270TIP3    H239744   1.250   0.473   4.391
13271TIP3   OH239745   0.942   1.006   3.941
13271TIP3    H139746   0.985   0.993   3.857
13271TIP3    H239747   0.907   1.095   3.937
13272TIP3   OH239748   1.337   0.558   3.861
13272TIP3    H139749   1.262   0.619   3.863
13272TIP3    H239750   1.334   0.515   3.947
13273TIP3   OH239751   1.627   0.425   4.126
13273TIP3    H139752   1.535   0.421   4.154
13273TIP3    H239753   1.634   0.508   4.079
13274TIP3   OH239754   1.548   0.075   3.579
13274TIP3    H139755   1.536   0.072   3.674
13274TIP3    H239756   1.487   0.142   3.550
13275TIP3   OH239757   1.034   0.079   4.444
13275TIP3    H139758   1.036   0.150   4.507
13275TIP3    H239759   1.063   0.119   4.362
13276TIP3   OH239760   1.017   0.097   3.942
13276TIP3    H139761   1.111   0.083   3.952
13276TIP3    H239762   0.999   0.177   3.991
13277TIP3   OH239763   1.391   0.417   4.296
13277TIP3    H139764   1.358   0.399   4.208
13277TIP3    H239765   1.400   0.331   4.337
13278TIP3   OH239766   1.435   0.331   3.746
13278TIP3    H139767   1.353   0.300   3.708
13278TIP3    H239768   1.412   0.414   3.788
13279TIP3   OH239769   1.476   0.106   4.172
13279TIP3    H139770   1.467   0.011   4.171
13279TIP3    H239771   1.565   0.123   4.141
13280TIP3   OH239772   1.004   0.487   3.700
13280TIP3    H139773   1.059   0.565   3.708
13280TIP3    H239774   0.935   0.500   3.765
13281TIP3   OH239775   1.531   0.113   3.864
13281TIP3    H139776   1.513   0.197   3.821
13281TIP3    H239777   1.626   0.107   3.865
13282TIP3   OH239778   1.152   0.267   3.754
13282TIP3    H139779   1.097   0.336   3.717
13282TIP3    H239780   1.093   0.193   3.767
13283TIP3   OH239781   7.195   7.893   4.604
13283TIP3    H139782   7.226   7.903   4.514
13283TIP3    H239783   7.100   7.901   4.598
13284TIP3   OH239784   0.931   0.863   3.673
13284TIP3    H139785   0.962   0.942   3.629
13284TIP3    H239786   0.913   0.802   3.602
13285TIP3   OH239787   1.299   0.134   4.699
13285TIP3    H139788   1.391   0.112   4.718
13285TIP3    H239789   1.264   0.167   4.781
13286TIP3   OH239790   1.170   0.476   4.740
13286TIP3    H139791   1.131   0.457   4.655
13286TIP3    H239792   1.197   0.568   4.734
13287TIP3   OH239793   6.742   7.932   4.183
13287TIP3    H139794   6.652   7.930   4.216
13287TIP3    H239795   6.764   8.025   4.180
13288TIP3   OH239796   1.286   0.019   4.991
13288TIP3    H139797   1.272   0.017   5.085
13288TIP3    H239798   1.223   0.083   4.958
13289TIP3   OH239799   6.988   7.916   4.407
13289TIP3    H139800   6.900   7.879   4.414
13289TIP3    H239801   7.044   7.842   4.385
13290TIP3   OH239802   6.886   7.761   4.025
13290TIP3    H139803   6.879   7.791   3.934
13290TIP3    H239804   6.828   7.819   4.074
13291TIP3   OH239805   7.542   7.971   4.292
13291TIP3    H139806   7.576   8.003   4.209
13291TIP3    H239807   7.537   8.048   4.349
13292TIP3   OH239808   6.935   7.872   3.766
13292TIP3    H139809   7.011   7.835   3.722
13292TIP3    H239810   6.971   7.938   3.825
13293TIP3   OH239811   1.802   0.121   3.847
13293TIP3    H139812   1.866   0.060   3.811
13293TIP3    H239813   1.850   0.204   3.854
13294TIP3   OH239814   7.454   5.712   1.082
13294TIP3    H139815   7.461   5.762   1.000
13294TIP3    H239816   7.514   5.638   1.071
13295TIP3   OH239817   7.011   5.987   1.038
13295TIP3    H139818   7.027   5.895   1.018
13295TIP3    H239819   7.081   6.011   1.098
13296TIP3   OH239820   7.181   5.154   1.202
13296TIP3    H139821   7.128   5.104   1.139
13296TIP3    H239822   7.265   5.108   1.204
13297TIP3   OH239823   7.245   5.674   1.270
13297TIP3    H139824   7.251   5.703   1.361
13297TIP3    H239825   7.336   5.673   1.239
13298TIP3   OH239826   7.475   6.100   1.022
13298TIP3    H139827   7.522   6.135   0.946
13298TIP3    H239828   7.383   6.101   0.997
13299TIP3   OH239829   6.612   5.711   1.081
13299TIP3    H139830   6.553   5.644   1.114
13299TIP3    H239831   6.698   5.670   1.082
13300TIP3   OH239832   7.128   5.733   1.024
13300TIP3    H139833   7.168   5.711   1.108
13300TIP3    H239834   7.192   5.791   0.982
13301TIP3   OH239835   7.394   5.232   0.975
13301TIP3    H139836   7.486   5.210   0.981
13301TIP3    H239837   7.392   5.328   0.971
13302TIP3   OH239838   7.735   5.286   1.240
13302TIP3    H139839   7.655   5.234   1.241
13302TIP3    H239840   7.724   5.347   1.313
13303TIP3   OH239841   7.442   6.126   1.298
13303TIP3    H139842   7.462   6.033   1.311
13303TIP3    H239843   7.441   6.137   1.203
13304TIP3   OH239844   0.311   5.632   1.304
13304TIP3    H139845   0.304   5.714   1.255
13304TIP3    H239846   0.278   5.565   1.244
13305TIP3   OH239847   0.688   5.812   1.252
13305TIP3    H139848   0.644   5.744   1.303
13305TIP3    H239849   0.712   5.878   1.317
13306TIP3   OH239850   0.275   6.369   1.328
13306TIP3    H139851   0.353   6.314   1.323
13306TIP3    H239852   0.261   6.383   1.422
13307TIP3   OH239853   0.270   5.845   1.138
13307TIP3    H139854   0.251   5.819   1.048
13307TIP3    H239855   0.226   5.930   1.147
13308TIP3   OH239856   7.783   5.593   1.206
13308TIP3    H139857   7.702   5.569   1.251
13308TIP3    H239858   7.786   5.689   1.212
13309TIP3   OH239859   0.740   6.033   1.408
13309TIP3    H139860   0.648   6.028   1.436
13309TIP3    H239861   0.764   6.124   1.423
13310TIP3   OH239862   0.418   6.174   1.125
13310TIP3    H139863   0.473   6.100   1.101
13310TIP3    H239864   0.475   6.251   1.114
13311TIP3   OH239865   0.581   5.967   1.052
13311TIP3    H139866   0.559   5.899   0.988
13311TIP3    H239867   0.617   5.919   1.127
13312TIP3   OH239868   0.219   5.471   1.099
13312TIP3    H139869   0.136   5.511   1.070
13312TIP3    H239870   0.270   5.463   1.018
13313TIP3   OH239871   0.198   5.248   0.799
13313TIP3    H139872   0.265   5.308   0.834
13313TIP3    H239873   0.238   5.161   0.806
13314TIP3   OH239874   0.569   5.550   1.062
13314TIP3    H139875   0.567   5.571   1.155
13314TIP3    H239876   0.632   5.479   1.055
13315TIP3   OH239877   0.514   6.238   1.656
13315TIP3    H139878   0.587   6.260   1.713
13315TIP3    H239879   0.476   6.159   1.695
13316TIP3   OH239880   0.396   5.427   0.887
13316TIP3    H139881   0.457   5.480   0.938
13316TIP3    H239882   0.425   5.439   0.796
13317TIP3   OH239883   0.155   6.097   1.159
13317TIP3    H139884   0.242   6.136   1.162
13317TIP3    H239885   0.102   6.160   1.112
13318TIP3   OH239886   8.219   5.324   1.256
13318TIP3    H139887   8.165   5.402   1.244
13318TIP3    H239888   8.248   5.329   1.347
13319TIP3   OH239889   0.740   6.019   0.509
13319TIP3    H139890   0.741   6.113   0.492
13319TIP3    H239891   0.823   5.988   0.473
13320TIP3   OH239892   0.051   6.307   0.982
13320TIP3    H139893   0.008   6.291   0.898
13320TIP3    H239894   0.024   6.395   1.006
13321TIP3   OH239895   8.102   6.126   1.417
13321TIP3    H139896   8.087   6.114   1.511
13321TIP3    H239897   8.014   6.133   1.380
13322TIP3   OH239898   0.260   6.236   0.611
13322TIP3    H139899   0.310   6.163   0.575
13322TIP3    H239900   0.294   6.246   0.700
13323TIP3   OH239901   0.307   6.277   0.884
13323TIP3    H139902   0.219   6.283   0.922
13323TIP3    H239903   0.361   6.239   0.953
13324TIP3   OH239904   0.483   5.446   0.632
13324TIP3    H139905   0.443   5.416   0.550
13324TIP3    H239906   0.573   5.469   0.609
13325TIP3   OH239907   0.332   5.253   1.227
13325TIP3    H139908   0.289   5.333   1.198
13325TIP3    H239909   0.387   5.226   1.154
13326TIP3   OH239910   8.409   5.043   1.273
13326TIP3    H139911   8.492   5.033   1.226
13326TIP3    H239912   8.344   5.058   1.205
13327TIP3   OH239913   8.274   5.075   1.025
13327TIP3    H139914   8.210   5.034   0.966
13327TIP3    H239915   8.336   5.117   0.966
13328TIP3   OH239916   8.476   5.604   1.035
13328TIP3    H139917   8.411   5.536   1.017
13328TIP3    H239918   8.455   5.633   1.124
13329TIP3   OH239919   0.346   5.006   0.836
13329TIP3    H139920   0.369   4.918   0.863
13329TIP3    H239921   0.385   5.063   0.902
13330TIP3   OH239922   0.468   5.178   1.004
13330TIP3    H139923   0.555   5.137   1.003
13330TIP3    H239924   0.481   5.262   0.960
13331TIP3   OH239925   0.145   5.763   0.892
13331TIP3    H139926   0.097   5.846   0.888
13331TIP3    H239927   0.087   5.704   0.939
13332TIP3   OH239928   0.694   6.090   0.778
13332TIP3    H139929   0.655   6.022   0.834
13332TIP3    H239930   0.705   6.046   0.693
13333TIP3   OH239931   8.287   5.945   1.318
13333TIP3    H139932   8.329   6.011   1.263
13333TIP3    H239933   8.225   5.994   1.372
13334TIP3   OH239934   7.937   5.155   1.062
13334TIP3    H139935   8.009   5.217   1.047
13334TIP3    H239936   7.863   5.209   1.087
13335TIP3   OH239937   8.421   5.709   1.279
13335TIP3    H139938   8.373   5.789   1.298
13335TIP3    H239939   8.495   5.709   1.340
13336TIP3   OH239940   8.271   6.195   1.195
13336TIP3    H139941   8.204   6.188   1.264
13336TIP3    H239942   8.305   6.284   1.204
13337TIP3   OH239943   0.430   5.816   0.656
13337TIP3    H139944   0.473   5.792   0.738
13337TIP3    H239945   0.348   5.767   0.657
13338TIP3   OH239946   0.763   6.293   0.476
13338TIP3    H139947   0.775   6.350   0.400
13338TIP3    H239948   0.692   6.332   0.525
13339TIP3   OH239949   0.587   5.753   0.878
13339TIP3    H139950   0.564   5.686   0.942
13339TIP3    H239951   0.681   5.741   0.863
13340TIP3   OH239952   8.307   5.775   0.678
13340TIP3    H139953   8.315   5.684   0.649
13340TIP3    H239954   8.294   5.768   0.773
13341TIP3   OH239955   8.249   5.795   0.948
13341TIP3    H139956   8.326   5.770   0.999
13341TIP3    H239957   8.246   5.890   0.955
13342TIP3   OH239958   8.045   5.519   1.195
13342TIP3    H139959   7.951   5.532   1.203
13342TIP3    H239960   8.080   5.608   1.180
13343TIP3   OH239961   8.493   5.989   0.889
13343TIP3    H139962   8.406   6.016   0.918
13343TIP3    H239963   8.524   6.061   0.834
13344TIP3   OH239964   0.186   5.023   1.213
13344TIP3    H139965   0.222   5.112   1.212
13344TIP3    H239966   0.260   4.966   1.195
13345TIP3   OH239967   8.232   6.070   0.958
13345TIP3    H139968   8.223   6.138   0.892
13345TIP3    H239969   8.249   6.117   1.039
13346TIP3   OH239970   8.002   5.679   0.918
13346TIP3    H139971   8.073   5.739   0.939
13346TIP3    H239972   8.043   5.609   0.868
13347TIP3   OH239973   7.981   4.888   0.997
13347TIP3    H139974   7.971   4.972   1.042
13347TIP3    H239975   7.909   4.835   1.030
13348TIP3   OH239976   0.761   6.408   1.402
13348TIP3    H139977   0.683   6.354   1.391
13348TIP3    H239978   0.744   6.486   1.350
13349TIP3   OH239979   7.780   5.847   1.345
13349TIP3    H139980   7.783   5.913   1.415
13349TIP3    H239981   7.800   5.897   1.265
13350TIP3   OH239982   8.450   5.983   0.569
13350TIP3    H139983   8.406   5.911   0.613
13350TIP3    H239984   8.525   5.943   0.524
13351TIP3   OH239985   0.388   6.028   0.487
13351TIP3    H139986   0.419   5.961   0.548
13351TIP3    H239987   0.446   6.021   0.411
13352TIP3   OH239988   8.125   5.472   0.797
13352TIP3    H139989   8.178   5.442   0.871
13352TIP3    H239990   8.188   5.485   0.726
13353TIP3   OH239991   0.179   5.697   0.624
13353TIP3    H139992   0.158   5.710   0.717
13353TIP3    H239993   0.165   5.604   0.609
13354TIP3   OH239994   8.296   5.397   1.000
13354TIP3    H139995   8.276   5.357   1.085
13354TIP3    H239996   8.345   5.329   0.953
13355TIP3   OH239997   8.430   5.216   0.848
13355TIP3    H139998   8.397   5.220   0.758
13355TIP3    H239999   8.525   5.225   0.839
13356TIP3   OH240000   0.719   5.529   0.511
13356TIP3    H140001   0.701   5.484   0.429
13356TIP3    H240002   0.694   5.620   0.496
13357TIP3   OH240003   8.249   6.280   0.783
13357TIP3    H140004   8.338   6.263   0.752
13357TIP3    H240005   8.207   6.326   0.710
13358TIP3   OH240006   7.744   5.663   0.850
13358TIP3    H140007   7.837   5.669   0.871
13358TIP3    H240008   7.728   5.569   0.839
13359TIP3   OH240009   7.628   6.341   1.336
13359TIP3    H140010   7.556   6.304   1.286
13359TIP3    H240011   7.600   6.336   1.427
13360TIP3   OH240012   0.956   6.567   1.187
13360TIP3    H140013   0.911   6.580   1.270
13360TIP3    H240014   0.962   6.655   1.148
13361TIP3   OH240015   0.861   5.705   0.881
13361TIP3    H140016   0.902   5.777   0.833
13361TIP3    H240017   0.925   5.683   0.949
13362TIP3   OH240018   0.904   5.493   0.707
13362TIP3    H140019   0.838   5.497   0.638
13362TIP3    H240020   0.880   5.562   0.768
13363TIP3   OH240021   0.694   5.169   0.649
13363TIP3    H140022   0.763   5.225   0.614
13363TIP3    H240023   0.740   5.094   0.686
13364TIP3   OH240024   0.562   6.392   1.050
13364TIP3    H140025   0.619   6.388   0.973
13364TIP3    H240026   0.606   6.452   1.110
13365TIP3   OH240027   0.212   6.454   1.584
13365TIP3    H140028   0.129   6.490   1.555
13365TIP3    H240029   0.247   6.520   1.644
13366TIP3   OH240030   0.448   6.505   1.743
13366TIP3    H140031   0.437   6.426   1.691
13366TIP3    H240032   0.515   6.555   1.698
13367TIP3   OH240033   0.641   6.645   1.602
13367TIP3    H140034   0.614   6.732   1.573
13367TIP3    H240035   0.691   6.609   1.529
13368TIP3   OH240036   7.738   6.129   1.109
13368TIP3    H140037   7.657   6.077   1.114
13368TIP3    H240038   7.725   6.186   1.033
13369TIP3   OH240039   0.005   6.210   0.712
13369TIP3    H140040   0.088   6.237   0.674
13369TIP3    H240041  -0.024   6.137   0.655
13370TIP3   OH240042   0.713   6.359   0.815
13370TIP3    H140043   0.712   6.263   0.808
13370TIP3    H240044   0.665   6.389   0.738
13371TIP3   OH240045   7.897   6.120   0.756
13371TIP3    H140046   7.821   6.071   0.787
13371TIP3    H240047   7.962   6.052   0.736
13372TIP3   OH240048   0.998   5.898   0.750
13372TIP3    H140049   1.042   5.860   0.674
13372TIP3    H240050   1.016   5.992   0.745
13373TIP3   OH240051   1.834   6.583   0.489
13373TIP3    H140052   1.816   6.558   0.399
13373TIP3    H240053   1.805   6.674   0.495
13374TIP3   OH240054   1.264   6.471   0.826
13374TIP3    H140055   1.304   6.403   0.880
13374TIP3    H240056   1.177   6.438   0.806
13375TIP3   OH240057   2.025   6.499   0.091
13375TIP3    H140058   2.059   6.431   0.034
13375TIP3    H240059   2.042   6.467   0.180
13376TIP3   OH240060   1.120   5.494   0.540
13376TIP3    H140061   1.149   5.585   0.546
13376TIP3    H240062   1.048   5.488   0.603
13377TIP3   OH240063   1.504   6.441   0.681
13377TIP3    H140064   1.415   6.445   0.716
13377TIP3    H240065   1.534   6.532   0.683
13378TIP3   OH240066   1.602   6.046   0.158
13378TIP3    H140067   1.602   5.954   0.131
13378TIP3    H240068   1.553   6.047   0.240
13379TIP3   OH240069   1.496   6.082   0.419
13379TIP3    H140070   1.451   6.063   0.502
13379TIP3    H240071   1.508   6.177   0.419
13380TIP3   OH240072   1.181   5.772   0.584
13380TIP3    H140073   1.261   5.763   0.636
13380TIP3    H240074   1.205   5.834   0.515
13381TIP3   OH240075   1.805   6.227   0.358
13381TIP3    H140076   1.720   6.270   0.367
13381TIP3    H240077   1.859   6.291   0.310
13382TIP3   OH240078   1.558   6.346   0.428
13382TIP3    H140079   1.529   6.416   0.370
13382TIP3    H240080   1.541   6.380   0.516
13383TIP3   OH240081   1.243   5.956   0.385
13383TIP3    H140082   1.292   6.035   0.362
13383TIP3    H240083   1.285   5.887   0.333
13384TIP3   OH240084   1.078   5.212   0.598
13384TIP3    H140085   1.094   5.301   0.567
13384TIP3    H240086   1.165   5.176   0.615
13385TIP3   OH240087   1.095   6.156   0.797
13385TIP3    H140088   1.065   6.207   0.872
13385TIP3    H240089   1.079   6.213   0.721
13386TIP3   OH240090   1.728   6.268   0.060
13386TIP3    H140091   1.682   6.193   0.098
13386TIP3    H240092   1.795   6.229   0.003
13387TIP3   OH240093   7.787   2.289   6.884
13387TIP3    H140094   7.824   2.217   6.935
13387TIP3    H240095   7.842   2.293   6.806
13388TIP3   OH240096   1.387   5.763   0.260
13388TIP3    H140097   1.426   5.721   0.336
13388TIP3    H240098   1.458   5.766   0.196
13389TIP3   OH240099   1.915   6.016   0.106
13389TIP3    H140100   1.848   6.044   0.167
13389TIP3    H240101   1.910   5.920   0.107
13390TIP3   OH240102   1.519   6.556   0.258
13390TIP3    H140103   1.614   6.548   0.244
13390TIP3    H240104   1.486   6.597   0.178
13391TIP3   OH240105   0.973   5.929   0.397
13391TIP3    H140106   1.067   5.945   0.407
13391TIP3    H240107   0.967   5.835   0.380
13392TIP3   OH240108   0.917   6.530   0.879
13392TIP3    H140109   0.848   6.475   0.842
13392TIP3    H240110   0.963   6.472   0.940
13393TIP3   OH240111   1.063   6.355   1.038
13393TIP3    H140112   1.114   6.290   1.087
13393TIP3    H240113   1.032   6.416   1.105
13394TIP3   OH240114   1.019   6.323   0.592
13394TIP3    H140115   0.934   6.287   0.570
13394TIP3    H240116   1.015   6.415   0.564
13395TIP3   OH240117   1.780   6.492   0.213
13395TIP3    H140118   1.857   6.525   0.167
13395TIP3    H240119   1.749   6.420   0.159
13396TIP3   OH240120   1.097   6.314   0.257
13396TIP3    H140121   1.090   6.322   0.352
13396TIP3    H240122   1.176   6.263   0.242
13397TIP3   OH240123   5.286   7.232   1.225
13397TIP3    H140124   5.361   7.264   1.175
13397TIP3    H240125   5.303   7.139   1.237
13398TIP3   OH240126   5.282   7.681   1.179
13398TIP3    H140127   5.279   7.718   1.091
13398TIP3    H240128   5.224   7.605   1.175
13399TIP3   OH240129   6.759   7.172   1.548
13399TIP3    H140130   6.732   7.242   1.489
13399TIP3    H240131   6.685   7.112   1.549
13400TIP3   OH240132   7.006   7.561   1.510
13400TIP3    H140133   6.982   7.472   1.537
13400TIP3    H240134   7.089   7.578   1.553
13401TIP3   OH240135   6.611   7.940   1.477
13401TIP3    H140136   6.668   7.870   1.445
13401TIP3    H240137   6.600   7.921   1.570
13402TIP3   OH240138   6.555   7.332   1.405
13402TIP3    H140139   6.605   7.368   1.331
13402TIP3    H240140   6.540   7.408   1.462
13403TIP3   OH240141   6.764   7.772   1.312
13403TIP3    H140142   6.825   7.702   1.287
13403TIP3    H240143   6.807   7.852   1.281
13404TIP3   OH240144   6.956   7.600   1.226
13404TIP3    H140145   6.971   7.519   1.177
13404TIP3    H240146   6.984   7.579   1.315
13405TIP3   OH240147   6.494   6.962   1.145
13405TIP3    H140148   6.419   6.969   1.203
13405TIP3    H240149   6.570   6.976   1.201
13406TIP3   OH240150   6.576   6.893   0.892
13406TIP3    H140151   6.567   6.924   0.982
13406TIP3    H240152   6.595   6.799   0.901
13407TIP3   OH240153   6.880   7.151   1.216
13407TIP3    H140154   6.829   7.077   1.249
13407TIP3    H240155   6.966   7.141   1.258
13408TIP3   OH240156   6.900   6.950   1.002
13408TIP3    H140157   6.856   7.031   1.027
13408TIP3    H240158   6.878   6.938   0.909
13409TIP3   OH240159   6.571   7.613   1.445
13409TIP3    H140160   6.627   7.652   1.378
13409TIP3    H240161   6.483   7.645   1.424
13410TIP3   OH240162   7.239   6.189   0.923
13410TIP3    H140163   7.149   6.210   0.946
13410TIP3    H240164   7.279   6.273   0.900
13411TIP3   OH240165   7.099   7.572   0.641
13411TIP3    H140166   7.098   7.667   0.626
13411TIP3    H240167   7.189   7.546   0.624
13412TIP3   OH240168   6.475   7.964   1.065
13412TIP3    H140169   6.397   7.942   1.012
13412TIP3    H240170   6.455   8.050   1.101
13413TIP3   OH240171   6.605   7.805   0.741
13413TIP3    H140172   6.654   7.733   0.702
13413TIP3    H240173   6.644   7.816   0.828
13414TIP3   OH240174   6.705   7.837   0.998
13414TIP3    H140175   6.625   7.868   1.040
13414TIP3    H240176   6.770   7.837   1.068
13415TIP3   OH240177   6.847   6.946   0.737
13415TIP3    H140178   6.801   6.955   0.654
13415TIP3    H240179   6.924   7.002   0.728
13416TIP3   OH240180   6.493   6.399   1.033
13416TIP3    H140181   6.566   6.410   1.095
13416TIP3    H240182   6.468   6.307   1.041
13417TIP3   OH240183   6.717   6.947   1.307
13417TIP3    H140184   6.660   6.973   1.380
13417TIP3    H240185   6.798   6.918   1.349
13418TIP3   OH240186   6.172   6.345   1.057
13418TIP3    H140187   6.118   6.348   1.136
13418TIP3    H240188   6.196   6.436   1.040
13419TIP3   OH240189   5.990   6.495   1.227
13419TIP3    H140190   5.958   6.584   1.214
13419TIP3    H240191   6.062   6.505   1.290
13420TIP3   OH240192   6.314   7.179   1.314
13420TIP3    H140193   6.265   7.120   1.256
13420TIP3    H240194   6.261   7.185   1.393
13421TIP3   OH240195   6.829   6.509   0.937
13421TIP3    H140196   6.777   6.484   1.014
13421TIP3    H240197   6.891   6.573   0.970
13422TIP3   OH240198   6.951   6.698   1.075
13422TIP3    H140199   7.011   6.699   1.150
13422TIP3    H240200   6.956   6.787   1.039
13423TIP3   OH240201   6.557   7.379   0.897
13423TIP3    H140202   6.534   7.471   0.911
13423TIP3    H240203   6.548   7.339   0.983
13424TIP3   OH240204   7.324   6.822   0.833
13424TIP3    H140205   7.235   6.790   0.824
13424TIP3    H240206   7.315   6.915   0.852
13425TIP3   OH240207   7.026   7.642   0.905
13425TIP3    H140208   7.000   7.568   0.960
13425TIP3    H240209   7.041   7.604   0.819
13426TIP3   OH240210   6.045   7.740   1.373
13426TIP3    H140211   6.027   7.676   1.442
13426TIP3    H240212   6.133   7.771   1.393
13427TIP3   OH240213   6.811   7.420   0.809
13427TIP3    H140214   6.865   7.401   0.886
13427TIP3    H240215   6.722   7.395   0.836
13428TIP3   OH240216   7.105   7.846   0.622
13428TIP3    H140217   7.146   7.919   0.575
13428TIP3    H240218   7.028   7.884   0.663
13429TIP3   OH240219   6.967   7.379   1.037
13429TIP3    H140220   6.916   7.301   1.060
13429TIP3    H240221   7.058   7.348   1.033
13430TIP3   OH240222   6.139   7.336   0.756
13430TIP3    H140223   6.168   7.251   0.723
13430TIP3    H240224   6.174   7.340   0.845
13431TIP3   OH240225   5.961   7.463   1.147
13431TIP3    H140226   6.001   7.376   1.136
13431TIP3    H240227   6.033   7.524   1.131
13432TIP3   OH240228   6.894   6.556   1.369
13432TIP3    H140229   6.826   6.615   1.401
13432TIP3    H240230   6.975   6.607   1.374
13433TIP3   OH240231   6.467   7.624   0.953
13433TIP3    H140232   6.463   7.660   1.042
13433TIP3    H240233   6.431   7.693   0.898
13434TIP3   OH240234   6.141   7.662   1.113
13434TIP3    H140235   6.168   7.749   1.083
13434TIP3    H240236   6.156   7.664   1.208
13435TIP3   OH240237   5.815   7.196   1.143
13435TIP3    H140238   5.824   7.260   1.072
13435TIP3    H240239   5.904   7.161   1.154
13436TIP3   OH240240   1.418   0.004   1.578
13436TIP3    H140241   1.369   0.054   1.512
13436TIP3    H240242   1.507   0.039   1.573
13437TIP3   OH240243   6.310   7.546   0.692
13437TIP3    H140244   6.277   7.458   0.709
13437TIP3    H240245   6.390   7.531   0.641
13438TIP3   OH240246   6.739   7.602   0.622
13438TIP3    H140247   6.780   7.547   0.689
13438TIP3    H240248   6.798   7.595   0.546
13439TIP3   OH240249   6.447   7.267   0.674
13439TIP3    H140250   6.478   7.286   0.763
13439TIP3    H240251   6.452   7.172   0.667
13440TIP3   OH240252   6.210   6.977   1.148
13440TIP3    H140253   6.192   6.915   1.218
13440TIP3    H240254   6.131   6.977   1.094
13441TIP3   OH240255   6.229   6.609   1.015
13441TIP3    H140256   6.249   6.668   0.943
13441TIP3    H240257   6.296   6.628   1.081
13442TIP3   OH240258   7.063   7.102   0.668
13442TIP3    H140259   7.057   7.054   0.585
13442TIP3    H240260   7.033   7.190   0.648
13443TIP3   OH240261   5.978   7.881   0.870
13443TIP3    H140262   6.015   7.792   0.867
13443TIP3    H240263   6.009   7.922   0.789
13444TIP3   OH240264   5.544   7.192   1.135
13444TIP3    H140265   5.639   7.204   1.127
13444TIP3    H240266   5.527   7.108   1.093
13445TIP3   OH240267   1.687   0.105   1.554
13445TIP3    H140268   1.748   0.055   1.607
13445TIP3    H240269   1.722   0.099   1.465
13446TIP3   OH240270   7.233   7.297   1.018
13446TIP3    H140271   7.282   7.367   0.975
13446TIP3    H240272   7.289   7.269   1.091
13447TIP3   OH240273   7.394   7.183   1.206
13447TIP3    H140274   7.351   7.122   1.267
13447TIP3    H240275   7.469   7.217   1.255
13448TIP3   OH240276   7.341   7.540   1.567
13448TIP3    H140277   7.416   7.484   1.586
13448TIP3    H240278   7.379   7.621   1.532
13449TIP3   OH240279   7.278   7.093   0.836
13449TIP3    H140280   7.202   7.095   0.778
13449TIP3    H240281   7.265   7.166   0.896
13450TIP3   OH240282   7.074   6.725   0.781
13450TIP3    H140283   7.046   6.742   0.692
13450TIP3    H240284   7.091   6.630   0.783
13451TIP3   OH240285   7.260   6.982   1.354
13451TIP3    H140286   7.208   7.001   1.275
13451TIP3    H240287   7.209   7.020   1.426
13452TIP3   OH240288   7.121   6.456   0.760
13452TIP3    H140289   7.209   6.453   0.797
13452TIP3    H240290   7.069   6.400   0.817
13453TIP3   OH240291   7.148   6.689   1.252
13453TIP3    H140292   7.209   6.641   1.308
13453TIP3    H240293   7.203   6.732   1.187
13454TIP3   OH240294   7.139   6.414   1.432
13454TIP3    H140295   7.167   6.442   1.519
13454TIP3    H240296   7.209   6.443   1.374
13455TIP3   OH240297   7.377   6.417   0.846
13455TIP3    H140298   7.444   6.357   0.814
13455TIP3    H240299   7.424   6.498   0.866
13456TIP3   OH240300   6.888   7.976   1.180
13456TIP3    H140301   6.950   7.958   1.109
13456TIP3    H240302   6.938   8.029   1.243
13457TIP3   OH240303   6.923   6.298   1.274
13457TIP3    H140304   6.947   6.382   1.313
13457TIP3    H240305   7.007   6.255   1.255
13458TIP3   OH240306   5.521   7.697   1.347
13458TIP3    H140307   5.432   7.663   1.339
13458TIP3    H240308   5.512   7.792   1.337
13459TIP3   OH240309   6.335   7.811   0.799
13459TIP3    H140310   6.421   7.828   0.760
13459TIP3    H240311   6.302   7.735   0.752
13460TIP3   OH240312   7.045   7.910   0.960
13460TIP3    H140313   7.044   7.815   0.950
13460TIP3    H240314   7.006   7.944   0.879
13461TIP3   OH240315   5.697   7.724   0.963
13461TIP3    H140316   5.751   7.732   1.042
13461TIP3    H240317   5.748   7.665   0.906
13462TIP3   OH240318   0.046   7.435   0.893
13462TIP3    H140319   0.017   7.522   0.866
13462TIP3    H240320  -0.027   7.378   0.870
13463TIP3   OH240321   0.070   7.445   1.319
13463TIP3    H140322   0.108   7.403   1.396
13463TIP3    H240323   0.013   7.379   1.280
13464TIP3   OH240324   7.844   7.341   1.624
13464TIP3    H140325   7.861   7.303   1.710
13464TIP3    H240326   7.929   7.341   1.581
13465TIP3   OH240327   0.313   7.721   0.979
13465TIP3    H140328   0.300   7.658   1.050
13465TIP3    H240329   0.327   7.805   1.024
13466TIP3   OH240330   7.789   7.710   1.360
13466TIP3    H140331   7.774   7.616   1.355
13466TIP3    H240332   7.883   7.720   1.347
13467TIP3   OH240333   7.562   6.996   1.078
13467TIP3    H140334   7.514   7.074   1.105
13467TIP3    H240335   7.499   6.925   1.084
13468TIP3   OH240336   7.611   7.238   1.355
13468TIP3    H140337   7.659   7.162   1.390
13468TIP3    H240338   7.678   7.303   1.336
13469TIP3   OH240339   2.782   0.178   0.990
13469TIP3    H140340   2.806   0.089   0.965
13469TIP3    H240341   2.739   0.168   1.075
13470TIP3   OH240342   8.319   7.605   1.289
13470TIP3    H140343   8.410   7.578   1.280
13470TIP3    H240344   8.323   7.686   1.340
13471TIP3   OH240345   0.859   6.951   1.381
13471TIP3    H140346   0.877   7.043   1.402
13471TIP3    H240347   0.889   6.940   1.291
13472TIP3   OH240348   0.258   7.126   1.363
13472TIP3    H140349   0.297   7.041   1.382
13472TIP3    H240350   0.220   7.117   1.276
13473TIP3   OH240351   8.133   6.802   1.320
13473TIP3    H140352   8.113   6.881   1.270
13473TIP3    H240353   8.076   6.735   1.283
13474TIP3   OH240354   0.303   6.898   0.944
13474TIP3    H140355   0.369   6.888   1.013
13474TIP3    H240356   0.352   6.933   0.869
13475TIP3   OH240357   7.738   7.015   1.452
13475TIP3    H140358   7.818   6.989   1.499
13475TIP3    H240359   7.717   6.939   1.397
13476TIP3   OH240360   8.171   7.221   1.244
13476TIP3    H140361   8.266   7.214   1.246
13476TIP3    H240362   8.141   7.137   1.209
13477TIP3   OH240363   0.893   7.195   1.503
13477TIP3    H140364   0.808   7.238   1.497
13477TIP3    H240365   0.898   7.166   1.594
13478TIP3   OH240366   8.451   7.651   0.744
13478TIP3    H140367   8.407   7.621   0.665
13478TIP3    H240368   8.397   7.724   0.775
13479TIP3   OH240369   8.200   7.558   1.603
13479TIP3    H140370   8.117   7.591   1.636
13479TIP3    H240371   8.238   7.631   1.554
13480TIP3   OH240372   0.472   6.912   1.154
13480TIP3    H140373   0.434   6.884   1.238
13480TIP3    H240374   0.530   6.985   1.178
13481TIP3   OH240375   7.980   6.909   1.536
13481TIP3    H140376   8.047   6.971   1.565
13481TIP3    H240377   8.025   6.852   1.474
13482TIP3   OH240378   7.980   7.712   1.674
13482TIP3    H140379   7.979   7.784   1.611
13482TIP3    H240380   8.013   7.752   1.755
13483TIP3   OH240381   7.399   7.480   0.887
13483TIP3    H140382   7.373   7.503   0.797
13483TIP3    H240383   7.426   7.563   0.926
13484TIP3   OH240384   0.346   7.969   1.108
13484TIP3    H140385   0.267   7.964   1.161
13484TIP3    H240386   0.341   8.054   1.065
13485TIP3   OH240387   0.614   6.901   1.502
13485TIP3    H140388   0.535   6.900   1.449
13485TIP3    H240389   0.684   6.923   1.441
13486TIP3   OH240390   8.465   6.519   1.475
13486TIP3    H140391   8.447   6.429   1.447
13486TIP3    H240392   8.389   6.543   1.529
13487TIP3   OH240393   0.057   8.006   0.789
13487TIP3    H140394   0.113   7.929   0.776
13487TIP3    H240395   0.112   8.080   0.763
13488TIP3   OH240396   0.200   7.778   0.732
13488TIP3    H140397   0.123   7.721   0.730
13488TIP3    H240398   0.248   7.751   0.811
13489TIP3   OH240399   0.582   7.866   1.474
13489TIP3    H140400   0.559   7.788   1.424
13489TIP3    H240401   0.557   7.939   1.417
13490TIP3   OH240402   8.374   7.270   0.744
13490TIP3    H140403   8.290   7.312   0.726
13490TIP3    H240404   8.420   7.271   0.660
13491TIP3   OH240405   8.335   7.078   0.436
13491TIP3    H140406   8.401   7.126   0.486
13491TIP3    H240407   8.386   7.011   0.389
13492TIP3   OH240408   0.769   7.544   1.324
13492TIP3    H140409   0.683   7.585   1.324
13492TIP3    H240410   0.797   7.546   1.233
13493TIP3   OH240411   0.227   7.361   0.702
13493TIP3    H140412   0.172   7.392   0.774
13493TIP3    H240413   0.308   7.333   0.744
13494TIP3   OH240414   0.443   7.379   1.621
13494TIP3    H140415   0.458   7.461   1.668
13494TIP3    H240416   0.356   7.389   1.583
13495TIP3   OH240417   7.957   7.344   1.112
13495TIP3    H140418   7.922   7.283   1.048
13495TIP3    H240419   8.034   7.300   1.148
13496TIP3   OH240420   8.052   7.749   1.290
13496TIP3    H140421   8.109   7.693   1.238
13496TIP3    H240422   8.110   7.795   1.351
13497TIP3   OH240423   8.077   7.341   1.475
13497TIP3    H140424   8.109   7.316   1.388
13497TIP3    H240425   8.127   7.420   1.497
13498TIP3   OH240426   0.137   7.969   1.276
13498TIP3    H140427   0.080   8.032   1.320
13498TIP3    H240428   0.127   7.888   1.326
13499TIP3   OH240429   8.168   7.891   1.789
13499TIP3    H140430   8.102   7.954   1.759
13499TIP3    H240431   8.213   7.864   1.709
13500TIP3   OH240432   0.060   7.220   0.534
13500TIP3    H140433   0.118   7.279   0.582
13500TIP3    H240434   0.087   7.227   0.443
13501TIP3   OH240435   8.313   7.885   0.794
13501TIP3    H140436   8.393   7.937   0.801
13501TIP3    H240437   8.247   7.946   0.760
13502TIP3   OH240438   0.572   6.450   0.596
13502TIP3    H140439   0.493   6.469   0.648
13502TIP3    H240440   0.581   6.527   0.539
13503TIP3   OH240441   7.827   7.182   0.914
13503TIP3    H140442   7.751   7.231   0.883
13503TIP3    H240443   7.789   7.103   0.953
13504TIP3   OH240444   0.389   7.821   0.148
13504TIP3    H140445   0.385   7.915   0.130
13504TIP3    H240446   0.479   7.796   0.128
13505TIP3   OH240447   7.500   7.759   1.458
13505TIP3    H140448   7.583   7.726   1.424
13505TIP3    H240449   7.525   7.825   1.523
13506TIP3   OH240450   3.681   0.216   1.569
13506TIP3    H140451   3.679   0.121   1.568
13506TIP3    H240452   3.589   0.242   1.575
13507TIP3   OH240453   2.775   0.011   1.670
13507TIP3    H140454   2.715   0.082   1.693
13507TIP3    H240455   2.727  -0.041   1.606
13508TIP3   OH240456   2.529   0.114   0.618
13508TIP3    H140457   2.474   0.093   0.543
13508TIP3    H240458   2.492   0.194   0.654
13509TIP3   OH240459   7.628   7.971   0.999
13509TIP3    H140460   7.681   7.965   1.078
13509TIP3    H240461   7.586   7.886   0.990
13510TIP3   OH240462   2.730   0.033   0.250
13510TIP3    H140463   2.781  -0.040   0.215
13510TIP3    H240464   2.762   0.044   0.339
13511TIP3   OH240465   2.782   0.073   0.521
13511TIP3    H140466   2.695   0.081   0.560
13511TIP3    H240467   2.837   0.037   0.591
13512TIP3   OH240468   0.726   7.348   1.743
13512TIP3    H140469   0.640   7.388   1.755
13512TIP3    H240470   0.708   7.254   1.734
13513TIP3   OH240471   0.420   7.148   1.767
13513TIP3    H140472   0.377   7.179   1.846
13513TIP3    H240473   0.423   7.224   1.709
13514TIP3   OH240474   0.140   7.209   0.273
13514TIP3    H140475   0.095   7.209   0.189
13514TIP3    H240476   0.221   7.257   0.257
13515TIP3   OH240477   8.349   6.623   0.588
13515TIP3    H140478   8.313   6.631   0.676
13515TIP3    H240479   8.311   6.542   0.553
13516TIP3   OH240480   8.161   7.110   1.605
13516TIP3    H140481   8.139   7.139   1.694
13516TIP3    H240482   8.131   7.182   1.549
13517TIP3   OH240483   8.063   6.993   1.137
13517TIP3    H140484   7.971   6.983   1.160
13517TIP3    H240485   8.071   6.953   1.051
13518TIP3   OH240486   0.004   7.072   0.880
13518TIP3    H140487  -0.046   7.143   0.841
13518TIP3    H240488   0.059   7.039   0.809
13519TIP3   OH240489   0.166   7.084   1.105
13519TIP3    H140490   0.101   7.110   1.039
13519TIP3    H240491   0.211   7.009   1.067
13520TIP3   OH240492   8.015   6.608   0.566
13520TIP3    H140493   8.008   6.618   0.661
13520TIP3    H240494   7.937   6.652   0.531
13521TIP3   OH240495   7.654   6.767   1.343
13521TIP3    H140496   7.573   6.793   1.387
13521TIP3    H240497   7.624   6.707   1.274
13522TIP3   OH240498   7.522   6.646   0.895
13522TIP3    H140499   7.577   6.674   0.821
13522TIP3    H240500   7.450   6.709   0.895
13523TIP3   OH240501   0.182   7.318   1.538
13523TIP3    H140502   0.211   7.250   1.478
13523TIP3    H240503   0.157   7.271   1.618
13524TIP3   OH240504   8.382   6.781   1.197
13524TIP3    H140505   8.302   6.791   1.249
13524TIP3    H240506   8.453   6.793   1.261
13525TIP3   OH240507   7.808   6.919   1.167
13525TIP3    H140508   7.723   6.950   1.135
13525TIP3    H240509   7.787   6.843   1.222
13526TIP3   OH240510   8.043   6.863   0.893
13526TIP3    H140511   8.134   6.883   0.872
13526TIP3    H240512   7.994   6.886   0.814
13527TIP3   OH240513   0.349   6.866   1.401
13527TIP3    H140514   0.337   6.874   1.495
13527TIP3    H240515   0.277   6.811   1.371
13528TIP3   OH240516   7.909   6.891   0.656
13528TIP3    H140517   7.846   6.843   0.602
13528TIP3    H240518   7.963   6.939   0.593
13529TIP3   OH240519   3.495   0.585   1.628
13529TIP3    H140520   3.412   0.542   1.607
13529TIP3    H240521   3.512   0.642   1.553
13530TIP3   OH240522   8.446   7.176   1.282
13530TIP3    H140523   8.510   7.127   1.231
13530TIP3    H240524   8.444   7.132   1.367
13531TIP3   OH240525   7.966   6.629   1.196
13531TIP3    H140526   7.930   6.567   1.260
13531TIP3    H240527   7.940   6.594   1.111
13532TIP3   OH240528   8.427   7.067   1.536
13532TIP3    H140529   8.333   7.066   1.554
13532TIP3    H240530   8.466   7.105   1.615
13533TIP3   OH240531   8.138   7.400   0.682
13533TIP3    H140532   8.061   7.348   0.659
13533TIP3    H240533   8.115   7.443   0.764
13534TIP3   OH240534   0.527   7.666   1.293
13534TIP3    H140535   0.550   7.723   1.219
13534TIP3    H240536   0.447   7.622   1.266
13535TIP3   OH240537   0.100   6.729   0.583
13535TIP3    H140538   0.007   6.707   0.582
13535TIP3    H240539   0.102   6.823   0.598
13536TIP3   OH240540   0.057   7.765   1.690
13536TIP3    H140541  -0.000   7.700   1.731
13536TIP3    H240542   0.008   7.847   1.697
13537TIP3   OH240543   0.159   6.991   0.659
13537TIP3    H140544   0.254   6.997   0.668
13537TIP3    H240545   0.135   7.068   0.609
13538TIP3   OH240546   7.808   7.431   1.328
13538TIP3    H140547   7.859   7.411   1.250
13538TIP3    H240548   7.866   7.407   1.401
13539TIP3   OH240549   8.286   7.572   0.528
13539TIP3    H140550   8.238   7.655   0.529
13539TIP3    H240551   8.232   7.513   0.581
13540TIP3   OH240552   3.047   0.029   1.610
13540TIP3    H140553   2.975  -0.032   1.599
13540TIP3    H240554   3.004   0.113   1.627
13541TIP3   OH240555   0.580   7.079   0.481
13541TIP3    H140556   0.523   7.033   0.419
13541TIP3    H240557   0.584   7.169   0.447
13542TIP3   OH240558   0.831   7.952   1.546
13542TIP3    H140559   0.741   7.926   1.525
13542TIP3    H240560   0.876   7.950   1.462
13543TIP3   OH240561   0.320   7.895   0.421
13543TIP3    H140562   0.286   7.833   0.486
13543TIP3    H240563   0.329   7.843   0.341
13544TIP3   OH240564   0.312   7.523   1.190
13544TIP3    H140565   0.224   7.504   1.222
13544TIP3    H240566   0.342   7.440   1.153
13545TIP3   OH240567   7.911   7.748   0.935
13545TIP3    H140568   7.905   7.835   0.894
13545TIP3    H240569   7.879   7.762   1.024
13546TIP3   OH240570   7.517   7.073   0.700
13546TIP3    H140571   7.566   7.150   0.727
13546TIP3    H240572   7.436   7.076   0.752
13547TIP3   OH240573   8.046   7.513   0.907
13547TIP3    H140574   8.009   7.601   0.918
13547TIP3    H240575   8.020   7.466   0.986
13548TIP3   OH240576   2.524   0.142   1.501
13548TIP3    H140577   2.484   0.181   1.423
13548TIP3    H240578   2.561   0.060   1.470
13549TIP3   OH240579   2.182  -0.010   0.836
13549TIP3    H140580   2.098  -0.011   0.884
13549TIP3    H240581   2.218   0.077   0.853
13550TIP3   OH240582   0.139   7.736   1.425
13550TIP3    H140583   0.101   7.736   1.513
13550TIP3    H240584   0.130   7.646   1.395
13551TIP3   OH240585   0.069   7.629   0.300
13551TIP3    H140586   0.122   7.599   0.374
13551TIP3    H240587  -0.016   7.589   0.314
13552TIP3   OH240588   3.189   0.225   1.441
13552TIP3    H140589   3.112   0.171   1.458
13552TIP3    H240590   3.157   0.298   1.388
13553TIP3   OH240591   3.224   0.082   0.108
13553TIP3    H140592   3.244   0.144   0.038
13553TIP3    H240593   3.152   0.122   0.156
13554TIP3   OH240594   0.247   7.536   0.485
13554TIP3    H140595   0.233   7.487   0.566
13554TIP3    H240596   0.342   7.546   0.480
13555TIP3   OH240597   7.633   7.967   1.601
13555TIP3    H140598   7.713   7.922   1.628
13555TIP3    H240599   7.642   8.056   1.635
13556TIP3   OH240600   7.928   7.597   0.320
13556TIP3    H140601   7.939   7.506   0.294
13556TIP3    H240602   7.915   7.595   0.415
13557TIP3   OH240603   7.869   7.618   0.593
13557TIP3    H140604   7.918   7.593   0.671
13557TIP3    H240605   7.869   7.713   0.594
13558TIP3   OH240606   7.610   7.315   0.800
13558TIP3    H140607   7.543   7.360   0.851
13558TIP3    H240608   7.629   7.374   0.727
13559TIP3   OH240609   0.298   6.922   1.661
13559TIP3    H140610   0.352   6.992   1.699
13559TIP3    H240611   0.209   6.942   1.690
13560TIP3   OH240612   0.163   6.679   0.849
13560TIP3    H140613   0.141   6.699   0.758
13560TIP3    H240614   0.203   6.760   0.882
13561TIP3   OH240615   8.141   7.802   0.522
13561TIP3    H140616   8.055   7.822   0.560
13561TIP3    H240617   8.164   7.879   0.470
13562TIP3   OH240618   8.322   6.875   0.939
13562TIP3    H140619   8.383   6.946   0.919
13562TIP3    H240620   8.336   6.857   1.033
13563TIP3   OH240621   0.088   7.200   1.775
13563TIP3    H140622   0.025   7.272   1.766
13563TIP3    H240623   0.087   7.178   1.868
13564TIP3   OH240624   8.478   6.582   1.025
13564TIP3    H140625   8.457   6.658   1.078
13564TIP3    H240626   8.548   6.612   0.966
13565TIP3   OH240627   7.888   7.890   0.592
13565TIP3    H140628   7.867   7.960   0.529
13565TIP3    H240629   7.873   7.930   0.678
13566TIP3   OH240630   7.988   6.594   0.848
13566TIP3    H140631   7.978   6.684   0.877
13566TIP3    H240632   8.082   6.577   0.852
13567TIP3   OH240633   0.673   7.070   1.715
13567TIP3    H140634   0.581   7.088   1.733
13567TIP3    H240635   0.673   7.008   1.642
13568TIP3   OH240636   0.393   7.263   1.105
13568TIP3    H140637   0.315   7.209   1.116
13568TIP3    H240638   0.460   7.220   1.158
13569TIP3   OH240639   7.625   7.487   0.579
13569TIP3    H140640   7.696   7.550   0.589
13569TIP3    H240641   7.659   7.423   0.516
13570TIP3   OH240642   7.551   6.799   0.665
13570TIP3    H140643   7.579   6.889   0.678
13570TIP3    H240644   7.462   6.796   0.701
13571TIP3   OH240645   3.196   0.223   1.033
13571TIP3    H140646   3.152   0.275   0.966
13571TIP3    H240647   3.289   0.238   1.017
13572TIP3   OH240648   7.455   7.743   0.977
13572TIP3    H140649   7.417   7.784   1.054
13572TIP3    H240650   7.416   7.789   0.903
13573TIP3   OH240651   8.084   7.793   0.203
13573TIP3    H140652   8.037   7.726   0.251
13573TIP3    H240653   8.160   7.748   0.165
13574TIP3   OH240654   3.142   0.114   1.870
13574TIP3    H140655   3.109   0.045   1.812
13574TIP3    H240656   3.209   0.158   1.818
13575TIP3   OH240657   0.027   7.838   0.129
13575TIP3    H140658   0.056   7.772   0.191
13575TIP3    H240659   0.088   7.829   0.055
13576TIP3   OH240660   7.752   7.295   0.432
13576TIP3    H140661   7.801   7.269   0.510
13576TIP3    H240662   7.819   7.307   0.365
13577TIP3   OH240663   8.306   7.517   0.261
13577TIP3    H140664   8.287   7.529   0.353
13577TIP3    H240665   8.291   7.423   0.245
13578TIP3   OH240666   0.382   7.789   1.667
13578TIP3    H140667   0.438   7.831   1.602
13578TIP3    H240668   0.293   7.817   1.643
13579TIP3   OH240669   7.921   7.229   0.645
13579TIP3    H140670   7.899   7.201   0.734
13579TIP3    H240671   7.968   7.154   0.608
13580TIP3   OH240672   8.062   7.043   0.488
13580TIP3    H140673   8.032   7.049   0.398
13580TIP3    H240674   8.158   7.052   0.483
13581TIP3   OH240675   0.363   7.337   0.163
13581TIP3    H140676   0.348   7.297   0.077
13581TIP3    H240677   0.335   7.428   0.151
13582TIP3   OH240678   8.416   7.398   1.692
13582TIP3    H140679   8.465   7.416   1.612
13582TIP3    H240680   8.333   7.445   1.680
13583TIP3   OH240681   0.529   7.589   1.772
13583TIP3    H140682   0.464   7.655   1.746
13583TIP3    H240683   0.612   7.637   1.773
13584TIP3   OH240684   2.217   0.084   0.409
13584TIP3    H140685   2.306   0.062   0.384
13584TIP3    H240686   2.182   0.130   0.332
13585TIP3   OH240687   7.353   7.479   0.591
13585TIP3    H140688   7.448   7.491   0.590
13585TIP3    H240689   7.340   7.391   0.555
13586TIP3   OH240690   1.591   0.047   1.052
13586TIP3    H140691   1.524  -0.006   1.008
13586TIP3    H240692   1.634  -0.015   1.111
13587TIP3   OH240693   7.397   7.888   1.218
13587TIP3    H140694   7.393   7.822   1.288
13587TIP3    H240695   7.455   7.956   1.253
13588TIP3   OH240696   3.466   0.284   1.031
13588TIP3    H140697   3.482   0.281   1.125
13588TIP3    H240698   3.457   0.377   1.011
13589TIP3   OH240699   3.480   0.288   1.305
13589TIP3    H140700   3.444   0.200   1.296
13589TIP3    H240701   3.483   0.303   1.400
13590TIP3   OH240702   0.526   7.545   0.489
13590TIP3    H140703   0.586   7.616   0.465
13590TIP3    H240704   0.564   7.508   0.569
13591TIP3   OH240705   0.635   7.404   0.698
13591TIP3    H140706   0.568   7.361   0.751
13591TIP3    H240707   0.699   7.437   0.762
13592TIP3   OH240708   0.701   7.815   1.121
13592TIP3    H140709   0.735   7.745   1.065
13592TIP3    H240710   0.683   7.888   1.061
13593TIP3   OH240711   3.347   0.051   1.303
13593TIP3    H140712   3.282   0.103   1.351
13593TIP3    H240713   3.297   0.012   1.231
13594TIP3   OH240714   0.570   7.318   0.342
13594TIP3    H140715   0.499   7.315   0.278
13594TIP3    H240716   0.552   7.396   0.394
13595TIP3   OH240717   0.430   6.970   0.282
13595TIP3    H140718   0.382   7.009   0.209
13595TIP3    H240719   0.416   6.876   0.273
13596TIP3   OH240720   0.449   7.256   0.835
13596TIP3    H140721   0.454   7.161   0.820
13596TIP3    H240722   0.433   7.265   0.929
13597TIP3   OH240723   7.570   7.384   1.587
13597TIP3    H140724   7.566   7.332   1.506
13597TIP3    H240725   7.663   7.385   1.610
13598TIP3   OH240726   0.758   7.747   1.755
13598TIP3    H140727   0.826   7.680   1.749
13598TIP3    H240728   0.786   7.816   1.694
13599TIP3   OH240729   0.928   7.526   1.733
13599TIP3    H140730   0.856   7.464   1.723
13599TIP3    H240731   0.970   7.502   1.816
13600TIP3   OH240732   0.381   6.702   0.261
13600TIP3    H140733   0.445   6.671   0.326
13600TIP3    H240734   0.299   6.659   0.286
13601TIP3   OH240735   0.450   6.985   0.719
13601TIP3    H140736   0.495   6.901   0.732
13601TIP3    H240737   0.494   7.023   0.643
13602TIP3   OH240738   0.607   7.137   1.239
13602TIP3    H140739   0.687   7.158   1.190
13602TIP3    H240740   0.614   7.188   1.320
13603TIP3   OH240741   0.650   7.313   1.445
13603TIP3    H140742   0.579   7.338   1.504
13603TIP3    H240743   0.682   7.396   1.410
13604TIP3   OH240744   0.563   6.733   0.770
13604TIP3    H140745   0.606   6.723   0.855
13604TIP3    H240746   0.500   6.661   0.766
13605TIP3   OH240747   0.615   6.651   0.413
13605TIP3    H140748   0.658   6.589   0.353
13605TIP3    H240749   0.668   6.730   0.408
13606TIP3   OH240750   7.566   6.596   1.153
13606TIP3    H140751   7.517   6.513   1.153
13606TIP3    H240752   7.556   6.629   1.064
13607TIP3   OH240753   3.034   0.190   0.676
13607TIP3    H140754   3.092   0.182   0.600
13607TIP3    H240755   3.072   0.262   0.728
13608TIP3   OH240756   2.310   0.005   1.617
13608TIP3    H140757   2.247   0.068   1.582
13608TIP3    H240758   2.393   0.028   1.577
13609TIP3   OH240759   2.771   0.280   1.803
13609TIP3    H140760   2.822   0.204   1.830
13609TIP3    H240761   2.821   0.318   1.730
13610TIP3   OH240762   2.916   0.373   1.592
13610TIP3    H140763   2.916   0.326   1.509
13610TIP3    H240764   2.994   0.428   1.589
13611TIP3   OH240765   1.967   0.222   1.656
13611TIP3    H140766   1.907   0.278   1.607
13611TIP3    H240767   2.013   0.281   1.715
13612TIP3   OH240768   2.681   0.331   1.241
13612TIP3    H140769   2.592   0.297   1.232
13612TIP3    H240770   2.675   0.395   1.312
13613TIP3   OH240771   2.910   0.237   1.355
13613TIP3    H140772   2.824   0.251   1.316
13613TIP3    H240773   2.971   0.284   1.298
13614TIP3   OH240774   3.106   0.389   1.233
13614TIP3    H140775   3.103   0.476   1.193
13614TIP3    H240776   3.135   0.331   1.163
13615TIP3   OH240777   1.904   0.050   1.350
13615TIP3    H140778   1.925   0.019   1.438
13615TIP3    H240779   1.980   0.028   1.297
13616TIP3   OH240780   7.787   7.955   1.223
13616TIP3    H140781   7.797   7.873   1.271
13616TIP3    H240782   7.873   7.996   1.227
13617TIP3   OH240783   0.131   6.706   1.328
13617TIP3    H140784   0.085   6.635   1.373
13617TIP3    H240785   0.191   6.662   1.269
13618TIP3   OH240786   0.623   6.598   1.235
13618TIP3    H140787   0.656   6.649   1.161
13618TIP3    H240788   0.529   6.615   1.235
13619TIP3   OH240789   0.722   6.695   0.996
13619TIP3    H140790   0.791   6.637   0.965
13619TIP3    H240791   0.754   6.784   0.980
13620TIP3   OH240792   7.889   6.432   1.377
13620TIP3    H140793   7.797   6.408   1.368
13620TIP3    H240794   7.935   6.367   1.323
13621TIP3   OH240795   7.640   6.299   0.903
13621TIP3    H140796   7.676   6.320   0.817
13621TIP3    H240797   7.682   6.361   0.963
13622TIP3   OH240798   8.334   6.456   1.223
13622TIP3    H140799   8.376   6.492   1.145
13622TIP3    H240800   8.343   6.525   1.289
13623TIP3   OH240801   0.336   6.585   1.180
13623TIP3    H140802   0.362   6.555   1.093
13623TIP3    H240803   0.316   6.505   1.229
13624TIP3   OH240804   0.380   6.522   0.780
13624TIP3    H140805   0.299   6.571   0.799
13624TIP3    H240806   0.365   6.436   0.818
13625TIP3   OH240807   7.347   7.867   0.759
13625TIP3    H140808   7.262   7.832   0.730
13625TIP3    H240809   7.347   7.958   0.727
13626TIP3   OH240810   7.786   6.445   0.719
13626TIP3    H140811   7.838   6.394   0.657
13626TIP3    H240812   7.850   6.494   0.770
13627TIP3   OH240813   8.263   6.623   0.850
13627TIP3    H140814   8.328   6.576   0.902
13627TIP3    H240815   8.273   6.714   0.876
13628TIP3   OH240816   8.138   8.022   0.344
13628TIP3    H140817   8.223   8.048   0.309
13628TIP3    H240818   8.111   7.948   0.289
13629TIP3   OH240819   3.185   0.151   0.444
13629TIP3    H140820   3.179   0.056   0.441
13629TIP3    H240821   3.135   0.181   0.368
13630TIP3   OH240822   7.446   7.865   0.409
13630TIP3    H140823   7.447   7.872   0.504
13630TIP3    H240824   7.527   7.819   0.387
13631TIP3   OH240825   3.421   0.288   1.575
13631TIP3    H140826   3.333   0.275   1.542
13631TIP3    H240827   3.409   0.302   1.669
13632TIP3   OH240828   1.834   7.681   0.385
13632TIP3    H140829   1.804   7.770   0.364
13632TIP3    H240830   1.764   7.624   0.353
13633TIP3   OH240831   1.822   7.661   0.776
13633TIP3    H140832   1.899   7.622   0.818
13633TIP3    H240833   1.766   7.586   0.754
13634TIP3   OH240834   1.145   7.614   1.132
13634TIP3    H140835   1.155   7.537   1.188
13634TIP3    H240836   1.218   7.608   1.070
13635TIP3   OH240837   2.121   7.974   0.462
13635TIP3    H140838   2.084   7.917   0.530
13635TIP3    H240839   2.125   8.060   0.502
13636TIP3   OH240840   1.152   7.958   0.884
13636TIP3    H140841   1.123   7.869   0.864
13636TIP3    H240842   1.239   7.964   0.844
13637TIP3   OH240843   0.803   7.192   0.621
13637TIP3    H140844   0.755   7.271   0.645
13637TIP3    H240845   0.737   7.134   0.583
13638TIP3   OH240846   0.871   7.473   0.823
13638TIP3    H140847   0.926   7.402   0.854
13638TIP3    H240848   0.923   7.516   0.754
13639TIP3   OH240849   4.645   0.421   0.476
13639TIP3    H140850   4.655   0.356   0.406
13639TIP3    H240851   4.615   0.370   0.551
13640TIP3   OH240852   1.645   7.878   0.815
13640TIP3    H140853   1.695   7.801   0.790
13640TIP3    H240854   1.710   7.947   0.828
13641TIP3   OH240855   1.400   7.059   0.790
13641TIP3    H140856   1.377   7.135   0.736
13641TIP3    H240857   1.347   6.988   0.756
13642TIP3   OH240858   2.049   7.182   0.410
13642TIP3    H140859   2.114   7.114   0.428
13642TIP3    H240860   2.082   7.228   0.334
13643TIP3   OH240861   1.032   7.277   0.929
13643TIP3    H140862   1.112   7.251   0.976
13643TIP3    H240863   1.032   7.222   0.851
13644TIP3   OH240864   1.440   7.470   0.743
13644TIP3    H140865   1.533   7.452   0.750
13644TIP3    H240866   1.403   7.391   0.704
13645TIP3   OH240867   1.333   6.979   1.184
13645TIP3    H140868   1.325   7.056   1.127
13645TIP3    H240869   1.413   6.993   1.233
13646TIP3   OH240870   1.715   7.896   0.263
13646TIP3    H140871   1.683   7.877   0.175
13646TIP3    H240872   1.677   7.981   0.285
13647TIP3   OH240873   1.455   7.869   1.016
13647TIP3    H140874   1.406   7.951   1.021
13647TIP3    H240875   1.515   7.881   0.942
13648TIP3   OH240876   1.284   7.183   1.008
13648TIP3    H140877   1.340   7.252   1.042
13648TIP3    H240878   1.326   7.154   0.927
13649TIP3   OH240879   0.705   7.732   0.379
13649TIP3    H140880   0.666   7.748   0.294
13649TIP3    H240881   0.725   7.819   0.413
13650TIP3   OH240882   4.989   0.204   0.589
13650TIP3    H140883   4.908   0.185   0.636
13650TIP3    H240884   4.973   0.287   0.545
13651TIP3   OH240885   4.698   0.264   0.257
13651TIP3    H140886   4.737   0.177   0.251
13651TIP3    H240887   4.768   0.324   0.232
13652TIP3   OH240888   1.999   8.048   0.221
13652TIP3    H140889   1.995   7.976   0.158
13652TIP3    H240890   2.041   8.011   0.298
13653TIP3   OH240891   1.653   7.547   0.215
13653TIP3    H140892   1.571   7.595   0.201
13653TIP3    H240893   1.698   7.552   0.130
13654TIP3   OH240894   7.303   3.319   6.863
13654TIP3    H140895   7.367   3.374   6.908
13654TIP3    H240896   7.356   3.255   6.815
13655TIP3   OH240897   2.014   7.626   0.186
13655TIP3    H140898   1.959   7.649   0.261
13655TIP3    H240899   2.095   7.593   0.225
13656TIP3   OH240900   1.239   7.600   0.594
13656TIP3    H140901   1.203   7.539   0.529
13656TIP3    H240902   1.313   7.554   0.633
13657TIP3   OH240903   1.385   7.947   0.731
13657TIP3    H140904   1.369   7.946   0.637
13657TIP3    H240905   1.478   7.930   0.740
13658TIP3   OH240906   1.361   7.606   0.969
13658TIP3    H140907   1.395   7.566   0.890
13658TIP3    H240908   1.400   7.693   0.971
13659TIP3   OH240909   4.752   0.173   0.702
13659TIP3    H140910   4.725   0.253   0.746
13659TIP3    H240911   4.725   0.103   0.762
13660TIP3   OH240912   4.254   0.129   1.299
13660TIP3    H140913   4.258   0.222   1.322
13660TIP3    H240914   4.344   0.106   1.276
13661TIP3   OH240915   1.849   7.485   0.016
13661TIP3    H140916   1.907   7.543   0.066
13661TIP3    H240917   1.878   7.495  -0.075
13662TIP3   OH240918   1.197   7.741   1.378
13662TIP3    H140919   1.242   7.779   1.454
13662TIP3    H240920   1.138   7.676   1.415
13663TIP3   OH240921   4.444   0.140   0.286
13663TIP3    H140922   4.525   0.191   0.284
13663TIP3    H240923   4.384   0.189   0.229
13664TIP3   OH240924   4.106   0.367   1.478
13664TIP3    H140925   4.066   0.355   1.391
13664TIP3    H240926   4.051   0.314   1.536
13665TIP3   OH240927   2.273   6.693  -0.011
13665TIP3    H140928   2.217   6.722   0.060
13665TIP3    H240929   2.337   6.763  -0.022
13666TIP3   OH240930   1.117   7.436   0.401
13666TIP3    H140931   1.044   7.486   0.364
13666TIP3    H240932   1.082   7.348   0.412
13667TIP3   OH240933   7.835   4.073   6.573
13667TIP3    H140934   7.836   4.165   6.549
13667TIP3    H240935   7.924   4.042   6.553
13668TIP3   OH240936   0.919   7.805   1.285
13668TIP3    H140937   0.842   7.825   1.232
13668TIP3    H240938   0.888   7.744   1.351
13669TIP3   OH240939   3.547   0.028   0.958
13669TIP3    H140940   3.630   0.040   1.004
13669TIP3    H240941   3.498   0.109   0.976
13670TIP3   OH240942   4.562   0.275   1.060
13670TIP3    H140943   4.589   0.337   1.127
13670TIP3    H240944   4.544   0.194   1.108
13671TIP3   OH240945   4.333   0.367   0.105
13671TIP3    H140946   4.280   0.348   0.027
13671TIP3    H240947   4.300   0.451   0.136
13672TIP3   OH240948   3.761   0.205   0.485
13672TIP3    H140949   3.795   0.191   0.574
13672TIP3    H240950   3.706   0.128   0.468
13673TIP3   OH240951   7.364   4.296   6.677
13673TIP3    H140952   7.412   4.222   6.639
13673TIP3    H240953   7.400   4.306   6.765
13674TIP3   OH240954   4.585   0.331   0.007
13674TIP3    H140955   4.496   0.341   0.041
13674TIP3    H240956   4.633   0.287   0.077
13675TIP3   OH240957   0.533   6.256   1.385
13675TIP3    H140958   0.507   6.171   1.349
13675TIP3    H240959   0.521   6.247   1.479
13676TIP3   OH240960   7.604   3.483   6.702
13676TIP3    H140961   7.556   3.474   6.620
13676TIP3    H240962   7.688   3.521   6.676
13677TIP3   OH240963   1.640   6.878   0.071
13677TIP3    H140964   1.600   6.883   0.158
13677TIP3    H240965   1.601   6.800   0.031
13678TIP3   OH240966   1.455   7.371   1.097
13678TIP3    H140967   1.452   7.366   1.192
13678TIP3    H240968   1.419   7.458   1.076
13679TIP3   OH240969   1.310   7.257   0.628
13679TIP3    H140970   1.219   7.239   0.650
13679TIP3    H240971   1.320   7.223   0.539
13680TIP3   OH240972   1.767   7.324   0.326
13680TIP3    H140973   1.724   7.401   0.288
13680TIP3    H240974   1.834   7.301   0.262
13681TIP3   OH240975   1.859   7.282   0.583
13681TIP3    H140976   1.812   7.318   0.508
13681TIP3    H240977   1.928   7.227   0.544
13682TIP3   OH240978   1.210   7.405   1.297
13682TIP3    H140979   1.237   7.427   1.386
13682TIP3    H240980   1.194   7.310   1.300
13683TIP3   OH240981   1.307   6.865   0.052
13683TIP3    H140982   1.294   6.866   0.147
13683TIP3    H240983   1.229   6.907   0.016
13684TIP3   OH240984   0.835   6.913   0.877
13684TIP3    H140985   0.922   6.950   0.896
13684TIP3    H240986   0.847   6.868   0.793
13685TIP3   OH240987   0.769   6.885   0.416
13685TIP3    H140988   0.814   6.920   0.339
13685TIP3    H240989   0.706   6.953   0.440
13686TIP3   OH240990   1.649   7.046   0.673
13686TIP3    H140991   1.561   7.045   0.713
13686TIP3    H240992   1.705   7.082   0.742
13687TIP3   OH240993   1.065   7.149   0.683
13687TIP3    H140994   0.974   7.158   0.656
13687TIP3    H240995   1.086   7.056   0.670
13688TIP3   OH240996   1.323   7.128   0.387
13688TIP3    H140997   1.417   7.134   0.370
13688TIP3    H240998   1.282   7.146   0.302
13689TIP3   OH240999   1.203   7.154   0.144
13689TIP3    H141000   1.139   7.104   0.093
13689TIP3    H241001   1.258   7.196   0.078
13690TIP3   OH241002   1.252   7.820   1.634
13690TIP3    H141003   1.282   7.902   1.595
13690TIP3    H241004   1.175   7.845   1.685
13691TIP3   OH241005   1.706   7.403   0.780
13691TIP3    H141006   1.758   7.354   0.716
13691TIP3    H241007   1.733   7.369   0.865
13692TIP3   OH241008   1.232   6.890   0.655
13692TIP3    H141009   1.189   6.822   0.707
13692TIP3    H241010   1.240   6.851   0.568
13693TIP3   OH241011   1.411   7.683   0.169
13693TIP3    H141012   1.341   7.619   0.152
13693TIP3    H241013   1.393   7.715   0.257
13694TIP3   OH241014   1.887   6.988   0.061
13694TIP3    H141015   1.794   6.965   0.058
13694TIP3    H241016   1.888   7.083   0.069
13695TIP3   OH241017   1.840   7.910   1.148
13695TIP3    H141018   1.851   7.861   1.230
13695TIP3    H241019   1.794   7.990   1.174
13696TIP3   OH241020   1.958   7.255   0.125
13696TIP3    H141021   2.052   7.253   0.109
13696TIP3    H241022   1.927   7.331   0.075
13697TIP3   OH241023   1.118   7.692   0.822
13697TIP3    H141024   1.147   7.679   0.732
13697TIP3    H241025   1.175   7.635   0.874
13698TIP3   OH241026   1.582   7.832   0.020
13698TIP3    H141027   1.541   7.918   0.016
13698TIP3    H241028   1.520   7.778   0.069
13699TIP3   OH241029   1.000   7.579   1.477
13699TIP3    H141030   0.972   7.569   1.568
13699TIP3    H241031   0.928   7.544   1.425
13700TIP3   OH241032   4.857   0.284   1.059
13700TIP3    H141033   4.772   0.278   1.015
13700TIP3    H241034   4.840   0.340   1.135
13701TIP3   OH241035   8.049   3.332   6.905
13701TIP3    H141036   7.995   3.281   6.844
13701TIP3    H241037   8.049   3.421   6.869
13702TIP3   OH241038   7.768   4.129   6.836
13702TIP3    H141039   7.740   4.052   6.885
13702TIP3    H241040   7.785   4.096   6.748
13703TIP3   OH241041   2.048   7.794   0.666
13703TIP3    H141042   1.959   7.762   0.674
13703TIP3    H241043   2.097   7.722   0.628
13704TIP3   OH241044   4.074   0.009   0.489
13704TIP3    H141045   4.071   0.083   0.428
13704TIP3    H241046   3.984  -0.001   0.519
13705TIP3   OH241047   0.810   7.309   0.205
13705TIP3    H141048   0.849   7.394   0.225
13705TIP3    H241049   0.728   7.309   0.254
13706TIP3   OH241050   1.343   7.779   0.410
13706TIP3    H141051   1.314   7.868   0.432
13706TIP3    H241052   1.306   7.725   0.480
13707TIP3   OH241053   4.470   0.255   0.799
13707TIP3    H141054   4.394   0.314   0.803
13707TIP3    H241055   4.509   0.261   0.886
13708TIP3   OH241056   3.989   0.229   0.332
13708TIP3    H141057   3.905   0.232   0.378
13708TIP3    H241058   4.006   0.320   0.308
13709TIP3   OH241059   1.897   7.979   0.882
13709TIP3    H141060   1.893   7.953   0.974
13709TIP3    H241061   1.967   7.925   0.845
13710TIP3   OH241062   7.539   3.882   6.731
13710TIP3    H141063   7.577   3.865   6.817
13710TIP3    H241064   7.454   3.838   6.733
13711TIP3   OH241065   7.847   4.343   6.531
13711TIP3    H141066   7.859   4.392   6.450
13711TIP3    H241067   7.778   4.391   6.578
13712TIP3   OH241068   2.038   7.847   0.018
13712TIP3    H141069   2.020   7.771   0.073
13712TIP3    H241070   2.130   7.837  -0.007
13713TIP3   OH241071   3.750   0.110   1.120
13713TIP3    H141072   3.789   0.099   1.206
13713TIP3    H241073   3.751   0.205   1.106
13714TIP3   OH241074   6.893   3.845   6.737
13714TIP3    H141075   6.902   3.754   6.708
13714TIP3    H241076   6.874   3.839   6.830
13715TIP3   OH241077   1.170   7.866   0.067
13715TIP3    H141078   1.245   7.837   0.120
13715TIP3    H241079   1.171   7.961   0.074
13716TIP3   OH241080   0.902   7.562   0.282
13716TIP3    H141081   0.835   7.609   0.333
13716TIP3    H241082   0.919   7.620   0.208
13717TIP3   OH241083   1.922   6.946   0.330
13717TIP3    H141084   1.909   6.949   0.236
13717TIP3    H241085   1.955   7.033   0.353
13718TIP3   OH241086   4.281   0.053   0.015
13718TIP3    H141087   4.193   0.072   0.047
13718TIP3    H241088   4.298   0.122  -0.049
13719TIP3   OH241089   1.600   7.128   0.412
13719TIP3    H141090   1.657   7.197   0.378
13719TIP3    H241091   1.625   7.119   0.504
13720TIP3   OH241092   1.757   6.846   0.524
13720TIP3    H141093   1.727   6.923   0.571
13720TIP3    H241094   1.818   6.880   0.459
13721TIP3   OH241095   4.024   0.125   0.081
13721TIP3    H141096   4.002   0.197   0.022
13721TIP3    H241097   4.008   0.160   0.169
13722TIP3   OH241098   1.272   6.855   0.336
13722TIP3    H141099   1.264   6.947   0.359
13722TIP3    H241100   1.366   6.838   0.336
13723TIP3   OH241101   2.283   7.553   0.580
13723TIP3    H141102   2.201   7.515   0.610
13723TIP3    H241103   2.331   7.575   0.660
13724TIP3   OH241104   0.920   7.740   0.066
13724TIP3    H141105   0.991   7.803   0.074
13724TIP3    H241106   0.951   7.676   0.002
13725TIP3   OH241107   0.837   7.032   0.196
13725TIP3    H141108   0.845   7.127   0.205
13725TIP3    H241109   0.773   7.020   0.126
13726TIP3   OH241110   5.027   0.482   0.513
13726TIP3    H141111   5.066   0.462   0.428
13726TIP3    H241112   5.093   0.457   0.577
13727TIP3   OH241113   0.472   5.969   1.444
13727TIP3    H141114   0.421   5.922   1.378
13727TIP3    H241115   0.478   5.907   1.517
13728TIP3   OH241116   3.584  -0.011   0.455
13728TIP3    H141117   3.539   0.025   0.531
13728TIP3    H241118   3.540   0.030   0.380
13729TIP3   OH241119   3.794   0.511   1.592
13729TIP3    H141120   3.864   0.455   1.627
13729TIP3    H241121   3.714   0.472   1.626
13730TIP3   OH241122   7.048   4.048   6.634
13730TIP3    H141123   7.000   3.976   6.675
13730TIP3    H241124   7.122   4.005   6.590
13731TIP3   OH241125   7.488   4.087   6.552
13731TIP3    H141126   7.525   4.022   6.613
13731TIP3    H241127   7.544   4.082   6.475
13732TIP3   OH241128   6.713   3.542   6.859
13732TIP3    H141129   6.765   3.517   6.935
13732TIP3    H241130   6.778   3.554   6.789
13733TIP3   OH241131   7.289   3.763   6.695
13733TIP3    H141132   7.262   3.775   6.787
13733TIP3    H241133   7.271   3.670   6.677
13734TIP3   OH241134   1.223   7.484   0.130
13734TIP3    H141135   1.198   7.446   0.215
13734TIP3    H241136   1.270   7.414   0.086
13735TIP3   OH241137   1.459   7.612   1.338
13735TIP3    H141138   1.375   7.653   1.314
13735TIP3    H241139   1.520   7.643   1.271
13736TIP3   OH241140   7.029   3.293   6.914
13736TIP3    H141141   6.998   3.297   6.823
13736TIP3    H241142   7.124   3.297   6.907
13737TIP3   OH241143   7.833   3.585   6.585
13737TIP3    H141144   7.817   3.543   6.500
13737TIP3    H241145   7.806   3.676   6.572
13738TIP3   OH241146   1.636   7.702   1.140
13738TIP3    H141147   1.718   7.739   1.107
13738TIP3    H241148   1.569   7.763   1.108
13739TIP3   OH241149   6.854   4.351   6.848
13739TIP3    H141150   6.941   4.327   6.817
13739TIP3    H241151   6.812   4.393   6.772
13740TIP3   OH241152   0.646   7.730   0.091
13740TIP3    H141153   0.741   7.743   0.085
13740TIP3    H241154   0.630   7.645   0.051
13741TIP3   OH241155   3.386   0.311   0.534
13741TIP3    H141156   3.318   0.259   0.490
13741TIP3    H241157   3.428   0.249   0.594
13742TIP3   OH241158   3.519   0.131   0.695
13742TIP3    H141159   3.508   0.066   0.764
13742TIP3    H241160   3.572   0.200   0.735
13743TIP3   OH241161   7.978   3.801   6.918
13743TIP3    H141162   8.033   3.871   6.885
13743TIP3    H241163   8.024   3.769   6.996
13744TIP3   OH241164   2.426   7.692   0.201
13744TIP3    H141165   2.357   7.635   0.236
13744TIP3    H241166   2.446   7.753   0.273
13745TIP3   OH241167   5.282   0.050   0.528
13745TIP3    H141168   5.306  -0.023   0.585
13745TIP3    H241169   5.188   0.041   0.514
13746TIP3   OH241170   5.184   0.360   0.708
13746TIP3    H141171   5.179   0.363   0.804
13746TIP3    H241172   5.130   0.285   0.684
13747TIP3   OH241173   8.030   3.571   6.773
13747TIP3    H141174   7.964   3.567   6.705
13747TIP3    H241175   8.011   3.652   6.821
13748TIP3   OH241176   7.887   3.222   6.718
13748TIP3    H141177   7.842   3.257   6.641
13748TIP3    H241178   7.878   3.127   6.710
13749TIP3   OH241179   2.240   7.516   0.308
13749TIP3    H141180   2.247   7.422   0.292
13749TIP3    H241181   2.249   7.524   0.403
13750TIP3   OH241182   0.870   7.585   1.070
13750TIP3    H141183   0.849   7.548   0.985
13750TIP3    H241184   0.966   7.587   1.073
13751TIP3   OH241185   7.851   2.953   6.706
13751TIP3    H141186   7.906   2.905   6.767
13751TIP3    H241187   7.764   2.914   6.716
13752TIP3   OH241188   2.261   7.242   0.202
13752TIP3    H141189   2.287   7.150   0.201
13752TIP3    H241190   2.300   7.279   0.122
13753TIP3   OH241191   1.098   6.968   0.943
13753TIP3    H141192   1.133   6.885   0.910
13753TIP3    H241193   1.175   7.015   0.976
13754TIP3   OH241194   0.844   7.237   1.140
13754TIP3    H141195   0.897   7.243   1.061
13754TIP3    H241196   0.890   7.291   1.205
13755TIP3   OH241197   8.113   2.893   6.866
13755TIP3    H141198   8.142   2.831   6.799
13755TIP3    H241199   8.163   2.973   6.849
13756TIP3   OH241200   0.824   6.755   0.647
13756TIP3    H141201   0.737   6.733   0.679
13756TIP3    H241202   0.808   6.805   0.567
13757TIP3   OH241203   4.886   0.445   0.167
13757TIP3    H141204   4.900   0.404   0.082
13757TIP3    H241205   4.949   0.517   0.171
13758TIP3   OH241206   0.867   6.677   1.427
13758TIP3    H141207   0.948   6.681   1.478
13758TIP3    H241208   0.850   6.768   1.402
13759TIP3   OH241209   3.929   0.272   1.662
13759TIP3    H141210   3.843   0.246   1.631
13759TIP3    H241211   3.925   0.263   1.757
13760TIP3   OH241212   4.177   0.175   0.977
13760TIP3    H141213   4.102   0.172   1.036
13760TIP3    H241214   4.223   0.255   1.001
13761TIP3   OH241215   3.768   0.391   1.079
13761TIP3    H141216   3.734   0.472   1.041
13761TIP3    H241217   3.748   0.397   1.172
13762TIP3   OH241218   4.002   0.471   0.946
13762TIP3    H141219   3.921   0.456   0.994
13762TIP3    H241220   3.974   0.502   0.860
13763TIP3   OH241221   4.525   0.570   0.702
13763TIP3    H141222   4.446   0.516   0.699
13763TIP3    H241223   4.497   0.651   0.743
13764TIP3   OH241224   4.731   0.423   0.812
13764TIP3    H141225   4.675   0.479   0.759
13764TIP3    H241226   4.798   0.482   0.847
13765TIP3   OH241227   4.820   0.639   0.605
13765TIP3    H141228   4.846   0.727   0.577
13765TIP3    H241229   4.894   0.583   0.581
13766TIP3   OH241230   3.690   0.310   0.819
13766TIP3    H141231   3.697   0.316   0.914
13766TIP3    H241232   3.765   0.256   0.793
13767TIP3   OH241233   3.889   0.152   0.727
13767TIP3    H141234   3.904   0.080   0.788
13767TIP3    H241235   3.976   0.190   0.713
13768TIP3   OH241236   4.153   0.218   0.706
13768TIP3    H141237   4.185   0.148   0.648
13768TIP3    H241238   4.168   0.186   0.794
13769TIP3   OH241239   1.125   6.712   0.833
13769TIP3    H141240   1.037   6.674   0.838
13769TIP3    H241241   1.184   6.636   0.836
13770TIP3   OH241242   0.967   6.568   0.484
13770TIP3    H141243   0.984   6.616   0.403
13770TIP3    H241244   0.921   6.631   0.540
13771TIP3   OH241245   1.586   6.701   0.706
13771TIP3    H141246   1.643   6.753   0.650
13771TIP3    H241247   1.594   6.740   0.792
13772TIP3   OH241248   2.138   6.785   0.212
13772TIP3    H141249   2.083   6.845   0.262
13772TIP3    H241250   2.134   6.703   0.260
13773TIP3   OH241251   3.472   0.110   0.236
13773TIP3    H141252   3.387   0.076   0.208
13773TIP3    H241253   3.473   0.200   0.206
13774TIP3   OH241254   1.064   6.689   0.242
13774TIP3    H141255   1.110   6.628   0.185
13774TIP3    H241256   1.133   6.745   0.278
13775TIP3   OH241257   1.546   6.874   0.331
13775TIP3    H141258   1.603   6.822   0.389
13775TIP3    H241259   1.565   6.965   0.355
13776TIP3   OH241260   7.106   4.274   6.773
13776TIP3    H141261   7.190   4.301   6.735
13776TIP3    H241262   7.076   4.203   6.716
13777TIP3   OH241263   7.810   4.396   6.858
13777TIP3    H141264   7.801   4.301   6.848
13777TIP3    H241265   7.764   4.433   6.783
13778TIP3   OH241266   6.409   4.112   6.833
13778TIP3    H141267   6.407   4.118   6.928
13778TIP3    H241268   6.490   4.066   6.813
13779TIP3   OH241269   2.563   7.449   0.155
13779TIP3    H141270   2.546   7.543   0.161
13779TIP3    H241271   2.522   7.422   0.073
13780TIP3   OH241272   8.148   3.988   6.808
13780TIP3    H141273   8.116   4.004   6.719
13780TIP3    H241274   8.182   4.073   6.837
13781TIP3   OH241275   0.054   3.653   6.824
13781TIP3    H141276  -0.027   3.702   6.811
13781TIP3    H241277   0.032   3.564   6.797
13782TIP3   OH241278   5.335   0.312   0.460
13782TIP3    H141279   5.338   0.217   0.469
13782TIP3    H241280   5.318   0.343   0.549
13783TIP3   OH241281   0.368   4.661   6.548
13783TIP3    H141282   0.380   4.667   6.453
13783TIP3    H241283   0.439   4.713   6.585
13784TIP3   OH241284   8.378   4.493   6.914
13784TIP3    H141285   8.399   4.466   7.004
13784TIP3    H241286   8.334   4.417   6.876
13785TIP3   OH241287   0.214   3.177   6.488
13785TIP3    H141288   0.158   3.114   6.533
13785TIP3    H241289   0.193   3.167   6.395
13786TIP3   OH241290   8.244   3.133   6.844
13786TIP3    H141291   8.280   3.174   6.765
13786TIP3    H241292   8.188   3.201   6.882
13787TIP3   OH241293   0.084   3.413   6.673
13787TIP3    H141294   0.044   3.362   6.603
13787TIP3    H241295   0.178   3.403   6.660
13788TIP3   OH241296   0.420   3.870   6.690
13788TIP3    H141297   0.365   3.899   6.616
13788TIP3    H241298   0.373   3.901   6.768
13789TIP3   OH241299   0.539   4.017   6.406
13789TIP3    H141300   0.542   4.087   6.471
13789TIP3    H241301   0.566   3.938   6.454
13790TIP3   OH241302   0.190   4.265   6.859
13790TIP3    H141303   0.171   4.353   6.826
13790TIP3    H241304   0.144   4.260   6.943
13791TIP3   OH241305   8.264   3.548   6.623
13791TIP3    H141306   8.304   3.633   6.638
13791TIP3    H241307   8.182   3.551   6.674
13792TIP3   OH241308   0.291   3.996   6.899
13792TIP3    H141309   0.252   4.079   6.872
13792TIP3    H241310   0.310   4.007   6.992
13793TIP3   OH241311   0.115   4.517   6.767
13793TIP3    H141312   0.032   4.534   6.813
13793TIP3    H241313   0.156   4.603   6.760
13794TIP3   OH241314   0.133   4.093   6.248
13794TIP3    H141315   0.088   4.008   6.251
13794TIP3    H241316   0.135   4.122   6.339
13795TIP3   OH241317   0.063   4.199   6.497
13795TIP3    H141318   0.144   4.199   6.547
13795TIP3    H241319   0.034   4.290   6.495
13796TIP3   OH241320   8.337   3.806   6.708
13796TIP3    H141321   8.274   3.852   6.764
13796TIP3    H241322   8.363   3.870   6.642
13797TIP3   OH241323   0.536   4.259   6.543
13797TIP3    H141324   0.462   4.311   6.512
13797TIP3    H241325   0.613   4.307   6.511
13798TIP3   OH241326   0.002   4.464   6.514
13798TIP3    H141327   0.032   4.532   6.454
13798TIP3    H241328   0.048   4.482   6.596
13799TIP3   OH241329   8.348   4.027   6.519
13799TIP3    H141330   8.413   4.097   6.520
13799TIP3    H241331   8.383   3.963   6.457
13800TIP3   OH241332   8.314   3.272   6.619
13800TIP3    H141333   8.316   3.367   6.629
13800TIP3    H241334   8.255   3.258   6.545
13801TIP3   OH241335   8.217   4.258   6.883
13801TIP3    H141336   8.170   4.289   6.961
13801TIP3    H241337   8.169   4.296   6.809
13802TIP3   OH241338   0.323   4.374   6.193
13802TIP3    H141339   0.259   4.317   6.151
13802TIP3    H241340   0.404   4.322   6.195
13803TIP3   OH241341   8.456   3.824   6.384
13803TIP3    H141342   8.504   3.783   6.456
13803TIP3    H241343   8.492   3.784   6.305
13804TIP3   OH241344   0.517   3.901   6.152
13804TIP3    H141345   0.554   3.948   6.227
13804TIP3    H241346   0.468   3.828   6.192
13805TIP3   OH241347   0.118   3.714   6.569
13805TIP3    H141348   0.105   3.694   6.661
13805TIP3    H241349   0.176   3.645   6.537
13806TIP3   OH241350   0.288   3.541   6.444
13806TIP3    H141351   0.301   3.611   6.379
13806TIP3    H241352   0.336   3.467   6.408
13807TIP3   OH241353   0.102   4.662   6.339
13807TIP3    H141354   0.195   4.644   6.321
13807TIP3    H241355   0.064   4.674   6.252
13808TIP3   OH241356   8.084   3.972   6.524
13808TIP3    H141357   8.177   3.995   6.521
13808TIP3    H241358   8.080   3.885   6.484
13809TIP3   OH241359   5.168   0.556   0.026
13809TIP3    H141360   5.115   0.502  -0.032
13809TIP3    H241361   5.222   0.493   0.075
13810TIP3   OH241362   5.322   0.400   0.197
13810TIP3    H141363   5.318   0.346   0.276
13810TIP3    H241364   5.369   0.479   0.223
13811TIP3   OH241365   8.086   4.377   6.675
13811TIP3    H141366   8.006   4.345   6.634
13811TIP3    H241367   8.095   4.467   6.643
13812TIP3   OH241368   0.039   3.016   6.639
13812TIP3    H141369   0.065   2.946   6.698
13812TIP3    H241370   0.002   3.083   6.697
13813TIP3   OH241371   0.369   4.633   6.273
13813TIP3    H141372   0.441   4.671   6.223
13813TIP3    H241373   0.358   4.546   6.235
13814TIP3   OH241374   8.206   4.374   6.335
13814TIP3    H141375   8.223   4.388   6.428
13814TIP3    H241376   8.287   4.335   6.301
13815TIP3   OH241377   7.444   1.084   1.314
13815TIP3    H141378   7.520   1.039   1.277
13815TIP3    H241379   7.479   1.141   1.381
13816TIP3   OH241380   7.220   0.358   1.096
13816TIP3    H141381   7.275   0.412   1.152
13816TIP3    H241382   7.280   0.295   1.057
13817TIP3   OH241383   7.420   0.510   1.199
13817TIP3    H141384   7.467   0.580   1.246
13817TIP3    H241385   7.459   0.510   1.112
13818TIP3   OH241386   7.773   1.108   0.796
13818TIP3    H141387   7.774   1.200   0.772
13818TIP3    H241388   7.862   1.077   0.779
13819TIP3   OH241389   7.268   1.290   0.879
13819TIP3    H141390   7.323   1.217   0.851
13819TIP3    H241391   7.329   1.354   0.915
13820TIP3   OH241392   7.334   1.328   1.198
13820TIP3    H141393   7.281   1.251   1.183
13820TIP3    H241394   7.409   1.296   1.248
13821TIP3   OH241395   7.524   0.520   0.949
13821TIP3    H141396   7.479   0.517   0.865
13821TIP3    H241397   7.613   0.550   0.927
13822TIP3   OH241398   7.206   0.882   1.122
13822TIP3    H141399   7.166   0.967   1.140
13822TIP3    H241400   7.195   0.832   1.202
13823TIP3   OH241401   7.986   0.437   1.157
13823TIP3    H141402   7.919   0.379   1.119
13823TIP3    H241403   7.990   0.511   1.098
13824TIP3   OH241404   7.678   1.167   1.049
13824TIP3    H141405   7.667   1.085   1.098
13824TIP3    H241406   7.709   1.139   0.963
13825TIP3   OH241407   7.452   0.912   0.980
13825TIP3    H141408   7.510   0.910   1.055
13825TIP3    H241409   7.364   0.898   1.017
13826TIP3   OH241410   7.791   1.380   0.758
13826TIP3    H141411   7.834   1.435   0.692
13826TIP3    H241412   7.726   1.437   0.798
13827TIP3   OH241413   7.634   0.907   1.189
13827TIP3    H141414   7.619   0.839   1.255
13827TIP3    H241415   7.726   0.896   1.165
13828TIP3   OH241416   6.813   0.888   0.972
13828TIP3    H141417   6.833   0.800   0.940
13828TIP3    H241418   6.769   0.874   1.055
13829TIP3   OH241419   7.064   1.112   1.178
13829TIP3    H141420   6.974   1.099   1.208
13829TIP3    H241421   7.058   1.184   1.116
13830TIP3   OH241422   6.779   1.139   1.212
13830TIP3    H141423   6.752   1.177   1.129
13830TIP3    H241424   6.696   1.117   1.256
13831TIP3   OH241425   6.965   1.090   0.868
13831TIP3    H141426   6.921   1.015   0.909
13831TIP3    H241427   7.040   1.052   0.822
13832TIP3   OH241428   7.414   1.093   0.774
13832TIP3    H141429   7.449   1.030   0.836
13832TIP3    H241430   7.474   1.088   0.699
13833TIP3   OH241431   6.583   0.626   1.037
13833TIP3    H141432   6.606   0.629   1.130
13833TIP3    H241433   6.667   0.622   0.991
13834TIP3   OH241434   7.128   0.792   0.873
13834TIP3    H141435   7.150   0.817   0.963
13834TIP3    H241436   7.141   0.697   0.871
13835TIP3   OH241437   6.952   0.288   1.121
13835TIP3    H141438   6.909   0.322   1.043
13835TIP3    H241439   7.040   0.326   1.118
13836TIP3   OH241440   7.745   0.629   0.821
13836TIP3    H141441   7.727   0.584   0.738
13836TIP3    H241442   7.714   0.719   0.806
13837TIP3   OH241443   6.757   1.341   1.022
13837TIP3    H141444   6.853   1.342   1.018
13837TIP3    H241445   6.730   1.359   0.932
13838TIP3   OH241446   7.897   0.861   1.147
13838TIP3    H141447   7.969   0.920   1.124
13838TIP3    H241448   7.931   0.808   1.219
13839TIP3   OH241449   7.949   0.658   1.328
13839TIP3    H141450   7.999   0.647   1.408
13839TIP3    H241451   7.946   0.571   1.288
13840TIP3   OH241452   7.959   0.644   0.987
13840TIP3    H141453   7.885   0.628   0.927
13840TIP3    H241454   7.934   0.723   1.034
13841TIP3   OH241455   7.810   0.325   0.980
13841TIP3    H141456   7.822   0.317   0.885
13841TIP3    H241457   7.765   0.245   1.006
13842TIP3   OH241458   7.716   0.078   1.059
13842TIP3    H141459   7.803   0.064   1.097
13842TIP3    H241460   7.656   0.035   1.119
13843TIP3   OH241461   5.129   7.985   1.111
13843TIP3    H141462   5.131   7.893   1.084
13843TIP3    H241463   5.192   8.028   1.054
13844TIP3   OH241464   7.675   1.424   1.338
13844TIP3    H141465   7.706   1.439   1.249
13844TIP3    H241466   7.688   1.507   1.383
13845TIP3   OH241467   7.027   1.321   0.990
13845TIP3    H141468   7.117   1.330   0.959
13845TIP3    H241469   6.992   1.247   0.941
13846TIP3   OH241470   7.760   1.429   1.076
13846TIP3    H141471   7.735   1.336   1.070
13846TIP3    H241472   7.711   1.471   1.006
13847TIP3   OH241473   0.706   0.970   1.055
13847TIP3    H141474   0.681   1.059   1.029
13847TIP3    H241475   0.636   0.914   1.021
13848TIP3   OH241476   0.642   0.959   1.449
13848TIP3    H141477   0.710   0.952   1.516
13848TIP3    H241478   0.690   0.968   1.367
13849TIP3   OH241479   1.006   1.287   1.137
13849TIP3    H141480   1.036   1.231   1.209
13849TIP3    H241481   1.013   1.376   1.172
13850TIP3   OH241482   0.010   1.260   1.479
13850TIP3    H141483  -0.004   1.167   1.495
13850TIP3    H241484   0.105   1.271   1.478
13851TIP3   OH241485   8.244   0.527   1.238
13851TIP3    H141486   8.245   0.600   1.299
13851TIP3    H241487   8.151   0.503   1.231
13852TIP3   OH241488   8.295   0.731   1.422
13852TIP3    H141489   8.325   0.722   1.512
13852TIP3    H241490   8.345   0.805   1.388
13853TIP3   OH241491   0.644   1.705   1.155
13853TIP3    H141492   0.671   1.643   1.087
13853TIP3    H241493   0.655   1.656   1.237
13854TIP3   OH241494   0.527   1.212   1.478
13854TIP3    H141495   0.546   1.118   1.467
13854TIP3    H241496   0.613   1.252   1.493
13855TIP3   OH241497   1.561   0.545   1.453
13855TIP3    H141498   1.539   0.638   1.442
13855TIP3    H241499   1.606   0.521   1.372
13856TIP3   OH241500   0.921   0.675   1.497
13856TIP3    H141501   0.979   0.604   1.525
13856TIP3    H241502   0.893   0.650   1.409
13857TIP3   OH241503   0.328   0.413   1.457
13857TIP3    H141504   0.284   0.482   1.408
13857TIP3    H241505   0.337   0.341   1.395
13858TIP3   OH241506   0.991   0.455   1.100
13858TIP3    H141507   1.053   0.445   1.172
13858TIP3    H241508   1.042   0.493   1.029
13859TIP3   OH241509   0.347   0.764   1.390
13859TIP3    H141510   0.438   0.737   1.401
13859TIP3    H241511   0.305   0.688   1.348
13860TIP3   OH241512   1.575   0.750   1.704
13860TIP3    H141513   1.498   0.798   1.672
13860TIP3    H241514   1.542   0.662   1.722
13861TIP3   OH241515   0.606   1.186   0.911
13861TIP3    H141516   0.571   1.164   0.824
13861TIP3    H241517   0.559   1.265   0.937
13862TIP3   OH241518   1.161   0.460   1.315
13862TIP3    H141519   1.130   0.441   1.403
13862TIP3    H241520   1.216   0.538   1.325
13863TIP3   OH241521   8.090   1.026   1.037
13863TIP3    H141522   8.061   1.043   0.948
13863TIP3    H241523   8.115   1.112   1.071
13864TIP3   OH241524   1.013   1.539   1.259
13864TIP3    H141525   0.925   1.525   1.294
13864TIP3    H241526   1.014   1.631   1.231
13865TIP3   OH241527   1.353   0.498   1.642
13865TIP3    H141528   1.266   0.492   1.601
13865TIP3    H241529   1.414   0.495   1.569
13866TIP3   OH241530   0.734   1.558   0.938
13866TIP3    H141531   0.781   1.475   0.929
13866TIP3    H241532   0.800   1.625   0.916
13867TIP3   OH241533   0.876   1.330   0.897
13867TIP3    H141534   0.825   1.251   0.878
13867TIP3    H241535   0.926   1.308   0.976
13868TIP3   OH241536   1.288   1.330   1.634
13868TIP3    H141537   1.239   1.306   1.555
13868TIP3    H241538   1.262   1.421   1.651
13869TIP3   OH241539   0.538   0.823   0.885
13869TIP3    H141540   0.458   0.870   0.866
13869TIP3    H241541   0.588   0.826   0.803
13870TIP3   OH241542   0.513   0.616   0.591
13870TIP3    H141543   0.577   0.667   0.640
13870TIP3    H241544   0.564   0.550   0.545
13871TIP3   OH241545   1.417   1.079   1.467
13871TIP3    H141546   1.327   1.112   1.462
13871TIP3    H241547   1.454   1.097   1.381
13872TIP3   OH241548   0.893   0.900   0.864
13872TIP3    H141549   0.841   0.926   0.940
13872TIP3    H241550   0.977   0.871   0.902
13873TIP3   OH241551   1.100   1.003   1.696
13873TIP3    H141552   1.087   1.079   1.753
13873TIP3    H241553   1.091   1.038   1.608
13874TIP3   OH241554   0.130   0.887   1.257
13874TIP3    H141555   0.100   0.821   1.195
13874TIP3    H241556   0.209   0.849   1.297
13875TIP3   OH241557   0.276   1.314   1.402
13875TIP3    H141558   0.270   1.287   1.310
13875TIP3    H241559   0.361   1.280   1.430
13876TIP3   OH241560   0.246   0.896   1.608
13876TIP3    H141561   0.283   0.846   1.535
13876TIP3    H241562   0.320   0.946   1.642
13877TIP3   OH241563   0.772   1.512   1.386
13877TIP3    H141564   0.771   1.585   1.448
13877TIP3    H241565   0.787   1.434   1.440
13878TIP3   OH241566   0.732   0.767   0.684
13878TIP3    H141567   0.790   0.825   0.734
13878TIP3    H241568   0.762   0.775   0.594
13879TIP3   OH241569   0.481   1.435   0.939
13879TIP3    H141570   0.562   1.485   0.948
13879TIP3    H241571   0.423   1.491   0.887
13880TIP3   OH241572   1.248  -0.003   0.735
13880TIP3    H141573   1.171   0.021   0.786
13880TIP3    H241574   1.264   0.072   0.678
13881TIP3   OH241575   8.499   0.721   1.060
13881TIP3    H141576   8.427   0.774   1.025
13881TIP3    H241577   8.456   0.643   1.096
13882TIP3   OH241578   1.060   1.369   0.289
13882TIP3    H141579   1.056   1.462   0.266
13882TIP3    H241580   1.149   1.343   0.268
13883TIP3   OH241581   1.500   1.782   1.666
13883TIP3    H141582   1.511   1.687   1.668
13883TIP3    H241583   1.420   1.798   1.716
13884TIP3   OH241584   0.356   1.652   0.755
13884TIP3    H141585   0.334   1.641   0.662
13884TIP3    H241586   0.318   1.737   0.778
13885TIP3   OH241587   8.307   1.517   1.142
13885TIP3    H141588   8.354   1.511   1.225
13885TIP3    H241589   8.263   1.433   1.132
13886TIP3   OH241590   0.625   1.679   0.710
13886TIP3    H141591   0.532   1.658   0.721
13886TIP3    H241592   0.670   1.622   0.772
13887TIP3   OH241593   0.813   0.746   0.422
13887TIP3    H141594   0.769   0.749   0.337
13887TIP3    H241595   0.895   0.794   0.408
13888TIP3   OH241596   0.519   0.181   0.724
13888TIP3    H141597   0.500   0.170   0.817
13888TIP3    H241598   0.487   0.101   0.683
13889TIP3   OH241599   0.195   0.571   1.278
13889TIP3    H141600   0.110   0.545   1.314
13889TIP3    H241601   0.199   0.528   1.192
13890TIP3   OH241602   0.668   0.615   1.010
13890TIP3    H141603   0.623   0.690   0.971
13890TIP3    H241604   0.731   0.587   0.943
13891TIP3   OH241605   0.799   0.595   1.253
13891TIP3    H141606   0.749   0.623   1.177
13891TIP3    H241607   0.875   0.549   1.216
13892TIP3   OH241608   0.173   0.137   0.663
13892TIP3    H141609   0.183   0.156   0.756
13892TIP3    H241610   0.098   0.189   0.636
13893TIP3   OH241611   8.178   0.246   1.090
13893TIP3    H141612   8.216   0.279   1.009
13893TIP3    H241613   8.117   0.315   1.117
13894TIP3   OH241614   0.835   0.893   1.635
13894TIP3    H141615   0.870   0.816   1.590
13894TIP3    H241616   0.908   0.926   1.687
13895TIP3   OH241617   0.591   0.377   1.361
13895TIP3    H141618   0.516   0.407   1.413
13895TIP3    H241619   0.661   0.439   1.382
13896TIP3   OH241620   8.472   0.444   1.357
13896TIP3    H141621   8.391   0.457   1.307
13896TIP3    H241622   8.495   0.352   1.341
13897TIP3   OH241623   0.206   0.421   1.049
13897TIP3    H141624   0.299   0.442   1.042
13897TIP3    H241625   0.169   0.450   0.965
13898TIP3   OH241626   1.068   0.446   1.578
13898TIP3    H141627   1.081   0.420   1.669
13898TIP3    H241628   0.995   0.392   1.547
13899TIP3   OH241629   0.084   0.446   0.804
13899TIP3    H141630   0.023   0.398   0.749
13899TIP3    H241631   0.141   0.493   0.743
13900TIP3   OH241632   1.155   2.179   1.788
13900TIP3    H141633   1.137   2.186   1.694
13900TIP3    H241634   1.191   2.091   1.799
13901TIP3   OH241635   0.603   0.662   1.437
13901TIP3    H141636   0.674   0.648   1.375
13901TIP3    H241637   0.632   0.737   1.490
13902TIP3   OH241638   0.061   0.182   1.354
13902TIP3    H141639   0.090   0.098   1.391
13902TIP3    H241640   0.030   0.160   1.266
13903TIP3   OH241641   0.302   0.962   0.826
13903TIP3    H141642   0.229   0.904   0.807
13903TIP3    H241643   0.281   1.000   0.911
13904TIP3   OH241644   0.773   0.281   0.722
13904TIP3    H141645   0.680   0.263   0.722
13904TIP3    H241646   0.779   0.376   0.738
13905TIP3   OH241647   0.842   0.537   0.803
13905TIP3    H141648   0.936   0.540   0.817
13905TIP3    H241649   0.821   0.616   0.754
13906TIP3   OH241650   0.010   0.978   1.489
13906TIP3    H141651   0.047   0.958   1.403
13906TIP3    H241652   0.079   0.952   1.551
13907TIP3   OH241653   0.467   1.118   0.671
13907TIP3    H141654   0.423   1.202   0.667
13907TIP3    H241655   0.409   1.062   0.723
13908TIP3   OH241656   0.932   1.553   1.744
13908TIP3    H141657   0.883   1.600   1.812
13908TIP3    H241658   1.024   1.576   1.762
13909TIP3   OH241659   1.257   0.621   0.628
13909TIP3    H141660   1.201   0.576   0.564
13909TIP3    H241661   1.260   0.712   0.596
13910TIP3   OH241662   1.527   1.515   1.720
13910TIP3    H141663   1.437   1.526   1.750
13910TIP3    H241664   1.520   1.453   1.647
13911TIP3   OH241665   1.010   1.434   0.563
13911TIP3    H141666   0.969   1.368   0.619
13911TIP3    H241667   1.014   1.392   0.477
13912TIP3   OH241668   0.130   1.311   1.145
13912TIP3    H141669   0.125   1.387   1.087
13912TIP3    H241670   0.043   1.305   1.184
13913TIP3   OH241671   8.191   0.605   0.847
13913TIP3    H141672   8.242   0.683   0.870
13913TIP3    H241673   8.110   0.614   0.897
13914TIP3   OH241674   0.214   1.064   1.059
13914TIP3    H141675   0.198   1.154   1.086
13914TIP3    H241676   0.188   1.011   1.134
13915TIP3   OH241677   0.390   1.635   1.599
13915TIP3    H141678   0.430   1.712   1.558
13915TIP3    H241679   0.462   1.574   1.612
13916TIP3   OH241680   0.040   1.536   0.995
13916TIP3    H141681  -0.047   1.540   1.035
13916TIP3    H241682   0.074   1.625   1.000
13917TIP3   OH241683   0.835   1.274   1.525
13917TIP3    H141684   0.871   1.268   1.613
13917TIP3    H241685   0.906   1.243   1.468
13918TIP3   OH241686   0.752   1.174   0.473
13918TIP3    H141687   0.809   1.149   0.545
13918TIP3    H241688   0.664   1.156   0.504
13919TIP3   OH241689   0.986   1.864   1.645
13919TIP3    H141690   0.967   1.770   1.635
13919TIP3    H241691   0.984   1.898   1.555
13920TIP3   OH241692   1.066   1.644   0.243
13920TIP3    H141693   1.066   1.698   0.164
13920TIP3    H241694   0.998   1.683   0.299
13921TIP3   OH241695   0.924   1.095   0.670
13921TIP3    H141696   0.910   1.034   0.742
13921TIP3    H241697   1.019   1.100   0.660
13922TIP3   OH241698   0.095   1.141   0.463
13922TIP3    H141699   0.113   1.051   0.438
13922TIP3    H241700   0.083   1.137   0.558
13923TIP3   OH241701   0.048   1.157   0.738
13923TIP3    H141702   0.121   1.129   0.794
13923TIP3    H241703   0.051   1.252   0.741
13924TIP3   OH241704   8.285   0.851   0.941
13924TIP3    H141705   8.222   0.900   0.994
13924TIP3    H241706   8.307   0.910   0.870
13925TIP3   OH241707   0.844   0.249   0.991
13925TIP3    H141708   0.827   0.268   0.899
13925TIP3    H241709   0.893   0.325   1.023
13926TIP3   OH241710   0.324   1.348   0.664
13926TIP3    H141711   0.240   1.376   0.699
13926TIP3    H241712   0.352   1.420   0.607
13927TIP3   OH241713   0.479   0.436   1.091
13927TIP3    H141714   0.542   0.500   1.059
13927TIP3    H241715   0.507   0.417   1.181
13928TIP3   OH241716   0.671   0.183   1.187
13928TIP3    H141717   0.654   0.253   1.251
13928TIP3    H241718   0.740   0.218   1.131
13929TIP3   OH241719   0.070   1.429   0.743
13929TIP3    H141720   0.057   1.501   0.682
13929TIP3    H241721   0.061   1.469   0.830
13930TIP3   OH241722   0.194   0.174   0.926
13930TIP3    H141723   0.185   0.260   0.967
13930TIP3    H241724   0.277   0.140   0.960
13931TIP3   OH241725   1.078   0.785   1.238
13931TIP3    H141726   1.034   0.855   1.287
13931TIP3    H241727   1.144   0.752   1.298
13932TIP3   OH241728   8.300   1.032   0.727
13932TIP3    H141729   8.372   1.094   0.739
13932TIP3    H241730   8.334   0.968   0.664
13933TIP3   OH241731   8.224   0.330   0.838
13933TIP3    H141732   8.229   0.425   0.845
13933TIP3    H241733   8.211   0.313   0.744
13934TIP3   OH241734   1.042   1.810   1.192
13934TIP3    H141735   0.995   1.861   1.126
13934TIP3    H241736   1.134   1.819   1.167
13935TIP3   OH241737   8.134   1.292   1.120
13935TIP3    H141738   8.095   1.337   1.195
13935TIP3    H241739   8.097   1.337   1.044
13936TIP3   OH241740   0.256   1.344   0.360
13936TIP3    H141741   0.212   1.271   0.403
13936TIP3    H241742   0.330   1.303   0.314
13937TIP3   OH241743   0.692   1.339   0.246
13937TIP3    H141744   0.733   1.314   0.329
13937TIP3    H241745   0.764   1.375   0.194
13938TIP3   OH241746   8.420   0.835   0.583
13938TIP3    H141747   8.472   0.811   0.660
13938TIP3    H241748   8.485   0.848   0.513
13939TIP3   OH241749   0.438   1.051   0.403
13939TIP3    H141750   0.444   1.067   0.497
13939TIP3    H241751   0.442   0.956   0.394
13940TIP3   OH241752   1.022   1.283   1.748
13940TIP3    H141753   1.112   1.295   1.717
13940TIP3    H241754   0.987   1.372   1.755
13941TIP3   OH241755   0.096   0.776   0.793
13941TIP3    H141756   0.078   0.742   0.881
13941TIP3    H241757   0.146   0.706   0.751
13942TIP3   OH241758   0.239   0.593   0.636
13942TIP3    H141759   0.211   0.594   0.544
13942TIP3    H241760   0.334   0.599   0.632
13943TIP3   OH241761   1.034   0.879   0.320
13943TIP3    H141762   1.021   0.840   0.233
13943TIP3    H241763   1.007   0.970   0.309
13944TIP3   OH241764   0.075   1.635   0.559
13944TIP3    H141765   0.164   1.617   0.528
13944TIP3    H241766   0.033   1.682   0.487
13945TIP3   OH241767   8.028   1.014   0.751
13945TIP3    H141768   8.122   1.030   0.742
13945TIP3    H241769   8.015   0.928   0.711
13946TIP3   OH241770   7.940   1.608   1.176
13946TIP3    H141771   7.886   1.545   1.128
13946TIP3    H241772   7.988   1.554   1.240
13947TIP3   OH241773   8.074   1.449   1.356
13947TIP3    H141774   8.041   1.391   1.425
13947TIP3    H241775   8.131   1.511   1.402
13948TIP3   OH241776   1.319   1.876   1.176
13948TIP3    H141777   1.331   1.857   1.269
13948TIP3    H241778   1.311   1.971   1.172
13949TIP3   OH241779   1.340   1.862   1.450
13949TIP3    H141780   1.276   1.791   1.454
13949TIP3    H241781   1.405   1.840   1.517
13950TIP3   OH241782   1.201   1.087   0.649
13950TIP3    H141783   1.260   1.157   0.619
13950TIP3    H241784   1.247   1.049   0.724
13951TIP3   OH241785   1.328   0.943   0.847
13951TIP3    H141786   1.260   0.902   0.902
13951TIP3    H241787   1.392   0.976   0.910
13952TIP3   OH241788   1.381   1.358   1.254
13952TIP3    H141789   1.425   1.277   1.231
13952TIP3    H241790   1.293   1.331   1.280
13953TIP3   OH241791   1.175   1.653   1.460
13953TIP3    H141792   1.176   1.621   1.550
13953TIP3    H241793   1.126   1.587   1.412
13954TIP3   OH241794   1.243   0.863   0.496
13954TIP3    H141795   1.171   0.861   0.433
13954TIP3    H241796   1.226   0.940   0.550
13955TIP3   OH241797   1.105   0.512   0.428
13955TIP3    H141798   1.053   0.550   0.357
13955TIP3    H241799   1.095   0.417   0.417
13956TIP3   OH241800   1.127   0.793   0.971
13956TIP3    H141801   1.133   0.701   0.948
13956TIP3    H241802   1.111   0.793   1.066
13957TIP3   OH241803   1.448   1.212   1.820
13957TIP3    H141804   1.453   1.294   1.869
13957TIP3    H241805   1.389   1.230   1.747
13958TIP3   OH241806   1.664   1.045   1.831
13958TIP3    H141807   1.583   1.095   1.842
13958TIP3    H241808   1.635   0.955   1.820
13959TIP3   OH241809   1.063   0.240   0.397
13959TIP3    H141810   1.126   0.217   0.465
13959TIP3    H241811   0.980   0.204   0.428
13960TIP3   OH241812   1.128   0.530   0.862
13960TIP3    H141813   1.172   0.447   0.879
13960TIP3    H241814   1.172   0.565   0.785
13961TIP3   OH241815   1.285   0.697   1.398
13961TIP3    H141816   1.365   0.725   1.354
13961TIP3    H241817   1.290   0.738   1.484
13962TIP3   OH241818   1.338   0.866   1.619
13962TIP3    H141819   1.259   0.895   1.664
13962TIP3    H241820   1.367   0.942   1.568
13963TIP3   OH241821   1.246   0.286   0.918
13963TIP3    H141822   1.288   0.269   1.002
13963TIP3    H241823   1.181   0.216   0.909
13964TIP3   OH241824   1.289   0.200   0.555
13964TIP3    H141825   1.335   0.138   0.499
13964TIP3    H241826   1.349   0.275   0.561
13965TIP3   OH241827   8.211   0.173   1.350
13965TIP3    H141828   8.121   0.167   1.382
13965TIP3    H241829   8.202   0.199   1.258
13966TIP3   OH241830   0.906   1.749   0.847
13966TIP3    H141831   0.939   1.728   0.760
13966TIP3    H241832   0.939   1.838   0.864
13967TIP3   OH241833   0.148   1.595   1.740
13967TIP3    H141834   0.122   1.683   1.715
13967TIP3    H241835   0.238   1.587   1.707
13968TIP3   OH241836   0.771   1.999   1.756
13968TIP3    H141837   0.839   1.950   1.710
13968TIP3    H241838   0.799   1.999   1.848
13969TIP3   OH241839   0.073   1.843   1.644
13969TIP3    H141840  -0.014   1.860   1.679
13969TIP3    H241841   0.064   1.856   1.549
13970TIP3   OH241842   0.487   1.846   1.442
13970TIP3    H141843   0.420   1.853   1.375
13970TIP3    H241844   0.493   1.934   1.480
13971TIP3   OH241845   0.750   1.771   1.483
13971TIP3    H141846   0.658   1.791   1.468
13971TIP3    H241847   0.798   1.840   1.438
13972TIP3   OH241848   0.973   1.979   1.396
13972TIP3    H141849   0.954   2.059   1.347
13972TIP3    H241850   0.995   1.915   1.329
13973TIP3   OH241851   8.247   1.618   1.502
13973TIP3    H141852   8.262   1.603   1.595
13973TIP3    H241853   8.324   1.581   1.459
13974TIP3   OH241854   8.454   1.502   1.372
13974TIP3    H141855   8.467   1.417   1.414
13974TIP3    H241856   8.541   1.542   1.373
13975TIP3   OH241857   0.218   1.588   1.387
13975TIP3    H141858   0.241   1.496   1.374
13975TIP3    H241859   0.262   1.612   1.469
13976TIP3   OH241860   0.876   0.288   1.477
13976TIP3    H141861   0.817   0.222   1.512
13976TIP3    H241862   0.921   0.244   1.404
13977TIP3   OH241863   1.291   0.152   1.377
13977TIP3    H141864   1.335   0.200   1.306
13977TIP3    H241865   1.201   0.184   1.374
13978TIP3   OH241866   1.403   0.231   1.140
13978TIP3    H141867   1.473   0.170   1.113
13978TIP3    H241868   1.440   0.318   1.124
13979TIP3   OH241869   5.464   7.889   1.042
13979TIP3    H141870   5.546   7.891   0.993
13979TIP3    H241871   5.491   7.889   1.134
13980TIP3   OH241872   0.540  -0.020   1.326
13980TIP3    H141873   0.548   0.070   1.295
13980TIP3    H241874   0.472  -0.017   1.393
13981TIP3   OH241875   1.012   0.126   1.303
13981TIP3    H141876   1.065   0.083   1.236
13981TIP3    H241877   0.987   0.055   1.363
13982TIP3   OH241878   1.055   0.085   0.908
13982TIP3    H141879   0.975   0.128   0.938
13982TIP3    H241880   1.048  -0.004   0.941
13983TIP3   OH241881   8.030   1.414   0.899
13983TIP3    H141882   7.947   1.377   0.870
13983TIP3    H241883   8.030   1.503   0.864
13984TIP3   OH241884   5.633   7.998   0.833
13984TIP3    H141885   5.658   7.923   0.780
13984TIP3    H241886   5.716   8.041   0.855
13985TIP3   OH241887   0.473   0.175   1.000
13985TIP3    H141888   0.545   0.162   1.061
13985TIP3    H241889   0.451   0.267   1.008
13986TIP3   OH241890   0.333   1.582   0.474
13986TIP3    H141891   0.384   1.632   0.411
13986TIP3    H241892   0.307   1.503   0.427
13987TIP3   OH241893   1.020   1.704   0.598
13987TIP3    H141894   1.018   1.608   0.589
13987TIP3    H241895   0.973   1.736   0.521
13988TIP3   OH241896   8.119   1.406   0.567
13988TIP3    H141897   8.133   1.421   0.661
13988TIP3    H241898   8.200   1.363   0.538
13989TIP3   OH241899   1.230   1.913   1.768
13989TIP3    H141900   1.243   1.824   1.801
13989TIP3    H241901   1.147   1.909   1.720
13990TIP3   OH241902   2.527   1.237   0.500
13990TIP3    H141903   2.491   1.325   0.484
13990TIP3    H241904   2.452   1.179   0.494
13991TIP3   OH241905   2.499   1.217   0.926
13991TIP3    H141906   2.534   1.207   1.015
13991TIP3    H241907   2.457   1.133   0.908
13992TIP3   OH241908   1.807   1.095   1.278
13992TIP3    H141909   1.829   1.032   1.347
13992TIP3    H241910   1.891   1.121   1.242
13993TIP3   OH241911   2.786   1.470   0.569
13993TIP3    H141912   2.753   1.412   0.638
13993TIP3    H241913   2.788   1.557   0.609
13994TIP3   OH241914   1.834   1.479   1.040
13994TIP3    H141915   1.801   1.391   1.026
13994TIP3    H241916   1.917   1.481   0.992
13995TIP3   OH241917   1.488   0.723   0.768
13995TIP3    H141918   1.448   0.806   0.794
13995TIP3    H241919   1.416   0.672   0.731
13996TIP3   OH241920   1.561   1.018   0.984
13996TIP3    H141921   1.611   0.942   1.015
13996TIP3    H241922   1.628   1.080   0.957
13997TIP3   OH241923   2.389   1.959   0.613
13997TIP3    H141924   2.436   1.876   0.614
13997TIP3    H241925   2.369   1.976   0.705
13998TIP3   OH241926   2.315   1.437   0.953
13998TIP3    H141927   2.355   1.356   0.922
13998TIP3    H241928   2.388   1.490   0.984
13999TIP3   OH241929   3.299   0.738   0.910
13999TIP3    H141930   3.307   0.818   0.963
13999TIP3    H241931   3.352   0.755   0.832
14000TIP3   OH241932   2.735   0.940   0.992
14000TIP3    H141933   2.768   0.854   1.018
14000TIP3    H241934   2.692   0.925   0.908
14001TIP3   OH241935   2.086   0.598   0.947
14001TIP3    H141936   2.058   0.671   0.893
14001TIP3    H241937   2.031   0.525   0.920
14002TIP3   OH241938   2.768   0.693   0.577
14002TIP3    H141939   2.829   0.667   0.646
14002TIP3    H241940   2.824   0.724   0.506
14003TIP3   OH241941   1.707   0.806   1.086
14003TIP3    H141942   1.789   0.785   1.131
14003TIP3    H241943   1.710   0.754   1.005
14004TIP3   OH241944   2.124   1.012   0.887
14004TIP3    H141945   2.218   0.995   0.890
14004TIP3    H241946   2.085   0.930   0.858
14005TIP3   OH241947   3.295   0.931   1.103
14005TIP3    H141948   3.216   0.979   1.081
14005TIP3    H241949   3.277   0.891   1.188
14006TIP3   OH241950   2.055   0.619   1.449
14006TIP3    H141951   2.020   0.596   1.363
14006TIP3    H241952   1.977   0.641   1.500
14007TIP3   OH241953   2.411   1.457   0.383
14007TIP3    H141954   2.361   1.429   0.306
14007TIP3    H241955   2.365   1.535   0.414
14008TIP3   OH241956   2.165   1.374   1.183
14008TIP3    H141957   2.107   1.442   1.217
14008TIP3    H241958   2.208   1.414   1.108
14009TIP3   OH241959   2.935   0.666   0.787
14009TIP3    H141960   2.894   0.661   0.873
14009TIP3    H241961   2.988   0.746   0.790
14010TIP3   OH241962   1.949   0.684   1.177
14010TIP3    H141963   2.004   0.755   1.208
14010TIP3    H241964   2.000   0.642   1.107
14011TIP3   OH241965   1.959   1.545   1.276
14011TIP3    H141966   1.913   1.528   1.194
14011TIP3    H241967   1.890   1.543   1.343
14012TIP3   OH241968   1.374   1.272   0.524
14012TIP3    H141969   1.333   1.286   0.439
14012TIP3    H241970   1.397   1.359   0.555
14013TIP3   OH241971   2.767   1.714   0.694
14013TIP3    H141972   2.703   1.711   0.765
14013TIP3    H241973   2.750   1.797   0.650
14014TIP3   OH241974   3.094   0.636   1.096
14014TIP3    H141975   3.003   0.644   1.066
14014TIP3    H241976   3.146   0.656   1.018
14015TIP3   OH241977   2.538   1.773   0.445
14015TIP3    H141978   2.600   1.707   0.475
14015TIP3    H241979   2.592   1.845   0.414
14016TIP3   OH241980   2.895   1.671   1.025
14016TIP3    H141981   2.912   1.602   0.961
14016TIP3    H241982   2.980   1.715   1.036
14017TIP3   OH241983   2.336   1.070   0.380
14017TIP3    H141984   2.253   1.115   0.366
14017TIP3    H241985   2.378   1.070   0.294
14018TIP3   OH241986   2.316   0.869   0.077
14018TIP3    H141987   2.381   0.910   0.134
14018TIP3    H241988   2.366   0.803   0.028
14019TIP3   OH241989   3.141   1.257   0.900
14019TIP3    H141990   3.073   1.322   0.881
14019TIP3    H241991   3.219   1.309   0.919
14020TIP3   OH241992   2.717   1.210   0.314
14020TIP3    H141993   2.656   1.225   0.386
14020TIP3    H241994   2.788   1.158   0.353
14021TIP3   OH241995   2.880   1.158   1.235
14021TIP3    H141996   2.911   1.249   1.226
14021TIP3    H241997   2.786   1.163   1.217
14022TIP3   OH241998   1.927   1.147   0.745
14022TIP3    H141999   1.889   1.086   0.683
14022TIP3    H242000   1.999   1.099   0.786
14023TIP3   OH242001   2.057   1.524   0.896
14023TIP3    H142002   2.045   1.548   0.804
14023TIP3    H242003   2.150   1.503   0.903
14024TIP3   OH242004   2.039   1.134   1.124
14024TIP3    H142005   2.075   1.101   1.043
14024TIP3    H242006   2.089   1.214   1.142
14025TIP3   OH242007   2.580   1.736   0.887
14025TIP3    H142008   2.567   1.820   0.932
14025TIP3    H242009   2.560   1.670   0.953
14026TIP3   OH242010   2.104   1.675   1.470
14026TIP3    H142011   2.045   1.746   1.495
14026TIP3    H242012   2.057   1.630   1.399
14027TIP3   OH242013   2.540   1.026   0.180
14027TIP3    H142014   2.594   1.088   0.228
14027TIP3    H242015   2.555   1.047   0.088
14028TIP3   OH242016   1.933   1.220   1.544
14028TIP3    H142017   1.939   1.306   1.584
14028TIP3    H242018   1.839   1.204   1.535
14029TIP3   OH242019   2.274   1.697   0.428
14029TIP3    H142020   2.361   1.736   0.441
14029TIP3    H242021   2.223   1.764   0.385
14030TIP3   OH242022   1.881   1.848   1.491
14030TIP3    H142023   1.830   1.772   1.464
14030TIP3    H242024   1.870   1.853   1.586
14031TIP3   OH242025   3.038   0.247   0.230
14031TIP3    H142026   2.960   0.264   0.283
14031TIP3    H242027   3.048   0.325   0.175
14032TIP3   OH242028   1.800   0.988   0.546
14032TIP3    H142029   1.721   1.033   0.515
14032TIP3    H242030   1.770   0.901   0.571
14033TIP3   OH242031   5.677   5.643   6.713
14033TIP3    H142032   5.686   5.737   6.697
14033TIP3    H242033   5.765   5.609   6.699
14034TIP3   OH242034   1.573   1.401   1.456
14034TIP3    H142035   1.504   1.386   1.392
14034TIP3    H242036   1.600   1.314   1.484
14035TIP3   OH242037   1.424   1.599   1.099
14035TIP3    H142038   1.423   1.512   1.138
14035TIP3    H242039   1.369   1.652   1.157
14036TIP3   OH242040   2.430   1.835   1.210
14036TIP3    H142041   2.389   1.921   1.213
14036TIP3    H242042   2.406   1.794   1.293
14037TIP3   OH242043   2.171   1.918   0.254
14037TIP3    H142044   2.121   1.900   0.174
14037TIP3    H242045   2.135   2.001   0.286
14038TIP3   OH242046   1.591   1.760   0.641
14038TIP3    H142047   1.569   1.757   0.734
14038TIP3    H242048   1.548   1.683   0.604
14039TIP3   OH242049   5.208   5.839   6.822
14039TIP3    H142050   5.264   5.767   6.794
14039TIP3    H242051   5.236   5.857   6.912
14040TIP3   OH242052   2.426   1.886   0.152
14040TIP3    H142053   2.341   1.888   0.196
14040TIP3    H242054   2.489   1.873   0.223
14041TIP3   OH242055   3.160   1.121   1.479
14041TIP3    H142056   3.114   1.176   1.543
14041TIP3    H242057   3.099   1.049   1.462
14042TIP3   OH242058   1.761   1.594   1.465
14042TIP3    H142059   1.793   1.588   1.554
14042TIP3    H242060   1.692   1.528   1.459
14043TIP3   OH242061   2.688   0.501   1.466
14043TIP3    H142062   2.767   0.482   1.517
14043TIP3    H242063   2.615   0.483   1.525
14044TIP3   OH242064   2.955   0.949   1.393
14044TIP3    H142065   2.887   0.952   1.460
14044TIP3    H242066   2.930   1.016   1.329
14045TIP3   OH242067   5.433   5.108   6.864
14045TIP3    H142068   5.380   5.074   6.791
14045TIP3    H242069   5.522   5.110   6.830
14046TIP3   OH242070   2.317   0.425   0.230
14046TIP3    H142071   2.283   0.430   0.320
14046TIP3    H242072   2.279   0.346   0.194
14047TIP3   OH242073   2.097   0.897   1.260
14047TIP3    H142074   2.054   0.905   1.345
14047TIP3    H242075   2.079   0.980   1.216
14048TIP3   OH242076   1.981   0.797   0.787
14048TIP3    H142077   1.894   0.769   0.815
14048TIP3    H242078   1.991   0.759   0.699
14049TIP3   OH242079   2.466   0.870   0.519
14049TIP3    H142080   2.416   0.940   0.477
14049TIP3    H242081   2.521   0.835   0.450
14050TIP3   OH242082   2.546   1.189   1.647
14050TIP3    H142083   2.544   1.117   1.709
14050TIP3    H242084   2.610   1.162   1.581
14051TIP3   OH242085   2.640   0.883   0.737
14051TIP3    H142086   2.567   0.904   0.679
14051TIP3    H242087   2.681   0.806   0.696
14052TIP3   OH242088   1.907   0.918   1.470
14052TIP3    H142089   1.933   0.980   1.539
14052TIP3    H242090   1.881   0.839   1.517
14053TIP3   OH242091   1.983   0.408   0.200
14053TIP3    H142092   1.974   0.408   0.295
14053TIP3    H242093   1.904   0.452   0.169
14054TIP3   OH242094   1.529   0.454   1.054
14054TIP3    H142095   1.596   0.492   1.110
14054TIP3    H242096   1.576   0.425   0.975
14055TIP3   OH242097   1.450   0.428   0.573
14055TIP3    H142098   1.495   0.463   0.496
14055TIP3    H242099   1.387   0.496   0.597
14056TIP3   OH242100   2.617   1.121   1.160
14056TIP3    H142101   2.656   1.062   1.096
14056TIP3    H242102   2.585   1.064   1.229
14057TIP3   OH242103   2.356   0.592   0.849
14057TIP3    H142104   2.275   0.588   0.900
14057TIP3    H242105   2.426   0.579   0.913
14058TIP3   OH242106   1.747   0.668   0.850
14058TIP3    H142107   1.658   0.673   0.814
14058TIP3    H242108   1.775   0.578   0.834
14059TIP3   OH242109   2.001   0.668   0.545
14059TIP3    H142110   2.095   0.678   0.533
14059TIP3    H242111   1.964   0.686   0.459
14060TIP3   OH242112   2.813   0.676   1.049
14060TIP3    H142113   2.799   0.690   1.143
14060TIP3    H242114   2.741   0.619   1.022
14061TIP3   OH242115   1.881   0.697   0.299
14061TIP3    H142116   1.816   0.648   0.249
14061TIP3    H242117   1.936   0.739   0.232
14062TIP3   OH242118   1.931   1.458   1.692
14062TIP3    H142119   1.939   1.549   1.720
14062TIP3    H242120   1.901   1.411   1.771
14063TIP3   OH242121   2.396   0.956   0.922
14063TIP3    H142122   2.450   0.886   0.885
14063TIP3    H242123   2.386   0.931   1.015
14064TIP3   OH242124   1.894   0.421   0.836
14064TIP3    H142125   1.865   0.347   0.890
14064TIP3    H242126   1.932   0.381   0.758
14065TIP3   OH242127   2.367   0.885   1.183
14065TIP3    H142128   2.279   0.874   1.219
14065TIP3    H242129   2.423   0.896   1.259
14066TIP3   OH242130   2.103   1.216   0.328
14066TIP3    H142131   2.031   1.158   0.307
14066TIP3    H242132   2.078   1.257   0.411
14067TIP3   OH242133   2.965   1.461   0.869
14067TIP3    H142134   3.001   1.511   0.795
14067TIP3    H242135   2.884   1.423   0.835
14068TIP3   OH242136   2.568   0.528   0.220
14068TIP3    H142137   2.475   0.504   0.223
14068TIP3    H242138   2.569   0.622   0.239
14069TIP3   OH242139   2.499   1.493   1.329
14069TIP3    H142140   2.542   1.470   1.412
14069TIP3    H242141   2.445   1.569   1.351
14070TIP3   OH242142   2.626   0.789   0.300
14070TIP3    H142143   2.721   0.787   0.310
14070TIP3    H242144   2.608   0.868   0.249
14071TIP3   OH242145   1.792   1.210   0.979
14071TIP3    H142146   1.837   1.196   0.896
14071TIP3    H242147   1.850   1.171   1.044
14072TIP3   OH242148   2.258   1.373   0.165
14072TIP3    H142149   2.209   1.455   0.160
14072TIP3    H242150   2.203   1.315   0.217
14073TIP3   OH242151   1.659   1.162   1.576
14073TIP3    H142152   1.667   1.135   1.667
14073TIP3    H242153   1.576   1.124   1.546
14074TIP3   OH242154   2.286   1.265   1.645
14074TIP3    H142155   2.230   1.204   1.598
14074TIP3    H242156   2.375   1.235   1.627
14075TIP3   OH242157   2.697   1.852   1.228
14075TIP3    H142158   2.607   1.838   1.199
14075TIP3    H242159   2.689   1.901   1.310
14076TIP3   OH242160   3.049   0.878   0.118
14076TIP3    H142161   2.991   0.834   0.056
14076TIP3    H242162   3.057   0.967   0.083
14077TIP3   OH242163   3.365   1.769   1.284
14077TIP3    H142164   3.289   1.712   1.276
14077TIP3    H242165   3.401   1.776   1.196
14078TIP3   OH242166   2.740   1.316   0.803
14078TIP3    H142167   2.652   1.297   0.838
14078TIP3    H242168   2.774   1.231   0.776
14079TIP3   OH242169   1.901   1.577   0.655
14079TIP3    H142170   1.899   1.649   0.592
14079TIP3    H242171   1.819   1.530   0.640
14080TIP3   OH242172   1.479   0.852   0.354
14080TIP3    H142173   1.523   0.935   0.375
14080TIP3    H242174   1.399   0.853   0.406
14081TIP3   OH242175   2.009   1.332   0.555
14081TIP3    H142176   1.999   1.420   0.593
14081TIP3    H242177   1.984   1.273   0.626
14082TIP3   OH242178   1.825   1.791   0.495
14082TIP3    H142179   1.740   1.793   0.539
14082TIP3    H242180   1.854   1.882   0.494
14083TIP3   OH242181   2.552   1.522   1.062
14083TIP3    H142182   2.530   1.511   1.154
14083TIP3    H242183   2.643   1.494   1.055
14084TIP3   OH242184   2.584   1.343   0.062
14084TIP3    H142185   2.580   1.269   0.002
14084TIP3    H242186   2.497   1.382   0.058
14085TIP3   OH242187   2.854   1.974   1.016
14085TIP3    H142188   2.776   1.919   1.024
14085TIP3    H242189   2.887   1.980   1.105
14086TIP3   OH242190   5.705   5.917   6.695
14086TIP3    H142191   5.757   5.986   6.654
14086TIP3    H242192   5.623   5.959   6.719
14087TIP3   OH242193   1.834   0.682   1.618
14087TIP3    H142194   1.750   0.720   1.645
14087TIP3    H242195   1.818   0.588   1.619
14088TIP3   OH242196   1.696   1.765   1.247
14088TIP3    H142197   1.704   1.696   1.312
14088TIP3    H242198   1.647   1.835   1.291
14089TIP3   OH242199   4.743   5.402   6.887
14089TIP3    H142200   4.748   5.310   6.861
14089TIP3    H242201   4.721   5.399   6.981
14090TIP3   OH242202   1.841   1.414   0.217
14090TIP3    H142203   1.904   1.384   0.282
14090TIP3    H242204   1.842   1.509   0.225
14091TIP3   OH242205   1.575   1.104   0.431
14091TIP3    H142206   1.508   1.148   0.483
14091TIP3    H242207   1.592   1.163   0.358
14092TIP3   OH242208   2.763   0.719   1.320
14092TIP3    H142209   2.842   0.737   1.372
14092TIP3    H242210   2.725   0.642   1.361
14093TIP3   OH242211   2.623   0.474   0.491
14093TIP3    H142212   2.602   0.490   0.399
14093TIP3    H242213   2.664   0.555   0.521
14094TIP3   OH242214   2.114   1.602   0.155
14094TIP3    H142215   2.032   1.624   0.199
14094TIP3    H242216   2.133   1.678   0.101
14095TIP3   OH242217   2.283   0.676   0.593
14095TIP3    H142218   2.344   0.745   0.568
14095TIP3    H242219   2.303   0.656   0.684
14096TIP3   OH242220   2.586   0.933   1.356
14096TIP3    H142221   2.632   0.964   1.434
14096TIP3    H242222   2.632   0.853   1.331
14097TIP3   OH242223   2.444   0.379   0.683
14097TIP3    H142224   2.423   0.456   0.737
14097TIP3    H242225   2.510   0.410   0.622
14098TIP3   OH242226   1.866   1.686   0.242
14098TIP3    H142227   1.843   1.756   0.181
14098TIP3    H242228   1.849   1.724   0.329
14099TIP3   OH242229   1.958   0.395   0.476
14099TIP3    H142230   1.945   0.483   0.511
14099TIP3    H242231   2.052   0.379   0.485
14100TIP3   OH242232   3.167   0.795   1.307
14100TIP3    H142233   3.085   0.835   1.336
14100TIP3    H242234   3.140   0.729   1.244
14101TIP3   OH242235   2.847   1.069   0.721
14101TIP3    H142236   2.770   1.013   0.735
14101TIP3    H242237   2.920   1.017   0.755
14102TIP3   OH242238   1.592   1.283   0.216
14102TIP3    H142239   1.662   1.349   0.221
14102TIP3    H242240   1.625   1.219   0.152
14103TIP3   OH242241   1.507   0.575   0.348
14103TIP3    H142242   1.519   0.670   0.358
14103TIP3    H242243   1.434   0.566   0.287
14104TIP3   OH242244   2.759   1.961   0.583
14104TIP3    H142245   2.718   2.047   0.587
14104TIP3    H242246   2.852   1.979   0.575
14105TIP3   OH242247   1.855   0.295   1.229
14105TIP3    H142248   1.855   0.265   1.138
14105TIP3    H242249   1.879   0.218   1.280
14106TIP3   OH242250   1.424   1.543   0.588
14106TIP3    H142251   1.371   1.570   0.663
14106TIP3    H242252   1.381   1.583   0.512
14107TIP3   OH242253   1.632   2.014   1.605
14107TIP3    H142254   1.688   2.018   1.682
14107TIP3    H242255   1.579   1.936   1.618
14108TIP3   OH242256   4.895   5.604   6.776
14108TIP3    H142257   4.848   5.533   6.821
14108TIP3    H242258   4.972   5.560   6.738
14109TIP3   OH242259   2.747   1.981   1.469
14109TIP3    H142260   2.668   1.993   1.523
14109TIP3    H242261   2.800   2.059   1.487
14110TIP3   OH242262   5.377   5.638   6.706
14110TIP3    H142263   5.466   5.649   6.740
14110TIP3    H242264   5.386   5.642   6.611
14111TIP3   OH242265   1.725   1.094   0.070
14111TIP3    H142266   1.776   1.070   0.147
14111TIP3    H242267   1.790   1.106   0.001
14112TIP3   OH242268   2.263   1.534   1.648
14112TIP3    H142269   2.199   1.572   1.589
14112TIP3    H242270   2.246   1.440   1.646
14113TIP3   OH242271   5.140   5.319   6.842
14113TIP3    H142272   5.110   5.334   6.931
14113TIP3    H242273   5.122   5.226   6.825
14114TIP3   OH242274   2.777   1.562   1.241
14114TIP3    H142275   2.817   1.609   1.167
14114TIP3    H242276   2.706   1.619   1.270
14115TIP3   OH242277   1.907   1.187   1.895
14115TIP3    H142278   1.967   1.138   1.839
14115TIP3    H242279   1.822   1.145   1.882
14116TIP3   OH242280   1.901   1.033   0.282
14116TIP3    H142281   1.874   1.003   0.369
14116TIP3    H242282   1.944   0.958   0.242
14117TIP3   OH242283   2.162   1.080   1.492
14117TIP3    H142284   2.081   1.130   1.490
14117TIP3    H242285   2.214   1.114   1.420
14118TIP3   OH242286   2.037   0.844   0.124
14118TIP3    H142287   2.007   0.848   0.034
14118TIP3    H242288   2.132   0.847   0.118
14119TIP3   OH242289   5.679   5.149   6.746
14119TIP3    H142290   5.665   5.107   6.661
14119TIP3    H242291   5.650   5.240   6.734
14120TIP3   OH242292   2.318   0.904   1.633
14120TIP3    H142293   2.324   0.822   1.585
14120TIP3    H242294   2.265   0.961   1.578
14121TIP3   OH242295   2.321   0.684   1.467
14121TIP3    H142296   2.365   0.616   1.416
14121TIP3    H242297   2.228   0.661   1.462
14122TIP3   OH242298   2.334   1.208   1.322
14122TIP3    H142299   2.422   1.224   1.289
14122TIP3    H242300   2.279   1.273   1.278
14123TIP3   OH242301   2.894   1.409   1.430
14123TIP3    H142302   2.846   1.455   1.361
14123TIP3    H242303   2.986   1.425   1.409
14124TIP3   OH242304   2.169   1.005   1.860
14124TIP3    H142305   2.121   0.925   1.879
14124TIP3    H242306   2.220   0.984   1.781
14125TIP3   OH242307   2.562   0.924   1.757
14125TIP3    H142308   2.574   0.838   1.797
14125TIP3    H242309   2.477   0.919   1.714
14126TIP3   OH242310   2.824   0.736   1.642
14126TIP3    H142311   2.750   0.782   1.602
14126TIP3    H242312   2.884   0.805   1.668
14127TIP3   OH242313   2.049   0.761   1.895
14127TIP3    H142314   2.014   0.727   1.813
14127TIP3    H242315   2.032   0.691   1.959
14128TIP3   OH242316   2.548   0.405   1.685
14128TIP3    H142317   2.616   0.370   1.742
14128TIP3    H242318   2.507   0.328   1.646
14129TIP3   OH242319   1.858   1.894   0.057
14129TIP3    H142320   1.946   1.875   0.025
14129TIP3    H242321   1.815   1.939  -0.016
14130TIP3   OH242322   1.318   1.275   0.235
14130TIP3    H142323   1.413   1.286   0.232
14130TIP3    H242324   1.303   1.188   0.197
14131TIP3   OH242325   1.224   1.862   0.678
14131TIP3    H142326   1.154   1.815   0.633
14131TIP3    H242327   1.272   1.795   0.726
14132TIP3   OH242328   1.369   1.694   0.841
14132TIP3    H142329   1.373   1.623   0.904
14132TIP3    H242330   1.359   1.773   0.894
14133TIP3   OH242331   2.997   2.172   0.633
14133TIP3    H142332   3.049   2.135   0.704
14133TIP3    H242333   3.053   2.164   0.556
14134TIP3   OH242334   3.115   2.140   0.910
14134TIP3    H142335   3.024   2.116   0.923
14134TIP3    H242336   3.144   2.173   0.995
14135TIP3   OH242337   2.918   1.371   0.149
14135TIP3    H142338   2.980   1.422   0.097
14135TIP3    H242339   2.972   1.322   0.211
14136TIP3   OH242340   3.069   1.207   0.299
14136TIP3    H142341   3.018   1.154   0.361
14136TIP3    H242342   3.147   1.232   0.349
14137TIP3   OH242343   3.122   1.601   0.691
14137TIP3    H142344   3.177   1.539   0.644
14137TIP3    H242345   3.140   1.685   0.651
14138TIP3   OH242346   3.119   1.837   1.006
14138TIP3    H142347   3.086   1.901   1.068
14138TIP3    H242348   3.071   1.854   0.926
14139TIP3   OH242349   5.884   5.130   6.930
14139TIP3    H142350   5.813   5.133   6.866
14139TIP3    H242351   5.865   5.203   6.989
14140TIP3   OH242352   5.723   4.783   6.860
14140TIP3    H142353   5.689   4.815   6.776
14140TIP3    H242354   5.713   4.688   6.856
14141TIP3   OH242355   2.900   1.053   0.451
14141TIP3    H142356   2.910   0.958   0.443
14141TIP3    H242357   2.883   1.068   0.544
14142TIP3   OH242358   1.540   1.129   1.232
14142TIP3    H142359   1.531   1.094   1.144
14142TIP3    H242360   1.634   1.129   1.249
14143TIP3   OH242361   3.168   1.433   1.402
14143TIP3    H142362   3.238   1.368   1.405
14143TIP3    H242363   3.151   1.446   1.309
14144TIP3   OH242364   3.402   1.277   1.412
14144TIP3    H142365   3.389   1.299   1.504
14144TIP3    H242366   3.488   1.237   1.408
14145TIP3   OH242367   5.684   4.513   6.839
14145TIP3    H142368   5.751   4.482   6.900
14145TIP3    H242369   5.604   4.468   6.865
14146TIP3   OH242370   2.918   0.780   0.352
14146TIP3    H142371   2.962   0.696   0.368
14146TIP3    H242372   2.964   0.817   0.277
14147TIP3   OH242373   3.058   0.907   0.801
14147TIP3    H142374   3.151   0.914   0.779
14147TIP3    H242375   3.053   0.938   0.892
14148TIP3   OH242376   3.041   1.036   1.037
14148TIP3    H142377   2.956   1.054   1.075
14148TIP3    H242378   3.066   1.117   0.993
14149TIP3   OH242379   3.028   0.529   0.406
14149TIP3    H142380   3.072   0.517   0.490
14149TIP3    H242381   2.965   0.457   0.401
14150TIP3   OH242382   1.726   0.528   1.233
14150TIP3    H142383   1.769   0.443   1.239
14150TIP3    H242384   1.797   0.590   1.217
14151TIP3   OH242385   1.528   0.796   1.312
14151TIP3    H142386   1.582   0.781   1.234
14151TIP3    H242387   1.532   0.890   1.325
14152TIP3   OH242388   3.511   0.750   1.412
14152TIP3    H142389   3.461   0.832   1.414
14152TIP3    H242390   3.451   0.686   1.374
14153TIP3   OH242391   3.083   0.451   0.048
14153TIP3    H142392   3.127   0.388  -0.010
14153TIP3    H242393   3.141   0.527   0.049
14154TIP3   OH242394   1.510   0.283   0.796
14154TIP3    H142395   1.425   0.280   0.840
14154TIP3    H242396   1.497   0.342   0.722
14155TIP3   OH242397   2.675   1.963   0.301
14155TIP3    H142398   2.721   1.960   0.217
14155TIP3    H242399   2.744   1.978   0.366
14156TIP3   OH242400   1.743   0.412   1.613
14156TIP3    H142401   1.703   0.328   1.636
14156TIP3    H242402   1.679   0.454   1.557
14157TIP3   OH242403   1.789   1.726   1.728
14157TIP3    H142404   1.693   1.719   1.723
14157TIP3    H242405   1.805   1.796   1.791
14158TIP3   OH242406   2.412   2.083   1.399
14158TIP3    H142407   2.432   2.052   1.488
14158TIP3    H242408   2.485   2.140   1.377
14159TIP3   OH242409   2.630   2.247   1.360
14159TIP3    H142410   2.643   2.236   1.266
14159TIP3    H242411   2.646   2.340   1.375
14160TIP3   OH242412   3.357   0.545   1.325
14160TIP3    H142413   3.281   0.548   1.383
14160TIP3    H242414   3.380   0.452   1.318
14161TIP3   OH242415   1.582   2.033   1.236
14161TIP3    H142416   1.495   2.072   1.233
14161TIP3    H242417   1.630   2.087   1.300
14162TIP3   OH242418   1.802   1.999   1.070
14162TIP3    H142419   1.745   2.045   1.131
14162TIP3    H242420   1.821   2.064   1.002
14163TIP3   OH242421   2.286   2.096   0.836
14163TIP3    H142422   2.195   2.111   0.811
14163TIP3    H242423   2.320   2.184   0.856
14164TIP3   OH242424   2.566   1.989   0.987
14164TIP3    H142425   2.491   2.000   1.046
14164TIP3    H242426   2.556   2.059   0.923
14165TIP3   OH242427   2.846   2.200   0.861
14165TIP3    H142428   2.805   2.261   0.923
14165TIP3    H242429   2.816   2.114   0.888
14166TIP3   OH242430   1.543   1.845   1.010
14166TIP3    H142431   1.487   1.883   1.078
14166TIP3    H242432   1.518   1.752   1.009
14167TIP3   OH242433   1.787   1.714   0.913
14167TIP3    H142434   1.798   1.626   0.948
14167TIP3    H242435   1.828   1.710   0.826
14168TIP3   OH242436   2.595   0.510   0.986
14168TIP3    H142437   2.575   0.447   1.056
14168TIP3    H242438   2.654   0.462   0.928
14169TIP3   OH242439   3.081   0.400   0.859
14169TIP3    H142440   3.117   0.452   0.787
14169TIP3    H242441   2.988   0.421   0.860
14170TIP3   OH242442   3.192   0.488   0.626
14170TIP3    H142443   3.266   0.433   0.598
14170TIP3    H242444   3.219   0.577   0.605
14171TIP3   OH242445   1.817   0.193   0.973
14171TIP3    H142446   1.729   0.158   0.984
14171TIP3    H242447   1.874   0.115   0.970
14172TIP3   OH242448   1.615   0.087   0.621
14172TIP3    H142449   1.650   0.140   0.549
14172TIP3    H242450   1.586   0.151   0.686
14173TIP3   OH242451   2.274   0.243   0.893
14173TIP3    H142452   2.340   0.290   0.843
14173TIP3    H242453   2.298   0.256   0.984
14174TIP3   OH242454   2.796   0.392   0.832
14174TIP3    H142455   2.799   0.355   0.743
14174TIP3    H242456   2.794   0.316   0.889
14175TIP3   OH242457   2.845   0.320   0.415
14175TIP3    H142458   2.763   0.365   0.438
14175TIP3    H242459   2.836   0.233   0.455
14176TIP3   OH242460   1.311   1.671   0.375
14176TIP3    H142461   1.226   1.645   0.339
14176TIP3    H242462   1.318   1.765   0.353
14177TIP3   OH242463   1.742   0.229   0.394
14177TIP3    H142464   1.788   0.167   0.337
14177TIP3    H242465   1.811   0.284   0.429
14178TIP3   OH242466   2.234   0.424   0.494
14178TIP3    H142467   2.287   0.370   0.552
14178TIP3    H242468   2.249   0.514   0.525
14179TIP3   OH242469   4.946   5.830   6.920
14179TIP3    H142470   5.030   5.856   6.883
14179TIP3    H242471   4.916   5.758   6.864
14180TIP3   OH242472   2.805   1.939   0.057
14180TIP3    H142473   2.823   1.854   0.018
14180TIP3    H242474   2.757   1.987  -0.011
14181TIP3   OH242475   1.412   1.661   0.039
14181TIP3    H142476   1.406   1.669   0.134
14181TIP3    H242477   1.496   1.617   0.024
14182TIP3   OH242478   4.312   1.402   0.081
14182TIP3    H142479   4.226   1.431   0.112
14182TIP3    H242480   4.315   1.431  -0.011
14183TIP3   OH242481   4.272   1.536   0.351
14183TIP3    H142482   4.347   1.525   0.409
14183TIP3    H242483   4.225   1.453   0.355
14184TIP3   OH242484   3.556   1.399   0.779
14184TIP3    H142485   3.623   1.364   0.838
14184TIP3    H242486   3.602   1.462   0.724
14185TIP3   OH242487   3.569   1.897   0.524
14185TIP3    H142488   3.530   1.842   0.591
14185TIP3    H242489   3.656   1.918   0.558
14186TIP3   OH242490   3.286   0.976   0.246
14186TIP3    H142491   3.253   1.063   0.271
14186TIP3    H242492   3.208   0.929   0.217
14187TIP3   OH242493   3.308   1.243   0.420
14187TIP3    H142494   3.348   1.166   0.459
14187TIP3    H242495   3.381   1.294   0.386
14188TIP3   OH242496   4.131   1.750   0.452
14188TIP3    H142497   4.191   1.677   0.434
14188TIP3    H242498   4.189   1.826   0.461
14189TIP3   OH242499   4.638   1.141   0.455
14189TIP3    H142500   4.591   1.106   0.530
14189TIP3    H242501   4.575   1.134   0.383
14190TIP3   OH242502   3.885   0.835   0.390
14190TIP3    H142503   3.850   0.909   0.341
14190TIP3    H242504   3.835   0.760   0.358
14191TIP3   OH242505   4.576   0.928   0.026
14191TIP3    H142506   4.650   0.915   0.086
14191TIP3    H242507   4.616   0.966  -0.052
14192TIP3   OH242508   3.441   1.047   0.544
14192TIP3    H142509   3.518   1.071   0.596
14192TIP3    H242510   3.474   0.985   0.479
14193TIP3   OH242511   3.953   1.215   0.262
14193TIP3    H142512   4.035   1.191   0.221
14193TIP3    H242513   3.897   1.138   0.252
14194TIP3   OH242514   3.653   0.910   0.893
14194TIP3    H142515   3.667   0.843   0.826
14194TIP3    H242516   3.650   0.860   0.975
14195TIP3   OH242517   7.060   5.781   6.706
14195TIP3    H142518   7.001   5.732   6.648
14195TIP3    H242519   7.009   5.857   6.732
14196TIP3   OH242520   3.950   1.699   0.650
14196TIP3    H142521   3.904   1.783   0.658
14196TIP3    H242522   4.016   1.714   0.582
14197TIP3   OH242523   4.758   0.919   0.224
14197TIP3    H142524   4.750   0.847   0.286
14197TIP3    H242525   4.826   0.975   0.260
14198TIP3   OH242526   3.713   0.868   0.613
14198TIP3    H142527   3.718   0.962   0.632
14198TIP3    H242528   3.765   0.857   0.534
14199TIP3   OH242529   5.955   5.493   6.943
14199TIP3    H142530   5.936   5.508   6.850
14199TIP3    H242531   6.001   5.572   6.971
14200TIP3   OH242532   4.116   0.539   0.525
14200TIP3    H142533   4.185   0.495   0.573
14200TIP3    H242534   4.040   0.537   0.584
14201TIP3   OH242535   7.315   5.781   6.800
14201TIP3    H142536   7.224   5.792   6.774
14201TIP3    H242537   7.352   5.724   6.732
14202TIP3   OH242538   6.941   5.276   6.782
14202TIP3    H142539   6.869   5.339   6.772
14202TIP3    H242540   7.012   5.313   6.729
14203TIP3   OH242541   6.941   5.149   6.487
14203TIP3    H142542   7.002   5.197   6.543
14203TIP3    H242543   6.995   5.084   6.442
14204TIP3   OH242544   7.383   5.393   6.739
14204TIP3    H142545   7.363   5.447   6.815
14204TIP3    H242546   7.474   5.366   6.753
14205TIP3   OH242547   3.735   1.370   0.172
14205TIP3    H142548   3.689   1.310   0.114
14205TIP3    H242549   3.817   1.325   0.193
14206TIP3   OH242550   3.881   1.813   0.358
14206TIP3    H142551   3.828   1.735   0.346
14206TIP3    H242552   3.968   1.780   0.379
14207TIP3   OH242553   3.780   1.308   0.474
14207TIP3    H142554   3.785   1.255   0.394
14207TIP3    H242555   3.819   1.392   0.449
14208TIP3   OH242556   7.158   5.301   6.604
14208TIP3    H142557   7.235   5.329   6.653
14208TIP3    H242558   7.183   5.309   6.512
14209TIP3   OH242559   3.651   1.664   0.918
14209TIP3    H142560   3.744   1.666   0.898
14209TIP3    H242561   3.640   1.589   0.976
14210TIP3   OH242562   6.915   5.989   6.789
14210TIP3    H142563   6.988   6.024   6.839
14210TIP3    H242564   6.856   5.952   6.854
14211TIP3   OH242565   7.668   4.514   6.654
14211TIP3    H142566   7.590   4.538   6.704
14211TIP3    H242567   7.686   4.590   6.599
14212TIP3   OH242568   3.580   1.215   0.008
14212TIP3    H142569   3.506   1.270  -0.015
14212TIP3    H242570   3.542   1.128   0.021
14213TIP3   OH242571   7.470   5.906   6.192
14213TIP3    H142572   7.475   6.002   6.195
14213TIP3    H242573   7.557   5.878   6.167
14214TIP3   OH242574   3.413   1.740   1.019
14214TIP3    H142575   3.362   1.669   0.981
14214TIP3    H242576   3.504   1.721   0.994
14215TIP3   OH242577   3.188   1.855   0.601
14215TIP3    H142578   3.242   1.891   0.670
14215TIP3    H242579   3.099   1.883   0.623
14216TIP3   OH242580   6.765   6.214   6.649
14216TIP3    H142581   6.715   6.194   6.569
14216TIP3    H242582   6.740   6.304   6.671
14217TIP3   OH242583   3.266   2.004   0.195
14217TIP3    H142584   3.300   2.087   0.229
14217TIP3    H242585   3.317   1.987   0.117
14218TIP3   OH242586   6.982   6.108   6.281
14218TIP3    H142587   7.047   6.045   6.250
14218TIP3    H242588   7.009   6.128   6.370
14219TIP3   OH242589   7.018   6.146   6.557
14219TIP3    H142590   6.934   6.160   6.600
14219TIP3    H242591   7.067   6.089   6.617
14220TIP3   OH242592   3.922   0.574   0.711
14220TIP3    H142593   3.826   0.575   0.708
14220TIP3    H242594   3.946   0.666   0.699
14221TIP3   OH242595   4.423   0.785   0.830
14221TIP3    H142596   4.473   0.851   0.878
14221TIP3    H242597   4.365   0.747   0.895
14222TIP3   OH242598   7.237   5.312   6.347
14222TIP3    H142599   7.198   5.285   6.264
14222TIP3    H242600   7.324   5.345   6.324
14223TIP3   OH242601   6.940   4.690   6.650
14223TIP3    H142602   6.903   4.691   6.738
14223TIP3    H242603   6.908   4.608   6.611
14224TIP3   OH242604   3.957   1.094   0.801
14224TIP3    H142605   3.903   1.147   0.860
14224TIP3    H242606   3.964   1.146   0.721
14225TIP3   OH242607   3.754   1.033   0.253
14225TIP3    H142608   3.669   1.004   0.288
14225TIP3    H242609   3.757   0.997   0.165
14226TIP3   OH242610   7.054   5.035   6.829
14226TIP3    H142611   7.004   5.111   6.797
14226TIP3    H242612   7.133   5.033   6.775
14227TIP3   OH242613   4.478   1.074   0.239
14227TIP3    H142614   4.391   1.084   0.201
14227TIP3    H242615   4.523   1.013   0.181
14228TIP3   OH242616   3.742   1.247   0.922
14228TIP3    H142617   3.813   1.308   0.944
14228TIP3    H242618   3.749   1.177   0.987
14229TIP3   OH242619   6.610   4.668   6.627
14229TIP3    H142620   6.595   4.666   6.721
14229TIP3    H242621   6.533   4.712   6.591
14230TIP3   OH242622   3.280   0.721   0.516
14230TIP3    H142623   3.355   0.742   0.572
14230TIP3    H242624   3.319   0.677   0.440
14231TIP3   OH242625   3.241   0.682   0.061
14231TIP3    H142626   3.285   0.716  -0.017
14231TIP3    H242627   3.178   0.750   0.084
14232TIP3   OH242628   4.163   0.858   0.332
14232TIP3    H142629   4.071   0.842   0.351
14232TIP3    H242630   4.206   0.854   0.418
14233TIP3   OH242631   3.534   0.894   0.334
14233TIP3    H142632   3.447   0.905   0.294
14233TIP3    H242633   3.560   0.805   0.310
14234TIP3   OH242634   6.619   4.918   6.956
14234TIP3    H142635   6.714   4.918   6.945
14234TIP3    H242636   6.584   4.941   6.869
14235TIP3   OH242637   6.505   4.961   6.713
14235TIP3    H142638   6.444   4.910   6.660
14235TIP3    H242639   6.563   5.003   6.649
14236TIP3   OH242640   4.239   1.197   0.401
14236TIP3    H142641   4.235   1.165   0.310
14236TIP3    H242642   4.242   1.117   0.453
14237TIP3   OH242643   3.696   0.656   0.289
14237TIP3    H142644   3.665   0.583   0.343
14237TIP3    H242645   3.710   0.618   0.203
14238TIP3   OH242646   4.193   1.024   0.622
14238TIP3    H142647   4.130   1.096   0.618
14238TIP3    H242648   4.220   1.021   0.714
14239TIP3   OH242649   6.735   5.460   6.742
14239TIP3    H142650   6.657   5.409   6.718
14239TIP3    H242651   6.708   5.510   6.819
14240TIP3   OH242652   7.198   4.776   6.643
14240TIP3    H142653   7.103   4.765   6.639
14240TIP3    H242654   7.212   4.870   6.637
14241TIP3   OH242655   7.282   5.042   6.674
14241TIP3    H142656   7.376   5.035   6.690
14241TIP3    H242657   7.273   5.120   6.620
14242TIP3   OH242658   3.537   1.377   0.374
14242TIP3    H142659   3.589   1.397   0.296
14242TIP3    H242660   3.603   1.355   0.441
14243TIP3   OH242661   6.873   5.626   6.577
14243TIP3    H142662   6.816   5.703   6.578
14243TIP3    H242663   6.828   5.561   6.632
14244TIP3   OH242664   3.369   1.407   1.175
14244TIP3    H142665   3.379   1.366   1.261
14244TIP3    H242666   3.347   1.334   1.116
14245TIP3   OH242667   7.688   5.135   6.528
14245TIP3    H142668   7.624   5.095   6.470
14245TIP3    H242669   7.689   5.227   6.502
14246TIP3   OH242670   7.395   5.926   6.470
14246TIP3    H142671   7.350   5.848   6.501
14246TIP3    H242672   7.418   5.906   6.380
14247TIP3   OH242673   3.745   1.859   0.059
14247TIP3    H142674   3.725   1.937   0.007
14247TIP3    H242675   3.680   1.859   0.128
14248TIP3   OH242676   6.114   5.109   6.780
14248TIP3    H142677   6.154   5.194   6.796
14248TIP3    H242678   6.035   5.109   6.834
14249TIP3   OH242679   3.828   1.588   0.027
14249TIP3    H142680   3.788   1.675   0.035
14249TIP3    H242681   3.776   1.533   0.085
14250TIP3   OH242682   6.510   6.106   6.869
14250TIP3    H142683   6.439   6.160   6.904
14250TIP3    H242684   6.590   6.153   6.892
14251TIP3   OH242685   7.164   5.692   6.354
14251TIP3    H142686   7.202   5.655   6.434
14251TIP3    H242687   7.076   5.655   6.349
14252TIP3   OH242688   7.464   6.181   6.195
14252TIP3    H142689   7.499   6.219   6.115
14252TIP3    H242690   7.381   6.227   6.210
14253TIP3   OH242691   3.644   0.809   1.183
14253TIP3    H142692   3.606   0.896   1.168
14253TIP3    H242693   3.610   0.782   1.268
14254TIP3   OH242694   7.342   5.613   6.567
14254TIP3    H142695   7.333   5.533   6.620
14254TIP3    H242696   7.435   5.619   6.548
14255TIP3   OH242697   3.568   2.097   0.788
14255TIP3    H142698   3.545   2.013   0.827
14255TIP3    H242699   3.536   2.162   0.851
14256TIP3   OH242700   6.515   5.656   6.384
14256TIP3    H142701   6.523   5.566   6.354
14256TIP3    H242702   6.500   5.649   6.478
14257TIP3   OH242703   6.454   5.673   6.656
14257TIP3    H142704   6.485   5.649   6.743
14257TIP3    H242705   6.455   5.769   6.656
14258TIP3   OH242706   6.194   5.363   6.859
14258TIP3    H142707   6.119   5.398   6.908
14258TIP3    H242708   6.212   5.430   6.793
14259TIP3   OH242709   7.243   4.729   6.908
14259TIP3    H142710   7.221   4.738   6.815
14259TIP3    H242711   7.295   4.807   6.928
14260TIP3   OH242712   6.727   5.851   6.589
14260TIP3    H142713   6.636   5.875   6.608
14260TIP3    H242714   6.771   5.936   6.580
14261TIP3   OH242715   4.065   0.895   0.068
14261TIP3    H142716   4.120   0.934   0.000
14261TIP3    H242717   4.112   0.909   0.149
14262TIP3   OH242718   4.259   0.639   0.177
14262TIP3    H142719   4.232   0.720   0.221
14262TIP3    H242720   4.309   0.669   0.101
14263TIP3   OH242721   6.469   5.947   6.652
14263TIP3    H142722   6.453   6.005   6.577
14263TIP3    H242723   6.488   6.006   6.725
14264TIP3   OH242724   6.570   4.649   6.908
14264TIP3    H142725   6.563   4.741   6.934
14264TIP3    H242726   6.664   4.631   6.908
14265TIP3   OH242727   4.721   1.292   0.174
14265TIP3    H142728   4.637   1.251   0.195
14265TIP3    H242729   4.717   1.377   0.217
14266TIP3   OH242730   6.207   5.543   6.643
14266TIP3    H142731   6.277   5.608   6.654
14266TIP3    H242732   6.242   5.480   6.581
14267TIP3   OH242733   6.137   4.831   6.777
14267TIP3    H142734   6.146   4.927   6.779
14267TIP3    H242735   6.076   4.814   6.706
14268TIP3   OH242736   3.652   0.539   0.682
14268TIP3    H142737   3.641   0.509   0.592
14268TIP3    H242738   3.658   0.458   0.733
14269TIP3   OH242739   3.258   1.717   0.047
14269TIP3    H142740   3.242   1.739   0.139
14269TIP3    H242741   3.224   1.792  -0.002
14270TIP3   OH242742   6.706   5.818   6.268
14270TIP3    H142743   6.637   5.769   6.313
14270TIP3    H242744   6.782   5.759   6.270
14271TIP3   OH242745   7.170   5.925   6.206
14271TIP3    H142746   7.158   5.845   6.257
14271TIP3    H242747   7.263   5.927   6.186
14272TIP3   OH242748   6.345   5.359   6.494
14272TIP3    H142749   6.398   5.332   6.570
14272TIP3    H242750   6.408   5.370   6.423
14273TIP3   OH242751   6.891   5.602   6.307
14273TIP3    H142752   6.877   5.602   6.402
14273TIP3    H242753   6.886   5.510   6.283
14274TIP3   OH242754   6.523   5.288   6.697
14274TIP3    H142755   6.494   5.251   6.781
14274TIP3    H242756   6.572   5.217   6.656
14275TIP3   OH242757   3.950   1.385   1.037
14275TIP3    H142758   3.893   1.384   1.114
14275TIP3    H242759   3.933   1.471   0.997
14276TIP3   OH242760   6.669   5.106   6.546
14276TIP3    H142761   6.638   5.110   6.455
14276TIP3    H242762   6.764   5.115   6.540
14277TIP3   OH242763   7.467   5.410   6.230
14277TIP3    H142764   7.456   5.361   6.148
14277TIP3    H242765   7.440   5.499   6.209
14278TIP3   OH242766   2.007   0.248   3.193
14278TIP3    H142767   2.095   0.215   3.175
14278TIP3    H242768   1.981   0.292   3.111
14279TIP3   OH242769   4.178   0.923   0.916
14279TIP3    H142770   4.191   1.018   0.907
14279TIP3    H242771   4.083   0.912   0.917
14280TIP3   OH242772   4.207   0.646   0.941
14280TIP3    H142773   4.176   0.737   0.939
14280TIP3    H242774   4.131   0.595   0.967
14281TIP3   OH242775   3.872   1.012   1.398
14281TIP3    H142776   3.888   0.932   1.448
14281TIP3    H242777   3.926   1.078   1.442
14282TIP3   OH242778   4.366   0.646   1.325
14282TIP3    H142779   4.455   0.644   1.360
14282TIP3    H242780   4.372   0.700   1.246
14283TIP3   OH242781   6.478   6.137   6.455
14283TIP3    H142782   6.567   6.115   6.429
14283TIP3    H242783   6.447   6.198   6.388
14284TIP3   OH242784   5.933   5.532   6.669
14284TIP3    H142785   6.027   5.551   6.662
14284TIP3    H242786   5.922   5.449   6.622
14285TIP3   OH242787   3.020   2.102   0.116
14285TIP3    H142788   2.953   2.037   0.095
14285TIP3    H242789   3.092   2.051   0.154
14286TIP3   OH242790   2.992   1.922   0.375
14286TIP3    H142791   3.049   1.845   0.365
14286TIP3    H242792   3.051   1.995   0.390
14287TIP3   OH242793   7.615   5.609   6.564
14287TIP3    H142794   7.667   5.660   6.502
14287TIP3    H242795   7.650   5.633   6.650
14288TIP3   OH242796   7.668   5.380   6.415
14288TIP3    H142797   7.599   5.384   6.348
14288TIP3    H242798   7.650   5.455   6.472
14289TIP3   OH242799   7.499   5.048   6.355
14289TIP3    H142800   7.460   5.063   6.268
14289TIP3    H242801   7.491   4.954   6.369
14290TIP3   OH242802   7.623   5.285   6.842
14290TIP3    H142803   7.599   5.193   6.838
14290TIP3    H242804   7.608   5.310   6.933
14291TIP3   OH242805   3.319   1.416   0.631
14291TIP3    H142806   3.302   1.348   0.565
14291TIP3    H242807   3.401   1.389   0.672
14292TIP3   OH242808   7.471   4.783   6.376
14292TIP3    H142809   7.549   4.735   6.406
14292TIP3    H242810   7.402   4.717   6.373
14293TIP3   OH242811   7.560   5.024   6.752
14293TIP3    H142812   7.608   4.943   6.774
14293TIP3    H242813   7.608   5.060   6.677
14294TIP3   OH242814   3.619   1.106   1.421
14294TIP3    H142815   3.708   1.075   1.403
14294TIP3    H242816   3.589   1.053   1.495
14295TIP3   OH242817   7.672   4.786   6.846
14295TIP3    H142818   7.714   4.775   6.931
14295TIP3    H242819   7.607   4.716   6.842
14296TIP3   OH242820   3.484   0.748   0.696
14296TIP3    H142821   3.530   0.665   0.702
14296TIP3    H242822   3.548   0.809   0.662
14297TIP3   OH242823   3.302   1.044   0.784
14297TIP3    H142824   3.341   1.038   0.696
14297TIP3    H242825   3.237   1.114   0.776
14298TIP3   OH242826   7.731   4.715   6.479
14298TIP3    H142827   7.770   4.651   6.418
14298TIP3    H242828   7.786   4.793   6.471
14299TIP3   OH242829   3.301   0.549   0.290
14299TIP3    H142830   3.214   0.528   0.322
14299TIP3    H242831   3.286   0.601   0.210
14300TIP3   OH242832   3.432   0.553   1.055
14300TIP3    H142833   3.403   0.562   1.146
14300TIP3    H242834   3.374   0.612   1.006
14301TIP3   OH242835   3.410   2.119   0.542
14301TIP3    H142836   3.399   2.152   0.631
14301TIP3    H242837   3.464   2.041   0.552
14302TIP3   OH242838   3.542   1.883   0.251
14302TIP3    H142839   3.531   1.872   0.345
14302TIP3    H242840   3.542   1.977   0.237
14303TIP3   OH242841   3.817   2.088   0.324
14303TIP3    H142842   3.865   2.006   0.314
14303TIP3    H242843   3.882   2.150   0.355
14304TIP3   OH242844   4.499   0.689   0.419
14304TIP3    H142845   4.429   0.711   0.481
14304TIP3    H242846   4.453   0.675   0.336
14305TIP3   OH242847   4.786   0.650   0.317
14305TIP3    H142848   4.860   0.697   0.278
14305TIP3    H242849   4.783   0.567   0.269
14306TIP3   OH242850   5.000   0.731   0.148
14306TIP3    H142851   5.064   0.674   0.106
14306TIP3    H242852   5.032   0.820   0.131
14307TIP3   OH242853   3.613   0.436   0.433
14307TIP3    H142854   3.523   0.405   0.447
14307TIP3    H242855   3.666   0.356   0.437
14308TIP3   OH242856   3.431   0.355   0.120
14308TIP3    H142857   3.453   0.403   0.041
14308TIP3    H242858   3.395   0.422   0.179
14309TIP3   OH242859   4.045   0.494   0.267
14309TIP3    H142860   4.120   0.538   0.227
14309TIP3    H242861   4.056   0.510   0.361
14310TIP3   OH242862   7.479   4.587   6.846
14310TIP3    H142863   7.394   4.629   6.860
14310TIP3    H242864   7.468   4.498   6.880
14311TIP3   OH242865   5.955   5.922   6.825
14311TIP3    H142866   5.870   5.891   6.795
14311TIP3    H242867   5.959   6.013   6.797
14312TIP3   OH242868   6.364   4.486   6.820
14312TIP3    H142869   6.411   4.424   6.764
14312TIP3    H242870   6.433   4.542   6.855
14313TIP3   OH242871   4.009   0.647  -0.032
14313TIP3    H142872   4.041   0.573   0.020
14313TIP3    H242873   4.036   0.724   0.016
14314TIP3   OH242874   6.732   6.068   6.391
14314TIP3    H142875   6.815   6.098   6.353
14314TIP3    H242876   6.720   5.980   6.355
14315TIP3   OH242877   7.464   6.199   6.498
14315TIP3    H142878   7.436   6.109   6.514
14315TIP3    H242879   7.479   6.204   6.404
14316TIP3   OH242880   3.878   0.758   1.506
14316TIP3    H142881   3.822   0.692   1.548
14316TIP3    H242882   3.879   0.733   1.414
14317TIP3   OH242883   4.175   0.831   1.398
14317TIP3    H142884   4.238   0.760   1.400
14317TIP3    H242885   4.162   0.855   1.490
14318TIP3   OH242886   6.044   5.931   6.463
14318TIP3    H142887   6.048   5.951   6.557
14318TIP3    H242888   6.125   5.883   6.445
14319TIP3   OH242889   7.877   5.245   6.722
14319TIP3    H142890   7.805   5.282   6.774
14319TIP3    H242891   7.835   5.204   6.647
14320TIP3   OH242892   7.769   5.763   6.397
14320TIP3    H142893   7.741   5.785   6.309
14320TIP3    H242894   7.794   5.846   6.436
14321TIP3   OH242895   0.201   4.944   6.198
14321TIP3    H142896   0.209   4.854   6.229
14321TIP3    H242897   0.259   4.949   6.123
14322TIP3   OH242898   8.312   4.915   6.094
14322TIP3    H142899   8.381   4.848   6.099
14322TIP3    H242900   8.291   4.920   6.000
14323TIP3   OH242901   7.957   4.950   6.966
14323TIP3    H142902   8.016   5.023   6.948
14323TIP3    H242903   7.954   4.901   6.883
14324TIP3   OH242904   7.886   4.948   6.481
14324TIP3    H142905   7.935   4.975   6.403
14324TIP3    H242906   7.823   5.019   6.495
14325TIP3   OH242907   8.118   5.131   6.832
14325TIP3    H142908   8.052   5.174   6.778
14325TIP3    H242909   8.175   5.086   6.770
14326TIP3   OH242910   8.260   5.176   6.212
14326TIP3    H142911   8.193   5.230   6.171
14326TIP3    H242912   8.343   5.218   6.188
14327TIP3   OH242913   8.290   4.960   6.675
14327TIP3    H142914   8.278   4.883   6.731
14327TIP3    H242915   8.374   4.945   6.631
14328TIP3   OH242916   7.905   5.324   6.276
14328TIP3    H142917   7.947   5.410   6.284
14328TIP3    H242918   7.823   5.333   6.324
14329TIP3   OH242919   8.350   5.899   5.777
14329TIP3    H142920   8.314   5.813   5.755
14329TIP3    H242921   8.420   5.880   5.839
14330TIP3   OH242922   7.974   5.591   6.305
14330TIP3    H142923   7.906   5.638   6.354
14330TIP3    H242924   8.009   5.656   6.244
14331TIP3   OH242925   7.995   5.825   6.120
14331TIP3    H142926   8.052   5.901   6.123
14331TIP3    H242927   8.037   5.766   6.057
14332TIP3   OH242928   8.006   5.056   6.243
14332TIP3    H142929   7.976   5.145   6.260
14332TIP3    H242930   7.958   5.030   6.164
14333TIP3   OH242931   8.132   5.649   5.965
14333TIP3    H142932   8.179   5.610   6.039
14333TIP3    H242933   8.193   5.644   5.892
14334TIP3   OH242934   8.287   5.545   6.165
14334TIP3    H142935   8.297   5.541   6.260
14334TIP3    H242936   8.348   5.479   6.132
14335TIP3   OH242937   8.442   5.337   6.065
14335TIP3    H142938   8.410   5.340   5.974
14335TIP3    H242939   8.535   5.320   6.057
14336TIP3   OH242940   7.722   5.802   6.122
14336TIP3    H142941   7.817   5.816   6.121
14336TIP3    H242942   7.710   5.715   6.083
14337TIP3   OH242943   7.925   4.817   6.721
14337TIP3    H142944   7.834   4.797   6.742
14337TIP3    H242945   7.921   4.871   6.643
14338TIP3   OH242946   8.246   4.734   6.838
14338TIP3    H142947   8.155   4.715   6.859
14338TIP3    H242948   8.293   4.654   6.861
14339TIP3   OH242949   8.068   4.630   6.566
14339TIP3    H142950   8.090   4.686   6.492
14339TIP3    H242951   8.027   4.688   6.629
14340TIP3   OH242952   8.186   4.799   6.318
14340TIP3    H142953   8.166   4.733   6.252
14340TIP3    H242954   8.264   4.765   6.363
14341TIP3   OH242955   0.055   4.903   6.474
14341TIP3    H142956   0.074   4.813   6.447
14341TIP3    H242957   0.103   4.957   6.412
14342TIP3   OH242958   7.788   6.159   5.976
14342TIP3    H142959   7.818   6.226   6.037
14342TIP3    H242960   7.867   6.129   5.932
14343TIP3   OH242961   7.854   2.098   1.553
14343TIP3    H142962   7.848   2.193   1.540
14343TIP3    H242963   7.935   2.073   1.508
14344TIP3   OH242964   7.333   1.907   1.239
14344TIP3    H142965   7.323   1.985   1.293
14344TIP3    H242966   7.374   1.939   1.159
14345TIP3   OH242967   7.635   1.970   1.454
14345TIP3    H142968   7.707   2.007   1.505
14345TIP3    H242969   7.678   1.931   1.378
14346TIP3   OH242970   6.908   2.289   0.993
14346TIP3    H142971   6.838   2.349   1.020
14346TIP3    H242972   6.976   2.347   0.958
14347TIP3   OH242973   6.914   2.092   0.784
14347TIP3    H142974   6.931   2.154   0.854
14347TIP3    H242975   6.830   2.052   0.808
14348TIP3   OH242976   7.322   2.312   1.080
14348TIP3    H142977   7.237   2.357   1.083
14348TIP3    H242978   7.366   2.348   1.003
14349TIP3   OH242979   7.136   2.301   0.820
14349TIP3    H142980   7.214   2.354   0.837
14349TIP3    H242981   7.144   2.276   0.728
14350TIP3   OH242982   7.622   1.565   0.881
14350TIP3    H142983   7.532   1.546   0.909
14350TIP3    H242984   7.613   1.635   0.816
14351TIP3   OH242985   7.453   2.885   0.312
14351TIP3    H142986   7.442   2.980   0.308
14351TIP3    H242987   7.541   2.872   0.347
14352TIP3   OH242988   7.175   2.223   0.558
14352TIP3    H142989   7.106   2.241   0.494
14352TIP3    H242990   7.254   2.259   0.518
14353TIP3   OH242991   6.911   1.648   0.829
14353TIP3    H142992   6.908   1.635   0.924
14353TIP3    H242993   6.858   1.577   0.794
14354TIP3   OH242994   7.075   2.194   1.221
14354TIP3    H142995   6.992   2.241   1.215
14354TIP3    H242996   7.095   2.168   1.131
14355TIP3   OH242997   7.156   1.784   0.854
14355TIP3    H142998   7.065   1.760   0.834
14355TIP3    H242999   7.169   1.867   0.808
14356TIP3   OH243000   7.159   2.069   0.989
14356TIP3    H143001   7.251   2.045   0.989
14356TIP3    H243002   7.151   2.137   0.922
14357TIP3   OH243003   7.685   2.122   0.765
14357TIP3    H143004   7.636   2.080   0.694
14357TIP3    H243005   7.669   2.216   0.751
14358TIP3   OH243006   7.074   2.740   0.609
14358TIP3    H143007   7.104   2.740   0.700
14358TIP3    H243008   6.981   2.720   0.615
14359TIP3   OH243009   7.469   3.352   0.421
14359TIP3    H143010   7.442   3.388   0.336
14359TIP3    H243011   7.403   3.385   0.482
14360TIP3   OH243012   7.180   2.666   0.851
14360TIP3    H143013   7.214   2.610   0.781
14360TIP3    H243014   7.249   2.731   0.865
14361TIP3   OH243015   7.237   1.704   1.095
14361TIP3    H143016   7.220   1.740   1.009
14361TIP3    H243017   7.260   1.779   1.149
14362TIP3   OH243018   6.712   1.993   1.300
14362TIP3    H143019   6.737   2.029   1.215
14362TIP3    H243020   6.722   2.066   1.361
14363TIP3   OH243021   7.051   1.624   1.357
14363TIP3    H143022   6.963   1.662   1.357
14363TIP3    H243023   7.109   1.698   1.368
14364TIP3   OH243024   7.008   2.957   0.464
14364TIP3    H143025   7.044   2.914   0.542
14364TIP3    H243026   7.076   2.946   0.398
14365TIP3   OH243027   6.808   2.686   0.584
14365TIP3    H143028   6.761   2.662   0.664
14365TIP3    H243029   6.794   2.612   0.525
14366TIP3   OH243030   6.627   2.215   0.872
14366TIP3    H143031   6.642   2.188   0.782
14366TIP3    H243032   6.674   2.150   0.925
14367TIP3   OH243033   7.391   2.331   0.429
14367TIP3    H143034   7.380   2.344   0.335
14367TIP3    H243035   7.409   2.418   0.463
14368TIP3   OH243036   7.567   2.669   0.810
14368TIP3    H143037   7.639   2.720   0.772
14368TIP3    H243038   7.607   2.622   0.883
14369TIP3   OH243039   7.682   2.483   0.991
14369TIP3    H143040   7.636   2.433   1.059
14369TIP3    H243041   7.754   2.526   1.037
14370TIP3   OH243042   7.621   2.378   0.733
14370TIP3    H143043   7.604   2.436   0.659
14370TIP3    H243044   7.639   2.437   0.806
14371TIP3   OH243045   7.507   2.093   0.554
14371TIP3    H143046   7.473   2.157   0.491
14371TIP3    H243047   7.469   2.009   0.525
14372TIP3   OH243048   7.606   2.378   1.276
14372TIP3    H143049   7.610   2.307   1.212
14372TIP3    H243050   7.549   2.345   1.346
14373TIP3   OH243051   7.400   1.832   0.569
14373TIP3    H143052   7.478   1.797   0.612
14373TIP3    H243053   7.340   1.758   0.564
14374TIP3   OH243054   7.430   1.964   0.993
14374TIP3    H143055   7.511   1.914   0.994
14374TIP3    H243056   7.440   2.026   0.920
14375TIP3   OH243057   7.658   1.812   1.026
14375TIP3    H143058   7.675   1.804   1.120
14375TIP3    H243059   7.650   1.722   0.996
14376TIP3   OH243060   7.643   1.760   0.688
14376TIP3    H143061   7.676   1.689   0.633
14376TIP3    H243062   7.717   1.820   0.696
14377TIP3   OH243063   7.684   1.654   1.483
14377TIP3    H143064   7.728   1.715   1.424
14377TIP3    H243065   7.600   1.696   1.502
14378TIP3   OH243066   7.784   1.809   1.277
14378TIP3    H143067   7.843   1.740   1.246
14378TIP3    H243068   7.826   1.890   1.248
14379TIP3   OH243069   7.385   1.502   0.995
14379TIP3    H143070   7.320   1.569   1.016
14379TIP3    H243071   7.386   1.445   1.072
14380TIP3   OH243072   6.794   1.731   1.335
14380TIP3    H143073   6.723   1.683   1.292
14380TIP3    H243074   6.770   1.823   1.325
14381TIP3   OH243075   0.352   2.786   0.683
14381TIP3    H143076   0.317   2.873   0.663
14381TIP3    H243077   0.283   2.725   0.655
14382TIP3   OH243078   0.351   2.759   1.072
14382TIP3    H143079   0.384   2.740   1.160
14382TIP3    H243080   0.307   2.678   1.046
14383TIP3   OH243081   0.626   3.063   0.758
14383TIP3    H143082   0.596   3.006   0.829
14383TIP3    H243083   0.645   3.146   0.800
14384TIP3   OH243084   7.868   2.270   0.916
14384TIP3    H143085   7.813   2.343   0.944
14384TIP3    H243086   7.810   2.214   0.864
14385TIP3   OH243087   7.920   2.565   1.102
14385TIP3    H143088   7.955   2.493   1.155
14385TIP3    H243089   7.980   2.638   1.119
14386TIP3   OH243090   0.280   3.512   0.779
14386TIP3    H143091   0.309   3.454   0.709
14386TIP3    H243092   0.293   3.462   0.860
14387TIP3   OH243093   0.186   2.979   1.135
14387TIP3    H143094   0.219   2.901   1.090
14387TIP3    H243095   0.265   3.029   1.155
14388TIP3   OH243096   1.178   2.330   1.111
14388TIP3    H143097   1.194   2.415   1.153
14388TIP3    H243098   1.205   2.342   1.020
14389TIP3   OH243099   0.561   2.491   1.152
14389TIP3    H143100   0.607   2.409   1.171
14389TIP3    H243101   0.530   2.481   1.062
14390TIP3   OH243102   8.425   2.156   1.114
14390TIP3    H143103   8.409   2.228   1.053
14390TIP3    H243104   8.376   2.082   1.079
14391TIP3   OH243105   0.614   2.257   0.733
14391TIP3    H143106   0.681   2.244   0.800
14391TIP3    H243107   0.662   2.286   0.656
14392TIP3   OH243108   8.049   2.363   1.242
14392TIP3    H143109   8.134   2.355   1.287
14392TIP3    H243110   8.060   2.312   1.161
14393TIP3   OH243111   8.482   2.559   1.032
14393TIP3    H143112   8.575   2.539   1.039
14393TIP3    H243113   8.443   2.478   0.998
14394TIP3   OH243114   1.241   2.543   1.290
14394TIP3    H143115   1.152   2.577   1.287
14394TIP3    H243116   1.280   2.586   1.366
14395TIP3   OH243117   8.414   2.136   1.551
14395TIP3    H143118   8.361   2.180   1.484
14395TIP3    H243119   8.366   2.151   1.632
14396TIP3   OH243120   0.213   2.993   0.566
14396TIP3    H143121   0.203   2.983   0.471
14396TIP3    H243122   0.174   3.078   0.585
14397TIP3   OH243123   0.786   2.265   0.943
14397TIP3    H143124   0.752   2.235   1.027
14397TIP3    H243125   0.840   2.341   0.965
14398TIP3   OH243126   8.294   2.261   1.337
14398TIP3    H143127   8.347   2.337   1.363
14398TIP3    H243128   8.340   2.224   1.262
14399TIP3   OH243129   7.705   2.873   0.649
14399TIP3    H143130   7.690   2.852   0.557
14399TIP3    H243131   7.799   2.887   0.655
14400TIP3   OH243132   0.661   3.305   0.894
14400TIP3    H143133   0.581   3.299   0.946
14400TIP3    H243134   0.657   3.391   0.853
14401TIP3   OH243135   0.964   2.234   1.276
14401TIP3    H143136   0.878   2.240   1.235
14401TIP3    H243137   1.025   2.256   1.205
14402TIP3   OH243138   0.254   1.845   1.270
14402TIP3    H143139   0.248   1.752   1.293
14402TIP3    H243140   0.175   1.884   1.308
14403TIP3   OH243141   0.371   3.360   0.568
14403TIP3    H143142   0.416   3.277   0.553
14403TIP3    H243143   0.436   3.427   0.548
14404TIP3   OH243144   0.513   3.137   0.515
14404TIP3    H143145   0.523   3.066   0.451
14404TIP3    H243146   0.555   3.103   0.594
14405TIP3   OH243147   0.803   3.244   1.211
14405TIP3    H143148   0.821   3.165   1.160
14405TIP3    H243149   0.830   3.316   1.154
14406TIP3   OH243150   0.183   2.625   0.528
14406TIP3    H143151   0.104   2.674   0.504
14406TIP3    H243152   0.234   2.622   0.447
14407TIP3   OH243153   0.151   2.431   0.222
14407TIP3    H143154   0.216   2.482   0.270
14407TIP3    H243155   0.201   2.363   0.177
14408TIP3   OH243156   1.040   2.831   1.057
14408TIP3    H143157   0.956   2.877   1.059
14408TIP3    H243158   1.087   2.870   0.984
14409TIP3   OH243159   0.536   2.718   0.493
14409TIP3    H143160   0.481   2.745   0.566
14409TIP3    H243161   0.617   2.688   0.533
14410TIP3   OH243162   0.732   2.714   1.367
14410TIP3    H143163   0.725   2.778   1.438
14410TIP3    H243164   0.648   2.718   1.322
14411TIP3   OH243165   8.274   2.691   0.903
14411TIP3    H143166   8.240   2.631   0.838
14411TIP3    H243167   8.350   2.646   0.940
14412TIP3   OH243168   8.428   3.063   1.051
14412TIP3    H143169   8.400   2.974   1.032
14412TIP3    H243170   8.518   3.054   1.083
14413TIP3   OH243171   8.409   2.686   1.265
14413TIP3    H143172   8.432   2.646   1.181
14413TIP3    H243173   8.491   2.724   1.298
14414TIP3   OH243174   0.432   3.303   1.044
14414TIP3    H143175   0.407   3.364   1.113
14414TIP3    H243176   0.426   3.217   1.084
14415TIP3   OH243177   0.368   2.583   0.321
14415TIP3    H143178   0.428   2.641   0.368
14415TIP3    H243179   0.396   2.588   0.229
14416TIP3   OH243180   0.110   3.255   0.581
14416TIP3    H143181   0.197   3.294   0.585
14416TIP3    H243182   0.061   3.312   0.523
14417TIP3   OH243183   0.891   1.807   0.380
14417TIP3    H143184   0.806   1.819   0.422
14417TIP3    H243185   0.900   1.881   0.321
14418TIP3   OH243186   8.161   2.528   0.701
14418TIP3    H143187   8.083   2.567   0.664
14418TIP3    H243188   8.138   2.436   0.715
14419TIP3   OH243189   3.533   7.188   6.867
14419TIP3    H143190   3.528   7.280   6.840
14419TIP3    H243191   3.622   7.161   6.843
14420TIP3   OH243192   8.489   3.455   0.386
14420TIP3    H143193   8.479   3.438   0.292
14420TIP3    H243194   8.471   3.548   0.395
14421TIP3   OH243195   0.261   3.475   0.337
14421TIP3    H143196   0.169   3.452   0.355
14421TIP3    H243197   0.311   3.424   0.401
14422TIP3   OH243198   0.898   2.684   1.652
14422TIP3    H143199   0.898   2.762   1.597
14422TIP3    H243200   0.990   2.665   1.668
14423TIP3   OH243201   8.514   1.932   1.389
14423TIP3    H143202   8.430   1.899   1.356
14423TIP3    H243203   8.491   2.012   1.436
14424TIP3   OH243204   0.558   2.074   1.602
14424TIP3    H143205   0.630   2.041   1.656
14424TIP3    H243206   0.479   2.042   1.645
14425TIP3   OH243207   0.772   2.480   1.515
14425TIP3    H143208   0.790   2.536   1.590
14425TIP3    H243209   0.759   2.541   1.442
14426TIP3   OH243210   0.451   2.568   0.061
14426TIP3    H143211   0.407   2.565  -0.023
14426TIP3    H243212   0.531   2.619   0.045
14427TIP3   OH243213   0.146   1.996   0.372
14427TIP3    H143214   0.113   1.994   0.462
14427TIP3    H243215   0.128   1.908   0.338
14428TIP3   OH243216   8.450   2.464   1.430
14428TIP3    H143217   8.479   2.484   1.519
14428TIP3    H243218   8.427   2.550   1.393
14429TIP3   OH243219   8.339   2.346   0.936
14429TIP3    H143220   8.252   2.321   0.966
14429TIP3    H243221   8.344   2.312   0.847
14430TIP3   OH243222   0.306   2.427   0.673
14430TIP3    H143223   0.257   2.497   0.630
14430TIP3    H243224   0.367   2.395   0.606
14431TIP3   OH243225   0.479   2.443   0.893
14431TIP3    H143226   0.410   2.467   0.831
14431TIP3    H243227   0.524   2.369   0.852
14432TIP3   OH243228   8.314   1.959   0.350
14432TIP3    H143229   8.308   1.965   0.446
14432TIP3    H243230   8.239   2.009   0.319
14433TIP3   OH243231   7.880   2.044   1.186
14433TIP3    H143232   7.944   2.076   1.250
14433TIP3    H243233   7.932   2.020   1.110
14434TIP3   OH243234   7.864   1.937   0.695
14434TIP3    H143235   7.906   1.968   0.614
14434TIP3    H243236   7.810   2.011   0.724
14435TIP3   OH243237   0.445   2.672   1.318
14435TIP3    H143238   0.484   2.606   1.261
14435TIP3    H243239   0.436   2.629   1.403
14436TIP3   OH243240   0.191   2.143   0.992
14436TIP3    H143241   0.116   2.142   1.051
14436TIP3    H243242   0.267   2.129   1.048
14437TIP3   OH243243   8.112   2.217   1.018
14437TIP3    H143244   8.028   2.226   0.972
14437TIP3    H243245   8.144   2.131   0.992
14438TIP3   OH243246   8.338   2.226   0.689
14438TIP3    H143247   8.433   2.235   0.680
14438TIP3    H243248   8.303   2.243   0.602
14439TIP3   OH243249   0.655   2.228   1.195
14439TIP3    H143250   0.627   2.247   1.284
14439TIP3    H243251   0.591   2.165   1.162
14440TIP3   OH243252   8.221   2.253   0.443
14440TIP3    H143253   8.157   2.206   0.390
14440TIP3    H243254   8.276   2.298   0.379
14441TIP3   OH243255   0.245   2.491   1.086
14441TIP3    H143256   0.311   2.439   1.038
14441TIP3    H243257   0.244   2.453   1.173
14442TIP3   OH243258   8.251   1.979   0.976
14442TIP3    H143259   8.219   1.903   1.024
14442TIP3    H243260   8.284   1.943   0.893
14443TIP3   OH243261   0.215   2.406   1.357
14443TIP3    H143262   0.125   2.431   1.375
14443TIP3    H243263   0.267   2.456   1.420
14444TIP3   OH243264   8.454   2.769   0.454
14444TIP3    H143265   8.379   2.714   0.433
14444TIP3    H243266   8.436   2.802   0.542
14445TIP3   OH243267   0.828   3.005   1.064
14445TIP3    H143268   0.862   3.055   0.990
14445TIP3    H243269   0.744   2.971   1.033
14446TIP3   OH243270   0.400   2.102   0.384
14446TIP3    H143271   0.307   2.079   0.376
14446TIP3    H243272   0.400   2.197   0.399
14447TIP3   OH243273   0.470   2.361   0.457
14447TIP3    H143274   0.565   2.359   0.460
14447TIP3    H243275   0.449   2.436   0.402
14448TIP3   OH243276   8.140   2.729   1.144
14448TIP3    H143277   8.179   2.728   1.057
14448TIP3    H243278   8.214   2.725   1.204
14449TIP3   OH243279   0.115   2.932   0.299
14449TIP3    H143280   0.065   3.014   0.300
14449TIP3    H243281   0.063   2.872   0.352
14450TIP3   OH243282   0.891   2.436   0.267
14450TIP3    H143283   0.836   2.389   0.205
14450TIP3    H243284   0.893   2.526   0.234
14451TIP3   OH243285   1.203   3.347   1.285
14451TIP3    H143286   1.152   3.298   1.349
14451TIP3    H243287   1.192   3.299   1.203
14452TIP3   OH243288   0.644   3.246   0.193
14452TIP3    H143289   0.596   3.178   0.241
14452TIP3    H243290   0.653   3.211   0.104
14453TIP3   OH243291   0.589   2.878   0.985
14453TIP3    H143292   0.499   2.846   0.995
14453TIP3    H243293   0.637   2.804   0.947
14454TIP3   OH243294   8.254   3.094   0.751
14454TIP3    H143295   8.330   3.146   0.777
14454TIP3    H243296   8.190   3.107   0.821
14455TIP3   OH243297   7.816   2.418   0.477
14455TIP3    H143298   7.876   2.485   0.510
14455TIP3    H243299   7.729   2.452   0.498
14456TIP3   OH243300   8.367   2.850   0.695
14456TIP3    H143301   8.331   2.938   0.710
14456TIP3    H243302   8.342   2.801   0.773
14457TIP3   OH243303   0.450   3.063   1.181
14457TIP3    H143304   0.503   3.078   1.259
14457TIP3    H243305   0.502   3.001   1.129
14458TIP3   OH243306   0.371   2.958   0.122
14458TIP3    H143307   0.434   2.953   0.193
14458TIP3    H243308   0.285   2.954   0.164
14459TIP3   OH243309   3.539   7.462   6.818
14459TIP3    H143310   3.543   7.519   6.742
14459TIP3    H243311   3.471   7.500   6.874
14460TIP3   OH243312   0.558   2.935   0.325
14460TIP3    H143313   0.544   2.859   0.382
14460TIP3    H243314   0.650   2.930   0.299
14461TIP3   OH243315   8.240   2.953   0.107
14461TIP3    H143316   8.257   2.863   0.081
14461TIP3    H243317   8.234   2.950   0.203
14462TIP3   OH243318   8.199   2.983   0.384
14462TIP3    H143319   8.275   2.960   0.437
14462TIP3    H243320   8.196   3.079   0.386
14463TIP3   OH243321   7.935   2.640   0.592
14463TIP3    H143322   7.901   2.675   0.674
14463TIP3    H243323   7.951   2.717   0.537
14464TIP3   OH243324   0.573   2.298   1.448
14464TIP3    H143325   0.650   2.344   1.481
14464TIP3    H243326   0.568   2.219   1.502
14465TIP3   OH243327   0.451   2.045   0.649
14465TIP3    H143328   0.436   2.062   0.556
14465TIP3    H243329   0.505   2.119   0.678
14466TIP3   OH243330   8.460   3.155   0.300
14466TIP3    H143331   8.379   3.190   0.336
14466TIP3    H243332   8.488   3.221   0.236
14467TIP3   OH243333   0.118   2.234   0.738
14467TIP3    H143334   0.181   2.301   0.712
14467TIP3    H243335   0.142   2.213   0.828
14468TIP3   OH243336   0.419   2.508   1.538
14468TIP3    H143337   0.467   2.526   1.619
14468TIP3    H243338   0.460   2.430   1.502
14469TIP3   OH243339   0.277   1.929   0.823
14469TIP3    H143340   0.256   2.006   0.876
14469TIP3    H243341   0.345   1.960   0.763
14470TIP3   OH243342   8.212   3.259   0.384
14470TIP3    H143343   8.199   3.319   0.311
14470TIP3    H243344   8.230   3.316   0.459
14471TIP3   OH243345   8.296   1.952   0.631
14471TIP3    H143346   8.285   2.043   0.660
14471TIP3    H243347   8.390   1.937   0.634
14472TIP3   OH243348   1.038   2.400   1.492
14472TIP3    H143349   0.948   2.428   1.508
14472TIP3    H243350   1.032   2.340   1.418
14473TIP3   OH243351   0.700   2.630   0.897
14473TIP3    H143352   0.624   2.573   0.902
14473TIP3    H243353   0.767   2.585   0.948
14474TIP3   OH243354   7.964   2.840   0.395
14474TIP3    H143355   8.035   2.905   0.400
14474TIP3    H243356   7.993   2.779   0.328
14475TIP3   OH243357   7.852   2.138   0.495
14475TIP3    H143358   7.857   2.234   0.504
14475TIP3    H243359   7.782   2.124   0.431
14476TIP3   OH243360   0.663   3.570   0.826
14476TIP3    H143361   0.608   3.638   0.787
14476TIP3    H243362   0.749   3.581   0.784
14477TIP3   OH243363   8.244   1.858   1.361
14477TIP3    H143364   8.221   1.828   1.273
14477TIP3    H243365   8.236   1.781   1.416
14478TIP3   OH243366   2.733   7.157   6.935
14478TIP3    H143367   2.689   7.084   6.979
14478TIP3    H243368   2.807   7.116   6.889
14479TIP3   OH243369   8.061   2.652   0.223
14479TIP3    H143370   8.114   2.621   0.297
14479TIP3    H243371   8.125   2.665   0.153
14480TIP3   OH243372   0.070   2.876   0.030
14480TIP3    H143373   0.083   2.888   0.124
14480TIP3    H243374   0.079   2.781   0.017
14481TIP3   OH243375   0.626   3.132   1.384
14481TIP3    H143376   0.689   3.172   1.325
14481TIP3    H243377   0.600   3.203   1.444
14482TIP3   OH243378   8.241   2.587   0.427
14482TIP3    H143379   8.232   2.557   0.518
14482TIP3    H243380   8.289   2.517   0.384
14483TIP3   OH243381   8.376   2.402   0.271
14483TIP3    H143382   8.348   2.405   0.180
14483TIP3    H243383   8.472   2.408   0.267
14484TIP3   OH243384   3.502   6.712   6.895
14484TIP3    H143385   3.488   6.673   6.809
14484TIP3    H243386   3.469   6.802   6.885
14485TIP3   OH243387   0.088   2.457   1.671
14485TIP3    H143388   0.124   2.369   1.659
14485TIP3    H243389   0.158   2.505   1.715
14486TIP3   OH243390   0.178   2.212   1.571
14486TIP3    H143391   0.204   2.248   1.486
14486TIP3    H243392   0.088   2.183   1.558
14487TIP3   OH243393   0.161   2.760   1.363
14487TIP3    H143394   0.252   2.731   1.352
14487TIP3    H243395   0.164   2.854   1.348
14488TIP3   OH243396   0.710   2.933   1.559
14488TIP3    H143397   0.673   3.000   1.501
14488TIP3    H243398   0.804   2.934   1.539
14489TIP3   OH243399   0.311   1.993   1.678
14489TIP3    H143400   0.263   2.071   1.649
14489TIP3    H243401   0.244   1.924   1.682
14490TIP3   OH243402   0.615   2.409   1.767
14490TIP3    H143403   0.559   2.334   1.786
14490TIP3    H243404   0.697   2.371   1.737
14491TIP3   OH243405   8.218   3.447   0.186
14491TIP3    H143406   8.307   3.430   0.154
14491TIP3    H243407   8.175   3.493   0.114
14492TIP3   OH243408   7.699   2.790   0.380
14492TIP3    H143409   7.792   2.814   0.380
14492TIP3    H243410   7.694   2.713   0.323
14493TIP3   OH243411   0.914   3.637   0.743
14493TIP3    H143412   0.906   3.696   0.818
14493TIP3    H243413   0.938   3.694   0.670
14494TIP3   OH243414   0.826   2.901   0.281
14494TIP3    H143415   0.887   2.967   0.249
14494TIP3    H243416   0.871   2.861   0.356
14495TIP3   OH243417   0.945   2.751   0.476
14495TIP3    H143418   0.878   2.710   0.531
14495TIP3    H243419   1.011   2.782   0.537
14496TIP3   OH243420   0.984   3.145   0.888
14496TIP3    H143421   1.045   3.084   0.849
14496TIP3    H243422   0.979   3.218   0.826
14497TIP3   OH243423   0.879   3.440   1.021
14497TIP3    H143424   0.826   3.520   1.012
14497TIP3    H243425   0.838   3.378   0.962
14498TIP3   OH243426   0.877   2.677   0.130
14498TIP3    H143427   0.806   2.677   0.065
14498TIP3    H243428   0.858   2.753   0.185
14499TIP3   OH243429   0.742   2.324   0.068
14499TIP3    H143430   0.691   2.358  -0.005
14499TIP3    H243431   0.735   2.228   0.059
14500TIP3   OH243432   0.757   2.613   0.624
14500TIP3    H143433   0.765   2.518   0.612
14500TIP3    H243434   0.744   2.623   0.719
14501TIP3   OH243435   0.965   2.897   1.469
14501TIP3    H143436   1.058   2.873   1.466
14501TIP3    H243437   0.958   2.970   1.406
14502TIP3   OH243438   1.237   2.834   1.458
14502TIP3    H143439   1.209   2.768   1.521
14502TIP3    H243440   1.330   2.818   1.446
14503TIP3   OH243441   0.705   2.052   0.043
14503TIP3    H143442   0.767   2.021   0.110
14503TIP3    H243443   0.619   2.023   0.075
14504TIP3   OH243444   0.761   2.342   0.506
14504TIP3    H143445   0.805   2.258   0.520
14504TIP3    H243446   0.805   2.380   0.430
14505TIP3   OH243447   0.909   2.496   1.030
14505TIP3    H143448   0.993   2.509   0.986
14505TIP3    H243449   0.924   2.529   1.119
14506TIP3   OH243450   0.985   2.645   1.257
14506TIP3    H143451   0.906   2.676   1.301
14506TIP3    H243452   1.004   2.712   1.192
14507TIP3   OH243453   0.873   2.092   0.558
14507TIP3    H143454   0.913   2.072   0.643
14507TIP3    H243455   0.810   2.021   0.544
14508TIP3   OH243456   8.079   2.078   1.384
14508TIP3    H143457   8.135   2.000   1.384
14508TIP3    H243458   8.140   2.150   1.371
14509TIP3   OH243459   7.856   2.354   1.447
14509TIP3    H143460   7.779   2.379   1.397
14509TIP3    H243461   7.929   2.361   1.385
14510TIP3   OH243462   1.295   2.352   1.585
14510TIP3    H143463   1.207   2.375   1.554
14510TIP3    H243464   1.304   2.259   1.563
14511TIP3   OH243465   0.938   2.010   0.199
14511TIP3    H143466   0.985   1.950   0.141
14511TIP3    H243467   0.992   2.090   0.200
14512TIP3   OH243468   7.921   1.874   0.952
14512TIP3    H143469   7.830   1.856   0.978
14512TIP3    H243470   7.914   1.906   0.862
14513TIP3   OH243471   0.541   3.552   0.486
14513TIP3    H143472   0.580   3.541   0.399
14513TIP3    H243473   0.582   3.632   0.520
14514TIP3   OH243474   1.212   2.104   1.488
14514TIP3    H143475   1.123   2.075   1.465
14514TIP3    H243476   1.263   2.023   1.492
14515TIP3   OH243477   0.420   2.046   1.123
14515TIP3    H143478   0.379   1.973   1.171
14515TIP3    H243479   0.488   2.004   1.070
14516TIP3   OH243480   0.912   1.989   1.031
14516TIP3    H143481   0.945   2.027   0.950
14516TIP3    H243482   0.818   1.981   1.018
14517TIP3   OH243483   1.028   2.030   0.784
14517TIP3    H143484   1.099   1.975   0.748
14517TIP3    H243485   1.059   2.119   0.770
14518TIP3   OH243486   8.172   1.756   1.117
14518TIP3    H143487   8.081   1.725   1.114
14518TIP3    H243488   8.224   1.675   1.114
14519TIP3   OH243489   7.980   1.651   0.768
14519TIP3    H143490   8.007   1.696   0.688
14519TIP3    H243491   7.969   1.721   0.833
14520TIP3   OH243492   0.127   1.794   1.018
14520TIP3    H143493   0.178   1.834   0.947
14520TIP3    H243494   0.176   1.817   1.097
14521TIP3   OH243495   0.636   1.927   0.994
14521TIP3    H143496   0.637   1.889   0.906
14521TIP3    H243497   0.641   1.851   1.052
14522TIP3   OH243498   0.686   1.886   0.547
14522TIP3    H143499   0.596   1.918   0.535
14522TIP3    H243500   0.677   1.808   0.601
14523TIP3   OH243501   8.093   1.781   0.536
14523TIP3    H143502   8.139   1.721   0.478
14523TIP3    H243503   8.162   1.836   0.573
14524TIP3   OH243504   0.069   1.983   0.639
14524TIP3    H143505   0.130   1.929   0.688
14524TIP3    H243506   0.087   2.072   0.667
14525TIP3   OH243507   8.481   3.384   0.111
14525TIP3    H143508   8.550   3.422   0.057
14525TIP3    H243509   8.450   3.308   0.061
14526TIP3   OH243510   0.657   3.515   0.236
14526TIP3    H143511   0.655   3.420   0.225
14526TIP3    H243512   0.614   3.549   0.158
14527TIP3   OH243513   7.783   3.211   0.189
14527TIP3    H143514   7.823   3.276   0.247
14527TIP3    H243515   7.857   3.161   0.154
14528TIP3   OH243516   2.031   3.009   0.174
14528TIP3    H143517   2.016   3.089   0.122
14528TIP3    H243518   1.989   2.940   0.123
14529TIP3   OH243519   2.127   3.082   0.555
14529TIP3    H143520   2.206   3.065   0.606
14529TIP3    H243521   2.128   3.015   0.486
14530TIP3   OH243522   1.434   2.893   0.927
14530TIP3    H143523   1.488   2.821   0.961
14530TIP3    H243524   1.484   2.972   0.947
14531TIP3   OH243525   2.340   3.313   0.235
14531TIP3    H143526   2.378   3.280   0.317
14531TIP3    H243527   2.375   3.402   0.227
14532TIP3   OH243528   1.383   3.243   0.589
14532TIP3    H143529   1.367   3.150   0.572
14532TIP3    H243530   1.330   3.262   0.666
14533TIP3   OH243531   1.120   2.537   0.407
14533TIP3    H143532   1.077   2.619   0.430
14533TIP3    H243533   1.050   2.485   0.366
14534TIP3   OH243534   1.164   2.807   0.625
14534TIP3    H143535   1.216   2.733   0.655
14534TIP3    H243536   1.227   2.867   0.584
14535TIP3   OH243537   1.893   3.830   0.298
14535TIP3    H143538   1.864   3.784   0.219
14535TIP3    H243539   1.931   3.762   0.353
14536TIP3   OH243540   1.967   3.274   0.660
14536TIP3    H143541   2.025   3.210   0.618
14536TIP3    H243542   2.024   3.327   0.715
14537TIP3   OH243543   2.905   2.435   0.517
14537TIP3    H143544   2.974   2.496   0.544
14537TIP3    H243545   2.844   2.488   0.467
14538TIP3   OH243546   2.409   2.714   0.632
14538TIP3    H143547   2.345   2.653   0.668
14538TIP3    H243548   2.357   2.786   0.597
14539TIP3   OH243549   1.703   2.389   0.579
14539TIP3    H143550   1.687   2.469   0.529
14539TIP3    H243551   1.644   2.324   0.539
14540TIP3   OH243552   2.372   2.478   0.196
14540TIP3    H143553   2.438   2.445   0.256
14540TIP3    H243554   2.416   2.547   0.147
14541TIP3   OH243555   1.325   2.608   0.721
14541TIP3    H143556   1.412   2.596   0.760
14541TIP3    H243557   1.330   2.559   0.638
14542TIP3   OH243558   1.747   2.831   0.464
14542TIP3    H143559   1.841   2.818   0.473
14542TIP3    H243560   1.711   2.742   0.453
14543TIP3   OH243561   1.652   2.365   1.034
14543TIP3    H143562   1.599   2.392   0.959
14543TIP3    H243563   1.596   2.382   1.110
14544TIP3   OH243564   4.895   7.207   6.914
14544TIP3    H143565   4.847   7.185   6.833
14544TIP3    H243566   4.854   7.288   6.944
14545TIP3   OH243567   1.711   3.195   0.726
14545TIP3    H143568   1.649   3.241   0.782
14545TIP3    H243569   1.789   3.250   0.727
14546TIP3   OH243570   2.578   2.398   0.350
14546TIP3    H143571   2.583   2.432   0.440
14546TIP3    H243572   2.639   2.452   0.300
14547TIP3   OH243573   1.570   2.494   0.799
14547TIP3    H143574   1.635   2.554   0.835
14547TIP3    H243575   1.614   2.453   0.724
14548TIP3   OH243576   1.555   3.349   0.894
14548TIP3    H143577   1.596   3.435   0.899
14548TIP3    H243578   1.504   3.342   0.974
14549TIP3   OH243579   1.004   3.073   0.157
14549TIP3    H143580   0.965   3.093   0.072
14549TIP3    H243581   1.019   3.158   0.198
14550TIP3   OH243582   2.797   2.454   0.772
14550TIP3    H143583   2.745   2.462   0.852
14550TIP3    H243584   2.747   2.503   0.706
14551TIP3   OH243585   2.036   2.134   0.737
14551TIP3    H143586   2.014   2.052   0.694
14551TIP3    H243587   1.958   2.156   0.789
14552TIP3   OH243588   2.315   3.625   0.137
14552TIP3    H143589   2.297   3.549   0.081
14552TIP3    H243590   2.312   3.700   0.077
14553TIP3   OH243591   5.101   7.402   6.925
14553TIP3    H143592   5.037   7.350   6.876
14553TIP3    H243593   5.114   7.354   7.006
14554TIP3   OH243594   4.788   6.860   6.896
14554TIP3    H143595   4.706   6.909   6.887
14554TIP3    H243596   4.839   6.885   6.819
14555TIP3   OH243597   4.773   6.672   6.648
14555TIP3    H143598   4.830   6.711   6.715
14555TIP3    H243599   4.831   6.613   6.599
14556TIP3   OH243600   5.103   7.016   6.879
14556TIP3    H143601   5.047   7.067   6.937
14556TIP3    H243602   5.152   6.958   6.937
14557TIP3   OH243603   1.544   2.963   0.341
14557TIP3    H143604   1.509   2.897   0.281
14557TIP3    H243605   1.618   2.919   0.383
14558TIP3   OH243606   1.702   3.331   0.482
14558TIP3    H143607   1.619   3.330   0.434
14558TIP3    H243608   1.697   3.257   0.541
14559TIP3   OH243609   1.607   2.953   0.665
14559TIP3    H143610   1.665   2.913   0.600
14559TIP3    H243611   1.642   3.041   0.679
14560TIP3   OH243612   5.015   6.832   6.706
14560TIP3    H143613   5.049   6.899   6.765
14560TIP3    H243614   5.052   6.854   6.620
14561TIP3   OH243615   1.526   3.106   1.080
14561TIP3    H143616   1.538   3.182   1.136
14561TIP3    H243617   1.462   3.052   1.125
14562TIP3   OH243618   1.919   3.422   0.007
14562TIP3    H143619   1.864   3.427   0.085
14562TIP3    H243620   1.859   3.436  -0.066
14563TIP3   OH243621   5.496   6.068   6.795
14563TIP3    H143622   5.422   6.091   6.850
14563TIP3    H243623   5.511   6.145   6.740
14564TIP3   OH243624   1.425   2.785   0.168
14564TIP3    H143625   1.348   2.834   0.139
14564TIP3    H243626   1.392   2.698   0.190
14565TIP3   OH243627   5.320   7.423   6.355
14565TIP3    H143628   5.313   7.516   6.332
14565TIP3    H243629   5.413   7.402   6.341
14566TIP3   OH243630   1.194   3.196   1.060
14566TIP3    H143631   1.115   3.183   1.006
14566TIP3    H243632   1.200   3.117   1.113
14567TIP3   OH243633   1.020   3.376   0.740
14567TIP3    H143634   1.113   3.380   0.764
14567TIP3    H243635   0.988   3.465   0.754
14568TIP3   OH243636   4.652   7.760   6.771
14568TIP3    H143637   4.604   7.740   6.691
14568TIP3    H243638   4.616   7.844   6.800
14569TIP3   OH243639   1.170   3.581   0.173
14569TIP3    H143640   1.193   3.550   0.261
14569TIP3    H243641   1.108   3.516   0.141
14570TIP3   OH243642   4.836   7.653   6.447
14570TIP3    H143643   4.890   7.584   6.408
14570TIP3    H243644   4.873   7.666   6.534
14571TIP3   OH243645   4.909   7.696   6.707
14571TIP3    H143646   4.822   7.709   6.744
14571TIP3    H243647   4.965   7.678   6.783
14572TIP3   OH243648   1.423   3.397   1.120
14572TIP3    H143649   1.449   3.353   1.201
14572TIP3    H243650   1.328   3.399   1.122
14573TIP3   OH243651   1.800   2.180   0.864
14573TIP3    H143652   1.707   2.164   0.850
14573TIP3    H243653   1.804   2.262   0.913
14574TIP3   OH243654   2.311   2.332   1.015
14574TIP3    H143655   2.366   2.269   1.060
14574TIP3    H243656   2.222   2.314   1.046
14575TIP3   OH243657   5.132   6.902   6.451
14575TIP3    H143658   5.057   6.875   6.398
14575TIP3    H243659   5.141   6.995   6.433
14576TIP3   OH243660   4.784   6.243   6.800
14576TIP3    H143661   4.749   6.250   6.889
14576TIP3    H243662   4.747   6.162   6.765
14577TIP3   OH243663   1.764   2.640   0.939
14577TIP3    H143664   1.704   2.623   1.011
14577TIP3    H243665   1.751   2.732   0.918
14578TIP3   OH243666   1.614   2.594   0.422
14578TIP3    H143667   1.525   2.573   0.449
14578TIP3    H243668   1.621   2.559   0.333
14579TIP3   OH243669   2.086   2.667   0.111
14579TIP3    H143670   2.036   2.733   0.062
14579TIP3    H243671   2.154   2.640   0.050
14580TIP3   OH243672   2.197   2.628   0.354
14580TIP3    H143673   2.153   2.648   0.272
14580TIP3    H243674   2.270   2.571   0.329
14581TIP3   OH243675   1.544   2.690   1.100
14581TIP3    H143676   1.586   2.728   1.177
14581TIP3    H243677   1.511   2.605   1.131
14582TIP3   OH243678   4.455   6.229   6.780
14582TIP3    H143679   4.443   6.229   6.875
14582TIP3    H243680   4.376   6.271   6.746
14583TIP3   OH243681   1.144   2.260   0.706
14583TIP3    H143682   1.220   2.293   0.755
14583TIP3    H243683   1.179   2.240   0.619
14584TIP3   OH243684   1.089   2.246   0.214
14584TIP3    H143685   1.133   2.280   0.136
14584TIP3    H243686   1.022   2.312   0.234
14585TIP3   OH243687   2.430   2.901   0.855
14585TIP3    H143688   2.436   2.818   0.808
14585TIP3    H243689   2.351   2.894   0.908
14586TIP3   OH243690   1.965   2.397   0.464
14586TIP3    H143691   1.888   2.407   0.521
14586TIP3    H243692   2.039   2.401   0.524
14587TIP3   OH243693   1.375   2.473   0.486
14587TIP3    H143694   1.288   2.484   0.449
14587TIP3    H243695   1.400   2.384   0.462
14588TIP3   OH243696   1.630   2.477   0.177
14588TIP3    H143697   1.724   2.489   0.164
14588TIP3    H243698   1.591   2.498   0.092
14589TIP3   OH243699   2.427   2.415   0.723
14589TIP3    H143700   2.392   2.463   0.799
14589TIP3    H243701   2.349   2.382   0.679
14590TIP3   OH243702   4.345   6.517   6.874
14590TIP3    H143703   4.282   6.465   6.824
14590TIP3    H243704   4.399   6.560   6.807
14591TIP3   OH243705   1.564   3.257   1.305
14591TIP3    H143706   1.656   3.280   1.317
14591TIP3    H243707   1.550   3.181   1.361
14592TIP3   OH243708   2.004   2.748   0.508
14592TIP3    H143709   2.066   2.694   0.459
14592TIP3    H243710   1.964   2.687   0.570
14593TIP3   OH243711   1.521   2.225   0.450
14593TIP3    H143712   1.492   2.150   0.503
14593TIP3    H243713   1.532   2.189   0.362
14594TIP3   OH243714   1.910   2.591   0.710
14594TIP3    H143715   1.855   2.602   0.787
14594TIP3    H243716   1.999   2.584   0.744
14595TIP3   OH243717   4.571   7.030   6.894
14595TIP3    H143718   4.494   6.976   6.876
14595TIP3    H243719   4.549   7.076   6.975
14596TIP3   OH243720   5.036   6.340   6.786
14596TIP3    H143721   4.942   6.323   6.788
14596TIP3    H243722   5.043   6.435   6.802
14597TIP3   OH243723   5.092   6.602   6.845
14597TIP3    H143724   5.185   6.603   6.868
14597TIP3    H243725   5.079   6.684   6.796
14598TIP3   OH243726   1.365   2.971   0.551
14598TIP3    H143727   1.408   2.976   0.466
14598TIP3    H243728   1.437   2.956   0.613
14599TIP3   OH243729   4.701   7.190   6.717
14599TIP3    H143730   4.660   7.276   6.719
14599TIP3    H243731   4.647   7.136   6.774
14600TIP3   OH243732   1.139   3.000   1.247
14600TIP3    H143733   1.215   2.959   1.286
14600TIP3    H243734   1.104   2.934   1.187
14601TIP3   OH243735   5.495   6.667   6.678
14601TIP3    H143736   5.452   6.687   6.595
14601TIP3    H243737   5.552   6.741   6.694
14602TIP3   OH243738   5.265   7.513   6.619
14602TIP3    H143739   5.221   7.446   6.671
14602TIP3    H243740   5.277   7.472   6.533
14603TIP3   OH243741   2.452   3.208   0.454
14603TIP3    H143742   2.450   3.194   0.549
14603TIP3    H243743   2.495   3.130   0.419
14604TIP3   OH243744   1.506   3.363   0.282
14604TIP3    H143745   1.485   3.425   0.212
14604TIP3    H243746   1.424   3.351   0.329
14605TIP3   OH243747   1.115   2.665  -0.008
14605TIP3    H143748   1.155   2.750   0.010
14605TIP3    H243749   1.033   2.667   0.042
14606TIP3   OH243750   1.648   3.153   0.173
14606TIP3    H143751   1.608   3.234   0.206
14606TIP3    H243752   1.621   3.086   0.236
14607TIP3   OH243753   1.423   3.547   0.085
14607TIP3    H143754   1.330   3.564   0.099
14607TIP3    H243755   1.469   3.609   0.142
14608TIP3   OH243756   2.189   3.372   0.788
14608TIP3    H143757   2.211   3.282   0.810
14608TIP3    H243758   2.228   3.386   0.702
14609TIP3   OH243759   5.004   7.244   6.491
14609TIP3    H143760   5.051   7.232   6.574
14609TIP3    H243761   4.918   7.205   6.506
14610TIP3   OH243762   5.326   7.699   6.317
14610TIP3    H143763   5.352   7.768   6.254
14610TIP3    H243764   5.256   7.739   6.368
14611TIP3   OH243765   1.495   2.456   1.236
14611TIP3    H143766   1.401   2.468   1.252
14611TIP3    H243767   1.535   2.465   1.323
14612TIP3   OH243768   5.180   7.199   6.693
14612TIP3    H143769   5.154   7.140   6.764
14612TIP3    H243770   5.275   7.188   6.688
14613TIP3   OH243771   1.396   3.619   0.894
14613TIP3    H143772   1.357   3.585   0.814
14613TIP3    H243773   1.336   3.593   0.963
14614TIP3   OH243774   4.382   7.208   6.525
14614TIP3    H143775   4.387   7.117   6.496
14614TIP3    H243776   4.357   7.203   6.617
14615TIP3   OH243777   4.314   7.224   6.794
14615TIP3    H143778   4.366   7.207   6.873
14615TIP3    H243779   4.309   7.319   6.788
14616TIP3   OH243780   1.209   2.917   0.063
14616TIP3    H143781   1.141   2.960   0.115
14616TIP3    H243782   1.226   2.977  -0.009
14617TIP3   OH243783   2.405   2.617   0.939
14617TIP3    H143784   2.463   2.691   0.955
14617TIP3    H243785   2.354   2.609   1.020
14618TIP3   OH243786   2.239   2.261   0.110
14618TIP3    H143787   2.220   2.276   0.017
14618TIP3    H243788   2.280   2.342   0.140
14619TIP3   OH243789   4.584   7.439   6.730
14619TIP3    H143790   4.490   7.451   6.747
14619TIP3    H243791   4.605   7.507   6.666
14620TIP3   OH243792   1.907   2.485   0.208
14620TIP3    H143793   1.969   2.550   0.177
14620TIP3    H243794   1.930   2.472   0.300
14621TIP3   OH243795   2.215   2.851   1.014
14621TIP3    H143796   2.127   2.858   1.052
14621TIP3    H243797   2.273   2.848   1.090
14622TIP3   OH243798   2.070   2.182   0.311
14622TIP3    H143799   2.048   2.263   0.358
14622TIP3    H243800   2.135   2.209   0.246
14623TIP3   OH243801   4.321   7.494   6.770
14623TIP3    H143802   4.301   7.569   6.714
14623TIP3    H243803   4.295   7.522   6.858
14624TIP3   OH243804   1.590   2.206   0.121
14624TIP3    H143805   1.581   2.297   0.148
14624TIP3    H243806   1.685   2.190   0.124
14625TIP3   OH243807   2.554   2.967   0.382
14625TIP3    H143808   2.479   2.908   0.387
14625TIP3    H243809   2.597   2.958   0.467
14626TIP3   OH243810   4.062   7.102   6.790
14626TIP3    H143811   4.133   7.167   6.798
14626TIP3    H243812   4.095   7.039   6.726
14627TIP3   OH243813   3.980   6.396   6.927
14627TIP3    H143814   3.987   6.492   6.934
14627TIP3    H243815   3.910   6.382   6.863
14628TIP3   OH243816   1.535   2.101   0.849
14628TIP3    H143817   1.507   2.073   0.762
14628TIP3    H243818   1.537   2.021   0.901
14629TIP3   OH243819   1.029   3.331   0.243
14629TIP3    H143820   1.010   3.380   0.324
14629TIP3    H243821   0.979   3.377   0.176
14630TIP3   OH243822   4.526   7.408   6.407
14630TIP3    H143823   4.481   7.337   6.453
14630TIP3    H243824   4.601   7.366   6.366
14631TIP3   OH243825   4.977   7.456   6.323
14631TIP3    H143826   5.007   7.388   6.383
14631TIP3    H243827   5.041   7.454   6.251
14632TIP3   OH243828   4.196   6.915   6.643
14632TIP3    H143829   4.246   6.892   6.721
14632TIP3    H243830   4.262   6.926   6.575
14633TIP3   OH243831   4.752   7.128   6.459
14633TIP3    H143832   4.719   7.145   6.548
14633TIP3    H243833   4.743   7.034   6.447
14634TIP3   OH243834   1.545   3.042   1.466
14634TIP3    H143835   1.583   2.955   1.475
14634TIP3    H243836   1.568   3.087   1.547
14635TIP3   OH243837   4.367   6.851   6.855
14635TIP3    H143838   4.337   6.818   6.940
14635TIP3    H243839   4.410   6.776   6.814
14636TIP3   OH243840   1.761   3.020   1.194
14636TIP3    H143841   1.680   3.040   1.147
14636TIP3    H243842   1.830   3.031   1.129
14637TIP3   OH243843   4.499   6.662   6.699
14637TIP3    H143844   4.469   6.667   6.608
14637TIP3    H243845   4.594   6.660   6.692
14638TIP3   OH243846   1.942   2.669   1.299
14638TIP3    H143847   1.891   2.589   1.281
14638TIP3    H243848   1.948   2.712   1.213
14639TIP3   OH243849   1.923   2.386   1.018
14639TIP3    H143850   1.958   2.471   0.992
14639TIP3    H243851   1.833   2.405   1.046
14640TIP3   OH243852   1.943   3.083   0.998
14640TIP3    H143853   2.005   3.095   0.926
14640TIP3    H243854   1.895   3.166   1.003
14641TIP3   OH243855   1.874   2.846   1.484
14641TIP3    H143856   1.880   2.803   1.569
14641TIP3    H243857   1.902   2.779   1.421
14642TIP3   OH243858   2.071   2.173   1.095
14642TIP3    H143859   2.006   2.237   1.065
14642TIP3    H243860   2.023   2.119   1.158
14643TIP3   OH243861   2.204   2.852   1.416
14643TIP3    H143862   2.274   2.873   1.478
14643TIP3    H243863   2.173   2.766   1.444
14644TIP3   OH243864   1.718   2.578   1.551
14644TIP3    H143865   1.688   2.488   1.563
14644TIP3    H243866   1.774   2.595   1.627
14645TIP3   OH243867   2.172   2.215   1.387
14645TIP3    H143868   2.261   2.181   1.396
14645TIP3    H243869   2.119   2.137   1.370
14646TIP3   OH243870   4.320   7.714   6.608
14646TIP3    H143871   4.410   7.698   6.579
14646TIP3    H243872   4.282   7.769   6.540
14647TIP3   OH243873   3.789   7.096   6.807
14647TIP3    H143874   3.883   7.108   6.806
14647TIP3    H243875   3.775   7.008   6.770
14648TIP3   OH243876   0.849   3.674   0.338
14648TIP3    H143877   0.785   3.620   0.292
14648TIP3    H243878   0.902   3.612   0.388
14649TIP3   OH243879   1.000   3.488   0.477
14649TIP3    H143880   0.970   3.425   0.543
14649TIP3    H243881   1.074   3.533   0.518
14650TIP3   OH243882   5.450   7.140   6.686
14650TIP3    H143883   5.507   7.210   6.654
14650TIP3    H243884   5.489   7.113   6.769
14651TIP3   OH243885   2.761   3.050  -0.032
14651TIP3    H143886   2.681   3.049   0.021
14651TIP3    H243887   2.819   3.110   0.014
14652TIP3   OH243888   5.437   6.930   6.509
14652TIP3    H143889   5.412   6.997   6.573
14652TIP3    H243890   5.531   6.941   6.499
14653TIP3   OH243891   5.326   6.644   6.424
14653TIP3    H143892   5.290   6.611   6.342
14653TIP3    H243893   5.337   6.566   6.478
14654TIP3   OH243894   2.412   2.811   0.063
14654TIP3    H143895   2.471   2.741   0.035
14654TIP3    H243896   2.459   2.855   0.134
14655TIP3   OH243897   1.177   2.949   0.855
14655TIP3    H143898   1.165   2.907   0.770
14655TIP3    H243899   1.270   2.939   0.874
14656TIP3   OH243900   5.318   6.387   6.518
14656TIP3    H143901   5.392   6.342   6.558
14656TIP3    H243902   5.247   6.323   6.521
14657TIP3   OH243903   5.374   6.584   6.915
14657TIP3    H143904   5.421   6.507   6.946
14657TIP3    H243905   5.419   6.609   6.834
14658TIP3   OH243906   2.742   2.760   0.477
14658TIP3    H143907   2.779   2.834   0.429
14658TIP3    H243908   2.783   2.765   0.564
14659TIP3   OH243909   1.431   2.598   1.508
14659TIP3    H143910   1.519   2.634   1.524
14659TIP3    H243911   1.435   2.509   1.544
14660TIP3   OH243912   2.682   2.329   0.062
14660TIP3    H143913   2.720   2.301   0.145
14660TIP3    H243914   2.608   2.270   0.048
14661TIP3   OH243915   1.361   2.319   0.870
14661TIP3    H143916   1.418   2.243   0.875
14661TIP3    H243917   1.419   2.390   0.842
14662TIP3   OH243918   1.157   2.580   0.945
14662TIP3    H143919   1.210   2.586   0.865
14662TIP3    H243920   1.147   2.671   0.973
14663TIP3   OH243921   5.551   6.272   6.620
14663TIP3    H143922   5.591   6.208   6.562
14663TIP3    H243923   5.614   6.345   6.623
14664TIP3   OH243924   1.146   2.118   0.448
14664TIP3    H143925   1.058   2.097   0.478
14664TIP3    H243926   1.132   2.168   0.367
14665TIP3   OH243927   5.139   7.806   6.866
14665TIP3    H143928   5.193   7.798   6.787
14665TIP3    H243929   5.078   7.877   6.846
14666TIP3   OH243930   1.331   2.143   1.236
14666TIP3    H143931   1.292   2.146   1.324
14666TIP3    H243932   1.283   2.209   1.186
14667TIP3   OH243933   1.666   3.577   1.002
14667TIP3    H143934   1.586   3.630   1.009
14667TIP3    H243935   1.737   3.639   1.021
14668TIP3   OH243936   3.078   2.415   0.854
14668TIP3    H143937   3.039   2.458   0.930
14668TIP3    H243938   3.055   2.323   0.863
14669TIP3   OH243939   1.497   3.989   0.794
14669TIP3    H143940   1.538   3.953   0.873
14669TIP3    H243941   1.552   3.957   0.722
14670TIP3   OH243942   1.197   3.637   0.673
14670TIP3    H143943   1.149   3.657   0.754
14670TIP3    H243944   1.244   3.718   0.653
14671TIP3   OH243945   1.483   3.493   0.608
14671TIP3    H143946   1.457   3.401   0.608
14671TIP3    H243947   1.437   3.531   0.534
14672TIP3   OH243948   1.708   3.651   0.490
14672TIP3    H143949   1.756   3.569   0.489
14672TIP3    H243950   1.656   3.649   0.570
14673TIP3   OH243951   2.196   2.314   0.606
14673TIP3    H143952   2.144   2.244   0.645
14673TIP3    H243953   2.260   2.268   0.551
14674TIP3   OH243954   2.708   2.226   0.541
14674TIP3    H143955   2.743   2.235   0.453
14674TIP3    H243956   2.613   2.237   0.530
14675TIP3   OH243957   2.838   2.237   0.286
14675TIP3    H143958   2.887   2.170   0.237
14675TIP3    H243959   2.895   2.313   0.287
14676TIP3   OH243960   1.453   2.005   0.605
14676TIP3    H143961   1.362   1.976   0.608
14676TIP3    H243962   1.503   1.924   0.592
14677TIP3   OH243963   1.301   1.932   0.290
14677TIP3    H143964   1.304   1.971   0.203
14677TIP3    H243965   1.248   1.993   0.341
14678TIP3   OH243966   1.904   2.053   0.496
14678TIP3    H143967   1.962   2.084   0.427
14678TIP3    H243968   1.873   2.133   0.539
14679TIP3   OH243969   2.407   2.190   0.480
14679TIP3    H143970   2.446   2.175   0.394
14679TIP3    H243971   2.403   2.103   0.520
14680TIP3   OH243972   2.479   2.136   0.046
14680TIP3    H143973   2.395   2.178   0.064
14680TIP3    H243974   2.472   2.050   0.087
14681TIP3   OH243975   0.942   3.481   0.028
14681TIP3    H143976   0.860   3.450  -0.013
14681TIP3    H243977   0.951   3.571  -0.002
14682TIP3   OH243978   1.377   2.048   0.029
14682TIP3    H143979   1.420   1.984  -0.027
14682TIP3    H243980   1.448   2.101   0.065
14683TIP3   OH243981   1.865   2.230   0.122
14683TIP3    H143982   1.924   2.180   0.178
14683TIP3    H243983   1.878   2.321   0.149
14684TIP3   OH243984   4.575   7.646   6.529
14684TIP3    H143985   4.662   7.666   6.494
14684TIP3    H243986   4.546   7.570   6.479
14685TIP3   OH243987   5.305   7.788   6.650
14685TIP3    H143988   5.302   7.693   6.641
14685TIP3    H243989   5.264   7.820   6.569
14686TIP3   OH243990   1.602   2.336   1.597
14686TIP3    H143991   1.526   2.294   1.637
14686TIP3    H243992   1.677   2.298   1.643
14687TIP3   OH243993   1.989   2.374   1.513
14687TIP3    H143994   2.054   2.314   1.476
14687TIP3    H243995   2.020   2.391   1.602
14688TIP3   OH243996   3.875   7.484   6.615
14688TIP3    H143997   3.871   7.500   6.709
14688TIP3    H243998   3.959   7.439   6.603
14689TIP3   OH243999   5.686   6.844   6.758
14689TIP3    H144000   5.656   6.919   6.808
14689TIP3    H244001   5.704   6.776   6.823
14690TIP3   OH244002   3.032   3.113   0.126
14690TIP3    H144003   3.109   3.066   0.159
14690TIP3    H244004   3.050   3.125   0.033
14691TIP3   OH244005   3.544   2.685   0.078
14691TIP3    H144006   3.485   2.735   0.022
14691TIP3    H244007   3.510   2.596   0.076
14692TIP3   OH244008   3.225   2.910   0.136
14692TIP3    H144009   3.318   2.909   0.111
14692TIP3    H244010   3.189   2.829   0.101
14693TIP3   OH244011   5.631   7.318   6.578
14693TIP3    H144012   5.603   7.321   6.486
14693TIP3    H244013   5.634   7.410   6.605
14694TIP3   OH244014   6.581   6.943   6.140
14694TIP3    H144015   6.603   6.978   6.227
14694TIP3    H244016   6.665   6.930   6.098
14695TIP3   OH244017   7.251   6.353   6.223
14695TIP3    H144018   7.196   6.353   6.302
14695TIP3    H244019   7.292   6.439   6.222
14696TIP3   OH244020   6.075   7.024   6.551
14696TIP3    H144021   6.000   7.084   6.545
14696TIP3    H244022   6.043   6.950   6.603
14697TIP3   OH244023   6.811   7.083   5.940
14697TIP3    H144024   6.805   7.052   5.850
14697TIP3    H244025   6.884   7.145   5.939
14698TIP3   OH244026   6.229   6.844   6.839
14698TIP3    H144027   6.134   6.853   6.831
14698TIP3    H244028   6.256   6.804   6.757
14699TIP3   OH244029   6.262   6.489   6.250
14699TIP3    H144030   6.249   6.483   6.345
14699TIP3    H244031   6.180   6.524   6.216
14700TIP3   OH244032   3.015   2.415   0.168
14700TIP3    H144033   3.017   2.510   0.173
14700TIP3    H244034   2.994   2.395   0.077
14701TIP3   OH244035   5.709   6.499   6.631
14701TIP3    H144036   5.751   6.545   6.559
14701TIP3    H244037   5.637   6.556   6.658
14702TIP3   OH244038   5.964   6.833   6.751
14702TIP3    H144039   5.869   6.836   6.737
14702TIP3    H244040   5.983   6.741   6.766
14703TIP3   OH244041   6.252   6.736   6.588
14703TIP3    H144042   6.345   6.745   6.565
14703TIP3    H244043   6.205   6.756   6.508
14704TIP3   OH244044   6.131   6.769   6.341
14704TIP3    H144045   6.085   6.711   6.281
14704TIP3    H244046   6.189   6.820   6.285
14705TIP3   OH244047   6.214   6.484   6.853
14705TIP3    H144048   6.169   6.400   6.854
14705TIP3    H244049   6.305   6.462   6.832
14706TIP3   OH244050   6.319   7.329   6.449
14706TIP3    H144051   6.277   7.252   6.412
14706TIP3    H244052   6.260   7.358   6.519
14707TIP3   OH244053   6.168   7.458   5.991
14707TIP3    H144054   6.166   7.365   5.968
14707TIP3    H244055   6.159   7.459   6.087
14708TIP3   OH244056   6.170   7.482   6.264
14708TIP3    H144057   6.227   7.426   6.316
14708TIP3    H244058   6.180   7.569   6.303
14709TIP3   OH244059   5.871   7.202   6.492
14709TIP3    H144060   5.795   7.228   6.545
14709TIP3    H244061   5.871   7.264   6.419
14710TIP3   OH244062   6.929   6.578   6.547
14710TIP3    H144063   6.886   6.651   6.502
14710TIP3    H244064   6.982   6.620   6.615
14711TIP3   OH244065   6.533   6.757   6.610
14711TIP3    H144066   6.629   6.762   6.605
14711TIP3    H244067   6.513   6.782   6.700
14712TIP3   OH244068   6.757   6.476   6.739
14712TIP3    H144069   6.813   6.476   6.817
14712TIP3    H244070   6.814   6.506   6.668
14713TIP3   OH244071   6.212   6.460   6.521
14713TIP3    H144072   6.197   6.540   6.571
14713TIP3    H244073   6.306   6.443   6.530
14714TIP3   OH244074   5.851   7.385   6.274
14714TIP3    H144075   5.905   7.465   6.268
14714TIP3    H244076   5.897   7.322   6.219
14715TIP3   OH244077   5.790   6.648   6.412
14715TIP3    H144078   5.859   6.712   6.396
14715TIP3    H244079   5.787   6.595   6.333
14716TIP3   OH244080   3.401   2.380   0.440
14716TIP3    H144081   3.343   2.358   0.367
14716TIP3    H244082   3.395   2.305   0.499
14717TIP3   OH244083   5.642   7.589   6.621
14717TIP3    H144084   5.581   7.625   6.685
14717TIP3    H244085   5.631   7.643   6.544
14718TIP3   OH244086   6.324   7.662   5.898
14718TIP3    H144087   6.272   7.591   5.935
14718TIP3    H244088   6.404   7.620   5.866
14719TIP3   OH244089   5.986   7.192   6.137
14719TIP3    H144090   6.042   7.165   6.210
14719TIP3    H244091   6.045   7.190   6.061
14720TIP3   OH244092   6.496   7.400   5.964
14720TIP3    H144093   6.443   7.409   6.043
14720TIP3    H244094   6.504   7.305   5.951
14721TIP3   OH244095   6.187   7.118   6.323
14721TIP3    H144096   6.150   7.077   6.401
14721TIP3    H244097   6.227   7.046   6.275
14722TIP3   OH244098   6.298   6.912   6.168
14722TIP3    H144099   6.268   6.909   6.077
14722TIP3    H244100   6.394   6.907   6.162
14723TIP3   OH244101   5.581   7.338   6.308
14723TIP3    H144102   5.671   7.370   6.298
14723TIP3    H244103   5.568   7.280   6.233
14724TIP3   OH244104   7.038   6.816   6.039
14724TIP3    H144105   7.026   6.896   5.988
14724TIP3    H244106   7.119   6.778   6.005
14725TIP3   OH244107   7.075   6.486   6.044
14725TIP3    H144108   7.152   6.537   6.019
14725TIP3    H244109   7.108   6.422   6.107
14726TIP3   OH244110   3.177   2.555   0.497
14726TIP3    H144111   3.235   2.511   0.559
14726TIP3    H244112   3.235   2.589   0.429
14727TIP3   OH244113   2.878   2.980   0.393
14727TIP3    H144114   2.947   2.941   0.340
14727TIP3    H244115   2.925   3.025   0.463
14728TIP3   OH244116   7.356   6.563   6.056
14728TIP3    H144117   7.384   6.478   6.023
14728TIP3    H244118   7.433   6.618   6.048
14729TIP3   OH244119   5.761   6.342   6.853
14729TIP3    H144120   5.672   6.331   6.888
14729TIP3    H244121   5.752   6.410   6.787
14730TIP3   OH244122   6.062   6.243   6.892
14730TIP3    H144123   5.980   6.214   6.933
14730TIP3    H244124   6.121   6.168   6.903
14731TIP3   OH244125   5.871   6.150   6.666
14731TIP3    H144126   5.911   6.202   6.596
14731TIP3    H244127   5.847   6.215   6.733
14732TIP3   OH244128   6.505   6.453   6.833
14732TIP3    H144129   6.591   6.472   6.795
14732TIP3    H244130   6.525   6.420   6.921
14733TIP3   OH244131   7.084   6.382   6.432
14733TIP3    H144132   7.026   6.447   6.471
14733TIP3    H244133   7.070   6.303   6.484
14734TIP3   OH244134   5.593   7.725   6.388
14734TIP3    H144135   5.504   7.691   6.377
14734TIP3    H244136   5.584   7.820   6.381
14735TIP3   OH244137   6.000   6.297   6.446
14735TIP3    H144138   6.045   6.237   6.387
14735TIP3    H244139   6.069   6.353   6.481
14736TIP3   OH244140   6.480   6.486   6.558
14736TIP3    H144141   6.488   6.454   6.648
14736TIP3    H244142   6.505   6.578   6.563
14737TIP3   OH244143   5.657   7.669   6.116
14737TIP3    H144144   5.652   7.698   6.207
14737TIP3    H244145   5.751   7.664   6.097
14738TIP3   OH244146   5.473   0.252   6.782
14738TIP3    H144147   5.516   0.266   6.867
14738TIP3    H244148   5.524   0.183   6.740
14739TIP3   OH244149   0.533   3.619   0.014
14739TIP3    H144150   0.450   3.631   0.060
14739TIP3    H244151   0.539   3.694  -0.045
14740TIP3   OH244152   5.778   0.332   6.658
14740TIP3    H144153   5.730   0.324   6.575
14740TIP3    H244154   5.788   0.426   6.670
14741TIP3   OH244155   8.290   3.805   0.006
14741TIP3    H144156   8.271   3.808   0.100
14741TIP3    H244157   8.250   3.723  -0.024
14742TIP3   OH244158   2.291   7.804   6.919
14742TIP3    H144159   2.272   7.821   7.011
14742TIP3    H244160   2.214   7.837   6.873
14743TIP3   OH244161   2.881   7.899   6.912
14743TIP3    H144162   2.786   7.888   6.912
14743TIP3    H244163   2.895   7.993   6.896
14744TIP3   OH244164   5.793   0.149   6.879
14744TIP3    H144165   5.876   0.138   6.926
14744TIP3    H244166   5.810   0.220   6.817
14745TIP3   OH244167   6.203   0.246   6.819
14745TIP3    H144168   6.145   0.202   6.755
14745TIP3    H244169   6.202   0.338   6.793
14746TIP3   OH244170   0.116   3.848   0.233
14746TIP3    H144171   0.092   3.855   0.141
14746TIP3    H244172   0.138   3.938   0.259
14747TIP3   OH244173   6.033   0.518   6.520
14747TIP3    H144174   5.989   0.451   6.469
14747TIP3    H244175   6.105   0.548   6.463
14748TIP3   OH244176   6.202   0.512   6.734
14748TIP3    H144177   6.131   0.514   6.670
14748TIP3    H244178   6.206   0.601   6.769
14749TIP3   OH244179   6.044   0.126   6.631
14749TIP3    H144180   5.980   0.152   6.564
14749TIP3    H244181   6.035   0.031   6.637
14750TIP3   OH244182   3.166   7.867   6.629
14750TIP3    H144183   3.234   7.841   6.691
14750TIP3    H244184   3.090   7.813   6.653
14751TIP3   OH244185   0.373   4.113   0.069
14751TIP3    H144186   0.421   4.042   0.113
14751TIP3    H244187   0.440   4.158   0.018
14752TIP3   OH244188   0.519   3.898   0.192
14752TIP3    H144189   0.557   3.892   0.280
14752TIP3    H244190   0.459   3.824   0.187
14753TIP3   OH244191   3.405   7.829   6.771
14753TIP3    H144192   3.454   7.768   6.716
14753TIP3    H244193   3.459   7.909   6.772
14754TIP3   OH244194   0.579   3.790   0.673
14754TIP3    H144195   0.611   3.835   0.595
14754TIP3    H244196   0.484   3.786   0.661
14755TIP3   OH244197   0.682   3.874   0.428
14755TIP3    H144198   0.742   3.805   0.401
14755TIP3    H244199   0.724   3.955   0.400
14756TIP3   OH244200   0.313   3.742   0.628
14756TIP3    H144201   0.292   3.706   0.542
14756TIP3    H244202   0.292   3.672   0.690
14757TIP3   OH244203   0.337   3.691   0.194
14757TIP3    H144204   0.256   3.740   0.205
14757TIP3    H244205   0.321   3.607   0.237
14758TIP3   OH244206   7.724   3.606   0.126
14758TIP3    H144207   7.771   3.541   0.075
14758TIP3    H244208   7.738   3.581   0.217
14759TIP3   OH244209   0.731   4.363   0.049
14759TIP3    H144210   0.680   4.422   0.105
14759TIP3    H244211   0.666   4.313   0.001
14760TIP3   OH244212   1.354   4.147   0.212
14760TIP3    H144213   1.327   4.231   0.175
14760TIP3    H244214   1.310   4.082   0.156
14761TIP3   OH244215   7.709   0.311   6.743
14761TIP3    H144216   7.799   0.335   6.766
14761TIP3    H244217   7.689   0.365   6.666
14762TIP3   OH244218   1.428   4.626   0.063
14762TIP3    H144219   1.475   4.605  -0.018
14762TIP3    H244220   1.357   4.562   0.067
14763TIP3   OH244221   1.248   4.452   0.337
14763TIP3    H144222   1.275   4.499   0.417
14763TIP3    H244223   1.221   4.366   0.368
14764TIP3   OH244224   1.644   3.959   0.310
14764TIP3    H144225   1.715   3.901   0.338
14764TIP3    H244226   1.588   3.967   0.387
14765TIP3   OH244227   7.322   0.710   6.628
14765TIP3    H144228   7.236   0.751   6.626
14765TIP3    H244229   7.365   0.740   6.548
14766TIP3   OH244230   7.245   0.476   6.299
14766TIP3    H144231   7.300   0.523   6.361
14766TIP3    H244232   7.305   0.418   6.252
14767TIP3   OH244233   6.922   0.823   6.874
14767TIP3    H144234   6.851   0.763   6.851
14767TIP3    H244235   6.968   0.779   6.946
14768TIP3   OH244236   7.485   0.665   6.385
14768TIP3    H144237   7.494   0.760   6.376
14768TIP3    H244238   7.486   0.632   6.295
14769TIP3   OH244239   5.152   7.875   6.436
14769TIP3    H144240   5.073   7.896   6.485
14769TIP3    H244241   5.162   7.949   6.375
14770TIP3   OH244242   6.750   0.580   6.782
14770TIP3    H144243   6.667   0.618   6.754
14770TIP3    H244244   6.725   0.503   6.833
14771TIP3   OH244245   1.432   4.065   0.459
14771TIP3    H144246   1.406   4.080   0.368
14771TIP3    H244247   1.464   4.150   0.489
14772TIP3   OH244248   7.494   0.604   6.121
14772TIP3    H144249   7.488   0.563   6.034
14772TIP3    H244250   7.522   0.694   6.103
14773TIP3   OH244251   7.256   0.045   6.426
14773TIP3    H144252   7.222   0.047   6.516
14773TIP3    H244253   7.220  -0.034   6.388
14774TIP3   OH244254   1.289   4.371   0.051
14774TIP3    H144255   1.198   4.393   0.075
14774TIP3    H244256   1.282   4.334  -0.037
14775TIP3   OH244257   7.374   0.443   6.623
14775TIP3    H144258   7.356   0.537   6.621
14775TIP3    H244259   7.458   0.433   6.577
14776TIP3   OH244260   6.914   0.030   6.415
14776TIP3    H144261   6.903   0.025   6.510
14776TIP3    H244262   6.835   0.075   6.384
14777TIP3   OH244263   0.817   4.071   0.286
14777TIP3    H144264   0.901   4.113   0.269
14777TIP3    H244265   0.803   4.012   0.212
14778TIP3   OH244266   6.394   0.046   6.786
14778TIP3    H144267   6.445   0.076   6.710
14778TIP3    H244268   6.333   0.117   6.804
14779TIP3   OH244269   1.569   4.194   0.032
14779TIP3    H144270   1.493   4.144   0.061
14779TIP3    H244271   1.622   4.205   0.111
14780TIP3   OH244272   1.004   4.381   0.038
14780TIP3    H144273   0.909   4.382   0.026
14780TIP3    H244274   1.021   4.306   0.095
14781TIP3   OH244275   6.913   0.267   6.738
14781TIP3    H144276   7.004   0.286   6.714
14781TIP3    H244277   6.862   0.296   6.663
14782TIP3   OH244278   6.794   0.321   6.499
14782TIP3    H144279   6.732   0.268   6.448
14782TIP3    H244280   6.858   0.351   6.435
14783TIP3   OH244281   1.190   3.995   0.061
14783TIP3    H144282   1.129   3.930   0.097
14783TIP3    H244283   1.199   3.971  -0.031
14784TIP3   OH244284   7.064   0.802   6.613
14784TIP3    H144285   6.997   0.745   6.575
14784TIP3    H244286   7.026   0.833   6.695
14785TIP3   OH244287   7.505   0.158   6.407
14785TIP3    H144288   7.412   0.137   6.412
14785TIP3    H244289   7.509   0.253   6.417
14786TIP3   OH244290   7.600   0.426   6.471
14786TIP3    H144291   7.696   0.423   6.467
14786TIP3    H244292   7.576   0.512   6.437
14787TIP3   OH244293   7.092   1.017   6.395
14787TIP3    H144294   7.079   1.076   6.469
14787TIP3    H244295   7.109   0.932   6.434
14788TIP3   OH244296   7.994   0.474   6.306
14788TIP3    H144297   7.925   0.450   6.244
14788TIP3    H244298   8.019   0.563   6.280
14789TIP3   OH244299   6.428   0.462   6.576
14789TIP3    H144300   6.481   0.538   6.599
14789TIP3    H244301   6.351   0.469   6.633
14790TIP3   OH244302   7.471   0.919   6.270
14790TIP3    H144303   7.521   0.913   6.189
14790TIP3    H244304   7.380   0.900   6.244
14791TIP3   OH244305   6.838   0.929   6.355
14791TIP3    H144306   6.787   0.940   6.275
14791TIP3    H244307   6.918   0.979   6.339
14792TIP3   OH244308   6.523   0.707   6.676
14792TIP3    H144309   6.503   0.769   6.745
14792TIP3    H244310   6.512   0.757   6.595
14793TIP3   OH244311   7.557   0.095   6.669
14793TIP3    H144312   7.542   0.109   6.576
14793TIP3    H244313   7.609   0.171   6.697
14794TIP3   OH244314   7.182   0.292   6.729
14794TIP3    H144315   7.251   0.345   6.690
14794TIP3    H244316   7.211   0.276   6.819
14795TIP3   OH244317   7.390  -0.011   6.853
14795TIP3    H144318   7.347   0.062   6.898
14795TIP3    H244319   7.451   0.032   6.792
14796TIP3   OH244320   6.890  -0.004   6.700
14796TIP3    H144321   6.880   0.089   6.725
14796TIP3    H244322   6.985  -0.018   6.698
14797TIP3   OH244323   6.485   0.855   6.440
14797TIP3    H144324   6.528   0.941   6.434
14797TIP3    H244325   6.546   0.796   6.396
14798TIP3   OH244326   6.463   0.186   6.562
14798TIP3    H144327   6.473   0.279   6.579
14798TIP3    H244328   6.389   0.180   6.502
14799TIP3   OH244329   1.064   3.889   0.492
14799TIP3    H144330   1.068   3.870   0.399
14799TIP3    H244331   1.153   3.878   0.523
14800TIP3   OH244332   6.658   0.667   6.344
14800TIP3    H144333   6.717   0.658   6.419
14800TIP3    H244334   6.714   0.662   6.267
14801TIP3   OH244335   7.217   0.880   6.183
14801TIP3    H144336   7.174   0.962   6.210
14801TIP3    H244337   7.159   0.811   6.215
14802TIP3   OH244338   6.862   0.624   6.532
14802TIP3    H144339   6.826   0.609   6.620
14802TIP3    H244340   6.884   0.536   6.500
14803TIP3   OH244341   6.977   0.443   6.339
14803TIP3    H144342   6.951   0.429   6.247
14803TIP3    H244343   7.073   0.443   6.337
14804TIP3   OH244344   7.826   0.748   6.017
14804TIP3    H144345   7.779   0.681   5.967
14804TIP3    H244346   7.902   0.768   5.963
14805TIP3   OH244347   6.212   0.822   6.439
14805TIP3    H144348   6.298   0.861   6.457
14805TIP3    H244349   6.230   0.730   6.422
14806TIP3   OH244350   8.030   0.720   6.200
14806TIP3    H144351   7.947   0.727   6.154
14806TIP3    H244352   8.091   0.773   6.149
14807TIP3   OH244353   7.798   0.402   6.131
14807TIP3    H144354   7.771   0.420   6.041
14807TIP3    H244355   7.797   0.307   6.137
14808TIP3   OH244356   7.781   0.132   6.113
14808TIP3    H144357   7.851   0.092   6.165
14808TIP3    H244358   7.705   0.075   6.125
14809TIP3   OH244359   7.874   0.424   6.542
14809TIP3    H144360   7.903   0.334   6.560
14809TIP3    H244361   7.921   0.448   6.463
14810TIP3   OH244362   7.959   0.165   6.611
14810TIP3    H144363   7.991   0.171   6.701
14810TIP3    H244364   7.901   0.089   6.612
14811TIP3   OH244365   0.950   4.116   0.604
14811TIP3    H144366   0.963   4.025   0.577
14811TIP3    H244367   1.027   4.162   0.569
14812TIP3   OH244368   8.016   0.056   6.246
14812TIP3    H144369   8.065  -0.008   6.194
14812TIP3    H244370   8.069   0.135   6.242
14813TIP3   OH244371   0.772   3.905   0.069
14813TIP3    H144372   0.682   3.887   0.097
14813TIP3    H244373   0.763   3.961  -0.007
14814TIP3   OH244374   1.781   4.155   0.192
14814TIP3    H144375   1.731   4.094   0.245
14814TIP3    H244376   1.839   4.100   0.139
14815TIP3   OH244377   1.046   3.822   0.212
14815TIP3    H144378   0.958   3.794   0.235
14815TIP3    H244379   1.093   3.741   0.192
14816TIP3   OH244380   3.771   7.737   6.856
14816TIP3    H144381   3.776   7.781   6.772
14816TIP3    H244382   3.718   7.796   6.911
14817TIP3   OH244383   1.503   3.907   0.078
14817TIP3    H144384   1.573   3.873   0.022
14817TIP3    H244385   1.545   3.923   0.162
14818TIP3   OH244386   4.941   8.011   6.876
14818TIP3    H144387   4.966   8.071   6.946
14818TIP3    H244388   4.892   7.941   6.920
14819TIP3   OH244389   4.945   7.947   6.596
14819TIP3    H144390   4.875   7.998   6.637
14819TIP3    H244391   4.934   7.859   6.631
14820TIP3   OH244392   3.844   7.861   6.606
14820TIP3    H144393   3.889   7.798   6.549
14820TIP3    H244394   3.915   7.912   6.645
14821TIP3   OH244395   7.162   0.023   6.685
14821TIP3    H144396   7.224  -0.017   6.745
14821TIP3    H244397   7.169   0.117   6.703
14822TIP3   OH244398   0.240   0.296   5.879
14822TIP3    H144399   0.226   0.291   5.973
14822TIP3    H244400   0.160   0.338   5.845
14823TIP3   OH244401   8.174   0.282   6.240
14823TIP3    H144402   8.196   0.307   6.150
14823TIP3    H244403   8.119   0.354   6.271
14824TIP3   OH244404   8.195   0.377   5.977
14824TIP3    H144405   8.249   0.451   5.948
14824TIP3    H244406   8.137   0.360   5.903
14825TIP3   OH244407   8.220   0.170   6.488
14825TIP3    H144408   8.132   0.157   6.524
14825TIP3    H244409   8.206   0.210   6.403
14826TIP3   OH244410   5.500   7.972   6.329
14826TIP3    H144411   5.545   8.018   6.259
14826TIP3    H244412   5.467   8.041   6.387
14827TIP3   OH244413   8.471   0.077   6.120
14827TIP3    H144414   8.503   0.026   6.046
14827TIP3    H244415   8.436   0.156   6.081
   8.50000   8.01388   6.94022   0.00000   0.00000  -2.83333   0.00000  -2.83333  -4.00694
