* SET NIONTYPES = 1
* SET NPOSTOT = 68
* SET NNEGTOT = 65
* SET NIONTOT = 133
*  DATE:     6/13/26     12:29:11      CREATED BY USER: charmm-gui
*
       133  EXT
         1         1  SOD       SOD           -16.4361562988       11.9132322400       -9.6605496455  IONS      1               1.0000000000
         2         2  SOD       SOD            11.4152622342       38.4433943125       -9.4686933842  IONS      2               1.0000000000
         3         3  SOD       SOD           -40.3525883197       -6.2721898452       -1.2158889544  IONS      3               1.0000000000
         4         4  SOD       SOD           -21.4825932902       -8.9239969985      -36.3642711277  IONS      4               1.0000000000
         5         5  SOD       SOD            21.8631738180       -2.4451671513       41.9889878665  IONS      5               1.0000000000
         6         6  SOD       SOD           -14.8132582737      -27.2356290617      -19.0733524776  IONS      6               1.0000000000
         7         7  SOD       SOD            -8.2934934985      -16.7885849042      -22.0237146023  IONS      7               1.0000000000
         8         8  SOD       SOD           -32.5566372234        1.1235680028      -27.7114629276  IONS      8               1.0000000000
         9         9  SOD       SOD           -33.2817902642      -12.7633022831      -38.6003226782  IONS      9               1.0000000000
        10        10  SOD       SOD           -19.5233467767      -18.2666869665       36.2300933683  IONS      10              1.0000000000
        11        11  SOD       SOD           -30.6155541179      -14.6120799458       25.3853676328  IONS      11              1.0000000000
        12        12  SOD       SOD           -15.6712261354       27.9884907810       32.8691307072  IONS      12              1.0000000000
        13        13  SOD       SOD           -16.1912450735       -7.6274250854      -26.3168938321  IONS      13              1.0000000000
        14        14  SOD       SOD             9.6705506166       16.2168261453      -28.4590920160  IONS      14              1.0000000000
        15        15  SOD       SOD           -24.6348362959       -7.7387698151      -40.5629367236  IONS      15              1.0000000000
        16        16  SOD       SOD             0.4286978851       14.3420769378        3.5080009469  IONS      16              1.0000000000
        17        17  SOD       SOD            23.3696288150       46.0109114368       -8.1568992947  IONS      17              1.0000000000
        18        18  SOD       SOD            19.3160018239       45.5515531080       19.2645622945  IONS      18              1.0000000000
        19        19  SOD       SOD            13.8614372550      -20.6671583800      -31.1832051909  IONS      19              1.0000000000
        20        20  SOD       SOD           -19.9385337407      -27.7686346647        9.0510659298  IONS      20              1.0000000000
        21        21  SOD       SOD            11.6585496868       50.7871710235       10.4099837990  IONS      21              1.0000000000
        22        22  SOD       SOD           -10.9122933849      -38.2605855385       31.5004538754  IONS      22              1.0000000000
        23        23  SOD       SOD            -3.8958213890       12.7603009991      -36.2522421033  IONS      23              1.0000000000
        24        24  SOD       SOD            19.4588186851      -31.6263039998       38.2885071910  IONS      24              1.0000000000
        25        25  SOD       SOD            29.7201292159       33.1656996968       -3.1469741007  IONS      25              1.0000000000
        26        26  SOD       SOD             6.9893283258      -17.1101542321      -50.8448078521  IONS      26              1.0000000000
        27        27  SOD       SOD           -35.7559624485       -3.7380461875      -38.0600672613  IONS      27              1.0000000000
        28        28  SOD       SOD           -31.1589814899      -24.6724048317      -25.9100755911  IONS      28              1.0000000000
        29        29  SOD       SOD            47.2981339909       13.6462938074       16.1240192271  IONS      29              1.0000000000
        30        30  SOD       SOD            30.9061543790       17.1212689006      -33.5043932048  IONS      30              1.0000000000
        31        31  SOD       SOD             2.6241967531      -12.3478981083       32.5137305271  IONS      31              1.0000000000
        32        32  SOD       SOD           -27.2725372438       -6.7210618144      -46.2439747906  IONS      32              1.0000000000
        33        33  SOD       SOD             5.1250818209      -22.3399089075      -46.2177669350  IONS      33              1.0000000000
        34        34  SOD       SOD             0.8631756973       -0.2411100061       33.2897728900  IONS      34              1.0000000000
        35        35  SOD       SOD            19.6061696321      -38.0534235450      -33.5555189720  IONS      35              1.0000000000
        36        36  SOD       SOD            10.5442723454       37.5841145649       21.5248502807  IONS      36              1.0000000000
        37        37  SOD       SOD            33.1444692883        9.5224996764       12.9996128019  IONS      37              1.0000000000
        38        38  SOD       SOD           -31.0593034132      -19.5019993470       39.9075693168  IONS      38              1.0000000000
        39        39  SOD       SOD            -7.1291305246      -37.0174786577        3.1988903565  IONS      39              1.0000000000
        40        40  SOD       SOD            19.5122731871        2.8048599646       17.5055088027  IONS      40              1.0000000000
        41        41  SOD       SOD             5.4648805585      -43.5701166174       16.3534409668  IONS      41              1.0000000000
        42        42  SOD       SOD            28.1200586685       -1.3225485946       51.2160189406  IONS      42              1.0000000000
        43        43  SOD       SOD            -8.3586292948      -28.5087631644      -31.3866737200  IONS      43              1.0000000000
        44        44  SOD       SOD            45.9433367019       29.0775828090       -7.5957252981  IONS      44              1.0000000000
        45        45  SOD       SOD             1.1100928948       13.6876994610      -46.0130091778  IONS      45              1.0000000000
        46        46  SOD       SOD           -38.7705066683       20.6768331120      -30.0869085241  IONS      46              1.0000000000
        47        47  SOD       SOD           -39.9464494925      -31.4445442025      -11.9159757387  IONS      47              1.0000000000
        48        48  SOD       SOD           -15.3848588905      -14.8363870955       24.2667506575  IONS      48              1.0000000000
        49        49  SOD       SOD            28.4077270849       49.3659733623        0.7565469635  IONS      49              1.0000000000
        50        50  SOD       SOD            17.6685613540       14.4947592911       44.9105646650  IONS      50              1.0000000000
        51        51  SOD       SOD            -2.4457152045       45.8695853680      -22.4226518529  IONS      51              1.0000000000
        52        52  SOD       SOD             9.8714219351        8.4217799239       33.8663398561  IONS      52              1.0000000000
        53        53  SOD       SOD            46.4992421565       -7.5183446645       32.0620722188  IONS      53              1.0000000000
        54        54  SOD       SOD            31.8104694656       44.9211380953      -10.0966649284  IONS      54              1.0000000000
        55        55  SOD       SOD            26.6588194609      -15.5104144575        9.8138339850  IONS      55              1.0000000000
        56        56  SOD       SOD            -7.5243114540       30.5368181445       39.2983728965  IONS      56              1.0000000000
        57        57  SOD       SOD            19.5135866990       24.8205593091       16.5490747597  IONS      57              1.0000000000
        58        58  SOD       SOD           -19.4106982280        8.9499299864       33.3217224423  IONS      58              1.0000000000
        59        59  SOD       SOD            29.0252079037       19.1092375376        4.6748266270  IONS      59              1.0000000000
        60        60  SOD       SOD           -39.7647950941       34.0207318658       12.7428852681  IONS      60              1.0000000000
        61        61  SOD       SOD            10.4851874983      -20.1930815199      -40.6965939302  IONS      61              1.0000000000
        62        62  SOD       SOD           -47.7821302786      -21.3511029022       -3.9013370827  IONS      62              1.0000000000
        63        63  SOD       SOD            40.6026780735      -23.2688443152       14.3890218746  IONS      63              1.0000000000
        64        64  SOD       SOD           -10.1735809557      -47.3132300452       -2.8316619052  IONS      64              1.0000000000
        65        65  SOD       SOD           -33.7902350548       10.5150526594       44.0367296856  IONS      65              1.0000000000
        66        66  SOD       SOD           -20.6423711941      -35.8076074972      -14.5150898865  IONS      66              1.0000000000
        67        67  SOD       SOD            13.8943677683        2.8765254625      -46.7553238537  IONS      67              1.0000000000
        68        68  SOD       SOD            -4.8249478087       23.5482393378      -40.6547662906  IONS      68              1.0000000000
        69        69  CLA       CLA           -35.6885820381       15.4312958984      -17.2200297222  IONS      69             -1.0000000000
        70        70  CLA       CLA            27.0848132862       39.6600715886        1.9778366229  IONS      70             -1.0000000000
        71        71  CLA       CLA            48.2374639956       20.3259819397       12.6447222135  IONS      71             -1.0000000000
        72        72  CLA       CLA           -19.4439218766      -21.9334733622      -32.6627742823  IONS      72             -1.0000000000
        73        73  CLA       CLA            18.8412968974       31.6952740230       20.9105971228  IONS      73             -1.0000000000
        74        74  CLA       CLA            36.3252617023       32.6493736312       -6.1001009563  IONS      74             -1.0000000000
        75        75  CLA       CLA           -10.0926874498       -0.1897533647      -26.7249054917  IONS      75             -1.0000000000
        76        76  CLA       CLA            -9.5013643115       39.5831831989        5.6531425852  IONS      76             -1.0000000000
        77        77  CLA       CLA            11.1534579878       27.8100141188       27.5660251415  IONS      77             -1.0000000000
        78        78  CLA       CLA            19.5402521081       19.7113143771       35.0777603606  IONS      78             -1.0000000000
        79        79  CLA       CLA            -7.6557674913       13.3211108418      -25.4563241087  IONS      79             -1.0000000000
        80        80  CLA       CLA            40.9945326780      -38.2041136712       19.8014611325  IONS      80             -1.0000000000
        81        81  CLA       CLA            30.6755779926        0.0259494295       -4.4644916585  IONS      81             -1.0000000000
        82        82  CLA       CLA            52.2291071398       -7.4286203418       27.6408084511  IONS      82             -1.0000000000
        83        83  CLA       CLA           -24.2926914960      -25.5988497438       -8.4820356250  IONS      83             -1.0000000000
        84        84  CLA       CLA            22.5848593714       34.7469125453       15.9018159627  IONS      84             -1.0000000000
        85        85  CLA       CLA           -14.2596088061      -27.7188484509      -14.0115486135  IONS      85             -1.0000000000
        86        86  CLA       CLA            19.2320261001       47.4034299381      -11.7846011375  IONS      86             -1.0000000000
        87        87  CLA       CLA           -16.2731917130      -11.6245678705      -24.9728276352  IONS      87             -1.0000000000
        88        88  CLA       CLA           -28.3296473766      -25.3291978477       13.5324105794  IONS      88             -1.0000000000
        89        89  CLA       CLA           -24.7732823353       -4.5191658467      -32.4273857798  IONS      89             -1.0000000000
        90        90  CLA       CLA             7.8577716763       10.3469146069       49.6856851402  IONS      90             -1.0000000000
        91        91  CLA       CLA            40.6004055766       19.4437810962       14.2704585081  IONS      91             -1.0000000000
        92        92  CLA       CLA           -22.3686667302       24.6845907068       39.5798834150  IONS      92             -1.0000000000
        93        93  CLA       CLA            -5.1518788843       37.5187597195       -5.5997746560  IONS      93             -1.0000000000
        94        94  CLA       CLA            10.2436652313      -20.7579897719      -46.6069237285  IONS      94             -1.0000000000
        95        95  CLA       CLA            23.0347249827      -35.0438778520      -31.8935715325  IONS      95             -1.0000000000
        96        96  CLA       CLA            -6.1838936770       24.7114509033       36.8682279947  IONS      96             -1.0000000000
        97        97  CLA       CLA           -36.4708844504       13.7742013830      -34.1335915807  IONS      97             -1.0000000000
        98        98  CLA       CLA            30.2765316183       48.2644626768       -7.2724233427  IONS      98             -1.0000000000
        99        99  CLA       CLA           -43.4588681102       31.4141592379      -25.3754103664  IONS      99             -1.0000000000
       100       100  CLA       CLA            20.3170458482      -26.6773034084      -14.3142176900  IONS      100            -1.0000000000
       101       101  CLA       CLA             7.2330250926        3.8897304418       15.7680145564  IONS      101            -1.0000000000
       102       102  CLA       CLA           -18.4431564832        3.4345702955       23.4619165797  IONS      102            -1.0000000000
       103       103  CLA       CLA           -10.8464774793        3.9398537854       18.2921997245  IONS      103            -1.0000000000
       104       104  CLA       CLA           -30.6595364448      -21.6961928414        2.7541470828  IONS      104            -1.0000000000
       105       105  CLA       CLA           -21.2180450103        5.1318810782       -6.8184681928  IONS      105            -1.0000000000
       106       106  CLA       CLA            47.8638726897       30.3737809092        4.0264231437  IONS      106            -1.0000000000
       107       107  CLA       CLA            14.1729534947        5.3345797316      -21.5150522718  IONS      107            -1.0000000000
       108       108  CLA       CLA            32.0396623022      -23.8664136097       36.9651897469  IONS      108            -1.0000000000
       109       109  CLA       CLA           -46.4611633647       -3.8431770014      -27.4955102102  IONS      109            -1.0000000000
       110       110  CLA       CLA            19.7962953051       47.6246558988        8.0315281966  IONS      110            -1.0000000000
       111       111  CLA       CLA           -33.3256474790      -17.8443562504       18.2463081400  IONS      111            -1.0000000000
       112       112  CLA       CLA            15.7539975325       26.9017243973       19.1545600747  IONS      112            -1.0000000000
       113       113  CLA       CLA             5.9955137721       20.4496625167       20.3283055116  IONS      113            -1.0000000000
       114       114  CLA       CLA            28.7148740515        2.4116528988       41.9255715042  IONS      114            -1.0000000000
       115       115  CLA       CLA            28.2131003817       -6.2132976035       50.0551355753  IONS      115            -1.0000000000
       116       116  CLA       CLA            -6.5239872267      -46.6418317653      -25.6751397739  IONS      116            -1.0000000000
       117       117  CLA       CLA             9.2252064522       52.4770721347       16.0909016116  IONS      117            -1.0000000000
       118       118  CLA       CLA            22.7776542136        1.8200767118      -29.3457765979  IONS      118            -1.0000000000
       119       119  CLA       CLA           -48.5818903058      -21.9345971781        2.8091615199  IONS      119            -1.0000000000
       120       120  CLA       CLA           -15.1750648043      -36.7147080072       35.9271399169  IONS      120            -1.0000000000
       121       121  CLA       CLA            38.3586862243        0.0598082218      -30.3102321054  IONS      121            -1.0000000000
       122       122  CLA       CLA            25.1625748946      -27.5374663707       -0.5339208731  IONS      122            -1.0000000000
       123       123  CLA       CLA           -10.8887685264      -43.7080785631        9.9868801016  IONS      123            -1.0000000000
       124       124  CLA       CLA            -5.5600604549       21.2638465737       -3.0444769858  IONS      124            -1.0000000000
       125       125  CLA       CLA             5.8179576901       29.2584861108      -43.7569241484  IONS      125            -1.0000000000
       126       126  CLA       CLA             1.1954292487      -17.9852269199       -5.6154620115  IONS      126            -1.0000000000
       127       127  CLA       CLA            12.4911609175       21.5113193089      -29.2907660848  IONS      127            -1.0000000000
       128       128  CLA       CLA            32.4012083750       15.0182770861        1.6852797908  IONS      128            -1.0000000000
       129       129  CLA       CLA           -21.4284879187       31.7603982252      -33.6580527361  IONS      129            -1.0000000000
       130       130  CLA       CLA            -8.6797678022      -32.4647446791       25.3898753178  IONS      130            -1.0000000000
       131       131  CLA       CLA            47.5353291033       10.9663469700       -8.4040728996  IONS      131            -1.0000000000
       132       132  CLA       CLA           -33.1847892445      -31.0663254037       -5.3065388261  IONS      132            -1.0000000000
       133       133  CLA       CLA            31.1794076620       29.5722390200       18.8467518999  IONS      133            -1.0000000000
